FOO
138240
    1MOL0     O    1   5.184   6.542   4.814 -0.2513  0.2061 -0.8380
    1MOL0     C    2   5.084   6.475   4.822  0.2808  0.1227  0.4285
    1MOL0     O    3   5.077   6.341   4.829 -0.0485 -0.4339 -0.1431
    1MOL0     C    4   5.188   6.261   4.828  0.7328 -0.1648  0.0246
    1MOL0     C    5   5.302   6.291   4.743  0.1046  0.3904 -0.4822
    1MOL0     C    6   5.411   6.204   4.738 -0.1250 -0.4948  0.5941
    1MOL0     C    7   5.411   6.088   4.823 -0.3414 -1.2726 -0.8540
    1MOL0     O    8   5.519   6.009   4.837 -0.0707 -0.2307  0.5474
    1MOL0     C    9   5.646   6.069   4.848 -0.1211  0.1180 -0.5021
    1MOL0     C   10   5.739   5.969   4.919  0.0227 -0.6274  0.5601
    1MOL0     C   11   5.760   5.836   4.845  0.8022 -0.2216  0.2705
    1MOL0     C   12   5.846   5.750   4.934  0.0218 -0.0729  0.0904
    1MOL0     C   13   5.875   5.619   4.862  0.5026  0.6915  0.7674
    1MOL0     C   14   5.993   5.538   4.917 -1.5190 -0.1779 -0.5884
    1MOL0     C   15   6.017   5.414   4.820 -0.6455  0.4887  0.7469
    1MOL0     C   16   6.143   5.324   4.854  0.0713 -0.4298 -0.4151
    1MOL0     N   17   6.274   5.378   4.809 -0.0417 -0.0706  0.8783
    1MOL0     C   18   6.350   5.456   4.883  0.2509 -0.1803 -1.1444
    1MOL0     C   19   6.412   5.536   4.789  0.7631  0.6551  0.0911
    1MOL0     C   20   6.487   5.663   4.828 -0.2211  0.0434 -0.1354
    1MOL0     C   21   6.434   5.786   4.754  0.8907  0.7024  0.2165
    1MOL0     C   22   6.475   5.812   4.604 -0.2689 -0.2338 -0.2977
    1MOL0     C   23   6.620   5.859   4.577  0.0188 -0.0637 -0.4712
    1MOL0     O   24   6.649   5.961   4.675  0.3352  0.9812  0.5574
    1MOL0     C   25   6.777   5.996   4.687 -0.1575  0.6577  0.7043
    1MOL0     C   26   6.805   6.058   4.804 -0.3948 -0.4691 -0.1702
    1MOL0     C   27   6.939   6.098   4.831 -0.5888  0.2515  0.1746
    1MOL0     C   28   7.038   6.072   4.738 -0.2697  0.1083  0.0934
    1MOL0     C   29   7.173   6.139   4.776  0.3162 -0.4384 -0.2841
    1MOL0     O   30   7.191   6.186   4.908 -0.7060 -0.2806  0.0782
    1MOL0     C   31   7.307   6.255   4.924 -1.0604 -0.0432 -0.1168
    1MOL0     C   32   7.429   6.183   4.931 -1.0492 -0.3872  0.6122
    1MOL0     C   33   7.541   6.261   4.962  0.5218 -0.0951 -0.3961
    1MOL0     C   34   7.535   6.406   4.971  0.1910  0.1786 -0.0280
    1MOL0     O   35   7.649   6.478   4.997 -0.1703  0.1410 -0.8114
    1MOL0     C   36   7.641   6.564   5.107  0.5489 -0.0870  0.1494
    1MOL0     C   37   7.757   6.522   5.201 -0.1975  0.0825 -0.0069
    1MOL0     C   38   7.888   6.597   5.150  0.5455 -0.5037  0.6801
    1MOL0     C   39   8.008   6.559   5.228  0.4245  0.1679 -0.0672
    1MOL0     C   40   8.093   6.459   5.149  1.0482 -0.0423 -0.2572
    1MOL0     C   41   8.215   6.417   5.225  0.7755 -0.2415 -0.0703
    1MOL0     C   42   8.339   6.394   5.142  0.2939 -0.2064 -0.9685
    1MOL0     C   43   8.386   6.533   5.095  0.4221 -0.1316 -0.6362
    1MOL0    Cl   44   8.562   6.555   5.043  0.3563 -0.2953  0.3550
    1MOL0     C   45   7.417   6.466   4.969 -0.2851 -0.2619 -0.6351
    1MOL0     C   46   7.301   6.393   4.946 -0.0158  0.2709  0.8491
    1MOL0     O   47   7.251   6.143   4.684  0.3687 -0.6263  0.0910
    1MOL0     C   48   7.006   6.014   4.612 -0.4892 -0.2529 -0.3579
    1MOL0     C   49   6.876   5.975   4.587  0.3458 -0.7925 -0.7477
    1MOL0     N   50   6.381   5.482   4.668 -0.0668  0.5349 -0.0094
    1MOL0     N   51   6.304   5.380   4.679 -0.3286  0.5076  0.2712
    1MOL0     C   52   5.294   6.062   4.901 -1.5231 -0.4551  0.2977
    1MOL0     C   53   5.185   6.150   4.900  0.3798 -0.9279 -0.7603
    1MOL0     C   54   4.951   6.547   4.838 -0.0307 -0.4026 -0.2343
    1MOL0     C   55   4.837   6.469   4.862  0.3825 -0.0837 -1.7833
    1MOL0     C   56   4.717   6.530   4.904 -0.0940 -0.0799  0.4255
    1MOL0     C   57   4.702   6.668   4.899  0.3243  0.2831  0.7238
    1MOL0     O   58   4.584   6.737   4.910 -0.2499 -0.3413  0.7614
    1MOL0     C   59   4.456   6.671   4.935  0.2313  0.1749  0.2158
    1MOL0     C   60   4.444   6.598   5.069 -0.5866  0.2550  0.3020
    1MOL0     C   61   4.303   6.525   5.089  0.3989 -0.3507  0.0922
    1MOL0     C   62   4.282   6.473   5.238  0.1249 -0.0238  0.1381
    1MOL0     C   63   4.381   6.375   5.266 -0.6391  0.1465 -1.4362
    1MOL0     C   64   4.475   6.301   5.294  0.2979  0.8306 -1.9544
    1MOL0     C   65   4.803   6.747   4.861  0.6233 -0.6471  0.6931
    1MOL0     C   66   4.927   6.686   4.831 -0.5101 -0.5209  1.1666
    1MOL0     C   67   5.047   6.774   4.800  0.3578 -0.0782 -0.4499
    1MOL0     H   68   5.299   6.372   4.671  0.0085  1.5506  0.7941
    1MOL0     H   69   5.492   6.232   4.672  0.0730  1.7247  1.6954
    1MOL0     H   70   5.689   6.081   4.748  1.9990  0.2252  0.3713
    1MOL0     H   71   5.633   6.166   4.897 -2.1753 -0.3668  0.0204
    1MOL0     H   72   5.696   5.946   5.017  1.0380  0.5806  1.3254
    1MOL0     H   73   5.833   6.024   4.933  0.4459 -1.6671  2.0321
    1MOL0     H   74   5.809   5.864   4.751  3.1441  1.1215  1.7973
    1MOL0     H   75   5.669   5.777   4.829  0.8563 -0.0124 -0.9149
    1MOL0     H   76   5.934   5.811   4.952 -1.1552  1.6446  0.2707
    1MOL0     H   77   5.786   5.732   5.024 -0.5232 -2.0792 -0.6097
    1MOL0     H   78   5.780   5.566   4.847 -0.5124  2.5133  0.4260
    1MOL0     H   79   5.912   5.649   4.763  0.6320 -0.7589  0.3548
    1MOL0     H   80   6.076   5.610   4.918 -3.4403  2.1534  0.5305
    1MOL0     H   81   5.968   5.507   5.019 -2.1026  0.6635 -0.4653
    1MOL0     H   82   6.031   5.446   4.717 -1.4015  3.2269  1.4004
    1MOL0     H   83   5.926   5.353   4.829  0.0421 -0.9096 -1.1594
    1MOL0     H   84   6.143   5.322   4.963  4.2714  3.8356  0.0033
    1MOL0     H   85   6.137   5.232   4.794  0.5385 -0.1754 -0.8600
    1MOL0     H   86   6.328   5.479   4.987 -0.6066 -0.5053 -1.2455
    1MOL0     H   87   6.480   5.677   4.936 -3.3221 -0.5869 -0.1643
    1MOL0     H   88   6.595   5.651   4.812  0.2102  0.7147  1.9382
    1MOL0     H   89   6.325   5.775   4.763  1.1818 -1.8603  1.4473
    1MOL0     H   90   6.473   5.876   4.803  1.7129  0.1161  0.6698
    1MOL0     H   91   6.408   5.888   4.563 -0.1416 -1.9432 -4.1049
    1MOL0     H   92   6.458   5.718   4.552  0.2434 -0.3634 -0.2408
    1MOL0     H   93   6.637   5.891   4.474  1.3619 -0.2484 -0.3245
    1MOL0     H   94   6.697   5.784   4.598 -1.2727 -0.7862  2.1659
    1MOL0     H   95   6.730   6.080   4.880 -0.1160 -2.9500  0.9264
    1MOL0     H   96   6.970   6.153   4.920  0.0879 -0.5700  0.4604
    1MOL0     H   97   7.448   6.077   4.911 -0.2092 -0.1796  0.2212
    1MOL0     H   98   7.638   6.214   4.975  0.1900 -0.3227  1.4264
    1MOL0     H   99   7.646   6.671   5.083 -2.2848  0.1322  0.2302
    1MOL0     H  100   7.548   6.551   5.163  1.6140 -0.7355  1.8776
    1MOL0     H  101   7.730   6.533   5.307 -0.8514 -1.4796  0.0188
    1MOL0     H  102   7.772   6.414   5.190  0.7457  0.2079 -0.0122
    1MOL0     H  103   7.900   6.596   5.041 -1.2325  1.1696  0.4009
    1MOL0     H  104   7.872   6.701   5.181  0.4164 -1.1425  2.9427
    1MOL0     H  105   7.981   6.511   5.323  0.7748 -1.7526 -0.8930
    1MOL0     H  106   8.064   6.652   5.238 -0.3916  0.7196 -0.5614
    1MOL0     H  107   8.110   6.510   5.054 -5.1337  2.8758 -0.3450
    1MOL0     H  108   8.032   6.374   5.116  2.9023 -1.7627  0.5719
    1MOL0     H  109   8.227   6.482   5.312  2.6619  0.6065 -0.9078
    1MOL0     H  110   8.185   6.321   5.269 -1.2099  1.2164  2.0729
    1MOL0     H  111   8.309   6.334   5.056  0.0820 -1.9543  0.2887
    1MOL0     H  112   8.411   6.345   5.208 -1.1055  0.1750  0.9261
    1MOL0     H  113   8.323   6.554   5.007  0.2334  0.5142 -0.3492
    1MOL0     H  114   8.349   6.601   5.172  0.7553 -0.8758  0.2011
    1MOL0     H  115   7.408   6.573   4.983 -0.0850 -0.5644  2.4384
    1MOL0     H  116   7.199   6.430   4.946 -0.2544 -0.3719  0.7445
    1MOL0     H  117   7.083   6.008   4.535 -0.6618  0.5987 -0.6114
    1MOL0     H  118   6.854   5.943   4.486  0.5341 -2.4745 -0.2991
    1MOL0     H  119   5.297   5.983   4.975  1.0389 -0.7559 -0.0333
    1MOL0     H  120   5.097   6.137   4.962  0.8814  1.5819  0.6123
    1MOL0     H  121   4.833   6.361   4.853 -0.8910 -0.7367  3.2807
    1MOL0     H  122   4.632   6.465   4.919 -3.6082  4.0456  0.4013
    1MOL0     H  123   4.438   6.592   4.861  0.8783  1.9948 -1.9880
    1MOL0     H  124   4.380   6.750   4.932  0.0826  0.1193  1.7751
    1MOL0     H  125   4.458   6.677   5.143  1.0138  0.7582 -0.5015
    1MOL0     H  126   4.510   6.513   5.085 -3.7883 -2.7786 -1.1847
    1MOL0     H  127   4.298   6.435   5.028  0.0307  0.6866 -1.4487
    1MOL0     H  128   4.225   6.599   5.071  0.1623 -0.4574  0.6590
    1MOL0     H  129   4.279   6.555   5.311  2.2672 -0.4508  0.7791
    1MOL0     H  130   4.184   6.423   5.235  0.3956 -0.5620  0.1753
    1MOL0     H  131   4.566   6.248   5.314 -0.8682 -0.8134 -0.7289
    1MOL0     H  132   4.783   6.853   4.848 -1.0811 -1.0176 -0.0361
    1MOL0     H  133   5.024   6.881   4.796 -4.9589 -0.9302 -0.4684
    1MOL0     H  134   5.125   6.758   4.875  0.4280 -0.0977 -0.5270
    1MOL0     H  135   5.087   6.746   4.702 -2.7211 -1.4356 -1.4675
    2MOL0     O  136  10.504   4.023   7.727 -0.2823 -0.0535 -0.2485
    2MOL0     C  137  10.590   4.062   7.647 -0.2047  0.4778  0.1302
    2MOL0     O  138  10.569   4.156   7.553  0.2020 -0.7513  0.2144
    2MOL0     C  139  10.441   4.185   7.498  0.6916 -0.2233 -0.4191
    2MOL0     C  140  10.429   4.315   7.439  0.8331 -0.3848 -0.2692
    2MOL0     C  141  10.319   4.349   7.359 -0.9799 -0.1432  0.1865
    2MOL0     C  142  10.221   4.253   7.350  0.5150 -0.2766  1.3504
    2MOL0     O  143  10.115   4.299   7.284 -0.0507  0.0008  0.0853
    2MOL0     C  144  10.024   4.212   7.228 -0.1569  0.7868 -0.3874
    2MOL0     C  145   9.930   4.303   7.145 -0.0612  0.0846  0.0070
    2MOL0     C  146   9.814   4.211   7.094  0.2585  0.1337  0.8139
    2MOL0     C  147   9.706   4.292   7.015  0.4280  0.0534 -0.0503
    2MOL0     C  148   9.603   4.216   6.930  0.1221 -0.1767  1.1419
    2MOL0     C  149   9.550   4.092   6.996  0.7545 -0.3757  0.1670
    2MOL0     C  150   9.402   4.076   6.959 -0.4880  0.1714 -0.1316
    2MOL0     C  151   9.341   3.937   7.005 -0.3721 -0.0001  0.0408
    2MOL0     N  152   9.211   3.918   6.937  0.0510  0.7698 -0.0325
    2MOL0     C  153   9.085   3.955   6.984  0.2379 -0.6327 -0.1079
    2MOL0     C  154   9.007   3.936   6.877  0.3791  0.5893  0.1369
    2MOL0     C  155   8.861   3.942   6.885 -0.9284  0.4281 -0.7399
    2MOL0     C  156   8.807   3.844   7.006  0.4772 -1.0662  0.0073
    2MOL0     C  157   8.669   3.872   7.043  0.5005  0.2387  0.5492
    2MOL0     C  158   8.665   4.006   7.111 -0.2097 -0.5568  0.0505
    2MOL0     O  159   8.532   4.034   7.157  0.0143 -0.0767  0.5428
    2MOL0     C  160   8.444   4.096   7.068  0.4868  0.2453 -0.2078
    2MOL0     C  161   8.464   4.118   6.930  0.3502 -0.5081  0.0338
    2MOL0     C  162   8.373   4.199   6.860 -0.3921  0.3230  0.7678
    2MOL0     C  163   8.268   4.252   6.925  0.4743 -0.9326  0.3673
    2MOL0     C  164   8.181   4.345   6.853 -1.1190 -0.0101 -0.4593
    2MOL0     O  165   8.213   4.377   6.721  0.3161  0.3470  0.1298
    2MOL0     C  166   8.125   4.449   6.639 -1.2183  0.0799 -0.1839
    2MOL0     C  167   7.993   4.500   6.656  0.7497 -0.6658 -0.0181
    2MOL0     C  168   7.931   4.575   6.560  0.2696 -0.7090 -0.1168
    2MOL0     C  169   7.993   4.611   6.443 -0.0220  0.3428 -0.1723
    2MOL0     O  170   7.928   4.696   6.353 -0.8125  0.1217 -0.8826
    2MOL0     C  171   7.965   4.688   6.216 -0.3997  0.0162 -0.2301
    2MOL0     C  172   7.901   4.804   6.131  0.3324  0.1935 -0.4299
    2MOL0     C  173   7.770   4.860   6.174 -0.1453  0.6257 -1.2412
    2MOL0     C  174   7.706   4.942   6.063 -0.0197  0.4901 -0.3750
    2MOL0     C  175   7.606   5.044   6.125  0.7873 -0.3247  0.6387
    2MOL0     C  176   7.510   5.094   6.017 -0.6113  0.0718 -0.1284
    2MOL0     C  177   7.410   4.990   5.971  0.0586  0.2155 -0.3552
    2MOL0     C  178   7.300   5.044   5.888 -0.1348 -0.2038 -0.3719
    2MOL0    Cl  179   7.189   5.138   5.985 -0.0642 -0.0285 -0.0164
    2MOL0     C  180   8.116   4.555   6.418 -0.2157 -0.1531  0.4780
    2MOL0     C  181   8.179   4.480   6.513  0.0889 -0.9344 -0.1248
    2MOL0     O  182   8.080   4.374   6.914  0.8418 -0.8419 -0.3306
    2MOL0     C  183   8.252   4.235   7.062  0.0715 -0.2208  0.6493
    2MOL0     C  184   8.334   4.150   7.127  0.0427 -0.0736 -0.4257
    2MOL0     N  185   9.081   3.894   6.762 -0.1614 -0.1207 -0.3052
    2MOL0     N  186   9.204   3.883   6.804 -0.4319  0.6794 -0.1511
    2MOL0     C  187  10.232   4.123   7.408  0.2769 -0.5454  0.7089
    2MOL0     C  188  10.336   4.090   7.485  0.2241 -0.2842 -1.3631
    2MOL0     C  189  10.727   4.000   7.661 -0.8530 -0.7858 -0.5140
    2MOL0     C  190  10.755   3.951   7.784 -0.8712  0.2034 -1.3166
    2MOL0     C  191  10.868   3.876   7.814 -0.9308 -0.0718 -0.5232
    2MOL0     C  192  10.969   3.867   7.719 -0.6649  0.8129 -1.0072
    2MOL0     O  193  11.095   3.820   7.765 -0.0825 -0.8360  0.1571
    2MOL0     C  194  11.121   3.682   7.762 -0.6724  0.2750 -0.3434
    2MOL0     C  195  11.211   3.621   7.652 -0.1851  0.3499 -1.1526
    2MOL0     C  196  11.356   3.677   7.657  0.1196 -0.4866 -0.8584
    2MOL0     C  197  11.367   3.826   7.614 -0.0290 -0.7793  0.1994
    2MOL0     C  198  11.352   3.832   7.465 -0.8688 -1.0632  0.3036
    2MOL0     C  199  11.349   3.814   7.344 -0.4283  1.2368 -0.3429
    2MOL0     C  200  10.948   3.920   7.590  0.3552 -0.5247  0.4976
    2MOL0     C  201  10.828   3.984   7.558 -0.2317 -0.5340 -0.3311
    2MOL0     C  202  10.819   4.050   7.419  0.8706 -0.2983  0.3394
    2MOL0     H  203  10.504   4.392   7.455  1.5212 -0.9034 -0.8724
    2MOL0     H  204  10.312   4.443   7.306  0.8462  0.7907  1.5087
    2MOL0     H  205  10.070   4.134   7.166 -0.1616 -0.4447  1.1053
    2MOL0     H  206   9.956   4.167   7.300  0.3872 -0.3284 -0.5513
    2MOL0     H  207   9.987   4.348   7.063 -1.2484 -0.7118 -1.2936
    2MOL0     H  208   9.892   4.376   7.217 -0.6292 -1.5540  1.4431
    2MOL0     H  209   9.774   4.142   7.170 -0.8576  0.0993  0.2178
    2MOL0     H  210   9.867   4.139   7.031  4.5138  1.8148  2.1191
    2MOL0     H  211   9.647   4.359   7.079 -0.9911  0.2870 -1.5265
    2MOL0     H  212   9.765   4.363   6.956  2.5724 -2.6425 -1.3776
    2MOL0     H  213   9.525   4.287   6.902  1.2982  1.1509  1.1797
    2MOL0     H  214   9.647   4.183   6.836  1.6340 -1.3069  2.1906
    2MOL0     H  215   9.604   4.003   6.961  1.3973  0.0457  0.0531
    2MOL0     H  216   9.567   4.091   7.104 -0.2931 -2.7965  0.3586
    2MOL0     H  217   9.396   4.069   6.850  0.7904 -1.9041 -0.1328
    2MOL0     H  218   9.337   4.148   7.007 -0.1568 -0.1728  0.8610
    2MOL0     H  219   9.406   3.857   6.967 -0.9046  0.4468 -1.9222
    2MOL0     H  220   9.330   3.930   7.114  0.2716  0.5416  0.1454
    2MOL0     H  221   9.058   3.992   7.082  1.3157 -0.5803  0.1894
    2MOL0     H  222   8.838   4.047   6.903  1.6787  1.1359 -1.1478
    2MOL0     H  223   8.817   3.897   6.795 -1.4634 -3.1737  1.1254
    2MOL0     H  224   8.816   3.741   6.970 -0.4009 -0.1918 -3.0922
    2MOL0     H  225   8.858   3.840   7.102  1.8961 -0.9688 -0.7136
    2MOL0     H  226   8.635   3.795   7.114  2.1232 -1.1645 -0.1344
    2MOL0     H  227   8.617   3.866   6.948  0.8873 -1.8672  0.4264
    2MOL0     H  228   8.692   4.086   7.041  1.9137 -0.0470  1.3673
    2MOL0     H  229   8.731   4.014   7.198  1.7786  3.8090 -1.5615
    2MOL0     H  230   8.544   4.082   6.867  2.0101  2.8167  0.0311
    2MOL0     H  231   8.396   4.222   6.756 -4.7585 -0.5404 -0.6209
    2MOL0     H  232   7.937   4.464   6.742 -0.4566 -1.3440 -1.0542
    2MOL0     H  233   7.835   4.612   6.595  1.0727 -0.8108  2.4422
    2MOL0     H  234   8.072   4.709   6.206 -0.7257  0.8739 -2.3495
    2MOL0     H  235   7.942   4.586   6.185 -0.0554 -0.0393 -0.3066
    2MOL0     H  236   7.969   4.889   6.120 -0.7575  0.9417 -1.6111
    2MOL0     H  237   7.884   4.763   6.031 -2.8055 -2.0714  0.8454
    2MOL0     H  238   7.703   4.789   6.224  2.9972  0.5371  3.5843
    2MOL0     H  239   7.792   4.934   6.252  1.1179  0.2044 -1.1813
    2MOL0     H  240   7.657   4.877   5.990  0.4437 -1.5038  1.0122
    2MOL0     H  241   7.781   4.998   6.006  1.8263  0.5098  1.9224
    2MOL0     H  242   7.661   5.128   6.169  2.4616 -1.1215  0.1289
    2MOL0     H  243   7.550   5.000   6.208  2.5902  1.5521  3.0023
    2MOL0     H  244   7.450   5.179   6.051  0.0577  1.3249 -1.9192
    2MOL0     H  245   7.564   5.132   5.930 -0.3923  1.3328  0.5423
    2MOL0     H  246   7.370   4.931   6.054 -0.9367  0.3447 -0.7347
    2MOL0     H  247   7.461   4.916   5.908 -0.3099 -0.4507  0.1126
    2MOL0     H  248   7.335   5.106   5.805 -0.7063  1.1232  0.3496
    2MOL0     H  249   7.237   4.966   5.845 -2.9842  0.0902  2.8153
    2MOL0     H  250   8.170   4.561   6.323  1.3385  1.9230  1.3932
    2MOL0     H  251   8.276   4.443   6.480  0.9776  0.7296  0.5056
    2MOL0     H  252   8.164   4.276   7.110 -0.2487  0.5074 -0.5365
    2MOL0     H  253   8.327   4.138   7.235  2.6568  0.3035 -0.1548
    2MOL0     H  254  10.148   4.054   7.404  3.7832 -5.2422  0.9409
    2MOL0     H  255  10.335   3.992   7.534 -0.8045  1.1237  1.6929
    2MOL0     H  256  10.688   3.968   7.868  0.5129  2.8975 -0.6236
    2MOL0     H  257  10.883   3.841   7.915 -2.3863 -1.9713 -0.8962
    2MOL0     H  258  11.035   3.615   7.765  1.8579 -3.2582 -0.7592
    2MOL0     H  259  11.176   3.653   7.852 -3.2303  1.6064  1.7938
    2MOL0     H  260  11.169   3.648   7.555 -1.1056 -0.1804 -0.9129
    2MOL0     H  261  11.218   3.512   7.660  2.4586  0.5590  0.6820
    2MOL0     H  262  11.422   3.622   7.590  0.1986  0.0968 -1.2710
    2MOL0     H  263  11.395   3.664   7.759 -1.3910 -0.3564 -0.2450
    2MOL0     H  264  11.301   3.896   7.666  0.5734  0.8384 -1.0993
    2MOL0     H  265  11.465   3.859   7.649 -0.6187  1.5151 -0.1347
    2MOL0     H  266  11.347   3.806   7.237  1.2586  1.9896 -0.4666
    2MOL0     H  267  11.022   3.918   7.510 -0.2156 -1.9166 -0.0208
    2MOL0     H  268  10.920   4.052   7.378  0.6554 -1.4261 -0.2798
    2MOL0     H  269  10.752   3.996   7.351 -0.9103  2.1595  0.0105
    2MOL0     H  270  10.785   4.152   7.437 -0.2990 -0.2947 -1.6266
    3MOL0     O  271   2.443   4.164   3.542 -0.5773 -0.3742 -0.1413
    3MOL0     C  272   2.378   4.132   3.449 -0.0432  0.7453 -0.2925
    3MOL0     O  273   2.432   4.080   3.335  0.3490 -0.6167 -0.5965
    3MOL0     C  274   2.560   4.044   3.334  0.0148 -0.3948 -0.0256
    3MOL0     C  275   2.669   4.143   3.319 -0.3719  0.1138  0.0425
    3MOL0     C  276   2.792   4.100   3.284 -0.1699 -0.1592  0.8608
    3MOL0     C  277   2.822   3.968   3.271  0.6973  0.6076 -0.5219
    3MOL0     O  278   2.957   3.936   3.269  0.3760  0.0157  0.7175
    3MOL0     C  279   3.007   3.879   3.149 -1.3816 -0.9480  1.5336
    3MOL0     C  280   3.115   3.975   3.090 -0.3209  0.4626  0.1672
    3MOL0     C  281   3.207   3.904   2.990  0.1513  0.6111  0.2916
    3MOL0     C  282   3.335   3.985   2.965  0.9118  0.0001 -0.4087
    3MOL0     C  283   3.428   3.903   2.867  0.1300 -0.2836 -1.2616
    3MOL0     C  284   3.521   3.987   2.790 -1.2326  0.3249  0.2239
    3MOL0     C  285   3.624   4.071   2.875  0.8802 -0.4355  0.1594
    3MOL0     C  286   3.721   3.971   2.929 -0.0756 -0.1722  0.6241
    3MOL0     N  287   3.854   4.036   2.962 -0.3504 -0.3780 -0.7614
    3MOL0     C  288   3.978   3.979   2.933 -1.3797  0.1546 -0.2391
    3MOL0     C  289   4.066   4.069   2.983  0.4665 -0.2595 -0.6184
    3MOL0     C  290   4.219   4.048   2.979  0.0508 -0.4980 -0.6643
    3MOL0     C  291   4.265   3.987   3.114  0.9720 -0.2882  0.1958
    3MOL0     C  292   4.403   4.022   3.151 -0.0825 -0.3776  0.2827
    3MOL0     C  293   4.485   3.898   3.179  0.4771 -0.3261  0.4735
    3MOL0     O  294   4.427   3.831   3.295  0.3675 -0.3306  0.1244
    3MOL0     C  295   4.519   3.788   3.381 -0.6204 -0.5539  0.5922
    3MOL0     C  296   4.584   3.878   3.464 -0.2200 -1.1261  0.6254
    3MOL0     C  297   4.683   3.843   3.553 -0.0744  0.2806 -0.2000
    3MOL0     C  298   4.724   3.707   3.557 -0.4592  0.6732  0.3641
    3MOL0     C  299   4.838   3.671   3.635  1.1500  0.1418  0.7547
    3MOL0     O  300   4.871   3.753   3.736 -0.2496 -0.5220  0.1027
    3MOL0     C  301   4.976   3.718   3.814  0.4140 -0.7080  0.3806
    3MOL0     C  302   5.102   3.733   3.766 -0.4740 -0.0024 -0.4271
    3MOL0     C  303   5.215   3.720   3.845 -0.4818 -0.0801 -0.2840
    3MOL0     C  304   5.199   3.679   3.975 -0.8511  0.4260 -0.6313
    3MOL0     O  305   5.307   3.664   4.061 -0.6217  0.1714  0.5604
    3MOL0     C  306   5.299   3.568   4.167 -0.4451  0.0855  0.0352
    3MOL0     C  307   5.442   3.512   4.190  0.5722 -0.4360  0.0990
    3MOL0     C  308   5.426   3.386   4.281 -1.5535 -1.1597 -1.2732
    3MOL0     C  309   5.548   3.289   4.260 -0.0548 -0.2710 -0.3212
    3MOL0     C  310   5.565   3.177   4.365 -0.1821 -0.6908 -0.6359
    3MOL0     C  311   5.456   3.075   4.360  0.5300  0.2814  1.0680
    3MOL0     C  312   5.438   3.006   4.225 -0.0849 -0.0870  0.0890
    3MOL0     C  313   5.556   2.931   4.170 -0.3256 -0.0426 -0.3096
    3MOL0    Cl  314   5.518   2.861   4.015  0.2522  0.1256 -0.2220
    3MOL0     C  315   5.065   3.669   4.026 -0.7699 -0.3213  0.1670
    3MOL0     C  316   4.957   3.689   3.948 -0.1529  0.1628 -0.1452
    3MOL0     O  317   4.905   3.576   3.587 -0.2980 -0.3669 -0.3419
    3MOL0     C  318   4.662   3.615   3.468  1.0038  0.2855 -0.1103
    3MOL0     C  319   4.561   3.656   3.381  0.1716 -0.3098  0.5329
    3MOL0     N  320   3.999   4.180   3.029  0.0041 -1.0745 -0.3630
    3MOL0     N  321   3.872   4.156   3.016 -0.5723 -0.0359 -0.6513
    3MOL0     C  322   2.723   3.866   3.278 -0.7043 -0.2336 -0.2548
    3MOL0     C  323   2.592   3.907   3.302 -0.4265  0.2090 -0.7680
    3MOL0     C  324   2.231   4.135   3.462 -0.6255 -0.0591 -0.3683
    3MOL0     C  325   2.162   4.081   3.360 -0.8428  0.1550 -0.2620
    3MOL0     C  326   2.027   4.096   3.338  0.1876 -0.7008  0.0588
    3MOL0     C  327   1.951   4.148   3.442 -0.2564  1.4280  0.0025
    3MOL0     O  328   1.811   4.154   3.455  0.1558 -0.1410  0.2338
    3MOL0     C  329   1.739   4.125   3.330  0.4945 -0.7615  0.5060
    3MOL0     C  330   1.711   3.982   3.299  0.7511 -0.7834 -1.0848
    3MOL0     C  331   1.575   3.936   3.351 -0.1008  0.2747  0.2196
    3MOL0     C  332   1.546   3.781   3.324 -0.2554  0.0972 -0.8233
    3MOL0     C  333   1.574   3.747   3.191  0.0924 -0.7320  0.0048
    3MOL0     C  334   1.606   3.715   3.078 -0.0264  0.4139 -0.4035
    3MOL0     C  335   2.014   4.198   3.552  0.4924  0.0520  0.3675
    3MOL0     C  336   2.154   4.199   3.563 -0.1567 -0.2512 -1.1377
    3MOL0     C  337   2.200   4.271   3.677 -0.6164  0.2407 -0.2427
    3MOL0     H  338   2.652   4.248   3.338  0.8791  0.1379  1.1849
    3MOL0     H  339   2.866   4.171   3.249 -0.7044 -0.5473 -1.2387
    3MOL0     H  340   3.061   3.788   3.176 -0.6416 -1.9670 -2.6728
    3MOL0     H  341   2.933   3.856   3.072 -0.1315 -1.8145  0.5599
    3MOL0     H  342   3.167   4.024   3.173 -2.1326  0.4824  1.3416
    3MOL0     H  343   3.062   4.055   3.038 -1.4417  0.1790  0.8351
    3MOL0     H  344   3.151   3.881   2.899  0.7810 -1.2387  0.3423
    3MOL0     H  345   3.235   3.806   3.028 -0.1720 -0.9960 -3.2252
    3MOL0     H  346   3.308   4.079   2.917  0.6745  0.9153  1.4445
    3MOL0     H  347   3.389   4.006   3.057  0.0175  2.3995 -0.3546
    3MOL0     H  348   3.482   3.827   2.925  2.6047  0.8173 -1.9800
    3MOL0     H  349   3.357   3.850   2.802 -2.2981  0.3832  0.7428
    3MOL0     H  350   3.585   3.928   2.723  2.8864  0.8278  3.2561
    3MOL0     H  351   3.454   4.050   2.732 -0.0893 -0.2676 -1.8378
    3MOL0     H  352   3.577   4.127   2.956 -0.8133 -1.4705 -0.0680
    3MOL0     H  353   3.677   4.144   2.814 -0.3156 -1.4001 -2.1748
    3MOL0     H  354   3.676   3.925   3.018 -0.4745  0.3649  0.7010
    3MOL0     H  355   3.745   3.899   2.850 -1.7868  0.7154 -0.7668
    3MOL0     H  356   4.002   3.883   2.890  2.1860  0.9081 -0.2831
    3MOL0     H  357   4.261   3.999   2.891  2.0612  0.1804 -0.1388
    3MOL0     H  358   4.263   4.147   2.964  2.2956 -0.8867  2.4035
    3MOL0     H  359   4.210   4.038   3.195 -0.4200 -2.1224  0.4690
    3MOL0     H  360   4.246   3.879   3.112  0.6554 -0.2249 -0.4819
    3MOL0     H  361   4.408   4.096   3.232  0.8874  0.3379 -0.4058
    3MOL0     H  362   4.456   4.071   3.070  0.9608  0.9319  1.6952
    3MOL0     H  363   4.585   3.941   3.197  0.5105  1.4529 -3.0645
    3MOL0     H  364   4.493   3.838   3.089 -0.5375 -1.3383  1.0344
    3MOL0     H  365   4.544   3.979   3.467  1.0557 -0.6075  0.8784
    3MOL0     H  366   4.735   3.923   3.605  0.4777  0.5984 -1.1968
    3MOL0     H  367   5.111   3.757   3.661  1.4216  1.6817  0.0814
    3MOL0     H  368   5.316   3.731   3.806 -0.6337  2.5926 -0.0689
    3MOL0     H  369   5.278   3.632   4.253  0.4561  1.9637 -1.0830
    3MOL0     H  370   5.229   3.486   4.148  1.3967 -0.6914 -4.8865
    3MOL0     H  371   5.471   3.481   4.089  1.0051 -1.9387  0.6569
    3MOL0     H  372   5.507   3.593   4.225 -3.4538  3.2679 -0.0189
    3MOL0     H  373   5.424   3.412   4.387  1.7401 -0.4416 -1.2719
    3MOL0     H  374   5.333   3.329   4.270 -1.6917 -2.1693  3.0970
    3MOL0     H  375   5.643   3.344   4.254 -0.7591  0.8340 -3.1100
    3MOL0     H  376   5.538   3.245   4.160 -2.3618  0.0660 -0.2938
    3MOL0     H  377   5.571   3.221   4.465 -4.3589 -3.3853  1.0463
    3MOL0     H  378   5.657   3.121   4.350 -0.5726 -1.3114 -0.7342
    3MOL0     H  379   5.476   3.006   4.443  3.0137  1.7468  1.7850
    3MOL0     H  380   5.360   3.124   4.382  1.2229  2.9271 -1.3246
    3MOL0     H  381   5.396   3.082   4.159  0.1379  1.0810  1.2520
    3MOL0     H  382   5.356   2.936   4.243  1.4801 -2.6727 -2.1353
    3MOL0     H  383   5.638   3.000   4.147  0.0304 -0.2183  0.3897
    3MOL0     H  384   5.589   2.857   4.243 -2.4911  1.1720  2.0824
    3MOL0     H  385   5.050   3.666   4.133 -0.9022  1.5527  0.2315
    3MOL0     H  386   4.857   3.684   3.991  1.5971  1.7013  4.7643
    3MOL0     H  387   4.690   3.510   3.471 -2.2064 -0.6311  1.5097
    3MOL0     H  388   4.496   3.577   3.344  0.2144  0.2187 -0.7210
    3MOL0     H  389   2.743   3.760   3.262 -2.5339 -0.8828  1.3463
    3MOL0     H  390   2.505   3.842   3.297 -0.7163  0.6557 -1.8897
    3MOL0     H  391   2.206   4.040   3.270  1.1294 -0.9989  1.1559
    3MOL0     H  392   1.968   4.060   3.255  0.1390  3.6543 -2.0756
    3MOL0     H  393   1.789   4.168   3.243  1.2482  1.3605  1.8880
    3MOL0     H  394   1.643   4.179   3.334 -0.4890 -2.2361 -1.6904
    3MOL0     H  395   1.793   3.927   3.347  0.4643  0.4449  0.8892
    3MOL0     H  396   1.719   3.979   3.190  1.3697  1.0085 -1.1171
    3MOL0     H  397   1.503   3.980   3.281 -0.0277 -3.2106 -2.2675
    3MOL0     H  398   1.554   3.966   3.455 -0.5733  1.6905 -0.2610
    3MOL0     H  399   1.605   3.725   3.397 -0.1250  0.6735 -0.4829
    3MOL0     H  400   1.444   3.745   3.344 -0.3209  0.7819  0.1525
    3MOL0     H  401   1.632   3.706   2.975 -3.5953  0.8880 -1.5050
    3MOL0     H  402   1.956   4.243   3.632 -0.9876 -0.0640 -0.6007
    3MOL0     H  403   2.146   4.248   3.770 -0.4242 -3.1057 -0.8457
    3MOL0     H  404   2.305   4.271   3.705 -0.5026  3.4670 -0.2975
    3MOL0     H  405   2.183   4.379   3.675  0.1544  0.3588 -0.8379
    4MOL0     O  406   1.961   3.514   9.001  0.5305  0.2739  0.5306
    4MOL0     C  407   1.868   3.526   8.921 -0.1481  0.1743  0.4420
    4MOL0     O  408   1.741   3.595   8.946 -0.9081 -0.2742  0.0730
    4MOL0     C  409   1.715   3.674   9.057  0.0513  0.1800  0.0328
    4MOL0     C  410   1.634   3.784   9.042 -0.5658 -0.8473 -0.3723
    4MOL0     C  411   1.609   3.881   9.150  1.0488  0.5429 -0.3807
    4MOL0     C  412   1.659   3.847   9.275  0.2276 -0.1397 -0.3710
    4MOL0     O  413   1.606   3.929   9.370 -0.8661  0.6082 -0.2185
    4MOL0     C  414   1.681   3.929   9.492 -0.2472  0.5624  0.2228
    4MOL0     C  415   1.611   4.019   9.600  0.4431 -0.9545 -0.2681
    4MOL0     C  416   1.503   3.938   9.666  0.0654  0.6676 -0.2420
    4MOL0     C  417   1.440   4.004   9.785 -0.1560  0.6578  0.5937
    4MOL0     C  418   1.349   3.907   9.853  0.1399 -0.3890 -0.1939
    4MOL0     C  419   1.238   3.969   9.944 -1.0029  0.3289  0.4779
    4MOL0     C  420   1.140   3.859   9.974  0.4858  0.3913  0.0831
    4MOL0     C  421   1.199   3.725  10.022 -0.3685  0.2714 -0.3297
    4MOL0     N  422   1.088   3.633  10.037  0.4407  0.3498 -0.4232
    4MOL0     C  423   1.062   3.530   9.956 -0.4151 -0.4726  0.8534
    4MOL0     C  424   0.950   3.476  10.006 -0.4782 -0.1537 -0.1025
    4MOL0     C  425   0.878   3.351   9.964  0.0517  0.5190 -0.2255
    4MOL0     C  426   0.963   3.226   9.909  0.0644 -0.1610  0.4875
    4MOL0     C  427   0.869   3.103   9.889 -0.1698 -0.3581 -0.0725
    4MOL0     C  428   0.956   2.971   9.889 -0.2891 -0.3616  0.2806
    4MOL0     O  429   1.006   2.961  10.028  0.4649 -0.3237 -0.7328
    4MOL0     C  430   1.078   2.852  10.057 -0.2998  0.0712 -0.0911
    4MOL0     C  431   1.110   2.825  10.187  0.3403  0.5057  0.6797
    4MOL0     C  432   1.189   2.715  10.228  0.5435 -0.5991  0.0152
    4MOL0     C  433   1.253   2.629  10.138  0.5900  0.3663 -0.9507
    4MOL0     C  434   1.370   2.556  10.185  0.1476  0.4803 -0.1395
    4MOL0     O  435   1.414   2.565  10.315 -0.0537  0.1755  0.7069
    4MOL0     C  436   1.543   2.516  10.347 -0.0565  0.0503  1.0420
    4MOL0     C  437   1.662   2.579  10.321 -0.5971 -0.5711 -0.0098
    4MOL0     C  438   1.781   2.528  10.354  0.1440 -0.7013 -0.6681
    4MOL0     C  439   1.793   2.411  10.433 -0.8826 -0.0212 -0.3302
    4MOL0     O  440   1.929   2.386  10.457 -0.0223  0.1498 -0.1905
    4MOL0     C  441   1.957   2.268  10.534  0.1371 -0.0360 -0.3700
    4MOL0     C  442   1.960   2.136  10.462  0.8919  0.8230 -0.2722
    4MOL0     C  443   2.017   2.128  10.322 -0.4333 -0.4718 -0.0869
    4MOL0     C  444   1.928   2.190  10.218  0.1821 -0.3642  0.6860
    4MOL0     C  445   1.988   2.216  10.080  0.5287  0.2368 -1.2588
    4MOL0     C  446   1.880   2.253   9.976  0.2044  1.5153  0.3065
    4MOL0     C  447   1.811   2.387  10.004 -0.8677  0.0002 -0.0671
    4MOL0     C  448   1.714   2.432   9.894  0.5100 -0.4972 -0.0465
    4MOL0    Cl  449   1.795   2.485   9.736 -0.1987  0.4132 -0.1564
    4MOL0     C  450   1.679   2.346  10.480  0.6579  0.9989  1.0978
    4MOL0     C  451   1.550   2.398  10.433  0.2792 -0.7887  0.1573
    4MOL0     O  452   1.426   2.495  10.095  0.2476 -0.3640 -0.3744
    4MOL0     C  453   1.220   2.649   9.999  0.9100 -0.1952  1.5192
    4MOL0     C  454   1.133   2.759   9.965  0.3597  0.1054 -0.8963
    4MOL0     N  455   0.915   3.551  10.113 -0.3112  0.0037 -0.2833
    4MOL0     N  456   0.995   3.650  10.137  0.7873  0.3660 -0.1915
    4MOL0     C  457   1.742   3.735   9.294  1.1232 -0.4118  0.0640
    4MOL0     C  458   1.764   3.647   9.187 -1.1234 -0.0538  0.7492
    4MOL0     C  459   1.877   3.430   8.804 -0.2786 -0.3956  0.7479
    4MOL0     C  460   1.939   3.304   8.832  0.7516 -0.6040 -0.0657
    4MOL0     C  461   1.952   3.218   8.733 -0.5544  0.1205  0.4917
    4MOL0     C  462   1.914   3.247   8.603  0.2558 -1.0704 -0.0320
    4MOL0     O  463   1.944   3.157   8.500  0.3474  0.7228  0.2714
    4MOL0     C  464   1.928   3.188   8.369 -0.0687 -0.0906  0.2074
    4MOL0     C  465   1.979   3.070   8.275 -0.4261 -0.0929  0.2377
    4MOL0     C  466   2.130   3.050   8.279  0.2974  0.7024 -0.5162
    4MOL0     C  467   2.192   3.005   8.413  0.4993 -0.8184  0.0408
    4MOL0     C  468   2.138   2.883   8.463 -1.0488  0.6871  0.4656
    4MOL0     C  469   2.107   2.769   8.491 -0.5636 -0.0828 -0.8356
    4MOL0     C  470   1.830   3.353   8.579 -0.5558  0.1447 -0.0241
    4MOL0     C  471   1.815   3.447   8.675  0.1323  0.3905 -0.6854
    4MOL0     C  472   1.729   3.572   8.632  1.0229  0.9017  0.0949
    4MOL0     H  473   1.593   3.816   8.947 -5.0214  2.5137  2.2835
    4MOL0     H  474   1.548   3.967   9.122 -0.3062 -0.5860 -1.0170
    4MOL0     H  475   1.678   3.822   9.514 -1.4014  0.6289  0.4886
    4MOL0     H  476   1.778   3.972   9.465  0.5378 -0.9845  0.4933
    4MOL0     H  477   1.577   4.103   9.538 -1.4767 -1.7075 -0.2958
    4MOL0     H  478   1.687   4.048   9.673  0.6619  0.7038 -1.1041
    4MOL0     H  479   1.551   3.845   9.697 -0.3380 -0.4506 -2.7094
    4MOL0     H  480   1.432   3.907   9.589  1.0130  0.0931 -0.9062
    4MOL0     H  481   1.514   4.040   9.858 -1.0254  1.7891  0.9463
    4MOL0     H  482   1.385   4.094   9.756  0.3490  2.0155  3.4437
    4MOL0     H  483   1.302   3.841   9.779  1.6429 -0.6696 -0.9261
    4MOL0     H  484   1.416   3.844   9.913  1.1612  1.4892  0.7250
    4MOL0     H  485   1.302   3.994  10.030 -0.6068  0.1618  0.2338
    4MOL0     H  486   1.194   4.058   9.900 -1.2057  0.1347  0.2906
    4MOL0     H  487   1.074   3.846   9.888  1.1153  1.8942 -0.6713
    4MOL0     H  488   1.078   3.887  10.060  5.4704  1.6287  3.7671
    4MOL0     H  489   1.273   3.682   9.955 -0.6270 -0.5924 -0.0709
    4MOL0     H  490   1.249   3.743  10.118 -2.7411 -1.6491  1.4020
    4MOL0     H  491   1.122   3.503   9.870  0.0590 -2.2577  1.7134
    4MOL0     H  492   0.836   3.319  10.060  2.6109  2.8529  1.8477
    4MOL0     H  493   0.793   3.376   9.900 -2.1370  0.4547  2.4734
    4MOL0     H  494   1.005   3.243   9.809 -2.6035  1.7914 -0.4308
    4MOL0     H  495   1.047   3.206   9.977 -0.0533 -1.9145  0.1651
    4MOL0     H  496   0.815   3.114   9.795  1.5732  3.8555 -0.7902
    4MOL0     H  497   0.803   3.094   9.976  2.4418 -0.8124  1.9915
    4MOL0     H  498   1.038   2.980   9.817 -2.4879  0.3503 -2.3173
    4MOL0     H  499   0.895   2.883   9.866  1.3463 -1.4218 -0.1438
    4MOL0     H  500   1.073   2.889  10.266  0.1353  1.1814  0.0509
    4MOL0     H  501   1.215   2.720  10.333 -1.0520 -0.5663  0.4251
    4MOL0     H  502   1.656   2.665  10.255 -0.0510 -1.5238 -1.3679
    4MOL0     H  503   1.873   2.582  10.330  0.8831 -1.2799  0.7391
    4MOL0     H  504   2.060   2.288  10.566 -1.0014  1.3482  2.8816
    4MOL0     H  505   1.906   2.264  10.631  1.1911  0.7185  0.2447
    4MOL0     H  506   2.017   2.065  10.522  0.8938  1.2018  0.1847
    4MOL0     H  507   1.858   2.100  10.448  0.3656  0.8245  2.8140
    4MOL0     H  508   2.111   2.183  10.312 -0.3863 -0.2757  1.2127
    4MOL0     H  509   2.037   2.025  10.292  3.0188  0.2449 -0.6723
    4MOL0     H  510   1.867   2.271  10.257 -2.1049 -0.1869 -2.8212
    4MOL0     H  511   1.848   2.117  10.200 -0.6343  0.6994 -0.0591
    4MOL0     H  512   2.039   2.126  10.046 -1.5656 -1.3461 -0.4434
    4MOL0     H  513   2.057   2.300  10.074  0.9842 -0.1661 -1.6844
    4MOL0     H  514   1.941   2.263   9.886  1.0867  2.4155  0.9729
    4MOL0     H  515   1.802   2.177   9.965 -0.0259  1.6321  1.0463
    4MOL0     H  516   1.876   2.474  10.017 -1.7058  0.3014  2.7480
    4MOL0     H  517   1.758   2.377  10.099  1.2231 -1.4163  1.0308
    4MOL0     H  518   1.637   2.355   9.887 -2.0740  2.0152 -2.4530
    4MOL0     H  519   1.652   2.515   9.930 -1.0081 -2.5599  2.4330
    4MOL0     H  520   1.694   2.255  10.537  0.8794 -0.5535 -1.2903
    4MOL0     H  521   1.460   2.338  10.443  2.0089 -3.7521 -0.7102
    4MOL0     H  522   1.271   2.584   9.929 -1.0546  0.2444 -0.4366
    4MOL0     H  523   1.115   2.758   9.858 -1.7829 -0.3223 -0.5763
    4MOL0     H  524   1.783   3.688   9.383  1.7865 -0.4475 -0.2575
    4MOL0     H  525   1.829   3.561   9.199 -0.1816  0.5008 -0.1886
    4MOL0     H  526   1.965   3.271   8.932 -1.3371  3.6991  2.2243
    4MOL0     H  527   2.012   3.129   8.750  0.0844  0.7773  1.8167
    4MOL0     H  528   1.962   3.289   8.343 -0.8713 -0.1836 -1.3230
    4MOL0     H  529   1.820   3.190   8.349  0.2051 -0.6287 -1.5164
    4MOL0     H  530   1.946   3.103   8.176  0.6737  2.6105  0.6767
    4MOL0     H  531   1.928   2.974   8.284 -2.1783  0.2827 -3.6509
    4MOL0     H  532   2.168   3.150   8.253  0.4024  0.4314 -1.4274
    4MOL0     H  533   2.164   2.972   8.210  1.3889  0.2867  0.4772
    4MOL0     H  534   2.298   2.999   8.386 -0.2959  0.2218 -3.8291
    4MOL0     H  535   2.175   3.087   8.483 -1.6868  0.1197 -1.5043
    4MOL0     H  536   2.078   2.669   8.517 -0.2271  0.2661  0.9651
    4MOL0     H  537   1.785   3.381   8.484 -2.4127 -1.6558  0.2763
    4MOL0     H  538   1.637   3.540   8.582 -1.7990 -0.7627  5.4608
    4MOL0     H  539   1.689   3.624   8.720 -1.0271 -1.8643  0.9820
    4MOL0     H  540   1.795   3.639   8.578  0.4001  0.3349 -1.4245
    5MOL0     O  541  10.045  10.803   0.613 -0.1953  0.6573 -0.3523
    5MOL0     C  542   9.993  10.703   0.661  0.6998 -0.3465 -0.6100
    5MOL0     O  543  10.063  10.584   0.696  0.5462 -0.0616 -0.5267
    5MOL0     C  544  10.192  10.589   0.708 -0.0880 -0.0191 -0.2679
    5MOL0     C  545  10.255  10.655   0.814  0.5064 -1.3240  0.0092
    5MOL0     C  546  10.395  10.635   0.815  0.1297 -0.4216  0.7594
    5MOL0     C  547  10.473  10.547   0.735  0.3101 -1.1217 -0.0189
    5MOL0     O  548  10.607  10.555   0.753 -0.0537 -0.1346  0.1542
    5MOL0     C  549  10.695  10.450   0.703  0.2898  0.6443 -0.3123
    5MOL0     C  550  10.691  10.319   0.781 -0.0212 -0.3574  0.9930
    5MOL0     C  551  10.757  10.336   0.921 -0.2644 -0.5875  0.1575
    5MOL0     C  552  10.697  10.448   1.014  0.7100  0.4460 -0.0598
    5MOL0     C  553  10.763  10.453   1.156  0.5162 -0.5969 -0.1528
    5MOL0     C  554  10.687  10.539   1.255  0.3343 -0.1207 -0.0558
    5MOL0     C  555  10.773  10.554   1.383  0.2332 -0.6679  0.5630
    5MOL0     C  556  10.706  10.652   1.494 -0.8022  0.6590 -0.0210
    5MOL0     N  557  10.796  10.708   1.592  0.0259  0.0587 -0.4953
    5MOL0     C  558  10.750  10.803   1.682 -0.2331  0.4848 -0.6502
    5MOL0     C  559  10.860  10.803   1.768 -0.1094  0.9109 -1.1052
    5MOL0     C  560  10.857  10.891   1.888  0.7113 -0.8748  0.1114
    5MOL0     C  561  10.723  10.875   1.968  0.9619  0.1569 -0.2574
    5MOL0     C  562  10.745  10.942   2.109 -0.1035  0.5029 -0.1759
    5MOL0     C  563  10.614  10.970   2.196  0.7686  0.2718  0.3063
    5MOL0     O  564  10.496  10.989   2.109 -0.6933  0.2341 -0.0690
    5MOL0     C  565  10.377  11.005   2.172  0.9352 -0.0894 -0.1596
    5MOL0     C  566  10.275  11.048   2.083 -0.4651  0.0451 -0.6471
    5MOL0     C  567  10.149  11.083   2.134 -0.8786  0.8201  0.4704
    5MOL0     C  568  10.122  11.088   2.272 -0.1644 -1.0155 -0.2559
    5MOL0     C  569   9.996  11.131   2.325  0.0446 -0.3211  0.0051
    5MOL0     O  570   9.967  11.112   2.454  1.2863  0.0621 -0.2593
    5MOL0     C  571   9.843  11.146   2.500 -0.1231  0.0048 -0.4557
    5MOL0     C  572   9.790  11.271   2.535 -0.8377  0.7138  0.1486
    5MOL0     C  573   9.661  11.283   2.587  0.5606 -0.5419 -0.2269
    5MOL0     C  574   9.574  11.175   2.602 -1.0619 -0.4704  0.6275
    5MOL0     O  575   9.456  11.190   2.660  0.3530  0.0179  0.4612
    5MOL0     C  576   9.354  11.086   2.672  0.6163 -0.7941 -0.6247
    5MOL0     C  577   9.218  11.135   2.748 -0.4252  0.8283 -0.4596
    5MOL0     C  578   9.250  11.228   2.869  0.3500 -0.2777  1.0922
    5MOL0     C  579   9.223  11.378   2.862  0.0452 -0.7687  0.0429
    5MOL0     C  580   9.296  11.460   2.750  0.4429 -0.1480  0.8014
    5MOL0     C  581   9.273  11.611   2.743 -0.1466 -0.9180 -0.3062
    5MOL0     C  582   9.320  11.682   2.867  0.8346  0.0070 -0.4651
    5MOL0     C  583   9.300  11.834   2.855  0.7447  0.1673 -0.3224
    5MOL0    Cl  584   9.428  11.908   2.744  0.2343 -0.4608 -0.3195
    5MOL0     C  585   9.629  11.053   2.559  0.9735  0.1023 -0.1553
    5MOL0     C  586   9.758  11.041   2.507 -0.0150  0.3100  0.8516
    5MOL0     O  587   9.928  11.194   2.248 -0.1571 -0.8230  0.4736
    5MOL0     C  588  10.224  11.040   2.365  0.3049 -0.1537  0.5009
    5MOL0     C  589  10.350  11.011   2.310 -0.1552  0.3001 -1.0097
    5MOL0     N  590  10.959  10.724   1.722  0.1132  0.3831  0.4720
    5MOL0     N  591  10.923  10.662   1.618  0.1162  0.1868  1.1873
    5MOL0     C  592  10.400  10.464   0.648  0.1976 -0.0602 -0.3110
    5MOL0     C  593  10.269  10.497   0.623 -0.1523 -0.4027 -0.6701
    5MOL0     C  594   9.846  10.712   0.682  0.8406 -1.0154  0.3469
    5MOL0     C  595   9.783  10.593   0.724 -0.3722  1.1270 -0.1603
    5MOL0     C  596   9.652  10.586   0.752  0.0738  0.9595  0.0583
    5MOL0     C  597   9.566  10.687   0.718  0.5430 -0.4382 -0.5897
    5MOL0     O  598   9.432  10.664   0.743 -0.7737 -1.0843 -0.0752
    5MOL0     C  599   9.349  10.768   0.801  1.6018  0.1019 -0.3557
    5MOL0     C  600   9.198  10.740   0.794 -0.8232  0.5763  0.0542
    5MOL0     C  601   9.117  10.819   0.888  1.0318 -0.0306  0.2201
    5MOL0     C  602   8.970  10.780   0.876  0.6305 -0.0850  0.1648
    5MOL0     C  603   8.939  10.644   0.915  0.2135 -0.5693  0.2912
    5MOL0     C  604   8.899  10.528   0.942  0.4704 -0.3019  0.3020
    5MOL0     C  605   9.629  10.812   0.698  0.5252  0.6525 -0.3022
    5MOL0     C  606   9.761  10.829   0.667  0.5495  0.3186  0.3032
    5MOL0     C  607   9.812  10.962   0.624  1.0004  0.0334 -0.1331
    5MOL0     H  608  10.200  10.716   0.884  0.3343 -1.0831 -0.3312
    5MOL0     H  609  10.451  10.693   0.888 -0.2945 -1.1508  1.6730
    5MOL0     H  610  10.667  10.422   0.602 -0.8395 -1.9410  0.6231
    5MOL0     H  611  10.800  10.480   0.694  0.0682  1.1683 -1.2478
    5MOL0     H  612  10.741  10.242   0.721 -1.3695  0.0932 -0.7922
    5MOL0     H  613  10.588  10.282   0.776  0.2429 -0.9757 -2.4590
    5MOL0     H  614  10.865  10.351   0.908 -0.2921  1.2590  1.7196
    5MOL0     H  615  10.746  10.243   0.976  0.5591 -0.5393  0.4119
    5MOL0     H  616  10.712  10.546   0.966  3.6889  0.3095  0.4261
    5MOL0     H  617  10.589  10.432   1.021  0.8091 -1.0298 -1.3562
    5MOL0     H  618  10.773  10.354   1.200 -2.7684 -0.8821  0.2062
    5MOL0     H  619  10.863  10.497   1.146  1.0862 -2.1166 -1.5576
    5MOL0     H  620  10.654  10.637   1.219  3.0471  0.9665  0.1695
    5MOL0     H  621  10.599  10.478   1.275  1.5916 -2.5826 -1.5142
    5MOL0     H  622  10.875  10.592   1.372 -0.1950  0.5396  0.6454
    5MOL0     H  623  10.790  10.455   1.426  0.1328 -2.4707 -3.1936
    5MOL0     H  624  10.659  10.738   1.445 -2.1292  0.3857  0.7272
    5MOL0     H  625  10.618  10.600   1.533 -1.2004 -0.4430 -2.1890
    5MOL0     H  626  10.653  10.850   1.695  0.1765  1.6206 -1.4894
    5MOL0     H  627  10.946  10.872   1.948 -0.6060  0.9727  2.8390
    5MOL0     H  628  10.850  10.998   1.868 -0.0176 -0.5706  1.8009
    5MOL0     H  629  10.630  10.904   1.919  0.7135 -1.7468 -1.0146
    5MOL0     H  630  10.727  10.766   1.979 -0.0478  0.0344 -1.0055
    5MOL0     H  631  10.784  11.039   2.075 -1.2841  0.3137 -2.2943
    5MOL0     H  632  10.818  10.884   2.166 -0.4111  1.3110  1.0782
    5MOL0     H  633  10.636  11.060   2.255 -0.6414  2.3087 -2.0429
    5MOL0     H  634  10.598  10.885   2.262 -1.6736  0.2692 -0.1935
    5MOL0     H  635  10.283  11.056   1.975 -2.5139  1.0126 -0.7858
    5MOL0     H  636  10.068  11.109   2.065 -0.6667 -1.9630 -0.9641
    5MOL0     H  637   9.846  11.364   2.537 -3.9492  2.7260  0.4701
    5MOL0     H  638   9.625  11.379   2.621  1.7007 -0.3136  0.3643
    5MOL0     H  639   9.320  11.041   2.578 -1.2119 -2.6616  0.8577
    5MOL0     H  640   9.397  11.011   2.738 -0.0685 -0.4853  0.2012
    5MOL0     H  641   9.150  11.188   2.681 -1.7702  2.3027  1.9399
    5MOL0     H  642   9.175  11.046   2.795  1.3829  0.6038  0.9035
    5MOL0     H  643   9.174  11.199   2.943  0.1836 -0.2028  0.9514
    5MOL0     H  644   9.346  11.205   2.916  1.0185  1.7202  0.7894
    5MOL0     H  645   9.253  11.402   2.965 -0.1411 -2.6582  0.5715
    5MOL0     H  646   9.117  11.404   2.856 -0.0127 -0.3727  1.9326
    5MOL0     H  647   9.262  11.417   2.655  0.8413  3.0411 -0.9445
    5MOL0     H  648   9.404  11.443   2.759 -0.0541 -3.2080  1.9846
    5MOL0     H  649   9.328  11.652   2.657  1.9822 -0.6248  1.1157
    5MOL0     H  650   9.166  11.627   2.730  0.2672  2.5092 -0.5611
    5MOL0     H  651   9.423  11.660   2.896 -0.0521 -1.0060  2.3351
    5MOL0     H  652   9.254  11.661   2.952 -2.9606 -0.2427 -3.2405
    5MOL0     H  653   9.197  11.869   2.839  1.3865  2.9277  0.9855
    5MOL0     H  654   9.326  11.872   2.954  0.9233  3.0729 -1.3762
    5MOL0     H  655   9.576  10.960   2.574  1.4118 -0.0999  0.1629
    5MOL0     H  656   9.786  10.940   2.482 -1.8565 -0.6887  2.5278
    5MOL0     H  657  10.207  11.043   2.472  0.4947  1.4424  0.5110
    5MOL0     H  658  10.431  11.013   2.383 -1.4115  2.6354  0.4642
    5MOL0     H  659  10.450  10.390   0.585  0.7480  1.7606 -2.1321
    5MOL0     H  660  10.206  10.439   0.556  0.9533 -3.1469  0.5300
    5MOL0     H  661   9.840  10.500   0.736  0.2082  1.7727  3.5695
    5MOL0     H  662   9.610  10.492   0.786 -0.3607 -0.1165 -3.1865
    5MOL0     H  663   9.365  10.866   0.755  1.7320  0.4099  0.3304
    5MOL0     H  664   9.378  10.784   0.905 -0.6598  1.3829  0.1688
    5MOL0     H  665   9.180  10.634   0.816  3.3396 -0.3256 -0.0023
    5MOL0     H  666   9.173  10.772   0.692  2.5046  3.9025  0.0423
    5MOL0     H  667   9.132  10.927   0.885  3.8720 -0.3309  0.3431
    5MOL0     H  668   9.147  10.787   0.988  2.3307  0.8196  0.1243
    5MOL0     H  669   8.921  10.843   0.952  1.4437 -0.2243  0.8224
    5MOL0     H  670   8.927  10.809   0.780  0.3733 -0.0615  0.2859
    5MOL0     H  671   8.869  10.426   0.950  1.8991 -1.0301 -2.3278
    5MOL0     H  672   9.564  10.897   0.682 -2.4390 -1.5546 -0.8299
    5MOL0     H  673   9.865  10.976   0.529 -1.3240 -3.9614 -2.3271
    5MOL0     H  674   9.733  11.038   0.618 -3.5718 -3.8767  2.7113
    5MOL0     H  675   9.878  10.997   0.703  0.0694 -1.7938  1.5373
    6MOL0     O  676   2.681  10.819   8.744 -0.4570  0.3505  0.9875
    6MOL0     C  677   2.749  10.778   8.646  0.7558  0.3124  0.2912
    6MOL0     O  678   2.842  10.849   8.577 -0.1440  0.1858 -0.0363
    6MOL0     C  679   2.857  10.985   8.602 -0.8731  0.4666 -0.6264
    6MOL0     C  680   2.749  11.073   8.595  0.6560 -0.1831  0.3129
    6MOL0     C  681   2.774  11.212   8.619  0.9318 -0.0052  0.6679
    6MOL0     C  682   2.901  11.261   8.643  0.0395 -0.0588 -0.0678
    6MOL0     O  683   2.905  11.401   8.662  1.0502  1.1247  0.9461
    6MOL0     C  684   3.026  11.480   8.643 -0.2143 -0.6997  0.6480
    6MOL0     C  685   3.013  11.609   8.726 -0.3898  0.2578  0.4547
    6MOL0     C  686   3.040  11.601   8.872 -0.4078  0.3356  0.0753
    6MOL0     C  687   3.059  11.736   8.933  1.2101 -0.4785 -0.2357
    6MOL0     C  688   3.071  11.729   9.096  0.7556  0.0814  0.0891
    6MOL0     C  689   3.102  11.864   9.141 -0.1058 -0.4659 -1.0427
    6MOL0     C  690   3.098  11.884   9.289 -0.2232 -0.8729  0.4478
    6MOL0     C  691   3.094  12.039   9.318 -0.0547  0.2092  0.6962
    6MOL0     N  692   3.126  12.079   9.456 -1.2849 -0.0412  0.4597
    6MOL0     C  693   3.252  12.069   9.515  0.1507 -0.8172  0.7344
    6MOL0     C  694   3.221  12.087   9.646  0.5097  0.1177  0.5468
    6MOL0     C  695   3.323  12.081   9.755 -0.9382  0.4345  0.6653
    6MOL0     C  696   3.466  12.121   9.724  0.2849  0.4712  0.1642
    6MOL0     C  697   3.544  12.126   9.852 -0.3941 -0.6378  0.1505
    6MOL0     C  698   3.579  11.987   9.914  0.1081 -0.5693 -0.5355
    6MOL0     O  699   3.659  11.897   9.830  0.0237  0.2463 -0.5798
    6MOL0     C  700   3.669  11.767   9.877 -0.8844 -0.0304  0.9439
    6MOL0     C  701   3.650  11.726  10.012  0.0234  0.3590 -0.7254
    6MOL0     C  702   3.687  11.591  10.056  1.9093 -1.1083 -0.3622
    6MOL0     C  703   3.727  11.502   9.953  0.0173  0.4362  0.1939
    6MOL0     C  704   3.731  11.358  10.001 -1.3631 -0.3252  0.5852
    6MOL0     O  705   3.781  11.271   9.907  0.0652  0.3696  0.0009
    6MOL0     C  706   3.793  11.137   9.931  0.0916  0.8241 -0.5940
    6MOL0     C  707   3.721  11.055  10.020 -0.1976  0.8010 -0.9777
    6MOL0     C  708   3.725  10.910  10.021 -0.2933 -0.3912  0.4921
    6MOL0     C  709   3.808  10.853   9.921 -0.6716 -0.5474 -0.2082
    6MOL0     O  710   3.817  10.719   9.911 -0.5820 -0.5336 -0.4240
    6MOL0     C  711   3.696  10.637   9.914  0.5411 -0.3447 -0.0626
    6MOL0     C  712   3.711  10.507   9.834  0.3200 -0.6365  0.1241
    6MOL0     C  713   3.776  10.386   9.900 -1.0342  0.0293 -0.8466
    6MOL0     C  714   3.687  10.302   9.990 -0.0599 -0.5476 -0.6579
    6MOL0     C  715   3.570  10.231   9.924 -0.6353  0.7627  0.6539
    6MOL0     C  716   3.604  10.125   9.814  0.2017 -0.7933  0.2503
    6MOL0     C  717   3.588  10.186   9.665 -0.6855 -0.0960 -0.3828
    6MOL0     C  718   3.592  10.075   9.555 -0.0343 -0.7328  0.3383
    6MOL0    Cl  719   3.432   9.977   9.550 -0.2214  0.1554 -0.0015
    6MOL0     C  720   3.892  10.933   9.847 -0.2668 -0.4356  0.7927
    6MOL0     C  721   3.887  11.076   9.853 -0.1904  0.1082 -0.4511
    6MOL0     O  722   3.710  11.333  10.121 -0.8261  0.7793 -0.2474
    6MOL0     C  723   3.742  11.548   9.821  0.4066 -0.3712 -0.6999
    6MOL0     C  724   3.708  11.675   9.785 -1.0347  0.3679  0.3785
    6MOL0     N  725   3.086  12.103   9.665 -0.0701 -0.4149  0.6126
    6MOL0     N  726   3.032  12.108   9.545  0.0017  0.0525  0.2194
    6MOL0     C  727   3.008  11.169   8.652  0.0280 -0.8137 -0.1132
    6MOL0     C  728   2.984  11.038   8.627 -0.7927 -0.8028  0.2510
    6MOL0     C  729   2.729  10.646   8.585 -0.3743  0.2822 -0.8842
    6MOL0     C  730   2.845  10.573   8.531  1.0438 -0.0993 -0.3507
    6MOL0     C  731   2.821  10.444   8.475 -0.1453 -0.3466 -0.9107
    6MOL0     C  732   2.697  10.383   8.462 -0.4159 -0.2789 -0.3365
    6MOL0     O  733   2.688  10.260   8.411 -0.3323  0.8143 -0.2229
    6MOL0     C  734   2.565  10.193   8.403  0.8111 -0.0615  0.3728
    6MOL0     C  735   2.574  10.071   8.308 -0.1157 -0.5561  1.2156
    6MOL0     C  736   2.539  10.105   8.158  0.2227  0.4729 -0.4143
    6MOL0     C  737   2.638  10.183   8.065  0.3355 -0.3873  0.2811
    6MOL0     C  738   2.644  10.331   8.090 -0.2657  0.5322  0.8526
    6MOL0     C  739   2.646  10.444   8.133  0.0692 -0.4179  0.6486
    6MOL0     C  740   2.588  10.462   8.511  0.3241 -0.3170  0.0760
    6MOL0     C  741   2.598  10.585   8.577 -0.3294 -0.3752  0.0585
    6MOL0     C  742   2.468  10.661   8.606  0.6239 -0.1883 -0.7795
    6MOL0     H  743   2.652  11.032   8.570  0.9264 -1.4531  1.2259
    6MOL0     H  744   2.687  11.275   8.602 -0.6350 -2.2133  0.0435
    6MOL0     H  745   3.119  11.432   8.674  0.6919  1.2475  1.1457
    6MOL0     H  746   3.032  11.503   8.536  0.6797  0.6507  0.9559
    6MOL0     H  747   2.913  11.653   8.718 -0.7298 -0.1536  2.0319
    6MOL0     H  748   3.083  11.673   8.673 -1.0849  0.7601  0.1234
    6MOL0     H  749   3.130  11.540   8.887 -1.3526 -1.2104 -0.3421
    6MOL0     H  750   2.962  11.547   8.926  0.6554  0.7409  2.0865
    6MOL0     H  751   3.143  11.795   8.894  0.4395  1.4869  0.9567
    6MOL0     H  752   2.972  11.796   8.905  1.7495  0.9644  0.9960
    6MOL0     H  753   2.978  11.694   9.140  0.4016 -0.4863 -1.0594
    6MOL0     H  754   3.157  11.671   9.131 -0.8704 -0.8916  2.7518
    6MOL0     H  755   3.203  11.891   9.111  0.2778 -0.4931  0.1719
    6MOL0     H  756   3.029  11.936   9.103  1.9600  3.9950  2.4447
    6MOL0     H  757   3.192  11.850   9.333  0.0500  2.7869  3.1938
    6MOL0     H  758   3.008  11.840   9.335 -1.0307  0.1055 -0.1563
    6MOL0     H  759   3.169  12.093   9.260 -1.6254  2.5453  0.7049
    6MOL0     H  760   2.999  12.088   9.294  0.5627  0.7022 -0.9313
    6MOL0     H  761   3.348  12.052   9.467  0.5503  3.2300 -0.2655
    6MOL0     H  762   3.291  12.134   9.846  0.7261 -0.9376  2.1406
    6MOL0     H  763   3.331  11.975   9.782 -2.3111  0.9143  3.3463
    6MOL0     H  764   3.511  12.048   9.656  0.1634 -0.3796  0.9805
    6MOL0     H  765   3.464  12.213   9.664  2.0775  2.8323  3.4076
    6MOL0     H  766   3.484  12.188   9.919  0.5638 -0.3157  0.7274
    6MOL0     H  767   3.635  12.186   9.841 -0.9312  0.1265 -0.2266
    6MOL0     H  768   3.486  11.932   9.931  0.1621 -0.1323  1.5164
    6MOL0     H  769   3.630  11.996  10.010  2.9249  0.1163 -1.9972
    6MOL0     H  770   3.620  11.802  10.084  1.1588 -0.2285  0.4024
    6MOL0     H  771   3.656  11.558  10.155 -0.6402 -1.3540 -1.1789
    6MOL0     H  772   3.667  11.102  10.102 -1.0696  0.2768 -1.2417
    6MOL0     H  773   3.666  10.851  10.090  0.0519 -0.4806  0.7145
    6MOL0     H  774   3.677  10.627  10.021 -0.2454 -1.8979 -0.3207
    6MOL0     H  775   3.623  10.698   9.860 -1.4349 -1.9646  0.6367
    6MOL0     H  776   3.616  10.482   9.786  0.9306  0.5094 -1.7853
    6MOL0     H  777   3.771  10.537   9.748 -0.4382  0.9302  0.1222
    6MOL0     H  778   3.826  10.322   9.827  0.9477  2.8347 -2.1430
    6MOL0     H  779   3.861  10.421   9.960 -0.0893 -0.4284 -1.8708
    6MOL0     H  780   3.641  10.369  10.063  2.5727 -0.0487  0.6396
    6MOL0     H  781   3.755  10.228  10.033 -0.8305 -1.9896 -1.8209
    6MOL0     H  782   3.502  10.305   9.882 -1.4846 -1.1290 -1.4888
    6MOL0     H  783   3.519  10.181  10.006  0.6199 -0.8324  0.5177
    6MOL0     H  784   3.708  10.097   9.830  0.7554  0.7045 -0.5511
    6MOL0     H  785   3.531  10.044   9.827 -0.3157 -0.4637 -0.4914
    6MOL0     H  786   3.669  10.258   9.649 -2.3982  1.9826 -0.0297
    6MOL0     H  787   3.496  10.235   9.634 -1.2562 -1.6588 -1.2825
    6MOL0     H  788   3.602  10.133   9.463 -1.5351  2.3373  1.9505
    6MOL0     H  789   3.672  10.005   9.583 -0.7543 -0.6067  3.0504
    6MOL0     H  790   3.957  10.883   9.776 -0.4858 -1.9689  1.6351
    6MOL0     H  791   3.942  11.133   9.779  1.1266 -0.3214  0.1748
    6MOL0     H  792   3.775  11.481   9.742 -1.1169 -0.3511 -1.3849
    6MOL0     H  793   3.725  11.698   9.680 -1.3835 -1.8599 -0.2413
    6MOL0     H  794   3.107  11.205   8.678 -0.8205 -0.1340  2.4506
    6MOL0     H  795   3.060  10.961   8.633  1.0894  1.0732  3.4112
    6MOL0     H  796   2.939  10.627   8.531  1.0351 -0.0519 -1.5493
    6MOL0     H  797   2.903  10.381   8.443 -2.4162 -3.2241 -1.5097
    6MOL0     H  798   2.497  10.264   8.354  1.7135  1.2296  0.9213
    6MOL0     H  799   2.521  10.178   8.502 -4.3675 -0.4174 -1.6792
    6MOL0     H  800   2.497   9.998   8.336 -1.7861 -0.5301 -2.7057
    6MOL0     H  801   2.675  10.029   8.312  1.4902  2.1203 -3.4173
    6MOL0     H  802   2.442  10.152   8.146  0.6400  1.3342 -0.4521
    6MOL0     H  803   2.527  10.013   8.100 -0.3278  0.9502 -1.0611
    6MOL0     H  804   2.740  10.144   8.074  0.3832 -0.1052  1.0433
    6MOL0     H  805   2.609  10.154   7.964  0.1596 -1.4898  0.6270
    6MOL0     H  806   2.648  10.546   8.166  1.0252  0.3585 -1.5771
    6MOL0     H  807   2.490  10.427   8.480 -0.3677  3.6186 -3.0853
    6MOL0     H  808   2.469  10.769   8.589 -0.7143  0.1030  0.7344
    6MOL0     H  809   2.392  10.617   8.541  0.3448 -1.8130  0.5653
    6MOL0     H  810   2.429  10.650   8.708 -2.8154 -2.0121 -2.1396
    7MOL0     O  811   3.225   4.068   4.473 -0.0963  0.0405  0.1536
    7MOL0     C  812   3.204   4.076   4.356  0.4278 -0.0586  0.3115
    7MOL0     O  813   3.148   4.186   4.289  0.4760 -0.2308 -0.6493
    7MOL0     C  814   3.078   4.284   4.363  0.4317  0.2989 -0.2407
    7MOL0     C  815   3.087   4.329   4.492 -1.3254 -0.7418  0.2442
    7MOL0     C  816   2.997   4.424   4.549  0.7865 -0.2870  0.2974
    7MOL0     C  817   2.898   4.484   4.464 -0.4159  0.2994 -0.9593
    7MOL0     O  818   2.824   4.578   4.523 -0.1911 -0.1613  0.0696
    7MOL0     C  819   2.707   4.618   4.459 -0.6420  0.1211  0.5998
    7MOL0     C  820   2.616   4.686   4.555  1.5489 -0.2102 -0.0941
    7MOL0     C  821   2.478   4.720   4.482 -0.6942  0.5039  0.5793
    7MOL0     C  822   2.367   4.680   4.579 -0.2094 -0.5324  0.0146
    7MOL0     C  823   2.232   4.693   4.515 -0.8327  0.7492 -0.6406
    7MOL0     C  824   2.208   4.832   4.471  0.9197 -0.2214 -0.0183
    7MOL0     C  825   2.049   4.859   4.469 -0.2058  0.5873  0.7552
    7MOL0     C  826   2.013   5.005   4.425  0.7082 -0.0571  0.2593
    7MOL0     N  827   1.866   5.037   4.460 -0.7874 -0.3598  0.8957
    7MOL0     C  828   1.768   4.965   4.393  0.4029 -0.9309 -0.3644
    7MOL0     C  829   1.658   5.055   4.396 -0.1055 -0.6412 -0.7836
    7MOL0     C  830   1.525   5.032   4.341  0.1226 -0.0303  0.1935
    7MOL0     C  831   1.495   5.122   4.211  0.8525  1.1018 -0.5199
    7MOL0     C  832   1.541   5.069   4.079 -0.1414  0.2564 -0.1833
    7MOL0     C  833   1.693   5.063   4.052 -0.5721  0.3493 -0.0800
    7MOL0     O  834   1.711   4.977   3.938  0.5779  0.0386 -0.3349
    7MOL0     C  835   1.810   4.881   3.953  0.8868 -1.2062 -0.1476
    7MOL0     C  836   1.773   4.749   3.959  0.2471  0.3862 -0.0417
    7MOL0     C  837   1.875   4.655   3.986 -0.2869  0.6525  0.5910
    7MOL0     C  838   2.013   4.695   4.005  0.3665  0.4730  0.3059
    7MOL0     C  839   2.111   4.591   4.016 -0.6465  0.3479 -0.7107
    7MOL0     O  840   2.217   4.621   4.101  0.5121  0.1321 -0.6141
    7MOL0     C  841   2.312   4.525   4.123 -0.4693  0.7580 -1.8445
    7MOL0     C  842   2.277   4.405   4.185 -0.9974 -0.5297  0.1014
    7MOL0     C  843   2.374   4.310   4.212 -0.2786 -0.2097  0.0038
    7MOL0     C  844   2.515   4.336   4.195  0.0172  0.6473 -0.1361
    7MOL0     O  845   2.614   4.239   4.231  0.1363 -0.1680 -0.7748
    7MOL0     C  846   2.599   4.129   4.327  1.1483 -0.6107 -0.0875
    7MOL0     C  847   2.735   4.065   4.360  1.1951 -0.9254  0.5083
    7MOL0     C  848   2.723   3.956   4.456 -0.4697 -0.4818 -0.8116
    7MOL0     C  849   2.866   3.929   4.491  0.5579  0.6740 -0.3681
    7MOL0     C  850   2.848   3.800   4.577 -0.4561  0.1552  0.7987
    7MOL0     C  851   2.980   3.761   4.635  0.4238  0.7885  0.0222
    7MOL0     C  852   2.981   3.613   4.685  0.3803  0.1979  0.4823
    7MOL0     C  853   2.961   3.586   4.843 -0.4082  0.3515  0.2049
    7MOL0    Cl  854   2.782   3.576   4.898 -0.4813  0.1664 -0.2179
    7MOL0     C  855   2.551   4.460   4.138 -0.4814  0.1792  0.5041
    7MOL0     C  856   2.449   4.548   4.097 -0.1108 -0.4799  1.0485
    7MOL0     O  857   2.097   4.483   3.955  0.6640 -0.6952 -0.4143
    7MOL0     C  858   2.039   4.834   4.010  0.0220  0.0702  0.4026
    7MOL0     C  859   1.937   4.925   3.987 -0.8468  0.0622 -0.8032
    7MOL0     N  860   1.697   5.168   4.452 -0.2400 -0.6867 -0.0929
    7MOL0     N  861   1.827   5.158   4.490  0.0638 -0.2014 -0.1922
    7MOL0     C  862   2.893   4.451   4.333 -0.1452  0.4240 -0.3052
    7MOL0     C  863   2.979   4.348   4.288  0.4063 -0.8081  0.6526
    7MOL0     C  864   3.232   3.965   4.261 -0.3705 -0.3009  0.0095
    7MOL0     C  865   3.170   3.958   4.137  0.4182 -0.1603  0.6452
    7MOL0     C  866   3.208   3.853   4.047  0.8227 -0.3655 -1.0363
    7MOL0     C  867   3.299   3.764   4.077 -0.2735  0.1944 -0.7440
    7MOL0     O  868   3.313   3.665   3.978  0.3640  0.4711 -0.2875
    7MOL0     C  869   3.386   3.538   4.006 -0.1792 -0.3703 -0.6754
    7MOL0     C  870   3.538   3.558   3.998  0.2132  0.6421 -0.2495
    7MOL0     C  871   3.601   3.433   4.059  0.3833 -0.1476  0.4770
    7MOL0     C  872   3.698   3.463   4.171 -0.0975 -0.0610 -1.2274
    7MOL0     C  873   3.649   3.529   4.291 -0.4112 -0.3406  0.6868
    7MOL0     C  874   3.617   3.584   4.399 -0.0428 -0.1167  0.4158
    7MOL0     C  875   3.361   3.776   4.196  0.0902  0.3909  0.6496
    7MOL0     C  876   3.341   3.876   4.283  0.2277 -0.0239  0.6518
    7MOL0     C  877   3.413   3.852   4.415 -0.3552  0.2469  0.7458
    7MOL0     H  878   3.162   4.290   4.560 -1.3915  4.0451  3.5716
    7MOL0     H  879   2.988   4.447   4.655  0.9032 -2.4233  0.8085
    7MOL0     H  880   2.731   4.685   4.376  0.0795  0.5192  1.1180
    7MOL0     H  881   2.654   4.534   4.413 -1.8501  1.4759 -0.5911
    7MOL0     H  882   2.661   4.783   4.577  1.6566  0.7565 -3.7969
    7MOL0     H  883   2.604   4.626   4.645  0.7265 -1.2810 -0.8953
    7MOL0     H  884   2.474   4.657   4.393  0.0125  1.3450 -0.0607
    7MOL0     H  885   2.489   4.825   4.456  0.2271  0.1979 -0.3254
    7MOL0     H  886   2.378   4.576   4.612 -1.0080 -0.4751  0.4804
    7MOL0     H  887   2.377   4.737   4.672  2.8481 -0.0990 -0.4801
    7MOL0     H  888   2.226   4.621   4.434  1.3921  0.0438 -0.2502
    7MOL0     H  889   2.153   4.666   4.585 -0.8522 -0.4708 -1.1073
    7MOL0     H  890   2.261   4.900   4.539  0.6213  0.7212 -0.7033
    7MOL0     H  891   2.255   4.840   4.373 -0.2206  2.1446 -0.4499
    7MOL0     H  892   2.017   4.843   4.573 -0.3379 -1.0149  0.4930
    7MOL0     H  893   1.991   4.788   4.410 -1.8947 -0.9114  3.9484
    7MOL0     H  894   2.078   5.083   4.465  0.9159  0.5167 -1.1505
    7MOL0     H  895   2.027   5.021   4.318  1.3599  0.1488  0.3675
    7MOL0     H  896   1.774   4.867   4.346 -3.7366 -0.8246 -1.6016
    7MOL0     H  897   1.518   4.926   4.316 -0.0939 -0.3802  1.6462
    7MOL0     H  898   1.441   5.055   4.408  0.4702  0.5671  0.4340
    7MOL0     H  899   1.386   5.123   4.201  0.8943  1.4072 -0.9624
    7MOL0     H  900   1.533   5.224   4.216  3.0218  0.3156  1.5894
    7MOL0     H  901   1.499   5.126   3.996  1.2642 -2.6820 -3.1330
    7MOL0     H  902   1.493   4.971   4.070 -0.4883  0.5674 -2.1078
    7MOL0     H  903   1.756   5.034   4.137  0.1059  0.5421 -0.5099
    7MOL0     H  904   1.715   5.167   4.023  0.3208 -0.6166 -3.2112
    7MOL0     H  905   1.671   4.724   3.934  0.6304  0.8075 -2.2431
    7MOL0     H  906   1.851   4.551   3.972  3.5013 -0.3440  0.2465
    7MOL0     H  907   2.170   4.390   4.195 -0.8863  0.0368  2.7429
    7MOL0     H  908   2.341   4.213   4.247 -0.5087 -0.8394 -1.8548
    7MOL0     H  909   2.548   4.167   4.416  2.0568 -1.7689  0.9695
    7MOL0     H  910   2.530   4.048   4.301 -0.9067 -0.1769  3.3685
    7MOL0     H  911   2.787   4.021   4.275 -0.2153 -2.5607  0.4501
    7MOL0     H  912   2.798   4.146   4.399  1.9605 -1.2433 -0.0642
    7MOL0     H  913   2.672   3.992   4.545  1.1010  3.1470 -1.1879
    7MOL0     H  914   2.679   3.868   4.410  0.8762 -1.4123 -0.3869
    7MOL0     H  915   2.916   4.009   4.547  0.6425  0.5813 -0.3110
    7MOL0     H  916   2.919   3.933   4.395 -3.1498  3.0260 -2.6109
    7MOL0     H  917   2.824   3.718   4.508  1.3142 -1.6369  2.1945
    7MOL0     H  918   2.772   3.810   4.655  0.3372 -0.3129  1.6432
    7MOL0     H  919   3.067   3.775   4.571  2.0072 -0.6558  1.7226
    7MOL0     H  920   2.997   3.829   4.719 -0.2535  0.5033  0.4026
    7MOL0     H  921   3.079   3.577   4.652 -0.6171 -0.3155 -2.1466
    7MOL0     H  922   2.915   3.545   4.630  1.4928 -1.8025  1.5075
    7MOL0     H  923   3.016   3.496   4.872 -3.6593 -2.0504 -0.4056
    7MOL0     H  924   2.999   3.669   4.903 -0.4042 -0.9204  2.0363
    7MOL0     H  925   2.656   4.483   4.125 -1.5399  4.0691 -3.3071
    7MOL0     H  926   2.464   4.627   4.024  0.9753 -0.6447  1.0769
    7MOL0     H  927   2.140   4.870   4.022  0.0356  0.4830 -0.8053
    7MOL0     H  928   1.954   5.032   3.997 -3.1649  0.3843  0.4210
    7MOL0     H  929   2.822   4.488   4.259 -0.0378  1.1058 -0.0792
    7MOL0     H  930   2.980   4.306   4.188 -1.8955 -2.0742  1.1114
    7MOL0     H  931   3.106   4.035   4.096  2.9233  0.4107 -2.6287
    7MOL0     H  932   3.160   3.854   3.949 -0.8021 -0.4873 -0.2765
    7MOL0     H  933   3.347   3.464   3.936 -1.5947 -2.9322  2.4965
    7MOL0     H  934   3.356   3.497   4.103 -0.9193  3.2740  0.7925
    7MOL0     H  935   3.577   3.647   4.047  1.5718 -0.1001  0.0630
    7MOL0     H  936   3.559   3.568   3.891  0.5609  1.0004 -0.1513
    7MOL0     H  937   3.653   3.384   3.977  1.3921  0.1013  0.9518
    7MOL0     H  938   3.523   3.363   4.090 -1.4425  1.1379 -1.0236
    7MOL0     H  939   3.746   3.367   4.192 -2.3362 -0.8898  0.4696
    7MOL0     H  940   3.779   3.525   4.130 -0.3251  0.6705 -0.6105
    7MOL0     H  941   3.595   3.628   4.494  2.3153 -0.8293  1.3754
    7MOL0     H  942   3.430   3.695   4.219  1.0465  0.4125 -1.7974
    7MOL0     H  943   3.424   3.943   4.474  0.9006  2.4622 -2.6008
    7MOL0     H  944   3.368   3.771   4.473  1.9092 -3.0437 -1.6562
    7MOL0     H  945   3.515   3.817   4.395  0.0775  1.6457  0.4069
    8MOL0     O  946   3.987   7.616   1.512 -0.0542 -0.0164 -0.4701
    8MOL0     C  947   4.006   7.526   1.592 -0.3287 -0.8282  0.7487
    8MOL0     O  948   3.903   7.465   1.668  0.0169 -0.1778 -0.7909
    8MOL0     C  949   3.775   7.507   1.635  0.6054  0.5086  0.2557
    8MOL0     C  950   3.728   7.622   1.682  0.3632  0.9933  0.8996
    8MOL0     C  951   3.595   7.662   1.649  0.2480 -0.0751 -0.5564
    8MOL0     C  952   3.508   7.587   1.569 -1.2758  0.1040 -0.5239
    8MOL0     O  953   3.379   7.619   1.540  0.1382 -0.4069 -0.2197
    8MOL0     C  954   3.294   7.620   1.655 -0.0529  0.8682 -1.0333
    8MOL0     C  955   3.155   7.676   1.616 -0.0875  0.1883  0.0362
    8MOL0     C  956   3.073   7.580   1.532  0.9989 -0.0113  0.7533
    8MOL0     C  957   3.131   7.555   1.390 -0.9857 -0.3233 -0.3786
    8MOL0     C  958   3.034   7.530   1.286 -0.0667 -1.4066 -0.8236
    8MOL0     C  959   3.104   7.524   1.154 -0.0295 -0.6240  0.7751
    8MOL0     C  960   3.009   7.526   1.033 -0.7446 -0.3285 -1.1518
    8MOL0     C  961   2.904   7.419   1.025 -0.3523 -0.2385  0.1802
    8MOL0     N  962   2.817   7.448   0.906  0.2767  0.1744 -0.5527
    8MOL0     C  963   2.675   7.462   0.919 -0.6617  0.6501  0.8305
    8MOL0     C  964   2.624   7.462   0.798 -0.5968  0.0726  0.8265
    8MOL0     C  965   2.481   7.481   0.755 -0.6507  0.4340  0.0101
    8MOL0     C  966   2.460   7.591   0.651  0.8395  1.2154 -0.0030
    8MOL0     C  967   2.326   7.549   0.573 -0.4274 -0.5617 -0.2337
    8MOL0     C  968   2.304   7.663   0.479 -1.0625 -0.7713  0.0085
    8MOL0     O  969   2.377   7.640   0.361  0.2235  0.4507  0.8373
    8MOL0     C  970   2.314   7.688   0.246 -0.5117 -0.1148 -0.2668
    8MOL0     C  971   2.218   7.616   0.179  0.5916 -0.5640 -0.1655
    8MOL0     C  972   2.144   7.676   0.074  0.1576  0.1962 -1.0760
    8MOL0     C  973   2.176   7.800   0.024  0.1640  0.9734  0.5905
    8MOL0     C  974   2.111   7.863  -0.098 -1.0096  0.2584  0.4750
    8MOL0     O  975   2.178   7.972  -0.145  0.4965  0.0942  0.1985
    8MOL0     C  976   2.150   8.036  -0.267  0.1261  0.4310 -0.2670
    8MOL0     C  977   2.206   8.161  -0.293 -0.2754 -0.5482  0.3032
    8MOL0     C  978   2.172   8.236  -0.409 -0.6554 -0.1509 -0.1874
    8MOL0     C  979   2.075   8.183  -0.498  0.3860  0.5624 -0.7085
    8MOL0     O  980   2.035   8.247  -0.616 -0.6052  0.4118 -0.1202
    8MOL0     C  981   2.073   8.381  -0.642  0.8900 -0.0928  0.6280
    8MOL0     C  982   2.220   8.403  -0.692  0.5139  0.2027  0.0299
    8MOL0     C  983   2.249   8.557  -0.697  0.1163  0.5192 -0.8659
    8MOL0     C  984   2.329   8.605  -0.588  0.3243  0.0752  0.2858
    8MOL0     C  985   2.478   8.573  -0.605 -0.1856 -0.2892  0.1278
    8MOL0     C  986   2.558   8.686  -0.684 -0.4291 -0.4446 -0.0866
    8MOL0     C  987   2.706   8.664  -0.670 -0.5753 -0.4305  0.2540
    8MOL0     C  988   2.794   8.776  -0.733 -0.1107 -1.2459 -0.5484
    8MOL0    Cl  989   2.788   8.756  -0.905  0.5151  0.1410  0.0180
    8MOL0     C  990   2.020   8.061  -0.473  0.0004 -0.2182  0.2628
    8MOL0     C  991   2.066   7.982  -0.364  0.6964  0.0575  0.5882
    8MOL0     O  992   2.008   7.813  -0.144 -0.5201 -0.2967  0.4945
    8MOL0     C  993   2.278   7.864   0.094  0.2452  0.4304 -0.5701
    8MOL0     C  994   2.349   7.815   0.200 -0.0203 -0.3492  0.9786
    8MOL0     N  995   2.741   7.469   0.712  0.3654  0.0235  0.0421
    8MOL0     N  996   2.848   7.453   0.777  0.0816 -0.8971  0.7449
    8MOL0     C  997   3.551   7.464   1.527  0.1549  0.2251 -0.6795
    8MOL0     C  998   3.685   7.424   1.560 -0.4623  0.9063  1.2018
    8MOL0     C  999   4.146   7.473   1.596 -0.2297 -0.4525 -0.9554
    8MOL0     C 1000   4.241   7.545   1.523 -0.4249 -1.0864 -0.1334
    8MOL0     C 1001   4.371   7.498   1.524 -0.4003  0.5123 -0.2576
    8MOL0     C 1002   4.412   7.386   1.593 -0.7101 -0.5991  0.1746
    8MOL0     O 1003   4.547   7.346   1.590  0.1650  0.0406 -0.4448
    8MOL0     C 1004   4.612   7.243   1.671  0.2070 -0.0720 -0.1428
    8MOL0     C 1005   4.563   7.100   1.628  0.1959 -0.1883 -1.1317
    8MOL0     C 1006   4.612   6.993   1.734 -0.3866  0.4300 -0.3618
    8MOL0     C 1007   4.504   6.971   1.845 -0.1854 -0.4069  0.0641
    8MOL0     C 1008   4.563   6.862   1.924  0.7008 -0.0078  0.2738
    8MOL0     C 1009   4.600   6.767   1.992  0.0256 -0.5437  0.2166
    8MOL0     C 1010   4.318   7.326   1.680  0.5170 -0.3735  0.0770
    8MOL0     C 1011   4.181   7.363   1.676 -0.2190  0.2507 -0.2654
    8MOL0     C 1012   4.092   7.270   1.759  0.3181 -0.3844 -0.7799
    8MOL0     H 1013   3.799   7.693   1.723  0.5601  0.2212  1.9339
    8MOL0     H 1014   3.565   7.762   1.675 -1.1312 -0.5813 -0.1357
    8MOL0     H 1015   3.288   7.514   1.680  0.7327  1.0897  0.2208
    8MOL0     H 1016   3.342   7.674   1.738  0.7842 -0.4533 -0.6260
    8MOL0     H 1017   3.175   7.771   1.566  0.1142 -0.4970 -1.2042
    8MOL0     H 1018   3.106   7.707   1.709 -1.0939  0.3297 -0.5270
    8MOL0     H 1019   2.974   7.625   1.520  1.0423  0.2557  1.3466
    8MOL0     H 1020   3.045   7.492   1.591 -2.4250 -1.5905 -2.7384
    8MOL0     H 1021   3.203   7.631   1.358 -1.0750  0.8242  1.9307
    8MOL0     H 1022   3.183   7.460   1.381 -0.5622  0.0147 -1.6557
    8MOL0     H 1023   2.979   7.438   1.311  0.1342 -1.3977 -0.3248
    8MOL0     H 1024   2.958   7.609   1.289  0.4365 -0.9324 -0.0639
    8MOL0     H 1025   3.153   7.621   1.142 -1.4220 -0.0835 -0.9208
    8MOL0     H 1026   3.165   7.433   1.156 -1.6733 -1.7719  1.3209
    8MOL0     H 1027   3.064   7.512   0.939 -0.3408 -5.0495 -0.4527
    8MOL0     H 1028   2.957   7.622   1.036 -3.5207 -1.7063 -1.8829
    8MOL0     H 1029   2.946   7.324   0.991 -1.6927  0.2813 -3.3850
    8MOL0     H 1030   2.836   7.426   1.110  1.1430  0.1771  1.3764
    8MOL0     H 1031   2.620   7.471   1.013  1.7129  0.9970  2.2735
    8MOL0     H 1032   2.456   7.379   0.725  0.5011 -0.4648  1.9148
    8MOL0     H 1033   2.419   7.506   0.842 -1.8935  0.4444 -0.8536
    8MOL0     H 1034   2.434   7.677   0.714  0.8385  0.9051  0.4236
    8MOL0     H 1035   2.547   7.624   0.594  2.3194 -0.2456  1.3072
    8MOL0     H 1036   2.242   7.549   0.643 -1.5531  1.2706 -1.4568
    8MOL0     H 1037   2.340   7.456   0.519  4.4056  0.4505 -1.2210
    8MOL0     H 1038   2.334   7.760   0.520 -0.0499 -1.5548  1.2046
    8MOL0     H 1039   2.197   7.669   0.454 -0.6195 -1.0001 -2.1200
    8MOL0     H 1040   2.189   7.513   0.198  2.2383 -1.1314 -0.5585
    8MOL0     H 1041   2.066   7.618   0.027 -1.7544  1.0609  0.8339
    8MOL0     H 1042   2.283   8.197  -0.225  2.3944 -0.1822 -2.6754
    8MOL0     H 1043   2.226   8.330  -0.419 -3.0287  1.7584  2.9174
    8MOL0     H 1044   2.015   8.424  -0.724  0.5924 -2.2035 -0.3365
    8MOL0     H 1045   2.059   8.438  -0.550 -0.8329  1.7676 -0.6961
    8MOL0     H 1046   2.294   8.361  -0.624  1.2649  0.3584 -0.6786
    8MOL0     H 1047   2.230   8.354  -0.790 -0.9366 -0.8909  0.3971
    8MOL0     H 1048   2.302   8.557  -0.793  0.0525 -0.1625 -0.9062
    8MOL0     H 1049   2.150   8.603  -0.702 -2.6616 -4.2677  1.8150
    8MOL0     H 1050   2.295   8.548  -0.502  1.9646 -3.0739 -0.9827
    8MOL0     H 1051   2.309   8.712  -0.572  0.9797  0.4110 -0.9261
    8MOL0     H 1052   2.501   8.475  -0.648 -2.2890 -1.6143  1.7859
    8MOL0     H 1053   2.516   8.574  -0.502 -2.3639  2.1566  1.0437
    8MOL0     H 1054   2.527   8.685  -0.789  0.6281 -0.7341 -0.4140
    8MOL0     H 1055   2.527   8.781  -0.641 -0.4616 -1.9417  3.6351
    8MOL0     H 1056   2.736   8.563  -0.700  2.0413  0.5829 -0.8478
    8MOL0     H 1057   2.716   8.665  -0.561 -1.3603  5.2769  0.5870
    8MOL0     H 1058   2.753   8.876  -0.717  1.3488 -0.8978  1.3637
    8MOL0     H 1059   2.900   8.766  -0.708 -0.5264 -3.7997  0.5103
    8MOL0     H 1060   1.950   8.023  -0.547  0.9925  3.4833 -2.8816
    8MOL0     H 1061   2.032   7.878  -0.360  0.1121  0.2836  1.7490
    8MOL0     H 1062   2.311   7.960   0.056  2.4012  0.0224  0.1050
    8MOL0     H 1063   2.432   7.866   0.248  0.1220 -0.1937  0.5680
    8MOL0     H 1064   3.478   7.401   1.479 -1.6103 -1.0763  3.2810
    8MOL0     H 1065   3.718   7.324   1.532 -1.9543  1.1578 -1.8934
    8MOL0     H 1066   4.223   7.633   1.463  3.1042  1.5390  2.2818
    8MOL0     H 1067   4.448   7.541   1.461 -1.6032  0.3134 -1.9433
    8MOL0     H 1068   4.595   7.268   1.776 -1.9170 -3.8142  0.5741
    8MOL0     H 1069   4.720   7.250   1.658 -0.0437  3.5453 -1.4467
    8MOL0     H 1070   4.607   7.080   1.530 -0.3262  0.4844 -1.5101
    8MOL0     H 1071   4.455   7.088   1.615 -0.2716 -0.1221  2.0442
    8MOL0     H 1072   4.708   7.026   1.774 -0.6747  2.1448 -1.0035
    8MOL0     H 1073   4.634   6.898   1.687 -0.0433 -0.8680  2.2392
    8MOL0     H 1074   4.490   7.067   1.896  4.8479  2.1773 -2.5923
    8MOL0     H 1075   4.414   6.928   1.799 -0.7537 -0.9842  1.6735
    8MOL0     H 1076   4.645   6.679   2.033  3.3294  0.5169 -0.7916
    8MOL0     H 1077   4.360   7.247   1.742 -1.0564 -1.2121  0.1236
    8MOL0     H 1078   4.153   7.197   1.813 -0.9385  1.1066  3.0447
    8MOL0     H 1079   4.033   7.319   1.837 -0.0226  1.0466 -1.8908
    8MOL0     H 1080   4.024   7.217   1.692  1.1131 -0.8373 -1.2500
    9MOL0     O 1081   2.129   4.960   8.401  0.2904  0.4584 -0.0614
    9MOL0     C 1082   2.074   5.063   8.427 -0.0778  0.0991  0.3266
    9MOL0     O 1083   2.123   5.186   8.434  0.3046  0.2665 -0.3745
    9MOL0     C 1084   2.255   5.210   8.419 -0.2038  0.8187  1.1586
    9MOL0     C 1085   2.342   5.207   8.527 -0.6712  0.0698 -1.6067
    9MOL0     C 1086   2.480   5.230   8.507 -0.0261  0.2753 -1.1258
    9MOL0     C 1087   2.534   5.249   8.382 -0.3339  0.4394 -0.4778
    9MOL0     O 1088   2.667   5.264   8.352 -0.1867 -1.0190 -0.0940
    9MOL0     C 1089   2.735   5.145   8.390 -0.7452  0.1328  1.2648
    9MOL0     C 1090   2.783   5.099   8.255  0.0069  0.1148  0.4264
    9MOL0     C 1091   2.907   5.019   8.259 -0.0783  1.0833 -0.3409
    9MOL0     C 1092   2.912   4.915   8.373 -0.4506  0.6848 -0.5198
    9MOL0     C 1093   3.035   4.831   8.382  1.3244  1.1174 -0.1919
    9MOL0     C 1094   3.172   4.914   8.393 -0.1598  0.6532  0.3228
    9MOL0     C 1095   3.171   5.015   8.509  0.0781 -0.0550 -0.0305
    9MOL0     C 1096   3.284   5.122   8.506  0.0555  0.4742 -0.3924
    9MOL0     N 1097   3.238   5.262   8.525 -0.2784 -0.4090 -0.0121
    9MOL0     C 1098   3.185   5.312   8.644  0.0178  0.4857  0.5934
    9MOL0     C 1099   3.166   5.449   8.624 -0.0957  0.0988  0.0022
    9MOL0     C 1100   3.104   5.546   8.722  0.7755 -0.0077 -0.4684
    9MOL0     C 1101   2.968   5.579   8.670 -0.0835 -0.3345 -0.2890
    9MOL0     C 1102   2.907   5.701   8.744  0.2663  0.1818  0.7293
    9MOL0     C 1103   2.778   5.763   8.688 -0.8356 -0.1978 -0.9809
    9MOL0     O 1104   2.740   5.869   8.777 -0.1965 -1.0044 -0.4860
    9MOL0     C 1105   2.625   5.936   8.750  0.2508 -1.2113  0.3619
    9MOL0     C 1106   2.518   5.891   8.666  1.1363  0.2516  0.0131
    9MOL0     C 1107   2.416   5.972   8.631  0.6867 -0.2903  0.0495
    9MOL0     C 1108   2.386   6.098   8.685 -0.1790  0.6587  0.0928
    9MOL0     C 1109   2.260   6.170   8.660  0.0450 -0.8802 -0.9855
    9MOL0     O 1110   2.242   6.293   8.710  0.4118  1.0001 -0.4811
    9MOL0     C 1111   2.125   6.353   8.683  0.1325 -1.0547  0.1116
    9MOL0     C 1112   2.028   6.373   8.784  0.1724  0.8699  0.3032
    9MOL0     C 1113   1.906   6.435   8.757  0.4660  0.3995 -0.0964
    9MOL0     C 1114   1.881   6.488   8.632 -0.2075 -0.2538 -0.9802
    9MOL0     O 1115   1.760   6.551   8.616 -0.0101 -0.1872  0.5235
    9MOL0     C 1116   1.755   6.687   8.657 -0.2507  0.3122  0.2628
    9MOL0     C 1117   1.615   6.705   8.689 -0.4486  0.3889 -0.3150
    9MOL0     C 1118   1.597   6.849   8.733 -0.0488 -0.8206  0.8591
    9MOL0     C 1119   1.444   6.859   8.762  0.7134 -0.4108  0.1849
    9MOL0     C 1120   1.395   6.991   8.818  0.5332  0.4428  0.9432
    9MOL0     C 1121   1.490   7.051   8.933  0.2623  0.5236  0.4031
    9MOL0     C 1122   1.493   6.959   9.050 -0.4009 -1.4277 -0.1954
    9MOL0     C 1123   1.487   7.051   9.178  0.1644  0.4820  0.4982
    9MOL0    Cl 1124   1.644   7.125   9.212 -0.1742 -0.1452  0.1580
    9MOL0     C 1125   1.977   6.474   8.532  0.7178 -0.9957  0.0602
    9MOL0     C 1126   2.100   6.409   8.558 -0.4659  0.1954 -0.3896
    9MOL0     O 1127   2.175   6.104   8.603  0.8217 -0.4896 -0.4227
    9MOL0     C 1128   2.486   6.136   8.782  0.1749 -0.1689 -0.7037
    9MOL0     C 1129   2.604   6.060   8.808 -0.0688  0.5217 -0.0081
    9MOL0     N 1130   3.213   5.483   8.501  0.0545  0.1406  0.1455
    9MOL0     N 1131   3.253   5.372   8.446 -0.1281  0.0932  0.7972
    9MOL0     C 1132   2.459   5.252   8.268  0.6815  0.0014  0.2305
    9MOL0     C 1133   2.317   5.239   8.289  0.3062  0.5690  0.7408
    9MOL0     C 1134   1.917   5.060   8.442 -0.1748  0.9643  0.2451
    9MOL0     C 1135   1.855   5.170   8.512 -0.5649 -0.1083  0.1861
    9MOL0     C 1136   1.725   5.169   8.542 -0.7927  0.4130 -0.4751
    9MOL0     C 1137   1.636   5.067   8.512  0.1526 -0.2076 -0.3725
    9MOL0     O 1138   1.504   5.054   8.556  0.8285 -0.2445  0.0027
    9MOL0     C 1139   1.462   5.152   8.652 -0.4053 -0.3108  0.3205
    9MOL0     C 1140   1.328   5.110   8.704 -0.2378  0.7151  0.6248
    9MOL0     C 1141   1.346   4.982   8.785 -0.0732 -0.1082 -1.1972
    9MOL0     C 1142   1.325   5.016   8.940  0.0173  0.4002  0.1867
    9MOL0     C 1143   1.344   4.895   9.025 -1.0023 -0.0557  0.1318
    9MOL0     C 1144   1.348   4.786   9.077 -0.3048  0.2228 -0.0365
    9MOL0     C 1145   1.695   4.958   8.444 -1.2389  0.1645 -0.3203
    9MOL0     C 1146   1.832   4.951   8.410  0.1260 -0.2446 -0.1831
    9MOL0     C 1147   1.866   4.838   8.326 -0.6171 -0.2771 -0.2574
    9MOL0     H 1148   2.317   5.188   8.631  1.3974  0.8676 -0.9135
    9MOL0     H 1149   2.545   5.218   8.594  0.3407  0.8817 -1.3082
    9MOL0     H 1150   2.828   5.165   8.445  1.2015 -0.7792 -1.4368
    9MOL0     H 1151   2.676   5.063   8.430  1.2037 -2.3709 -0.6432
    9MOL0     H 1152   2.808   5.189   8.198  1.0458 -0.3829  0.0779
    9MOL0     H 1153   2.711   5.043   8.195 -0.5572  1.4286 -0.1711
    9MOL0     H 1154   2.990   5.089   8.270  1.6763 -0.2085 -3.6536
    9MOL0     H 1155   2.944   4.971   8.168  1.7777  0.1581  0.8498
    9MOL0     H 1156   2.907   4.954   8.475  3.4617 -1.3322  0.6448
    9MOL0     H 1157   2.834   4.839   8.355  0.0982  0.8057 -4.0658
    9MOL0     H 1158   3.017   4.754   8.457 -0.2697  0.7574 -0.8981
    9MOL0     H 1159   3.026   4.764   8.296 -0.5784 -0.3280  1.0470
    9MOL0     H 1160   3.260   4.850   8.391 -2.2450 -2.4263 -0.6124
    9MOL0     H 1161   3.180   4.979   8.305  0.4631 -3.0547 -2.6303
    9MOL0     H 1162   3.191   4.973   8.608 -0.0134 -1.2577 -0.5122
    9MOL0     H 1163   3.076   5.069   8.516  0.9007  1.6623 -1.4532
    9MOL0     H 1164   3.363   5.101   8.579 -0.4753 -3.0259 -0.6354
    9MOL0     H 1165   3.339   5.121   8.412  0.2904  0.2137 -0.2543
    9MOL0     H 1166   3.163   5.252   8.731 -3.2393 -1.3266 -1.2929
    9MOL0     H 1167   3.101   5.501   8.821  3.0856 -0.5137 -0.5659
    9MOL0     H 1168   3.176   5.626   8.742  2.2467 -1.7532  1.7463
    9MOL0     H 1169   2.982   5.607   8.565  3.0906 -3.0631 -0.7898
    9MOL0     H 1170   2.905   5.489   8.671 -0.5603 -0.0219 -1.0282
    9MOL0     H 1171   2.974   5.787   8.745 -0.3212  0.6523  0.1443
    9MOL0     H 1172   2.886   5.667   8.846 -1.7709 -0.8129  0.0465
    9MOL0     H 1173   2.707   5.680   8.682  0.1655 -1.1693 -0.0428
    9MOL0     H 1174   2.808   5.793   8.588 -1.7017 -2.2388 -1.9093
    9MOL0     H 1175   2.523   5.794   8.619  1.8360 -1.2860  2.9557
    9MOL0     H 1176   2.351   5.935   8.552 -1.2907 -2.3857  2.4782
    9MOL0     H 1177   2.048   6.327   8.880  4.1287  0.7067 -0.4610
    9MOL0     H 1178   1.823   6.442   8.826 -0.5497 -0.1136 -1.2149
    9MOL0     H 1179   1.826   6.700   8.740  0.4717 -1.8626  0.0393
    9MOL0     H 1180   1.779   6.750   8.571 -1.0206 -0.1357 -0.2927
    9MOL0     H 1181   1.563   6.679   8.596  2.5297  0.5600 -2.1423
    9MOL0     H 1182   1.576   6.637   8.765 -1.9487  2.2991  0.7052
    9MOL0     H 1183   1.660   6.875   8.818 -1.4217 -0.3150  1.7450
    9MOL0     H 1184   1.624   6.916   8.650 -3.2812  0.8619  0.9769
    9MOL0     H 1185   1.414   6.780   8.831 -0.1005 -2.3108 -2.2082
    9MOL0     H 1186   1.395   6.834   8.668  2.1877 -2.2672 -0.1338
    9MOL0     H 1187   1.291   6.987   8.853 -0.2492  0.0504 -1.2657
    9MOL0     H 1188   1.419   7.054   8.731  0.8129 -2.0101 -0.8611
    9MOL0     H 1189   1.591   7.072   8.897  0.8758  2.9964  3.2251
    9MOL0     H 1190   1.442   7.147   8.958 -0.8414 -0.1832  1.0616
    9MOL0     H 1191   1.578   6.890   9.047  0.4819 -0.3988  0.3701
    9MOL0     H 1192   1.401   6.899   9.047 -0.1680 -1.7536 -1.0726
    9MOL0     H 1193   1.404   7.123   9.172 -1.0450 -0.9602 -1.4929
    9MOL0     H 1194   1.458   6.989   9.263  0.0808 -1.6590 -1.0119
    9MOL0     H 1195   1.972   6.529   8.438 -0.1522  0.4264  0.9029
    9MOL0     H 1196   2.184   6.414   8.491 -0.3115  0.4445 -0.1798
    9MOL0     H 1197   2.461   6.233   8.824 -0.7057 -0.6112 -0.1808
    9MOL0     H 1198   2.676   6.091   8.884 -2.4671  1.9900  1.7988
    9MOL0     H 1199   2.506   5.272   8.172 -2.5833  3.0389 -0.9732
    9MOL0     H 1200   2.254   5.247   8.200  1.6526  0.6068 -0.2320
    9MOL0     H 1201   1.921   5.255   8.524 -1.4937  0.4149  1.9493
    9MOL0     H 1202   1.698   5.252   8.607  0.3865  1.1249 -0.8630
    9MOL0     H 1203   1.447   5.255   8.619 -2.8654 -0.5074  0.6148
    9MOL0     H 1204   1.534   5.150   8.734  0.9815 -0.9947 -0.8767
    9MOL0     H 1205   1.261   5.100   8.619  1.7821  2.4361 -1.2786
    9MOL0     H 1206   1.282   5.184   8.770 -0.2275  0.2078  1.2154
    9MOL0     H 1207   1.437   4.926   8.761  0.6659 -0.1567  1.3836
    9MOL0     H 1208   1.266   4.917   8.750 -0.8358  0.6629 -0.9341
    9MOL0     H 1209   1.386   5.103   8.967 -1.7275  1.4597  0.8966
    9MOL0     H 1210   1.223   5.053   8.955 -1.3792 -1.8437 -2.8784
    9MOL0     H 1211   1.342   4.684   9.111 -1.0189  0.3717  0.3168
    9MOL0     H 1212   1.628   4.879   8.411 -2.6204  1.2673 -0.2182
    9MOL0     H 1213   1.921   4.864   8.234  0.7247  1.7845  1.0395
    9MOL0     H 1214   1.931   4.778   8.389 -1.6204 -3.7772 -2.2886
    9MOL0     H 1215   1.775   4.786   8.294 -1.1284  0.8904 -0.7699
   10MOL0     O 1216   2.336   6.290   4.287  0.0115  0.0542  0.0788
   10MOL0     C 1217   2.380   6.403   4.262 -0.2255 -0.9245 -0.4667
   10MOL0     O 1218   2.515   6.439   4.238  0.1360 -0.4139 -0.5771
   10MOL0     C 1219   2.608   6.346   4.270  0.2114  0.9612  1.1464
   10MOL0     C 1220   2.705   6.313   4.176 -0.8154 -0.1657 -0.5880
   10MOL0     C 1221   2.794   6.205   4.208 -0.4053  0.2594 -0.3874
   10MOL0     C 1222   2.800   6.145   4.334  0.4535 -0.6957 -0.2374
   10MOL0     O 1223   2.887   6.046   4.349 -0.0969  0.0081 -0.1083
   10MOL0     C 1224   2.866   5.951   4.465 -0.2658 -0.2041 -0.2630
   10MOL0     C 1225   2.923   5.811   4.443  0.7986  0.2605 -0.1378
   10MOL0     C 1226   2.890   5.736   4.311  0.1328 -0.5815 -0.8869
   10MOL0     C 1227   2.978   5.787   4.201 -0.5816  0.7328  0.0536
   10MOL0     C 1228   2.952   5.714   4.066 -0.6691 -0.1683  0.0557
   10MOL0     C 1229   2.822   5.769   4.004 -0.1834  0.3342  0.3099
   10MOL0     C 1230   2.783   5.915   4.030  0.2975  0.6479  0.2451
   10MOL0     C 1231   2.683   5.950   3.925 -0.3840  0.0414 -0.3404
   10MOL0     N 1232   2.550   5.924   3.965 -0.0218 -0.7374  0.1033
   10MOL0     C 1233   2.487   5.981   4.076 -0.9437 -1.2890 -0.0602
   10MOL0     C 1234   2.372   5.919   4.083  0.0955  0.7403 -0.2290
   10MOL0     C 1235   2.255   5.934   4.163  0.9088 -0.6723 -0.7276
   10MOL0     C 1236   2.247   5.857   4.294 -0.1667  0.1366 -0.2574
   10MOL0     C 1237   2.156   5.931   4.393 -0.0757 -0.1722  0.2115
   10MOL0     C 1238   2.014   5.911   4.340 -0.1385 -0.6191  0.0873
   10MOL0     O 1239   1.918   5.953   4.437 -0.1784  0.0256  0.0587
   10MOL0     C 1240   1.870   6.078   4.419 -0.0632  0.4465  1.1942
   10MOL0     C 1241   1.737   6.083   4.445  0.1135 -0.0575  0.1948
   10MOL0     C 1242   1.660   6.199   4.433 -0.6690 -0.0816  0.1471
   10MOL0     C 1243   1.724   6.317   4.371 -0.2969 -0.0962 -0.5242
   10MOL0     C 1244   1.635   6.433   4.346 -0.5241  0.3294 -0.2422
   10MOL0     O 1245   1.514   6.442   4.413 -0.3453  0.8029 -0.2250
   10MOL0     C 1246   1.436   6.554   4.381 -0.4985 -0.3256  0.3951
   10MOL0     C 1247   1.365   6.564   4.258  0.6756 -0.2472 -0.2591
   10MOL0     C 1248   1.278   6.673   4.243  0.4445 -1.2280  0.0674
   10MOL0     C 1249   1.259   6.775   4.346 -0.5988  0.4156 -0.1047
   10MOL0     O 1250   1.173   6.871   4.317  0.5679 -0.3008  0.1121
   10MOL0     C 1251   1.059   6.890   4.396 -0.4498 -0.0851 -0.1793
   10MOL0     C 1252   0.970   7.010   4.358 -0.5345  0.2930 -1.0321
   10MOL0     C 1253   0.855   7.028   4.455  0.4882 -0.5685 -0.2657
   10MOL0     C 1254   0.895   7.044   4.606  0.5315  0.4328  0.8441
   10MOL0     C 1255   0.779   7.087   4.680  0.5462 -0.3095  0.9680
   10MOL0     C 1256   0.816   7.089   4.832  0.0050 -0.2526  0.4997
   10MOL0     C 1257   0.818   6.953   4.908  0.9290 -0.0537 -0.3054
   10MOL0     C 1258   0.920   6.937   5.015 -0.6764  0.0897  0.3973
   10MOL0    Cl 1259   0.906   6.791   5.122  0.1477 -0.5428  0.4018
   10MOL0     C 1260   1.336   6.763   4.469  0.6296  0.5037 -0.0856
   10MOL0     C 1261   1.414   6.650   4.485 -0.1628 -0.6267  0.0710
   10MOL0     O 1262   1.686   6.523   4.274  0.4595 -0.3756  0.6931
   10MOL0     C 1263   1.862   6.310   4.337  0.5726 -0.0561 -0.8986
   10MOL0     C 1264   1.937   6.186   4.363  0.2832 -0.7689 -0.3123
   10MOL0     N 1265   2.367   5.824   3.984 -0.1986 -0.5555  0.5066
   10MOL0     N 1266   2.471   5.836   3.903 -0.4140  0.1852 -0.2891
   10MOL0     C 1267   2.698   6.181   4.424 -0.5141  0.4129 -0.3865
   10MOL0     C 1268   2.611   6.285   4.394 -0.8164  0.4462  0.3908
   10MOL0     C 1269   2.279   6.510   4.267 -0.8694 -0.6453  0.1167
   10MOL0     C 1270   2.280   6.606   4.160 -0.2229  0.6566 -0.9814
   10MOL0     C 1271   2.195   6.718   4.156 -1.4312 -0.4301  0.2489
   10MOL0     C 1272   2.098   6.728   4.249 -0.0375 -0.0594  0.6316
   10MOL0     O 1273   2.011   6.844   4.250 -0.1152  0.6785  0.0607
   10MOL0     C 1274   1.925   6.862   4.371  0.7978 -0.3073 -0.0742
   10MOL0     C 1275   1.833   6.978   4.333  0.4183 -1.0279  0.4363
   10MOL0     C 1276   1.747   7.034   4.453  0.0909 -0.9360 -0.2541
   10MOL0     C 1277   1.648   6.931   4.498 -0.2094 -0.6349 -0.0620
   10MOL0     C 1278   1.598   6.967   4.630 -0.0890 -0.2473  0.4272
   10MOL0     C 1279   1.566   7.000   4.745  0.9472 -1.0831  0.2285
   10MOL0     C 1280   2.091   6.626   4.345  0.3412  0.3265 -0.0246
   10MOL0     C 1281   2.173   6.519   4.365 -0.4725  1.2295  0.2087
   10MOL0     C 1282   2.166   6.428   4.484 -0.4295 -0.3062 -0.6251
   10MOL0     H 1283   2.699   6.368   4.083 -1.0144  1.9874  0.6325
   10MOL0     H 1284   2.858   6.145   4.144  0.8244  1.3507 -0.2155
   10MOL0     H 1285   2.901   5.999   4.557  0.7311 -0.9625 -0.2351
   10MOL0     H 1286   2.760   5.940   4.489 -0.3374 -0.1673 -0.5640
   10MOL0     H 1287   2.891   5.750   4.528  0.4045  1.6880  0.7722
   10MOL0     H 1288   3.032   5.811   4.453  0.7312 -0.6679  0.7131
   10MOL0     H 1289   2.785   5.754   4.286 -0.2168  0.4648  1.1265
   10MOL0     H 1290   2.913   5.631   4.329  0.9857 -0.4461 -1.1214
   10MOL0     H 1291   2.973   5.896   4.187 -1.1302  0.6750 -0.2112
   10MOL0     H 1292   3.082   5.770   4.231 -1.1577 -4.2865  0.0401
   10MOL0     H 1293   3.037   5.713   3.997 -0.4978 -1.7518  0.2592
   10MOL0     H 1294   2.930   5.609   4.086 -5.1553  0.7881  1.1793
   10MOL0     H 1295   2.813   5.744   3.897  0.1881 -4.2182  1.1541
   10MOL0     H 1296   2.742   5.709   4.050  0.4435 -1.2674 -0.5967
   10MOL0     H 1297   2.874   5.975   4.017  1.8967 -1.4460  1.1792
   10MOL0     H 1298   2.741   5.928   4.130 -0.8637 -0.4329 -0.0728
   10MOL0     H 1299   2.690   6.056   3.900 -0.2726  0.2543  0.5357
   10MOL0     H 1300   2.702   5.901   3.830  3.0356  0.4256  0.0290
   10MOL0     H 1301   2.519   6.073   4.125 -0.1580  0.3770 -3.3876
   10MOL0     H 1302   2.238   6.039   4.186  0.7606 -1.1728  1.6806
   10MOL0     H 1303   2.170   5.900   4.102 -0.1578 -3.6240  2.0831
   10MOL0     H 1304   2.216   5.753   4.275  1.1533 -0.6348  1.4796
   10MOL0     H 1305   2.348   5.838   4.331 -0.3896 -0.3071  0.1406
   10MOL0     H 1306   2.177   6.038   4.407 -1.1972  0.2526 -1.0250
   10MOL0     H 1307   2.167   5.871   4.484  4.7850  1.1597  0.7901
   10MOL0     H 1308   1.992   5.807   4.314 -1.2123 -0.5615  0.7292
   10MOL0     H 1309   2.001   5.973   4.250 -0.2984  3.0052  2.4019
   10MOL0     H 1310   1.690   5.999   4.494 -1.1854  1.5494  1.8634
   10MOL0     H 1311   1.557   6.194   4.467 -0.8908  1.7320 -0.1565
   10MOL0     H 1312   1.366   6.480   4.190 -1.5639 -0.4212 -0.1777
   10MOL0     H 1313   1.241   6.680   4.142 -1.5607 -1.2869  0.7482
   10MOL0     H 1314   0.997   6.806   4.365  0.5236 -0.6335 -0.6990
   10MOL0     H 1315   1.067   6.887   4.505 -2.0596  1.5626  0.0412
   10MOL0     H 1316   1.028   7.101   4.347 -1.6544  0.9103 -1.9848
   10MOL0     H 1317   0.933   7.000   4.256  0.6024  0.5261 -1.4776
   10MOL0     H 1318   0.798   7.116   4.422 -1.7582 -3.1398 -4.1078
   10MOL0     H 1319   0.783   6.947   4.440 -0.8455  0.4281  0.5352
   10MOL0     H 1320   0.985   7.104   4.615 -0.2998  2.3499 -2.1475
   10MOL0     H 1321   0.915   6.946   4.650  0.4553  0.5021  1.0323
   10MOL0     H 1322   0.693   7.023   4.659  0.5476  0.5082 -2.0636
   10MOL0     H 1323   0.748   7.189   4.657  0.6191 -0.6098 -0.5868
   10MOL0     H 1324   0.903   7.153   4.849 -1.7590  1.9764  1.8248
   10MOL0     H 1325   0.740   7.151   4.882  1.5051  0.3928  2.0821
   10MOL0     H 1326   0.820   6.871   4.835 -4.6875 -0.4992 -0.4520
   10MOL0     H 1327   0.715   6.948   4.946 -0.2747  1.2276 -3.0913
   10MOL0     H 1328   1.008   6.927   4.952 -1.4730 -1.3084 -0.5645
   10MOL0     H 1329   0.913   7.024   5.080  1.4709  0.2065  0.5383
   10MOL0     H 1330   1.329   6.843   4.543  4.6111  0.2958  0.7796
   10MOL0     H 1331   1.466   6.649   4.581 -1.1332  2.5190  0.7430
   10MOL0     H 1332   1.909   6.390   4.280 -1.8267  1.6229 -0.6757
   10MOL0     H 1333   2.035   6.174   4.318  0.9488  1.4702  0.4163
   10MOL0     H 1334   2.695   6.138   4.524 -1.1730  2.9096  0.7422
   10MOL0     H 1335   2.536   6.316   4.466 -0.2669  2.5257  0.1373
   10MOL0     H 1336   2.360   6.600   4.087  2.7286  0.8730  1.9810
   10MOL0     H 1337   2.204   6.798   4.083  3.6723 -0.4302  0.4945
   10MOL0     H 1338   1.980   6.896   4.460  0.9101 -0.8290  0.0578
   10MOL0     H 1339   1.866   6.771   4.381  0.8267 -0.7132 -2.8564
   10MOL0     H 1340   1.770   6.943   4.251 -0.7395  0.5513  0.5976
   10MOL0     H 1341   1.893   7.061   4.295 -2.1689  0.5690 -0.4257
   10MOL0     H 1342   1.693   7.125   4.425  1.0736 -0.9918 -2.5422
   10MOL0     H 1343   1.810   7.064   4.538 -3.0957 -3.5998  3.3998
   10MOL0     H 1344   1.566   6.907   4.431 -1.0211 -2.6473  1.5356
   10MOL0     H 1345   1.706   6.838   4.505  1.3701  0.1233 -2.0281
   10MOL0     H 1346   1.527   7.046   4.833 -0.0032  0.6218 -1.0184
   10MOL0     H 1347   2.006   6.628   4.413  0.3755 -0.2614  0.0425
   10MOL0     H 1348   2.089   6.459   4.555 -0.8056  1.1094 -1.5970
   10MOL0     H 1349   2.144   6.329   4.442 -0.8031 -0.1505 -0.8032
   10MOL0     H 1350   2.263   6.415   4.534 -1.1998 -1.3022  0.6758
   11MOL0     O 1351   2.707  10.376   3.037  0.1527 -0.1460 -0.1328
   11MOL0     C 1352   2.641  10.475   3.051 -0.4000  0.9189 -0.6251
   11MOL0     O 1353   2.691  10.601   3.026 -0.1910 -0.2025  0.5965
   11MOL0     C 1354   2.827  10.623   3.009 -0.3322 -0.3587 -0.8322
   11MOL0     C 1355   2.885  10.729   3.076 -0.4839 -0.3222 -0.6547
   11MOL0     C 1356   3.023  10.749   3.069  0.0271 -0.4726 -0.8583
   11MOL0     C 1357   3.103  10.669   2.987  0.3281 -0.0345 -0.5633
   11MOL0     O 1358   3.234  10.696   2.973 -0.6235  0.1095  0.4021
   11MOL0     C 1359   3.294  10.828   2.996  0.1923 -0.5421  0.7401
   11MOL0     C 1360   3.445  10.802   2.990 -0.4387  0.2678  0.2642
   11MOL0     C 1361   3.514  10.932   3.046  0.1225  0.5337 -1.3920
   11MOL0     C 1362   3.658  10.927   3.019  0.3448  0.2420  1.0195
   11MOL0     C 1363   3.732  11.043   3.045  0.6902  0.0292 -0.6175
   11MOL0     C 1364   3.882  11.028   3.041 -0.1948  0.4547  0.6305
   11MOL0     C 1365   3.944  11.163   3.037 -0.3607  0.0383 -0.0901
   11MOL0     C 1366   4.093  11.157   3.060 -0.1099 -0.1503  0.3878
   11MOL0     N 1367   4.148  11.291   3.032 -0.1496  0.2322 -0.9531
   11MOL0     C 1368   4.173  11.340   2.907 -0.3589 -0.2302 -0.3904
   11MOL0     C 1369   4.228  11.458   2.932  0.0004 -1.4307  0.4541
   11MOL0     C 1370   4.261  11.560   2.822  0.2613 -0.3827  0.2331
   11MOL0     C 1371   4.397  11.620   2.832 -0.7633  0.6291  0.1169
   11MOL0     C 1372   4.428  11.705   2.707  0.3068 -0.4902 -0.5367
   11MOL0     C 1373   4.565  11.775   2.711  0.1174  0.5814  0.8207
   11MOL0     O 1374   4.587  11.839   2.588 -0.1314  0.0375 -1.0800
   11MOL0     C 1375   4.719  11.887   2.558 -0.3311 -0.2783  0.0027
   11MOL0     C 1376   4.795  11.929   2.666  1.5806  0.3064 -0.1757
   11MOL0     C 1377   4.925  11.961   2.654 -0.9255  0.8332  0.5610
   11MOL0     C 1378   4.978  11.963   2.520  0.0591  0.6826  0.4563
   11MOL0     C 1379   5.123  12.000   2.491 -0.6439 -0.0933 -0.0610
   11MOL0     O 1380   5.213  12.005   2.593 -0.8409 -0.1485 -0.0205
   11MOL0     C 1381   5.337  12.063   2.574 -0.1626  0.5828  0.7615
   11MOL0     C 1382   5.383  12.163   2.652  0.4219  0.7098 -0.6720
   11MOL0     C 1383   5.511  12.229   2.633 -0.2891  0.8959  0.9810
   11MOL0     C 1384   5.604  12.183   2.532  0.7535 -0.1001 -0.3495
   11MOL0     O 1385   5.717  12.258   2.517 -0.2218  1.0684 -0.5058
   11MOL0     C 1386   5.778  12.273   2.380  1.1761 -0.3608 -1.5846
   11MOL0     C 1387   5.884  12.156   2.354  0.3023  0.0067 -0.4628
   11MOL0     C 1388   6.016  12.177   2.423 -0.2917 -0.4488  0.6026
   11MOL0     C 1389   6.108  12.059   2.383  0.8590 -0.5402 -0.0111
   11MOL0     C 1390   6.235  12.060   2.462 -0.7768  0.5856 -0.0581
   11MOL0     C 1391   6.307  12.185   2.481 -0.8528  0.3141 -0.6945
   11MOL0     C 1392   6.437  12.163   2.571  0.4888  0.8928  0.1331
   11MOL0     C 1393   6.512  12.286   2.617  0.0307  1.0242 -0.3039
   11MOL0    Cl 1394   6.407  12.415   2.679 -0.0565 -0.4768  0.6824
   11MOL0     C 1395   5.555  12.077   2.456  0.0580  0.7276  0.7064
   11MOL0     C 1396   5.421  12.027   2.472 -0.4485  0.0383  0.8251
   11MOL0     O 1397   5.143  12.030   2.375  0.2356 -0.4297  0.3838
   11MOL0     C 1398   4.892  11.933   2.406  0.6990 -0.5524 -0.4427
   11MOL0     C 1399   4.763  11.889   2.429 -0.0174  0.1097 -0.1200
   11MOL0     N 1400   4.241  11.472   3.069  0.3304 -0.3170 -0.3784
   11MOL0     N 1401   4.196  11.367   3.134 -0.0811 -0.0885  1.1993
   11MOL0     C 1402   3.048  10.566   2.911 -1.2586 -0.5743 -0.6805
   11MOL0     C 1403   2.913  10.548   2.918 -0.6133  0.2021 -0.2983
   11MOL0     C 1404   2.494  10.474   3.090 -0.5677  0.4179 -0.3610
   11MOL0     C 1405   2.450  10.581   3.165  0.0799 -0.0353  0.0777
   11MOL0     C 1406   2.327  10.580   3.233 -0.3907 -0.0345 -0.2596
   11MOL0     C 1407   2.239  10.484   3.212  0.7196  0.8602  0.8366
   11MOL0     O 1408   2.128  10.483   3.291 -0.0084 -0.9560 -0.6946
   11MOL0     C 1409   2.009  10.481   3.210 -0.3539 -0.3193  0.2521
   11MOL0     C 1410   1.923  10.607   3.221  0.4116 -0.2973  0.7790
   11MOL0     C 1411   2.018  10.729   3.226 -0.9703  0.5814  0.4505
   11MOL0     C 1412   1.956  10.873   3.232  0.0732 -0.1108 -0.5101
   11MOL0     C 1413   2.062  10.970   3.240 -0.4405  0.2246  0.4271
   11MOL0     C 1414   2.163  11.030   3.243  0.4329 -0.7558  0.0920
   11MOL0     C 1415   2.278  10.371   3.132  0.9792 -0.5618  0.6023
   11MOL0     C 1416   2.402  10.363   3.065 -0.3980 -0.4512 -0.1556
   11MOL0     C 1417   2.433  10.237   2.981 -0.0251  0.0874  0.0549
   11MOL0     H 1418   2.826  10.793   3.141  0.3869  0.0997 -0.2759
   11MOL0     H 1419   3.065  10.832   3.124  1.9198 -1.0359 -1.3459
   11MOL0     H 1420   3.255  10.894   2.917  1.9434 -0.9413 -0.5286
   11MOL0     H 1421   3.265  10.873   3.091 -0.9715  0.0304  0.1391
   11MOL0     H 1422   3.484  10.775   2.892  0.7842 -3.2469  1.5845
   11MOL0     H 1423   3.469  10.722   3.060  2.8877 -1.5128 -2.6369
   11MOL0     H 1424   3.503  10.927   3.155 -0.5952 -0.6744 -1.4976
   11MOL0     H 1425   3.473  11.027   3.010  2.0001  1.5276 -1.0445
   11MOL0     H 1426   3.710  10.842   3.063  0.3877 -1.5392 -2.1501
   11MOL0     H 1427   3.671  10.915   2.911 -2.1611  1.6835  0.4745
   11MOL0     H 1428   3.691  11.121   2.979 -1.4515 -2.0807 -1.9721
   11MOL0     H 1429   3.707  11.090   3.141 -1.4068  2.3251 -2.1439
   11MOL0     H 1430   3.912  10.973   3.130  1.8236  0.2181 -0.1468
   11MOL0     H 1431   3.896  10.976   2.945 -2.6566 -0.1335  0.5125
   11MOL0     H 1432   3.900  11.234   3.108  2.1012  1.2057  0.3664
   11MOL0     H 1433   3.930  11.209   2.939  0.2267 -0.2435 -0.3101
   11MOL0     H 1434   4.117  11.124   3.162 -4.4138  2.3638  2.5070
   11MOL0     H 1435   4.138  11.095   2.981  1.7482 -0.2985  1.4889
   11MOL0     H 1436   4.145  11.290   2.814  1.5857 -0.3811 -0.9300
   11MOL0     H 1437   4.266  11.499   2.731 -0.3859  0.3706 -0.3234
   11MOL0     H 1438   4.177  11.630   2.809  0.3985 -0.5126 -1.6605
   11MOL0     H 1439   4.399  11.680   2.923  0.9311  0.2112  0.3828
   11MOL0     H 1440   4.478  11.548   2.845 -1.7640 -0.2188  2.4138
   11MOL0     H 1441   4.348  11.778   2.718 -3.7415 -4.2870 -1.7340
   11MOL0     H 1442   4.414  11.652   2.613 -1.7081 -0.5983 -0.2194
   11MOL0     H 1443   4.636  11.697   2.742  0.1102  0.7062  1.1467
   11MOL0     H 1444   4.562  11.852   2.788  1.9601  1.0468  0.4663
   11MOL0     H 1445   4.757  11.937   2.768 -1.6672  1.2350 -1.3144
   11MOL0     H 1446   4.991  11.982   2.737  0.4980 -0.1126 -0.3001
   11MOL0     H 1447   5.317  12.204   2.727 -0.1692 -1.0627 -0.1803
   11MOL0     H 1448   5.539  12.313   2.696 -1.4501  1.7944  0.3542
   11MOL0     H 1449   5.695  12.267   2.309 -0.3610 -1.0703  0.1755
   11MOL0     H 1450   5.829  12.369   2.366  1.5668 -0.5345 -1.3287
   11MOL0     H 1451   5.852  12.061   2.397  4.6260 -0.9833  1.0785
   11MOL0     H 1452   5.910  12.158   2.248  3.2780  2.7134  0.1674
   11MOL0     H 1453   6.056  12.273   2.390 -1.5069  0.1130  0.6814
   11MOL0     H 1454   5.995  12.173   2.530  1.5819 -1.3717  0.9588
   11MOL0     H 1455   6.121  12.073   2.275 -1.4687 -1.1401 -0.4232
   11MOL0     H 1456   6.053  11.964   2.383 -1.2533  0.6006 -1.3726
   11MOL0     H 1457   6.301  11.987   2.415  1.0685  1.1112  1.5767
   11MOL0     H 1458   6.216  12.026   2.564 -0.7406  0.9035  0.0559
   11MOL0     H 1459   6.351  12.223   2.388  1.1305 -0.7646 -0.2674
   11MOL0     H 1460   6.236  12.250   2.534 -0.5627 -1.0191  1.4657
   11MOL0     H 1461   6.505  12.099   2.514 -0.7501  0.7310 -1.2010
   11MOL0     H 1462   6.389  12.110   2.654 -0.6797 -0.5998 -1.4309
   11MOL0     H 1463   6.579  12.265   2.701 -0.0260  2.5215  0.1342
   11MOL0     H 1464   6.568  12.332   2.535  2.2642 -0.5049  0.2646
   11MOL0     H 1465   5.622  12.028   2.387  1.3050  1.1913  1.5526
   11MOL0     H 1466   5.382  11.950   2.406  0.6773 -0.0823  0.2773
   11MOL0     H 1467   4.925  11.941   2.304 -1.4345 -0.5424 -1.1851
   11MOL0     H 1468   4.709  11.859   2.340  0.1793 -1.6167  0.3069
   11MOL0     H 1469   3.111  10.503   2.850 -1.7157 -3.9156  1.9933
   11MOL0     H 1470   2.870  10.466   2.861  0.8522 -1.1510  0.4764
   11MOL0     H 1471   2.514  10.667   3.179 -2.2758  1.9273 -0.5562
   11MOL0     H 1472   2.311  10.656   3.308  0.5160 -0.8806  0.8258
   11MOL0     H 1473   1.948  10.394   3.234 -2.8832  0.6077 -2.2461
   11MOL0     H 1474   2.035  10.468   3.104 -1.6085  0.2387 -0.1444
   11MOL0     H 1475   1.875  10.604   3.319  0.2803 -3.0267  0.6894
   11MOL0     H 1476   1.856  10.609   3.135 -0.3725 -4.7484  1.0551
   11MOL0     H 1477   2.092  10.731   3.145  0.2459 -2.2624  1.3402
   11MOL0     H 1478   2.088  10.718   3.310 -0.6308 -0.2484  0.0701
   11MOL0     H 1479   1.895  10.894   3.144 -0.3868  1.1463  0.0811
   11MOL0     H 1480   1.888  10.887   3.317  1.4658  0.9380  0.4856
   11MOL0     H 1481   2.250  11.091   3.230 -0.2912  0.3889  0.5431
   11MOL0     H 1482   2.205  10.291   3.134  1.8497 -1.3518  1.7679
   11MOL0     H 1483   2.347  10.170   2.974  0.2571 -0.3634  0.7606
   11MOL0     H 1484   2.456  10.265   2.878 -2.3666 -0.0653 -0.5826
   11MOL0     H 1485   2.515  10.175   3.019  0.8796  0.2550 -1.5553
   12MOL0     O 1486   5.841   7.866   4.211 -0.3624 -0.7333  0.0425
   12MOL0     C 1487   5.732   7.900   4.163 -0.2635  0.2112 -0.0359
   12MOL0     O 1488   5.704   8.019   4.091 -0.0947  0.6750 -0.2239
   12MOL0     C 1489   5.790   8.123   4.119 -1.1136  0.1652 -0.3043
   12MOL0     C 1490   5.774   8.206   4.236 -0.2029 -0.3556 -0.7829
   12MOL0     C 1491   5.871   8.290   4.277 -0.0329 -0.8422  0.5055
   12MOL0     C 1492   5.969   8.318   4.189 -0.0204  0.0606  1.2031
   12MOL0     O 1493   6.071   8.400   4.234  0.2889  0.2709 -0.0503
   12MOL0     C 1494   6.207   8.362   4.221  0.0306  0.0099 -0.2441
   12MOL0     C 1495   6.278   8.478   4.282 -0.2372 -0.0820 -0.9162
   12MOL0     C 1496   6.420   8.425   4.310 -0.1779  0.2668 -0.3547
   12MOL0     C 1497   6.528   8.540   4.303 -1.0275  0.5500 -0.3486
   12MOL0     C 1498   6.662   8.481   4.279  0.4948 -0.8936 -0.1984
   12MOL0     C 1499   6.786   8.561   4.251  1.4205  0.5968 -0.0395
   12MOL0     C 1500   6.769   8.665   4.136  0.0157 -0.4518 -0.3993
   12MOL0     C 1501   6.779   8.606   3.991  0.5447  0.2819  0.2260
   12MOL0     N 1502   6.912   8.561   3.955  0.0691 -0.2744 -0.0364
   12MOL0     C 1503   7.020   8.641   3.933  0.7536 -0.1121 -0.6842
   12MOL0     C 1504   7.127   8.556   3.896 -0.3978  0.2528 -0.1821
   12MOL0     C 1505   7.264   8.602   3.863 -1.0675  0.0230  0.4764
   12MOL0     C 1506   7.316   8.555   3.735  0.4475 -0.6050  0.0613
   12MOL0     C 1507   7.460   8.601   3.714 -0.5402  0.6362  0.3250
   12MOL0     C 1508   7.486   8.755   3.690 -0.6374 -0.3409  0.4585
   12MOL0     O 1509   7.439   8.809   3.565  0.1623  0.8345 -0.6811
   12MOL0     C 1510   7.492   8.782   3.445 -1.1527 -0.8311  0.4023
   12MOL0     C 1511   7.626   8.748   3.423  0.4549  0.3757 -0.1214
   12MOL0     C 1512   7.679   8.725   3.294 -0.3980  0.4350  0.0461
   12MOL0     C 1513   7.595   8.739   3.182  0.9467 -0.2664 -0.2843
   12MOL0     C 1514   7.635   8.697   3.048  0.0882  0.1421  0.4231
   12MOL0     O 1515   7.768   8.656   3.036 -0.5290 -1.2056 -0.0163
   12MOL0     C 1516   7.826   8.617   2.920 -0.6349  0.3955  0.4574
   12MOL0     C 1517   7.756   8.554   2.810 -0.5128  0.2895  0.6330
   12MOL0     C 1518   7.824   8.495   2.698 -0.3667 -0.2147 -0.0568
   12MOL0     C 1519   7.970   8.497   2.695  0.1642  0.1781  0.4001
   12MOL0     O 1520   8.032   8.415   2.596 -0.0912  0.0449 -0.3663
   12MOL0     C 1521   8.173   8.387   2.607 -0.8905  0.5439 -0.5435
   12MOL0     C 1522   8.230   8.311   2.486 -0.1626 -0.5263  0.1754
   12MOL0     C 1523   8.372   8.242   2.523 -0.8299 -0.8490  0.9715
   12MOL0     C 1524   8.438   8.207   2.386 -1.1752  1.1539 -0.4860
   12MOL0     C 1525   8.547   8.103   2.400 -1.2611  0.6441  0.2918
   12MOL0     C 1526   8.619   8.071   2.266  0.3741 -0.7353 -0.9172
   12MOL0     C 1527   8.718   7.959   2.255  0.5695  0.5805  0.1012
   12MOL0     C 1528   8.834   7.979   2.157 -0.1248 -0.0324  1.0358
   12MOL0    Cl 1529   8.944   7.835   2.160  0.0889 -0.5092  0.1434
   12MOL0     C 1530   8.029   8.559   2.806 -0.4281  0.8099  0.9087
   12MOL0     C 1531   7.964   8.625   2.909 -0.4776 -0.1532 -0.1571
   12MOL0     O 1532   7.554   8.716   2.952 -0.5581 -0.2498  0.0566
   12MOL0     C 1533   7.465   8.784   3.206 -0.3807 -0.1689  0.1312
   12MOL0     C 1534   7.419   8.796   3.332  0.1038  0.2658  0.3447
   12MOL0     N 1535   7.068   8.427   3.900 -0.5108  0.3907 -0.7894
   12MOL0     N 1536   6.947   8.428   3.942 -0.2788 -0.6788 -0.0528
   12MOL0     C 1537   5.988   8.254   4.060 -0.4788 -0.0357  0.5825
   12MOL0     C 1538   5.894   8.157   4.032  0.1927  0.2823 -0.3582
   12MOL0     C 1539   5.605   7.818   4.183  0.1653  0.6523  0.3951
   12MOL0     C 1540   5.478   7.873   4.143 -0.5748 -0.8381 -0.0279
   12MOL0     C 1541   5.356   7.818   4.172  0.1113  0.1918 -0.5430
   12MOL0     C 1542   5.344   7.695   4.239  0.0257 -0.4252  0.7061
   12MOL0     O 1543   5.232   7.619   4.250  0.3222 -0.3008  0.0835
   12MOL0     C 1544   5.111   7.696   4.272  0.9706  0.0333 -0.0398
   12MOL0     C 1545   5.041   7.604   4.364  0.3082 -0.5079  0.2176
   12MOL0     C 1546   4.929   7.678   4.435 -0.8905  0.0104  0.6372
   12MOL0     C 1547   4.837   7.585   4.513  0.0233  0.4772 -0.8177
   12MOL0     C 1548   4.770   7.476   4.434  1.2553 -0.3076 -0.2903
   12MOL0     C 1549   4.703   7.393   4.369 -0.6891  1.1105  0.2740
   12MOL0     C 1550   5.465   7.630   4.265 -0.3425 -0.4979  0.0866
   12MOL0     C 1551   5.589   7.687   4.241 -0.0307 -0.2090  0.9080
   12MOL0     C 1552   5.708   7.604   4.285  0.4974  0.2101  0.1629
   12MOL0     H 1553   5.695   8.191   4.309  0.3008  1.6389  0.2383
   12MOL0     H 1554   5.855   8.341   4.371 -0.0742 -1.0648  0.6188
   12MOL0     H 1555   6.233   8.273   4.278 -1.0381 -0.6276 -0.7120
   12MOL0     H 1556   6.229   8.347   4.114 -0.1825 -1.3762 -0.1107
   12MOL0     H 1557   6.245   8.507   4.382  1.3840 -2.9691  0.5989
   12MOL0     H 1558   6.267   8.550   4.201  1.0899 -0.9334 -1.8984
   12MOL0     H 1559   6.436   8.348   4.234 -0.0496 -1.5423  1.4205
   12MOL0     H 1560   6.431   8.382   4.409  0.8902  4.1789  1.4299
   12MOL0     H 1561   6.506   8.604   4.217 -2.2905  1.9922  0.9806
   12MOL0     H 1562   6.532   8.601   4.393 -0.3342  0.2984 -0.2101
   12MOL0     H 1563   6.693   8.428   4.370 -0.9026  1.4390  1.7634
   12MOL0     H 1564   6.653   8.410   4.197 -1.1002  1.0148 -1.7693
   12MOL0     H 1565   6.815   8.615   4.341 -1.8472 -3.5586  3.9784
   12MOL0     H 1566   6.867   8.489   4.237 -0.0015 -1.5248  1.9272
   12MOL0     H 1567   6.846   8.743   4.140 -1.9384  1.5501  0.9144
   12MOL0     H 1568   6.677   8.721   4.155  0.2668 -0.3487  0.5645
   12MOL0     H 1569   6.710   8.522   3.978  0.3774  0.7591 -2.6878
   12MOL0     H 1570   6.745   8.669   3.908 -0.7681 -2.0615 -1.1253
   12MOL0     H 1571   7.026   8.749   3.938  3.1790 -0.2548  1.0664
   12MOL0     H 1572   7.257   8.711   3.873 -1.3016  0.1418 -0.8111
   12MOL0     H 1573   7.341   8.590   3.940 -0.2888  1.5739 -0.0199
   12MOL0     H 1574   7.315   8.446   3.728  1.2576 -0.7202  1.4003
   12MOL0     H 1575   7.255   8.609   3.662  1.8903 -1.4817 -1.8884
   12MOL0     H 1576   7.493   8.543   3.627 -1.6559  2.0069 -1.0594
   12MOL0     H 1577   7.528   8.569   3.793  1.5820  2.8263 -0.4974
   12MOL0     H 1578   7.593   8.775   3.700 -0.9490  1.5647  0.4151
   12MOL0     H 1579   7.429   8.807   3.768 -0.3134  1.8598 -0.6997
   12MOL0     H 1580   7.688   8.738   3.511 -0.6788 -1.5097  0.5036
   12MOL0     H 1581   7.779   8.690   3.273 -1.2909 -0.9896 -2.1658
   12MOL0     H 1582   7.649   8.540   2.820 -0.5234 -1.0969 -0.9787
   12MOL0     H 1583   7.782   8.428   2.624 -1.3955  1.1303 -0.7489
   12MOL0     H 1584   8.231   8.479   2.618 -1.2179  0.6884  0.0081
   12MOL0     H 1585   8.190   8.321   2.693  1.2996  3.3081  1.3064
   12MOL0     H 1586   8.160   8.231   2.461  0.8922 -1.4958  0.2655
   12MOL0     H 1587   8.240   8.378   2.400  0.8068  0.2830  0.8965
   12MOL0     H 1588   8.435   8.320   2.566  0.5139 -1.3780  0.0384
   12MOL0     H 1589   8.359   8.153   2.585  0.3596 -1.2526  0.6657
   12MOL0     H 1590   8.489   8.296   2.349  2.4003 -0.4127  0.1980
   12MOL0     H 1591   8.380   8.163   2.304  3.5508 -5.6166 -1.0644
   12MOL0     H 1592   8.507   8.010   2.440  1.3950 -1.1147 -0.8729
   12MOL0     H 1593   8.626   8.124   2.473 -0.8538  0.7008 -0.1566
   12MOL0     H 1594   8.532   8.032   2.211  2.1391 -1.6735 -3.1890
   12MOL0     H 1595   8.651   8.169   2.230 -1.6885 -0.3383 -1.8001
   12MOL0     H 1596   8.665   7.871   2.218  1.2921  1.2882 -2.8932
   12MOL0     H 1597   8.748   7.938   2.358  1.8120 -0.2955 -0.4067
   12MOL0     H 1598   8.792   7.981   2.056 -1.6293  4.0748  1.5327
   12MOL0     H 1599   8.888   8.073   2.173 -0.1713 -0.0657  1.4008
   12MOL0     H 1600   8.137   8.555   2.818 -0.4304 -1.4942  0.5806
   12MOL0     H 1601   8.021   8.671   2.989  0.7055  2.0204 -2.1183
   12MOL0     H 1602   7.397   8.797   3.123 -1.7334 -1.6260  0.9486
   12MOL0     H 1603   7.318   8.837   3.338  0.1504  0.2326  1.8145
   12MOL0     H 1604   6.072   8.292   4.003  0.5395  0.8884  2.6046
   12MOL0     H 1605   5.905   8.101   3.940 -2.8649 -0.1736 -0.5739
   12MOL0     H 1606   5.474   7.973   4.101  1.4329 -0.0245  1.5520
   12MOL0     H 1607   5.270   7.881   4.153 -0.7610 -0.9966 -0.6999
   12MOL0     H 1608   5.053   7.722   4.183 -1.1292 -0.4863  1.1094
   12MOL0     H 1609   5.128   7.791   4.324 -3.1511 -0.6266  2.9804
   12MOL0     H 1610   5.113   7.571   4.440  1.1044 -0.9927 -0.7207
   12MOL0     H 1611   4.998   7.521   4.306  1.4044 -0.6327 -0.4593
   12MOL0     H 1612   4.875   7.741   4.363 -1.6583  1.3728  2.3258
   12MOL0     H 1613   4.980   7.745   4.505  2.2515 -1.5764  0.0411
   12MOL0     H 1614   4.886   7.534   4.597 -0.7803  0.6657 -0.2189
   12MOL0     H 1615   4.762   7.653   4.555 -2.0201 -0.8911 -2.0500
   12MOL0     H 1616   4.633   7.330   4.317 -2.2627  0.5402  2.8730
   12MOL0     H 1617   5.464   7.533   4.314 -1.7453 -1.3401 -1.4740
   12MOL0     H 1618   5.760   7.643   4.373 -3.4664  0.7108  2.5611
   12MOL0     H 1619   5.674   7.502   4.303 -0.5047  0.1134 -1.9520
   12MOL0     H 1620   5.788   7.605   4.210 -1.2648  3.1936 -1.9280
   13MOL0     O 1621   5.661  10.249   2.257 -0.4051  0.6684  0.1167
   13MOL0     C 1622   5.667  10.155   2.345  0.2958 -0.0741 -0.2325
   13MOL0     O 1623   5.765  10.155   2.446 -0.0634  0.6050  0.3857
   13MOL0     C 1624   5.874  10.233   2.429  1.0002  0.0678  0.0605
   13MOL0     C 1625   5.900  10.338   2.520  0.0398  0.1155  0.9701
   13MOL0     C 1626   6.016  10.415   2.503  0.6103 -0.5977  0.2080
   13MOL0     C 1627   6.104  10.401   2.399  0.3681  0.5209  0.5168
   13MOL0     O 1628   6.205  10.483   2.385 -0.7098 -0.2385  0.2455
   13MOL0     C 1629   6.216  10.551   2.264 -0.4454  0.2251 -0.1638
   13MOL0     C 1630   6.330  10.648   2.267 -0.5578 -0.2297  0.2110
   13MOL0     C 1631   6.306  10.765   2.374  0.7668  0.2375 -0.1757
   13MOL0     C 1632   6.210  10.872   2.324  0.3030  0.2060  0.5178
   13MOL0     C 1633   6.204  10.987   2.421 -0.0020 -0.4541  1.0416
   13MOL0     C 1634   6.341  11.070   2.416  0.6563  0.9195 -0.0346
   13MOL0     C 1635   6.332  11.159   2.539 -0.4022 -0.5605  0.6746
   13MOL0     C 1636   6.429  11.279   2.544  0.0329  1.3340  0.2030
   13MOL0     N 1637   6.571  11.255   2.581 -0.4967 -0.0793  0.2177
   13MOL0     C 1638   6.623  11.231   2.704 -0.3309  0.3763  0.1750
   13MOL0     C 1639   6.753  11.211   2.679 -0.2734  1.1364 -0.2799
   13MOL0     C 1640   6.856  11.155   2.779 -0.6823  0.2663 -0.2162
   13MOL0     C 1641   6.845  11.202   2.921 -0.6848 -0.1083  0.5662
   13MOL0     C 1642   6.842  11.354   2.942  0.0917  0.5302 -0.0908
   13MOL0     C 1643   6.859  11.380   3.092 -0.5036 -0.3632  0.0331
   13MOL0     O 1644   6.991  11.332   3.140 -0.3280 -0.0548  0.3599
   13MOL0     C 1645   6.995  11.302   3.271 -0.2749  0.3271 -0.1694
   13MOL0     C 1646   7.121  11.257   3.314  0.1043 -0.1243 -0.3837
   13MOL0     C 1647   7.133  11.215   3.452  0.0901  0.2387 -0.0797
   13MOL0     C 1648   7.028  11.217   3.544 -0.4017 -0.0281 -0.2533
   13MOL0     C 1649   7.042  11.155   3.674  0.1642 -0.6220  0.5255
   13MOL0     O 1650   7.157  11.086   3.694 -0.4168  0.0204  0.3187
   13MOL0     C 1651   7.160  10.994   3.798  0.0790  0.2044  0.3331
   13MOL0     C 1652   7.076  10.884   3.794  0.4348  0.4243 -0.7524
   13MOL0     C 1653   7.094  10.770   3.871 -0.0235  0.6177 -0.8551
   13MOL0     C 1654   7.202  10.765   3.962  0.4288 -0.0810  0.2165
   13MOL0     O 1655   7.224  10.644   4.030  0.2429 -0.6864 -0.7726
   13MOL0     C 1656   7.264  10.661   4.168  0.0627  0.0394 -0.1411
   13MOL0     C 1657   7.396  10.574   4.188  1.5853 -1.3027  0.1763
   13MOL0     C 1658   7.524  10.655   4.175 -0.0079 -0.8481 -0.4513
   13MOL0     C 1659   7.648  10.573   4.222  0.5578  0.4268 -0.1857
   13MOL0     C 1660   7.764  10.675   4.247 -0.4857 -0.0282 -0.6043
   13MOL0     C 1661   7.885  10.593   4.292  1.1947 -0.7955  0.9972
   13MOL0     C 1662   7.979  10.674   4.371 -0.3174  0.8961  0.5940
   13MOL0     C 1663   8.068  10.755   4.276  0.1771  0.2314 -0.4764
   13MOL0    Cl 1664   8.174  10.864   4.378 -0.1213  0.3037  0.3507
   13MOL0     C 1665   7.286  10.877   3.972 -0.0808  0.1476  0.4087
   13MOL0     C 1666   7.268  10.988   3.887  0.5935  0.0642  0.4504
   13MOL0     O 1667   6.949  11.157   3.750  0.2612 -0.5187  0.7714
   13MOL0     C 1668   6.899  11.260   3.499  0.2925 -0.5198  0.1403
   13MOL0     C 1669   6.887  11.307   3.364 -0.4102 -0.0613 -0.6648
   13MOL0     N 1670   6.788  11.235   2.552 -0.0901 -0.1161  0.2417
   13MOL0     N 1671   6.677  11.268   2.491  0.0194 -0.0990  0.0102
   13MOL0     C 1672   6.074  10.300   2.305  0.5550  0.4298  0.3223
   13MOL0     C 1673   5.963  10.218   2.323  0.6245 -0.4249  0.3414
   13MOL0     C 1674   5.568  10.037   2.348  0.3501  0.2055 -0.4097
   13MOL0     C 1675   5.570   9.944   2.459 -0.2498 -0.3840 -0.4721
   13MOL0     C 1676   5.488   9.834   2.455 -0.1279  0.1319  0.4935
   13MOL0     C 1677   5.376   9.821   2.369 -0.5144  0.3289 -0.1120
   13MOL0     O 1678   5.266   9.731   2.379  0.2018 -0.2894 -0.7360
   13MOL0     C 1679   5.269   9.632   2.482 -0.1251 -0.4148  0.4902
   13MOL0     C 1680   5.152   9.543   2.467 -0.5860 -0.4532  0.0984
   13MOL0     C 1681   5.112   9.478   2.599 -0.5047  1.0561 -0.0659
   13MOL0     C 1682   5.043   9.343   2.562 -1.7161 -0.1225  0.6742
   13MOL0     C 1683   4.904   9.374   2.528  0.0994  1.0922 -0.1236
   13MOL0     C 1684   4.797   9.407   2.487 -0.0804 -0.9240  0.2648
   13MOL0     C 1685   5.364   9.917   2.266  0.6189  1.0285 -0.6600
   13MOL0     C 1686   5.456  10.020   2.259  0.6257 -0.8297  0.2060
   13MOL0     C 1687   5.425  10.112   2.140  0.0063  0.1006 -0.2638
   13MOL0     H 1688   5.818  10.382   2.575 -0.8970 -1.0468  0.5420
   13MOL0     H 1689   6.016  10.500   2.571 -1.0299 -1.2207  1.0468
   13MOL0     H 1690   6.237  10.482   2.181  2.9357 -0.0632  0.8036
   13MOL0     H 1691   6.128  10.610   2.235 -1.2731  0.1891  2.1023
   13MOL0     H 1692   6.339  10.695   2.169  1.3140  2.3441  1.4826
   13MOL0     H 1693   6.423  10.598   2.297  0.7289  1.0325 -1.4386
   13MOL0     H 1694   6.400  10.813   2.400  0.1076  1.9518 -0.8487
   13MOL0     H 1695   6.270  10.723   2.468  1.3140 -4.7600 -1.9014
   13MOL0     H 1696   6.248  10.921   2.233  0.2559  1.3087  1.0699
   13MOL0     H 1697   6.116  10.821   2.306  0.8429 -0.8812  0.7292
   13MOL0     H 1698   6.127  11.054   2.383 -0.3364  0.2118  2.8426
   13MOL0     H 1699   6.178  10.945   2.518  0.0657 -2.4146  0.2769
   13MOL0     H 1700   6.431  11.010   2.432  0.6889  0.9472 -0.1137
   13MOL0     H 1701   6.351  11.133   2.327 -0.6505  3.5216  1.5329
   13MOL0     H 1702   6.355  11.099   2.627  2.6518 -0.1000  0.3132
   13MOL0     H 1703   6.233  11.205   2.546 -0.8487 -0.6741 -2.9018
   13MOL0     H 1704   6.444  11.315   2.441 -3.0889  0.4186 -0.6683
   13MOL0     H 1705   6.396  11.364   2.604  1.9767  0.0631  3.3251
   13MOL0     H 1706   6.565  11.233   2.795  0.4285 -0.6522  0.6900
   13MOL0     H 1707   6.841  11.047   2.775  1.1603 -0.0357  0.4139
   13MOL0     H 1708   6.955  11.177   2.739 -0.4417 -2.2567 -1.2020
   13MOL0     H 1709   6.756  11.166   2.974 -0.0931 -0.9260  1.0225
   13MOL0     H 1710   6.925  11.155   2.979  0.4486 -1.4385 -1.9246
   13MOL0     H 1711   6.744  11.394   2.915 -0.0797  0.7471  0.8145
   13MOL0     H 1712   6.920  11.404   2.884 -0.3304 -0.0908 -1.2362
   13MOL0     H 1713   6.777  11.321   3.135 -0.0405 -0.2631  1.0939
   13MOL0     H 1714   6.851  11.487   3.110 -0.3211 -0.0913 -1.4337
   13MOL0     H 1715   7.195  11.253   3.234  0.6021  0.5420  0.0387
   13MOL0     H 1716   7.223  11.158   3.476 -0.6190 -0.8479  0.0345
   13MOL0     H 1717   6.983  10.904   3.742 -0.0311 -0.6485 -0.3560
   13MOL0     H 1718   7.013  10.699   3.866  1.1064 -0.6706 -1.4838
   13MOL0     H 1719   7.295  10.764   4.189  0.8710  0.6145 -3.5748
   13MOL0     H 1720   7.179  10.636   4.231  1.6747  0.8436  2.5349
   13MOL0     H 1721   7.382  10.527   4.286 -0.9233  2.7128  1.9931
   13MOL0     H 1722   7.393  10.489   4.120 -1.2039 -3.1808  2.3876
   13MOL0     H 1723   7.532  10.680   4.069 -0.8895  1.1150 -0.0835
   13MOL0     H 1724   7.517  10.750   4.229 -0.7089 -0.4867 -1.1588
   13MOL0     H 1725   7.677  10.494   4.152 -2.0475 -1.3946  0.6358
   13MOL0     H 1726   7.629  10.520   4.315  2.1321  0.0014 -0.0828
   13MOL0     H 1727   7.732  10.747   4.323 -1.2327 -0.4748 -0.4813
   13MOL0     H 1728   7.791  10.727   4.154  2.2006  0.5137  0.3989
   13MOL0     H 1729   7.841  10.515   4.356 -0.1586 -0.8169  0.0833
   13MOL0     H 1730   7.942  10.542   4.213  2.3769  1.8333  0.0161
   13MOL0     H 1731   8.038  10.605   4.432 -3.7131 -2.0098  0.9089
   13MOL0     H 1732   7.926  10.749   4.430  0.7420  0.1754  2.5381
   13MOL0     H 1733   8.130  10.686   4.218 -1.5966 -0.0343 -2.1682
   13MOL0     H 1734   8.000  10.818   4.218 -0.1847  0.5431  0.2770
   13MOL0     H 1735   7.378  10.875   4.030  1.2919 -2.6743 -1.6310
   13MOL0     H 1736   7.343  11.066   3.874  0.2312 -0.0597 -4.4804
   13MOL0     H 1737   6.812  11.255   3.564  0.7885  0.6040  0.9223
   13MOL0     H 1738   6.784  11.329   3.338 -0.6316 -0.4759 -0.1432
   13MOL0     H 1739   6.135  10.290   2.216 -1.6123 -3.2329 -0.9808
   13MOL0     H 1740   5.945  10.138   2.251 -0.8282 -0.4652  0.7190
   13MOL0     H 1741   5.648   9.944   2.535 -0.6191 -0.4625 -0.0913
   13MOL0     H 1742   5.496   9.767   2.540  2.5587 -1.9785 -1.2680
   13MOL0     H 1743   5.278   9.671   2.584  1.0165  0.3919  0.1022
   13MOL0     H 1744   5.356   9.569   2.465  0.9306  1.0724  0.2319
   13MOL0     H 1745   5.164   9.474   2.383 -1.8626  1.2018 -1.5209
   13MOL0     H 1746   5.073   9.612   2.434 -1.6814  0.5216  4.2384
   13MOL0     H 1747   5.044   9.544   2.654 -0.1851  0.8607  0.5671
   13MOL0     H 1748   5.200   9.463   2.662 -0.5345 -3.4332 -0.7873
   13MOL0     H 1749   5.090   9.299   2.473 -0.5168  0.5722  0.9427
   13MOL0     H 1750   5.044   9.276   2.648  1.3248 -1.2520 -0.1295
   13MOL0     H 1751   4.701   9.429   2.444 -0.5018 -0.6241  1.3316
   13MOL0     H 1752   5.283   9.920   2.193  0.5613  1.0461 -0.5947
   13MOL0     H 1753   5.380  10.204   2.178  0.7897  0.1452  0.5842
   13MOL0     H 1754   5.518  10.131   2.086  0.1004  2.6825  0.6794
   13MOL0     H 1755   5.359  10.056   2.073 -1.0831 -0.6015  1.3433
   14MOL0     O 1756   7.056   5.412   1.799  0.3862 -0.1981  0.8085
   14MOL0     C 1757   7.072   5.529   1.783 -0.0255 -0.4555 -0.2791
   14MOL0     O 1758   6.980   5.626   1.831 -0.4224 -0.2448 -0.6906
   14MOL0     C 1759   6.847   5.606   1.855  0.8626  1.0542 -0.5288
   14MOL0     C 1760   6.771   5.507   1.790  0.4726  1.0332 -0.2222
   14MOL0     C 1761   6.643   5.484   1.827  0.0571 -0.0081 -0.0775
   14MOL0     C 1762   6.585   5.559   1.928 -0.1220  1.6890  0.4130
   14MOL0     O 1763   6.471   5.510   1.994 -0.1436 -0.0021 -0.2652
   14MOL0     C 1764   6.343   5.565   1.969 -0.0713 -0.6042 -0.4522
   14MOL0     C 1765   6.271   5.571   2.102 -0.1283 -0.3519 -0.3776
   14MOL0     C 1766   6.315   5.682   2.190  0.1626 -0.2457  0.8524
   14MOL0     C 1767   6.282   5.671   2.336 -0.4002  0.3181  0.7743
   14MOL0     C 1768   6.361   5.570   2.413 -0.8860  0.4642  0.8021
   14MOL0     C 1769   6.335   5.566   2.564  0.2015  0.3976  0.6936
   14MOL0     C 1770   6.185   5.534   2.581 -0.3880 -0.3534 -0.8409
   14MOL0     C 1771   6.173   5.481   2.718 -0.9596  0.4263 -0.7821
   14MOL0     N 1772   6.036   5.421   2.723  0.6111 -0.1203 -0.4873
   14MOL0     C 1773   5.934   5.480   2.788  0.0434  0.0284  0.2257
   14MOL0     C 1774   5.829   5.399   2.775  0.0238 -0.1140  0.1887
   14MOL0     C 1775   5.693   5.437   2.812 -0.0255 -0.0806 -0.2312
   14MOL0     C 1776   5.590   5.459   2.694  0.2722  0.2928  0.6313
   14MOL0     C 1777   5.639   5.558   2.588  0.5002 -0.0078  0.0066
   14MOL0     C 1778   5.534   5.570   2.471  0.3114  0.2946  0.5895
   14MOL0     O 1779   5.429   5.648   2.512  0.3557 -0.8298 -0.2272
   14MOL0     C 1780   5.307   5.615   2.469  0.6652 -0.2818  0.3230
   14MOL0     C 1781   5.294   5.565   2.338  0.5140 -0.4806 -0.0344
   14MOL0     C 1782   5.172   5.526   2.290 -0.0242 -0.2292 -0.6434
   14MOL0     C 1783   5.062   5.547   2.367 -0.1912  0.2848  0.0085
   14MOL0     C 1784   4.927   5.514   2.314 -0.1218  0.5257 -0.5450
   14MOL0     O 1785   4.814   5.565   2.369 -0.4938  0.6898  0.2328
   14MOL0     C 1786   4.694   5.512   2.331  0.0816  0.0430 -0.5063
   14MOL0     C 1787   4.592   5.610   2.343  0.0766  0.6807 -0.8188
   14MOL0     C 1788   4.461   5.582   2.301 -0.2300  1.0149 -0.0012
   14MOL0     C 1789   4.429   5.447   2.267 -0.3886  1.0613 -0.5738
   14MOL0     O 1790   4.306   5.433   2.223  0.8878  1.2879 -0.4201
   14MOL0     C 1791   4.247   5.308   2.254 -0.2113  0.2404  0.4174
   14MOL0     C 1792   4.094   5.303   2.252 -0.1439 -0.0264 -0.9890
   14MOL0     C 1793   4.024   5.380   2.144 -0.8185  0.3446  0.1799
   14MOL0     C 1794   3.872   5.351   2.147  0.3254  0.2057  0.5280
   14MOL0     C 1795   3.800   5.440   2.044 -1.2904 -0.3252  0.3272
   14MOL0     C 1796   3.663   5.395   2.021 -0.0637  0.3188  0.0034
   14MOL0     C 1797   3.593   5.470   1.905 -0.3441  0.4871  0.1273
   14MOL0     C 1798   3.441   5.438   1.902 -0.0233  0.6596  0.6603
   14MOL0    Cl 1799   3.362   5.527   1.761  0.5320 -0.0237  0.1685
   14MOL0     C 1800   4.530   5.352   2.278  0.0845 -0.4678  0.1786
   14MOL0     C 1801   4.661   5.379   2.312  0.4395  0.3525 -0.7195
   14MOL0     O 1802   4.924   5.425   2.233 -0.3370 -0.2394 -0.2992
   14MOL0     C 1803   5.072   5.598   2.497  0.4712  0.3515  0.6028
   14MOL0     C 1804   5.192   5.634   2.546 -1.6280 -0.0691  0.1229
   14MOL0     N 1805   5.874   5.286   2.709  0.1780 -0.7639 -0.0057
   14MOL0     N 1806   6.000   5.297   2.688 -0.6761  0.5208 -0.4368
   14MOL0     C 1807   6.652   5.662   1.983  1.0661  0.2584  0.6446
   14MOL0     C 1808   6.777   5.685   1.944 -0.1214 -0.2384  0.7717
   14MOL0     C 1809   7.195   5.572   1.709  0.6947 -0.4773  0.7033
   14MOL0     C 1810   7.251   5.495   1.608 -0.0959  0.6610  0.7988
   14MOL0     C 1811   7.352   5.526   1.520 -0.2058 -0.8065  0.2888
   14MOL0     C 1812   7.421   5.647   1.553 -0.0446  0.1615  0.3791
   14MOL0     O 1813   7.547   5.677   1.503  0.0320 -0.1647  0.0467
   14MOL0     C 1814   7.619   5.571   1.441  1.2595  0.7420  0.1586
   14MOL0     C 1815   7.761   5.617   1.420  0.6751  0.1153  0.3266
   14MOL0     C 1816   7.863   5.493   1.419  0.0979  0.3342 -0.3298
   14MOL0     C 1817   8.018   5.549   1.421 -0.1648 -0.0717  0.1318
   14MOL0     C 1818   8.036   5.649   1.308  0.1229  0.0193  0.3585
   14MOL0     C 1819   8.029   5.732   1.218 -0.4516 -0.3797  0.1255
   14MOL0     C 1820   7.367   5.736   1.643  0.0769  1.5946  0.0505
   14MOL0     C 1821   7.252   5.701   1.720  0.5260 -0.2547 -1.0205
   14MOL0     C 1822   7.230   5.780   1.847  0.2349  0.0573 -0.4998
   14MOL0     H 1823   6.817   5.441   1.717  0.7904 -0.1697  1.0259
   14MOL0     H 1824   6.579   5.412   1.777 -2.6630  2.8805 -1.1125
   14MOL0     H 1825   6.347   5.662   1.920  2.9330  0.5838  1.7913
   14MOL0     H 1826   6.281   5.507   1.900  2.2053 -0.8082 -2.4790
   14MOL0     H 1827   6.300   5.475   2.147  0.0801 -0.5461 -0.9118
   14MOL0     H 1828   6.163   5.576   2.088 -0.1001 -1.1890 -0.9753
   14MOL0     H 1829   6.272   5.767   2.137  0.9879 -1.2617 -1.6101
   14MOL0     H 1830   6.423   5.695   2.180  0.0905 -1.2530 -1.9803
   14MOL0     H 1831   6.309   5.770   2.373  1.1972  0.8107 -1.4689
   14MOL0     H 1832   6.173   5.671   2.349 -0.1350  1.0931  3.3219
   14MOL0     H 1833   6.364   5.472   2.366 -0.6073  1.4594 -1.4030
   14MOL0     H 1834   6.465   5.603   2.400 -0.9296 -0.0036 -0.9964
   14MOL0     H 1835   6.390   5.476   2.590 -0.7804 -0.5734 -0.4447
   14MOL0     H 1836   6.383   5.648   2.619  1.8340  2.1206 -2.9610
   14MOL0     H 1837   6.153   5.456   2.511  2.0366 -2.0892 -0.1549
   14MOL0     H 1838   6.124   5.621   2.558 -1.4975 -0.8818  0.0053
   14MOL0     H 1839   6.254   5.412   2.742 -1.2536 -0.8454 -3.2061
   14MOL0     H 1840   6.183   5.565   2.788  0.7510 -0.7281  0.4393
   14MOL0     H 1841   5.945   5.575   2.839  2.5789  0.1056 -0.3524
   14MOL0     H 1842   5.649   5.356   2.871 -1.2743  1.3512  0.8746
   14MOL0     H 1843   5.708   5.527   2.872 -0.6496  0.2681 -0.5936
   14MOL0     H 1844   5.576   5.358   2.654  2.4547 -1.2957  3.4613
   14MOL0     H 1845   5.489   5.481   2.730 -0.9863  1.0221 -2.9741
   14MOL0     H 1846   5.727   5.516   2.538  0.4710 -0.0091 -0.0434
   14MOL0     H 1847   5.650   5.656   2.635 -1.8490 -0.1304  0.9504
   14MOL0     H 1848   5.505   5.471   2.434 -3.6983  1.0583  1.2023
   14MOL0     H 1849   5.580   5.632   2.394  1.6301  0.1356  1.2059
   14MOL0     H 1850   5.380   5.547   2.274  1.1979 -2.3349  1.3120
   14MOL0     H 1851   5.158   5.490   2.189 -0.2291 -0.0464 -0.6800
   14MOL0     H 1852   4.623   5.707   2.381  0.8416  0.1581 -0.0733
   14MOL0     H 1853   4.380   5.653   2.294 -1.3960 -0.4194 -2.1810
   14MOL0     H 1854   4.284   5.237   2.179 -0.1145 -0.4882  1.1376
   14MOL0     H 1855   4.277   5.278   2.355 -0.1846  2.1216  1.0072
   14MOL0     H 1856   4.061   5.199   2.245 -0.1055  0.0334 -2.5992
   14MOL0     H 1857   4.065   5.357   2.342 -1.7313  0.7838 -1.9366
   14MOL0     H 1858   4.038   5.484   2.173  0.1875 -0.1173  1.4348
   14MOL0     H 1859   4.075   5.360   2.050 -1.0317  0.1890  0.0953
   14MOL0     H 1860   3.820   5.357   2.243 -1.9831  1.9344 -0.7058
   14MOL0     H 1861   3.849   5.250   2.113  1.2429 -1.0563  3.4065
   14MOL0     H 1862   3.859   5.433   1.952 -0.7474 -3.7002  0.7689
   14MOL0     H 1863   3.806   5.541   2.086  1.4473 -0.1387 -0.3445
   14MOL0     H 1864   3.658   5.286   2.010  1.0409  0.2800 -0.2324
   14MOL0     H 1865   3.609   5.411   2.114 -0.2863 -2.0093  0.3361
   14MOL0     H 1866   3.635   5.444   1.807 -1.9802  0.6551 -0.6665
   14MOL0     H 1867   3.603   5.578   1.916  1.5838  0.3846 -0.2413
   14MOL0     H 1868   3.423   5.332   1.884 -2.9530  0.9975  1.0684
   14MOL0     H 1869   3.377   5.462   1.987 -1.1466  0.4893 -0.1145
   14MOL0     H 1870   4.500   5.249   2.268 -3.3782  0.2811  1.4249
   14MOL0     H 1871   4.738   5.304   2.328  0.2254  0.8305  3.5844
   14MOL0     H 1872   4.984   5.606   2.559  0.9734 -0.8893  1.5170
   14MOL0     H 1873   5.193   5.691   2.638  0.7431  0.0886  0.0627
   14MOL0     H 1874   6.624   5.728   2.064  0.7273  3.5211 -1.9239
   14MOL0     H 1875   6.830   5.771   1.984 -1.0851 -0.1741  1.9501
   14MOL0     H 1876   7.200   5.402   1.589  0.9440 -0.2358  2.1598
   14MOL0     H 1877   7.384   5.454   1.446 -1.8811 -0.9283 -0.3647
   14MOL0     H 1878   7.580   5.534   1.346  2.4181 -3.1537  1.0334
   14MOL0     H 1879   7.625   5.482   1.504  3.2977 -1.4252 -2.7866
   14MOL0     H 1880   7.787   5.685   1.502  3.9650 -1.1317  0.4845
   14MOL0     H 1881   7.774   5.676   1.328  1.4405 -0.7688 -0.1465
   14MOL0     H 1882   7.853   5.421   1.337 -0.0156 -2.6485  2.1304
   14MOL0     H 1883   7.845   5.430   1.507 -1.8596  0.8503 -0.3189
   14MOL0     H 1884   8.034   5.597   1.518 -2.3709 -0.9281  0.9911
   14MOL0     H 1885   8.089   5.466   1.411 -0.9912 -0.5413 -2.7540
   14MOL0     H 1886   8.037   5.806   1.141 -0.9468  0.0357  0.4711
   14MOL0     H 1887   7.425   5.822   1.676 -0.2869  1.8337  0.0777
   14MOL0     H 1888   7.222   5.712   1.933  1.1960  0.9743  0.3427
   14MOL0     H 1889   7.304   5.858   1.863  1.4652 -0.9507 -1.0331
   14MOL0     H 1890   7.128   5.816   1.838 -1.7092 -4.6860 -0.4525
   15MOL0     O 1891   3.663  11.093   6.721  0.3407  0.0960  0.0600
   15MOL0     C 1892   3.561  11.042   6.672 -0.4673 -0.3401  0.6954
   15MOL0     O 1893   3.445  11.030   6.734  0.5238 -0.3254  0.2530
   15MOL0     C 1894   3.446  11.075   6.858  0.6552 -0.4183  0.2906
   15MOL0     C 1895   3.408  11.202   6.884  1.6857 -0.1836 -0.0044
   15MOL0     C 1896   3.376  11.242   7.011  0.7149  0.2610  0.0006
   15MOL0     C 1897   3.403  11.156   7.118  0.9896  1.2602 -0.3818
   15MOL0     O 1898   3.368  11.212   7.239  0.0230  0.1123  0.7216
   15MOL0     C 1899   3.403  11.143   7.358  0.4194  0.4323 -0.0292
   15MOL0     C 1900   3.551  11.146   7.392 -0.2157  0.0657 -0.4679
   15MOL0     C 1901   3.589  11.057   7.508 -0.2819  0.8935  0.7849
   15MOL0     C 1902   3.608  11.129   7.639 -0.0487 -0.0298 -0.2159
   15MOL0     C 1903   3.683  11.048   7.745 -0.3822 -0.1969 -0.2324
   15MOL0     C 1904   3.842  11.062   7.724  0.9768  0.0312 -0.4270
   15MOL0     C 1905   3.938  10.968   7.807 -0.6746  0.3406 -0.1742
   15MOL0     C 1906   3.902  10.820   7.799 -0.3675 -0.7264  0.6735
   15MOL0     N 1907   3.992  10.753   7.884  1.1048  0.4887  0.2329
   15MOL0     C 1908   4.006  10.768   8.018  0.6020 -0.6316 -1.8189
   15MOL0     C 1909   4.117  10.699   8.046  0.3884 -0.5318  0.5415
   15MOL0     C 1910   4.197  10.689   8.168 -0.0170 -0.1563  0.2800
   15MOL0     C 1911   4.348  10.726   8.153  0.1338 -0.2314 -0.2933
   15MOL0     C 1912   4.357  10.876   8.112  0.0065 -0.3551 -0.1764
   15MOL0     C 1913   4.504  10.939   8.105 -0.1766  0.7355  0.3600
   15MOL0     O 1914   4.552  10.941   7.960  0.4713  0.5210 -0.4946
   15MOL0     C 1915   4.676  10.995   7.930  0.0837  0.6447 -0.2530
   15MOL0     C 1916   4.783  11.000   8.031 -0.0699  0.2539  0.6508
   15MOL0     C 1917   4.909  11.047   7.998  0.0757 -0.2062  0.6169
   15MOL0     C 1918   4.936  11.096   7.870  0.0620 -0.1321 -0.7437
   15MOL0     C 1919   5.075  11.152   7.846  0.6139  0.1133  0.7200
   15MOL0     O 1920   5.093  11.208   7.719  0.3915 -0.5148 -0.3843
   15MOL0     C 1921   5.211  11.278   7.689 -0.0523  0.3131 -0.9052
   15MOL0     C 1922   5.212  11.413   7.666 -0.4734 -0.2929 -0.1272
   15MOL0     C 1923   5.334  11.469   7.614  0.3909  0.4933  0.2376
   15MOL0     C 1924   5.450  11.393   7.594 -0.7698 -0.5880 -0.6031
   15MOL0     O 1925   5.562  11.454   7.541  0.4942 -0.0290  0.1408
   15MOL0     C 1926   5.554  11.467   7.400 -0.6837 -0.6184  0.1331
   15MOL0     C 1927   5.696  11.452   7.347  0.3293 -0.1645  0.2259
   15MOL0     C 1928   5.784  11.573   7.383  0.3790 -0.0380  0.4337
   15MOL0     C 1929   5.919  11.579   7.307 -0.3320 -0.2405  0.3259
   15MOL0     C 1930   6.035  11.500   7.374  0.1286  0.3844  0.3331
   15MOL0     C 1931   6.180  11.512   7.307  0.2653 -0.4104  0.3283
   15MOL0     C 1932   6.278  11.426   7.385  0.1266 -0.2376  0.2844
   15MOL0     C 1933   6.418  11.411   7.319 -0.4474  0.2406 -0.2172
   15MOL0    Cl 1934   6.405  11.418   7.146  0.1774  0.8974 -0.5059
   15MOL0     C 1935   5.449  11.263   7.628  0.3767  0.2770 -0.2387
   15MOL0     C 1936   5.333  11.206   7.680 -0.0780  0.2892 -0.3976
   15MOL0     O 1937   5.167  11.151   7.936  0.6880 -0.2543  0.8312
   15MOL0     C 1938   4.832  11.088   7.776 -0.8526  0.1478  0.9142
   15MOL0     C 1939   4.707  11.036   7.806 -0.1833 -0.2496 -0.3671
   15MOL0     N 1940   4.153  10.629   7.932 -0.1559  0.5033 -0.1913
   15MOL0     N 1941   4.085  10.669   7.832  0.1351  0.0863  0.0884
   15MOL0     C 1942   3.451  11.021   7.093 -0.0105 -0.0994 -0.3933
   15MOL0     C 1943   3.465  10.985   6.963  0.5906 -0.5500 -0.1027
   15MOL0     C 1944   3.567  10.964   6.544  0.5479  0.1657  0.4756
   15MOL0     C 1945   3.644  11.024   6.432  0.7084 -0.1354 -0.4553
   15MOL0     C 1946   3.664  10.949   6.318  0.4366 -0.3299  0.8675
   15MOL0     C 1947   3.596  10.828   6.302 -0.5059 -0.3134  0.6604
   15MOL0     O 1948   3.591  10.750   6.188  0.2814 -0.2579  0.6821
   15MOL0     C 1949   3.653  10.798   6.067 -0.2706 -0.3429 -0.1407
   15MOL0     C 1950   3.583  10.920   6.006  0.4196 -0.3961 -0.3511
   15MOL0     C 1951   3.624  10.933   5.856  0.3797 -0.3530 -0.1936
   15MOL0     C 1952   3.752  11.015   5.834  0.7499 -0.7125 -0.2560
   15MOL0     C 1953   3.869  10.938   5.877  0.6051 -0.0221 -0.0087
   15MOL0     C 1954   3.950  10.870   5.926 -0.0976 -0.1874 -0.7062
   15MOL0     C 1955   3.522  10.778   6.406 -0.4615 -0.1818 -0.0485
   15MOL0     C 1956   3.513  10.838   6.529  0.1830  0.0457 -0.0908
   15MOL0     C 1957   3.441  10.760   6.626 -0.5635 -0.2157 -0.6453
   15MOL0     H 1958   3.390  11.255   6.791 -1.3634 -2.4741 -0.8744
   15MOL0     H 1959   3.320  11.334   7.019  2.9485  1.5138  3.5770
   15MOL0     H 1960   3.347  11.186   7.441 -2.1679 -1.1126 -0.8526
   15MOL0     H 1961   3.369  11.039   7.359  0.1899  0.5032 -0.2529
   15MOL0     H 1962   3.582  11.248   7.416  0.1101 -0.3344  0.9120
   15MOL0     H 1963   3.620  11.113   7.313 -0.0657 -1.0318  0.1006
   15MOL0     H 1964   3.686  11.011   7.487 -0.1600 -1.2457  5.0315
   15MOL0     H 1965   3.538  10.962   7.526  0.9639 -0.2290 -1.1828
   15MOL0     H 1966   3.662  11.222   7.620  1.6270 -0.9901 -0.3122
   15MOL0     H 1967   3.504  11.135   7.672 -0.1242  1.5707 -0.6422
   15MOL0     H 1968   3.658  11.093   7.842 -0.6062  3.0500 -1.6704
   15MOL0     H 1969   3.652  10.943   7.749 -0.8592 -0.0969 -0.9879
   15MOL0     H 1970   3.859  11.039   7.618  2.1332  0.9281 -0.4558
   15MOL0     H 1971   3.885  11.157   7.755 -1.0060  0.0906  2.6283
   15MOL0     H 1972   3.926  11.007   7.909 -0.9029 -1.8146  0.6801
   15MOL0     H 1973   4.037  10.986   7.765 -1.6772  1.5739 -2.2226
   15MOL0     H 1974   3.800  10.804   7.834 -0.1333  0.1470  1.7875
   15MOL0     H 1975   3.898  10.786   7.695  0.2740 -1.0908  0.7591
   15MOL0     H 1976   3.955  10.833   8.088  1.3637  0.0227 -1.8605
   15MOL0     H 1977   4.156  10.738   8.257 -0.4758 -3.7048  2.2200
   15MOL0     H 1978   4.200  10.584   8.199 -1.2292  0.0987  1.3448
   15MOL0     H 1979   4.406  10.723   8.246  0.9560  1.3771 -0.7296
   15MOL0     H 1980   4.382  10.651   8.081 -0.2790 -0.2554 -0.4688
   15MOL0     H 1981   4.316  10.930   8.198  0.8488 -1.2462  0.8143
   15MOL0     H 1982   4.308  10.896   8.016  1.0698  1.2811 -0.4091
   15MOL0     H 1983   4.574  10.876   8.161 -1.5761 -3.3745 -2.1064
   15MOL0     H 1984   4.505  11.040   8.149  0.3721  1.4533 -1.2218
   15MOL0     H 1985   4.775  10.980   8.137 -0.3631 -1.1240  0.3900
   15MOL0     H 1986   4.999  11.050   8.059  0.5351  0.8831 -0.0811
   15MOL0     H 1987   5.115  11.460   7.670 -0.7057 -0.8240  0.9562
   15MOL0     H 1988   5.334  11.573   7.584 -0.8980  0.2831 -0.5591
   15MOL0     H 1989   5.494  11.391   7.349  0.4488 -0.4844 -1.4777
   15MOL0     H 1990   5.511  11.563   7.373 -0.2709 -0.2974  0.6032
   15MOL0     H 1991   5.746  11.359   7.376  1.4020  0.0858 -0.7314
   15MOL0     H 1992   5.679  11.451   7.239 -4.2645  2.3240  0.6719
   15MOL0     H 1993   5.727  11.659   7.348  0.9336 -0.3553 -1.3730
   15MOL0     H 1994   5.789  11.573   7.492 -1.5824 -2.0545  0.5954
   15MOL0     H 1995   5.964  11.678   7.298  2.5162 -1.4824 -0.0739
   15MOL0     H 1996   5.890  11.536   7.211 -0.3948 -0.2259  0.3381
   15MOL0     H 1997   6.011  11.396   7.401 -3.1126  0.7038 -0.8512
   15MOL0     H 1998   6.027  11.539   7.475 -2.1334  0.8286  0.0213
   15MOL0     H 1999   6.166  11.465   7.209 -0.5301  0.2631  0.1091
   15MOL0     H 2000   6.218  11.614   7.292  0.8115 -0.7987 -1.0517
   15MOL0     H 2001   6.239  11.324   7.396 -1.5579  0.3197 -0.1497
   15MOL0     H 2002   6.293  11.468   7.485  0.1556  1.5798 -0.4480
   15MOL0     H 2003   6.486  11.492   7.351  1.4334 -1.8960  1.5985
   15MOL0     H 2004   6.463  11.319   7.357  0.4834  0.1666 -1.4373
   15MOL0     H 2005   5.536  11.199   7.620  0.2120 -0.1887  1.3941
   15MOL0     H 2006   5.329  11.099   7.700 -1.2131 -0.2095 -2.9323
   15MOL0     H 2007   4.857  11.111   7.673 -0.7905 -1.1820  0.6122
   15MOL0     H 2008   4.624  11.017   7.739 -0.5872  0.0452  0.0410
   15MOL0     H 2009   3.474  10.951   7.172 -0.0415  1.8082  1.3901
   15MOL0     H 2010   3.501  10.883   6.952  0.4189 -0.5900 -0.2981
   15MOL0     H 2011   3.693  11.119   6.448  0.0020  0.0308  0.9521
   15MOL0     H 2012   3.738  10.987   6.248  0.8862  0.2483  1.6398
   15MOL0     H 2013   3.647  10.715   5.996 -1.5093 -1.7626  1.5239
   15MOL0     H 2014   3.757  10.824   6.090 -0.4267  1.6313 -1.4295
   15MOL0     H 2015   3.613  11.011   6.060 -2.2212 -0.6500  1.7544
   15MOL0     H 2016   3.475  10.905   6.001  0.3643  0.2850 -2.7537
   15MOL0     H 2017   3.534  10.977   5.812  0.5013  2.5782  2.1785
   15MOL0     H 2018   3.628  10.834   5.810 -1.8890 -1.3624  1.5601
   15MOL0     H 2019   3.758  11.038   5.728 -1.9250  1.0320 -0.1126
   15MOL0     H 2020   3.743  11.115   5.878 -2.3160 -1.0433  0.0490
   15MOL0     H 2021   4.033  10.819   5.969 -0.3433  0.3634  0.4494
   15MOL0     H 2022   3.467  10.687   6.387 -3.0128  1.4577 -1.1979
   15MOL0     H 2023   3.402  10.665   6.590 -1.1500 -0.2739  0.1099
   15MOL0     H 2024   3.504  10.742   6.713 -0.8703 -0.2512 -0.4297
   15MOL0     H 2025   3.352  10.810   6.667  1.6157  3.9823 -0.4543
   16MOL0     O 2026  10.889   4.088   5.532  0.1958 -0.2282 -0.1574
   16MOL0     C 2027  10.826   3.988   5.572 -0.0193  0.0385 -0.8416
   16MOL0     O 2028  10.704   3.945   5.525 -0.0840  0.4543  0.0712
   16MOL0     C 2029  10.604   4.041   5.529  0.2259  0.8825  0.0104
   16MOL0     C 2030  10.476   3.977   5.500  0.4178 -0.3098  0.0382
   16MOL0     C 2031  10.361   4.057   5.506  0.1014  0.5513 -0.2744
   16MOL0     C 2032  10.370   4.195   5.532 -0.5877 -0.4270  0.2043
   16MOL0     O 2033  10.257   4.282   5.520  0.3108  0.8424  0.3119
   16MOL0     C 2034  10.169   4.271   5.632  0.4066 -0.0191  0.0660
   16MOL0     C 2035  10.018   4.278   5.589 -0.3646 -0.0465  0.7754
   16MOL0     C 2036   9.930   4.292   5.711 -0.6278 -0.0309  0.3774
   16MOL0     C 2037   9.776   4.294   5.669 -0.2502  0.3786 -0.5574
   16MOL0     C 2038   9.725   4.422   5.592  0.0433 -0.2279  0.0783
   16MOL0     C 2039   9.571   4.418   5.576 -0.4270 -0.5317  0.8865
   16MOL0     C 2040   9.541   4.552   5.501 -0.5067  0.7090 -0.1055
   16MOL0     C 2041   9.388   4.559   5.462  0.5279 -0.1759  0.3384
   16MOL0     N 2042   9.354   4.662   5.354  0.1995 -0.0177 -0.4945
   16MOL0     C 2043   9.374   4.672   5.223 -0.3932  0.2477 -0.3893
   16MOL0     C 2044   9.349   4.792   5.173 -0.2752  0.0648 -0.3196
   16MOL0     C 2045   9.383   4.840   5.036  0.6558  0.0316 -0.8974
   16MOL0     C 2046   9.376   4.741   4.924  0.1715 -0.2428 -0.3131
   16MOL0     C 2047   9.233   4.685   4.914  1.1013 -0.8803  0.6247
   16MOL0     C 2048   9.220   4.606   4.782 -0.5632 -0.6934 -0.4665
   16MOL0     O 2049   9.195   4.465   4.818  0.8165  1.0161 -0.0402
   16MOL0     C 2050   9.162   4.372   4.721  0.4098 -0.1682  0.0274
   16MOL0     C 2051   9.145   4.405   4.587 -0.0860 -0.3938  0.2798
   16MOL0     C 2052   9.098   4.305   4.495  0.4911 -0.2321 -0.7757
   16MOL0     C 2053   9.074   4.176   4.541  0.4584  0.3778 -0.7508
   16MOL0     C 2054   9.017   4.066   4.458  0.8257  0.1780  0.2102
   16MOL0     O 2055   8.994   4.099   4.326 -0.1948  0.6201  0.1877
   16MOL0     C 2056   8.965   3.994   4.239 -0.5833  0.0611 -0.8167
   16MOL0     C 2057   9.068   3.958   4.167 -1.2673 -1.0925  0.0588
   16MOL0     C 2058   9.066   3.851   4.081  0.1160  0.3108  0.1037
   16MOL0     C 2059   8.952   3.773   4.068 -0.0835  0.0884 -0.1521
   16MOL0     O 2060   8.958   3.656   3.997 -0.1543 -0.3125  0.2017
   16MOL0     C 2061   8.841   3.586   3.949 -0.0851 -0.0490 -0.1496
   16MOL0     C 2062   8.791   3.474   4.037  0.5767 -0.6423 -1.3078
   16MOL0     C 2063   8.901   3.371   4.061  1.1575 -0.5862  0.3868
   16MOL0     C 2064   8.959   3.394   4.201 -0.0178 -0.0733  0.3896
   16MOL0     C 2065   9.063   3.292   4.241 -0.6224 -0.4904 -0.4051
   16MOL0     C 2066   9.022   3.157   4.238 -0.5574  0.3151 -0.4828
   16MOL0     C 2067   8.903   3.130   4.330 -0.3635  0.6489 -0.2845
   16MOL0     C 2068   8.933   3.155   4.484  0.8838  0.5016 -0.3760
   16MOL0    Cl 2069   8.818   3.058   4.567  0.2651 -0.4914  0.3935
   16MOL0     C 2070   8.835   3.812   4.145 -0.2607  0.0155 -0.6596
   16MOL0     C 2071   8.842   3.926   4.228  0.3732 -1.0472  0.4619
   16MOL0     O 2072   9.002   3.952   4.498 -1.3123 -0.0950  0.3232
   16MOL0     C 2073   9.107   4.137   4.671  0.1464  0.3069 -0.1537
   16MOL0     C 2074   9.147   4.237   4.760  0.2030 -0.0016  0.6604
   16MOL0     N 2075   9.304   4.868   5.278  0.5792 -0.8074 -0.3625
   16MOL0     N 2076   9.300   4.783   5.390  0.6848  0.1468 -0.5406
   16MOL0     C 2077  10.497   4.256   5.559 -0.4684 -0.4448  0.5224
   16MOL0     C 2078  10.613   4.178   5.557  0.5904 -0.7224  0.3537
   16MOL0     C 2079  10.890   3.901   5.670  1.2412 -0.2469  0.1459
   16MOL0     C 2080  10.845   3.913   5.804 -0.0462 -0.0024  0.9123
   16MOL0     C 2081  10.893   3.829   5.907  0.3294  0.1272  1.2761
   16MOL0     C 2082  10.995   3.735   5.873  0.7515  0.1020  0.9476
   16MOL0     O 2083  11.048   3.652   5.964 -0.6865 -0.1593  0.0009
   16MOL0     C 2084  11.184   3.600   5.945  0.0377  0.2237  0.2796
   16MOL0     C 2085  11.225   3.500   6.057  0.2435  0.3495  0.9018
   16MOL0     C 2086  11.244   3.579   6.183 -0.5921  0.0966 -0.4210
   16MOL0     C 2087  11.292   3.484   6.299 -0.5451  0.0305 -0.2435
   16MOL0     C 2088  11.351   3.552   6.413  0.7495 -0.5323 -0.0784
   16MOL0     C 2089  11.378   3.608   6.515 -0.0610 -1.1810 -0.4205
   16MOL0     C 2090  11.027   3.721   5.739 -0.4191 -0.3678  0.3522
   16MOL0     C 2091  10.971   3.802   5.634  0.1476  1.0206 -0.1989
   16MOL0     C 2092  11.007   3.774   5.488  0.0942 -0.1450 -0.8057
   16MOL0     H 2093  10.472   3.870   5.483 -1.6755 -0.1132 -1.0815
   16MOL0     H 2094  10.265   4.015   5.479  0.8444 -1.1437 -0.4061
   16MOL0     H 2095  10.176   4.168   5.668  0.1067 -1.0030 -2.4552
   16MOL0     H 2096  10.199   4.350   5.701 -1.4637 -0.3184  1.2712
   16MOL0     H 2097   9.997   4.185   5.536  1.5844  0.0210 -0.1716
   16MOL0     H 2098   9.994   4.357   5.517 -0.7238 -2.9546 -2.5669
   16MOL0     H 2099   9.958   4.379   5.770  1.9389 -0.5444  0.0128
   16MOL0     H 2100   9.940   4.203   5.773 -2.5957 -1.4315 -1.1861
   16MOL0     H 2101   9.752   4.204   5.610 -2.3060  1.9501 -2.2934
   16MOL0     H 2102   9.722   4.287   5.763  0.9982  0.5453  0.1885
   16MOL0     H 2103   9.763   4.504   5.654  2.1299 -0.7402 -0.4357
   16MOL0     H 2104   9.775   4.437   5.496 -0.7937  2.1748 -0.0480
   16MOL0     H 2105   9.543   4.332   5.514 -0.4298  0.4678 -0.5519
   16MOL0     H 2106   9.521   4.417   5.673 -2.8434 -0.1130 -0.2573
   16MOL0     H 2107   9.590   4.558   5.403 -0.6050  2.6985 -0.0709
   16MOL0     H 2108   9.578   4.632   5.565  1.5891  1.8244 -2.5305
   16MOL0     H 2109   9.354   4.461   5.426  0.5279  0.2709 -0.9456
   16MOL0     H 2110   9.331   4.587   5.551 -4.3273  1.5347 -2.8919
   16MOL0     H 2111   9.429   4.608   5.155  0.4998  1.2717 -0.6622
   16MOL0     H 2112   9.320   4.927   5.010 -0.0602 -0.0903  0.3757
   16MOL0     H 2113   9.487   4.873   5.031  0.6303  0.2106 -0.3373
   16MOL0     H 2114   9.395   4.786   4.826 -2.8050 -2.2610 -1.9734
   16MOL0     H 2115   9.449   4.660   4.931  2.0868  1.3304 -1.1037
   16MOL0     H 2116   9.165   4.770   4.901  1.7682 -0.7011 -2.7008
   16MOL0     H 2117   9.189   4.634   5.000  0.4885 -0.0802  0.8012
   16MOL0     H 2118   9.322   4.603   4.742 -0.2779  0.3448  0.1440
   16MOL0     H 2119   9.143   4.651   4.719  1.7557  1.4386 -1.9951
   16MOL0     H 2120   9.152   4.506   4.550  1.1869 -0.2493  0.8445
   16MOL0     H 2121   9.082   4.324   4.390  0.9368  1.6697 -0.5404
   16MOL0     H 2122   9.164   4.007   4.177 -2.3891  1.2329  0.1330
   16MOL0     H 2123   9.152   3.821   4.022  0.5783  3.9865 -1.3993
   16MOL0     H 2124   8.762   3.655   3.918  0.3048 -0.1836 -1.4796
   16MOL0     H 2125   8.857   3.542   3.851 -4.0017 -3.4020  0.4440
   16MOL0     H 2126   8.754   3.511   4.133  5.3703  2.1781 -0.2074
   16MOL0     H 2127   8.705   3.431   3.985 -0.4953  1.1477 -1.0930
   16MOL0     H 2128   8.851   3.275   4.047 -3.0444  1.1333  1.8267
   16MOL0     H 2129   8.981   3.383   3.988 -1.3128 -1.8492 -2.7360
   16MOL0     H 2130   8.869   3.391   4.263 -0.5262 -2.5038 -0.3463
   16MOL0     H 2131   9.006   3.491   4.213 -4.2380  2.0709  1.6031
   16MOL0     H 2132   9.095   3.316   4.343  2.1136  2.9920 -1.8464
   16MOL0     H 2133   9.147   3.300   4.171 -2.8018  1.6741 -3.0216
   16MOL0     H 2134   8.992   3.123   4.138 -0.4615  0.1890 -0.4693
   16MOL0     H 2135   9.105   3.093   4.269 -1.8243 -0.8498  0.6250
   16MOL0     H 2136   8.873   3.026   4.317 -0.5834  0.0459  3.7042
   16MOL0     H 2137   8.817   3.195   4.311 -1.5006 -0.0954  1.9386
   16MOL0     H 2138   9.035   3.123   4.507  0.0085 -1.1316  1.5050
   16MOL0     H 2139   8.918   3.259   4.513 -0.3481  0.4789 -0.8578
   16MOL0     H 2140   8.742   3.756   4.138  1.1085 -2.2331 -2.5414
   16MOL0     H 2141   8.754   3.955   4.285  2.4746  3.4166  1.9026
   16MOL0     H 2142   9.113   4.035   4.709  1.0941  1.1966  2.2657
   16MOL0     H 2143   9.166   4.214   4.865 -2.9924 -0.4569  1.2433
   16MOL0     H 2144  10.514   4.362   5.575  0.0991 -0.3423 -0.6197
   16MOL0     H 2145  10.705   4.232   5.576 -0.6357  0.9983  1.7288
   16MOL0     H 2146  10.769   3.983   5.834  0.7131  3.1791 -3.6116
   16MOL0     H 2147  10.853   3.846   6.006 -0.2465 -3.2783  1.7364
   16MOL0     H 2148  11.259   3.678   5.931  1.8961 -2.0037 -3.9922
   16MOL0     H 2149  11.178   3.542   5.853 -2.6864 -1.1184  1.1910
   16MOL0     H 2150  11.307   3.436   6.024  0.0992  1.4166 -1.7235
   16MOL0     H 2151  11.139   3.441   6.091  1.9922 -2.2156  1.1642
   16MOL0     H 2152  11.151   3.630   6.210  0.4449  1.4514  0.7665
   16MOL0     H 2153  11.315   3.662   6.174 -0.2146  0.0425  1.4947
   16MOL0     H 2154  11.201   3.436   6.335  0.0297  0.4745  2.0048
   16MOL0     H 2155  11.354   3.402   6.263 -1.5941 -0.3019 -1.3434
   16MOL0     H 2156  11.402   3.655   6.608  0.4392  0.2720 -1.2410
   16MOL0     H 2157  11.102   3.649   5.708 -1.8544 -1.0522 -1.7326
   16MOL0     H 2158  11.043   3.673   5.466 -1.8706 -0.5932 -2.2189
   16MOL0     H 2159  10.922   3.789   5.421  1.9749  0.3468 -3.2152
   16MOL0     H 2160  11.074   3.850   5.446 -2.0584  2.1441 -0.2986
   17MOL0     O 2161  10.951   3.409  10.497  0.0870  0.1627  0.2080
   17MOL0     C 2162  11.052   3.347  10.478 -0.8120  0.2331 -0.2434
   17MOL0     O 2163  11.077   3.220  10.528 -0.0953  0.0864 -0.1838
   17MOL0     C 2164  10.970   3.148  10.586 -0.9761  0.3342 -0.2622
   17MOL0     C 2165  10.843   3.144  10.534 -0.4368  0.2773 -1.2743
   17MOL0     C 2166  10.745   3.074  10.606 -0.3281  0.4452 -0.4002
   17MOL0     C 2167  10.757   3.014  10.728 -0.8197 -0.1831 -0.1778
   17MOL0     O 2168  10.654   2.952  10.794 -0.0778  0.2856  0.0348
   17MOL0     C 2169  10.604   3.001  10.914  0.3063 -1.4298  0.5764
   17MOL0     C 2170  10.451   3.016  10.912 -0.8640 -0.5852 -0.5891
   17MOL0     C 2171  10.412   3.126  11.011  0.1297 -0.0553  0.2220
   17MOL0     C 2172  10.259   3.136  11.034  0.0278  0.1751  0.9763
   17MOL0     C 2173  10.210   3.254  11.131  0.2027 -0.3786  0.4846
   17MOL0     C 2174  10.207   3.398  11.069 -0.2679  0.1439 -1.5206
   17MOL0     C 2175  10.197   3.506  11.175 -0.0517 -0.2942  0.2429
   17MOL0     C 2176  10.055   3.500  11.252 -0.2874 -0.7843  0.6973
   17MOL0     N 2177  10.027   3.620  11.327 -0.9398  0.1489 -0.0310
   17MOL0     C 2178   9.979   3.742  11.286 -0.5787  0.1228 -0.4187
   17MOL0     C 2179   9.951   3.816  11.399 -0.1867  0.4560 -0.0031
   17MOL0     C 2180   9.894   3.950  11.408  0.2336  0.1667  0.4566
   17MOL0     C 2181   9.979   4.053  11.482  1.5529  1.0840 -0.4640
   17MOL0     C 2182  10.117   4.075  11.395 -0.0692 -0.9592  0.1317
   17MOL0     C 2183  10.213   4.180  11.449  0.1129 -0.1398  0.3629
   17MOL0     O 2184  10.322   4.185  11.359 -0.1219 -0.6658 -0.1996
   17MOL0     C 2185  10.395   4.305  11.355  1.0150  0.4819  0.0034
   17MOL0     C 2186  10.416   4.376  11.471  0.2591  0.4342 -0.1697
   17MOL0     C 2187  10.513   4.482  11.468  0.5948  0.1658  0.0512
   17MOL0     C 2188  10.580   4.516  11.345  0.3600 -0.9013  0.3829
   17MOL0     C 2189  10.681   4.622  11.336  0.1211  0.9504  0.3068
   17MOL0     O 2190  10.726   4.686  11.446 -0.4970 -0.1006  0.6917
   17MOL0     C 2191  10.775   4.814  11.444  0.2919  0.0297  1.0508
   17MOL0     C 2192  10.697   4.922  11.384  0.3606 -0.8391 -0.1934
   17MOL0     C 2193  10.741   5.052  11.393  0.0722  0.2720  0.1069
   17MOL0     C 2194  10.868   5.081  11.431 -0.2471  0.6857 -0.3922
   17MOL0     O 2195  10.919   5.208  11.421  0.3963 -0.6872 -0.4798
   17MOL0     C 2196  10.962   5.253  11.291 -0.6763 -0.6660  0.3600
   17MOL0     C 2197  10.945   5.403  11.276 -0.1371  0.0670 -0.1957
   17MOL0     C 2198  11.026   5.464  11.173  0.5668  0.9291  1.4013
   17MOL0     C 2199  11.022   5.613  11.189 -0.2189  0.0644 -0.7089
   17MOL0     C 2200  11.095   5.672  11.069  0.3230 -0.1259 -0.2069
   17MOL0     C 2201  11.087   5.820  11.051 -0.0299 -0.3619 -0.4609
   17MOL0     C 2202  11.184   5.857  10.940 -0.4127 -0.2422 -0.2233
   17MOL0     C 2203  11.337   5.833  10.973  1.2850 -0.7081 -0.5854
   17MOL0    Cl 2204  11.424   5.869  10.821  0.3238 -0.2124  0.4356
   17MOL0     C 2205  10.942   4.969  11.477  0.3916 -1.0902 -0.5206
   17MOL0     C 2206  10.898   4.836  11.489 -0.2093 -0.2968  0.1800
   17MOL0     O 2207  10.736   4.629  11.226  0.3781  0.4394 -0.2726
   17MOL0     C 2208  10.545   4.443  11.231 -0.7311 -0.5683 -0.7468
   17MOL0     C 2209  10.462   4.337  11.244  0.3270 -0.1867 -0.7642
   17MOL0     N 2210   9.971   3.732  11.509 -0.3267 -0.0989 -0.7588
   17MOL0     N 2211  10.002   3.614  11.466  0.8118 -0.1417  1.2368
   17MOL0     C 2212  10.885   3.032  10.787 -1.2421  0.1822  0.0023
   17MOL0     C 2213  10.991   3.100  10.720 -0.6931  0.0206  0.5768
   17MOL0     C 2214  11.176   3.410  10.415  0.1602 -0.3237  0.5825
   17MOL0     C 2215  11.298   3.364  10.458 -0.7155 -0.6070  0.4542
   17MOL0     C 2216  11.416   3.416  10.387 -0.2873  0.8393 -0.8925
   17MOL0     C 2217  11.418   3.515  10.293 -0.6152 -0.1806 -0.1858
   17MOL0     O 2218  11.533   3.573  10.256 -1.1514  0.2431  0.3160
   17MOL0     C 2219  11.535   3.700  10.190  0.1408  0.2952  0.2215
   17MOL0     C 2220  11.685   3.713  10.149  0.2891  0.5727  1.1500
   17MOL0     C 2221  11.739   3.593  10.059 -0.3075  0.3334 -0.5230
   17MOL0     C 2222  11.867   3.618   9.983  0.3393  0.4552  0.0104
   17MOL0     C 2223  11.905   3.500   9.905 -0.1958 -0.2050 -0.2838
   17MOL0     C 2224  11.954   3.413   9.841 -0.6562  0.6287 -0.6998
   17MOL0     C 2225  11.285   3.572  10.271 -0.1003 -0.4116  0.8117
   17MOL0     C 2226  11.170   3.520  10.326  0.4144 -0.4802  1.1306
   17MOL0     C 2227  11.038   3.592  10.296 -0.0098 -0.3987 -0.2320
   17MOL0     H 2228  10.820   3.186  10.437  0.0027  1.3412 -0.9291
   17MOL0     H 2229  10.643   3.070  10.569 -0.5891  1.2586  0.2033
   17MOL0     H 2230  10.618   2.922  10.990  0.4530 -1.7787  0.1901
   17MOL0     H 2231  10.651   3.097  10.935 -2.2398  0.6625 -2.5139
   17MOL0     H 2232  10.405   2.923  10.948 -0.6097 -0.0312  1.2597
   17MOL0     H 2233  10.430   3.041  10.808 -0.3625 -1.6621 -0.9697
   17MOL0     H 2234  10.459   3.220  10.980  2.1219 -0.0482  2.8958
   17MOL0     H 2235  10.443   3.114  11.116  1.1641  0.0628 -0.0580
   17MOL0     H 2236  10.205   3.157  10.941 -0.5677 -0.3325  1.2010
   17MOL0     H 2237  10.223   3.039  11.068  1.0312  0.3891  2.7529
   17MOL0     H 2238  10.106   3.234  11.156 -0.2693 -0.6945 -1.5919
   17MOL0     H 2239  10.257   3.255  11.230 -0.2917  1.1340  0.7329
   17MOL0     H 2240  10.307   3.413  11.028  0.4529 -1.5123 -0.4768
   17MOL0     H 2241  10.126   3.410  10.996 -1.0349 -1.8450 -1.0597
   17MOL0     H 2242  10.202   3.600  11.119  0.6363 -0.6751 -0.3565
   17MOL0     H 2243  10.278   3.491  11.246  0.5795 -0.9861 -0.6004
   17MOL0     H 2244   9.977   3.487  11.176 -0.1218  0.4090  0.3108
   17MOL0     H 2245  10.047   3.408  11.310  1.1782 -1.2962  0.1402
   17MOL0     H 2246   9.968   3.784  11.186  2.1962  5.0021  0.9651
   17MOL0     H 2247   9.867   3.991  11.310  0.3578  1.8541  1.0906
   17MOL0     H 2248   9.802   3.949  11.468 -0.7899 -1.5038 -1.0550
   17MOL0     H 2249   9.912   4.138  11.497 -0.7719 -0.9975  1.8822
   17MOL0     H 2250  10.000   4.022  11.585 -0.9062  3.5896  0.9379
   17MOL0     H 2251  10.089   4.095  11.291  0.6199 -0.4357  0.0364
   17MOL0     H 2252  10.173   3.982  11.387 -0.3476 -1.5776  3.7366
   17MOL0     H 2253  10.254   4.146  11.545  3.8396 -2.1446 -1.7028
   17MOL0     H 2254  10.158   4.274  11.458  0.9687  0.9220 -3.6820
   17MOL0     H 2255  10.375   4.339  11.565  0.2447  0.6710 -0.0821
   17MOL0     H 2256  10.547   4.537  11.555 -0.4311 -1.0565  1.2608
   17MOL0     H 2257  10.600   4.908  11.336 -0.3010  2.6944 -0.1230
   17MOL0     H 2258  10.685   5.133  11.348  1.5489  1.7332  0.8002
   17MOL0     H 2259  11.067   5.222  11.279 -0.5101 -1.9704  3.9772
   17MOL0     H 2260  10.900   5.206  11.213 -1.1838 -2.4491  1.7700
   17MOL0     H 2261  10.840   5.419  11.253  0.0714  0.8668 -0.6255
   17MOL0     H 2262  10.965   5.437  11.379 -0.4500 -2.9591  0.9675
   17MOL0     H 2263  11.127   5.426  11.156  1.4232  3.3036  0.7492
   17MOL0     H 2264  10.969   5.451  11.080 -0.5042  0.1548  2.1443
   17MOL0     H 2265  11.057   5.638  11.290 -1.4945  0.9382 -0.4597
   17MOL0     H 2266  10.919   5.648  11.195  0.0675  0.8668 -0.3042
   17MOL0     H 2267  11.041   5.626  10.987  0.6185 -4.9837  2.0193
   17MOL0     H 2268  11.191   5.623  11.054 -0.2735 -1.0159 -1.1985
   17MOL0     H 2269  10.980   5.841  11.043 -0.1958 -0.9122  0.1837
   17MOL0     H 2270  11.125   5.872  11.140 -0.6281 -0.8542  0.0864
   17MOL0     H 2271  11.170   5.964  10.918  1.2859  0.7826  3.0069
   17MOL0     H 2272  11.158   5.801  10.850 -3.7464  1.9615 -0.8226
   17MOL0     H 2273  11.375   5.897  11.053  1.0082  0.9755 -1.7435
   17MOL0     H 2274  11.345   5.731  11.012  0.1305 -0.7589 -0.4488
   17MOL0     H 2275  11.045   4.987  11.506  0.7732 -2.2875 -1.0489
   17MOL0     H 2276  10.947   4.754  11.541 -1.1596 -1.6110 -0.9301
   17MOL0     H 2277  10.600   4.467  11.141 -0.2211 -0.0170 -0.2902
   17MOL0     H 2278  10.446   4.271  11.159  1.2458  2.8034 -3.4797
   17MOL0     H 2279  10.930   2.989  10.876  1.3146  1.7376 -0.4338
   17MOL0     H 2280  11.087   3.108  10.770  0.7617  0.8084 -2.0881
   17MOL0     H 2281  11.310   3.292  10.538  0.1533 -0.2347  0.6684
   17MOL0     H 2282  11.503   3.370  10.434 -1.1342 -2.3542 -2.2059
   17MOL0     H 2283  11.494   3.780  10.252 -0.7929 -0.2056  0.2681
   17MOL0     H 2284  11.481   3.710  10.095  3.9307  0.5127 -2.1437
   17MOL0     H 2285  11.751   3.723  10.236  1.6155 -1.9623  0.5558
   17MOL0     H 2286  11.687   3.800  10.084  3.0036  0.0151  0.3588
   17MOL0     H 2287  11.658   3.562   9.992 -0.8032  0.2779  0.0876
   17MOL0     H 2288  11.753   3.498  10.111 -1.7088 -0.6193 -1.7842
   17MOL0     H 2289  11.849   3.692   9.906  5.8854  0.7978 -1.3990
   17MOL0     H 2290  11.941   3.646  10.058 -0.6547  0.6529  0.9466
   17MOL0     H 2291  12.010   3.334   9.794 -2.0897 -0.0984 -1.2199
   17MOL0     H 2292  11.277   3.657  10.205 -0.7794 -0.6154  0.6262
   17MOL0     H 2293  11.055   3.657  10.210 -3.5914 -0.6654 -1.3431
   17MOL0     H 2294  10.954   3.530  10.262 -1.4749  1.9074 -1.1058
   17MOL0     H 2295  11.005   3.659  10.376 -1.1748  0.6207 -1.5115
   18MOL0     O 2296   6.792   3.045   8.446 -0.3161  0.2301 -0.4056
   18MOL0     C 2297   6.833   3.159   8.467 -0.7489  0.3975 -1.5019
   18MOL0     O 2298   6.968   3.200   8.450 -0.2439 -0.1995  0.0320
   18MOL0     C 2299   7.074   3.109   8.471 -0.2293 -0.8212  0.7308
   18MOL0     C 2300   7.074   3.039   8.589  0.3660  0.3086  1.0786
   18MOL0     C 2301   7.184   2.965   8.628  1.4266 -0.6532  0.7179
   18MOL0     C 2302   7.297   2.965   8.547  0.8067  0.6243  0.1716
   18MOL0     O 2303   7.388   2.873   8.584 -0.5506  0.5474  0.7267
   18MOL0     C 2304   7.525   2.900   8.572 -0.2355 -0.4697 -0.0936
   18MOL0     C 2305   7.605   2.777   8.593  0.5263  0.6863 -0.1930
   18MOL0     C 2306   7.751   2.798   8.581  0.1292 -0.4538  0.7300
   18MOL0     C 2307   7.842   2.679   8.629  0.5769  0.1674  0.3997
   18MOL0     C 2308   7.992   2.687   8.592 -1.1014 -1.0299  0.0690
   18MOL0     C 2309   8.030   2.711   8.443  0.8569 -0.9050  0.6809
   18MOL0     C 2310   8.175   2.755   8.413  0.2526 -1.1653  0.0315
   18MOL0     C 2311   8.216   2.874   8.496 -1.3538  0.6815 -0.9587
   18MOL0     N 2312   8.335   2.945   8.435  0.3208 -0.4125  0.9914
   18MOL0     C 2313   8.455   2.889   8.410 -0.0649 -0.5405  0.6309
   18MOL0     C 2314   8.534   2.997   8.404 -0.4802 -0.3991  0.8952
   18MOL0     C 2315   8.679   2.993   8.359 -0.5675  0.1999  0.2739
   18MOL0     C 2316   8.689   3.021   8.212 -0.1589  0.1914 -0.1680
   18MOL0     C 2317   8.833   3.019   8.173 -0.4709 -0.6158  0.4195
   18MOL0     C 2318   8.849   3.012   8.021 -0.5775  0.3885 -0.4518
   18MOL0     O 2319   8.781   2.898   7.955 -0.1439 -0.4640 -0.2567
   18MOL0     C 2320   8.846   2.775   7.956 -0.2510  0.3007  0.1189
   18MOL0     C 2321   8.771   2.662   7.906  0.1238  0.6565 -0.0055
   18MOL0     C 2322   8.811   2.531   7.921 -0.6735  0.1952 -0.1446
   18MOL0     C 2323   8.929   2.495   7.993 -0.6213  0.8515  1.0559
   18MOL0     C 2324   8.966   2.363   8.018  0.9368 -0.2497  0.6543
   18MOL0     O 2325   9.069   2.348   8.102  0.5560 -0.3218  0.0361
   18MOL0     C 2326   9.111   2.223   8.134 -0.5264  0.6191 -0.1719
   18MOL0     C 2327   9.210   2.155   8.056  0.2049  0.0440 -0.0783
   18MOL0     C 2328   9.270   2.034   8.087  0.3409 -0.6145 -0.2826
   18MOL0     C 2329   9.246   1.967   8.205  0.0539  0.2475 -0.1110
   18MOL0     O 2330   9.313   1.843   8.224 -0.4820  0.3093  0.3007
   18MOL0     C 2331   9.245   1.744   8.296 -0.2920  1.1763  0.7873
   18MOL0     C 2332   9.338   1.625   8.265 -0.2084  0.8035 -1.1902
   18MOL0     C 2333   9.285   1.537   8.150  0.4632 -0.5817 -0.6838
   18MOL0     C 2334   9.376   1.419   8.109  0.5386 -0.3165  0.0711
   18MOL0     C 2335   9.336   1.295   8.181 -0.2017 -0.2042  0.5803
   18MOL0     C 2336   9.391   1.173   8.103 -1.5978  0.0187  0.2444
   18MOL0     C 2337   9.355   1.039   8.168  0.3389  0.1197  1.0970
   18MOL0     C 2338   9.415   0.922   8.091  0.1453  0.1810  0.5031
   18MOL0    Cl 2339   9.588   0.918   8.109 -0.3625 -0.2715  0.4522
   18MOL0     C 2340   9.156   2.029   8.296 -0.1964 -0.6760 -0.3957
   18MOL0     C 2341   9.081   2.156   8.262  0.4601  0.5436  0.4534
   18MOL0     O 2342   8.896   2.278   7.970 -0.3548  0.4054 -0.1474
   18MOL0     C 2343   9.012   2.604   8.028  0.1938  0.1719 -0.0247
   18MOL0     C 2344   8.971   2.741   8.021 -0.2537 -0.0178  0.3850
   18MOL0     N 2345   8.467   3.118   8.416 -0.0274  0.6116 -0.8504
   18MOL0     N 2346   8.346   3.081   8.436 -0.4830 -0.2682 -0.0693
   18MOL0     C 2347   7.293   3.018   8.425 -0.2708 -0.6628  0.3062
   18MOL0     C 2348   7.186   3.103   8.388 -0.6040  0.5987  0.3070
   18MOL0     C 2349   6.730   3.263   8.511  0.1883  0.0423 -0.0058
   18MOL0     C 2350   6.760   3.393   8.489  0.0277 -0.0647  0.0970
   18MOL0     C 2351   6.682   3.499   8.526 -0.1181 -0.5827  0.1973
   18MOL0     C 2352   6.554   3.477   8.589  0.3157  0.2396  1.1259
   18MOL0     O 2353   6.457   3.573   8.619 -0.9782 -0.2836  0.0823
   18MOL0     C 2354   6.484   3.710   8.588  0.3103 -0.3829 -0.2187
   18MOL0     C 2355   6.390   3.793   8.673  0.0566  0.2421 -0.0033
   18MOL0     C 2356   6.421   3.786   8.822 -0.9970 -0.2237 -0.3340
   18MOL0     C 2357   6.358   3.883   8.899  0.1219 -0.1814 -0.0630
   18MOL0     C 2358   6.407   4.020   8.889 -0.1734  0.7479 -0.7223
   18MOL0     C 2359   6.437   4.134   8.893 -0.2382 -0.6028  0.7794
   18MOL0     C 2360   6.517   3.342   8.605 -0.3688  0.9050 -1.3163
   18MOL0     C 2361   6.600   3.230   8.574  1.0676 -0.1172 -0.6472
   18MOL0     C 2362   6.538   3.095   8.596 -0.0395 -0.0911 -0.1657
   18MOL0     H 2363   6.984   3.047   8.650  0.1804 -0.6905  0.9713
   18MOL0     H 2364   7.188   2.916   8.725  2.2570 -0.1801  0.9333
   18MOL0     H 2365   7.559   2.939   8.476  0.9728 -0.0689  0.4683
   18MOL0     H 2366   7.565   2.975   8.642  1.8000  1.7124 -3.3450
   18MOL0     H 2367   7.566   2.707   8.519 -0.8663  1.2921 -0.0732
   18MOL0     H 2368   7.591   2.723   8.688  0.9694 -1.0818 -1.0843
   18MOL0     H 2369   7.777   2.889   8.637 -0.4013  1.4296 -1.9219
   18MOL0     H 2370   7.768   2.819   8.475  4.0644 -2.4500  0.8025
   18MOL0     H 2371   7.845   2.661   8.737  2.2414  2.3815  0.8004
   18MOL0     H 2372   7.813   2.586   8.580  2.5581  0.2543 -1.0251
   18MOL0     H 2373   8.034   2.770   8.650 -0.2496 -1.7892  0.5572
   18MOL0     H 2374   8.035   2.595   8.632  1.6115 -0.0356 -0.3773
   18MOL0     H 2375   8.017   2.620   8.383  0.9190  1.0227 -2.4949
   18MOL0     H 2376   7.958   2.781   8.399  1.5784 -0.3680  0.3285
   18MOL0     H 2377   8.192   2.772   8.306  2.3031  1.0310  0.6072
   18MOL0     H 2378   8.234   2.668   8.443 -2.5694 -2.7165  1.4651
   18MOL0     H 2379   8.132   2.945   8.491 -2.1781 -0.2450 -0.5830
   18MOL0     H 2380   8.248   2.850   8.597  0.3507  4.8130 -0.3077
   18MOL0     H 2381   8.487   2.785   8.405 -1.9621 -1.1114 -2.9740
   18MOL0     H 2382   8.737   3.075   8.403  0.1325 -0.1576  0.0274
   18MOL0     H 2383   8.733   2.903   8.389 -0.0133 -0.7116 -3.0424
   18MOL0     H 2384   8.631   2.945   8.157  0.7305 -0.3997 -0.3143
   18MOL0     H 2385   8.640   3.116   8.188 -1.0246 -0.4967 -1.2765
   18MOL0     H 2386   8.885   2.931   8.213  1.3831 -0.4151 -1.4061
   18MOL0     H 2387   8.882   3.108   8.212  0.4605  0.4434 -2.8507
   18MOL0     H 2388   8.955   2.999   7.995 -1.1298 -1.9296 -1.8501
   18MOL0     H 2389   8.812   3.109   7.984 -1.2809 -0.1135 -1.1113
   18MOL0     H 2390   8.677   2.683   7.856 -0.0520 -2.6470 -1.2880
   18MOL0     H 2391   8.749   2.450   7.884 -1.5223  1.8293 -2.5447
   18MOL0     H 2392   9.222   2.201   7.959 -1.0706 -0.3409 -0.4299
   18MOL0     H 2393   9.322   1.980   8.009  0.4951 -0.6220 -0.1754
   18MOL0     H 2394   9.236   1.774   8.401  3.4106  3.2724  0.6901
   18MOL0     H 2395   9.146   1.714   8.262  1.5087 -2.4705 -1.8868
   18MOL0     H 2396   9.442   1.656   8.253  0.0100  0.8261  0.5633
   18MOL0     H 2397   9.334   1.572   8.361 -1.5921 -0.1641 -1.7449
   18MOL0     H 2398   9.182   1.502   8.156  0.6121 -0.7710  3.4300
   18MOL0     H 2399   9.283   1.603   8.062  0.6298 -0.3405 -0.5101
   18MOL0     H 2400   9.478   1.448   8.135  1.2550 -2.8991  0.3277
   18MOL0     H 2401   9.370   1.393   8.003  0.6076  0.0477 -0.0250
   18MOL0     H 2402   9.226   1.294   8.179 -0.2745 -1.8104  2.2812
   18MOL0     H 2403   9.360   1.302   8.288  2.9767 -0.4261 -0.0278
   18MOL0     H 2404   9.371   1.177   7.995  0.5865  2.2073 -0.1701
   18MOL0     H 2405   9.499   1.177   8.114 -1.6190 -0.7167  0.7970
   18MOL0     H 2406   9.248   1.034   8.146  0.9841 -0.8469 -2.6458
   18MOL0     H 2407   9.381   1.034   8.274  3.1561  2.4639  0.6486
   18MOL0     H 2408   9.371   0.828   8.126 -1.2736  0.9123  0.7291
   18MOL0     H 2409   9.385   0.928   7.986 -1.7420  1.0556  1.0471
   18MOL0     H 2410   9.120   1.981   8.387  0.2357 -0.3856 -0.0698
   18MOL0     H 2411   9.018   2.202   8.338 -0.2301  0.0468  0.1982
   18MOL0     H 2412   9.113   2.596   8.068  1.2727 -3.6012 -2.8802
   18MOL0     H 2413   9.041   2.817   8.055 -0.4989 -0.1046  1.0890
   18MOL0     H 2414   7.381   2.999   8.365 -0.2454  3.7229 -1.4322
   18MOL0     H 2415   7.191   3.152   8.291 -1.5573  0.6238  0.2573
   18MOL0     H 2416   6.855   3.404   8.438  0.9449 -1.5489  1.3868
   18MOL0     H 2417   6.722   3.599   8.517 -0.4117 -0.5517 -0.8903
   18MOL0     H 2418   6.490   3.721   8.480 -2.5200 -0.7621 -0.4730
   18MOL0     H 2419   6.580   3.747   8.625  0.2109 -1.3813  1.1474
   18MOL0     H 2420   6.284   3.782   8.651  0.5009  0.4000 -2.4815
   18MOL0     H 2421   6.411   3.899   8.651  0.9642  1.4098  5.2082
   18MOL0     H 2422   6.529   3.791   8.841 -0.9895 -0.9381 -0.1461
   18MOL0     H 2423   6.387   3.687   8.853  0.9511 -0.9527 -0.3598
   18MOL0     H 2424   6.258   3.894   8.856 -0.3121 -1.2451  0.6374
   18MOL0     H 2425   6.345   3.861   9.005  0.0201 -1.1627 -0.2707
   18MOL0     H 2426   6.467   4.237   8.891 -0.9708 -0.2058 -4.4022
   18MOL0     H 2427   6.412   3.319   8.619 -0.1817 -0.7850 -2.3718
   18MOL0     H 2428   6.429   3.096   8.587 -0.1576 -1.5681  0.7412
   18MOL0     H 2429   6.581   3.027   8.522  5.0880  1.2847  1.1474
   18MOL0     H 2430   6.552   3.067   8.701 -1.4117  2.3450  0.7475
   19MOL0     O 2431   1.259   6.390   5.381 -0.3825 -0.2376 -0.0383
   19MOL0     C 2432   1.170   6.310   5.373  0.3544 -0.1489 -0.0631
   19MOL0     O 2433   1.170   6.169   5.410 -1.5060 -1.1346  0.3949
   19MOL0     C 2434   1.290   6.120   5.460  0.6477 -0.2710 -0.3195
   19MOL0     C 2435   1.379   6.059   5.383  0.3627 -0.2538  0.4510
   19MOL0     C 2436   1.498   6.008   5.427  0.1679  0.5741 -0.0363
   19MOL0     C 2437   1.537   6.026   5.561 -0.1407 -0.0097  0.0180
   19MOL0     O 2438   1.647   5.967   5.612  0.6550 -0.3701 -0.7848
   19MOL0     C 2439   1.735   5.911   5.518  0.0328  0.4436 -0.2048
   19MOL0     C 2440   1.871   5.866   5.585  0.4661  0.0363  0.4245
   19MOL0     C 2441   1.964   5.790   5.481 -0.9690 -0.6872  0.6859
   19MOL0     C 2442   2.000   5.870   5.350 -0.1359  0.3352 -0.1185
   19MOL0     C 2443   2.147   5.894   5.316  0.5520  0.1059 -0.6522
   19MOL0     C 2444   2.234   5.985   5.414  0.0186  0.0330  0.2021
   19MOL0     C 2445   2.168   6.114   5.475 -0.0113  0.0921 -0.3037
   19MOL0     C 2446   2.135   6.224   5.363  0.3455  0.2961  0.0431
   19MOL0     N 2447   2.213   6.356   5.378 -0.2521  0.0726  0.0001
   19MOL0     C 2448   2.226   6.422   5.501 -0.4277 -0.4929 -0.4768
   19MOL0     C 2449   2.323   6.509   5.481 -0.6606 -0.4187  0.2082
   19MOL0     C 2450   2.393   6.576   5.595  0.1550  0.0490  0.3253
   19MOL0     C 2451   2.334   6.718   5.626 -1.2973  0.6983 -0.2576
   19MOL0     C 2452   2.409   6.785   5.742 -0.3420 -1.3582  0.4301
   19MOL0     C 2453   2.400   6.937   5.758  0.8819 -0.4428  0.5590
   19MOL0     O 2454   2.290   6.960   5.845 -0.3136  0.9814  0.2724
   19MOL0     C 2455   2.225   7.076   5.833 -0.1768  0.7956 -0.1193
   19MOL0     C 2456   2.088   7.086   5.834 -0.5063  0.0784  0.3404
   19MOL0     C 2457   2.028   7.209   5.847  0.0397 -0.5580 -0.2790
   19MOL0     C 2458   2.099   7.333   5.851 -0.7451  0.5301  1.0911
   19MOL0     C 2459   2.022   7.461   5.852  0.3302  0.2506 -0.3126
   19MOL0     O 2460   1.877   7.465   5.825 -0.3026  0.4896  0.5009
   19MOL0     C 2461   1.808   7.579   5.814 -0.6332  0.0547  0.2598
   19MOL0     C 2462   1.675   7.564   5.779  0.7884  0.0101 -0.3680
   19MOL0     C 2463   1.580   7.669   5.779  0.3943  0.0018 -1.2868
   19MOL0     C 2464   1.622   7.796   5.821 -0.6353  0.4857  0.2175
   19MOL0     O 2465   1.538   7.907   5.818 -0.7835  0.5808  0.5687
   19MOL0     C 2466   1.426   7.895   5.732 -0.1477 -0.5435 -0.0438
   19MOL0     C 2467   1.369   8.036   5.734  0.4189  0.6314  0.1589
   19MOL0     C 2468   1.255   8.067   5.845 -0.5776 -0.1266  0.4363
   19MOL0     C 2469   1.171   8.183   5.804 -0.1147 -1.2556 -0.0890
   19MOL0     C 2470   1.063   8.215   5.909 -0.5886  1.4820  0.8935
   19MOL0     C 2471   0.986   8.352   5.904  0.2737 -0.8748  0.2773
   19MOL0     C 2472   0.855   8.354   5.982  0.4801  0.8187 -1.3965
   19MOL0     C 2473   0.743   8.408   5.907  0.1240 -0.3467 -0.4797
   19MOL0    Cl 2474   0.771   8.572   5.834 -0.3941 -0.1363  0.2679
   19MOL0     C 2475   1.759   7.816   5.857 -0.0890  0.7786 -0.3498
   19MOL0     C 2476   1.853   7.710   5.852 -0.3223  0.5519 -0.0547
   19MOL0     O 2477   2.091   7.560   5.850  0.2064  0.1418 -0.9293
   19MOL0     C 2478   2.240   7.324   5.852 -0.2041  0.0985  0.0094
   19MOL0     C 2479   2.298   7.194   5.844 -0.0506 -1.0151  0.6545
   19MOL0     N 2480   2.373   6.503   5.352 -1.5464  0.5332 -0.5653
   19MOL0     N 2481   2.299   6.411   5.288  0.4085 -0.2687  0.0846
   19MOL0     C 2482   1.459   6.104   5.642  1.3730  1.4862  0.3024
   19MOL0     C 2483   1.332   6.145   5.591  0.5567  0.8118  0.3804
   19MOL0     C 2484   1.035   6.365   5.358 -0.2010  0.1421  0.1574
   19MOL0     C 2485   1.011   6.489   5.406  0.4244 -0.5918  0.2283
   19MOL0     C 2486   0.883   6.553   5.400 -0.0289 -0.7854  0.5198
   19MOL0     C 2487   0.766   6.489   5.347  0.8770  0.8876 -0.1896
   19MOL0     O 2488   0.637   6.538   5.342  0.0668  1.0188 -0.3115
   19MOL0     C 2489   0.617   6.654   5.413  0.0590  0.0717 -0.9131
   19MOL0     C 2490   0.490   6.712   5.369 -0.0560 -0.1842 -0.8144
   19MOL0     C 2491   0.468   6.858   5.409 -0.2678 -1.1036 -1.0763
   19MOL0     C 2492   0.427   6.884   5.556 -0.1705 -0.0353  0.0177
   19MOL0     C 2493   0.411   7.023   5.585 -0.4471 -0.5805 -0.2168
   19MOL0     C 2494   0.407   7.139   5.622  0.8390 -0.2949  0.1248
   19MOL0     C 2495   0.789   6.364   5.291  0.0462 -0.1281 -0.3910
   19MOL0     C 2496   0.917   6.299   5.299 -0.6919 -0.3390 -0.4287
   19MOL0     C 2497   0.926   6.152   5.256 -0.0744  0.8173 -0.3825
   19MOL0     H 2498   1.357   6.029   5.282  2.3462 -1.4956  0.3212
   19MOL0     H 2499   1.554   5.952   5.352  1.1170  0.3547  0.8052
   19MOL0     H 2500   1.689   5.818   5.482 -2.5314  1.7383 -0.5047
   19MOL0     H 2501   1.752   5.985   5.440  0.2519  1.0884  0.4388
   19MOL0     H 2502   1.849   5.798   5.667 -0.0418 -0.1503  0.1432
   19MOL0     H 2503   1.922   5.951   5.631  1.6629  1.0843 -2.5663
   19MOL0     H 2504   1.896   5.713   5.443  1.2900 -1.7212 -1.5991
   19MOL0     H 2505   2.054   5.749   5.527 -0.5464 -3.5361 -2.2705
   19MOL0     H 2506   1.973   5.813   5.261 -1.6948 -0.4289  0.8044
   19MOL0     H 2507   1.943   5.963   5.338 -2.6681 -1.1110  0.1004
   19MOL0     H 2508   2.199   5.799   5.302  1.5134  0.6019 -0.5640
   19MOL0     H 2509   2.143   5.951   5.223 -1.1505 -1.3829 -1.5513
   19MOL0     H 2510   2.263   5.921   5.498  0.7572  0.6954  0.4622
   19MOL0     H 2511   2.331   6.013   5.370 -1.1710 -0.4626 -3.0417
   19MOL0     H 2512   2.231   6.163   5.550  0.4774 -0.8557 -0.0706
   19MOL0     H 2513   2.082   6.075   5.530 -0.8850 -0.4804 -2.0012
   19MOL0     H 2514   2.151   6.179   5.264 -0.8276 -0.4666  0.1749
   19MOL0     H 2515   2.030   6.256   5.362  0.4599  0.7863 -2.0827
   19MOL0     H 2516   2.183   6.387   5.594 -0.6896 -3.4289 -1.5971
   19MOL0     H 2517   2.390   6.504   5.678 -0.0212  1.2210  1.3592
   19MOL0     H 2518   2.494   6.597   5.557 -1.9356 -0.1398 -6.6391
   19MOL0     H 2519   2.349   6.773   5.532  1.7306 -0.3813 -0.5151
   19MOL0     H 2520   2.227   6.712   5.644 -1.2654  3.4051  1.3514
   19MOL0     H 2521   2.514   6.767   5.719 -0.5513  0.3009 -2.2422
   19MOL0     H 2522   2.376   6.747   5.839  2.1036  1.7915  2.6808
   19MOL0     H 2523   2.385   6.997   5.668  1.8319 -0.4106  0.4115
   19MOL0     H 2524   2.489   6.977   5.806  1.6532 -0.5414 -0.7552
   19MOL0     H 2525   2.021   7.001   5.841  0.5219 -0.7399  0.5175
   19MOL0     H 2526   1.919   7.207   5.846 -0.0700  0.9114 -3.5056
   19MOL0     H 2527   1.641   7.462   5.765  1.1172 -0.3498  1.2722
   19MOL0     H 2528   1.476   7.645   5.760 -0.3495  2.8765 -1.2423
   19MOL0     H 2529   1.468   7.871   5.634  2.2042 -0.4148  0.8696
   19MOL0     H 2530   1.365   7.816   5.777 -0.2664 -0.1011  0.5914
   19MOL0     H 2531   1.449   8.111   5.740  0.2957  0.9115 -1.4002
   19MOL0     H 2532   1.317   8.048   5.639  0.1222  2.1419  0.4760
   19MOL0     H 2533   1.188   7.980   5.850 -0.1229 -0.5346 -0.3043
   19MOL0     H 2534   1.308   8.076   5.941  1.5905  1.8074 -0.8437
   19MOL0     H 2535   1.121   8.162   5.709 -4.1142 -0.9848  1.7566
   19MOL0     H 2536   1.234   8.271   5.789 -1.3854  0.1351  2.1954
   19MOL0     H 2537   1.106   8.213   6.010  2.4455 -0.5191 -0.3111
   19MOL0     H 2538   0.994   8.131   5.896  0.4725  0.3425  2.2608
   19MOL0     H 2539   1.047   8.437   5.936  0.3769 -1.1180  0.7463
   19MOL0     H 2540   0.962   8.366   5.799  3.9584  3.1858 -0.2842
   19MOL0     H 2541   0.867   8.410   6.074 -1.3032 -2.3235  0.9628
   19MOL0     H 2542   0.828   8.257   6.024 -0.5197  2.7532  2.9090
   19MOL0     H 2543   0.724   8.338   5.825  2.0072 -2.4914  0.7805
   19MOL0     H 2544   0.662   8.410   5.980 -0.3173 -0.5331 -0.9554
   19MOL0     H 2545   1.787   7.914   5.892  1.7399 -0.7439  2.9212
   19MOL0     H 2546   1.958   7.728   5.875  0.1807  0.3117 -1.9503
   19MOL0     H 2547   2.298   7.415   5.850  2.1430 -1.3127 -2.1300
   19MOL0     H 2548   2.404   7.202   5.825 -0.0961 -1.5721  0.1357
   19MOL0     H 2549   1.481   6.115   5.748  0.2286  1.6323  0.5415
   19MOL0     H 2550   1.256   6.198   5.646 -1.9899 -1.2229 -0.9560
   19MOL0     H 2551   1.093   6.544   5.449 -1.9833  2.5993  1.1112
   19MOL0     H 2552   0.884   6.657   5.428  0.2045 -0.8904  0.9127
   19MOL0     H 2553   0.693   6.730   5.390  0.2708 -0.6703 -2.8660
   19MOL0     H 2554   0.609   6.636   5.520 -0.4876  3.1414 -0.3284
   19MOL0     H 2555   0.408   6.656   5.416  1.3027 -0.5001  1.3439
   19MOL0     H 2556   0.481   6.705   5.261  0.3384  1.1239 -0.9478
   19MOL0     H 2557   0.385   6.896   5.349  0.7551 -0.9951 -2.4662
   19MOL0     H 2558   0.554   6.920   5.384 -0.2995 -1.6538 -2.7232
   19MOL0     H 2559   0.331   6.837   5.580 -1.2318  0.9034 -2.0919
   19MOL0     H 2560   0.494   6.828   5.622 -2.9471 -1.0823  2.1818
   19MOL0     H 2561   0.394   7.244   5.637 -2.9132 -0.8626  2.1391
   19MOL0     H 2562   0.706   6.307   5.250 -0.8329  0.3635  0.6395
   19MOL0     H 2563   0.953   6.086   5.339 -2.1123 -2.3019 -1.9817
   19MOL0     H 2564   0.831   6.114   5.217 -1.1623  0.0242  2.7471
   19MOL0     H 2565   0.995   6.120   5.177 -0.1482  0.5206 -0.3297
   20MOL0     O 2566   8.294   2.062   6.837 -0.9009 -0.3944  0.1238
   20MOL0     C 2567   8.321   2.124   6.742  0.1384 -0.0766  0.0547
   20MOL0     O 2568   8.248   2.220   6.692  0.7642 -0.1033  0.0928
   20MOL0     C 2569   8.170   2.307   6.776  0.2178  0.8568  0.4922
   20MOL0     C 2570   8.218   2.368   6.887  0.5772  0.3591 -0.2751
   20MOL0     C 2571   8.138   2.470   6.949 -0.0237  0.0615 -1.2609
   20MOL0     C 2572   8.009   2.499   6.904  0.7813  0.3326 -0.8008
   20MOL0     O 2573   7.942   2.590   6.986 -0.1905 -0.5817 -0.2938
   20MOL0     C 2574   7.811   2.624   6.936 -0.3839 -0.1762  1.0336
   20MOL0     C 2575   7.752   2.715   7.045 -0.3098  0.1485 -0.2776
   20MOL0     C 2576   7.601   2.728   7.016 -0.4841 -0.0386  0.3258
   20MOL0     C 2577   7.533   2.784   7.136 -0.5150 -0.8577 -0.0376
   20MOL0     C 2578   7.388   2.840   7.105  0.0913  0.4459  1.1197
   20MOL0     C 2579   7.392   2.962   7.016  0.1617 -0.1802 -0.6880
   20MOL0     C 2580   7.258   3.033   6.994 -0.5196 -1.1278 -0.3328
   20MOL0     C 2581   7.267   3.159   6.910 -0.2363  0.1202 -0.4144
   20MOL0     N 2582   7.142   3.201   6.845  0.9918  0.1863 -0.0673
   20MOL0     C 2583   7.029   3.254   6.900 -0.3964  0.7647  1.1239
   20MOL0     C 2584   6.946   3.294   6.794  0.0099 -0.6623 -0.3634
   20MOL0     C 2585   6.816   3.367   6.800 -0.7797  0.0352  0.2586
   20MOL0     C 2586   6.699   3.278   6.847 -0.4432  0.7396  0.3871
   20MOL0     C 2587   6.695   3.145   6.755 -0.2559  0.5184  0.6814
   20MOL0     C 2588   6.660   3.167   6.608  0.2828 -0.0858 -0.7173
   20MOL0     O 2589   6.648   3.032   6.561 -0.1037  0.1320 -0.0612
   20MOL0     C 2590   6.707   3.025   6.443 -0.1411  0.9028  0.1728
   20MOL0     C 2591   6.849   3.019   6.424 -0.0317 -0.0789 -0.8355
   20MOL0     C 2592   6.896   2.990   6.304  0.6244 -0.4596  0.8004
   20MOL0     C 2593   6.806   2.968   6.192 -0.5945 -0.6080 -0.1067
   20MOL0     C 2594   6.863   2.939   6.056  0.1607 -0.3120  0.8235
   20MOL0     O 2595   6.787   2.985   5.943 -0.6240  0.3707 -0.1837
   20MOL0     C 2596   6.825   2.938   5.817 -0.5192 -0.2030 -0.8534
   20MOL0     C 2597   6.716   2.894   5.737  0.7449 -0.6911  0.2657
   20MOL0     C 2598   6.752   2.836   5.610  1.5222  0.7966  0.4464
   20MOL0     C 2599   6.887   2.832   5.563  0.8897 -0.2940 -0.8471
   20MOL0     O 2600   6.909   2.783   5.441  0.3153  0.1183 -0.2203
   20MOL0     C 2601   6.998   2.875   5.372  0.5275 -0.0174 -0.0606
   20MOL0     C 2602   6.995   2.845   5.218  0.2298  1.3485 -0.1715
   20MOL0     C 2603   6.997   2.695   5.171 -0.1412 -0.1213 -0.3639
   20MOL0     C 2604   7.115   2.614   5.235  0.7566 -0.0416 -0.1858
   20MOL0     C 2605   7.100   2.467   5.245 -0.1349 -0.3486  0.7549
   20MOL0     C 2606   7.152   2.378   5.126  0.9719  0.7954  0.7254
   20MOL0     C 2607   7.304   2.352   5.133 -0.8729 -0.2541  0.1939
   20MOL0     C 2608   7.387   2.255   5.032  1.3027  0.8455  0.9136
   20MOL0    Cl 2609   7.304   2.096   5.040  0.0767  0.4108 -0.2125
   20MOL0     C 2610   6.983   2.883   5.650 -0.1406 -0.1540 -0.2754
   20MOL0     C 2611   6.955   2.931   5.777 -0.8182  0.1419  1.0618
   20MOL0     O 2612   6.953   2.850   6.053  0.0598  0.0040 -0.1686
   20MOL0     C 2613   6.665   2.981   6.208  0.1074  0.5914  0.2783
   20MOL0     C 2614   6.613   3.015   6.336  0.0192  0.7655  0.5771
   20MOL0     N 2615   7.013   3.252   6.676 -0.1187  0.1473 -0.0483
   20MOL0     N 2616   7.124   3.193   6.711  0.5447  0.4739  0.5461
   20MOL0     C 2617   7.963   2.436   6.787 -0.7692  0.2593 -0.1855
   20MOL0     C 2618   8.048   2.340   6.720 -0.7429 -0.5738 -0.0675
   20MOL0     C 2619   8.434   2.059   6.675 -0.2991 -0.4286  0.8682
   20MOL0     C 2620   8.462   1.916   6.703  0.4706  0.5108  0.6175
   20MOL0     C 2621   8.578   1.862   6.645  0.5828 -0.0129 -0.1302
   20MOL0     C 2622   8.661   1.931   6.569 -1.1003 -0.6935  0.3136
   20MOL0     O 2623   8.794   1.883   6.545 -0.2570 -0.1542 -0.0780
   20MOL0     C 2624   8.886   1.973   6.491  0.3326  0.1149  0.2694
   20MOL0     C 2625   9.024   1.901   6.470  1.1214 -1.0871 -0.2564
   20MOL0     C 2626   9.137   1.983   6.412 -0.2184 -0.3283 -0.1119
   20MOL0     C 2627   9.257   1.891   6.368 -0.3594 -0.3650 -0.6546
   20MOL0     C 2628   9.323   1.923   6.245 -0.2296  0.0994  0.3796
   20MOL0     C 2629   9.397   1.953   6.152 -0.7144 -0.3340  0.4656
   20MOL0     C 2630   8.629   2.064   6.530 -0.3522 -0.2590 -0.1204
   20MOL0     C 2631   8.511   2.130   6.586 -0.3426  0.3095 -0.4381
   20MOL0     C 2632   8.469   2.265   6.526  0.1040  0.2274 -0.4681
   20MOL0     H 2633   8.312   2.328   6.924 -0.7232 -3.3670 -0.6179
   20MOL0     H 2634   8.175   2.522   7.037  2.4107 -2.7808 -0.4622
   20MOL0     H 2635   7.823   2.688   6.848  0.6758  0.1205  1.3794
   20MOL0     H 2636   7.737   2.548   6.908 -0.9823  1.1152 -1.1155
   20MOL0     H 2637   7.801   2.813   7.039  0.1299 -0.1429 -2.6216
   20MOL0     H 2638   7.764   2.660   7.139 -0.3781 -1.4284 -1.1675
   20MOL0     H 2639   7.559   2.628   7.005 -0.2434  0.0597 -2.1606
   20MOL0     H 2640   7.580   2.786   6.926 -1.3672  0.7786  1.0437
   20MOL0     H 2641   7.534   2.711   7.218 -0.1365 -0.8618 -0.0443
   20MOL0     H 2642   7.590   2.871   7.168 -3.1963  0.1011  2.5965
   20MOL0     H 2643   7.327   2.764   7.055 -1.9089  2.0455  0.9899
   20MOL0     H 2644   7.344   2.872   7.200  0.3062 -1.0955  1.7532
   20MOL0     H 2645   7.464   3.033   7.057  2.0750  0.4785 -4.6404
   20MOL0     H 2646   7.422   2.928   6.916 -0.7207 -0.3183 -0.9135
   20MOL0     H 2647   7.228   3.078   7.089  2.8775  0.8347 -0.0283
   20MOL0     H 2648   7.185   2.968   6.946 -0.8786  0.1061 -1.5041
   20MOL0     H 2649   7.310   3.238   6.971  0.0885  0.3222 -0.8977
   20MOL0     H 2650   7.349   3.143   6.839  0.0642  1.4536 -0.3946
   20MOL0     H 2651   7.010   3.292   7.000 -0.3361  0.9610  1.0605
   20MOL0     H 2652   6.825   3.457   6.861 -0.2434  1.3707 -1.7046
   20MOL0     H 2653   6.793   3.394   6.697  1.4752 -1.8747 -0.8462
   20MOL0     H 2654   6.694   3.252   6.953 -2.0674  1.2089  0.4461
   20MOL0     H 2655   6.604   3.327   6.829  0.2560  2.5280  1.3188
   20MOL0     H 2656   6.626   3.070   6.794  0.7957 -0.5152  0.6232
   20MOL0     H 2657   6.792   3.094   6.752  0.1390  1.2995 -0.0144
   20MOL0     H 2658   6.736   3.225   6.555 -1.3207 -0.3290 -3.4849
   20MOL0     H 2659   6.564   3.220   6.610 -0.2102 -0.9755 -0.0700
   20MOL0     H 2660   6.911   3.044   6.510 -1.5432 -0.5784  0.4611
   20MOL0     H 2661   7.002   2.998   6.284  0.9030 -2.4412  1.3039
   20MOL0     H 2662   6.615   2.898   5.777 -0.7157  0.4838 -3.1489
   20MOL0     H 2663   6.671   2.804   5.545  0.5153 -0.8500  2.4131
   20MOL0     H 2664   6.969   2.980   5.379 -0.1628 -0.2381  0.4645
   20MOL0     H 2665   7.095   2.860   5.421  0.8194  1.6992 -0.0425
   20MOL0     H 2666   6.904   2.877   5.166 -0.0252 -0.9767 -1.2786
   20MOL0     H 2667   7.075   2.898   5.166  0.0746  1.6730 -0.0861
   20MOL0     H 2668   6.904   2.646   5.204 -1.1777  2.6971  1.2635
   20MOL0     H 2669   7.006   2.683   5.063 -1.1505 -0.8469 -0.3806
   20MOL0     H 2670   7.126   2.649   5.338 -2.4324  1.5488 -0.2646
   20MOL0     H 2671   7.209   2.635   5.184  1.3429  1.9359  1.5981
   20MOL0     H 2672   6.997   2.440   5.270 -1.1838 -1.3418 -3.6469
   20MOL0     H 2673   7.162   2.444   5.331  0.0051  0.5277  0.8986
   20MOL0     H 2674   7.098   2.283   5.129 -0.6513  1.7203  1.8401
   20MOL0     H 2675   7.126   2.424   5.031 -2.5935 -0.4642  0.9404
   20MOL0     H 2676   7.325   2.310   5.232 -1.7695 -1.6902 -0.1972
   20MOL0     H 2677   7.355   2.449   5.132 -1.8038  0.2681 -1.4737
   20MOL0     H 2678   7.375   2.294   4.930  0.5360  0.9622  1.0394
   20MOL0     H 2679   7.494   2.249   5.053  1.5376 -0.0403 -0.3784
   20MOL0     H 2680   7.086   2.899   5.620 -0.2054  0.6457 -0.0961
   20MOL0     H 2681   7.037   2.965   5.840 -0.2431  0.1585  0.3165
   20MOL0     H 2682   6.605   2.974   6.117  1.0457 -2.3326 -0.2121
   20MOL0     H 2683   6.505   3.014   6.344 -0.1659 -2.9731 -0.5956
   20MOL0     H 2684   7.881   2.474   6.728 -0.3721  0.8118 -0.3883
   20MOL0     H 2685   8.024   2.296   6.624 -2.6057 -0.9366  0.5346
   20MOL0     H 2686   8.391   1.855   6.758  1.3259 -0.0967  1.0851
   20MOL0     H 2687   8.594   1.759   6.675 -0.8569  0.1938  1.5156
   20MOL0     H 2688   8.892   2.053   6.565 -2.8258  2.0003 -1.2707
   20MOL0     H 2689   8.858   2.019   6.396  0.0341 -2.2752 -0.8768
   20MOL0     H 2690   9.008   1.817   6.402  2.1766 -2.1742  0.7940
   20MOL0     H 2691   9.041   1.862   6.570  0.2408 -0.9346 -0.0387
   20MOL0     H 2692   9.182   2.046   6.490  0.8354  0.5867 -1.4070
   20MOL0     H 2693   9.103   2.041   6.326  1.5701  0.6661 -0.2139
   20MOL0     H 2694   9.333   1.909   6.444  3.5065  0.9049 -4.3906
   20MOL0     H 2695   9.226   1.786   6.371  1.5879 -1.0258 -1.8268
   20MOL0     H 2696   9.444   1.982   6.060 -2.1810 -1.3609 -0.6564
   20MOL0     H 2697   8.683   2.136   6.470  2.5327 -1.0363  1.3632
   20MOL0     H 2698   8.540   2.316   6.461 -0.5164  0.9728 -0.5727
   20MOL0     H 2699   8.376   2.257   6.469  1.4060  1.0307 -2.8049
   20MOL0     H 2700   8.455   2.341   6.605 -1.2862  0.6723 -1.1070
   21MOL0     O 2701   5.785   6.350   1.196 -0.8789 -0.1180  0.7082
   21MOL0     C 2702   5.809   6.251   1.264  0.4471  0.0244  0.5777
   21MOL0     O 2703   5.899   6.155   1.230 -0.1242 -0.8409  0.1368
   21MOL0     C 2704   5.946   6.159   1.101  0.1032 -0.0235 -0.0772
   21MOL0     C 2705   6.058   6.223   1.067 -0.1172 -0.0339  0.1513
   21MOL0     C 2706   6.098   6.224   0.934 -1.3205  0.4414 -0.0612
   21MOL0     C 2707   6.044   6.143   0.835 -0.2108 -0.1142  0.6532
   21MOL0     O 2708   6.112   6.128   0.716  1.2083  0.2407  0.1292
   21MOL0     C 2709   6.025   6.115   0.601 -0.2748 -0.8147 -0.3011
   21MOL0     C 2710   5.996   6.252   0.541  0.4926 -1.0806  0.9297
   21MOL0     C 2711   5.929   6.354   0.625 -0.6564  0.0990 -0.3814
   21MOL0     C 2712   5.861   6.470   0.545  0.1338  0.1881  0.2938
   21MOL0     C 2713   5.833   6.585   0.648  0.4839  0.2298  0.9765
   21MOL0     C 2714   5.710   6.560   0.728 -1.0783 -0.2090 -0.3882
   21MOL0     C 2715   5.652   6.696   0.793  0.3064  0.5691  0.3696
   21MOL0     C 2716   5.560   6.678   0.910  0.2537  0.7738  0.4737
   21MOL0     N 2717   5.427   6.635   0.856  0.5995  0.0549 -0.2119
   21MOL0     C 2718   5.382   6.507   0.816 -0.3188 -0.3250  0.5836
   21MOL0     C 2719   5.248   6.518   0.789 -0.3161  0.7886  0.3379
   21MOL0     C 2720   5.154   6.418   0.733  0.0699  0.0845  1.9308
   21MOL0     C 2721   5.181   6.274   0.777  0.2533 -1.0552  1.1218
   21MOL0     C 2722   5.114   6.261   0.919  0.3040  0.8896  0.3517
   21MOL0     C 2723   5.081   6.111   0.952 -0.1817 -0.1413  0.7940
   21MOL0     O 2724   5.067   6.112   1.096  0.9363  0.6695 -0.0921
   21MOL0     C 2725   5.002   6.004   1.154 -0.4547 -0.3018 -0.4839
   21MOL0     C 2726   4.938   5.902   1.081  0.0834  0.0222  0.3969
   21MOL0     C 2727   4.888   5.798   1.154 -0.2855  0.1350  0.0222
   21MOL0     C 2728   4.884   5.795   1.295  0.4453 -0.4040 -0.1872
   21MOL0     C 2729   4.820   5.683   1.373 -0.1172  1.2287  0.6080
   21MOL0     O 2730   4.795   5.575   1.294 -0.5712 -1.1154 -0.5647
   21MOL0     C 2731   4.705   5.484   1.341  0.0753 -0.1690  0.4330
   21MOL0     C 2732   4.572   5.507   1.313  0.3426  0.4691  0.2284
   21MOL0     C 2733   4.474   5.415   1.353 -0.3220 -0.4660  0.2292
   21MOL0     C 2734   4.507   5.294   1.416  1.3646 -0.3543 -0.4943
   21MOL0     O 2735   4.418   5.194   1.444 -0.0561  0.0151 -0.3271
   21MOL0     C 2736   4.283   5.211   1.472  0.2973 -0.1721 -0.0894
   21MOL0     C 2737   4.200   5.095   1.431 -0.1316 -0.3953  0.2209
   21MOL0     C 2738   4.149   5.088   1.286  0.1615 -0.6033  0.4101
   21MOL0     C 2739   4.037   5.182   1.254  0.8953  0.4900 -0.1518
   21MOL0     C 2740   3.967   5.157   1.121  0.3024 -0.5332  0.1301
   21MOL0     C 2741   3.843   5.246   1.124 -1.3078 -0.1725 -0.4716
   21MOL0     C 2742   3.742   5.200   1.020  0.5164 -0.0322  0.1655
   21MOL0     C 2743   3.674   5.319   0.968  0.0564  0.5860 -0.0642
   21MOL0    Cl 2744   3.559   5.242   0.840 -0.1558  0.0345 -0.2415
   21MOL0     C 2745   4.642   5.271   1.457  0.1121 -0.8198 -0.2803
   21MOL0     C 2746   4.743   5.368   1.411 -0.1785  0.4542  0.8353
   21MOL0     O 2747   4.800   5.688   1.497  0.0906 -1.0269 -0.6217
   21MOL0     C 2748   4.950   5.897   1.364 -0.7697  0.3398  0.4807
   21MOL0     C 2749   5.017   5.998   1.296  1.1337  0.4779  1.1425
   21MOL0     N 2750   5.222   6.653   0.800 -0.8055  0.2986 -0.0513
   21MOL0     N 2751   5.327   6.719   0.843  0.4953 -0.1297  0.0640
   21MOL0     C 2752   5.932   6.060   0.874  0.6434  0.4541 -0.5276
   21MOL0     C 2753   5.879   6.084   1.006  0.3129  0.6337  0.4934
   21MOL0     C 2754   5.745   6.243   1.396  0.0994 -0.7026  0.1640
   21MOL0     C 2755   5.642   6.329   1.425 -0.3421 -0.5867 -0.0351
   21MOL0     C 2756   5.572   6.326   1.543 -0.5770 -0.2036 -0.8160
   21MOL0     C 2757   5.606   6.242   1.647  0.7821  0.4713 -0.0744
   21MOL0     O 2758   5.521   6.256   1.754 -0.1519  0.3614  0.4512
   21MOL0     C 2759   5.544   6.181   1.875 -0.5295  0.5431  0.1978
   21MOL0     C 2760   5.412   6.158   1.940 -0.8130  0.1335 -0.3851
   21MOL0     C 2761   5.424   6.113   2.093 -0.2992 -0.2931 -0.3560
   21MOL0     C 2762   5.520   6.007   2.127  0.7282  0.8128 -0.2491
   21MOL0     C 2763   5.528   5.982   2.272  0.5888  0.3081 -0.2951
   21MOL0     C 2764   5.534   5.955   2.395  0.0558  0.0924  0.5988
   21MOL0     C 2765   5.700   6.146   1.624 -1.1245 -0.4173 -0.3595
   21MOL0     C 2766   5.771   6.145   1.503 -0.0886 -0.0420  0.2947
   21MOL0     C 2767   5.878   6.029   1.484 -0.6241  0.0129 -0.8667
   21MOL0     H 2768   6.104   6.276   1.149 -2.1266 -1.8165  2.5778
   21MOL0     H 2769   6.183   6.279   0.894 -0.4993 -1.3564 -0.9032
   21MOL0     H 2770   6.086   6.063   0.527 -0.4228 -0.8220 -0.4176
   21MOL0     H 2771   5.937   6.054   0.624  2.1475 -4.5872 -0.1818
   21MOL0     H 2772   5.925   6.236   0.460  1.3985 -2.9043  0.4494
   21MOL0     H 2773   6.089   6.295   0.501  0.3849  2.0239  3.5826
   21MOL0     H 2774   6.002   6.404   0.690  0.6596 -3.6230  1.2746
   21MOL0     H 2775   5.863   6.306   0.698 -0.3982 -1.6488 -1.2558
   21MOL0     H 2776   5.934   6.507   0.473 -0.4389  0.9452  0.0896
   21MOL0     H 2777   5.767   6.430   0.507 -0.1422  0.7296  0.3855
   21MOL0     H 2778   5.917   6.600   0.716  1.0396 -0.8573  0.5557
   21MOL0     H 2779   5.824   6.679   0.592  0.7492 -0.2700  0.0681
   21MOL0     H 2780   5.630   6.513   0.670 -2.7890  1.3638  0.6112
   21MOL0     H 2781   5.735   6.485   0.804  0.7498 -1.4493 -2.0788
   21MOL0     H 2782   5.593   6.748   0.718 -0.8741 -0.8875  0.2358
   21MOL0     H 2783   5.731   6.762   0.830 -0.8656  1.4278  1.4229
   21MOL0     H 2784   5.601   6.608   0.983 -0.7309  1.2036  1.4796
   21MOL0     H 2785   5.546   6.771   0.966  3.9043  0.4600  2.1680
   21MOL0     H 2786   5.433   6.411   0.817  0.0636 -0.1664 -0.8844
   21MOL0     H 2787   5.049   6.446   0.744 -0.1683  0.4683 -0.6726
   21MOL0     H 2788   5.174   6.416   0.626  0.3294  2.4939  1.9000
   21MOL0     H 2789   5.146   6.198   0.706  1.9858 -2.3721  1.6030
   21MOL0     H 2790   5.285   6.247   0.798  0.7015  0.2007  0.6143
   21MOL0     H 2791   5.028   6.325   0.939 -0.0428 -0.3303  3.2149
   21MOL0     H 2792   5.193   6.288   0.990  1.4581  0.2571 -0.6670
   21MOL0     H 2793   5.158   6.051   0.904 -1.4718 -1.1785 -0.0127
   21MOL0     H 2794   4.981   6.090   0.912 -0.3699  2.0685 -0.0500
   21MOL0     H 2795   4.926   5.890   0.974  0.4553 -0.7352  0.4297
   21MOL0     H 2796   4.829   5.724   1.099 -1.0807  0.6545  0.1541
   21MOL0     H 2797   4.539   5.598   1.263 -1.1456 -0.4092 -0.4496
   21MOL0     H 2798   4.370   5.440   1.335  0.0038  2.3896  1.8377
   21MOL0     H 2799   4.271   5.225   1.580  0.2097 -3.9339  0.5105
   21MOL0     H 2800   4.248   5.305   1.427  1.4994  0.5936  0.5046
   21MOL0     H 2801   4.252   5.001   1.451 -0.0425  0.1148  2.7144
   21MOL0     H 2802   4.110   5.087   1.492 -0.0817  1.5081  0.6058
   21MOL0     H 2803   4.230   5.120   1.220 -2.1801  0.2203 -2.2328
   21MOL0     H 2804   4.115   4.986   1.269 -0.6536 -0.6077  1.8697
   21MOL0     H 2805   4.068   5.287   1.257  1.8418  0.3376 -2.5625
   21MOL0     H 2806   3.974   5.174   1.343  2.1539  1.5998  0.8868
   21MOL0     H 2807   3.947   5.053   1.095 -4.1680  0.7241 -2.6481
   21MOL0     H 2808   4.028   5.186   1.036  0.5887 -1.6039 -0.0449
   21MOL0     H 2809   3.801   5.232   1.224  2.1315 -2.3714  0.8653
   21MOL0     H 2810   3.871   5.351   1.113 -0.6217 -0.4296 -1.3090
   21MOL0     H 2811   3.671   5.123   1.053  0.5334 -0.4734 -0.7823
   21MOL0     H 2812   3.779   5.143   0.934 -1.8090 -1.6374  0.1326
   21MOL0     H 2813   3.624   5.375   1.047 -0.2170 -1.0148  0.9485
   21MOL0     H 2814   3.749   5.377   0.914 -1.4132  2.3016 -0.3703
   21MOL0     H 2815   4.669   5.183   1.515 -0.7011 -0.3563  0.8413
   21MOL0     H 2816   4.846   5.365   1.444 -0.4045 -0.2032  1.5052
   21MOL0     H 2817   4.934   5.893   1.471  0.5101  1.4093  0.7429
   21MOL0     H 2818   5.052   6.089   1.343 -0.5044  1.9896 -0.4008
   21MOL0     H 2819   5.899   5.973   0.819  1.0597 -0.1943  0.2251
   21MOL0     H 2820   5.795   6.021   1.034  3.3238 -3.6702  0.8053
   21MOL0     H 2821   5.609   6.408   1.358 -1.1159 -0.1029  0.9020
   21MOL0     H 2822   5.487   6.391   1.561  0.0727  0.5558 -0.4405
   21MOL0     H 2823   5.600   6.246   1.942 -2.4903  1.2372  1.2504
   21MOL0     H 2824   5.587   6.081   1.865 -1.9504 -0.2526  1.5370
   21MOL0     H 2825   5.351   6.085   1.886  0.2574 -1.7260  0.8068
   21MOL0     H 2826   5.356   6.252   1.929 -0.9862  0.1707  0.6818
   21MOL0     H 2827   5.329   6.072   2.129 -2.2587  2.7372 -1.6307
   21MOL0     H 2828   5.448   6.205   2.147  0.4659  0.8121 -2.4720
   21MOL0     H 2829   5.486   5.914   2.081 -1.7532  0.7536  1.4797
   21MOL0     H 2830   5.616   6.014   2.075  2.4484  1.2285  2.7044
   21MOL0     H 2831   5.542   5.935   2.500 -0.6211 -3.0899  0.1365
   21MOL0     H 2832   5.717   6.070   1.700 -3.0295 -0.1173  0.4200
   21MOL0     H 2833   5.972   6.076   1.453 -0.2414 -0.1089  0.0786
   21MOL0     H 2834   5.912   5.987   1.580 -0.8948  2.6735  0.4800
   21MOL0     H 2835   5.844   5.951   1.414  1.0893 -1.5937 -0.0128
   22MOL0     O 2836   4.966   0.007   1.083 -0.3792 -0.4499 -0.4929
   22MOL0     C 2837   4.936  -0.021   1.202  0.2318  0.0764  0.3833
   22MOL0     O 2838   4.820  -0.071   1.241  0.2737 -0.3598  0.2448
   22MOL0     C 2839   4.717  -0.080   1.150  0.0659  1.2158 -0.3231
   22MOL0     C 2840   4.642   0.022   1.102 -1.1486  0.0939  0.3950
   22MOL0     C 2841   4.546  -0.008   1.004 -0.6732  0.3670  0.0370
   22MOL0     C 2842   4.519  -0.139   0.959 -0.1737 -0.4577  0.4249
   22MOL0     O 2843   4.426  -0.165   0.865 -0.7034 -0.7659 -0.0557
   22MOL0     C 2844   4.293  -0.125   0.891  0.1949 -0.6024 -0.1454
   22MOL0     C 2845   4.193  -0.245   0.868 -0.4631  0.0135 -0.3515
   22MOL0     C 2846   4.217  -0.373   0.952 -0.4829  0.0561  0.1019
   22MOL0     C 2847   4.107  -0.478   0.939 -0.7699 -0.0023  0.0590
   22MOL0     C 2848   4.105  -0.587   1.047 -0.1842 -0.0814 -1.1256
   22MOL0     C 2849   4.058  -0.549   1.189  0.2668  0.4779  1.2006
   22MOL0     C 2850   3.913  -0.488   1.187 -0.2031  0.3294 -0.8022
   22MOL0     C 2851   3.859  -0.458   1.328 -0.2550  0.2752  0.4865
   22MOL0     N 2852   3.938  -0.365   1.413 -0.4339 -0.1315 -0.1445
   22MOL0     C 2853   3.911  -0.231   1.410  0.5014 -0.5791 -0.2725
   22MOL0     C 2854   3.971  -0.189   1.529 -0.4542  0.1558  0.8877
   22MOL0     C 2855   3.971  -0.052   1.591 -0.6665 -0.1694  0.7094
   22MOL0     C 2856   3.846   0.012   1.644  0.4460 -0.4841 -0.1557
   22MOL0     C 2857   3.768  -0.081   1.730 -0.9046 -0.1618 -0.3772
   22MOL0     C 2858   3.640  -0.006   1.772 -0.3921  0.1159 -0.0391
   22MOL0     O 2859   3.536  -0.039   1.675 -0.5369 -0.1040  0.2067
   22MOL0     C 2860   3.415  -0.040   1.735  0.2488 -0.1547  0.7437
   22MOL0     C 2861   3.338  -0.161   1.744 -0.3823  0.1946  0.2657
   22MOL0     C 2862   3.202  -0.160   1.801 -0.1682 -0.0629  0.0825
   22MOL0     C 2863   3.156  -0.036   1.856  0.4325  0.4300  0.0079
   22MOL0     C 2864   3.020  -0.024   1.920  0.4831 -0.9834 -0.0024
   22MOL0     O 2865   2.932  -0.124   1.889 -0.3874  0.1824  0.5070
   22MOL0     C 2866   2.800  -0.115   1.922 -0.1538  0.4853 -0.3464
   22MOL0     C 2867   2.719  -0.005   1.881  0.4849 -0.1685 -0.9718
   22MOL0     C 2868   2.584   0.010   1.929 -0.5434  0.1859 -0.6880
   22MOL0     C 2869   2.526  -0.095   2.002  0.3074 -0.4656 -0.0522
   22MOL0     O 2870   2.393  -0.093   2.046 -0.9058  0.1403  0.4461
   22MOL0     C 2871   2.319   0.023   2.033  0.7915 -0.7489 -1.2976
   22MOL0     C 2872   2.254   0.012   1.895  0.0391 -0.3635  0.0368
   22MOL0     C 2873   2.152   0.125   1.868 -0.5267  0.9898 -0.2240
   22MOL0     C 2874   2.063   0.076   1.750  0.1729 -0.3181  0.6754
   22MOL0     C 2875   1.966   0.186   1.711  0.1339  0.0053 -0.5208
   22MOL0     C 2876   1.890   0.135   1.587  0.1911  0.6742 -0.2220
   22MOL0     C 2877   1.829   0.263   1.519 -1.2185 -0.2272 -0.2480
   22MOL0     C 2878   1.742   0.231   1.384  0.1339 -0.0697 -0.3632
   22MOL0    Cl 2879   1.733   0.390   1.298 -0.2955  0.3167 -0.3057
   22MOL0     C 2880   2.604  -0.206   2.041  0.3530  0.3658 -0.3813
   22MOL0     C 2881   2.739  -0.217   2.000  0.0386 -0.8380  0.8145
   22MOL0     O 2882   3.006   0.079   1.993 -0.1051  0.2121  0.4033
   22MOL0     C 2883   3.238   0.079   1.850 -0.2571 -0.9048 -0.1051
   22MOL0     C 2884   3.368   0.078   1.799 -0.6660 -0.2420 -0.5353
   22MOL0     N 2885   4.041  -0.290   1.586 -0.2836 -0.4885 -0.2344
   22MOL0     N 2886   4.012  -0.398   1.520 -0.6753  0.0244 -0.5066
   22MOL0     C 2887   4.595  -0.243   1.014 -0.1319 -0.1533  0.8416
   22MOL0     C 2888   4.689  -0.212   1.107  0.7218  0.6324 -1.0157
   22MOL0     C 2889   5.027   0.026   1.315 -0.2678  0.3346 -0.2023
   22MOL0     C 2890   4.967   0.057   1.436 -0.7247  0.5547 -0.5092
   22MOL0     C 2891   5.056   0.106   1.543 -0.7087 -0.5047 -0.8029
   22MOL0     C 2892   5.192   0.128   1.513 -0.0382 -0.5456  0.9757
   22MOL0     O 2893   5.266   0.187   1.617 -0.6949  0.0641  0.4351
   22MOL0     C 2894   5.381   0.259   1.572  0.5138 -0.8944  0.3642
   22MOL0     C 2895   5.408   0.372   1.667  0.0301  0.6685  0.0394
   22MOL0     C 2896   5.502   0.469   1.616  0.3988  0.2521  1.0382
   22MOL0     C 2897   5.640   0.426   1.635 -0.9049 -0.1961 -0.7249
   22MOL0     C 2898   5.744   0.528   1.633 -0.3245 -0.0767 -0.8579
   22MOL0     C 2899   5.848   0.592   1.612  0.9367 -0.0281 -0.6517
   22MOL0     C 2900   5.249   0.079   1.390  0.6721  0.7389 -0.5655
   22MOL0     C 2901   5.171   0.031   1.287 -0.5250 -0.0965 -0.6301
   22MOL0     C 2902   5.251  -0.006   1.168 -0.2987  0.2793 -0.0454
   22MOL0     H 2903   4.647   0.121   1.148 -4.5213 -0.0563  1.3338
   22MOL0     H 2904   4.485   0.073   0.966 -0.7317  0.5735  0.5593
   22MOL0     H 2905   4.286  -0.081   0.991  1.5146  0.1745 -0.3719
   22MOL0     H 2906   4.264  -0.053   0.814 -1.6392 -0.8895  0.2336
   22MOL0     H 2907   4.188  -0.266   0.761 -1.3327  0.7647 -0.4655
   22MOL0     H 2908   4.095  -0.209   0.899  0.7456  2.9880  0.2957
   22MOL0     H 2909   4.228  -0.341   1.055  1.8076  1.2825 -0.4486
   22MOL0     H 2910   4.307  -0.428   0.923 -0.0345  1.1552 -0.6811
   22MOL0     H 2911   4.014  -0.421   0.931  0.5016  2.8474  2.9761
   22MOL0     H 2912   4.129  -0.530   0.846 -1.0169 -2.9959  1.5604
   22MOL0     H 2913   4.047  -0.672   1.010 -0.0072 -0.2708 -0.9690
   22MOL0     H 2914   4.206  -0.627   1.055 -0.5062 -1.1326 -2.0219
   22MOL0     H 2915   4.055  -0.641   1.248 -0.6171  0.8511  1.7713
   22MOL0     H 2916   4.132  -0.488   1.241 -0.6863 -0.2551  3.5316
   22MOL0     H 2917   3.849  -0.548   1.123 -0.6868 -0.6843  0.5838
   22MOL0     H 2918   3.924  -0.393   1.134  2.3157  0.1927 -0.6547
   22MOL0     H 2919   3.756  -0.421   1.324  0.2741  1.6691 -1.2945
   22MOL0     H 2920   3.855  -0.557   1.375  1.3854 -0.8698 -1.6295
   22MOL0     H 2921   3.842  -0.182   1.343 -1.9401 -1.5998  1.3623
   22MOL0     H 2922   4.038  -0.067   1.676 -2.3493 -1.9351  1.8118
   22MOL0     H 2923   4.012   0.016   1.515  0.5909  0.6453  2.0574
   22MOL0     H 2924   3.867   0.103   1.700 -0.1209 -0.0818 -0.5946
   22MOL0     H 2925   3.790   0.041   1.555 -0.2562 -0.1550  0.3888
   22MOL0     H 2926   3.815  -0.112   1.824 -0.2584 -0.7540 -0.8875
   22MOL0     H 2927   3.752  -0.170   1.670  0.3009 -0.5808 -0.0979
   22MOL0     H 2928   3.667   0.100   1.772 -1.4445  0.3930  0.1268
   22MOL0     H 2929   3.614  -0.040   1.873  0.1096 -0.9776 -0.2607
   22MOL0     H 2930   3.369  -0.250   1.690 -1.8319 -0.5817  0.6522
   22MOL0     H 2931   3.138  -0.248   1.798 -3.2049  1.9589  0.5464
   22MOL0     H 2932   2.765   0.083   1.840  1.2313  1.0968  2.2371
   22MOL0     H 2933   2.526   0.100   1.914 -4.5460 -1.9284  0.5410
   22MOL0     H 2934   2.253   0.036   2.119  2.2146  1.6691 -0.4672
   22MOL0     H 2935   2.389   0.106   2.044  2.3334 -2.2487  1.6053
   22MOL0     H 2936   2.326   0.036   1.816 -3.1080  1.6376 -2.4889
   22MOL0     H 2937   2.203  -0.084   1.884 -4.5467  1.5647  2.1883
   22MOL0     H 2938   2.088   0.149   1.953 -1.9601 -1.0097 -0.6485
   22MOL0     H 2939   2.209   0.213   1.836  0.0521 -0.3009 -3.0136
   22MOL0     H 2940   2.006  -0.015   1.773 -0.5473 -1.7569 -5.2390
   22MOL0     H 2941   2.121   0.047   1.662 -0.4095  2.1899 -0.6296
   22MOL0     H 2942   2.027   0.273   1.687 -1.3170  2.3257  3.2707
   22MOL0     H 2943   1.910   0.227   1.795  0.1901 -0.2980 -0.3324
   22MOL0     H 2944   1.963   0.085   1.522  1.2041  2.4884 -0.5446
   22MOL0     H 2945   1.813   0.062   1.615  0.8382  1.2203  3.4820
   22MOL0     H 2946   1.913   0.330   1.499 -2.1550  1.6397  1.7110
   22MOL0     H 2947   1.769   0.319   1.591  0.5986  2.2172 -0.4977
   22MOL0     H 2948   1.785   0.150   1.324  3.6746 -1.3768  3.4589
   22MOL0     H 2949   1.651   0.200   1.436  0.3145 -0.1035 -0.0675
   22MOL0     H 2950   2.556  -0.280   2.103 -0.8442 -0.5127 -2.2688
   22MOL0     H 2951   2.813  -0.293   2.022  2.8905  1.9042  1.5069
   22MOL0     H 2952   3.212   0.180   1.880  2.9999  1.1795 -3.3998
   22MOL0     H 2953   3.419   0.173   1.801 -2.0983  0.5504  1.9301
   22MOL0     H 2954   4.578  -0.340   0.968  0.2229  0.0307  0.3201
   22MOL0     H 2955   4.744  -0.298   1.145 -1.2127  0.2496  1.1583
   22MOL0     H 2956   4.864   0.047   1.469 -0.0663 -0.3866  1.3728
   22MOL0     H 2957   5.016   0.138   1.639 -0.6176  0.6799 -1.1462
   22MOL0     H 2958   5.361   0.306   1.475  2.3225 -0.0245  0.3712
   22MOL0     H 2959   5.477   0.206   1.566  2.2773  2.2078 -1.7255
   22MOL0     H 2960   5.443   0.326   1.761  1.8625 -2.8188 -2.1280
   22MOL0     H 2961   5.319   0.433   1.689 -1.1448 -0.8510 -0.3402
   22MOL0     H 2962   5.491   0.559   1.677 -0.3912  2.1561 -1.7433
   22MOL0     H 2963   5.487   0.500   1.512 -0.3247 -1.2807  0.6505
   22MOL0     H 2964   5.653   0.382   1.735  1.9954 -2.3427 -1.9171
   22MOL0     H 2965   5.664   0.343   1.568  1.3060 -0.9683  0.9131
   22MOL0     H 2966   5.937   0.644   1.585  1.2578 -0.5232 -0.5724
   22MOL0     H 2967   5.352   0.105   1.369  0.0776  2.3372 -1.6917
   22MOL0     H 2968   5.359  -0.003   1.182  0.4399  0.0436 -4.2937
   22MOL0     H 2969   5.219  -0.109   1.150 -0.5443  0.7034 -2.4365
   22MOL0     H 2970   5.238   0.058   1.080  1.6098 -1.2777 -1.5519
   23MOL0     O 2971  10.060   0.873   3.903 -0.2515  0.6989  0.1854
   23MOL0     C 2972   9.972   0.903   3.818  0.9370  0.3826  0.2847
   23MOL0     O 2973   9.842   0.884   3.842  0.1719 -0.7688 -0.4652
   23MOL0     C 2974   9.796   0.828   3.962  0.0235  0.1975 -0.3492
   23MOL0     C 2975   9.850   0.710   4.011 -0.1769  0.3903 -0.8290
   23MOL0     C 2976   9.812   0.653   4.131  0.5266  0.3511 -0.2063
   23MOL0     C 2977   9.719   0.724   4.209 -0.0324  0.4811  0.0303
   23MOL0     O 2978   9.690   0.655   4.327 -0.0525  0.3560 -0.5369
   23MOL0     C 2979   9.607   0.725   4.419 -0.1442 -0.1244  0.2401
   23MOL0     C 2980   9.562   0.640   4.536  0.0070 -0.8982  0.1855
   23MOL0     C 2981   9.447   0.699   4.630 -0.4755  0.1669  0.7126
   23MOL0     C 2982   9.408   0.605   4.739  0.4230  0.2166  0.8194
   23MOL0     C 2983   9.305   0.675   4.825 -0.4721  0.2620 -0.2197
   23MOL0     C 2984   9.161   0.677   4.757  1.5404  0.0191 -0.0316
   23MOL0     C 2985   9.058   0.677   4.878 -0.4730 -0.8311 -0.1035
   23MOL0     C 2986   9.045   0.541   4.944  1.1237  0.3144 -0.4433
   23MOL0     N 2987   8.934   0.458   4.880  0.4881  0.0414  0.0384
   23MOL0     C 2988   8.814   0.419   4.933 -0.5195 -0.8792 -0.8806
   23MOL0     C 2989   8.769   0.325   4.853 -0.3326  1.1027 -0.8067
   23MOL0     C 2990   8.652   0.232   4.892 -0.4301  0.1537  0.1637
   23MOL0     C 2991   8.524   0.295   4.867  0.2361  0.0942  0.2749
   23MOL0     C 2992   8.403   0.210   4.880 -0.3890 -0.3284  0.0851
   23MOL0     C 2993   8.392   0.107   4.772  0.5004 -0.4515  0.7336
   23MOL0     O 2994   8.374   0.182   4.646  0.1439 -1.6159  0.0116
   23MOL0     C 2995   8.407   0.116   4.529 -0.0259 -0.2814 -0.1785
   23MOL0     C 2996   8.480  -0.002   4.515  0.0302 -0.0141  0.2375
   23MOL0     C 2997   8.496  -0.064   4.388 -0.0361 -0.4850 -1.5226
   23MOL0     C 2998   8.460   0.012   4.273  0.0189  0.2431  0.3865
   23MOL0     C 2999   8.470  -0.047   4.135  0.8630 -0.2710 -0.5386
   23MOL0     O 3000   8.514  -0.169   4.124 -0.3440  0.4278 -0.7317
   23MOL0     C 3001   8.577  -0.207   4.009 -0.4310 -0.4767 -0.2276
   23MOL0     C 3002   8.545  -0.330   3.952 -0.0227  0.2763 -0.2290
   23MOL0     C 3003   8.599  -0.366   3.826 -0.8232 -0.7539  0.2328
   23MOL0     C 3004   8.690  -0.287   3.762 -0.7987  0.5537 -0.0914
   23MOL0     O 3005   8.751  -0.323   3.637 -0.0136 -0.2461  0.0531
   23MOL0     C 3006   8.665  -0.415   3.558 -0.5385 -0.7792 -1.2515
   23MOL0     C 3007   8.700  -0.386   3.411  0.1700 -0.3416  0.0802
   23MOL0     C 3008   8.843  -0.427   3.373  0.1167 -0.0947  0.9222
   23MOL0     C 3009   8.866  -0.427   3.229 -0.6495 -0.1382 -0.6004
   23MOL0     C 3010   9.024  -0.436   3.200 -0.3204  0.2270  0.2491
   23MOL0     C 3011   9.082  -0.560   3.266  0.2768  0.3210  0.1324
   23MOL0     C 3012   9.232  -0.606   3.237  0.2664 -0.5900  0.5989
   23MOL0     C 3013   9.344  -0.514   3.290 -0.0890 -0.3489  0.1239
   23MOL0    Cl 3014   9.366  -0.376   3.198 -0.0334 -0.5174  0.5033
   23MOL0     C 3015   8.726  -0.166   3.817  0.0621  0.1144 -0.3703
   23MOL0     C 3016   8.665  -0.124   3.937 -0.6381  0.4224  0.5706
   23MOL0     O 3017   8.426   0.022   4.043  0.1535 -0.0861 -0.1527
   23MOL0     C 3018   8.391   0.133   4.286  0.9818  0.6968  0.1756
   23MOL0     C 3019   8.361   0.184   4.415  0.4254 -0.1085  0.0265
   23MOL0     N 3020   8.850   0.314   4.745 -0.9893  0.0325  0.2865
   23MOL0     N 3021   8.940   0.414   4.752 -0.6446 -0.9884 -0.3343
   23MOL0     C 3022   9.667   0.852   4.176 -0.5702 -0.7336  0.1685
   23MOL0     C 3023   9.712   0.901   4.048 -0.0547 -0.2433  0.4222
   23MOL0     C 3024  10.008   0.952   3.689 -0.5358  0.1286 -0.5941
   23MOL0     C 3025   9.909   1.000   3.614 -0.2644 -0.6362  0.9026
   23MOL0     C 3026   9.927   1.053   3.486  0.6249 -1.1151  0.6139
   23MOL0     C 3027  10.053   1.068   3.434  0.5963  0.1470  0.6791
   23MOL0     O 3028  10.077   1.120   3.311  0.5397 -0.0330  0.5977
   23MOL0     C 3029   9.983   1.090   3.204 -0.0988  0.8997  0.9026
   23MOL0     C 3030  10.020   1.128   3.053 -0.5428 -0.1326 -0.0897
   23MOL0     C 3031   9.932   1.058   2.951  0.3180 -0.2329  1.6991
   23MOL0     C 3032   9.937   1.120   2.806 -0.7001 -0.2697  0.8709
   23MOL0     C 3033  10.053   1.068   2.732 -0.1641 -1.0924 -0.0079
   23MOL0     C 3034  10.156   1.070   2.663 -1.0169  0.0705  0.3588
   23MOL0     C 3035  10.165   1.029   3.512  0.2984 -0.7360 -0.4639
   23MOL0     C 3036  10.146   0.962   3.636  0.6155  0.2400  0.1458
   23MOL0     C 3037  10.274   0.895   3.689  0.0656 -0.4801  0.2057
   23MOL0     H 3038   9.917   0.656   3.944  0.3086 -0.0802  0.0301
   23MOL0     H 3039   9.854   0.559   4.165 -0.5990  0.0355  0.3568
   23MOL0     H 3040   9.664   0.810   4.458  1.8434 -1.8835  1.4563
   23MOL0     H 3041   9.521   0.753   4.358 -1.4218 -3.9616  0.0282
   23MOL0     H 3042   9.642   0.597   4.597  0.0253 -0.9748  0.1095
   23MOL0     H 3043   9.525   0.553   4.480 -0.6846  2.3931 -5.2007
   23MOL0     H 3044   9.367   0.735   4.566  1.8648 -0.5655 -2.9728
   23MOL0     H 3045   9.491   0.785   4.680  1.6719 -1.1517  1.2429
   23MOL0     H 3046   9.368   0.510   4.700  2.6599 -0.5288  0.2095
   23MOL0     H 3047   9.497   0.583   4.797  1.5082  1.6023 -0.2531
   23MOL0     H 3048   9.293   0.623   4.921 -1.4307 -0.2654 -0.6088
   23MOL0     H 3049   9.342   0.775   4.847 -0.1285  0.1065 -0.0801
   23MOL0     H 3050   9.159   0.768   4.697  1.3560  1.5194  2.1147
   23MOL0     H 3051   9.146   0.586   4.698 -0.7076 -0.6260  1.3904
   23MOL0     H 3052   8.961   0.714   4.840  0.5043  1.0727 -0.9136
   23MOL0     H 3053   9.098   0.744   4.954 -1.3796 -1.6979  1.1813
   23MOL0     H 3054   9.135   0.479   4.938  1.6916  1.1111 -0.2566
   23MOL0     H 3055   9.028   0.545   5.052  0.8672 -2.4854 -0.3036
   23MOL0     H 3056   8.765   0.447   5.025  2.0274 -3.0664  1.3275
   23MOL0     H 3057   8.672   0.141   4.835  0.2535 -0.3662  1.1939
   23MOL0     H 3058   8.651   0.203   4.998 -2.8020 -0.1992  0.1022
   23MOL0     H 3059   8.518   0.386   4.927 -1.2759  0.2693 -0.0970
   23MOL0     H 3060   8.522   0.326   4.762 -0.4762  0.0789  0.2789
   23MOL0     H 3061   8.312   0.267   4.860 -2.0413 -2.5499  0.8389
   23MOL0     H 3062   8.392   0.174   4.983 -0.7987 -1.3949 -0.3150
   23MOL0     H 3063   8.313   0.032   4.784  0.3817 -0.2390  1.3425
   23MOL0     H 3064   8.483   0.047   4.781  0.2239 -1.0739 -0.4346
   23MOL0     H 3065   8.524  -0.050   4.602 -1.5331  0.6162  1.4142
   23MOL0     H 3066   8.556  -0.154   4.386  1.6431  0.2593  2.9752
   23MOL0     H 3067   8.482  -0.400   4.005 -1.4945  3.3846  2.5241
   23MOL0     H 3068   8.557  -0.457   3.783 -0.2180 -0.4118 -1.1211
   23MOL0     H 3069   8.679  -0.520   3.582 -2.2881 -0.6182  0.7490
   23MOL0     H 3070   8.560  -0.394   3.580 -0.2819 -0.4794 -0.2155
   23MOL0     H 3071   8.630  -0.433   3.341 -1.1417  2.0443 -0.3167
   23MOL0     H 3072   8.670  -0.281   3.406 -0.2210 -0.4619 -0.1257
   23MOL0     H 3073   8.895  -0.338   3.412 -0.2297  0.9395 -0.8768
   23MOL0     H 3074   8.874  -0.515   3.430  0.3556 -1.0629 -0.6697
   23MOL0     H 3075   8.821  -0.332   3.201 -0.5215  0.1406  0.1120
   23MOL0     H 3076   8.814  -0.515   3.191  2.5499 -0.5968 -4.6600
   23MOL0     H 3077   9.081  -0.352   3.241  0.9756 -2.0090  3.4693
   23MOL0     H 3078   9.038  -0.452   3.093  0.9359 -1.3381  0.6022
   23MOL0     H 3079   9.077  -0.549   3.374 -0.5370  0.7978  0.0506
   23MOL0     H 3080   9.028  -0.651   3.238  3.0681 -1.9213  1.4421
   23MOL0     H 3081   9.258  -0.633   3.135  3.2310 -1.4735  1.4901
   23MOL0     H 3082   9.232  -0.698   3.296  0.1015 -0.9021  0.1161
   23MOL0     H 3083   9.324  -0.484   3.394 -1.0392 -2.8509  0.7321
   23MOL0     H 3084   9.440  -0.564   3.275  0.4346  1.0358 -1.4271
   23MOL0     H 3085   8.800  -0.097   3.779  1.1503 -0.6698  0.2911
   23MOL0     H 3086   8.699  -0.034   3.988 -0.7964  0.5455  0.4601
   23MOL0     H 3087   8.349   0.185   4.201  0.4550  0.6088  0.3814
   23MOL0     H 3088   8.296   0.268   4.431 -3.2732 -2.8057  0.4538
   23MOL0     H 3089   9.595   0.908   4.234 -1.4410 -0.2211 -1.3452
   23MOL0     H 3090   9.661   0.992   4.017 -0.8424 -0.7554  0.1792
   23MOL0     H 3091   9.806   0.987   3.648 -0.5545 -3.1426 -0.6695
   23MOL0     H 3092   9.839   1.083   3.429  0.3285 -2.8839  0.0835
   23MOL0     H 3093   9.889   1.136   3.234  1.0380  2.9762  1.5288
   23MOL0     H 3094   9.960   0.983   3.207  1.8313  0.4566  1.4957
   23MOL0     H 3095  10.125   1.095   3.046 -0.8244 -1.1400  0.2247
   23MOL0     H 3096  10.002   1.235   3.050 -2.8547 -0.4361  1.1798
   23MOL0     H 3097   9.825   1.072   2.967  0.4712  1.0310  1.7685
   23MOL0     H 3098   9.949   0.950   2.951 -1.0893 -0.4752  1.9757
   23MOL0     H 3099   9.851   1.086   2.748 -1.7099 -0.1076  2.2346
   23MOL0     H 3100   9.943   1.229   2.819 -1.0652  0.1569 -1.9172
   23MOL0     H 3101  10.245   1.084   2.606 -0.5193 -0.2554  1.0364
   23MOL0     H 3102  10.259   1.036   3.458  0.1742  1.6882 -0.4678
   23MOL0     H 3103  10.308   0.949   3.778  3.3604 -1.1048 -0.5569
   23MOL0     H 3104  10.271   0.786   3.696  0.5397 -0.3988  2.8152
   23MOL0     H 3105  10.354   0.923   3.620  0.1884 -0.6786  0.2707
   24MOL0     O 3106   8.867   7.585   9.325 -0.3455 -0.3536  0.4895
   24MOL0     C 3107   8.823   7.649   9.424 -0.1290 -0.0869  0.0079
   24MOL0     O 3108   8.696   7.694   9.440  0.6842  0.4184  0.6719
   24MOL0     C 3109   8.599   7.684   9.333  0.4366 -0.5735  0.8871
   24MOL0     C 3110   8.619   7.721   9.196 -0.3112  0.0552 -0.3251
   24MOL0     C 3111   8.518   7.710   9.101 -0.1350  1.0872  0.3537
   24MOL0     C 3112   8.391   7.671   9.147  0.3143  0.3591  0.8354
   24MOL0     O 3113   8.292   7.659   9.050 -0.4904 -0.2495  0.5062
   24MOL0     C 3114   8.157   7.625   9.075 -0.2552 -0.5157 -0.1875
   24MOL0     C 3115   8.090   7.569   8.943 -0.1880  0.4662 -0.3140
   24MOL0     C 3116   7.939   7.568   8.953  0.2833 -0.1488 -0.6227
   24MOL0     C 3117   7.883   7.467   8.860  0.0680  0.1792  1.0198
   24MOL0     C 3118   7.905   7.495   8.706 -0.1753 -0.2515 -0.0653
   24MOL0     C 3119   7.850   7.383   8.617 -0.1971  1.5928 -0.9473
   24MOL0     C 3120   7.910   7.248   8.637 -0.2629  0.9670 -0.6856
   24MOL0     C 3121   8.064   7.239   8.636  0.3769 -1.3949 -0.4951
   24MOL0     N 3122   8.107   7.100   8.632  0.3215 -1.3016 -0.3964
   24MOL0     C 3123   8.125   7.016   8.739 -0.9217 -0.2306 -1.1454
   24MOL0     C 3124   8.183   6.915   8.684  0.2991 -0.1515 -0.5806
   24MOL0     C 3125   8.226   6.790   8.744 -0.5787  0.1968 -0.1592
   24MOL0     C 3126   8.272   6.810   8.897 -0.0292  0.4619 -0.0676
   24MOL0     C 3127   8.378   6.925   8.916  0.3105  0.4598  0.1724
   24MOL0     C 3128   8.428   6.952   9.060  0.0684  0.0723 -0.0938
   24MOL0     O 3129   8.483   6.829   9.116  0.3408 -0.3077 -0.2539
   24MOL0     C 3130   8.563   6.834   9.225  1.0739 -0.1612 -0.5729
   24MOL0     C 3131   8.590   6.945   9.302 -0.8918  0.0564 -0.1366
   24MOL0     C 3132   8.656   6.937   9.423 -0.1830 -0.6938  0.3329
   24MOL0     C 3133   8.712   6.818   9.468  0.1989 -0.3495  0.4106
   24MOL0     C 3134   8.792   6.812   9.591 -0.2602 -0.3959 -0.3299
   24MOL0     O 3135   8.767   6.916   9.687 -0.1906 -1.2220  0.6667
   24MOL0     C 3136   8.859   6.913   9.791 -0.8287 -0.5734  0.8286
   24MOL0     C 3137   8.971   6.999   9.799  1.2197 -0.0442  0.1214
   24MOL0     C 3138   9.050   7.005   9.911  0.7773 -0.4111  0.4649
   24MOL0     C 3139   9.043   6.916  10.016  0.6386  0.2095 -0.6849
   24MOL0     O 3140   9.136   6.919  10.121 -0.2002  0.7270  0.3853
   24MOL0     C 3141   9.190   6.793  10.166  0.3689  0.4407  0.0323
   24MOL0     C 3142   9.259   6.806  10.296 -0.2668  0.1526 -1.0006
   24MOL0     C 3143   9.386   6.885  10.307  0.1576  0.8875 -0.3686
   24MOL0     C 3144   9.510   6.823  10.229  0.4320  0.5668 -0.0212
   24MOL0     C 3145   9.638   6.895  10.286 -0.4487  0.1042 -0.5614
   24MOL0     C 3146   9.658   7.035  10.211 -0.3187 -0.2680  0.4047
   24MOL0     C 3147   9.636   7.147  10.313 -0.4610 -0.8334 -0.2589
   24MOL0     C 3148   9.610   7.282  10.243  0.1816  0.7645  0.5730
   24MOL0    Cl 3149   9.738   7.308  10.121  0.2478 -0.2859  0.2718
   24MOL0     C 3150   8.939   6.822  10.010 -0.6243 -0.5254 -0.5662
   24MOL0     C 3151   8.846   6.814   9.905 -0.2227 -1.4764 -0.6833
   24MOL0     O 3152   8.882   6.728   9.604  0.3020  0.4083  0.6981
   24MOL0     C 3153   8.686   6.697   9.399 -0.3162  0.4435 -0.0102
   24MOL0     C 3154   8.622   6.711   9.270  1.0001  0.4620 -0.1529
   24MOL0     N 3155   8.183   6.919   8.549  0.5774 -0.9197  0.8354
   24MOL0     N 3156   8.125   7.035   8.516 -0.3538 -0.4173 -0.2551
   24MOL0     C 3157   8.371   7.636   9.280  0.5716 -0.1473 -0.1470
   24MOL0     C 3158   8.471   7.646   9.376 -0.6255  0.1597  0.1318
   24MOL0     C 3159   8.913   7.684   9.536 -0.1849  0.5360 -0.2806
   24MOL0     C 3160   8.858   7.721   9.671  0.0381  0.3781  0.2634
   24MOL0     C 3161   8.944   7.740   9.776  0.0714 -0.1727  0.0266
   24MOL0     C 3162   9.080   7.748   9.755 -0.1126  1.1103 -0.3835
   24MOL0     O 3163   9.170   7.793   9.851 -0.6769 -0.2727  0.3606
   24MOL0     C 3164   9.126   7.818   9.986  0.2465  0.2748  0.0862
   24MOL0     C 3165   9.225   7.889  10.081  0.1781  0.3865  0.4187
   24MOL0     C 3166   9.274   8.028  10.037 -0.2359  0.2724 -0.1924
   24MOL0     C 3167   9.200   8.144  10.103 -0.4323  0.7676  0.0761
   24MOL0     C 3168   9.070   8.163  10.050  0.4787 -0.4704 -1.2763
   24MOL0     C 3169   8.959   8.184  10.012  0.3789 -0.0520  0.5596
   24MOL0     C 3170   9.133   7.718   9.629  0.2986  0.4617 -0.0734
   24MOL0     C 3171   9.052   7.686   9.520 -0.0610  0.0515 -0.1424
   24MOL0     C 3172   9.125   7.679   9.387 -0.9379 -0.1112 -0.4469
   24MOL0     H 3173   8.719   7.743   9.158 -0.2418  0.0192 -0.1657
   24MOL0     H 3174   8.537   7.732   8.996 -2.0319  2.7571  0.2946
   24MOL0     H 3175   8.143   7.542   9.145 -2.2396  0.2972  0.4565
   24MOL0     H 3176   8.112   7.716   9.116  1.2576  0.3604 -0.3940
   24MOL0     H 3177   8.127   7.470   8.913 -4.9869 -2.4537  2.1325
   24MOL0     H 3178   8.122   7.634   8.862  0.0212 -0.8596 -1.3416
   24MOL0     H 3179   7.900   7.665   8.921 -0.1943 -0.6803 -1.6932
   24MOL0     H 3180   7.908   7.548   9.056  1.7662  1.4632  0.2062
   24MOL0     H 3181   7.939   7.374   8.869 -1.8788 -1.0876  0.8228
   24MOL0     H 3182   7.776   7.454   8.880 -0.1317  1.4545  0.8833
   24MOL0     H 3183   7.839   7.580   8.690 -0.7952 -0.9321 -1.1733
   24MOL0     H 3184   8.007   7.524   8.678  0.2475 -0.7788  0.8700
   24MOL0     H 3185   7.745   7.364   8.641  0.8016 -0.1521  2.7340
   24MOL0     H 3186   7.871   7.422   8.517  3.2143 -0.6496 -1.2842
   24MOL0     H 3187   7.874   7.185   8.555 -1.0108  1.0801 -0.4484
   24MOL0     H 3188   7.870   7.206   8.730 -3.7955 -0.3708 -2.6180
   24MOL0     H 3189   8.109   7.301   8.558  0.2616  2.1739  2.0292
   24MOL0     H 3190   8.095   7.295   8.725  0.0330 -2.2628  0.1931
   24MOL0     H 3191   8.110   7.028   8.846  0.0715 -0.4901 -0.9682
   24MOL0     H 3192   8.146   6.715   8.743  0.7528 -1.2916  0.9565
   24MOL0     H 3193   8.308   6.755   8.681  0.7970  1.3280  0.9463
   24MOL0     H 3194   8.178   6.823   8.951  0.9456 -0.8633  2.0661
   24MOL0     H 3195   8.313   6.714   8.928 -2.1838  0.2800  2.5048
   24MOL0     H 3196   8.332   7.019   8.884 -5.1518 -1.1609  2.0518
   24MOL0     H 3197   8.457   6.899   8.845 -0.8678 -1.8849 -0.3809
   24MOL0     H 3198   8.358   6.995   9.132  2.8230  1.1262  2.1418
   24MOL0     H 3199   8.515   7.018   9.049 -1.0937  1.5298 -0.7863
   24MOL0     H 3200   8.525   7.031   9.291 -0.5343  0.5544  1.4254
   24MOL0     H 3201   8.644   7.029   9.479 -1.9362  1.0867 -2.6417
   24MOL0     H 3202   8.981   7.069   9.717 -3.6000  0.4006 -0.4050
   24MOL0     H 3203   9.123   7.084   9.897 -0.0598  0.4275  0.7047
   24MOL0     H 3204   9.103   6.734  10.194 -2.2165  4.7608  2.2702
   24MOL0     H 3205   9.257   6.738  10.099 -2.7325 -3.8860  0.0800
   24MOL0     H 3206   9.185   6.853  10.362  0.3605  2.2951 -1.7371
   24MOL0     H 3207   9.286   6.708  10.336  0.2727  1.2690  1.5593
   24MOL0     H 3208   9.367   6.982  10.260  0.2816  1.5627  0.9329
   24MOL0     H 3209   9.411   6.896  10.413  0.6950 -0.3358 -0.3504
   24MOL0     H 3210   9.485   6.843  10.125  0.1993 -2.2207 -0.5744
   24MOL0     H 3211   9.531   6.716  10.241  1.6851  0.5044 -2.3099
   24MOL0     H 3212   9.719   6.827  10.258 -1.9720 -2.0737  0.0272
   24MOL0     H 3213   9.628   6.901  10.395  3.6935 -3.7511  0.3407
   24MOL0     H 3214   9.753   7.057  10.161 -1.3167 -2.3808 -2.7316
   24MOL0     H 3215   9.590   7.026  10.126 -1.3913 -1.0410  1.3200
   24MOL0     H 3216   9.728   7.148  10.372  0.4786 -1.1012 -1.6856
   24MOL0     H 3217   9.553   7.116  10.378 -0.3281 -0.6914 -0.0188
   24MOL0     H 3218   9.518   7.282  10.184  0.0098  0.9141  0.8409
   24MOL0     H 3219   9.598   7.367  10.311  0.2061  1.9042 -0.7935
   24MOL0     H 3220   8.911   6.764  10.098 -0.0111 -1.7955 -1.1767
   24MOL0     H 3221   8.772   6.735   9.914 -1.3147 -0.4221  0.0127
   24MOL0     H 3222   8.710   6.603   9.446 -4.2997 -1.3594 -1.1116
   24MOL0     H 3223   8.593   6.623   9.212 -0.7261  0.7277  0.2478
   24MOL0     H 3224   8.269   7.610   9.305  0.1163 -0.3082 -2.0010
   24MOL0     H 3225   8.444   7.632   9.481 -1.2313  1.9426  0.2459
   24MOL0     H 3226   8.753   7.724   9.696 -0.2607  0.3338 -0.9342
   24MOL0     H 3227   8.897   7.763   9.871 -1.4311  1.7068 -1.0934
   24MOL0     H 3228   9.107   7.717  10.024 -0.3810 -0.2683 -1.5709
   24MOL0     H 3229   9.030   7.869   9.978  0.0490 -0.2133 -0.8487
   24MOL0     H 3230   9.315   7.827  10.091 -0.8993 -1.3283  0.0201
   24MOL0     H 3231   9.179   7.874  10.179 -0.1394 -3.0976 -0.1274
   24MOL0     H 3232   9.280   8.042   9.928  4.5205  0.8546 -0.1011
   24MOL0     H 3233   9.377   8.031  10.075  0.2054  1.9562 -1.3845
   24MOL0     H 3234   9.214   8.122  10.210  1.2911 -2.1239 -0.6192
   24MOL0     H 3235   9.263   8.230  10.080 -0.5928  0.5991 -1.0475
   24MOL0     H 3236   8.861   8.219   9.986  1.0161  0.8175 -0.8081
   24MOL0     H 3237   9.238   7.727   9.603 -0.3276  4.1761 -1.9057
   24MOL0     H 3238   9.230   7.706   9.396 -1.4877  2.4261 -0.8395
   24MOL0     H 3239   9.111   7.581   9.341  2.6974  0.3932 -2.9569
   24MOL0     H 3240   9.080   7.760   9.329 -2.3266 -1.6756 -1.6406
   25MOL0     O 3241   9.835   2.094   2.018  0.6786 -0.1043 -0.5447
   25MOL0     C 3242   9.867   2.172   1.928 -0.1600 -0.7932 -0.3795
   25MOL0     O 3243   9.824   2.302   1.923 -0.1567  1.3643 -0.2789
   25MOL0     C 3244   9.730   2.356   2.014 -0.5488 -0.1204  1.1200
   25MOL0     C 3245   9.618   2.286   2.067  0.0640  0.3916  0.1354
   25MOL0     C 3246   9.542   2.345   2.164 -0.4702  0.1046 -0.3427
   25MOL0     C 3247   9.569   2.473   2.220  0.2126  0.0279 -0.0322
   25MOL0     O 3248   9.482   2.522   2.318  0.1146 -0.4051  0.1118
   25MOL0     C 3249   9.518   2.636   2.388  0.7127 -0.4121 -0.1290
   25MOL0     C 3250   9.412   2.651   2.496  0.8701  0.3620  0.7705
   25MOL0     C 3251   9.382   2.505   2.565 -0.0981 -0.2118  0.4763
   25MOL0     C 3252   9.321   2.518   2.707 -0.0780 -1.0144  0.6598
   25MOL0     C 3253   9.295   2.383   2.775 -0.2043 -0.3870 -0.2727
   25MOL0     C 3254   9.217   2.401   2.915 -0.1837  0.8742  0.6950
   25MOL0     C 3255   9.228   2.283   3.014  0.0044  0.3850 -0.3011
   25MOL0     C 3256   9.144   2.161   2.996 -0.1444 -0.6101 -0.2250
   25MOL0     N 3257   9.192   2.095   2.878 -1.1346 -0.0871 -0.1400
   25MOL0     C 3258   9.307   2.019   2.867 -0.7439  0.6184  0.5777
   25MOL0     C 3259   9.302   1.984   2.743 -0.4551  0.2008  0.0318
   25MOL0     C 3260   9.411   1.914   2.669  0.1794 -0.3710  0.1996
   25MOL0     C 3261   9.485   2.019   2.584 -0.9190 -0.9591 -0.3833
   25MOL0     C 3262   9.628   2.071   2.630  0.5376  1.3263 -0.1104
   25MOL0     C 3263   9.693   2.147   2.528 -0.1245 -0.2044  0.4800
   25MOL0     O 3264   9.831   2.170   2.568  0.1146  0.4839 -0.1885
   25MOL0     C 3265   9.912   2.119   2.469 -1.0144  0.1042 -0.4801
   25MOL0     C 3266   9.981   2.001   2.490 -0.5790 -0.3189 -1.0986
   25MOL0     C 3267  10.071   1.952   2.398  0.2599  0.1404 -0.3787
   25MOL0     C 3268  10.103   2.029   2.281 -0.5046 -1.0569 -0.3467
   25MOL0     C 3269  10.213   1.993   2.187  0.8454  0.1222  0.4805
   25MOL0     O 3270  10.295   1.887   2.215 -0.0618 -0.1183  0.1979
   25MOL0     C 3271  10.374   1.843   2.112  0.4213  0.2867  0.0894
   25MOL0     C 3272  10.317   1.757   2.014 -0.8000  0.6906 -0.4889
   25MOL0     C 3273  10.385   1.723   1.900  0.7033  0.0038  1.0344
   25MOL0     C 3274  10.509   1.769   1.871 -0.0455  1.0781 -0.6218
   25MOL0     O 3275  10.561   1.736   1.753  0.3767 -0.5341  0.0544
   25MOL0     C 3276  10.695   1.683   1.749  0.7555  0.2219  0.1792
   25MOL0     C 3277  10.796   1.780   1.709  0.9559  0.4620 -0.7651
   25MOL0     C 3278  10.812   1.779   1.555  0.6660 -0.0508 -0.2175
   25MOL0     C 3279  10.907   1.891   1.514 -0.4845  0.3758 -0.6289
   25MOL0     C 3280  10.991   1.844   1.384 -0.2498 -0.5239 -0.0561
   25MOL0     C 3281  11.126   1.919   1.403 -1.2612  0.6780  0.0367
   25MOL0     C 3282  11.234   1.863   1.309 -0.2515  0.3614  0.6233
   25MOL0     C 3283  11.192   1.872   1.163 -0.5479  0.3058  0.3239
   25MOL0    Cl 3284  11.191   2.045   1.114 -0.0029 -0.3307  0.4648
   25MOL0     C 3285  10.570   1.857   1.965 -0.3413  0.3229  0.1310
   25MOL0     C 3286  10.503   1.890   2.089  0.0992  0.5462 -0.3475
   25MOL0     O 3287  10.228   2.070   2.091 -0.3107  0.8867 -0.6614
   25MOL0     C 3288  10.019   2.143   2.256 -0.5133  0.3134 -0.6144
   25MOL0     C 3289   9.929   2.187   2.350 -0.3230  0.1710  0.5289
   25MOL0     N 3290   9.190   2.017   2.682  0.0676  0.4162  0.9649
   25MOL0     N 3291   9.120   2.089   2.765 -0.1992 -0.8467  1.4550
   25MOL0     C 3292   9.669   2.542   2.157 -0.1809  0.4962  0.4708
   25MOL0     C 3293   9.749   2.486   2.054 -0.5445  0.6473 -0.1797
   25MOL0     C 3294   9.971   2.135   1.827 -0.5695  0.7138  0.2092
   25MOL0     C 3295  10.021   2.231   1.739 -1.1825  0.4208  0.5908
   25MOL0     C 3296  10.134   2.212   1.652  0.0393  0.1837  0.0867
   25MOL0     C 3297  10.203   2.093   1.658  1.1290  0.0722  0.7444
   25MOL0     O 3298  10.319   2.077   1.585  0.8666  0.4499  0.0115
   25MOL0     C 3299  10.423   1.993   1.639  0.3099  1.1126 -0.2873
   25MOL0     C 3300  10.561   2.051   1.599 -0.6206 -0.0345 -0.4305
   25MOL0     C 3301  10.579   2.197   1.623 -0.1066  0.5348 -0.1507
   25MOL0     C 3302  10.568   2.242   1.768  0.2706 -0.1108  0.3128
   25MOL0     C 3303  10.650   2.170   1.864 -0.5998  0.1568 -0.3729
   25MOL0     C 3304  10.716   2.138   1.962 -0.8341  0.6528  0.2019
   25MOL0     C 3305  10.152   1.989   1.742  0.4648  0.1576  0.1950
   25MOL0     C 3306  10.037   2.004   1.825 -0.9197 -0.4622 -0.1781
   25MOL0     C 3307   9.985   1.890   1.906  0.1577 -0.0534 -0.0424
   25MOL0     H 3308   9.582   2.187   2.040 -2.5125  1.5425 -1.0712
   25MOL0     H 3309   9.458   2.290   2.205 -2.4475  5.3944  3.9836
   25MOL0     H 3310   9.608   2.612   2.445 -0.1426  1.7523  2.4220
   25MOL0     H 3311   9.529   2.720   2.319  0.5659 -1.8784 -2.0066
   25MOL0     H 3312   9.323   2.687   2.444  0.3067 -1.3638  0.4798
   25MOL0     H 3313   9.447   2.718   2.575  2.4385  0.4349  0.0533
   25MOL0     H 3314   9.476   2.450   2.570  0.1132  0.0665 -0.3316
   25MOL0     H 3315   9.314   2.451   2.499  0.3373 -0.9007  0.5834
   25MOL0     H 3316   9.379   2.588   2.768 -0.1791  0.4769 -0.8926
   25MOL0     H 3317   9.230   2.570   2.678  0.5333 -1.0590 -1.4646
   25MOL0     H 3318   9.220   2.325   2.720 -0.8181 -1.0070  1.1804
   25MOL0     H 3319   9.385   2.332   2.809  0.1747  1.3043  1.4349
   25MOL0     H 3320   9.257   2.485   2.973  2.7820  2.6731 -3.4719
   25MOL0     H 3321   9.113   2.416   2.886 -0.0549  0.9299  0.2647
   25MOL0     H 3322   9.190   2.330   3.106 -1.1788 -1.0403 -0.0182
   25MOL0     H 3323   9.333   2.253   3.019 -0.6521 -2.0579  0.4158
   25MOL0     H 3324   9.146   2.089   3.078 -0.4114 -1.2318 -0.7635
   25MOL0     H 3325   9.044   2.190   2.964  0.2599 -1.4827 -2.4419
   25MOL0     H 3326   9.389   1.994   2.933 -1.5072 -1.3509  0.8609
   25MOL0     H 3327   9.480   1.856   2.731 -0.0455 -1.1131 -0.2306
   25MOL0     H 3328   9.369   1.840   2.600 -0.7964 -0.1582  0.5592
   25MOL0     H 3329   9.494   1.973   2.485 -0.5069  2.0976 -1.8824
   25MOL0     H 3330   9.429   2.111   2.569  1.9642  0.6793 -2.1020
   25MOL0     H 3331   9.687   1.981   2.649  2.2708  2.8677  2.3340
   25MOL0     H 3332   9.614   2.123   2.725  2.8499  0.1432  0.9639
   25MOL0     H 3333   9.649   2.245   2.506 -1.8177 -1.3666 -1.6036
   25MOL0     H 3334   9.692   2.085   2.438  1.1853 -0.9655  0.9596
   25MOL0     H 3335   9.968   1.939   2.578  0.1247 -1.4795 -1.7857
   25MOL0     H 3336  10.128   1.862   2.419 -0.9568 -0.7068 -0.5997
   25MOL0     H 3337  10.215   1.724   2.025 -0.1244 -2.6258 -2.7529
   25MOL0     H 3338  10.338   1.675   1.815 -3.5855  1.0010  2.5521
   25MOL0     H 3339  10.720   1.643   1.848 -1.7622  1.0685  1.2414
   25MOL0     H 3340  10.687   1.594   1.687  0.8079  0.6989 -0.5213
   25MOL0     H 3341  10.780   1.884   1.740  2.8307  0.3798  0.6910
   25MOL0     H 3342  10.892   1.748   1.751  1.4739 -1.5976 -3.2123
   25MOL0     H 3343  10.841   1.680   1.519 -0.3579 -1.4404  2.4867
   25MOL0     H 3344  10.725   1.791   1.490  2.0423 -0.4746 -2.2638
   25MOL0     H 3345  10.978   1.904   1.596  0.8280 -2.1687 -1.2623
   25MOL0     H 3346  10.844   1.976   1.487 -0.9724  0.0916 -0.3938
   25MOL0     H 3347  10.939   1.861   1.289  2.3724  1.4818 -1.2534
   25MOL0     H 3348  11.010   1.737   1.385 -1.1155 -0.7253 -1.7964
   25MOL0     H 3349  11.121   2.027   1.386  2.5800  1.4036  2.3015
   25MOL0     H 3350  11.155   1.907   1.508 -0.1770 -1.1706 -0.4219
   25MOL0     H 3351  11.235   1.756   1.334 -0.3712  0.4044  0.8153
   25MOL0     H 3352  11.331   1.911   1.326 -0.1845  0.2328  0.6101
   25MOL0     H 3353  11.268   1.832   1.095  0.5684 -0.0606  1.7256
   25MOL0     H 3354  11.095   1.827   1.141 -1.0058  1.5858 -0.3835
   25MOL0     H 3355  10.670   1.892   1.943 -0.5553  1.1823  0.4912
   25MOL0     H 3356  10.553   1.953   2.161 -0.9963 -0.5642  1.4487
   25MOL0     H 3357  10.017   2.183   2.155 -3.8622  0.9404 -0.3951
   25MOL0     H 3358   9.870   2.275   2.330  2.4070  3.0180  3.6431
   25MOL0     H 3359   9.694   2.639   2.198 -1.2624  2.0235 -2.2306
   25MOL0     H 3360   9.830   2.539   2.005  2.9907 -0.0304  4.2885
   25MOL0     H 3361   9.986   2.333   1.746 -1.2503  0.4345  0.1062
   25MOL0     H 3362  10.176   2.293   1.593  0.1240  1.2839  1.6258
   25MOL0     H 3363  10.413   1.889   1.605  2.9186  0.4202  0.7978
   25MOL0     H 3364  10.414   1.997   1.748 -1.9865  0.5243 -0.4035
   25MOL0     H 3365  10.580   2.041   1.492  2.4511  2.2532 -0.2230
   25MOL0     H 3366  10.633   1.992   1.657 -2.7296 -0.1148  2.2898
   25MOL0     H 3367  10.513   2.252   1.555 -2.1941  0.3373  1.6275
   25MOL0     H 3368  10.684   2.214   1.600  0.8056 -2.9382  0.8543
   25MOL0     H 3369  10.599   2.347   1.774  0.0899  0.0380 -1.1587
   25MOL0     H 3370  10.463   2.232   1.799 -0.6082 -1.4343 -2.7640
   25MOL0     H 3371  10.762   2.090   2.046 -1.8648 -1.9540 -0.6198
   25MOL0     H 3372  10.201   1.892   1.739 -1.9628 -1.2031  1.5319
   25MOL0     H 3373   9.876   1.880   1.899  0.0861  1.3087 -4.8090
   25MOL0     H 3374  10.031   1.795   1.876 -0.8427 -0.3643 -0.6317
   25MOL0     H 3375  10.007   1.895   2.013  1.9259  2.2684 -0.4241
   26MOL0     O 3376   5.095   9.787  10.472 -0.0643  0.2636 -0.7668
   26MOL0     C 3377   5.173   9.690  10.479 -0.6434  0.3212  1.3871
   26MOL0     O 3378   5.294   9.690  10.416  0.2429  1.0388 -0.0042
   26MOL0     C 3379   5.338   9.807  10.364  0.0820 -0.1930  1.1442
   26MOL0     C 3380   5.369   9.914  10.443  1.1270  1.3592  0.2252
   26MOL0     C 3381   5.419  10.035  10.382 -0.6695 -0.6034  0.0355
   26MOL0     C 3382   5.420  10.055  10.250 -0.6040 -1.4062  0.7433
   26MOL0     O 3383   5.474  10.161  10.177  0.3812 -0.3254 -0.0812
   26MOL0     C 3384   5.573  10.242  10.238 -0.0376 -0.0044  0.3127
   26MOL0     C 3385   5.646  10.330  10.134  0.8420 -0.5722 -0.4661
   26MOL0     C 3386   5.553  10.448  10.094  0.2651  0.2264  0.5846
   26MOL0     C 3387   5.575  10.472   9.941  0.2078  0.1780 -0.2429
   26MOL0     C 3388   5.485  10.571   9.890  0.4344 -0.7856 -0.3665
   26MOL0     C 3389   5.510  10.593   9.744  0.7511 -0.2708  0.6719
   26MOL0     C 3390   5.436  10.727   9.707  0.7152  0.6291  0.7510
   26MOL0     C 3391   5.524  10.848   9.724  0.3172  0.2723  0.9229
   26MOL0     N 3392   5.533  10.874   9.865 -0.4566 -0.0054  0.0586
   26MOL0     C 3393   5.648  10.873   9.940  0.3588  0.2775  0.4853
   26MOL0     C 3394   5.616  10.923  10.065  0.0708  0.0299  0.9341
   26MOL0     C 3395   5.713  10.930  10.182  0.4113 -0.0422  0.4422
   26MOL0     C 3396   5.648  10.874  10.307  0.1800 -0.9338 -0.4971
   26MOL0     C 3397   5.719  10.739  10.348  0.8342 -0.1344  0.1900
   26MOL0     C 3398   5.650  10.676  10.472 -0.6669  0.1927 -0.0221
   26MOL0     O 3399   5.564  10.573  10.424 -0.1623 -0.7082  0.3584
   26MOL0     C 3400   5.502  10.498  10.516 -0.2689  0.1988  0.0246
   26MOL0     C 3401   5.361  10.502  10.527  0.0770  0.2164 -0.0162
   26MOL0     C 3402   5.288  10.425  10.624  0.5522  0.2885 -0.6670
   26MOL0     C 3403   5.356  10.343  10.713 -0.0279 -0.0945  0.0237
   26MOL0     C 3404   5.280  10.265  10.816  0.6480  0.6803 -0.2314
   26MOL0     O 3405   5.353  10.178  10.897 -0.3953  0.3402 -0.0860
   26MOL0     C 3406   5.296  10.071  10.971  0.3173 -0.3969  0.8196
   26MOL0     C 3407   5.384   9.994  11.041 -0.7133  0.7363 -0.1441
   26MOL0     C 3408   5.344   9.885  11.127  0.6641  0.1772 -0.4722
   26MOL0     C 3409   5.218   9.837  11.119 -0.1224  0.6171  0.4151
   26MOL0     O 3410   5.182   9.726  11.195 -0.2469  0.0108  0.0448
   26MOL0     C 3411   5.243   9.601  11.164 -0.3058  0.3748 -0.0165
   26MOL0     C 3412   5.224   9.484  11.269 -1.0014 -0.6304  0.5252
   26MOL0     C 3413   5.085   9.458  11.315  0.5492 -0.5654  0.1000
   26MOL0     C 3414   5.074   9.311  11.380  0.1295 -0.5788 -0.4707
   26MOL0     C 3415   4.935   9.259  11.413  0.2085 -0.1725  0.5010
   26MOL0     C 3416   4.937   9.118  11.470 -0.1130  0.1163 -0.6799
   26MOL0     C 3417   4.787   9.088  11.493 -0.4796  0.4055 -0.3518
   26MOL0     C 3418   4.774   8.940  11.527  0.3641 -0.0452  0.2315
   26MOL0    Cl 3419   4.603   8.913  11.547 -0.0796 -0.1709 -0.0676
   26MOL0     C 3420   5.126   9.905  11.033 -0.1005 -0.4223  0.1080
   26MOL0     C 3421   5.175  10.009  10.953 -0.2714 -0.2361 -0.9901
   26MOL0     O 3422   5.162  10.276  10.821  0.2511 -0.5948  0.0065
   26MOL0     C 3423   5.501  10.334  10.700  0.1015 -0.1745 -0.3157
   26MOL0     C 3424   5.572  10.422  10.611  0.8911  0.0018  0.4760
   26MOL0     N 3425   5.476  10.960  10.054 -0.2545  0.3524 -0.2987
   26MOL0     N 3426   5.428  10.930   9.937  0.4502  0.5417 -0.4056
   26MOL0     C 3427   5.380   9.944  10.166  0.0501 -0.4325  0.5021
   26MOL0     C 3428   5.337   9.820  10.220 -0.4107 -0.3562 -0.0474
   26MOL0     C 3429   5.134   9.565  10.549 -0.0169 -0.0713  0.4936
   26MOL0     C 3430   5.139   9.452  10.472  0.9952  0.0044  0.3648
   26MOL0     C 3431   5.065   9.341  10.520  0.6272 -0.8437 -0.7591
   26MOL0     C 3432   5.009   9.338  10.643  0.0503  0.3517 -0.0682
   26MOL0     O 3433   4.944   9.228  10.674  0.1605  0.7344  0.2736
   26MOL0     C 3434   4.907   9.200  10.808 -0.3652  0.2976 -1.1602
   26MOL0     C 3435   5.020   9.156  10.908  0.2894 -0.2877  0.0084
   26MOL0     C 3436   5.029   9.012  10.948 -0.0130  0.7999 -0.0873
   26MOL0     C 3437   5.129   8.932  10.861 -0.4023 -0.6478  0.3203
   26MOL0     C 3438   5.127   8.794  10.910 -0.1362  0.1250  0.6655
   26MOL0     C 3439   5.134   8.680  10.941  0.1666 -0.0986  0.5714
   26MOL0     C 3440   5.018   9.455  10.730  0.7203  1.0921 -0.7374
   26MOL0     C 3441   5.073   9.571  10.681  0.0505  0.1114 -0.0668
   26MOL0     C 3442   5.064   9.699  10.766  0.8269  0.1708  0.5279
   26MOL0     H 3443   5.350   9.911  10.549 -1.5201 -0.4023 -0.1994
   26MOL0     H 3444   5.462  10.112  10.446 -0.9361 -0.1565 -0.3142
   26MOL0     H 3445   5.533  10.305  10.319 -2.0653 -0.9010  0.0507
   26MOL0     H 3446   5.653  10.174  10.268  1.0091 -1.0854 -4.2403
   26MOL0     H 3447   5.689  10.269  10.055  2.5372 -1.3835  1.0090
   26MOL0     H 3448   5.738  10.378  10.170  2.3040 -1.8846 -2.2696
   26MOL0     H 3449   5.569  10.537  10.156 -2.4190  1.2152  0.0025
   26MOL0     H 3450   5.455  10.400  10.104  0.0186 -0.1236 -2.5407
   26MOL0     H 3451   5.677  10.509   9.924  1.4566 -2.5010  0.7674
   26MOL0     H 3452   5.562  10.377   9.888  0.0490 -1.6901  2.8882
   26MOL0     H 3453   5.380  10.545   9.904  0.3451  0.5530  2.0566
   26MOL0     H 3454   5.493  10.657   9.958 -0.6131  0.6660 -1.9886
   26MOL0     H 3455   5.618  10.597   9.728  0.6456 -4.1144 -2.5371
   26MOL0     H 3456   5.481  10.509   9.680  0.0184  2.2797 -2.6861
   26MOL0     H 3457   5.347  10.739   9.769  0.5327  0.8020  0.4589
   26MOL0     H 3458   5.414  10.717   9.600 -0.9173 -0.0122  1.1183
   26MOL0     H 3459   5.617  10.843   9.666  1.1802  1.0314  2.2080
   26MOL0     H 3460   5.454  10.923   9.685  1.5514  1.6604  1.2962
   26MOL0     H 3461   5.748  10.846   9.910 -0.3359 -0.7963 -1.0063
   26MOL0     H 3462   5.812  10.902  10.145  1.3605 -1.2570  3.6023
   26MOL0     H 3463   5.724  11.034  10.215  1.9301 -0.6540  1.9906
   26MOL0     H 3464   5.665  10.947  10.386  2.5663 -0.0146 -1.7587
   26MOL0     H 3465   5.541  10.858  10.292  0.0620 -0.5064 -0.1258
   26MOL0     H 3466   5.820  10.762  10.383  0.3818 -0.1025  1.5394
   26MOL0     H 3467   5.727  10.664  10.268 -0.2417 -1.9709  1.7245
   26MOL0     H 3468   5.587  10.749  10.524 -1.1531 -0.6991  0.6634
   26MOL0     H 3469   5.722  10.626  10.538  0.5674  0.9095 -0.7797
   26MOL0     H 3470   5.289  10.562  10.473 -0.2847 -1.7577 -1.8356
   26MOL0     H 3471   5.180  10.425  10.627  0.5040 -1.8600 -0.4388
   26MOL0     H 3472   5.477  10.042  11.070 -0.4147  1.5926 -2.3077
   26MOL0     H 3473   5.418   9.839  11.191 -0.5868  0.4829  1.2443
   26MOL0     H 3474   5.194   9.574  11.070  1.6069  1.8315 -1.5093
   26MOL0     H 3475   5.350   9.607  11.145 -0.8351  1.6156 -3.1528
   26MOL0     H 3476   5.261   9.402  11.206 -1.8705  0.2210 -1.1864
   26MOL0     H 3477   5.284   9.504  11.358  0.2371  2.2855 -0.8285
   26MOL0     H 3478   5.068   9.531  11.394 -0.1563 -2.0079  1.3142
   26MOL0     H 3479   5.024   9.482  11.227  3.4285  3.0371 -1.1946
   26MOL0     H 3480   5.134   9.312  11.472 -1.3458  1.1706  0.5435
   26MOL0     H 3481   5.121   9.234  11.318  3.8685  0.1002  1.2407
   26MOL0     H 3482   4.880   9.245  11.319  0.6984  0.1809  0.1525
   26MOL0     H 3483   4.884   9.332  11.476 -3.2930 -2.7535  0.9276
   26MOL0     H 3484   4.981   9.050  11.396  0.5606  0.7353 -0.8637
   26MOL0     H 3485   5.003   9.117  11.557 -0.3978 -2.0662 -0.4520
   26MOL0     H 3486   4.717   9.123  11.417 -1.5684  2.0184  1.3122
   26MOL0     H 3487   4.757   9.146  11.580  0.1953 -0.7228  0.6614
   26MOL0     H 3488   4.803   8.878  11.442  2.6006  1.4519 -0.1808
   26MOL0     H 3489   4.823   8.913  11.621  1.7271 -1.3689 -0.8124
   26MOL0     H 3490   5.030   9.861  11.010  0.0331 -0.8477  0.3433
   26MOL0     H 3491   5.106  10.071  10.897  0.4533  2.1150  0.5492
   26MOL0     H 3492   5.556  10.279  10.776 -1.1122  2.4160  2.6878
   26MOL0     H 3493   5.680  10.421  10.621  0.8457 -3.7578  2.5741
   26MOL0     H 3494   5.377   9.949  10.058  0.3734 -0.6675  0.4828
   26MOL0     H 3495   5.326   9.730  10.161  1.8880 -0.7647  0.0521
   26MOL0     H 3496   5.187   9.454  10.375 -3.4124  0.8097 -2.0894
   26MOL0     H 3497   5.044   9.254  10.458 -0.6032 -0.7738 -0.4735
   26MOL0     H 3498   4.827   9.126  10.813  0.9466 -1.1077  0.1988
   26MOL0     H 3499   4.854   9.282  10.856 -1.3509 -0.5207 -0.8197
   26MOL0     H 3500   5.005   9.216  10.998  1.2919 -1.1209  0.7640
   26MOL0     H 3501   5.114   9.198  10.870 -0.2791 -0.0955 -1.1987
   26MOL0     H 3502   4.933   8.962  10.934  1.1351 -1.6628  0.3905
   26MOL0     H 3503   5.049   8.993  11.054 -0.6911 -1.4272 -0.3170
   26MOL0     H 3504   5.104   8.933  10.754 -3.5380  1.3557  0.9620
   26MOL0     H 3505   5.228   8.972  10.885 -1.5827  1.2491  2.3856
   26MOL0     H 3506   5.128   8.581  10.981  1.6744 -0.2205  0.5735
   26MOL0     H 3507   4.975   9.452  10.829  0.5222 -2.4422 -0.7934
   26MOL0     H 3508   5.017   9.779  10.707  3.7351 -0.1667 -2.5582
   26MOL0     H 3509   5.005   9.678  10.856 -0.8653  1.1544 -0.2990
   26MOL0     H 3510   5.167   9.729  10.786  1.3388 -0.1211 -1.5043
   27MOL0     O 3511   7.414   8.231   0.719 -0.5521 -0.2916 -0.5389
   27MOL0     C 3512   7.530   8.211   0.707  0.2264 -0.3677  0.7200
   27MOL0     O 3513   7.597   8.226   0.587  0.1527  0.1969 -0.0616
   27MOL0     C 3514   7.545   8.306   0.493 -0.3080 -0.7589  0.4575
   27MOL0     C 3515   7.540   8.256   0.360  0.2388  0.4323  0.1328
   27MOL0     C 3516   7.498   8.331   0.253  0.2800 -0.4062 -0.4194
   27MOL0     C 3517   7.453   8.458   0.273 -0.0366  0.4386  0.0322
   27MOL0     O 3518   7.410   8.524   0.162 -0.2705  0.0826  0.1764
   27MOL0     C 3519   7.368   8.662   0.167  0.3649  0.5735  0.4621
   27MOL0     C 3520   7.306   8.690   0.032  0.3681  0.3786 -0.2983
   27MOL0     C 3521   7.189   8.606  -0.024  0.2366 -0.7489  0.2107
   27MOL0     C 3522   7.066   8.600   0.071  0.1206 -0.2848 -0.0722
   27MOL0     C 3523   6.943   8.536   0.006 -0.3496 -0.3400 -0.2076
   27MOL0     C 3524   6.946   8.378   0.006 -0.2708  0.3956 -0.4136
   27MOL0     C 3525   6.825   8.308  -0.062  0.5243 -0.2374 -0.3433
   27MOL0     C 3526   6.689   8.346  -0.005  0.4494 -0.1323  0.3462
   27MOL0     N 3527   6.674   8.326   0.139 -0.5616  0.5766  0.6194
   27MOL0     C 3528   6.730   8.224   0.218 -0.6899  0.2042 -0.8720
   27MOL0     C 3529   6.683   8.256   0.343  0.6612  0.4366  0.0637
   27MOL0     C 3530   6.706   8.182   0.472 -0.4587  0.1636  0.2669
   27MOL0     C 3531   6.608   8.059   0.478 -0.2552  0.7166  0.6388
   27MOL0     C 3532   6.497   8.053   0.576 -0.3641  0.0810 -0.3736
   27MOL0     C 3533   6.377   8.140   0.531  0.3602  0.4444 -0.7274
   27MOL0     O 3534   6.270   8.091   0.603  0.7819  0.2449 -1.2256
   27MOL0     C 3535   6.165   8.177   0.612  1.0915  0.5913  0.0231
   27MOL0     C 3536   6.086   8.210   0.503  0.0319  0.0018 -0.6088
   27MOL0     C 3537   5.974   8.294   0.512 -0.2709 -0.1296 -1.9160
   27MOL0     C 3538   5.941   8.347   0.648 -0.1257  0.1954  0.4541
   27MOL0     C 3539   5.823   8.435   0.657  0.0199 -1.0703  0.1044
   27MOL0     O 3540   5.805   8.504   0.778 -0.7810  0.9811  0.3770
   27MOL0     C 3541   5.698   8.587   0.784 -0.7091  0.1605 -0.7422
   27MOL0     C 3542   5.568   8.557   0.840  0.4304  0.4569 -0.3728
   27MOL0     C 3543   5.459   8.641   0.814 -0.6784 -0.4312  0.0570
   27MOL0     C 3544   5.476   8.763   0.741  0.2882 -0.6353  0.3862
   27MOL0     O 3545   5.368   8.847   0.730 -0.6488 -0.4620  0.4199
   27MOL0     C 3546   5.247   8.784   0.668 -0.3038 -0.2017  0.2127
   27MOL0     C 3547   5.280   8.732   0.537 -0.5567 -0.3919 -0.5382
   27MOL0     C 3548   5.328   8.843   0.444 -0.3507 -0.9215 -0.3354
   27MOL0     C 3549   5.259   8.856   0.305  0.2316  0.3355 -0.3477
   27MOL0     C 3550   5.362   8.805   0.204  0.6338 -0.1439 -0.2235
   27MOL0     C 3551   5.298   8.762   0.068  0.1386  0.0756 -0.3518
   27MOL0     C 3552   5.406   8.740  -0.025  0.1010 -0.5541  0.5470
   27MOL0     C 3553   5.340   8.698  -0.159 -0.0060  0.3165 -0.3580
   27MOL0    Cl 3554   5.265   8.839  -0.232 -0.1352  0.1855  0.3242
   27MOL0     C 3555   5.605   8.804   0.703  0.6906  0.0237  0.2576
   27MOL0     C 3556   5.716   8.714   0.733  0.2188 -0.4381  0.2441
   27MOL0     O 3557   5.752   8.454   0.558  0.5350 -0.4172 -0.7706
   27MOL0     C 3558   6.014   8.308   0.764 -0.5789  0.4529 -0.4778
   27MOL0     C 3559   6.127   8.221   0.747  0.3757 -0.0996 -0.1654
   27MOL0     N 3560   6.600   8.368   0.335 -0.5696  0.1020  0.7455
   27MOL0     N 3561   6.598   8.404   0.208  0.7165 -1.0880  0.4141
   27MOL0     C 3562   7.464   8.518   0.402 -0.9579  0.6136 -0.0017
   27MOL0     C 3563   7.495   8.436   0.516 -0.5678  0.1195  0.0239
   27MOL0     C 3564   7.605   8.166   0.823 -0.3376 -0.4325 -0.2002
   27MOL0     C 3565   7.748   8.196   0.837  0.7053  0.1066 -0.2011
   27MOL0     C 3566   7.824   8.146   0.946 -0.9668 -0.4224 -0.5620
   27MOL0     C 3567   7.770   8.067   1.043  0.3863  0.3930 -0.4217
   27MOL0     O 3568   7.851   8.003   1.136  0.5292 -0.6361 -0.1408
   27MOL0     C 3569   7.801   7.930   1.240 -0.5229 -0.1001 -0.5132
   27MOL0     C 3570   7.794   7.782   1.199  0.1833 -0.3546  0.1979
   27MOL0     C 3571   7.933   7.715   1.214 -0.0373 -0.9276  1.0203
   27MOL0     C 3572   7.933   7.572   1.153  0.0179  0.7717 -0.2658
   27MOL0     C 3573   8.063   7.510   1.156 -0.0153  0.1825  0.2785
   27MOL0     C 3574   8.171   7.456   1.128  0.0105 -0.0477  0.7874
   27MOL0     C 3575   7.630   8.052   1.037 -0.3298 -0.3282 -0.3291
   27MOL0     C 3576   7.550   8.094   0.934  0.9439 -0.0062  0.9208
   27MOL0     C 3577   7.403   8.064   0.944 -0.5545  0.9522 -0.3709
   27MOL0     H 3578   7.580   8.158   0.335  1.3157  1.0400 -0.6105
   27MOL0     H 3579   7.477   8.289   0.155 -4.5070 -1.8031  0.9461
   27MOL0     H 3580   7.287   8.676   0.239 -1.7138 -0.8418 -1.4716
   27MOL0     H 3581   7.453   8.727   0.190  0.5778  0.0896  1.0625
   27MOL0     H 3582   7.378   8.667  -0.047 -0.0025  0.3070 -0.6125
   27MOL0     H 3583   7.285   8.797   0.026 -2.1681 -0.1273 -1.6636
   27MOL0     H 3584   7.209   8.505  -0.060  0.6664 -0.8104  0.6108
   27MOL0     H 3585   7.174   8.656  -0.120  0.3820  0.5599  0.8416
   27MOL0     H 3586   7.084   8.567   0.174 -0.7686 -0.0877  0.1591
   27MOL0     H 3587   7.042   8.706   0.086  2.9657  0.2020  1.8038
   27MOL0     H 3588   6.860   8.571   0.069  0.4880 -0.1629  0.8435
   27MOL0     H 3589   6.925   8.555  -0.100  0.6118  1.9979 -0.0109
   27MOL0     H 3590   7.036   8.331  -0.034 -1.2315 -0.7556 -1.3039
   27MOL0     H 3591   6.944   8.347   0.110 -2.6344  7.4852  2.2833
   27MOL0     H 3592   6.839   8.200  -0.056 -2.6117 -0.8261 -1.7280
   27MOL0     H 3593   6.816   8.332  -0.168  0.4293  1.4597  0.0181
   27MOL0     H 3594   6.676   8.454  -0.014  1.3805 -0.0455 -0.1691
   27MOL0     H 3595   6.617   8.282  -0.058  2.1276 -1.4224 -0.5183
   27MOL0     H 3596   6.792   8.139   0.194 -0.7451 -0.6876  1.7967
   27MOL0     H 3597   6.810   8.149   0.478  0.0598  1.3827 -1.3297
   27MOL0     H 3598   6.692   8.253   0.554 -0.0841  3.9531 -2.6951
   27MOL0     H 3599   6.565   8.038   0.380  1.7057  0.3036 -0.1857
   27MOL0     H 3600   6.671   7.974   0.505 -0.5719  0.7782  1.6154
   27MOL0     H 3601   6.540   8.068   0.676 -1.1506 -0.7378  0.1130
   27MOL0     H 3602   6.452   7.954   0.593 -4.2034  2.2097  4.1708
   27MOL0     H 3603   6.342   8.125   0.428  1.9369  1.7580 -1.5212
   27MOL0     H 3604   6.393   8.247   0.551 -3.3506  1.1010 -0.6796
   27MOL0     H 3605   6.106   8.166   0.406 -0.3851 -0.1668 -0.6227
   27MOL0     H 3606   5.912   8.315   0.426  0.8663 -0.2083 -2.7733
   27MOL0     H 3607   5.542   8.467   0.895  0.7863  0.8221  0.4060
   27MOL0     H 3608   5.357   8.616   0.842 -1.3667  3.0028  1.1408
   27MOL0     H 3609   5.213   8.694   0.720 -1.0972  0.7534  1.4207
   27MOL0     H 3610   5.166   8.857   0.668 -0.5850 -0.5010  1.4846
   27MOL0     H 3611   5.361   8.658   0.533  1.5061  1.7197 -0.1295
   27MOL0     H 3612   5.191   8.681   0.499  0.3394 -0.7763 -2.2303
   27MOL0     H 3613   5.307   8.941   0.487  1.3410 -1.0085  0.7839
   27MOL0     H 3614   5.437   8.836   0.442 -0.3037 -0.0631 -1.5690
   27MOL0     H 3615   5.221   8.955   0.280  0.3470 -0.3692 -3.7430
   27MOL0     H 3616   5.168   8.796   0.306 -0.4149  1.2761  1.3747
   27MOL0     H 3617   5.411   8.718   0.249 -1.6144 -1.4808 -0.2260
   27MOL0     H 3618   5.439   8.881   0.186  1.3113 -0.5496  0.8395
   27MOL0     H 3619   5.237   8.674   0.088  1.4632 -1.1321 -1.4183
   27MOL0     H 3620   5.230   8.838   0.029 -0.2733 -0.8877 -1.5830
   27MOL0     H 3621   5.471   8.659   0.010  0.0578 -0.9015 -0.1555
   27MOL0     H 3622   5.475   8.825  -0.030 -1.5179  0.7340 -2.6013
   27MOL0     H 3623   5.416   8.652  -0.223 -1.9017 -1.7512 -1.2749
   27MOL0     H 3624   5.271   8.622  -0.121  0.0297  1.4749  2.1899
   27MOL0     H 3625   5.630   8.891   0.643 -0.9706  0.6336  0.4145
   27MOL0     H 3626   5.818   8.747   0.716 -0.1671 -0.3591 -2.3294
   27MOL0     H 3627   5.996   8.365   0.855  0.9495 -0.0934  0.1973
   27MOL0     H 3628   6.188   8.180   0.827  0.3521 -1.9243 -1.0176
   27MOL0     H 3629   7.427   8.619   0.413 -0.5006  0.7827 -0.0007
   27MOL0     H 3630   7.497   8.472   0.618 -2.3533  0.6043 -0.0938
   27MOL0     H 3631   7.778   8.269   0.762  1.8236 -0.1544 -0.0316
   27MOL0     H 3632   7.928   8.175   0.956 -1.1508  0.4256 -1.0410
   27MOL0     H 3633   7.701   7.967   1.265  0.3597  1.6305  0.6586
   27MOL0     H 3634   7.867   7.941   1.327 -0.4522  0.6434 -0.6518
   27MOL0     H 3635   7.747   7.776   1.101 -1.4130 -1.8746  0.9919
   27MOL0     H 3636   7.730   7.748   1.281  2.2769  1.4377  2.7613
   27MOL0     H 3637   7.952   7.719   1.322 -0.6954 -2.9768  1.2549
   27MOL0     H 3638   8.014   7.771   1.167 -1.8735 -0.7951 -2.2055
   27MOL0     H 3639   7.868   7.506   1.211  0.2709  2.9086  2.7003
   27MOL0     H 3640   7.897   7.582   1.051 -0.8824 -0.5825 -0.1115
   27MOL0     H 3641   8.256   7.413   1.081  0.0317 -0.0418  0.8194
   27MOL0     H 3642   7.578   7.996   1.114 -0.8735  1.8502  0.9846
   27MOL0     H 3643   7.375   7.994   0.864  2.4584  0.0910 -0.8075
   27MOL0     H 3644   7.382   7.990   1.022 -0.2601 -0.7936 -1.8684
   27MOL0     H 3645   7.343   8.154   0.961 -2.8829 -1.1599  4.2516
   28MOL0     O 3646   2.050   0.150   9.200 -0.0929 -0.3751  0.3126
   28MOL0     C 3647   1.978   0.132   9.100  0.7314  0.6536 -0.4931
   28MOL0     O 3648   1.898   0.231   9.051 -0.5392  0.0419 -0.1018
   28MOL0     C 3649   1.883   0.339   9.132  0.6211  0.5246 -0.4577
   28MOL0     C 3650   1.974   0.435   9.139  0.5911  0.2375 -0.5101
   28MOL0     C 3651   1.959   0.537   9.229  0.2786  0.6218  0.5176
   28MOL0     C 3652   1.862   0.548   9.321  0.3302  0.4813  0.5914
   28MOL0     O 3653   1.856   0.641   9.423 -0.0534 -0.0216 -0.0629
   28MOL0     C 3654   1.978   0.687   9.478  0.4431 -0.9715  0.9073
   28MOL0     C 3655   1.929   0.798   9.578  0.9614 -0.4344  0.3778
   28MOL0     C 3656   1.872   0.923   9.495 -0.1812  1.4214  0.0355
   28MOL0     C 3657   1.716   0.920   9.512  0.2145 -0.3287 -0.4231
   28MOL0     C 3658   1.652   1.054   9.454 -0.0061  0.6905  0.6599
   28MOL0     C 3659   1.493   1.040   9.461  0.4713 -0.2631 -1.0920
   28MOL0     C 3660   1.415   1.175   9.414 -0.3612  1.1041 -1.1039
   28MOL0     C 3661   1.271   1.131   9.377  0.2145  0.1161 -1.4678
   28MOL0     N 3662   1.200   1.258   9.358 -0.2842  0.6582 -0.0384
   28MOL0     C 3663   1.082   1.299   9.430 -0.6085 -0.8656  0.3453
   28MOL0     C 3664   1.066   1.424   9.393 -0.3517 -0.3208  0.3638
   28MOL0     C 3665   0.965   1.525   9.445 -0.9952  0.5024  0.3966
   28MOL0     C 3666   0.835   1.520   9.373 -0.0057  0.2530  0.8108
   28MOL0     C 3667   0.821   1.577   9.233  0.0170 -0.1560  0.7394
   28MOL0     C 3668   0.668   1.590   9.181  0.3546  0.0902 -0.7289
   28MOL0     O 3669   0.611   1.457   9.194 -0.5632  0.5710  0.2781
   28MOL0     C 3670   0.485   1.449   9.132 -0.1509  0.0743 -0.7649
   28MOL0     C 3671   0.376   1.524   9.182 -0.1941  0.0474  0.0785
   28MOL0     C 3672   0.263   1.531   9.109 -0.4507 -0.1991 -0.2895
   28MOL0     C 3673   0.242   1.459   8.997  0.7554  0.4238 -0.3220
   28MOL0     C 3674   0.115   1.467   8.922  0.4326 -0.3828  0.2762
   28MOL0     O 3675   0.024   1.559   8.970  0.2077 -0.1959  0.1204
   28MOL0     C 3676  -0.101   1.571   8.905 -1.1078  0.0119  0.2102
   28MOL0     C 3677  -0.136   1.678   8.812  0.3074  0.8429 -0.0878
   28MOL0     C 3678  -0.278   1.687   8.771  0.3167 -0.3509  0.3950
   28MOL0     C 3679  -0.376   1.604   8.824  1.3488 -0.5997 -0.5847
   28MOL0     O 3680  -0.517   1.604   8.799 -0.4418 -0.5939  0.5054
   28MOL0     C 3681  -0.574   1.737   8.810  0.0126  0.4236  0.0320
   28MOL0     C 3682  -0.722   1.744   8.864 -1.0925 -0.3890 -0.0616
   28MOL0     C 3683  -0.740   1.877   8.941  0.6974  0.2491  0.5090
   28MOL0     C 3684  -0.881   1.877   9.009 -0.6842  0.0856  0.8735
   28MOL0     C 3685  -0.906   2.016   9.062 -0.1888 -0.6850  0.1606
   28MOL0     C 3686  -0.965   2.104   8.950  0.1471  0.0342 -0.3344
   28MOL0     C 3687  -1.009   2.244   8.993  0.6371 -0.3681  0.1916
   28MOL0     C 3688  -1.079   2.308   8.868  0.1228  0.7944  0.6310
   28MOL0    Cl 3689  -0.958   2.420   8.787 -0.1486 -0.1682  0.2198
   28MOL0     C 3690  -0.336   1.508   8.920 -0.2558  0.0248  0.1917
   28MOL0     C 3691  -0.202   1.487   8.953  0.9202 -0.4177 -0.2610
   28MOL0     O 3692   0.085   1.384   8.835  0.1950 -0.0792 -0.5490
   28MOL0     C 3693   0.343   1.374   8.950 -0.3409  0.4961  0.6465
   28MOL0     C 3694   0.470   1.371   9.014  0.0643  0.2769  0.2713
   28MOL0     N 3695   1.161   1.461   9.298  0.2399  0.0815 -0.3728
   28MOL0     N 3696   1.245   1.366   9.284 -0.0350  0.0537  0.2112
   28MOL0     C 3697   1.772   0.445   9.316  0.8689  0.0188 -0.0343
   28MOL0     C 3698   1.777   0.342   9.219  0.4545  0.8406  0.0234
   28MOL0     C 3699   1.985   0.003   9.026  0.0032  0.4914 -0.1676
   28MOL0     C 3700   1.904   0.001   8.912 -0.6039  0.7937  0.3391
   28MOL0     C 3701   1.908  -0.107   8.824  0.3305  0.3510  1.0030
   28MOL0     C 3702   2.003  -0.207   8.835  0.0736  0.4631  0.4081
   28MOL0     O 3703   2.002  -0.301   8.737 -0.3053  0.5319 -0.6148
   28MOL0     C 3704   2.092  -0.412   8.738 -0.3504 -0.5310  0.9548
   28MOL0     C 3705   2.234  -0.379   8.704 -0.0580 -0.4259 -0.9045
   28MOL0     C 3706   2.239  -0.297   8.575 -0.0675 -0.1267  0.2430
   28MOL0     C 3707   2.371  -0.231   8.562 -0.1604  0.9639 -0.6350
   28MOL0     C 3708   2.357  -0.102   8.631  0.2756  0.5108 -0.1862
   28MOL0     C 3709   2.367   0.000   8.686 -0.5295  0.2618 -0.9499
   28MOL0     C 3710   2.089  -0.207   8.944 -0.2158 -0.2920 -0.5862
   28MOL0     C 3711   2.085  -0.103   9.033  0.0765  0.2622  0.1492
   28MOL0     C 3712   2.187  -0.104   9.139 -0.0205  0.9206  0.0184
   28MOL0     H 3713   2.061   0.435   9.075  1.3582  0.7825  0.5061
   28MOL0     H 3714   2.050   0.596   9.235  1.6388 -1.3945  0.6919
   28MOL0     H 3715   2.029   0.613   9.539  0.6942  0.2957  2.2803
   28MOL0     H 3716   2.041   0.739   9.405 -0.5357 -1.5486 -0.3823
   28MOL0     H 3717   2.015   0.821   9.641 -0.4885  0.9623  1.9596
   28MOL0     H 3718   1.853   0.767   9.651  0.7560 -0.3796  0.1895
   28MOL0     H 3719   1.906   0.925   9.391  1.4054 -0.7478  0.4406
   28MOL0     H 3720   1.915   1.009   9.547  0.1892 -0.5507  3.2505
   28MOL0     H 3721   1.681   0.832   9.457  1.1060 -0.3585 -0.9573
   28MOL0     H 3722   1.694   0.911   9.619  0.2877  1.2787 -0.2456
   28MOL0     H 3723   1.678   1.137   9.521  1.0920  2.0640 -1.3588
   28MOL0     H 3724   1.685   1.072   9.351  1.8352 -0.5394  0.9901
   28MOL0     H 3725   1.458   0.959   9.397 -0.9479 -2.6782  2.3992
   28MOL0     H 3726   1.462   1.011   9.562 -3.1915  0.3033 -1.9141
   28MOL0     H 3727   1.468   1.221   9.330  2.1059  2.7055  1.1538
   28MOL0     H 3728   1.415   1.244   9.499 -2.3454 -0.7222  0.4709
   28MOL0     H 3729   1.277   1.066   9.288  2.1469 -2.3105  0.2818
   28MOL0     H 3730   1.224   1.075   9.458  0.5281  2.2887  0.3203
   28MOL0     H 3731   1.028   1.235   9.499 -1.1185  0.7524  1.4902
   28MOL0     H 3732   0.967   1.520   9.554  1.9967  4.2350  0.7183
   28MOL0     H 3733   1.015   1.621   9.426  1.4345 -0.9765 -1.1566
   28MOL0     H 3734   0.796   1.418   9.380  3.1378 -1.0477  1.0000
   28MOL0     H 3735   0.768   1.583   9.432 -3.7425 -0.0341 -2.7199
   28MOL0     H 3736   0.889   1.514   9.176  4.4570  4.8821 -0.4009
   28MOL0     H 3737   0.881   1.668   9.222  2.3290 -1.8303 -1.6114
   28MOL0     H 3738   0.669   1.612   9.073 -1.3758  0.5895 -0.6663
   28MOL0     H 3739   0.614   1.670   9.232 -1.3506  0.2169 -2.5722
   28MOL0     H 3740   0.376   1.564   9.282 -0.9054  0.1735  0.0341
   28MOL0     H 3741   0.197   1.608   9.148  2.4447  3.0171 -1.2536
   28MOL0     H 3742  -0.060   1.752   8.790  1.2507 -0.0605  0.0731
   28MOL0     H 3743  -0.318   1.774   8.720 -0.7363 -0.2989  1.2751
   28MOL0     H 3744  -0.500   1.794   8.867  3.8307 -1.5213 -2.5126
   28MOL0     H 3745  -0.573   1.777   8.708  0.6701  0.6337  0.1148
   28MOL0     H 3746  -0.782   1.736   8.773 -1.2512 -1.6353  0.1412
   28MOL0     H 3747  -0.741   1.663   8.934 -1.5735  1.2747  1.8176
   28MOL0     H 3748  -0.661   1.896   9.014  1.5015  1.5255 -0.6293
   28MOL0     H 3749  -0.740   1.956   8.864 -0.0656 -0.7094 -0.5066
   28MOL0     H 3750  -0.868   1.806   9.091  2.5405 -3.7041 -2.4465
   28MOL0     H 3751  -0.961   1.836   8.946  0.5651 -0.8924 -0.1211
   28MOL0     H 3752  -0.809   2.051   9.099 -0.4059 -1.7486  1.8274
   28MOL0     H 3753  -0.967   2.019   9.152 -0.2959  1.2647  0.0689
   28MOL0     H 3754  -0.885   2.108   8.875 -0.0625  1.9030 -0.5179
   28MOL0     H 3755  -1.048   2.054   8.899 -2.1771  3.4498 -0.2678
   28MOL0     H 3756  -0.929   2.311   9.025  1.3650 -1.6341  1.1417
   28MOL0     H 3757  -1.077   2.238   9.078  0.1018  3.9237  0.2471
   28MOL0     H 3758  -1.122   2.232   8.803  1.5600  0.3770  0.1413
   28MOL0     H 3759  -1.168   2.365   8.899 -2.8241 -1.6470 -2.5137
   28MOL0     H 3760  -0.407   1.436   8.957  1.8403 -1.7838  0.9463
   28MOL0     H 3761  -0.170   1.407   9.019 -2.2814 -0.0590  1.9419
   28MOL0     H 3762   0.340   1.323   8.854 -0.3109  1.4433  0.1398
   28MOL0     H 3763   0.560   1.323   8.976 -0.2883 -0.0541 -0.1566
   28MOL0     H 3764   1.692   0.439   9.389  0.5096  0.3325 -0.4021
   28MOL0     H 3765   1.720   0.250   9.225  2.7360 -0.6833 -0.3625
   28MOL0     H 3766   1.824   0.073   8.896 -0.4389  0.5699 -1.8803
   28MOL0     H 3767   1.846  -0.112   8.736  2.0180  2.7233 -0.4525
   28MOL0     H 3768   2.060  -0.478   8.657  0.8202  0.1019 -0.0719
   28MOL0     H 3769   2.095  -0.467   8.832  3.5045 -0.3523  1.1017
   28MOL0     H 3770   2.300  -0.467   8.707 -1.0495 -1.1765  0.7232
   28MOL0     H 3771   2.277  -0.312   8.779  0.2091  1.2616 -2.4935
   28MOL0     H 3772   2.154  -0.228   8.577  0.8946  1.2695  4.7860
   28MOL0     H 3773   2.230  -0.369   8.494 -0.4895 -0.0091  0.1843
   28MOL0     H 3774   2.452  -0.285   8.613 -0.3133 -0.3308 -1.7014
   28MOL0     H 3775   2.386  -0.215   8.455  0.4619 -1.4458 -0.9723
   28MOL0     H 3776   2.375   0.103   8.715 -0.2840  0.6850 -2.4552
   28MOL0     H 3777   2.167  -0.282   8.947  2.0247  1.6502 -3.7341
   28MOL0     H 3778   2.253  -0.191   9.137 -3.3682 -1.7720 -1.1946
   28MOL0     H 3779   2.258  -0.020   9.129  2.1211 -1.0926 -4.7156
   28MOL0     H 3780   2.137  -0.119   9.235 -0.7846 -2.1280 -0.7600
   29MOL0     O 3781   2.900   8.371   8.134  0.1362  0.2099  0.2989
   29MOL0     C 3782   2.944   8.421   8.031  0.4728  0.7978  1.2009
   29MOL0     O 3783   2.881   8.421   7.905 -0.1981 -0.6245  0.1266
   29MOL0     C 3784   2.747   8.456   7.897 -0.2990  0.3031  0.6771
   29MOL0     C 3785   2.681   8.424   7.772 -0.7856 -0.3925  0.0067
   29MOL0     C 3786   2.550   8.429   7.745 -0.3168 -0.4697  0.1621
   29MOL0     C 3787   2.470   8.476   7.852  0.5097  0.3295 -0.0179
   29MOL0     O 3788   2.330   8.487   7.832  0.1074 -0.0837  0.0622
   29MOL0     C 3789   2.283   8.568   7.729  0.0478 -0.1003 -0.3355
   29MOL0     C 3790   2.183   8.493   7.643  0.4337 -0.1816 -0.1884
   29MOL0     C 3791   2.104   8.578   7.530 -0.1292 -0.7217 -0.6047
   29MOL0     C 3792   1.979   8.509   7.483  0.2277  0.2856 -0.9183
   29MOL0     C 3793   2.012   8.399   7.380 -0.4285  0.0849 -0.7453
   29MOL0     C 3794   1.896   8.335   7.305  0.4961 -0.5295 -0.5398
   29MOL0     C 3795   1.919   8.198   7.244  0.7069 -0.5202 -0.0810
   29MOL0     C 3796   2.006   8.210   7.119  0.1019 -0.1108  0.0089
   29MOL0     N 3797   2.157   8.222   7.138 -0.4156 -0.5152 -0.9520
   29MOL0     C 3798   2.250   8.308   7.080  0.2870 -0.1452 -0.0690
   29MOL0     C 3799   2.358   8.308   7.156 -0.9276  0.3851  0.2023
   29MOL0     C 3800   2.482   8.380   7.144  0.1334 -0.0826  0.4272
   29MOL0     C 3801   2.570   8.324   7.024  0.0274  0.4844 -0.4499
   29MOL0     C 3802   2.498   8.283   6.894  0.1118  0.0972 -0.0866
   29MOL0     C 3803   2.594   8.256   6.784  0.3816  0.1951 -0.6568
   29MOL0     O 3804   2.671   8.362   6.745  0.7298 -0.7958  0.4424
   29MOL0     C 3805   2.755   8.354   6.647 -0.4375  0.1920 -0.5167
   29MOL0     C 3806   2.820   8.472   6.616 -0.0339  0.5258 -0.2444
   29MOL0     C 3807   2.908   8.481   6.504  0.5497  0.3759  0.0756
   29MOL0     C 3808   2.923   8.365   6.414 -0.1030  0.1450  0.2341
   29MOL0     C 3809   3.024   8.352   6.304  0.0812 -0.6203  1.4100
   29MOL0     O 3810   3.097   8.243   6.299  0.0180  0.4068 -0.1420
   29MOL0     C 3811   3.211   8.234   6.228 -0.3900 -0.0389  0.4918
   29MOL0     C 3812   3.216   8.250   6.090 -0.2550 -0.2802 -0.8544
   29MOL0     C 3813   3.346   8.244   6.033 -0.6202 -0.2828  0.1879
   29MOL0     C 3814   3.463   8.203   6.100  0.6802 -0.1834  0.0388
   29MOL0     O 3815   3.579   8.210   6.039 -0.3643  0.3760 -0.5312
   29MOL0     C 3816   3.610   8.294   5.926 -0.0035 -0.2153 -0.0713
   29MOL0     C 3817   3.766   8.306   5.922 -0.3318  0.2760  0.0165
   29MOL0     C 3818   3.813   8.388   5.804  0.4662 -0.6334  1.4123
   29MOL0     C 3819   3.965   8.410   5.804  0.4354 -0.7865  0.6509
   29MOL0     C 3820   4.003   8.500   5.681 -0.3871 -0.5686  0.5027
   29MOL0     C 3821   4.012   8.427   5.547  0.1572  0.5869 -0.6059
   29MOL0     C 3822   3.976   8.507   5.427  0.9829 -0.4484  0.0597
   29MOL0     C 3823   3.830   8.543   5.430 -0.4542 -0.0373  0.1103
   29MOL0    Cl 3824   3.767   8.546   5.263 -0.0264  0.2228  0.2367
   29MOL0     C 3825   3.446   8.177   6.231 -0.2145  0.1428  0.6955
   29MOL0     C 3826   3.327   8.196   6.294 -0.2851  0.1543  0.3353
   29MOL0     O 3827   3.025   8.445   6.219  0.3695  0.9746 -0.0452
   29MOL0     C 3828   2.856   8.250   6.444  0.1989  0.3392  0.0170
   29MOL0     C 3829   2.771   8.239   6.566 -0.9733  0.4721 -0.1121
   29MOL0     N 3830   2.352   8.199   7.239  0.3190 -0.4085  0.5571
   29MOL0     N 3831   2.227   8.166   7.241 -0.2256  0.0012 -0.4814
   29MOL0     C 3832   2.529   8.509   7.976 -1.0571 -0.3539 -0.6386
   29MOL0     C 3833   2.667   8.499   7.996  0.6212  0.3725  0.1559
   29MOL0     C 3834   3.074   8.487   8.042  0.0317 -0.9676 -0.2648
   29MOL0     C 3835   3.081   8.611   7.971  0.2847  0.2978  0.5474
   29MOL0     C 3836   3.194   8.690   7.972 -0.5352  0.5807  0.1622
   29MOL0     C 3837   3.307   8.648   8.046  0.2651 -1.6312  0.4643
   29MOL0     O 3838   3.419   8.724   8.046 -0.1857 -0.1964  0.0606
   29MOL0     C 3839   3.525   8.709   8.137 -0.7646  0.1900 -0.0976
   29MOL0     C 3840   3.633   8.825   8.122  0.2432  0.7261  0.4531
   29MOL0     C 3841   3.764   8.777   8.174  0.1733  0.1480 -1.0547
   29MOL0     C 3842   3.794   8.813   8.323  0.6040 -0.0171  0.1253
   29MOL0     C 3843   3.777   8.951   8.352 -0.4132 -0.9238 -0.3712
   29MOL0     C 3844   3.768   9.076   8.367  0.3235  0.5878 -0.4503
   29MOL0     C 3845   3.300   8.531   8.115  0.0915  0.2923 -0.6263
   29MOL0     C 3846   3.182   8.454   8.123 -1.0656  0.5929  1.0131
   29MOL0     C 3847   3.177   8.317   8.190  0.1449 -0.2101  0.6605
   29MOL0     H 3848   2.748   8.384   7.697 -0.1938  2.5434 -1.1618
   29MOL0     H 3849   2.507   8.400   7.650 -1.2574  0.7838  0.1786
   29MOL0     H 3850   2.236   8.658   7.771 -1.8396 -2.0798  2.1118
   29MOL0     H 3851   2.363   8.610   7.668  2.1222  1.5194  3.2113
   29MOL0     H 3852   2.102   8.455   7.706  0.3363  1.6861  0.9157
   29MOL0     H 3853   2.237   8.408   7.603  2.3989 -0.3821  2.5950
   29MOL0     H 3854   2.171   8.610   7.449  1.2315 -1.7914  0.0590
   29MOL0     H 3855   2.070   8.672   7.575 -1.4707 -1.4725  0.0222
   29MOL0     H 3856   1.918   8.460   7.559 -0.0027 -0.7599 -1.7641
   29MOL0     H 3857   1.921   8.590   7.437  1.8998  0.3007 -3.1823
   29MOL0     H 3858   2.070   8.440   7.297  0.5528 -1.6294 -0.9568
   29MOL0     H 3859   2.064   8.322   7.437 -0.0313  1.2862  0.5810
   29MOL0     H 3860   1.808   8.333   7.369  1.7929 -2.6531  1.3014
   29MOL0     H 3861   1.873   8.394   7.215  0.0438 -0.7217 -0.5525
   29MOL0     H 3862   1.819   8.166   7.215  0.6559 -0.7025  0.2937
   29MOL0     H 3863   1.957   8.115   7.304 -1.6582 -2.2618 -0.8687
   29MOL0     H 3864   2.002   8.118   7.059 -0.2411 -0.3713  0.4239
   29MOL0     H 3865   1.973   8.286   7.048  1.9534  0.3231 -0.4418
   29MOL0     H 3866   2.229   8.374   6.996 -1.4874  0.5435  0.8620
   29MOL0     H 3867   2.451   8.480   7.114 -1.1111 -0.3294  0.8668
   29MOL0     H 3868   2.541   8.376   7.236  1.0837  0.1827 -0.1472
   29MOL0     H 3869   2.638   8.401   6.986 -2.4296  1.8660 -2.3627
   29MOL0     H 3870   2.626   8.241   7.067  1.2022  1.7829  0.6756
   29MOL0     H 3871   2.433   8.357   6.847  1.2374 -0.0595 -1.9745
   29MOL0     H 3872   2.441   8.194   6.922 -0.6006  1.0215  1.5782
   29MOL0     H 3873   2.536   8.213   6.702  3.0570  0.0707 -2.6323
   29MOL0     H 3874   2.671   8.184   6.813 -0.1132  0.1816  0.6807
   29MOL0     H 3875   2.808   8.568   6.664  2.6172  1.8145 -1.9193
   29MOL0     H 3876   2.973   8.567   6.489  2.9864 -1.2480  0.7695
   29MOL0     H 3877   3.131   8.287   6.034  1.7784  0.6383 -3.5838
   29MOL0     H 3878   3.349   8.286   5.933 -0.3342 -3.4800 -1.2512
   29MOL0     H 3879   3.570   8.252   5.833  1.8733  0.3888 -1.2004
   29MOL0     H 3880   3.578   8.398   5.936  1.1870  0.3933 -1.9446
   29MOL0     H 3881   3.802   8.356   6.012  0.2741 -2.2073  1.2609
   29MOL0     H 3882   3.816   8.209   5.934 -0.5347  0.2237  0.4712
   29MOL0     H 3883   3.786   8.336   5.712  0.4420  0.3313  0.8597
   29MOL0     H 3884   3.750   8.478   5.805 -1.7224 -2.0560  2.5773
   29MOL0     H 3885   4.026   8.319   5.798 -0.9519 -1.7321  0.3578
   29MOL0     H 3886   3.993   8.460   5.898 -1.3345  0.7910  0.3847
   29MOL0     H 3887   4.097   8.547   5.712 -0.1247  0.6773 -1.9755
   29MOL0     H 3888   3.924   8.576   5.679  0.4111  0.2444 -1.0921
   29MOL0     H 3889   4.115   8.389   5.543  0.7146  1.8338  0.9085
   29MOL0     H 3890   3.936   8.350   5.558  1.2237 -0.7883 -2.2649
   29MOL0     H 3891   3.996   8.450   5.336  2.8157 -0.5342  0.4735
   29MOL0     H 3892   4.044   8.592   5.418  1.7495 -1.0546  0.0362
   29MOL0     H 3893   3.770   8.475   5.491  0.9461 -0.2916  1.2484
   29MOL0     H 3894   3.818   8.642   5.476  2.6272 -0.7336  2.8380
   29MOL0     H 3895   3.533   8.134   6.280 -1.9765 -2.1944  1.9657
   29MOL0     H 3896   3.329   8.165   6.398 -1.0447  0.4659  0.4470
   29MOL0     H 3897   2.868   8.156   6.392 -3.3612  0.4871 -1.2952
   29MOL0     H 3898   2.727   8.141   6.579  2.8144 -1.4444 -0.2007
   29MOL0     H 3899   2.463   8.549   8.052 -0.5224 -2.4740  1.0395
   29MOL0     H 3900   2.713   8.528   8.090 -1.3672 -0.6832  1.5141
   29MOL0     H 3901   2.988   8.647   7.929 -0.5055  0.4441  2.3191
   29MOL0     H 3902   3.208   8.778   7.911 -0.6752  0.5788  0.1294
   29MOL0     H 3903   3.568   8.610   8.116 -0.1122  0.7410 -1.4890
   29MOL0     H 3904   3.485   8.718   8.238 -2.7444 -1.4659 -0.6660
   29MOL0     H 3905   3.591   8.917   8.164 -3.1649 -0.9253  0.9931
   29MOL0     H 3906   3.635   8.830   8.012 -1.3811  1.4601  0.4252
   29MOL0     H 3907   3.839   8.820   8.106 -1.2772 -0.7345 -3.3300
   29MOL0     H 3908   3.764   8.668   8.162 -2.0708  0.0739 -0.6486
   29MOL0     H 3909   3.720   8.763   8.387  2.1280 -0.3849  1.6708
   29MOL0     H 3910   3.899   8.789   8.340  1.0420  0.6573 -1.4777
   29MOL0     H 3911   3.742   9.178   8.385  1.6665  0.7736  0.5896
   29MOL0     H 3912   3.388   8.512   8.175  0.3048 -0.2775 -1.1241
   29MOL0     H 3913   3.274   8.296   8.238 -0.0796 -0.6109  0.9482
   29MOL0     H 3914   3.105   8.334   8.271 -1.2125  3.0018 -1.0510
   29MOL0     H 3915   3.146   8.239   8.121 -4.0588  0.2433  1.7752
   30MOL0     O 3916  10.545   9.754   2.445 -0.0713 -0.6281  0.7157
   30MOL0     C 3917  10.456   9.743   2.534  1.1225 -0.9827  0.3012
   30MOL0     O 3918  10.478   9.776   2.661  0.1711  1.1592 -0.2485
   30MOL0     C 3919  10.599   9.741   2.711 -0.6051 -0.1409 -0.3699
   30MOL0     C 3920  10.687   9.630   2.685  0.1778 -0.0855  0.3881
   30MOL0     C 3921  10.794   9.607   2.763 -0.0654 -0.6276 -0.0958
   30MOL0     C 3922  10.845   9.696   2.854 -0.1929 -0.7121  0.0102
   30MOL0     O 3923  10.955   9.674   2.936  0.0168  0.4883 -0.2659
   30MOL0     C 3924  10.939   9.583   3.052 -0.4633 -0.4104  0.4063
   30MOL0     C 3925  11.039   9.615   3.169 -0.4424  0.1190  0.1911
   30MOL0     C 3926  11.087   9.757   3.172  0.0898  0.2738  0.3647
   30MOL0     C 3927  11.170   9.804   3.286  0.1032  0.3044  0.0509
   30MOL0     C 3928  11.284   9.706   3.331 -0.4600 -0.9278  0.5738
   30MOL0     C 3929  11.392   9.708   3.223  0.3322 -0.2200 -0.2715
   30MOL0     C 3930  11.520   9.641   3.266  0.3292  0.5256 -0.6731
   30MOL0     C 3931  11.592   9.706   3.390  0.3819 -0.3707  0.5576
   30MOL0     N 3932  11.716   9.633   3.413 -0.4229 -0.6310 -0.1732
   30MOL0     C 3933  11.742   9.518   3.479  0.3939 -0.2724  0.9073
   30MOL0     C 3934  11.875   9.490   3.456 -0.5085  0.3528  0.5267
   30MOL0     C 3935  11.945   9.376   3.527  0.4848  0.4529  0.4639
   30MOL0     C 3936  11.972   9.402   3.673 -0.2819 -0.2593 -0.4924
   30MOL0     C 3937  11.986   9.548   3.729 -0.1689 -0.4695  0.4321
   30MOL0     C 3938  12.120   9.614   3.696 -0.1924  0.2091  0.0147
   30MOL0     O 3939  12.226   9.558   3.782  0.8106  0.8062  0.4727
   30MOL0     C 3940  12.319   9.472   3.737  0.2580  0.7609  0.5830
   30MOL0     C 3941  12.319   9.426   3.603  0.4331  1.5079 -0.7558
   30MOL0     C 3942  12.430   9.346   3.571  0.2864 -0.7485 -0.3138
   30MOL0     C 3943  12.525   9.304   3.662  0.2811 -0.3880 -0.3687
   30MOL0     C 3944  12.633   9.218   3.608  0.4800 -0.2120  0.4546
   30MOL0     O 3945  12.724   9.187   3.701  0.1222 -0.1965  0.6170
   30MOL0     C 3946  12.831   9.105   3.672  0.8437 -0.4806 -0.4147
   30MOL0     C 3947  12.840   8.986   3.741 -0.5697  0.4410  0.3305
   30MOL0     C 3948  12.940   8.897   3.713 -0.3775 -0.3780  1.3873
   30MOL0     C 3949  13.042   8.922   3.616  0.3952 -0.7600 -0.2617
   30MOL0     O 3950  13.129   8.823   3.585  0.3631 -0.5060  0.4836
   30MOL0     C 3951  13.270   8.847   3.589  0.4629 -0.1584 -0.6161
   30MOL0     C 3952  13.331   8.831   3.724  0.2398  0.3027  0.4021
   30MOL0     C 3953  13.482   8.850   3.713  0.7894  0.5182 -0.1962
   30MOL0     C 3954  13.538   8.844   3.852  0.1448  0.1726  0.3927
   30MOL0     C 3955  13.687   8.852   3.845  0.0215  0.5227  0.4470
   30MOL0     C 3956  13.740   8.904   3.987 -0.2166  0.0141  0.0111
   30MOL0     C 3957  13.889   8.911   3.968 -0.4248  0.6814  0.1675
   30MOL0     C 3958  13.958   8.970   4.090 -0.3463 -0.4869 -0.0088
   30MOL0    Cl 3959  14.101   8.864   4.130  0.4365  0.2920 -0.0121
   30MOL0     C 3960  13.037   9.046   3.549 -0.6232 -1.0324 -0.8235
   30MOL0     C 3961  12.941   9.141   3.580 -0.5607 -0.6805 -0.5529
   30MOL0     O 3962  12.630   9.186   3.489 -0.4626 -0.0509 -0.1036
   30MOL0     C 3963  12.518   9.350   3.792  0.0884 -0.5353 -0.3425
   30MOL0     C 3964  12.420   9.436   3.829 -0.3636  0.4647  0.4802
   30MOL0     N 3965  11.934   9.584   3.366 -0.6480 -0.7976  0.4682
   30MOL0     N 3966  11.834   9.667   3.346 -0.5953  0.0290 -0.1297
   30MOL0     C 3967  10.768   9.814   2.868 -0.0898 -0.9331  0.3841
   30MOL0     C 3968  10.647   9.827   2.814  1.2585  0.5972 -0.3150
   30MOL0     C 3969  10.314   9.714   2.497 -0.4278  0.3105 -1.0682
   30MOL0     C 3970  10.200   9.760   2.577 -0.2314 -0.0433  0.8087
   30MOL0     C 3971  10.066   9.751   2.529 -0.3523  0.2023 -0.1448
   30MOL0     C 3972  10.042   9.692   2.407 -0.8005  0.8453 -0.7728
   30MOL0     O 3973   9.913   9.675   2.384  0.1906 -0.1076  0.4391
   30MOL0     C 3974   9.871   9.579   2.287  0.1385  0.6398  0.0550
   30MOL0     C 3975   9.879   9.647   2.141  0.3385  0.3796 -0.2056
   30MOL0     C 3976   9.866   9.804   2.128 -0.9289  1.4262 -0.5030
   30MOL0     C 3977   9.861   9.847   1.985 -0.2165  0.5350  0.6219
   30MOL0     C 3978   9.724   9.830   1.939 -1.1505  0.6394 -0.7745
   30MOL0     C 3979   9.617   9.823   1.886  0.2093  0.0471  0.1719
   30MOL0     C 3980  10.150   9.643   2.329  0.0492  0.2309 -0.5460
   30MOL0     C 3981  10.281   9.654   2.371  0.6744 -0.0430 -0.6000
   30MOL0     C 3982  10.383   9.599   2.273  0.1799 -0.8041 -0.4889
   30MOL0     H 3983  10.657   9.560   2.607  2.1200 -1.9612  1.2177
   30MOL0     H 3984  10.845   9.512   2.758 -1.8447 -1.6986  1.0843
   30MOL0     H 3985  10.841   9.595   3.098 -1.9655 -0.0052 -2.6555
   30MOL0     H 3986  10.943   9.480   3.015  0.7405 -0.5481  0.8640
   30MOL0     H 3987  11.124   9.546   3.165 -0.1814  0.4303  0.3382
   30MOL0     H 3988  11.007   9.593   3.271 -0.2448  1.8790  0.6604
   30MOL0     H 3989  11.001   9.824   3.184  0.5381  0.9805 -0.2836
   30MOL0     H 3990  11.129   9.799   3.080 -0.6453  1.0380  0.3618
   30MOL0     H 3991  11.207   9.906   3.270  0.3245  0.1590 -0.3847
   30MOL0     H 3992  11.107   9.822   3.374  0.9264  0.0182  0.7180
   30MOL0     H 3993  11.325   9.754   3.420  1.2465  1.8433 -1.5567
   30MOL0     H 3994  11.244   9.606   3.350 -1.4358 -0.4610  1.0487
   30MOL0     H 3995  11.354   9.654   3.136 -0.4859 -1.3450  0.7687
   30MOL0     H 3996  11.421   9.811   3.199 -1.9089  1.0347  1.9511
   30MOL0     H 3997  11.588   9.631   3.181 -1.4804 -0.7328 -2.0504
   30MOL0     H 3998  11.498   9.536   3.288  1.7593  0.1203 -1.0528
   30MOL0     H 3999  11.618   9.811   3.377 -2.3109  0.1713 -1.6645
   30MOL0     H 4000  11.528   9.713   3.479  0.6690  1.3187  0.6666
   30MOL0     H 4001  11.687   9.455   3.548 -1.7321  0.0785 -0.3849
   30MOL0     H 4002  11.889   9.283   3.517  1.3822 -0.6144  4.0153
   30MOL0     H 4003  12.040   9.359   3.476  1.1765  2.1187  1.1053
   30MOL0     H 4004  11.889   9.348   3.719  0.5490 -0.4057  0.8931
   30MOL0     H 4005  12.056   9.346   3.716  0.6083  2.0867  1.0135
   30MOL0     H 4006  11.971   9.546   3.838  1.3352 -0.1636  0.6710
   30MOL0     H 4007  11.906   9.608   3.686  1.3011  1.1066 -0.2057
   30MOL0     H 4008  12.108   9.721   3.717  1.5305  0.2249  1.0946
   30MOL0     H 4009  12.138   9.598   3.589  0.5911 -1.1976  0.3417
   30MOL0     H 4010  12.238   9.435   3.532 -0.0300 -1.5099 -0.7489
   30MOL0     H 4011  12.431   9.309   3.468  1.8453 -1.5444 -0.0599
   30MOL0     H 4012  12.770   8.963   3.821 -1.3132  0.3076 -0.3408
   30MOL0     H 4013  12.939   8.799   3.759  2.6377 -2.3328 -2.1675
   30MOL0     H 4014  13.314   8.770   3.525  1.1192  0.8305 -1.3893
   30MOL0     H 4015  13.289   8.946   3.547 -1.0264  0.3169 -0.2409
   30MOL0     H 4016  13.291   8.907   3.791 -0.3712  1.6406 -1.3798
   30MOL0     H 4017  13.299   8.734   3.763 -0.8685  0.4877  0.0044
   30MOL0     H 4018  13.527   8.766   3.659  0.5360 -0.5254  1.1517
   30MOL0     H 4019  13.514   8.937   3.655  0.1410  1.3156  0.6361
   30MOL0     H 4020  13.504   8.757   3.908 -1.5828  0.6684  0.1791
   30MOL0     H 4021  13.497   8.932   3.902  1.1836  0.4363  0.7912
   30MOL0     H 4022  13.724   8.920   3.767  0.7286 -0.8939 -0.4972
   30MOL0     H 4023  13.723   8.755   3.810 -1.4534  0.6213 -1.5738
   30MOL0     H 4024  13.704   8.996   4.033  1.5226  0.9342 -0.3617
   30MOL0     H 4025  13.710   8.820   4.050  1.1421 -1.6434 -1.4393
   30MOL0     H 4026  13.928   8.984   3.896  3.6854 -0.0296  1.3960
   30MOL0     H 4027  13.923   8.809   3.951  1.0530  1.3170 -1.0368
   30MOL0     H 4028  13.986   9.076   4.089  4.1471 -1.4292  0.7409
   30MOL0     H 4029  13.889   8.953   4.173 -2.6471  2.5777 -1.1177
   30MOL0     H 4030  13.106   9.067   3.467  1.6296  2.2445  1.6470
   30MOL0     H 4031  12.950   9.236   3.528  0.8492 -1.4895 -1.8652
   30MOL0     H 4032  12.594   9.347   3.869 -0.0474  0.2566 -0.1671
   30MOL0     H 4033  12.428   9.484   3.926  1.4985 -1.2776  1.2747
   30MOL0     H 4034  10.789   9.892   2.941 -3.6470  1.0399 -0.4693
   30MOL0     H 4035  10.599   9.922   2.834 -1.0089 -0.7257  0.9825
   30MOL0     H 4036  10.214   9.813   2.671  0.7183 -2.0037  1.8478
   30MOL0     H 4037   9.982   9.777   2.593  0.6668 -1.5178  2.0678
   30MOL0     H 4038   9.771   9.534   2.297  0.8701 -1.7933 -2.3112
   30MOL0     H 4039   9.940   9.494   2.280  2.5322  2.4984 -0.0287
   30MOL0     H 4040   9.810   9.601   2.070  0.4471  0.3289 -0.2774
   30MOL0     H 4041   9.979   9.627   2.103  0.4914 -0.4195  0.5669
   30MOL0     H 4042   9.965   9.827   2.167 -1.0683 -1.2829  1.7885
   30MOL0     H 4043   9.791   9.847   2.195 -0.5350  0.4647  0.5771
   30MOL0     H 4044   9.889   9.952   1.971 -0.9762  0.7628  0.8124
   30MOL0     H 4045   9.927   9.785   1.922 -0.3759  1.1576 -0.1715
   30MOL0     H 4046   9.521   9.832   1.838  1.5443  1.0468 -2.5495
   30MOL0     H 4047  10.146   9.600   2.230  3.4503 -1.9197  0.0872
   30MOL0     H 4048  10.474   9.558   2.318  0.4457 -0.3469 -0.6112
   30MOL0     H 4049  10.340   9.522   2.208 -1.4918 -3.0117  2.9149
   30MOL0     H 4050  10.417   9.685   2.214 -0.2851 -0.3909 -0.1620
   31MOL0     O 4051   2.153   4.287   1.803 -0.6563 -0.3815 -0.3040
   31MOL0     C 4052   2.160   4.319   1.686  0.9865  0.4610 -0.3234
   31MOL0     O 4053   2.266   4.382   1.629 -0.1372  0.4351  0.2748
   31MOL0     C 4054   2.395   4.377   1.683  0.2145 -0.6581  0.1447
   31MOL0     C 4055   2.462   4.500   1.668  0.4352  0.2623  0.6460
   31MOL0     C 4056   2.591   4.521   1.704  0.3196 -0.7034 -0.4213
   31MOL0     C 4057   2.654   4.425   1.781 -0.5797  0.0246  0.5845
   31MOL0     O 4058   2.782   4.440   1.836 -0.0135 -0.0461  0.0850
   31MOL0     C 4059   2.839   4.576   1.852  0.5708  0.9811 -0.0682
   31MOL0     C 4060   2.982   4.566   1.898 -0.4655 -0.3047 -0.2632
   31MOL0     C 4061   3.019   4.497   2.031 -0.0311  1.0906  0.6120
   31MOL0     C 4062   2.953   4.558   2.157  0.2985  0.6092  0.0495
   31MOL0     C 4063   3.015   4.500   2.289  0.8911 -0.1230 -0.2981
   31MOL0     C 4064   3.002   4.597   2.407  0.2577  0.4196 -0.1506
   31MOL0     C 4065   3.118   4.682   2.449 -0.3954 -1.2431  0.5801
   31MOL0     C 4066   3.165   4.782   2.348 -1.4667 -0.0664 -0.0225
   31MOL0     N 4067   3.274   4.724   2.265  0.9715  0.1445 -0.5680
   31MOL0     C 4068   3.278   4.725   2.125  0.0318 -0.4765  0.9012
   31MOL0     C 4069   3.395   4.669   2.095 -0.7327 -1.1181 -0.2006
   31MOL0     C 4070   3.452   4.644   1.957 -0.3657 -0.1727  0.2214
   31MOL0     C 4071   3.508   4.503   1.945  0.3048  0.0840 -0.3072
   31MOL0     C 4072   3.391   4.399   1.933 -0.7749 -0.1158  0.1104
   31MOL0     C 4073   3.448   4.262   1.902  0.6899  0.6308  0.0951
   31MOL0     O 4074   3.342   4.168   1.853 -0.2474 -0.3086  0.5112
   31MOL0     C 4075   3.228   4.152   1.931  1.0081  0.0495 -0.0282
   31MOL0     C 4076   3.106   4.105   1.874  0.1017 -0.2123  0.8268
   31MOL0     C 4077   2.981   4.086   1.942  0.5839 -0.4674 -0.1582
   31MOL0     C 4078   2.988   4.108   2.083 -0.2952  0.8086  0.6090
   31MOL0     C 4079   2.868   4.078   2.163  0.5217 -0.7422  0.9043
   31MOL0     O 4080   2.751   4.083   2.087  0.6314 -0.0535  0.5240
   31MOL0     C 4081   2.644   4.148   2.148  0.9466  0.6049  0.2769
   31MOL0     C 4082   2.519   4.081   2.152 -0.1601  0.3181  0.0508
   31MOL0     C 4083   2.406   4.133   2.220  0.3246  0.2377 -0.0346
   31MOL0     C 4084   2.420   4.255   2.292  0.4401  0.8051  0.5912
   31MOL0     O 4085   2.325   4.310   2.372  0.4666 -0.3608  0.2097
   31MOL0     C 4086   2.190   4.286   2.336 -0.2143  0.3886 -0.4755
   31MOL0     C 4087   2.104   4.365   2.421  0.2258  0.8916 -0.2631
   31MOL0     C 4088   1.953   4.344   2.405 -0.2387 -0.0441  0.2545
   31MOL0     C 4089   1.861   4.407   2.514  0.6875 -0.4781 -0.0324
   31MOL0     C 4090   1.727   4.334   2.528 -0.0526 -0.0782 -0.9996
   31MOL0     C 4091   1.647   4.317   2.400  0.8382  0.2557  0.2546
   31MOL0     C 4092   1.598   4.448   2.336 -0.3917  1.0199  0.7444
   31MOL0     C 4093   1.519   4.518   2.452 -0.3327 -0.2859  0.8739
   31MOL0    Cl 4094   1.416   4.645   2.386  0.3267 -0.0164 -0.0839
   31MOL0     C 4095   2.537   4.327   2.284  0.8376 -0.6113  0.1724
   31MOL0     C 4096   2.651   4.276   2.214 -0.5216  0.3289  0.2409
   31MOL0     O 4097   2.873   4.062   2.287  0.7353  0.5387  0.2737
   31MOL0     C 4098   3.102   4.166   2.140 -0.1639 -0.3402 -0.8707
   31MOL0     C 4099   3.222   4.178   2.068 -0.7504 -0.8833 -0.4584
   31MOL0     N 4100   3.470   4.651   2.200 -0.1182  0.3341 -0.2857
   31MOL0     N 4101   3.389   4.666   2.303 -1.0677  0.5088 -0.4759
   31MOL0     C 4102   2.596   4.301   1.796 -0.0433 -0.1925 -0.0473
   31MOL0     C 4103   2.463   4.272   1.742  0.3157 -0.8481  0.3086
   31MOL0     C 4104   2.030   4.289   1.611 -0.6689  0.7593 -0.1504
   31MOL0     C 4105   1.919   4.265   1.690 -1.1033 -0.8730  0.2281
   31MOL0     C 4106   1.803   4.234   1.622  0.4588 -0.1459  0.1265
   31MOL0     C 4107   1.787   4.230   1.484 -0.2907 -0.2552  1.3570
   31MOL0     O 4108   1.672   4.186   1.421 -1.0655 -0.0364 -0.2540
   31MOL0     C 4109   1.545   4.176   1.492  0.5348  0.6148  0.2182
   31MOL0     C 4110   1.517   4.039   1.546  0.5630  0.3712 -0.2570
   31MOL0     C 4111   1.367   4.003   1.575 -0.2442 -0.1258 -0.9801
   31MOL0     C 4112   1.296   4.104   1.662  0.5578  0.2617  0.2527
   31MOL0     C 4113   1.149   4.074   1.652  0.8519 -0.1307  0.2404
   31MOL0     C 4114   1.031   4.048   1.642  0.8676 -0.5220 -0.3452
   31MOL0     C 4115   1.905   4.247   1.407 -0.2106 -0.8217  0.5835
   31MOL0     C 4116   2.032   4.264   1.468  0.3924  0.2298 -0.1249
   31MOL0     C 4117   2.161   4.255   1.375  0.2929  0.4426  0.5761
   31MOL0     H 4118   2.400   4.582   1.631 -1.2813 -0.1398  2.4268
   31MOL0     H 4119   2.620   4.624   1.693 -3.6021  0.4792 -1.4914
   31MOL0     H 4120   2.833   4.644   1.767 -0.0638  1.5873  0.4525
   31MOL0     H 4121   2.778   4.628   1.927  0.1042  0.3482 -0.0034
   31MOL0     H 4122   3.019   4.668   1.908  0.0424 -0.4469 -0.6563
   31MOL0     H 4123   3.034   4.514   1.817 -0.1003  0.3784 -0.4741
   31MOL0     H 4124   3.128   4.487   2.036 -0.0539  0.5197  0.1092
   31MOL0     H 4125   2.981   4.395   2.020  1.0141  0.8000 -0.6270
   31MOL0     H 4126   2.976   4.664   2.146  2.0774  0.4041  1.3634
   31MOL0     H 4127   2.848   4.530   2.166 -0.3772  2.6174 -1.0273
   31MOL0     H 4128   2.986   4.397   2.312  3.6760 -1.3289 -1.6723
   31MOL0     H 4129   3.122   4.482   2.276  0.8557 -0.2884 -0.3613
   31MOL0     H 4130   2.925   4.674   2.392 -1.9003 -1.0160  2.4722
   31MOL0     H 4131   2.969   4.537   2.493  2.4200 -1.0886 -0.3117
   31MOL0     H 4132   3.188   4.610   2.490  0.6755  0.2633  1.4911
   31MOL0     H 4133   3.082   4.730   2.541 -0.9500  1.3852 -0.8871
   31MOL0     H 4134   3.086   4.821   2.284 -1.2834  0.7224  0.2200
   31MOL0     H 4135   3.204   4.867   2.406  1.5497 -0.7797 -0.7843
   31MOL0     H 4136   3.207   4.768   2.055  0.8290  0.4388  0.6340
   31MOL0     H 4137   3.374   4.666   1.884  1.5053  4.9159 -0.6143
   31MOL0     H 4138   3.532   4.715   1.936  0.3331 -1.0497 -0.1577
   31MOL0     H 4139   3.565   4.498   1.851  2.2778  1.4790  0.7185
   31MOL0     H 4140   3.576   4.476   2.026  2.3822 -1.1894 -2.3209
   31MOL0     H 4141   3.319   4.425   1.855 -0.2069  3.8810  0.6739
   31MOL0     H 4142   3.332   4.394   2.024 -1.5308 -3.2576 -0.4428
   31MOL0     H 4143   3.495   4.215   1.989 -0.2930 -1.0234 -0.2289
   31MOL0     H 4144   3.525   4.268   1.824 -2.6041 -0.0749 -3.5177
   31MOL0     H 4145   3.113   4.105   1.766  0.4949  2.3195  0.7793
   31MOL0     H 4146   2.893   4.038   1.901  0.2307  0.1197 -0.0926
   31MOL0     H 4147   2.511   3.982   2.107  2.3962  0.5361 -1.0598
   31MOL0     H 4148   2.318   4.069   2.213 -0.4372  1.2972 -0.4199
   31MOL0     H 4149   2.172   4.315   2.232 -0.4824  1.2304 -0.1998
   31MOL0     H 4150   2.170   4.180   2.355  1.0464  0.2160  0.0239
   31MOL0     H 4151   2.122   4.334   2.525  4.5833 -0.8806 -1.3185
   31MOL0     H 4152   2.132   4.470   2.427  1.2500  0.5475  1.9079
   31MOL0     H 4153   1.917   4.370   2.305 -4.1471 -1.6252  1.0414
   31MOL0     H 4154   1.931   4.237   2.417 -1.2114  0.3440  2.4889
   31MOL0     H 4155   1.835   4.510   2.490 -1.0526 -1.3466 -2.1197
   31MOL0     H 4156   1.912   4.401   2.611 -2.2966  0.3302  1.7030
   31MOL0     H 4157   1.661   4.366   2.609 -0.9437 -1.4656 -1.1505
   31MOL0     H 4158   1.744   4.228   2.552  2.9247  0.3235 -0.9370
   31MOL0     H 4159   1.705   4.267   2.322 -1.1144  1.5309 -2.1677
   31MOL0     H 4160   1.549   4.271   2.413  0.9895 -0.3425 -0.6497
   31MOL0     H 4161   1.533   4.435   2.249 -0.4151 -3.0266  1.2175
   31MOL0     H 4162   1.678   4.515   2.301 -1.5286  2.0337  0.0052
   31MOL0     H 4163   1.451   4.448   2.503 -1.6274  0.5560  0.3309
   31MOL0     H 4164   1.581   4.572   2.525  1.7912 -0.5493 -0.6405
   31MOL0     H 4165   2.535   4.429   2.318 -1.2000 -0.6288  0.1949
   31MOL0     H 4166   2.745   4.326   2.234  1.0308 -2.9762  2.0047
   31MOL0     H 4167   3.089   4.197   2.243  0.7286 -2.8267  0.0677
   31MOL0     H 4168   3.315   4.201   2.119 -1.3202 -1.2507  0.7782
   31MOL0     H 4169   2.648   4.221   1.848  1.8160  2.0011  1.6514
   31MOL0     H 4170   2.413   4.178   1.762  3.2486 -2.3066  1.4993
   31MOL0     H 4171   1.919   4.265   1.799 -2.4473  2.1854  0.3296
   31MOL0     H 4172   1.727   4.211   1.696 -0.9497  2.7113 -0.2989
   31MOL0     H 4173   1.462   4.200   1.424  0.2712  1.7702  0.9126
   31MOL0     H 4174   1.533   4.258   1.563 -0.4534  1.1775 -0.5826
   31MOL0     H 4175   1.581   4.022   1.634  2.1386  0.5739 -1.3196
   31MOL0     H 4176   1.561   3.959   1.487 -1.7532 -1.7004  0.6457
   31MOL0     H 4177   1.350   3.907   1.624 -0.6071 -1.6060 -3.8137
   31MOL0     H 4178   1.313   3.989   1.481 -0.8459 -0.7434 -0.5528
   31MOL0     H 4179   1.336   4.096   1.763 -2.4089  0.0695  1.5322
   31MOL0     H 4180   1.312   4.208   1.632  2.0888  0.0533  0.3031
   31MOL0     H 4181   0.925   4.032   1.641  0.4703  1.7425 -2.3321
   31MOL0     H 4182   1.902   4.241   1.298  2.0489 -3.6583  0.5370
   31MOL0     H 4183   2.186   4.348   1.323 -0.6195  0.0354 -0.6078
   31MOL0     H 4184   2.247   4.218   1.433  1.0989  0.7615 -0.3862
   31MOL0     H 4185   2.132   4.187   1.295  2.2605 -0.2961  0.4149
   32MOL0     O 4186   5.121   3.090   7.745  0.2179  0.3599  0.2637
   32MOL0     C 4187   5.158   2.986   7.805 -0.6842  0.1285 -0.8664
   32MOL0     O 4188   5.266   2.905   7.763  0.6045  0.8078 -0.3862
   32MOL0     C 4189   5.312   2.915   7.631 -1.1505 -0.7304  0.5114
   32MOL0     C 4190   5.224   2.933   7.525  0.8233  0.4129 -0.1978
   32MOL0     C 4191   5.263   2.963   7.391 -0.1613  0.5249 -0.3728
   32MOL0     C 4192   5.400   2.961   7.358  1.0459 -0.6136  0.1185
   32MOL0     O 4193   5.430   2.987   7.227 -0.6537 -0.1967  0.3823
   32MOL0     C 4194   5.567   2.989   7.179  0.2985  0.0501  0.3878
   32MOL0     C 4195   5.560   3.013   7.030  0.4653  0.0031 -0.3030
   32MOL0     C 4196   5.702   3.020   6.963  0.4160 -0.6305  0.7948
   32MOL0     C 4197   5.696   3.061   6.807  0.4064 -0.2261 -0.7209
   32MOL0     C 4198   5.812   3.003   6.735  0.0409  0.5307  0.4606
   32MOL0     C 4199   5.939   3.082   6.760  0.3849 -0.4465 -1.2638
   32MOL0     C 4200   6.056   3.020   6.680 -0.7834  0.6444 -0.5709
   32MOL0     C 4201   6.199   3.084   6.691 -0.2888 -0.5790  0.9856
   32MOL0     N 4202   6.269   3.097   6.815  0.2911  0.1225 -0.8886
   32MOL0     C 4203   6.283   2.987   6.899 -0.2789  0.3334  1.1236
   32MOL0     C 4204   6.347   3.030   7.009  0.7012 -0.5192  0.9986
   32MOL0     C 4205   6.393   2.949   7.121  1.4372  0.6125 -0.5540
   32MOL0     C 4206   6.542   2.913   7.100 -0.0489  0.0452 -0.4758
   32MOL0     C 4207   6.611   3.032   7.173  0.4708  1.0082  0.2495
   32MOL0     C 4208   6.758   3.024   7.131  0.1749 -0.6305 -0.2133
   32MOL0     O 4209   6.820   2.898   7.161 -0.6604  0.1903  0.5108
   32MOL0     C 4210   6.926   2.892   7.253 -0.4498 -0.0791 -0.1502
   32MOL0     C 4211   6.976   2.990   7.340 -0.2915 -0.0791  0.1257
   32MOL0     C 4212   7.100   2.961   7.405 -1.2216  0.6582  0.0016
   32MOL0     C 4213   7.170   2.835   7.383 -0.5169 -0.2423 -1.1264
   32MOL0     C 4214   7.278   2.789   7.471 -0.6700 -1.0159  0.1103
   32MOL0     O 4215   7.343   2.678   7.443 -0.6991  0.2759 -0.2025
   32MOL0     C 4216   7.421   2.605   7.537  0.1585  0.6517  0.3295
   32MOL0     C 4217   7.534   2.539   7.492  0.5517  0.2310 -0.0035
   32MOL0     C 4218   7.605   2.465   7.584 -0.6495  0.6593  0.6421
   32MOL0     C 4219   7.567   2.450   7.720  0.5176  0.0616  0.0746
   32MOL0     O 4220   7.639   2.376   7.806  0.1063 -0.1557 -0.0404
   32MOL0     C 4221   7.759   2.443   7.847  0.5499 -0.3801  0.3071
   32MOL0     C 4222   7.880   2.378   7.788  0.1273  0.9428  0.1867
   32MOL0     C 4223   7.924   2.274   7.890  0.1513 -1.3716  0.1021
   32MOL0     C 4224   7.983   2.348   8.017 -0.3795  0.0060 -0.3568
   32MOL0     C 4225   8.036   2.257   8.127 -0.3198 -0.7076 -0.0069
   32MOL0     C 4226   8.060   2.328   8.254  0.2223  0.4971  0.6680
   32MOL0     C 4227   8.067   2.205   8.356 -1.3433 -0.4322  0.1512
   32MOL0     C 4228   8.099   2.225   8.504 -0.4097  0.0489  0.4400
   32MOL0    Cl 4229   8.065   2.068   8.583 -0.1895  0.3693 -0.1115
   32MOL0     C 4230   7.447   2.510   7.756  0.5980  0.0173 -0.1612
   32MOL0     C 4231   7.380   2.594   7.667  0.4922  0.1992  0.4005
   32MOL0     O 4232   7.304   2.866   7.564  0.3797 -0.6359  0.1460
   32MOL0     C 4233   7.115   2.743   7.293  1.1641 -0.3734 -1.0457
   32MOL0     C 4234   6.989   2.765   7.239  0.1422 -0.1725  0.6443
   32MOL0     N 4235   6.356   3.171   6.996 -1.0176  0.2844  0.5693
   32MOL0     N 4236   6.301   3.212   6.884 -0.5105 -0.2506  0.0602
   32MOL0     C 4237   5.490   2.941   7.460  0.9182  0.5520  0.2103
   32MOL0     C 4238   5.440   2.914   7.588 -0.8955 -0.6547  0.3454
   32MOL0     C 4239   5.107   2.963   7.944 -0.0503 -0.2699  0.2742
   32MOL0     C 4240   5.198   2.916   8.038  0.5453  0.1965  0.3694
   32MOL0     C 4241   5.168   2.912   8.173 -0.5635  0.4755 -0.2067
   32MOL0     C 4242   5.033   2.931   8.218 -0.6894  0.1999 -0.1787
   32MOL0     O 4243   4.993   2.923   8.351  0.4014 -0.6049  0.9399
   32MOL0     C 4244   5.088   2.977   8.443 -0.3785 -0.8403 -0.5770
   32MOL0     C 4245   5.019   3.055   8.559  0.2194 -0.1634 -0.0261
   32MOL0     C 4246   4.895   2.985   8.616  1.0763 -0.6809 -0.6378
   32MOL0     C 4247   4.853   3.028   8.753  0.2854  0.3203  0.5362
   32MOL0     C 4248   4.966   2.991   8.841 -0.0972 -0.5124  0.5621
   32MOL0     C 4249   5.045   2.955   8.928 -0.5801  0.3819 -0.5382
   32MOL0     C 4250   4.945   2.983   8.126 -0.1836 -0.9696  1.1935
   32MOL0     C 4251   4.979   3.004   7.990  0.0524  0.2183 -1.0329
   32MOL0     C 4252   4.875   3.060   7.896 -0.1351 -0.4535 -0.0893
   32MOL0     H 4253   5.116   2.923   7.529  0.6132  2.3945  0.1986
   32MOL0     H 4254   5.190   2.982   7.314 -1.7443  1.3742  1.2618
   32MOL0     H 4255   5.615   3.071   7.233  1.2860  0.5239 -1.1526
   32MOL0     H 4256   5.608   2.890   7.199  0.0624 -0.2678 -0.6382
   32MOL0     H 4257   5.500   3.104   7.019 -3.1734 -2.3866 -1.6178
   32MOL0     H 4258   5.511   2.933   6.975  2.4257  0.9220 -3.6642
   32MOL0     H 4259   5.756   2.925   6.969 -2.5233 -2.7338 -2.2299
   32MOL0     H 4260   5.751   3.109   7.005 -2.0203 -0.1999  3.0379
   32MOL0     H 4261   5.603   3.019   6.767 -0.4976  1.6514 -0.6946
   32MOL0     H 4262   5.701   3.170   6.798 -0.4564  0.1213  2.1516
   32MOL0     H 4263   5.828   2.898   6.759  0.7274  0.6069  0.3481
   32MOL0     H 4264   5.782   3.007   6.630  3.0072 -0.8867 -0.5535
   32MOL0     H 4265   5.923   3.187   6.732  0.9144 -0.6992 -2.5607
   32MOL0     H 4266   5.961   3.074   6.866 -0.3399  0.7211 -0.9976
   32MOL0     H 4267   6.030   3.018   6.574  0.8018 -1.7425 -1.0133
   32MOL0     H 4268   6.052   2.914   6.707 -3.3975  1.2586  1.9050
   32MOL0     H 4269   6.267   3.028   6.627  0.1997 -1.7169  2.4271
   32MOL0     H 4270   6.190   3.190   6.665  2.6108 -0.5704 -0.2895
   32MOL0     H 4271   6.247   2.888   6.870 -0.1419  0.5158  0.3143
   32MOL0     H 4272   6.370   3.014   7.206 -3.3048 -0.8472 -0.4302
   32MOL0     H 4273   6.339   2.854   7.118  1.6892  0.4949 -1.4839
   32MOL0     H 4274   6.559   2.817   7.150 -0.4016  1.7160  3.1319
   32MOL0     H 4275   6.569   2.900   6.995 -0.6786 -5.3394 -0.2509
   32MOL0     H 4276   6.606   3.020   7.281  0.7954 -0.7734  0.1038
   32MOL0     H 4277   6.562   3.126   7.147 -2.1552 -0.4918 -0.6225
   32MOL0     H 4278   6.816   3.109   7.169  1.2415 -0.4202 -2.1751
   32MOL0     H 4279   6.751   3.049   7.025 -1.6625  2.5127  0.5194
   32MOL0     H 4280   6.926   3.082   7.368 -1.1677 -0.2417 -0.8392
   32MOL0     H 4281   7.137   3.022   7.486 -0.3613 -2.4592  2.1444
   32MOL0     H 4282   7.556   2.553   7.387 -0.1679 -2.4233 -0.5682
   32MOL0     H 4283   7.691   2.413   7.542 -0.2335  0.8929  1.1986
   32MOL0     H 4284   7.750   2.546   7.811  0.5809 -0.5379 -0.1601
   32MOL0     H 4285   7.762   2.431   7.956  2.1963  0.1051  0.3345
   32MOL0     H 4286   7.854   2.332   7.692 -3.3263  1.5884  0.6826
   32MOL0     H 4287   7.952   2.458   7.772 -0.0621  1.1570  0.4030
   32MOL0     H 4288   7.836   2.215   7.917 -1.5087  1.5652  1.6504
   32MOL0     H 4289   8.000   2.214   7.838  0.4249  1.1003 -2.6171
   32MOL0     H 4290   7.918   2.424   8.061  0.0200 -0.1319  0.5069
   32MOL0     H 4291   8.068   2.408   7.982 -1.5297  1.3164 -1.0295
   32MOL0     H 4292   8.121   2.197   8.095 -0.3215 -1.4438  1.3072
   32MOL0     H 4293   7.953   2.185   8.133 -2.5618  1.6258 -0.9493
   32MOL0     H 4294   8.151   2.388   8.258  0.2999  0.5992 -1.4469
   32MOL0     H 4295   7.980   2.398   8.282 -2.2168 -2.4271  1.6059
   32MOL0     H 4296   8.137   2.126   8.329 -1.4808 -0.7481  0.7130
   32MOL0     H 4297   7.967   2.161   8.356 -0.3597 -2.7761  0.2612
   32MOL0     H 4298   8.206   2.246   8.513 -0.0452 -1.8466  0.8513
   32MOL0     H 4299   8.043   2.305   8.554 -2.6260 -2.1485  1.6990
   32MOL0     H 4300   7.430   2.509   7.863  2.7547 -0.7105  0.2118
   32MOL0     H 4301   7.298   2.659   7.696  0.4849  2.3170 -3.6525
   32MOL0     H 4302   7.168   2.649   7.285 -1.0135 -1.5238 -3.2085
   32MOL0     H 4303   6.941   2.688   7.179 -0.8665 -1.5727  3.0870
   32MOL0     H 4304   5.594   2.955   7.433  1.5364  1.4365  2.7819
   32MOL0     H 4305   5.521   2.919   7.661  0.1224  0.9602 -0.8154
   32MOL0     H 4306   5.298   2.900   8.001  0.1990 -1.1267 -0.0518
   32MOL0     H 4307   5.254   2.885   8.233  0.5579 -1.3768 -2.4557
   32MOL0     H 4308   5.153   3.052   8.396 -1.4507 -0.6481 -1.7765
   32MOL0     H 4309   5.155   2.903   8.487  0.3793  0.7819  1.1783
   32MOL0     H 4310   4.986   3.159   8.552  2.4780  1.1369  4.4575
   32MOL0     H 4311   5.095   3.072   8.636  0.2147  0.2022 -0.0966
   32MOL0     H 4312   4.916   2.878   8.613  1.7076 -0.5484 -1.0811
   32MOL0     H 4313   4.805   3.001   8.557 -0.7347 -3.9280  0.9753
   32MOL0     H 4314   4.840   3.136   8.754  3.2937  0.8009 -0.2337
   32MOL0     H 4315   4.773   2.960   8.782  0.0707 -0.8192 -2.3755
   32MOL0     H 4316   5.118   2.921   8.998  1.4145  1.5385 -1.9256
   32MOL0     H 4317   4.844   3.000   8.163  0.0313 -0.6764  1.6611
   32MOL0     H 4318   4.779   3.023   7.935 -0.1662 -1.3366 -0.9554
   32MOL0     H 4319   4.868   3.169   7.894  3.7919 -0.0468 -3.8849
   32MOL0     H 4320   4.881   3.006   7.801  2.5333 -2.4038  1.0529
   33MOL0     O 4321   4.886   7.851  10.341  0.0797 -0.1420  0.3007
   33MOL0     C 4322   4.778   7.882  10.305 -0.4689 -0.3671 -0.7551
   33MOL0     O 4323   4.696   7.967  10.375 -0.0626 -0.2408 -0.3951
   33MOL0     C 4324   4.737   8.021  10.496  0.5158  0.0050  0.0721
   33MOL0     C 4325   4.861   8.060  10.527  0.5112 -0.6020 -0.1768
   33MOL0     C 4326   4.898   8.141  10.645 -0.2193 -0.2514  0.5507
   33MOL0     C 4327   4.796   8.183  10.726 -0.3693  0.2869 -0.5591
   33MOL0     O 4328   4.829   8.255  10.841 -0.0907  0.2511  0.2834
   33MOL0     C 4329   4.735   8.340  10.899  0.2249 -0.5433  1.0036
   33MOL0     C 4330   4.810   8.430  11.005  0.6794 -0.3711 -0.4861
   33MOL0     C 4331   4.720   8.543  11.049 -0.0449  0.2936 -0.2262
   33MOL0     C 4332   4.795   8.671  11.084  0.3425 -0.8748 -0.0904
   33MOL0     C 4333   4.695   8.783  11.137  0.1129 -0.3068 -0.6962
   33MOL0     C 4334   4.600   8.835  11.024  0.4584 -0.5687 -0.5212
   33MOL0     C 4335   4.525   8.953  11.074  0.7844  0.6313 -0.6120
   33MOL0     C 4336   4.610   9.078  11.070 -0.2560 -0.1205  0.8447
   33MOL0     N 4337   4.525   9.180  11.125  0.0276 -0.3237  0.2035
   33MOL0     C 4338   4.483   9.203  11.251  0.1173  0.2804  0.2337
   33MOL0     C 4339   4.413   9.319  11.245  0.1879 -0.0984  0.0338
   33MOL0     C 4340   4.335   9.393  11.349 -0.7664  0.1118 -0.1950
   33MOL0     C 4341   4.431   9.462  11.457  0.3585 -0.7459 -0.2379
   33MOL0     C 4342   4.507   9.583  11.398  0.1704 -0.4806 -0.4134
   33MOL0     C 4343   4.535   9.694  11.509  0.1119 -0.4394 -0.0246
   33MOL0     O 4344   4.603   9.627  11.611 -0.3293  0.1229  0.6074
   33MOL0     C 4345   4.639   9.703  11.724  0.0853  0.2807  0.1359
   33MOL0     C 4346   4.703   9.823  11.722 -0.4834  0.2482 -0.4341
   33MOL0     C 4347   4.732   9.901  11.835  0.5141  0.2412  0.6689
   33MOL0     C 4348   4.695   9.848  11.963 -0.8146  0.3759 -0.6036
   33MOL0     C 4349   4.733   9.928  12.081  0.2629  0.5293  0.5366
   33MOL0     O 4350   4.780  10.056  12.061 -0.5098  0.4911 -0.3608
   33MOL0     C 4351   4.810  10.124  12.178  0.5475 -0.1838 -0.2853
   33MOL0     C 4352   4.944  10.152  12.217  0.1433  0.1234 -0.4384
   33MOL0     C 4353   4.959  10.243  12.327  0.0675 -0.2384  0.0645
   33MOL0     C 4354   4.850  10.296  12.398 -0.6339 -0.1537 -0.5309
   33MOL0     O 4355   4.858  10.377  12.507  0.1896 -1.2670 -0.7284
   33MOL0     C 4356   4.988  10.401  12.563 -0.1070  0.6145  0.6510
   33MOL0     C 4357   4.975  10.475  12.688  0.7506  0.0135 -0.0634
   33MOL0     C 4358   4.876  10.404  12.793 -0.7650 -1.3329 -1.0350
   33MOL0     C 4359   4.750  10.494  12.794  0.1045  0.1558 -0.8599
   33MOL0     C 4360   4.663  10.467  12.920  0.3542 -0.4703 -0.7337
   33MOL0     C 4361   4.539  10.561  12.924 -0.1330 -0.1998 -0.7654
   33MOL0     C 4362   4.461  10.546  12.798  0.4940 -0.2210 -0.5028
   33MOL0     C 4363   4.314  10.594  12.804 -0.2190 -0.3630 -0.0570
   33MOL0    Cl 4364   4.300  10.753  12.874  0.0896 -0.1930 -0.1115
   33MOL0     C 4365   4.726  10.280  12.355  0.6081 -0.5895  0.4185
   33MOL0     C 4366   4.702  10.200  12.248  0.0097  0.4910  0.6605
   33MOL0     O 4367   4.716   9.877  12.189 -0.6641  0.0209 -0.5830
   33MOL0     C 4368   4.648   9.720  11.967 -0.5136  0.3965 -0.7085
   33MOL0     C 4369   4.615   9.651  11.844 -0.8401 -0.2236  0.3267
   33MOL0     N 4370   4.407   9.363  11.107 -0.2296  0.0359 -0.2419
   33MOL0     N 4371   4.475   9.280  11.042  0.0715 -0.1567  0.1374
   33MOL0     C 4372   4.664   8.140  10.701  0.5933  0.8124 -0.1322
   33MOL0     C 4373   4.637   8.059  10.584 -1.0439 -0.7683 -0.5839
   33MOL0     C 4374   4.710   7.797  10.196  0.4272 -0.2579  0.1556
   33MOL0     C 4375   4.602   7.863  10.137  0.6249  0.5970 -0.5724
   33MOL0     C 4376   4.542   7.810  10.021 -0.0970 -0.9786  0.2477
   33MOL0     C 4377   4.582   7.684   9.975 -0.0473  0.1427 -0.7412
   33MOL0     O 4378   4.516   7.633   9.867  0.4275 -0.0372  0.9720
   33MOL0     C 4379   4.595   7.569   9.759  0.0007 -0.4635 -0.9007
   33MOL0     C 4380   4.492   7.529   9.652  0.6735  0.3443  0.6250
   33MOL0     C 4381   4.543   7.417   9.556 -0.3135  0.2725  0.4670
   33MOL0     C 4382   4.470   7.382   9.427  0.2434 -0.2110 -0.6669
   33MOL0     C 4383   4.354   7.302   9.461 -0.4652 -0.5287  0.2295
   33MOL0     C 4384   4.251   7.235   9.481 -0.1896  0.3937 -0.0235
   33MOL0     C 4385   4.691   7.624  10.032  0.4693 -0.7542 -0.1956
   33MOL0     C 4386   4.761   7.675  10.138  0.6519  0.3404 -0.3738
   33MOL0     C 4387   4.885   7.597  10.194  0.0726  1.0541 -0.3316
   33MOL0     H 4388   4.946   8.060  10.460  0.3817  2.9679 -0.5654
   33MOL0     H 4389   4.996   8.177  10.672 -0.8341  2.1149 -0.1652
   33MOL0     H 4390   4.697   8.413  10.827  0.3217 -1.0957  0.3846
   33MOL0     H 4391   4.648   8.301  10.952 -0.3605  3.1615  3.1057
   33MOL0     H 4392   4.910   8.453  10.964 -0.1903  3.0707 -1.0108
   33MOL0     H 4393   4.835   8.379  11.098 -1.7770  1.0845  1.0595
   33MOL0     H 4394   4.658   8.508  11.133 -0.8084  0.0515 -0.8767
   33MOL0     H 4395   4.639   8.565  10.978 -2.1555  1.0539  2.2473
   33MOL0     H 4396   4.855   8.652  11.172  0.4226 -1.5177 -0.2802
   33MOL0     H 4397   4.861   8.699  11.001 -0.4393 -0.2146 -0.5126
   33MOL0     H 4398   4.628   8.736  11.211 -0.1883 -1.6307 -1.7619
   33MOL0     H 4399   4.757   8.860  11.182  3.5620 -1.8715 -2.4582
   33MOL0     H 4400   4.657   8.857  10.933  2.1273  1.2151  0.8625
   33MOL0     H 4401   4.527   8.758  10.996 -0.6573  0.0338  0.6386
   33MOL0     H 4402   4.498   8.933  11.178  0.2305 -1.5414 -1.1346
   33MOL0     H 4403   4.437   8.970  11.010  0.3376 -0.5001 -0.3151
   33MOL0     H 4404   4.705   9.079  11.123  0.1623  0.7353  0.0972
   33MOL0     H 4405   4.636   9.095  10.965  0.0423 -2.2937  0.5103
   33MOL0     H 4406   4.493   9.140  11.339  1.9328  1.1909  0.7242
   33MOL0     H 4407   4.270   9.466  11.300 -3.5983 -1.4954  0.9425
   33MOL0     H 4408   4.259   9.330  11.395 -1.3844 -0.5875 -2.0906
   33MOL0     H 4409   4.360   9.495  11.533  0.9847  2.2024 -0.8180
   33MOL0     H 4410   4.509   9.399  11.500  1.3655 -0.4357 -1.5417
   33MOL0     H 4411   4.458   9.628  11.312 -3.2294 -0.2453  1.4593
   33MOL0     H 4412   4.599   9.537  11.362 -0.1883 -1.0870 -0.5695
   33MOL0     H 4413   4.441   9.737  11.545  1.0114  0.5415  1.2246
   33MOL0     H 4414   4.600   9.770  11.464 -0.5059  0.0550 -0.0989
   33MOL0     H 4415   4.733   9.877  11.633 -1.7367 -0.0955 -1.0905
   33MOL0     H 4416   4.771  10.001  11.818 -0.2478  0.2832 -0.9743
   33MOL0     H 4417   5.028  10.110  12.161  0.2972  2.1151 -1.7857
   33MOL0     H 4418   5.060  10.264  12.361  0.7233  0.0636 -1.9663
   33MOL0     H 4419   5.037  10.305  12.583  2.3604  1.8061  0.6636
   33MOL0     H 4420   5.050  10.462  12.496 -0.2129 -1.5382 -1.5460
   33MOL0     H 4421   5.069  10.485  12.743 -0.4769 -1.8777  2.5926
   33MOL0     H 4422   4.931  10.568  12.652  1.1024  0.8172  1.4926
   33MOL0     H 4423   4.861  10.298  12.768 -3.3640 -1.1287 -0.6313
   33MOL0     H 4424   4.921  10.417  12.892 -2.3741  1.1565 -0.5727
   33MOL0     H 4425   4.694  10.467  12.704 -1.1700 -2.1153  0.4877
   33MOL0     H 4426   4.773  10.601  12.796 -0.2896  0.2488 -1.1938
   33MOL0     H 4427   4.718  10.473  13.015  1.3717 -0.5409 -1.2997
   33MOL0     H 4428   4.630  10.363  12.908 -2.2594  0.4210 -1.7221
   33MOL0     H 4429   4.467  10.531  13.001 -1.0802 -1.8972 -2.2442
   33MOL0     H 4430   4.574  10.664  12.930  0.6559 -0.4119 -1.4542
   33MOL0     H 4431   4.455  10.440  12.773 -0.6349 -0.7837  1.9430
   33MOL0     H 4432   4.512  10.609  12.724  2.3452  2.0351  2.4679
   33MOL0     H 4433   4.269  10.606  12.705 -0.0381  2.1621  0.0827
   33MOL0     H 4434   4.250  10.518  12.849 -0.2897 -0.1623  0.1880
   33MOL0     H 4435   4.645  10.328  12.408 -0.5724 -2.0326 -0.0172
   33MOL0     H 4436   4.600  10.206  12.209  0.6281  0.2856 -1.0831
   33MOL0     H 4437   4.630   9.675  12.064 -0.5103 -1.0535 -1.3583
   33MOL0     H 4438   4.582   9.548  11.846 -1.5964  0.0103  0.2621
   33MOL0     H 4439   4.586   8.155  10.775 -0.8809 -2.2641 -0.9172
   33MOL0     H 4440   4.532   8.045  10.560 -2.6937  3.9597  2.4485
   33MOL0     H 4441   4.557   7.958  10.163 -1.7845 -1.4866  4.1708
   33MOL0     H 4442   4.464   7.871   9.977  1.5510  0.4612 -0.8078
   33MOL0     H 4443   4.629   7.474   9.800  1.3736  1.3328  2.5460
   33MOL0     H 4444   4.678   7.629   9.722 -0.1394  0.6892  0.5632
   33MOL0     H 4445   4.470   7.622   9.598 -1.9563  1.9015  4.0377
   33MOL0     H 4446   4.393   7.508   9.692  1.0085 -3.4893 -0.1786
   33MOL0     H 4447   4.560   7.326   9.615  1.5825 -1.7874 -2.9595
   33MOL0     H 4448   4.638   7.452   9.516  1.2290  1.2444  4.5102
   33MOL0     H 4449   4.436   7.467   9.369  0.4097  1.2026  1.2186
   33MOL0     H 4450   4.541   7.319   9.371  1.3308 -0.5726  1.0139
   33MOL0     H 4451   4.158   7.183   9.477 -0.5322  0.9170  1.0261
   33MOL0     H 4452   4.716   7.525   9.995  0.0397  0.1662 -3.1507
   33MOL0     H 4453   4.901   7.506  10.135  2.3288  0.2628  1.3401
   33MOL0     H 4454   4.980   7.653  10.193  0.8321 -0.1841  0.2896
   33MOL0     H 4455   4.861   7.561  10.294  4.3455 -0.6234  0.3160
   34MOL0     O 4456   3.411   9.239  11.006 -0.0531 -0.0573  0.0607
   34MOL0     C 4457   3.488   9.165  11.059 -0.5195 -0.7235  0.5445
   34MOL0     O 4458   3.588   9.113  10.991  0.7362 -0.7772 -0.2147
   34MOL0     C 4459   3.606   9.121  10.859  0.1270  0.4308  0.1428
   34MOL0     C 4460   3.602   9.001  10.793 -0.4063  0.0960  0.4609
   34MOL0     C 4461   3.624   9.008  10.655 -0.2188 -0.3812  0.9389
   34MOL0     C 4462   3.654   9.122  10.577  0.3162 -0.9584  0.4750
   34MOL0     O 4463   3.678   9.125  10.440 -0.4165 -0.5017  0.4417
   34MOL0     C 4464   3.580   9.066  10.353  0.3438  0.2416 -0.0079
   34MOL0     C 4465   3.640   9.055  10.212 -0.0938 -0.8691  0.1220
   34MOL0     C 4466   3.526   8.992  10.130 -0.8844  0.2212 -0.2242
   34MOL0     C 4467   3.581   8.930  10.007 -0.0346 -0.4546 -0.3420
   34MOL0     C 4468   3.655   9.028   9.911  0.1493  0.7457 -0.1776
   34MOL0     C 4469   3.718   8.971   9.788 -0.6667  0.3907  0.0843
   34MOL0     C 4470   3.637   8.895   9.692  1.1954 -0.8794 -0.0458
   34MOL0     C 4471   3.517   8.969   9.637 -0.2818 -0.0852  0.1397
   34MOL0     N 4472   3.543   9.107   9.594  1.3142  0.3935  0.6001
   34MOL0     C 4473   3.485   9.215   9.651 -0.1424 -0.8000  0.2506
   34MOL0     C 4474   3.515   9.319   9.570 -0.5369 -0.2858  0.3772
   34MOL0     C 4475   3.457   9.459   9.568 -0.0440 -0.4715  0.8547
   34MOL0     C 4476   3.568   9.561   9.580 -0.7511  0.4799  0.0949
   34MOL0     C 4477   3.669   9.587   9.464 -0.1917 -0.2389 -0.2214
   34MOL0     C 4478   3.601   9.609   9.332 -0.4471  1.0828  1.1988
   34MOL0     O 4479   3.684   9.683   9.237 -0.7766 -0.2780 -0.6864
   34MOL0     C 4480   3.786   9.623   9.165  0.3824  0.2024 -0.1927
   34MOL0     C 4481   3.811   9.485   9.158 -0.1533 -0.4904  0.0863
   34MOL0     C 4482   3.922   9.445   9.085 -0.4162  0.3260 -0.5584
   34MOL0     C 4483   4.002   9.539   9.022 -0.1672 -0.5909 -0.2210
   34MOL0     C 4484   4.126   9.492   8.957  0.1048 -0.0067  0.7315
   34MOL0     O 4485   4.124   9.379   8.880  0.0778  0.6153  0.0213
   34MOL0     C 4486   4.234   9.308   8.830 -0.1185 -0.7954 -0.6575
   34MOL0     C 4487   4.357   9.290   8.900 -0.0929 -0.1067  0.7885
   34MOL0     C 4488   4.462   9.211   8.845  0.4597 -0.8902 -0.5203
   34MOL0     C 4489   4.443   9.150   8.721  0.3149  0.3704 -0.0773
   34MOL0     O 4490   4.550   9.083   8.674  0.2445  0.2001 -0.7122
   34MOL0     C 4491   4.531   8.944   8.658 -1.1291 -0.1834  0.2948
   34MOL0     C 4492   4.607   8.918   8.527 -0.8783 -0.1914  0.5200
   34MOL0     C 4493   4.607   8.769   8.493 -0.1510 -0.6956  0.2050
   34MOL0     C 4494   4.697   8.687   8.577 -0.0717 -0.4282  0.5946
   34MOL0     C 4495   4.739   8.550   8.527  0.1874  0.1274  0.0249
   34MOL0     C 4496   4.622   8.451   8.488 -0.2769  0.0048 -0.1972
   34MOL0     C 4497   4.536   8.419   8.602 -0.0805  0.0692 -0.6907
   34MOL0     C 4498   4.603   8.338   8.707  0.3833  0.1152  0.8909
   34MOL0    Cl 4499   4.661   8.191   8.642 -0.1498  0.0666 -0.2527
   34MOL0     C 4500   4.319   9.164   8.650 -0.8432 -0.3182 -0.0103
   34MOL0     C 4501   4.216   9.239   8.704  1.4054  0.1811  0.0199
   34MOL0     O 4502   4.227   9.567   8.967 -0.2405 -0.1174  0.0145
   34MOL0     C 4503   3.974   9.675   9.023 -0.1885  0.1228  0.2073
   34MOL0     C 4504   3.865   9.716   9.096 -0.5311 -0.6783 -0.5567
   34MOL0     N 4505   3.592   9.267   9.467  0.3720 -0.4284 -1.1941
   34MOL0     N 4506   3.600   9.140   9.479 -0.6031  0.8192  0.5146
   34MOL0     C 4507   3.660   9.250  10.648 -0.0397 -0.4197 -0.8848
   34MOL0     C 4508   3.639   9.247  10.790  0.0103 -0.6713 -0.4409
   34MOL0     C 4509   3.482   9.136  11.201  0.5608 -0.9305  0.1571
   34MOL0     C 4510   3.601   9.087  11.265 -0.0575 -0.7430  0.2067
   34MOL0     C 4511   3.596   9.058  11.398  0.3518 -0.3650  0.5418
   34MOL0     C 4512   3.478   9.081  11.479 -0.3952 -0.4849  0.7905
   34MOL0     O 4513   3.477   9.053  11.609 -0.3494 -0.6570  0.2435
   34MOL0     C 4514   3.419   9.150  11.696  0.0979  0.3662 -0.1738
   34MOL0     C 4515   3.517   9.262  11.738  0.1779  0.1284  0.0903
   34MOL0     C 4516   3.449   9.382  11.796 -0.1810  0.1178  1.1224
   34MOL0     C 4517   3.396   9.349  11.936  1.0544  0.3277  0.3906
   34MOL0     C 4518   3.329   9.466  11.991 -0.2600 -0.1102  0.9138
   34MOL0     C 4519   3.269   9.560  12.034 -0.0880 -0.2604 -0.3508
   34MOL0     C 4520   3.359   9.111  11.403  0.0330  0.6220 -0.6416
   34MOL0     C 4521   3.360   9.135  11.272 -0.3782 -0.2755  0.5034
   34MOL0     C 4522   3.216   9.154  11.215 -0.2910 -0.5134  0.6995
   34MOL0     H 4523   3.573   8.903  10.829 -0.0659 -0.1783 -0.0097
   34MOL0     H 4524   3.613   8.913  10.603 -0.4770  0.4460 -0.5695
   34MOL0     H 4525   3.548   8.966  10.383 -1.5304  0.9457  0.4293
   34MOL0     H 4526   3.496   9.135  10.359  0.6944  0.5671  2.1940
   34MOL0     H 4527   3.737   9.005  10.201  0.3800  0.2950 -1.4657
   34MOL0     H 4528   3.654   9.155  10.168  1.4482 -1.5049 -0.9539
   34MOL0     H 4529   3.444   9.062  10.109 -0.6123  1.9828  3.7819
   34MOL0     H 4530   3.469   8.920  10.190 -0.5618 -0.5296 -0.7920
   34MOL0     H 4531   3.647   8.845  10.026 -1.6320 -1.6876 -0.0697
   34MOL0     H 4532   3.501   8.882   9.950  0.8271  0.7444 -2.7005
   34MOL0     H 4533   3.587   9.107   9.879 -0.5644  0.0128 -0.5167
   34MOL0     H 4534   3.738   9.077   9.963  1.5759  0.6845 -2.2800
   34MOL0     H 4535   3.758   9.057   9.733  1.7858 -1.3535 -1.0447
   34MOL0     H 4536   3.808   8.911   9.802  1.0741  2.4144 -1.6892
   34MOL0     H 4537   3.609   8.809   9.754 -1.3241  0.7154  1.2099
   34MOL0     H 4538   3.687   8.861   9.601 -1.5924 -0.8574 -1.7038
   34MOL0     H 4539   3.495   8.921   9.541  1.7025 -0.5131 -0.1471
   34MOL0     H 4540   3.439   8.956   9.713  0.8637 -1.6584  1.0967
   34MOL0     H 4541   3.426   9.206   9.742 -1.4468 -1.7203 -0.6609
   34MOL0     H 4542   3.392   9.480   9.483 -2.1731  0.8455  2.7013
   34MOL0     H 4543   3.380   9.476   9.643  0.3499  0.7150  1.0078
   34MOL0     H 4544   3.529   9.659   9.608  1.0769  0.2008  4.4544
   34MOL0     H 4545   3.628   9.539   9.670  0.9008  2.1310 -0.5440
   34MOL0     H 4546   3.725   9.497   9.440 -2.1297 -1.4742 -0.2772
   34MOL0     H 4547   3.744   9.663   9.490  0.2483 -0.2134 -1.5353
   34MOL0     H 4548   3.515   9.675   9.344  0.4435  2.3336  0.8999
   34MOL0     H 4549   3.569   9.513   9.290 -0.1412  1.5900 -0.2844
   34MOL0     H 4550   3.745   9.412   9.203 -1.1963  1.3404  1.6324
   34MOL0     H 4551   3.950   9.343   9.061  1.0817  0.4683  0.4679
   34MOL0     H 4552   4.369   9.335   8.998  0.5479  1.0285  0.2148
   34MOL0     H 4553   4.557   9.213   8.897 -1.1341 -0.9442  2.5932
   34MOL0     H 4554   4.595   8.901   8.737 -1.5864 -1.2382  0.1114
   34MOL0     H 4555   4.433   8.900   8.678 -0.1906 -1.9384  1.3252
   34MOL0     H 4556   4.549   8.968   8.449 -3.0843 -3.4650 -0.1684
   34MOL0     H 4557   4.710   8.955   8.534 -0.6723 -1.0069  2.4907
   34MOL0     H 4558   4.504   8.736   8.504 -0.2825 -0.4066 -0.1529
   34MOL0     H 4559   4.621   8.766   8.385  0.9804 -1.2799  0.3568
   34MOL0     H 4560   4.657   8.679   8.679  0.7961 -0.4780  0.9401
   34MOL0     H 4561   4.788   8.747   8.586 -0.7011  0.6053  0.2939
   34MOL0     H 4562   4.811   8.506   8.597 -0.5221  1.9539  2.0312
   34MOL0     H 4563   4.790   8.556   8.430 -1.1793 -2.6263 -0.9753
   34MOL0     H 4564   4.563   8.497   8.408  1.4898  1.9260 -0.4859
   34MOL0     H 4565   4.655   8.359   8.437 -2.2797 -0.2215 -1.2084
   34MOL0     H 4566   4.443   8.369   8.573  0.1343 -2.8361  2.9801
   34MOL0     H 4567   4.496   8.506   8.656 -0.2944 -0.6047  0.2445
   34MOL0     H 4568   4.678   8.400   8.757  0.7404  2.3228 -2.0635
   34MOL0     H 4569   4.521   8.308   8.773 -1.5825 -1.2636 -1.9603
   34MOL0     H 4570   4.308   9.126   8.549 -0.9491  0.0316 -0.1327
   34MOL0     H 4571   4.124   9.246   8.647  1.6009  1.6328 -0.1408
   34MOL0     H 4572   4.034   9.746   8.967  2.7522 -0.5059  2.3333
   34MOL0     H 4573   3.837   9.821   9.095  0.1406 -0.4803 -1.6863
   34MOL0     H 4574   3.681   9.343  10.596 -0.4933  0.5369  0.5617
   34MOL0     H 4575   3.634   9.335  10.854  4.1176 -0.1818 -0.5371
   34MOL0     H 4576   3.683   9.056  11.200 -1.0407 -2.7937 -0.1251
   34MOL0     H 4577   3.677   9.005  11.446  0.1969 -1.0461  0.0773
   34MOL0     H 4578   3.402   9.098  11.791  0.7818 -1.3690 -0.9629
   34MOL0     H 4579   3.328   9.201  11.661 -1.3078 -2.4407 -0.9696
   34MOL0     H 4580   3.570   9.290  11.647 -1.0715 -0.1639 -0.7594
   34MOL0     H 4581   3.595   9.229  11.806 -0.1338 -2.0373 -0.5178
   34MOL0     H 4582   3.373   9.411  11.724  1.2553  2.7514  0.5416
   34MOL0     H 4583   3.523   9.462  11.801  1.4758 -1.2392  0.0393
   34MOL0     H 4584   3.316   9.275  11.922 -0.5107  1.8090  1.1254
   34MOL0     H 4585   3.473   9.311  12.004  3.5475  2.4338 -1.0713
   34MOL0     H 4586   3.214   9.642  12.074  1.2163  0.2023  0.5355
   34MOL0     H 4587   3.270   9.089  11.460  1.4534 -0.6434  1.2347
   34MOL0     H 4588   3.186   9.255  11.243  1.9351  0.4167 -0.0551
   34MOL0     H 4589   3.214   9.150  11.105 -0.7074  0.8044  0.6458
   34MOL0     H 4590   3.148   9.078  11.254  1.4281 -2.6701 -0.2946
   35MOL0     O 4591   1.089   3.407   6.276 -0.2102  1.1508  0.2541
   35MOL0     C 4592   1.065   3.440   6.157  1.0662  0.2040  0.2111
   35MOL0     O 4593   1.104   3.366   6.050 -0.4453  0.0741 -0.7227
   35MOL0     C 4594   1.183   3.251   6.057  0.7782 -0.4405 -0.1951
   35MOL0     C 4595   1.276   3.202   6.150 -0.7226 -0.2468  0.1803
   35MOL0     C 4596   1.357   3.093   6.133 -0.0777  1.4532  1.1095
   35MOL0     C 4597   1.354   3.025   6.006  0.2160  0.1714 -0.5641
   35MOL0     O 4598   1.438   2.924   5.979 -0.0148 -0.2468  0.0702
   35MOL0     C 4599   1.407   2.836   5.867 -0.0194 -0.4799  0.8902
   35MOL0     C 4600   1.504   2.714   5.885 -0.1500 -0.8748  0.1811
   35MOL0     C 4601   1.633   2.766   5.836  0.7877  0.0750  0.6038
   35MOL0     C 4602   1.741   2.655   5.822  0.5220  0.1613  0.3256
   35MOL0     C 4603   1.844   2.671   5.714 -0.0204 -0.4911  0.2432
   35MOL0     C 4604   1.944   2.559   5.709  0.8667 -0.2405  0.6113
   35MOL0     C 4605   2.006   2.529   5.567  0.3838  0.4409 -0.8127
   35MOL0     C 4606   2.100   2.409   5.556 -0.2055  0.0433 -0.5353
   35MOL0     N 4607   2.214   2.416   5.644 -0.4896  1.3091  0.9643
   35MOL0     C 4608   2.207   2.376   5.777 -0.3315 -0.6992  0.1269
   35MOL0     C 4609   2.339   2.367   5.814  0.8234 -0.7739 -0.1749
   35MOL0     C 4610   2.382   2.334   5.958 -0.2603  0.6795 -0.0297
   35MOL0     C 4611   2.331   2.197   6.009  1.1020  0.3273 -1.4857
   35MOL0     C 4612   2.378   2.089   5.920 -0.4804 -0.1648 -0.5093
   35MOL0     C 4613   2.357   1.957   5.978 -0.9523 -0.1450 -0.7577
   35MOL0     O 4614   2.220   1.939   5.998  0.3391  0.3327 -0.2039
   35MOL0     C 4615   2.182   1.848   6.091 -0.4901  0.8376 -0.0637
   35MOL0     C 4616   2.050   1.866   6.147 -0.1834 -0.8108 -0.1825
   35MOL0     C 4617   1.999   1.775   6.245 -0.0238  0.8500  0.4186
   35MOL0     C 4618   2.088   1.678   6.296 -1.0746  1.0795 -0.8799
   35MOL0     C 4619   2.041   1.579   6.394 -0.2282  0.0853 -0.0527
   35MOL0     O 4620   2.140   1.522   6.465 -1.0564 -1.2625  0.4336
   35MOL0     C 4621   2.108   1.432   6.560 -0.4622 -0.1309 -0.6267
   35MOL0     C 4622   2.127   1.300   6.522  0.4759 -1.7196  0.0631
   35MOL0     C 4623   2.082   1.202   6.605 -0.5117  0.1250  0.1401
   35MOL0     C 4624   2.027   1.234   6.734  0.4286  0.1868 -0.8476
   35MOL0     O 4625   1.981   1.135   6.812 -0.2366  0.2670 -0.5571
   35MOL0     C 4626   2.088   1.039   6.859  0.4349 -0.6527  1.1494
   35MOL0     C 4627   2.061   1.023   7.007 -0.3600  0.6657 -1.0625
   35MOL0     C 4628   2.115   1.146   7.086 -0.5839  0.3950 -0.1470
   35MOL0     C 4629   2.097   1.121   7.234  0.4174  0.1115  0.1301
   35MOL0     C 4630   2.198   1.207   7.317 -0.4798  0.3188 -0.1245
   35MOL0     C 4631   2.180   1.187   7.466  0.4470 -0.3600  0.3358
   35MOL0     C 4632   2.288   1.271   7.538 -0.6948 -0.5485  0.1936
   35MOL0     C 4633   2.283   1.256   7.687  0.8129 -0.5977  0.1608
   35MOL0    Cl 4634   2.113   1.316   7.732  0.1169 -0.5881  0.4208
   35MOL0     C 4635   2.020   1.374   6.771  0.6643  0.2390 -1.4185
   35MOL0     C 4636   2.066   1.470   6.681 -0.1128  0.2202  0.1263
   35MOL0     O 4637   1.922   1.558   6.405 -0.7354  0.9472  0.3329
   35MOL0     C 4638   2.214   1.654   6.235 -0.0040  0.3794 -0.2753
   35MOL0     C 4639   2.257   1.734   6.127 -0.3647 -0.1427  0.2922
   35MOL0     N 4640   2.417   2.399   5.704  1.3360  0.9054  1.0733
   35MOL0     N 4641   2.344   2.419   5.605 -0.6900 -0.9252  0.2738
   35MOL0     C 4642   1.270   3.080   5.908  0.7152 -0.3020 -0.1547
   35MOL0     C 4643   1.185   3.192   5.934  0.6961  0.8600  0.3106
   35MOL0     C 4644   0.993   3.576   6.129  0.0744 -0.6347 -0.7266
   35MOL0     C 4645   0.963   3.622   5.997  0.6421  0.2376 -0.4249
   35MOL0     C 4646   0.904   3.749   5.966  0.2850 -0.0311 -0.4031
   35MOL0     C 4647   0.876   3.834   6.072 -0.3672  0.3115  0.7299
   35MOL0     O 4648   0.808   3.961   6.056 -1.5419 -0.1585 -0.0059
   35MOL0     C 4649   0.806   4.026   5.928  0.7092 -0.0847 -0.0864
   35MOL0     C 4650   0.688   3.981   5.836 -0.1876  0.1847  0.9599
   35MOL0     C 4651   0.556   3.983   5.906 -1.1608  0.3320  0.4906
   35MOL0     C 4652   0.451   3.958   5.802  1.1699  0.6081  0.1971
   35MOL0     C 4653   0.324   4.016   5.853 -0.9000 -0.6285 -0.2902
   35MOL0     C 4654   0.222   4.079   5.883 -0.0789  0.3920 -0.0161
   35MOL0     C 4655   0.907   3.795   6.200 -0.9734 -0.2728  0.7169
   35MOL0     C 4656   0.962   3.676   6.232  0.3578  0.0020  0.7257
   35MOL0     C 4657   0.979   3.651   6.386  0.5496 -0.6058  0.6535
   35MOL0     H 4658   1.289   3.249   6.247 -0.0728  0.3074 -0.1720
   35MOL0     H 4659   1.434   3.057   6.200  1.7867  1.1791 -1.0607
   35MOL0     H 4660   1.305   2.797   5.873 -2.0405  3.9325 -0.2225
   35MOL0     H 4661   1.422   2.899   5.778  0.9508  0.9040  1.9820
   35MOL0     H 4662   1.460   2.630   5.830  1.2882  0.0685 -2.5963
   35MOL0     H 4663   1.528   2.683   5.987 -1.0305 -0.8853  0.3961
   35MOL0     H 4664   1.683   2.844   5.894  3.9096 -1.2981  0.0157
   35MOL0     H 4665   1.614   2.813   5.738 -0.6589 -2.8541 -0.6310
   35MOL0     H 4666   1.798   2.657   5.916 -0.0554 -1.3391  0.7473
   35MOL0     H 4667   1.693   2.558   5.806 -1.0243  0.7469  1.2100
   35MOL0     H 4668   1.790   2.676   5.619  0.9182  1.6548 -0.2171
   35MOL0     H 4669   1.892   2.768   5.725 -1.5987  0.2617  0.7675
   35MOL0     H 4670   2.026   2.580   5.779  1.1339  1.1626 -0.0864
   35MOL0     H 4671   1.899   2.469   5.752 -0.8094  1.7354  3.2919
   35MOL0     H 4672   2.069   2.612   5.534  0.0859  0.7330 -0.6547
   35MOL0     H 4673   1.927   2.513   5.493 -0.9244  1.2102  0.3668
   35MOL0     H 4674   2.060   2.311   5.584  2.4935 -0.5018  1.9508
   35MOL0     H 4675   2.136   2.400   5.453 -2.3495  0.3424 -1.3562
   35MOL0     H 4676   2.123   2.358   5.843 -0.5713  0.7314  0.2372
   35MOL0     H 4677   2.491   2.325   5.958 -0.2890 -0.5460 -2.2845
   35MOL0     H 4678   2.357   2.413   6.029  2.3237  1.3359  0.2472
   35MOL0     H 4679   2.369   2.171   6.108  1.0599 -2.5342 -2.1182
   35MOL0     H 4680   2.222   2.203   6.001  0.9736 -0.4637 -0.5162
   35MOL0     H 4681   2.485   2.109   5.911 -0.7263  1.4789 -0.1669
   35MOL0     H 4682   2.324   2.106   5.827  0.7244 -0.4503 -1.2866
   35MOL0     H 4683   2.410   1.939   6.072  1.5276  0.4721 -1.9599
   35MOL0     H 4684   2.393   1.880   5.909 -2.1216  1.1943 -2.9765
   35MOL0     H 4685   2.012   1.962   6.112  2.9298  0.9839  0.9937
   35MOL0     H 4686   1.902   1.785   6.292 -0.2346  4.6946 -0.5164
   35MOL0     H 4687   2.173   1.281   6.426  2.7254  0.9573  0.4839
   35MOL0     H 4688   2.091   1.100   6.568  2.1470  0.2997  0.1072
   35MOL0     H 4689   2.066   0.941   6.814  0.5016  0.0973 -0.5708
   35MOL0     H 4690   2.187   1.076   6.830 -0.1928  0.0823 -0.1272
   35MOL0     H 4691   1.953   1.011   7.023  0.0042  1.1595  2.7668
   35MOL0     H 4692   2.098   0.929   7.048 -4.1630 -1.4590 -2.1092
   35MOL0     H 4693   2.218   1.146   7.050 -0.2933 -3.3051  0.2652
   35MOL0     H 4694   2.061   1.238   7.060  1.5564  1.1286 -2.3414
   35MOL0     H 4695   2.112   1.014   7.248 -1.8908 -0.5308 -1.7689
   35MOL0     H 4696   1.993   1.141   7.263 -0.1336 -0.9562 -1.0323
   35MOL0     H 4697   2.170   1.309   7.289 -4.0945  0.1769  2.3963
   35MOL0     H 4698   2.300   1.187   7.283 -0.6488 -0.2956 -0.2804
   35MOL0     H 4699   2.082   1.231   7.487  0.8666  1.4628 -1.2193
   35MOL0     H 4700   2.180   1.082   7.496  2.5027  0.0687  2.1372
   35MOL0     H 4701   2.289   1.378   7.516  0.8151 -0.0942  2.1882
   35MOL0     H 4702   2.391   1.241   7.515  0.4567  0.7004  3.0964
   35MOL0     H 4703   2.296   1.154   7.725 -1.1703 -0.6190  0.9032
   35MOL0     H 4704   2.353   1.329   7.728  0.9810  1.6671 -3.6119
   35MOL0     H 4705   1.989   1.424   6.862  0.4757 -1.5532 -0.4403
   35MOL0     H 4706   2.048   1.572   6.716 -0.3920  0.1016  0.3309
   35MOL0     H 4707   2.276   1.575   6.274 -2.2001 -0.2530  2.2528
   35MOL0     H 4708   2.359   1.711   6.099 -0.1892  1.4245 -0.4855
   35MOL0     H 4709   1.290   3.036   5.810 -0.6696  1.0319 -1.0917
   35MOL0     H 4710   1.133   3.240   5.851  0.8534  0.6260  0.0762
   35MOL0     H 4711   0.988   3.559   5.912  0.1001 -0.1107 -0.3268
   35MOL0     H 4712   0.889   3.781   5.864  2.7081  2.6835 -0.0549
   35MOL0     H 4713   0.900   4.008   5.875  0.6105 -4.4557  0.8176
   35MOL0     H 4714   0.796   4.134   5.942  4.8400  0.6799 -1.6932
   35MOL0     H 4715   0.689   3.878   5.799  0.1217  0.2678  0.7352
   35MOL0     H 4716   0.697   4.048   5.750 -0.6340  0.5331  1.1763
   35MOL0     H 4717   0.535   4.080   5.952 -0.7769  0.2611  0.8156
   35MOL0     H 4718   0.556   3.912   5.989  1.2459 -1.1548 -0.7001
   35MOL0     H 4719   0.472   4.011   5.709 -0.0717 -2.1890 -1.8247
   35MOL0     H 4720   0.438   3.853   5.774 -0.4516  1.5456 -3.1121
   35MOL0     H 4721   0.133   4.117   5.930  0.5967 -0.5586  2.1471
   35MOL0     H 4722   0.893   3.869   6.278 -0.7897  2.5009 -1.7459
   35MOL0     H 4723   0.904   3.579   6.420  0.5703 -0.8245  0.2337
   35MOL0     H 4724   1.082   3.616   6.402  1.3775  1.7183  0.8074
   35MOL0     H 4725   0.980   3.745   6.443  1.1348  0.5376 -1.1609
   36MOL0     O 4726  10.245   9.779   0.496 -0.4687 -0.3050 -0.3444
   36MOL0     C 4727  10.124   9.767   0.516 -0.7128  0.2123  0.2577
   36MOL0     O 4728  10.042   9.865   0.515 -0.4970  0.0738 -0.0187
   36MOL0     C 4729  10.062   9.987   0.452 -0.5074  0.8062  0.1640
   36MOL0     C 4730  10.162  10.008   0.350  0.7986 -0.6231 -0.3919
   36MOL0     C 4731  10.170  10.134   0.291  0.3848  0.1025 -0.0678
   36MOL0     C 4732  10.082  10.235   0.326 -0.5598  1.3997 -0.1821
   36MOL0     O 4733  10.106  10.361   0.274  0.2858  0.0536 -0.1140
   36MOL0     C 4734  10.015  10.472   0.304  0.6592 -0.3886  0.0762
   36MOL0     C 4735  10.083  10.612   0.276  0.4913  0.0245  0.1840
   36MOL0     C 4736  10.132  10.640   0.136  0.5839  0.1661  0.2769
   36MOL0     C 4737  10.185  10.784   0.120 -0.4312  1.4304 -0.4197
   36MOL0     C 4738  10.228  10.809  -0.025  1.2555 -0.5145 -0.5602
   36MOL0     C 4739  10.309  10.699  -0.097  0.3257 -0.5648 -0.6056
   36MOL0     C 4740  10.380  10.748  -0.225  0.3178  0.0526 -0.2934
   36MOL0     C 4741  10.304  10.748  -0.354  0.1002 -0.1987  0.1907
   36MOL0     N 4742  10.196  10.642  -0.371 -0.1888 -0.4012  0.7199
   36MOL0     C 4743  10.057  10.651  -0.360  0.7455  0.5184 -0.2579
   36MOL0     C 4744  10.009  10.542  -0.427 -0.5555  0.3216  0.6400
   36MOL0     C 4745   9.870  10.493  -0.419  0.0075 -0.2693  0.5241
   36MOL0     C 4746   9.800  10.485  -0.557 -1.9423  0.1625  0.2098
   36MOL0     C 4747   9.659  10.420  -0.560 -0.3035  0.2520  0.0023
   36MOL0     C 4748   9.536  10.478  -0.481  0.6938 -0.0202 -1.7240
   36MOL0     O 4749   9.542  10.453  -0.330  0.0923 -0.5541  0.9744
   36MOL0     C 4750   9.469  10.357  -0.263 -0.1050 -0.2971  0.6799
   36MOL0     C 4751   9.451  10.382  -0.134 -0.1226  0.7262 -0.7009
   36MOL0     C 4752   9.387  10.288  -0.055  0.1294 -0.1769  0.5664
   36MOL0     C 4753   9.311  10.181  -0.114 -0.2542  0.8831 -1.1805
   36MOL0     C 4754   9.219  10.094  -0.035 -0.9279 -0.3883  0.0399
   36MOL0     O 4755   9.150  10.007  -0.109  0.1013  0.4495 -0.7554
   36MOL0     C 4756   9.039   9.947  -0.048  0.1370 -0.4167  0.5726
   36MOL0     C 4757   9.048   9.821  -0.006 -0.2114 -0.3036 -0.1509
   36MOL0     C 4758   8.928   9.757   0.041  0.6323 -0.9048 -0.7300
   36MOL0     C 4759   8.802   9.827   0.023 -0.1060 -0.0532 -0.0669
   36MOL0     O 4760   8.679   9.772   0.048  0.0398  0.5085  0.0464
   36MOL0     C 4761   8.672   9.645   0.116  0.0748  0.2437  0.2284
   36MOL0     C 4762   8.533   9.581   0.105 -0.0145 -0.4679  0.7569
   36MOL0     C 4763   8.420   9.659   0.158  0.3282  0.0268 -0.4422
   36MOL0     C 4764   8.309   9.685   0.049  0.5672  0.1111  0.6185
   36MOL0     C 4765   8.192   9.770   0.085  0.6757  0.3585  0.2593
   36MOL0     C 4766   8.102   9.784  -0.038  0.9905  0.8071 -0.8758
   36MOL0     C 4767   7.970   9.858   0.001  0.2856 -0.0738 -1.0933
   36MOL0     C 4768   7.855   9.836  -0.103 -0.6543  0.1814 -0.6159
   36MOL0    Cl 4769   7.885   9.864  -0.276  0.2881  0.4802  0.0742
   36MOL0     C 4770   8.791   9.950  -0.022 -0.2847 -0.4445  0.0001
   36MOL0     C 4771   8.913  10.017  -0.061  0.2650 -0.2589  0.4588
   36MOL0     O 4772   9.214  10.099   0.088 -0.5906  0.2507  0.3691
   36MOL0     C 4773   9.323  10.166  -0.256  0.4037 -0.0211  0.0044
   36MOL0     C 4774   9.405  10.250  -0.322  0.4899  0.1216  1.1368
   36MOL0     N 4775  10.114  10.473  -0.495 -0.0013 -0.7659 -0.4477
   36MOL0     N 4776  10.220  10.546  -0.463 -0.1765  0.0247 -0.0218
   36MOL0     C 4777   9.974  10.205   0.409  0.2152  1.0236 -0.2551
   36MOL0     C 4778   9.969  10.083   0.479  0.6439  0.7712 -0.4091
   36MOL0     C 4779  10.077   9.626   0.542 -0.8681  0.1826  1.0127
   36MOL0     C 4780  10.171   9.523   0.524 -0.6557  1.8980 -0.4423
   36MOL0     C 4781  10.149   9.390   0.557  0.2925 -0.2343  0.3165
   36MOL0     C 4782  10.022   9.347   0.597  1.0218 -0.8791  0.6681
   36MOL0     O 4783   9.987   9.221   0.640 -0.8053  0.4394  0.0658
   36MOL0     C 4784  10.075   9.118   0.590  0.3542  0.3724  0.2355
   36MOL0     C 4785  10.000   8.990   0.546  0.4961 -0.1699  0.8783
   36MOL0     C 4786  10.098   8.897   0.481 -0.5344 -0.3868  0.0291
   36MOL0     C 4787  10.034   8.765   0.434  0.4743 -0.3224 -0.3733
   36MOL0     C 4788   9.924   8.714   0.521  0.2225 -0.0608 -0.5165
   36MOL0     C 4789   9.832   8.662   0.582 -0.6123  0.0833  0.1727
   36MOL0     C 4790   9.924   9.449   0.613  0.3696  0.4413  0.1704
   36MOL0     C 4791   9.952   9.586   0.578  0.5071  0.1510 -0.4593
   36MOL0     C 4792   9.831   9.678   0.574  0.8812  0.2380  0.1391
   36MOL0     H 4793  10.235   9.935   0.316  0.5750  0.7958 -4.5112
   36MOL0     H 4794  10.253  10.149   0.222  0.1565 -0.1004 -0.3884
   36MOL0     H 4795   9.940  10.466   0.225  2.8061  0.6107 -2.1875
   36MOL0     H 4796   9.971  10.464   0.404 -3.5291  3.1140 -1.2092
   36MOL0     H 4797  10.176  10.626   0.332 -0.4900 -1.1538  2.2200
   36MOL0     H 4798  10.009  10.687   0.307  2.3382  1.3483  1.5961
   36MOL0     H 4799  10.058  10.610   0.061  0.7966  1.1836 -0.3599
   36MOL0     H 4800  10.222  10.583   0.114 -0.5188 -1.5773  0.0474
   36MOL0     H 4801  10.117  10.862   0.158  0.6919  2.5295 -0.5943
   36MOL0     H 4802  10.276  10.791   0.180 -0.0925  1.9228 -0.9754
   36MOL0     H 4803  10.137  10.825  -0.085  2.5075 -2.0433 -3.0522
   36MOL0     H 4804  10.292  10.897  -0.020  0.6233 -0.0915  0.3844
   36MOL0     H 4805  10.384  10.680  -0.020  2.1873 -0.8187 -2.3734
   36MOL0     H 4806  10.245  10.615  -0.123 -2.6009  0.5908  2.2086
   36MOL0     H 4807  10.468  10.686  -0.245  1.5386  0.9447  2.0343
   36MOL0     H 4808  10.413  10.851  -0.213 -1.3277  0.8331 -1.9159
   36MOL0     H 4809  10.259  10.848  -0.358  1.5083  0.6022  2.5261
   36MOL0     H 4810  10.374  10.747  -0.439 -1.1917  2.3426 -1.0193
   36MOL0     H 4811  10.008  10.722  -0.294 -0.6911 -0.7169  0.0458
   36MOL0     H 4812   9.866  10.388  -0.389 -1.4452 -0.5563 -0.5623
   36MOL0     H 4813   9.810  10.558  -0.355  0.1173  0.0330  0.3265
   36MOL0     H 4814   9.783  10.582  -0.604 -3.0232  0.8369  1.8713
   36MOL0     H 4815   9.859  10.421  -0.623 -0.0966 -0.0316  1.9306
   36MOL0     H 4816   9.663  10.315  -0.532  0.5753  0.0173 -0.9083
   36MOL0     H 4817   9.633  10.424  -0.666  0.7783  2.3881 -0.2492
   36MOL0     H 4818   9.447  10.428  -0.520 -0.8363  1.2821 -0.1128
   36MOL0     H 4819   9.531  10.587  -0.496  0.9022  0.3095  0.3383
   36MOL0     H 4820   9.502  10.467  -0.089  4.6207 -2.9285  1.7436
   36MOL0     H 4821   9.385  10.304   0.052 -4.7047 -0.9112  0.8270
   36MOL0     H 4822   9.140   9.765   0.008  0.0040 -0.1588 -0.9400
   36MOL0     H 4823   8.928   9.659   0.087 -4.4367 -1.5928 -1.6498
   36MOL0     H 4824   8.731   9.564   0.071 -0.5222  0.2416 -0.5885
   36MOL0     H 4825   8.701   9.661   0.220  0.4508  1.7017 -0.0762
   36MOL0     H 4826   8.509   9.557   0.001 -1.8231  0.4497  0.9319
   36MOL0     H 4827   8.543   9.483   0.152 -0.2370 -3.0407 -3.9550
   36MOL0     H 4828   8.374   9.599   0.237 -1.4208 -0.7553 -1.9856
   36MOL0     H 4829   8.453   9.752   0.206  2.1988  1.1017 -3.5367
   36MOL0     H 4830   8.274   9.585   0.019  2.4804  0.1527 -2.1408
   36MOL0     H 4831   8.350   9.733  -0.041 -3.6581  1.6719 -0.7178
   36MOL0     H 4832   8.226   9.871   0.109  0.8224  0.4917 -0.4878
   36MOL0     H 4833   8.145   9.720   0.170 -0.0923 -2.1333 -1.5262
   36MOL0     H 4834   8.162   9.834  -0.115  0.3765  0.1445 -1.8085
   36MOL0     H 4835   8.063   9.684  -0.056 -2.0199  1.6006  0.5410
   36MOL0     H 4836   7.992   9.965   0.016 -0.7349 -0.1946  1.8553
   36MOL0     H 4837   7.944   9.807   0.094  2.7615 -1.6588 -1.1742
   36MOL0     H 4838   7.828   9.730  -0.101 -4.4647  1.0007  1.8274
   36MOL0     H 4839   7.759   9.883  -0.077 -0.2026 -0.9005  3.7348
   36MOL0     H 4840   8.693   9.993  -0.040 -1.3990 -2.5128  0.7615
   36MOL0     H 4841   8.900  10.117  -0.101 -2.6133 -1.0652 -0.8453
   36MOL0     H 4842   9.274  10.088  -0.315  2.7035 -0.1552 -1.8835
   36MOL0     H 4843   9.428  10.222  -0.424 -3.9494 -0.0966 -0.0163
   36MOL0     H 4844   9.888  10.269   0.425 -0.2197  0.1311  1.1721
   36MOL0     H 4845   9.894  10.054   0.551  2.0517  1.6779  1.4899
   36MOL0     H 4846  10.275   9.547   0.501 -0.0237  0.1193  0.3541
   36MOL0     H 4847  10.231   9.318   0.554 -0.9199 -1.6480 -0.2786
   36MOL0     H 4848  10.142   9.100   0.674 -0.7225  1.5004  1.3873
   36MOL0     H 4849  10.137   9.153   0.507  0.6324 -1.9696 -0.6135
   36MOL0     H 4850   9.916   9.016   0.481 -0.0012 -1.1722  1.0947
   36MOL0     H 4851   9.953   8.947   0.635 -0.9659 -1.4354 -0.4366
   36MOL0     H 4852  10.186   8.882   0.544 -1.6276 -0.6578  1.5649
   36MOL0     H 4853  10.134   8.949   0.393 -1.7899 -0.3875 -0.5011
   36MOL0     H 4854   9.992   8.793   0.337  1.4030  2.0710 -0.1665
   36MOL0     H 4855  10.113   8.693   0.412 -1.5179 -2.5902 -0.4732
   36MOL0     H 4856   9.749   8.637   0.644 -0.3075 -1.1259  0.1140
   36MOL0     H 4857   9.829   9.408   0.646  1.0121 -0.5333  0.8701
   36MOL0     H 4858   9.830   9.745   0.488  0.0167  0.3663  0.2425
   36MOL0     H 4859   9.739   9.620   0.582  0.1138  1.3335 -0.5688
   36MOL0     H 4860   9.840   9.733   0.668 -1.5325 -3.2971  2.7129
   37MOL0     O 4861   5.516   6.426   2.252 -1.3532 -0.8149 -0.7406
   37MOL0     C 4862   5.526   6.514   2.164  0.1537 -0.0390  0.5908
   37MOL0     O 4863   5.429   6.599   2.133  0.4571  0.1656 -0.4695
   37MOL0     C 4864   5.304   6.584   2.192 -0.3534  0.6837  0.0089
   37MOL0     C 4865   5.240   6.458   2.208  0.1720 -0.4452  0.2787
   37MOL0     C 4866   5.114   6.462   2.270  0.1379 -0.2975  1.0349
   37MOL0     C 4867   5.042   6.578   2.299  0.4935  0.5800  0.5966
   37MOL0     O 4868   4.916   6.553   2.343  0.6995  0.1843 -0.1250
   37MOL0     C 4869   4.823   6.668   2.344  0.4857  0.6694  0.4377
   37MOL0     C 4870   4.678   6.622   2.376 -0.3355  0.2005 -0.0132
   37MOL0     C 4871   4.671   6.534   2.506 -0.7517 -0.1918  0.5388
   37MOL0     C 4872   4.558   6.427   2.505 -0.3943  0.2005 -0.3707
   37MOL0     C 4873   4.555   6.350   2.646 -0.1665  0.7240  0.6333
   37MOL0     C 4874   4.407   6.293   2.672  0.1434 -0.4833 -0.2249
   37MOL0     C 4875   4.331   6.377   2.776  0.3372 -0.5561 -0.4682
   37MOL0     C 4876   4.198   6.317   2.828 -1.1310  0.0474 -0.1171
   37MOL0     N 4877   4.098   6.274   2.733 -0.8391 -1.2936  0.2991
   37MOL0     C 4878   4.051   6.354   2.626  0.1739  0.4096 -0.7000
   37MOL0     C 4879   3.924   6.306   2.601  0.1518  0.3209  0.4096
   37MOL0     C 4880   3.840   6.356   2.483 -0.2487  0.5301  0.1220
   37MOL0     C 4881   3.752   6.468   2.526  0.4767 -0.6403  0.4288
   37MOL0     C 4882   3.645   6.491   2.420  0.9364 -0.4116  0.4844
   37MOL0     C 4883   3.522   6.583   2.473  0.4884  0.6376  0.4676
   37MOL0     O 4884   3.445   6.505   2.562  0.0530 -0.0250  0.4334
   37MOL0     C 4885   3.315   6.548   2.578  0.1913  0.3069 -0.1319
   37MOL0     C 4886   3.233   6.457   2.649  0.5695  0.0637  0.0042
   37MOL0     C 4887   3.102   6.498   2.690 -0.4560  0.3990  0.0259
   37MOL0     C 4888   3.052   6.622   2.655  0.4493  0.5726  0.2689
   37MOL0     C 4889   2.921   6.679   2.711 -0.7399  0.5417  0.0085
   37MOL0     O 4890   2.899   6.819   2.711 -0.4203  0.5505 -0.7725
   37MOL0     C 4891   2.809   6.865   2.803 -0.2435 -0.6494 -1.1893
   37MOL0     C 4892   2.813   6.822   2.939 -0.4619 -0.5645 -0.9171
   37MOL0     C 4893   2.717   6.878   3.030 -0.0771 -0.5078  0.0340
   37MOL0     C 4894   2.620   6.966   2.988  0.5182  0.5197  0.0112
   37MOL0     O 4895   2.524   7.031   3.063  0.3089  0.2645 -0.1485
   37MOL0     C 4896   2.543   7.045   3.211 -0.0825 -0.3264  0.3468
   37MOL0     C 4897   2.479   7.176   3.261  0.6547  0.3507 -0.0008
   37MOL0     C 4898   2.320   7.163   3.249  0.1966 -0.2448  0.5565
   37MOL0     C 4899   2.246   7.286   3.296 -0.4950 -0.3663 -0.2966
   37MOL0     C 4900   2.098   7.265   3.303 -1.0149 -0.0545 -0.2349
   37MOL0     C 4901   2.031   7.397   3.349 -0.2850 -0.1761 -0.8171
   37MOL0     C 4902   1.872   7.387   3.354  0.3699  0.0792  1.2989
   37MOL0     C 4903   1.804   7.506   3.416  0.1753 -0.6380  0.3844
   37MOL0    Cl 4904   1.830   7.655   3.324 -0.2297  0.2208  0.0835
   37MOL0     C 4905   2.622   7.013   2.851  0.4325 -0.4510 -0.9516
   37MOL0     C 4906   2.716   6.960   2.764  0.2661  0.1790  1.3180
   37MOL0     O 4907   2.854   6.600   2.758  0.3643 -0.4251  0.0652
   37MOL0     C 4908   3.136   6.714   2.585 -0.2100  0.1732  0.6707
   37MOL0     C 4909   3.263   6.673   2.536 -0.2949 -0.2199 -1.0163
   37MOL0     N 4910   3.900   6.201   2.680  0.3129 -0.0478  0.3614
   37MOL0     N 4911   4.002   6.183   2.766  0.4582 -0.4491  0.4956
   37MOL0     C 4912   5.099   6.697   2.266 -0.4890  0.7339  0.1085
   37MOL0     C 4913   5.230   6.705   2.224  0.2621 -0.0366  0.0581
   37MOL0     C 4914   5.656   6.533   2.105 -0.1012  0.7111  0.1927
   37MOL0     C 4915   5.767   6.501   2.180 -0.2656  0.6029 -0.8922
   37MOL0     C 4916   5.896   6.519   2.131  0.4022 -0.6922  0.7051
   37MOL0     C 4917   5.916   6.579   2.009 -0.8530 -0.1075  0.0472
   37MOL0     O 4918   6.034   6.627   1.959 -0.7673  0.3731  0.3427
   37MOL0     C 4919   6.162   6.589   2.022  0.0127  0.0948 -0.1189
   37MOL0     C 4920   6.231   6.484   1.945 -0.8119 -0.2282 -0.2596
   37MOL0     C 4921   6.377   6.469   1.965  0.1471 -0.4389 -0.5332
   37MOL0     C 4922   6.437   6.357   1.874 -0.3505 -0.3455 -0.4035
   37MOL0     C 4923   6.588   6.359   1.865 -0.3624 -0.0306 -0.1589
   37MOL0     C 4924   6.705   6.352   1.876 -0.3586 -0.3681 -0.2730
   37MOL0     C 4925   5.804   6.606   1.928 -0.6502 -0.1837 -0.1162
   37MOL0     C 4926   5.672   6.578   1.971  0.1490 -0.0283  0.3027
   37MOL0     C 4927   5.552   6.618   1.882  0.1093 -0.6835  0.0639
   37MOL0     H 4928   5.289   6.363   2.188  1.5232  0.1516  0.6406
   37MOL0     H 4929   5.063   6.367   2.283 -3.4524  1.1090 -1.0717
   37MOL0     H 4930   4.874   6.725   2.422  1.7564 -0.5658  0.5448
   37MOL0     H 4931   4.818   6.716   2.246 -3.3034  0.2053  0.2502
   37MOL0     H 4932   4.637   6.567   2.290 -0.5963  1.6155 -0.8189
   37MOL0     H 4933   4.617   6.712   2.387  0.9120  1.0854 -0.1918
   37MOL0     H 4934   4.668   6.611   2.583  2.7129  1.6058 -0.9036
   37MOL0     H 4935   4.766   6.485   2.526 -0.3308  0.6581  0.6670
   37MOL0     H 4936   4.466   6.484   2.493 -1.8434 -1.7012  1.0284
   37MOL0     H 4937   4.577   6.347   2.432 -0.0670 -2.0693  2.0443
   37MOL0     H 4938   4.631   6.272   2.641  2.1085  2.9039 -3.4999
   37MOL0     H 4939   4.590   6.405   2.734  0.5968 -2.7077  2.6566
   37MOL0     H 4940   4.354   6.294   2.577 -1.3689 -0.0347  0.6006
   37MOL0     H 4941   4.402   6.188   2.701 -1.1294 -0.1572  0.8262
   37MOL0     H 4942   4.307   6.476   2.737 -0.7622 -0.4976  0.3211
   37MOL0     H 4943   4.404   6.385   2.858 -1.2916  2.3327  0.8693
   37MOL0     H 4944   4.226   6.235   2.894 -2.2300 -0.9793 -0.9068
   37MOL0     H 4945   4.139   6.387   2.889 -2.0804 -1.2283  0.4588
   37MOL0     H 4946   4.105   6.433   2.576 -2.1130  2.8042  0.3858
   37MOL0     H 4947   3.910   6.402   2.413  2.3309 -0.0994  2.1534
   37MOL0     H 4948   3.784   6.271   2.444  1.4342 -0.6332  0.1468
   37MOL0     H 4949   3.710   6.453   2.625 -1.4908  0.7618 -0.1305
   37MOL0     H 4950   3.817   6.556   2.525 -0.6484  0.2065  0.0187
   37MOL0     H 4951   3.599   6.396   2.394 -0.7701 -0.0282  1.9153
   37MOL0     H 4952   3.681   6.536   2.327  0.7340  0.7050  0.9324
   37MOL0     H 4953   3.481   6.630   2.382  1.1335  1.2254  0.4767
   37MOL0     H 4954   3.566   6.669   2.524  2.4290  0.7032 -1.2066
   37MOL0     H 4955   3.279   6.364   2.680 -0.7124 -0.6198 -0.0771
   37MOL0     H 4956   3.052   6.435   2.762  1.3216  1.0909  1.9624
   37MOL0     H 4957   2.899   6.761   2.967 -0.2220  1.1338  2.6029
   37MOL0     H 4958   2.721   6.852   3.135 -3.5973 -2.6916 -0.1975
   37MOL0     H 4959   2.503   6.959   3.265 -0.5648 -0.6958 -0.5629
   37MOL0     H 4960   2.647   7.057   3.244  0.1219  2.4322 -1.0054
   37MOL0     H 4961   2.511   7.183   3.365  2.8744  1.9583 -0.7267
   37MOL0     H 4962   2.508   7.259   3.196  1.3511  0.7907  0.8549
   37MOL0     H 4963   2.293   7.136   3.146 -1.3312 -2.0179  1.3772
   37MOL0     H 4964   2.293   7.078   3.312  2.6636 -1.7288 -0.2629
   37MOL0     H 4965   2.269   7.368   3.226  3.3515 -2.0367 -1.2346
   37MOL0     H 4966   2.281   7.311   3.397  3.1560 -0.5182 -1.3827
   37MOL0     H 4967   2.076   7.193   3.383  0.0431 -0.4957 -0.3246
   37MOL0     H 4968   2.073   7.237   3.201  4.0075 -0.1093 -1.7012
   37MOL0     H 4969   2.058   7.428   3.451 -1.1289 -0.8674 -0.3627
   37MOL0     H 4970   2.066   7.481   3.288  2.8052  1.1102  2.3741
   37MOL0     H 4971   1.851   7.290   3.400 -0.3083 -1.1222 -1.3994
   37MOL0     H 4972   1.838   7.362   3.254  0.6557  1.1241  0.9267
   37MOL0     H 4973   1.698   7.479   3.418 -0.2458  0.4251 -2.5102
   37MOL0     H 4974   1.837   7.528   3.518 -2.5490 -2.7639  1.8755
   37MOL0     H 4975   2.552   7.094   2.832 -1.6769 -2.4835 -2.2845
   37MOL0     H 4976   2.708   6.993   2.661 -0.4582  0.5743  1.4909
   37MOL0     H 4977   3.104   6.812   2.552  1.7173  0.2088 -1.3365
   37MOL0     H 4978   3.319   6.747   2.479  0.9682  0.7330  1.3425
   37MOL0     H 4979   5.042   6.788   2.285 -1.5214  0.2544 -0.5963
   37MOL0     H 4980   5.282   6.799   2.210  0.3984 -0.2151 -0.6902
   37MOL0     H 4981   5.749   6.474   2.284  0.2002 -2.4878 -1.5097
   37MOL0     H 4982   5.972   6.506   2.207 -3.3720 -0.3589  4.9658
   37MOL0     H 4983   6.158   6.555   2.126  2.4815 -0.7752 -0.2502
   37MOL0     H 4984   6.211   6.686   2.010  0.8348 -0.3825 -0.7054
   37MOL0     H 4985   6.229   6.513   1.839  2.5130 -2.6093 -1.1528
   37MOL0     H 4986   6.173   6.393   1.964 -1.9119  0.5457  0.1800
   37MOL0     H 4987   6.404   6.443   2.068  0.0178  3.1367  0.5647
   37MOL0     H 4988   6.423   6.566   1.944  0.6084  0.1518  2.7146
   37MOL0     H 4989   6.415   6.255   1.907  0.8926 -0.5016 -0.0210
   37MOL0     H 4990   6.397   6.369   1.773  1.2837 -0.6686 -1.1261
   37MOL0     H 4991   6.812   6.347   1.874 -0.1677  2.2657  0.5905
   37MOL0     H 4992   5.836   6.644   1.831  1.0166  0.3416  0.5939
   37MOL0     H 4993   5.587   6.627   1.779  4.1056  1.6426  1.4149
   37MOL0     H 4994   5.469   6.548   1.889 -0.9769  0.6743  1.6258
   37MOL0     H 4995   5.520   6.716   1.919  2.9704 -0.0874  1.2206
   38MOL0     O 4996   1.220   2.616   4.055 -0.1816 -0.3455 -0.0044
   38MOL0     C 4997   1.215   2.518   3.977 -0.8528 -0.5046  0.1790
   38MOL0     O 4998   1.245   2.518   3.847  0.1438  0.4273 -0.6410
   38MOL0     C 4999   1.308   2.631   3.794 -0.0157 -0.8653 -0.9857
   38MOL0     C 5000   1.253   2.713   3.700 -0.3527  0.2470  0.6955
   38MOL0     C 5001   1.325   2.818   3.644 -0.1699  0.2289  0.1998
   38MOL0     C 5002   1.452   2.860   3.691  0.0639 -0.1445 -0.3094
   38MOL0     O 5003   1.528   2.959   3.638 -0.3747  1.0775 -0.5321
   38MOL0     C 5004   1.485   3.050   3.530  0.2157  0.0961  0.3646
   38MOL0     C 5005   1.599   3.123   3.464 -0.0334  0.2633 -0.8702
   38MOL0     C 5006   1.711   3.026   3.404 -0.3795 -0.4086  0.3329
   38MOL0     C 5007   1.818   3.104   3.323 -0.3299  0.0337 -0.2944
   38MOL0     C 5008   1.934   3.013   3.272 -0.7115  0.3098  0.4459
   38MOL0     C 5009   2.025   3.082   3.162 -0.3915 -0.5633 -0.9620
   38MOL0     C 5010   2.133   2.989   3.108 -0.1393  0.2865  0.2477
   38MOL0     C 5011   2.075   2.873   3.034  0.7265  0.1295 -0.6241
   38MOL0     N 5012   2.183   2.806   2.963  1.3135 -0.4204 -0.0494
   38MOL0     C 5013   2.251   2.699   3.012 -0.4088 -0.4592  0.0382
   38MOL0     C 5014   2.315   2.645   2.911 -0.0056 -0.4211  0.0977
   38MOL0     C 5015   2.407   2.525   2.924  0.3142  0.1121  0.2871
   38MOL0     C 5016   2.544   2.575   2.919 -0.3698 -0.4320 -0.1091
   38MOL0     C 5017   2.657   2.471   2.919  0.3164 -0.2155 -0.0166
   38MOL0     C 5018   2.681   2.410   3.056 -0.8853 -0.2469 -0.5670
   38MOL0     O 5019   2.799   2.340   3.080  0.8188  0.4388  0.5765
   38MOL0     C 5020   2.833   2.230   2.998 -0.3522  0.5539  0.6087
   38MOL0     C 5021   2.967   2.234   2.954  0.8412 -0.7864  0.2800
   38MOL0     C 5022   3.009   2.147   2.857 -0.3397  0.0286  0.1260
   38MOL0     C 5023   2.928   2.046   2.810  0.8068  0.2875 -0.8423
   38MOL0     C 5024   2.981   1.949   2.717  0.4544 -0.1372  0.1763
   38MOL0     O 5025   2.889   1.880   2.644 -0.2232 -0.8611  0.5181
   38MOL0     C 5026   2.922   1.761   2.573  0.5199  0.0260 -0.0560
   38MOL0     C 5027   3.035   1.686   2.620  0.1399  0.1027  0.3568
   38MOL0     C 5028   3.084   1.574   2.549 -0.2830 -0.8283 -0.6775
   38MOL0     C 5029   3.015   1.536   2.430  1.2882 -0.0515  1.0513
   38MOL0     O 5030   3.052   1.427   2.353  0.9227  0.0170 -0.6355
   38MOL0     C 5031   3.126   1.319   2.408  0.4075 -0.3033 -0.0767
   38MOL0     C 5032   3.277   1.350   2.371 -0.3965 -0.2784  0.0287
   38MOL0     C 5033   3.379   1.248   2.426  0.5049  0.1088 -0.1876
   38MOL0     C 5034   3.439   1.271   2.568 -0.2140 -0.0056  0.0980
   38MOL0     C 5035   3.495   1.133   2.618  0.1390 -0.6591  0.3815
   38MOL0     C 5036   3.550   1.141   2.753 -0.0593  0.0151 -0.1294
   38MOL0     C 5037   3.600   0.994   2.801 -0.0381 -0.2127 -0.2497
   38MOL0     C 5038   3.708   0.923   2.714  0.4139  0.5834 -0.3517
   38MOL0    Cl 5039   3.754   0.761   2.796  0.0005  0.0911 -0.8776
   38MOL0     C 5040   2.910   1.620   2.377  0.5041  0.0304 -1.0030
   38MOL0     C 5041   2.864   1.727   2.455  0.7837 -0.0892 -0.2762
   38MOL0     O 5042   3.103   1.936   2.713 -0.4859  0.2019 -0.1270
   38MOL0     C 5043   2.796   2.044   2.847  0.0891  0.0429  1.0054
   38MOL0     C 5044   2.744   2.139   2.937 -0.7904 -0.8857  0.1652
   38MOL0     N 5045   2.300   2.728   2.800  0.2560 -1.1180 -0.0674
   38MOL0     N 5046   2.222   2.832   2.834 -0.0650  0.2832  0.6316
   38MOL0     C 5047   1.506   2.777   3.796 -0.2545  0.3903  0.2881
   38MOL0     C 5048   1.433   2.668   3.835  0.5699  0.2838 -0.7363
   38MOL0     C 5049   1.172   2.387   4.040  0.5126 -0.1078 -0.3386
   38MOL0     C 5050   1.068   2.404   4.142  0.2760  0.1218  0.0426
   38MOL0     C 5051   1.016   2.290   4.194  0.0172 -0.3169 -0.1976
   38MOL0     C 5052   1.051   2.171   4.154 -0.2320  0.0348  1.2334
   38MOL0     O 5053   0.995   2.065   4.222 -0.1364 -0.0805  0.5279
   38MOL0     C 5054   0.974   1.951   4.143  0.4682 -0.1385 -1.2743
   38MOL0     C 5055   0.857   1.876   4.200  0.0701  0.4680  0.1317
   38MOL0     C 5056   0.897   1.807   4.334  0.7995  0.5279 -0.0040
   38MOL0     C 5057   0.919   1.656   4.321 -0.4940 -0.0786 -0.1399
   38MOL0     C 5058   1.059   1.616   4.313  0.7229  0.2626 -0.0046
   38MOL0     C 5059   1.177   1.609   4.311 -0.2591  0.5798  0.0255
   38MOL0     C 5060   1.145   2.157   4.054 -0.8523 -0.0342 -0.1578
   38MOL0     C 5061   1.217   2.265   4.001 -0.2445  0.6071 -0.3871
   38MOL0     C 5062   1.327   2.251   3.897  0.2631  0.2453 -0.6181
   38MOL0     H 5063   1.158   2.685   3.657 -1.7851  0.2158  3.6467
   38MOL0     H 5064   1.281   2.874   3.562 -0.2691  1.0882  0.8173
   38MOL0     H 5065   1.437   2.992   3.451 -1.0176  3.7783 -1.8361
   38MOL0     H 5066   1.407   3.120   3.562  0.6649  1.2879 -1.0559
   38MOL0     H 5067   1.650   3.183   3.540 -0.5633 -4.0045  3.3648
   38MOL0     H 5068   1.553   3.186   3.388  0.4731  3.7560  1.4699
   38MOL0     H 5069   1.661   2.961   3.333  0.0260 -1.8616  1.3399
   38MOL0     H 5070   1.748   2.963   3.485 -0.7635 -0.4088  0.5106
   38MOL0     H 5071   1.769   3.151   3.238 -0.9188 -0.5669 -0.2961
   38MOL0     H 5072   1.862   3.181   3.387 -0.9657 -0.1511  0.3812
   38MOL0     H 5073   2.011   2.985   3.344  2.0336  2.4603 -1.4469
   38MOL0     H 5074   1.885   2.920   3.241 -3.0874 -0.0816  4.5947
   38MOL0     H 5075   1.956   3.120   3.086  2.4248  3.1716 -1.8986
   38MOL0     H 5076   2.073   3.170   3.205  0.6586 -2.0307  1.0248
   38MOL0     H 5077   2.203   2.958   3.186 -0.4314 -1.3958 -0.1098
   38MOL0     H 5078   2.188   3.050   3.036  0.6783  0.0026  0.6162
   38MOL0     H 5079   2.012   2.806   3.094  1.3843 -0.5726 -0.7064
   38MOL0     H 5080   2.002   2.917   2.965 -0.8904 -0.6010  0.5545
   38MOL0     H 5081   2.242   2.673   3.117  1.8550  0.0513  0.4222
   38MOL0     H 5082   2.401   2.480   3.023  0.2667  1.3814  0.8866
   38MOL0     H 5083   2.385   2.451   2.847 -1.8901  1.6678 -0.6896
   38MOL0     H 5084   2.560   2.634   2.829  0.0438 -0.2426  0.0869
   38MOL0     H 5085   2.564   2.648   2.998  2.3498 -0.5850 -0.5636
   38MOL0     H 5086   2.754   2.510   2.884 -0.1176 -0.5170 -1.6691
   38MOL0     H 5087   2.628   2.394   2.847 -0.9004  0.2490 -0.0398
   38MOL0     H 5088   2.600   2.337   3.069 -1.6829  0.5354 -1.0056
   38MOL0     H 5089   2.669   2.489   3.130  0.7396 -0.7134  0.2472
   38MOL0     H 5090   3.031   2.301   3.010  1.8818 -1.2503 -0.3408
   38MOL0     H 5091   3.115   2.137   2.837 -0.1528 -1.4285  1.6898
   38MOL0     H 5092   3.082   1.702   2.717  0.8666 -1.2050  0.2338
   38MOL0     H 5093   3.167   1.517   2.588  1.4386  2.6524  1.3203
   38MOL0     H 5094   3.122   1.303   2.516 -1.6200 -0.9756 -0.1986
   38MOL0     H 5095   3.109   1.221   2.362  2.1292  0.2497 -2.0354
   38MOL0     H 5096   3.275   1.357   2.262 -1.0190 -0.2995  0.0332
   38MOL0     H 5097   3.308   1.447   2.411 -1.1978  0.5318 -1.2454
   38MOL0     H 5098   3.327   1.153   2.412 -2.1103  1.2854  0.9870
   38MOL0     H 5099   3.468   1.243   2.362  0.7085 -2.5465  0.1688
   38MOL0     H 5100   3.357   1.295   2.637 -2.1099  0.9620 -2.3471
   38MOL0     H 5101   3.502   1.359   2.560  2.9918 -2.2590 -1.4845
   38MOL0     H 5102   3.577   1.105   2.551 -1.1040  0.1612 -1.5957
   38MOL0     H 5103   3.425   1.051   2.598  0.0454 -0.0642 -2.1112
   38MOL0     H 5104   3.629   1.216   2.769  0.0119 -0.3743  1.5172
   38MOL0     H 5105   3.468   1.175   2.816  0.5398  0.9963  0.1446
   38MOL0     H 5106   3.511   0.933   2.820  0.2531 -0.4290  0.4425
   38MOL0     H 5107   3.638   1.007   2.903  0.9467  2.8456 -0.9061
   38MOL0     H 5108   3.671   0.909   2.613 -0.7446 -1.1097  0.2614
   38MOL0     H 5109   3.792   0.993   2.715  1.9594 -1.0933  2.2148
   38MOL0     H 5110   2.874   1.606   2.275  0.7460 -1.4634 -0.9043
   38MOL0     H 5111   2.778   1.777   2.411  0.5592  0.0859  0.3613
   38MOL0     H 5112   2.729   1.981   2.790  2.2777 -1.4342 -0.1018
   38MOL0     H 5113   2.638   2.138   2.960 -0.9733 -2.9875 -0.5530
   38MOL0     H 5114   1.597   2.799   3.851 -1.7715  1.9140  2.3426
   38MOL0     H 5115   1.486   2.595   3.895  1.7642  0.2215 -1.8289
   38MOL0     H 5116   1.045   2.502   4.183 -4.2127  0.8971 -3.5070
   38MOL0     H 5117   0.950   2.295   4.280  0.4779 -0.6556  0.1823
   38MOL0     H 5118   1.065   1.891   4.136 -0.6886 -2.4910  1.6178
   38MOL0     H 5119   0.934   1.980   4.045 -1.6925  0.6040 -0.2384
   38MOL0     H 5120   0.816   1.810   4.124 -0.6912  1.1952 -0.1194
   38MOL0     H 5121   0.771   1.940   4.224  0.5824  2.0184 -1.9283
   38MOL0     H 5122   0.811   1.814   4.401 -0.8815  2.4723 -2.1916
   38MOL0     H 5123   0.989   1.843   4.382 -0.3334 -1.1855  3.7958
   38MOL0     H 5124   0.867   1.601   4.399 -1.7604 -1.4647 -1.8876
   38MOL0     H 5125   0.874   1.620   4.228  0.5426 -1.7195 -0.0382
   38MOL0     H 5126   1.281   1.585   4.312 -0.2938  0.4394  0.3173
   38MOL0     H 5127   1.181   2.060   4.023  1.8363  0.7239  0.3863
   38MOL0     H 5128   1.419   2.294   3.938  1.5480 -0.0526 -2.9789
   38MOL0     H 5129   1.347   2.144   3.886  0.3180  0.0512  1.1672
   38MOL0     H 5130   1.283   2.283   3.802 -0.6774 -0.0609 -0.2968
   39MOL0     O 5131   6.424   0.456   3.461  0.6139 -0.0201 -0.3417
   39MOL0     C 5132   6.393   0.356   3.527 -0.1509 -0.0596  0.2980
   39MOL0     O 5133   6.480   0.255   3.568 -0.7361 -0.5561  0.0805
   39MOL0     C 5134   6.617   0.290   3.571 -0.4398 -0.7236 -0.8195
   39MOL0     C 5135   6.669   0.410   3.619  0.2493  0.3396 -0.4008
   39MOL0     C 5136   6.802   0.436   3.628  1.2856  0.5580  0.8262
   39MOL0     C 5137   6.892   0.346   3.581 -0.3752 -1.2344 -0.0252
   39MOL0     O 5138   7.033   0.365   3.588  0.6411  0.0064 -0.4558
   39MOL0     C 5139   7.091   0.467   3.664 -0.0454  0.4236 -0.3521
   39MOL0     C 5140   7.234   0.494   3.628  0.1538  0.8878  0.4448
   39MOL0     C 5141   7.314   0.357   3.639 -0.1064  0.3989 -0.4783
   39MOL0     C 5142   7.404   0.347   3.519  0.8529  0.8397 -0.4901
   39MOL0     C 5143   7.324   0.318   3.387 -0.4735  0.6140 -0.0989
   39MOL0     C 5144   7.283   0.164   3.362  0.0620 -0.2198 -0.8364
   39MOL0     C 5145   7.392   0.060   3.340 -0.2983  1.5605  0.7229
   39MOL0     C 5146   7.457   0.062   3.202  0.1962 -0.6980 -1.3633
   39MOL0     N 5147   7.361   0.023   3.098 -0.5372 -0.5096  0.4540
   39MOL0     C 5148   7.360  -0.096   3.039 -0.9974  0.3231  0.1005
   39MOL0     C 5149   7.278  -0.082   2.933 -0.4199 -1.3625  0.4356
   39MOL0     C 5150   7.231  -0.187   2.831  0.4759  0.7710 -1.1042
   39MOL0     C 5151   7.346  -0.287   2.811 -0.6077  0.1260 -0.1384
   39MOL0     C 5152   7.307  -0.405   2.718 -0.1925 -1.0897 -0.8878
   39MOL0     C 5153   7.300  -0.345   2.577  0.6088 -0.2590  0.2574
   39MOL0     O 5154   7.269  -0.454   2.488  0.1580  0.4497  0.0316
   39MOL0     C 5155   7.169  -0.452   2.398 -0.2252 -0.0941  0.0220
   39MOL0     C 5156   7.118  -0.334   2.344  0.1911  0.3483  0.1523
   39MOL0     C 5157   7.012  -0.336   2.251 -0.3942  1.1431 -0.0640
   39MOL0     C 5158   6.955  -0.454   2.208 -0.9260  0.2986  0.6354
   39MOL0     C 5159   6.857  -0.449   2.096 -0.6206  0.7493 -0.1992
   39MOL0     O 5160   6.793  -0.570   2.066  0.6824 -0.4423  0.1278
   39MOL0     C 5161   6.713  -0.573   1.955  0.8179  0.4343  0.8627
   39MOL0     C 5162   6.763  -0.563   1.822 -0.1795 -0.1805 -0.0711
   39MOL0     C 5163   6.672  -0.581   1.714 -0.5152  0.4146  0.0474
   39MOL0     C 5164   6.536  -0.612   1.740  1.2480 -0.0288 -0.1681
   39MOL0     O 5165   6.458  -0.620   1.628  0.1628  0.8153  0.3873
   39MOL0     C 5166   6.318  -0.658   1.627 -0.4141 -0.5536 -1.6019
   39MOL0     C 5167   6.267  -0.651   1.482 -0.8139 -0.0532  0.0190
   39MOL0     C 5168   6.129  -0.725   1.480 -0.0502  0.4830  0.1815
   39MOL0     C 5169   6.047  -0.699   1.361 -0.0670  0.1643  1.1693
   39MOL0     C 5170   5.900  -0.731   1.375 -0.5102 -1.3524  0.2140
   39MOL0     C 5171   5.867  -0.879   1.394 -0.0174  0.2326 -0.0312
   39MOL0     C 5172   5.720  -0.908   1.380 -1.1822  0.0476  0.5912
   39MOL0     C 5173   5.701  -1.054   1.401  0.6652  0.2876 -1.4936
   39MOL0    Cl 5174   5.529  -1.073   1.387  0.3200  0.2562  0.1280
   39MOL0     C 5175   6.494  -0.617   1.865  0.3471  0.6573 -0.1588
   39MOL0     C 5176   6.582  -0.606   1.976  0.5816 -0.6751 -0.8280
   39MOL0     O 5177   6.843  -0.341   2.043 -0.1754  0.0569  1.0010
   39MOL0     C 5178   7.016  -0.578   2.253  0.6261  0.3045  0.0607
   39MOL0     C 5179   7.125  -0.572   2.347  0.0478  0.2959 -0.2532
   39MOL0     N 5180   7.231   0.048   2.928 -0.6723  0.0750 -1.0462
   39MOL0     N 5181   7.279   0.106   3.033  0.0623  0.4563 -0.3424
   39MOL0     C 5182   6.845   0.220   3.531 -0.4057  0.1898  0.4870
   39MOL0     C 5183   6.708   0.189   3.527  0.9744 -0.5132  0.5104
   39MOL0     C 5184   6.245   0.334   3.543  0.1294 -0.3131  0.2247
   39MOL0     C 5185   6.212   0.199   3.570 -0.2194  0.0616 -0.2844
   39MOL0     C 5186   6.079   0.164   3.581 -0.7596  0.6966 -0.2934
   39MOL0     C 5187   5.975   0.258   3.573  0.0723  0.5657 -0.8133
   39MOL0     O 5188   5.845   0.232   3.625 -0.3418 -0.2705  0.5180
   39MOL0     C 5189   5.810   0.095   3.658  0.2635 -0.6361  0.2163
   39MOL0     C 5190   5.656   0.108   3.678  0.4001 -0.3998  0.2122
   39MOL0     C 5191   5.575   0.043   3.558 -0.0680 -1.4716  0.4222
   39MOL0     C 5192   5.452   0.135   3.533  0.6568  0.4885 -0.2088
   39MOL0     C 5193   5.397   0.074   3.408 -0.1262  0.5360 -0.7139
   39MOL0     C 5194   5.355   0.024   3.302 -0.3653 -0.6810 -0.1755
   39MOL0     C 5195   6.011   0.386   3.557 -0.0497 -0.1411  0.1948
   39MOL0     C 5196   6.143   0.430   3.535 -0.0793  0.6432 -0.4596
   39MOL0     C 5197   6.160   0.575   3.534 -0.3164 -0.7616  0.2653
   39MOL0     H 5198   6.596   0.482   3.654 -0.4106 -1.1433  1.4908
   39MOL0     H 5199   6.839   0.536   3.650  2.4562  0.0681  1.1950
   39MOL0     H 5200   7.041   0.564   3.656  1.3968  1.3653  1.3975
   39MOL0     H 5201   7.082   0.444   3.770  3.6879 -2.4030 -0.4703
   39MOL0     H 5202   7.283   0.573   3.685  2.3771 -0.7794  0.9830
   39MOL0     H 5203   7.238   0.522   3.522 -0.5252 -0.4613  0.0384
   39MOL0     H 5204   7.248   0.270   3.637 -2.0470  1.7636 -3.4744
   39MOL0     H 5205   7.377   0.358   3.729 -0.7268 -2.4539  0.1018
   39MOL0     H 5206   7.461   0.439   3.514 -0.3114  2.2595  5.3018
   39MOL0     H 5207   7.473   0.266   3.546  2.5092  2.0310 -0.9961
   39MOL0     H 5208   7.225   0.363   3.396 -0.1202  0.9994  2.7473
   39MOL0     H 5209   7.354   0.377   3.300 -0.7238 -0.5259 -0.9768
   39MOL0     H 5210   7.234   0.136   3.456  0.9478  0.9972  0.0218
   39MOL0     H 5211   7.204   0.171   3.287  2.2798  1.6295 -3.1868
   39MOL0     H 5212   7.355  -0.041   3.358  2.0182  0.6120  0.4795
   39MOL0     H 5213   7.476   0.074   3.408  2.3690 -0.4972 -1.8583
   39MOL0     H 5214   7.503   0.159   3.182 -3.3411  1.2735 -0.7138
   39MOL0     H 5215   7.538  -0.012   3.197  1.7313  0.8517 -0.6098
   39MOL0     H 5216   7.434  -0.173   3.057  0.4976  1.1688 -1.9707
   39MOL0     H 5217   7.150  -0.246   2.875  0.4101 -0.0605 -2.2960
   39MOL0     H 5218   7.188  -0.137   2.744  0.0834 -0.3760 -1.5972
   39MOL0     H 5219   7.426  -0.226   2.767  0.6043 -1.3799 -0.1210
   39MOL0     H 5220   7.386  -0.329   2.904  0.2611  0.7845 -0.1970
   39MOL0     H 5221   7.212  -0.454   2.743 -1.1429  0.8397 -0.5014
   39MOL0     H 5222   7.377  -0.488   2.729  0.5991 -0.0807  4.1540
   39MOL0     H 5223   7.399  -0.307   2.551 -0.2634  2.4056  0.4861
   39MOL0     H 5224   7.218  -0.273   2.570 -0.1114 -1.1169 -0.3111
   39MOL0     H 5225   7.158  -0.236   2.371  2.0425 -0.6019  1.0668
   39MOL0     H 5226   6.971  -0.242   2.217  1.2836  1.6742 -0.7410
   39MOL0     H 5227   6.866  -0.553   1.791 -0.3503 -3.2953 -2.0005
   39MOL0     H 5228   6.699  -0.573   1.609  2.7872 -1.6568  0.5874
   39MOL0     H 5229   6.326  -0.762   1.662 -0.1209 -0.3083 -0.9169
   39MOL0     H 5230   6.256  -0.602   1.698  4.0196  1.5337  1.0134
   39MOL0     H 5231   6.249  -0.544   1.473 -1.8627 -0.1960  0.3250
   39MOL0     H 5232   6.334  -0.674   1.398  0.1606  0.2897  0.6834
   39MOL0     H 5233   6.154  -0.831   1.481 -0.9490  0.1904 -2.0837
   39MOL0     H 5234   6.071  -0.696   1.567  1.9799  0.8869  1.4850
   39MOL0     H 5235   6.086  -0.758   1.277  0.6582 -0.5516  1.9872
   39MOL0     H 5236   6.046  -0.592   1.342  0.3155 -0.1392 -0.7438
   39MOL0     H 5237   5.845  -0.701   1.285  0.0570  1.9229  0.8499
   39MOL0     H 5238   5.868  -0.677   1.465  2.9083 -0.0593  0.7955
   39MOL0     H 5239   5.914  -0.938   1.315 -2.3946 -1.2632 -0.4366
   39MOL0     H 5240   5.895  -0.907   1.496 -1.0742 -2.4742 -0.3975
   39MOL0     H 5241   5.693  -0.866   1.282 -3.5644  0.8762  1.5373
   39MOL0     H 5242   5.663  -0.856   1.458 -4.6666 -0.0613 -1.6688
   39MOL0     H 5243   5.753  -1.121   1.332  2.3661 -1.3656  1.1850
   39MOL0     H 5244   5.725  -1.086   1.503  0.7563  0.7304 -1.3708
   39MOL0     H 5245   6.388  -0.634   1.886  0.2839  0.4073 -0.6717
   39MOL0     H 5246   6.552  -0.598   2.080 -0.9409  4.7757 -1.3255
   39MOL0     H 5247   6.985  -0.674   2.213 -0.2398  1.2248 -1.5911
   39MOL0     H 5248   7.179  -0.658   2.385  1.8573  1.9779  1.2162
   39MOL0     H 5249   6.922   0.153   3.495  0.6867  0.9038  1.4550
   39MOL0     H 5250   6.667   0.094   3.495  1.5318 -0.0049 -1.9608
   39MOL0     H 5251   6.292   0.125   3.571  0.6917  0.9785 -1.5496
   39MOL0     H 5252   6.058   0.062   3.612  3.1423 -0.4833 -0.9157
   39MOL0     H 5253   5.857   0.081   3.755  0.6436 -0.1372  0.1057
   39MOL0     H 5254   5.847   0.022   3.585 -5.6860 -0.6639 -3.4485
   39MOL0     H 5255   5.632   0.214   3.694  1.2643 -0.3571  1.2812
   39MOL0     H 5256   5.625   0.056   3.768  0.5240 -1.5726 -0.4027
   39MOL0     H 5257   5.560  -0.062   3.586  0.6446 -1.3391  1.3730
   39MOL0     H 5258   5.644   0.054   3.474 -0.4205  0.9697  0.3990
   39MOL0     H 5259   5.380   0.127   3.615 -1.3611 -0.5383 -1.9986
   39MOL0     H 5260   5.473   0.242   3.534  1.2234  0.4350  2.8270
   39MOL0     H 5261   5.338  -0.026   3.208  1.2046  0.9214 -1.3731
   39MOL0     H 5262   5.932   0.459   3.548  0.8590  0.6678 -1.8331
   39MOL0     H 5263   6.113   0.624   3.448  0.5369 -0.5197 -0.0719
   39MOL0     H 5264   6.120   0.618   3.626 -1.4743  0.9684 -0.9704
   39MOL0     H 5265   6.267   0.599   3.537 -0.3144 -0.8370  3.0516
   40MOL0     O 5266  10.482   0.719   4.652 -0.4831 -0.4195 -0.2512
   40MOL0     C 5267  10.592   0.665   4.681  0.6878  0.9525  0.4404
   40MOL0     O 5268  10.612   0.529   4.692 -0.1426  0.3824  0.7098
   40MOL0     C 5269  10.527   0.432   4.639 -0.2575 -0.0514 -0.9115
   40MOL0     C 5270  10.408   0.443   4.562 -0.2769 -0.5565  0.2910
   40MOL0     C 5271  10.333   0.329   4.518 -0.6536  0.0129 -0.9108
   40MOL0     C 5272  10.384   0.195   4.562  0.3126 -0.3820  1.0676
   40MOL0     O 5273  10.304   0.086   4.535 -0.1740 -0.0213  0.6415
   40MOL0     C 5274  10.332  -0.038   4.600 -0.0062  0.0213  0.6758
   40MOL0     C 5275  10.236  -0.153   4.534 -0.3038 -0.6707 -0.5028
   40MOL0     C 5276  10.283  -0.179   4.384  0.9259 -0.0652  1.0706
   40MOL0     C 5277  10.185  -0.299   4.340 -0.0594 -0.2089  0.3055
   40MOL0     C 5278  10.150  -0.300   4.190 -0.0688 -0.2391 -0.1408
   40MOL0     C 5279  10.014  -0.226   4.170 -0.3169  0.6035  0.1497
   40MOL0     C 5280   9.998  -0.073   4.214  1.0931  1.3577 -0.5996
   40MOL0     C 5281   9.877  -0.008   4.145 -0.2839  0.1528  0.2497
   40MOL0     N 5282   9.907   0.031   4.005  0.3973 -0.5434 -0.3556
   40MOL0     C 5283   9.939  -0.039   3.893 -0.0975  0.7565 -0.9490
   40MOL0     C 5284   9.968   0.058   3.808 -0.2278  0.4499 -0.1779
   40MOL0     C 5285   9.975   0.022   3.664  0.4973 -0.2863 -0.6506
   40MOL0     C 5286   9.853  -0.055   3.604  0.0085 -0.3497  0.3276
   40MOL0     C 5287   9.846  -0.083   3.451  0.7781  0.5928  0.1831
   40MOL0     C 5288   9.954  -0.160   3.388  0.0060  0.9612 -0.0127
   40MOL0     O 5289  10.073  -0.082   3.381 -0.5248 -0.0414  0.4590
   40MOL0     C 5290  10.099   0.020   3.297  0.0233 -0.2926  1.5128
   40MOL0     C 5291  10.210   0.109   3.314 -0.5439  0.0380  1.0014
   40MOL0     C 5292  10.239   0.226   3.234  0.2134  0.6776 -0.9586
   40MOL0     C 5293  10.166   0.230   3.112 -0.2132 -0.7541  1.0216
   40MOL0     C 5294  10.217   0.324   3.010  0.0135 -0.0452  0.8516
   40MOL0     O 5295  10.307   0.417   3.046 -0.0678 -0.0834  0.6376
   40MOL0     C 5296  10.339   0.499   2.942  0.5294  0.0888  0.2284
   40MOL0     C 5297  10.450   0.475   2.862  0.0526 -0.0475 -0.3987
   40MOL0     C 5298  10.471   0.551   2.742 -0.2467 -0.1389 -0.0170
   40MOL0     C 5299  10.376   0.645   2.699 -0.6120 -0.2363 -0.1361
   40MOL0     O 5300  10.401   0.738   2.598  0.0951 -0.6303  0.2004
   40MOL0     C 5301  10.511   0.723   2.504  0.5472  0.3051  0.6513
   40MOL0     C 5302  10.511   0.846   2.398  0.4967 -0.3605  0.2423
   40MOL0     C 5303  10.375   0.860   2.320  0.1372 -0.4821  0.1084
   40MOL0     C 5304  10.361   0.970   2.220  0.2027 -0.2673  0.4954
   40MOL0     C 5305  10.237   0.969   2.130  0.8202 -0.8454 -0.3386
   40MOL0     C 5306  10.220   1.091   2.045  0.2287 -1.1185 -0.3176
   40MOL0     C 5307  10.325   1.126   1.937 -0.4335  0.8526 -0.2868
   40MOL0     C 5308  10.280   1.248   1.857 -0.0567  0.2643  0.0443
   40MOL0    Cl 5309  10.147   1.207   1.736 -0.0392 -0.3208  0.1929
   40MOL0     C 5310  10.260   0.663   2.782 -0.7461 -0.1036  0.1087
   40MOL0     C 5311  10.250   0.597   2.903 -0.4145 -0.1601  0.0307
   40MOL0     O 5312  10.176   0.297   2.897  0.2556  0.0438  0.3055
   40MOL0     C 5313  10.053   0.144   3.090 -0.6537  0.0210 -0.4575
   40MOL0     C 5314  10.019   0.046   3.192 -0.7534  0.6928  0.3514
   40MOL0     N 5315   9.952   0.180   3.863  0.0434 -0.3736  0.6482
   40MOL0     N 5316   9.922   0.161   3.983  0.1209 -0.2949  0.5370
   40MOL0     C 5317  10.496   0.197   4.644 -0.1318  0.2210 -0.3141
   40MOL0     C 5318  10.570   0.309   4.677  0.1934 -0.4264  0.1003
   40MOL0     C 5319  10.703   0.758   4.712  0.0761 -0.3550 -0.3303
   40MOL0     C 5320  10.673   0.901   4.726 -0.2484  0.3768 -0.4243
   40MOL0     C 5321  10.771   0.987   4.753 -0.6594  0.8419 -1.1120
   40MOL0     C 5322  10.900   0.945   4.787 -0.3014  0.2899 -0.8796
   40MOL0     O 5323  10.992   1.040   4.835  0.4362 -0.5902 -0.4872
   40MOL0     C 5324  11.120   1.000   4.890  0.5036  0.1466  0.3240
   40MOL0     C 5325  11.191   1.125   4.931 -0.4029 -0.0818 -0.3956
   40MOL0     C 5326  11.148   1.206   5.050  0.0735 -0.0212 -0.3856
   40MOL0     C 5327  11.182   1.352   5.040  0.5921 -0.3440 -0.6444
   40MOL0     C 5328  11.130   1.432   5.155  0.6151 -0.7971  0.1818
   40MOL0     C 5329  11.111   1.497   5.251  0.5461 -0.8109 -0.1039
   40MOL0     C 5330  10.940   0.809   4.772  0.1203 -0.1766 -0.1846
   40MOL0     C 5331  10.841   0.714   4.731  0.9855 -0.8311  0.3087
   40MOL0     C 5332  10.877   0.579   4.705 -0.6668  0.6149  0.1553
   40MOL0     H 5333  10.377   0.544   4.538  2.2554 -0.0029 -1.0136
   40MOL0     H 5334  10.244   0.334   4.455 -0.2644  3.6734 -1.3858
   40MOL0     H 5335  10.437  -0.063   4.581 -0.7987 -3.2096 -0.1416
   40MOL0     H 5336  10.304  -0.031   4.705 -2.1280 -4.5779  0.6505
   40MOL0     H 5337  10.133  -0.118   4.545  0.4657  1.7277 -0.4055
   40MOL0     H 5338  10.258  -0.242   4.594 -0.1370 -0.2115  0.1186
   40MOL0     H 5339  10.390  -0.203   4.380  1.1305  1.0038 -0.3902
   40MOL0     H 5340  10.262  -0.086   4.331  0.7192 -1.6838 -1.9202
   40MOL0     H 5341  10.229  -0.399   4.344 -4.7174 -2.5499  0.2294
   40MOL0     H 5342  10.091  -0.306   4.396  0.0563 -0.4271  0.4743
   40MOL0     H 5343  10.230  -0.250   4.135  2.4296 -1.6182  2.0480
   40MOL0     H 5344  10.114  -0.394   4.149 -2.0265  1.7162 -3.4107
   40MOL0     H 5345   9.981  -0.247   4.068 -0.9640  3.7209 -0.3867
   40MOL0     H 5346   9.937  -0.278   4.229 -0.8567 -0.2986 -1.2781
   40MOL0     H 5347  10.088  -0.013   4.198  0.6624  2.0901 -0.2848
   40MOL0     H 5348   9.989  -0.078   4.322  3.5494 -0.0993 -0.3898
   40MOL0     H 5349   9.787  -0.069   4.156 -0.5151  0.1420 -1.4290
   40MOL0     H 5350   9.855   0.084   4.201  0.0748 -0.7461  1.9100
   40MOL0     H 5351   9.933  -0.145   3.870 -2.4842  0.6552 -0.2346
   40MOL0     H 5352   9.996   0.114   3.610  1.5941 -0.7556 -1.0523
   40MOL0     H 5353  10.065  -0.040   3.657  0.4276 -0.4987  0.2353
   40MOL0     H 5354   9.839  -0.151   3.654 -0.3508 -0.4306  0.0758
   40MOL0     H 5355   9.767   0.011   3.620 -0.6296 -0.8284 -1.0199
   40MOL0     H 5356   9.835   0.016   3.404 -4.5986  0.3436  0.3796
   40MOL0     H 5357   9.750  -0.126   3.423 -0.1989  2.4719  0.5175
   40MOL0     H 5358   9.921  -0.205   3.294 -3.0450 -3.1119  2.6290
   40MOL0     H 5359   9.979  -0.246   3.451  1.0937  0.2366 -1.3859
   40MOL0     H 5360  10.274   0.085   3.399 -0.4114 -0.3045  0.8084
   40MOL0     H 5361  10.323   0.287   3.267 -0.0340  0.8502 -0.6457
   40MOL0     H 5362  10.534   0.407   2.876 -0.5986 -0.5427  1.1786
   40MOL0     H 5363  10.551   0.535   2.670 -0.0615  0.7982 -0.0271
   40MOL0     H 5364  10.614   0.712   2.539  1.2588  0.6616 -1.2388
   40MOL0     H 5365  10.483   0.637   2.443  1.6553  0.4052 -0.0203
   40MOL0     H 5366  10.534   0.943   2.443  0.1794 -0.8210  1.4291
   40MOL0     H 5367  10.584   0.831   2.318  0.4045 -0.4089  0.1678
   40MOL0     H 5368  10.364   0.766   2.264 -1.7121 -1.4398  1.9471
   40MOL0     H 5369  10.295   0.876   2.393  1.0615 -2.7029  1.7198
   40MOL0     H 5370  10.450   0.994   2.162 -0.3468  2.8844  0.7729
   40MOL0     H 5371  10.357   1.063   2.279 -0.6337  1.1217 -1.6156
   40MOL0     H 5372  10.149   0.972   2.196  1.7840 -0.9709  0.9942
   40MOL0     H 5373  10.228   0.884   2.061 -0.2090 -0.2622 -0.9480
   40MOL0     H 5374  10.125   1.071   1.994  0.0993  0.8318 -0.9508
   40MOL0     H 5375  10.208   1.177   2.112 -2.4194 -0.4602 -1.4905
   40MOL0     H 5376  10.342   1.048   1.862  0.7435  1.3709 -0.5822
   40MOL0     H 5377  10.423   1.139   1.983 -1.2869 -0.8553  2.2077
   40MOL0     H 5378  10.238   1.321   1.926 -1.3271 -0.0337 -0.3798
   40MOL0     H 5379  10.365   1.293   1.805  0.6365  0.1698  1.0665
   40MOL0     H 5380  10.194   0.745   2.754  0.2220  1.4712  2.1478
   40MOL0     H 5381  10.168   0.620   2.971  0.0249  0.6063  0.3146
   40MOL0     H 5382   9.989   0.163   3.005 -0.3755 -0.0221 -0.6784
   40MOL0     H 5383   9.929  -0.012   3.175 -0.4213 -0.8688  3.2835
   40MOL0     H 5384  10.535   0.099   4.672  0.7197  0.3661 -0.9226
   40MOL0     H 5385  10.662   0.291   4.732  0.3577 -1.0276 -0.3589
   40MOL0     H 5386  10.580   0.948   4.699 -0.1310 -0.5563 -2.6512
   40MOL0     H 5387  10.746   1.092   4.747  0.1637  1.0885 -0.3545
   40MOL0     H 5388  11.178   0.960   4.807  0.4466 -0.5570  0.6148
   40MOL0     H 5389  11.118   0.922   4.966 -0.7467  0.2771  0.4401
   40MOL0     H 5390  11.196   1.182   4.838  1.0120 -2.0503 -1.5861
   40MOL0     H 5391  11.292   1.090   4.955 -0.0085  1.1830 -0.0908
   40MOL0     H 5392  11.198   1.163   5.138 -1.2636  0.9599  0.9045
   40MOL0     H 5393  11.039   1.200   5.061  0.1853 -1.2485  0.3802
   40MOL0     H 5394  11.290   1.365   5.030  1.4300 -0.8943  4.9435
   40MOL0     H 5395  11.131   1.398   4.954 -0.1966 -2.2223 -1.2398
   40MOL0     H 5396  11.095   1.556   5.339 -0.3668 -2.8583  1.1802
   40MOL0     H 5397  11.043   0.777   4.773  0.4448  0.5779 -2.5761
   40MOL0     H 5398  10.859   0.509   4.787 -0.3168 -0.6469 -0.8074
   40MOL0     H 5399  10.837   0.542   4.610 -1.5656 -2.8124  1.6885
   40MOL0     H 5400  10.986   0.573   4.699 -0.5920  1.8543  0.2087
   41MOL0     O 5401   6.185   0.263   1.848 -0.0746  0.1377  0.3421
   41MOL0     C 5402   6.176   0.194   1.749 -0.1998  0.3395 -0.3031
   41MOL0     O 5403   6.278   0.172   1.654  0.1705  0.3398  0.0758
   41MOL0     C 5404   6.393   0.251   1.659  0.7925  0.7305 -0.5126
   41MOL0     C 5405   6.513   0.207   1.726 -0.1716 -1.1617 -0.4977
   41MOL0     C 5406   6.629   0.276   1.720 -0.7092  1.0164 -0.9069
   41MOL0     C 5407   6.636   0.399   1.659  0.6925  0.7553 -0.0687
   41MOL0     O 5408   6.746   0.478   1.631 -0.6476 -0.4557  0.6683
   41MOL0     C 5409   6.862   0.442   1.698  0.1988 -0.3230  0.5498
   41MOL0     C 5410   6.984   0.522   1.666 -0.6959 -0.6188 -0.1022
   41MOL0     C 5411   7.106   0.478   1.746 -0.4236 -0.6458  0.1975
   41MOL0     C 5412   7.205   0.596   1.749  0.6722 -0.4786 -0.4599
   41MOL0     C 5413   7.339   0.544   1.819 -0.3828 -0.5770  0.1577
   41MOL0     C 5414   7.440   0.667   1.834 -0.3334  0.4872 -0.0217
   41MOL0     C 5415   7.576   0.624   1.892  0.0982  0.0537 -0.2321
   41MOL0     C 5416   7.641   0.515   1.802  0.0401  0.2786 -0.1251
   41MOL0     N 5417   7.779   0.487   1.825  0.0919  0.5674  0.3966
   41MOL0     C 5418   7.817   0.389   1.911  0.2526 -0.3490 -0.8421
   41MOL0     C 5419   7.950   0.391   1.901  0.2143 -0.6452 -0.2082
   41MOL0     C 5420   8.039   0.307   1.987 -0.1792  0.2959  0.0898
   41MOL0     C 5421   8.063   0.376   2.120  0.5402 -0.0715 -0.0414
   41MOL0     C 5422   8.168   0.305   2.206  0.4916 -0.0250  0.3040
   41MOL0     C 5423   8.247   0.422   2.278  0.3702  0.5048  0.3497
   41MOL0     O 5424   8.331   0.349   2.374 -0.5927 -0.1038 -0.4070
   41MOL0     C 5425   8.418   0.419   2.452  0.0715 -0.3131 -0.4387
   41MOL0     C 5426   8.402   0.549   2.489 -0.5037  0.6620  0.0569
   41MOL0     C 5427   8.485   0.600   2.594 -0.1333 -0.4753 -0.5705
   41MOL0     C 5428   8.587   0.524   2.656 -0.6462 -0.1383  0.8951
   41MOL0     C 5429   8.677   0.572   2.759 -0.3262  0.4905 -0.1096
   41MOL0     O 5430   8.751   0.476   2.825 -0.2227 -0.6500 -0.0582
   41MOL0     C 5431   8.820   0.502   2.945 -0.8290  0.5382 -0.1373
   41MOL0     C 5432   8.941   0.428   2.968 -0.4186 -0.0557  0.4918
   41MOL0     C 5433   9.008   0.436   3.087 -1.0604  0.5611 -0.6001
   41MOL0     C 5434   8.958   0.502   3.192  0.1385  0.3441  0.8307
   41MOL0     O 5435   9.033   0.514   3.305  0.2341  0.0734 -0.5440
   41MOL0     C 5436   8.965   0.507   3.428 -0.6030  0.0481 -0.1098
   41MOL0     C 5437   8.995   0.374   3.505 -0.4087 -0.0969  0.4536
   41MOL0     C 5438   9.001   0.384   3.659  0.1274  0.1265 -0.3632
   41MOL0     C 5439   8.991   0.244   3.725 -0.4527 -0.2666 -0.1122
   41MOL0     C 5440   9.051   0.250   3.863  0.5069 -0.1764 -0.1355
   41MOL0     C 5441   9.075   0.108   3.908 -0.5642 -0.3027 -0.2515
   41MOL0     C 5442   9.151   0.084   4.037 -0.5884  0.1981 -0.0728
   41MOL0     C 5443   9.063   0.129   4.154 -0.7059 -0.6848  0.7567
   41MOL0    Cl 5444   8.901   0.048   4.155 -0.3285 -0.3959  0.3288
   41MOL0     C 5445   8.842   0.583   3.168 -0.3732 -0.4391  0.4029
   41MOL0     C 5446   8.773   0.582   3.045  0.2667 -0.2439  0.2438
   41MOL0     O 5447   8.664   0.681   2.792  0.8101 -0.1026  0.8103
   41MOL0     C 5448   8.610   0.405   2.604  0.3773  0.3070  0.5384
   41MOL0     C 5449   8.526   0.340   2.514 -0.2888 -0.2038  1.1844
   41MOL0     N 5450   7.992   0.476   1.800 -0.0548  0.4333 -0.1562
   41MOL0     N 5451   7.885   0.535   1.750  0.2574 -0.3987  0.1814
   41MOL0     C 5452   6.516   0.448   1.596  0.1419 -1.0572 -0.2851
   41MOL0     C 5453   6.397   0.374   1.596  0.6223  0.9364  0.4487
   41MOL0     C 5454   6.037   0.136   1.737 -0.6660  0.8609  0.4117
   41MOL0     C 5455   5.948   0.152   1.835 -0.4221  0.7261 -0.0794
   41MOL0     C 5456   5.816   0.111   1.820  1.3068 -0.6407  0.2619
   41MOL0     C 5457   5.767   0.055   1.700 -0.5905 -0.4276 -0.5843
   41MOL0     O 5458   5.649   0.008   1.670 -0.0394 -0.1079 -0.0576
   41MOL0     C 5459   5.551   0.005   1.782  0.4657 -0.0626  0.0454
   41MOL0     C 5460   5.446  -0.086   1.737  0.3907  0.3962  0.1206
   41MOL0     C 5461   5.329  -0.125   1.831 -0.0946 -0.3730  0.7688
   41MOL0     C 5462   5.223  -0.213   1.761 -0.3986  0.0716  0.2799
   41MOL0     C 5463   5.089  -0.213   1.812  0.4351  0.0672 -1.2807
   41MOL0     C 5464   4.976  -0.229   1.857  1.0718 -0.4505 -0.2907
   41MOL0     C 5465   5.864   0.035   1.599 -0.4337 -1.3144 -0.1618
   41MOL0     C 5466   5.997   0.075   1.615  0.6625 -0.6453  0.0534
   41MOL0     C 5467   6.089   0.057   1.500  0.0708  0.6934 -0.0495
   41MOL0     H 5468   6.497   0.105   1.761  1.1527 -0.4297  2.5530
   41MOL0     H 5469   6.720   0.238   1.765 -0.5990  1.1867 -0.9831
   41MOL0     H 5470   6.840   0.454   1.804 -2.9637 -1.1269  0.0888
   41MOL0     H 5471   6.875   0.335   1.678 -2.9248 -0.8403  0.7222
   41MOL0     H 5472   6.974   0.628   1.692 -0.2484 -0.9120  1.3648
   41MOL0     H 5473   7.007   0.504   1.561 -3.0929  3.2390 -1.5258
   41MOL0     H 5474   7.149   0.386   1.705 -2.0780 -1.0181 -0.7887
   41MOL0     H 5475   7.065   0.461   1.845 -1.3817 -0.9228 -0.2321
   41MOL0     H 5476   7.220   0.635   1.648 -1.7326  2.4741  0.1754
   41MOL0     H 5477   7.154   0.674   1.806 -1.3884 -1.1626 -1.2652
   41MOL0     H 5478   7.315   0.519   1.923 -1.7606 -2.1725 -0.4903
   41MOL0     H 5479   7.379   0.457   1.767  0.4010 -0.0835 -0.0756
   41MOL0     H 5480   7.471   0.716   1.742  0.6102  1.2531  0.6868
   41MOL0     H 5481   7.400   0.745   1.900  0.7831  1.0860 -0.0288
   41MOL0     H 5482   7.573   0.571   1.987  0.7831 -1.8317 -1.1949
   41MOL0     H 5483   7.638   0.713   1.899  0.3060 -0.1827  1.0252
   41MOL0     H 5484   7.572   0.430   1.807 -1.0520  1.1655  4.3001
   41MOL0     H 5485   7.640   0.558   1.701  2.3039 -2.6908 -1.5820
   41MOL0     H 5486   7.749   0.339   1.980  0.1526  2.8011  1.5681
   41MOL0     H 5487   7.996   0.207   1.995  2.1831 -0.9878 -1.7781
   41MOL0     H 5488   8.137   0.292   1.940 -0.8052  0.5841 -1.3835
   41MOL0     H 5489   8.102   0.477   2.103  1.1581 -0.4664 -1.0347
   41MOL0     H 5490   7.966   0.395   2.167 -0.1443  0.0956 -1.4716
   41MOL0     H 5491   8.237   0.244   2.147  1.1531 -0.9256  1.9476
   41MOL0     H 5492   8.123   0.239   2.280  1.0768 -0.6528  0.1186
   41MOL0     H 5493   8.177   0.500   2.310  0.3474  0.0440  1.4903
   41MOL0     H 5494   8.318   0.469   2.210 -1.0623 -0.9709 -2.3151
   41MOL0     H 5495   8.334   0.614   2.434  1.2325  3.7552  1.3331
   41MOL0     H 5496   8.459   0.699   2.630 -1.1888 -0.6189 -0.8903
   41MOL0     H 5497   8.973   0.366   2.885 -0.7524  2.2382 -1.4705
   41MOL0     H 5498   9.104   0.385   3.092 -1.4956 -0.9704 -4.7025
   41MOL0     H 5499   8.997   0.597   3.482  1.7571  1.0270 -2.8928
   41MOL0     H 5500   8.855   0.514   3.424 -0.5217  1.7742 -0.2801
   41MOL0     H 5501   8.913   0.307   3.481 -2.9498  2.4719  1.3411
   41MOL0     H 5502   9.089   0.339   3.461 -0.5486 -0.0111  0.0850
   41MOL0     H 5503   9.101   0.418   3.687  0.4679  1.5933 -3.0786
   41MOL0     H 5504   8.925   0.451   3.701  1.2723  1.4182 -0.2522
   41MOL0     H 5505   9.041   0.170   3.662  0.9236  0.1491  0.4539
   41MOL0     H 5506   8.886   0.217   3.734 -0.3831 -0.4814  0.0510
   41MOL0     H 5507   8.992   0.305   3.937  0.5546  2.0361 -1.6408
   41MOL0     H 5508   9.147   0.302   3.859  1.1442 -1.3176 -0.1952
   41MOL0     H 5509   8.981   0.052   3.916  0.7028 -2.1657  3.7901
   41MOL0     H 5510   9.138   0.062   3.832  1.7252  3.3103 -0.7735
   41MOL0     H 5511   9.248   0.133   4.025 -0.1255 -0.4414  0.9190
   41MOL0     H 5512   9.170  -0.024   4.041  1.6730  0.5240  4.5752
   41MOL0     H 5513   9.113   0.107   4.249 -1.8392  0.3409  1.6335
   41MOL0     H 5514   9.051   0.237   4.147 -1.4605 -0.6359  2.2237
   41MOL0     H 5515   8.816   0.652   3.247 -2.2157  1.5672 -1.7666
   41MOL0     H 5516   8.687   0.646   3.031  0.6070  0.2336  0.3185
   41MOL0     H 5517   8.689   0.350   2.653 -1.6679 -1.3025  2.2346
   41MOL0     H 5518   8.543   0.236   2.486 -0.4380  0.1640 -0.3776
   41MOL0     H 5519   6.512   0.545   1.547 -0.5368  0.7976  3.1152
   41MOL0     H 5520   6.309   0.408   1.544 -0.4868  3.0443  3.4231
   41MOL0     H 5521   5.983   0.191   1.930  2.2770  0.4324 -0.8706
   41MOL0     H 5522   5.750   0.126   1.905 -0.4271 -1.5042 -0.8969
   41MOL0     H 5523   5.503   0.100   1.810 -3.8692 -1.8704 -0.4673
   41MOL0     H 5524   5.583  -0.039   1.877 -1.8941  1.1331  1.4806
   41MOL0     H 5525   5.495  -0.181   1.714 -2.5691 -1.0150 -0.7680
   41MOL0     H 5526   5.397  -0.042   1.650 -0.0509 -4.3698 -2.3296
   41MOL0     H 5527   5.271  -0.037   1.861  0.9577 -0.0224  1.8976
   41MOL0     H 5528   5.369  -0.173   1.921  0.1694 -0.5176  0.5748
   41MOL0     H 5529   5.220  -0.182   1.656 -2.4238 -3.0452 -0.7259
   41MOL0     H 5530   5.249  -0.319   1.769 -3.0574 -0.9347 -2.4814
   41MOL0     H 5531   4.882  -0.251   1.902  1.1172  1.5476  0.8814
   41MOL0     H 5532   5.838  -0.015   1.506  2.4675  1.4633 -2.7362
   41MOL0     H 5533   6.174  -0.007   1.525  0.4608  1.3894  0.4545
   41MOL0     H 5534   6.030   0.019   1.416  0.5601 -2.4736  0.9477
   41MOL0     H 5535   6.132   0.154   1.472  1.0816  0.8409  1.8534
   42MOL0     O 5536   2.287   9.204  10.070  0.0191 -0.1024 -0.5078
   42MOL0     C 5537   2.296   9.323  10.098 -0.6472  0.1304 -0.1287
   42MOL0     O 5538   2.187   9.406  10.111 -0.1066  0.3561  0.1648
   42MOL0     C 5539   2.063   9.344  10.129 -0.5983  0.1109 -0.0989
   42MOL0     C 5540   2.026   9.284  10.249  0.1461  0.3908 -0.5824
   42MOL0     C 5541   1.900   9.233  10.268 -0.1050  0.0391  0.0204
   42MOL0     C 5542   1.809   9.227  10.164 -0.3595  0.2128  1.2329
   42MOL0     O 5543   1.692   9.160  10.187 -0.5690 -0.8298  0.3112
   42MOL0     C 5544   1.591   9.184  10.098  0.8607 -0.6482  0.3499
   42MOL0     C 5545   1.486   9.078  10.115  0.0209 -0.7323  0.0061
   42MOL0     C 5546   1.411   9.080  10.251  0.0100 -0.3705 -0.2253
   42MOL0     C 5547   1.289   8.989  10.254 -0.2154 -0.6116 -0.7322
   42MOL0     C 5548   1.232   8.963  10.401 -0.5400  0.9702  0.0721
   42MOL0     C 5549   1.129   8.849  10.427  0.2552 -0.1109 -0.1917
   42MOL0     C 5550   1.000   8.865  10.348  0.4856  0.1970 -0.0699
   42MOL0     C 5551   0.900   8.755  10.386 -0.6892  0.4451  0.0091
   42MOL0     N 5552   0.771   8.770  10.315  0.3187  0.5359 -0.3733
   42MOL0     C 5553   0.719   8.692  10.216 -0.6288 -0.3669  0.5865
   42MOL0     C 5554   0.600   8.745  10.180 -0.4224  0.2403  1.3260
   42MOL0     C 5555   0.510   8.691  10.068 -0.6722  0.0310  0.0116
   42MOL0     C 5556   0.521   8.751   9.931  0.3970 -0.0738 -0.6802
   42MOL0     C 5557   0.492   8.899   9.936 -0.0112  0.5110  0.5087
   42MOL0     C 5558   0.449   8.950   9.797  0.3411  0.0664  1.4748
   42MOL0     O 5559   0.573   8.987   9.736 -0.3000 -0.4135 -0.0371
   42MOL0     C 5560   0.571   9.096   9.649 -0.3197  1.3470 -0.4480
   42MOL0     C 5561   0.517   9.220   9.682 -0.1549 -0.2220  0.9476
   42MOL0     C 5562   0.526   9.333   9.596  0.4665  0.1293  0.2698
   42MOL0     C 5563   0.578   9.315   9.462  0.5266 -0.8782  0.0013
   42MOL0     C 5564   0.585   9.428   9.371 -0.0118  0.3870  1.5842
   42MOL0     O 5565   0.645   9.410   9.248 -0.1353  0.3413 -0.1799
   42MOL0     C 5566   0.634   9.516   9.163 -1.5603  0.7095  1.0020
   42MOL0     C 5567   0.519   9.566   9.109  0.1709  0.3318 -0.4824
   42MOL0     C 5568   0.524   9.668   9.015  0.1094 -0.4340  0.4643
   42MOL0     C 5569   0.641   9.728   8.976  0.2542  0.7164 -0.6022
   42MOL0     O 5570   0.642   9.831   8.887 -0.3010 -0.0590 -0.3954
   42MOL0     C 5571   0.570   9.949   8.925  0.5664  2.0449 -0.6858
   42MOL0     C 5572   0.585  10.073   8.841  0.5540 -0.3973  0.3125
   42MOL0     C 5573   0.510  10.196   8.893  0.3534 -0.1011 -0.2306
   42MOL0     C 5574   0.497  10.315   8.796  0.2369  1.0049  0.4189
   42MOL0     C 5575   0.522  10.441   8.864  0.3830  0.5161  0.2992
   42MOL0     C 5576   0.414  10.486   8.973  0.5646  0.0453 -0.2803
   42MOL0     C 5577   0.466  10.602   9.053  0.3276  0.1867 -0.5545
   42MOL0     C 5578   0.367  10.662   9.151 -0.0975 -0.5870 -0.3349
   42MOL0    Cl 5579   0.210  10.716   9.092 -0.2660  0.2893  0.5015
   42MOL0     C 5580   0.755   9.676   9.027 -0.2357  0.9389 -0.6364
   42MOL0     C 5581   0.755   9.573   9.120  0.4277  0.2457 -0.5702
   42MOL0     O 5582   0.534   9.534   9.400  0.1240  0.3379 -0.4780
   42MOL0     C 5583   0.635   9.192   9.429  0.1229  0.0757 -0.0397
   42MOL0     C 5584   0.641   9.082   9.522  0.3148 -1.1522  0.0887
   42MOL0     N 5585   0.580   8.851  10.267 -0.5410  0.0269  0.6467
   42MOL0     N 5586   0.679   8.869  10.343 -0.3640  0.2166  0.2058
   42MOL0     C 5587   1.843   9.283  10.042  0.3417  0.0260 -0.5289
   42MOL0     C 5588   1.965   9.353  10.022  0.9088  0.1741 -1.1505
   42MOL0     C 5589   2.422   9.389  10.100 -0.6518  0.3368 -0.1450
   42MOL0     C 5590   2.427   9.509  10.169 -0.2295 -0.8677 -0.3666
   42MOL0     C 5591   2.542   9.588  10.169  1.0299 -0.1359  0.7081
   42MOL0     C 5592   2.654   9.544  10.109 -0.2265  0.1014 -0.4295
   42MOL0     O 5593   2.760   9.625  10.122  0.4383  0.5502 -0.0625
   42MOL0     C 5594   2.876   9.611  10.046 -0.5170 -0.6023 -0.7742
   42MOL0     C 5595   2.922   9.745  10.010 -0.2490 -0.1974  0.0719
   42MOL0     C 5596   3.050   9.737   9.928  0.2366 -1.3755 -1.0719
   42MOL0     C 5597   3.132   9.872   9.915 -0.3572 -1.2570  0.0305
   42MOL0     C 5598   3.214   9.889  10.036  0.5151  0.0727 -0.0559
   42MOL0     C 5599   3.269   9.884  10.139  0.6358 -0.5408 -0.6581
   42MOL0     C 5600   2.647   9.423  10.043 -0.3140  0.6815 -0.4806
   42MOL0     C 5601   2.535   9.343  10.028  0.1548 -0.1725 -0.0037
   42MOL0     C 5602   2.546   9.218   9.946  1.1674  1.2452  0.5273
   42MOL0     H 5603   2.108   9.278  10.320  0.1068 -1.6989 -0.6689
   42MOL0     H 5604   1.881   9.189  10.365 -2.5093  2.3475  0.7306
   42MOL0     H 5605   1.554   9.286  10.114  0.7161 -1.0017  2.7179
   42MOL0     H 5606   1.614   9.170   9.992 -4.5815  0.8065 -1.3676
   42MOL0     H 5607   1.538   8.984  10.097 -1.7695 -1.8870  0.5739
   42MOL0     H 5608   1.417   9.097  10.033  2.8642 -0.0998 -2.3990
   42MOL0     H 5609   1.382   9.185  10.260  0.1521 -0.1702 -1.8652
   42MOL0     H 5610   1.478   9.062  10.336 -0.6801  0.5198  0.5213
   42MOL0     H 5611   1.209   9.040  10.198 -0.4925  0.5314  0.6576
   42MOL0     H 5612   1.309   8.890  10.210  0.1991  0.1330 -2.2692
   42MOL0     H 5613   1.316   8.949  10.470 -2.8320  0.5160  2.9186
   42MOL0     H 5614   1.187   9.056  10.438  0.1919  0.7452  1.5765
   42MOL0     H 5615   1.177   8.762  10.381 -0.9038 -0.6520 -0.4239
   42MOL0     H 5616   1.106   8.836  10.533 -0.4970 -1.8086 -0.5344
   42MOL0     H 5617   1.020   8.866  10.241  3.0905 -1.2485  0.3221
   42MOL0     H 5618   0.957   8.963  10.369 -0.3554 -0.4180  1.2936
   42MOL0     H 5619   0.931   8.651  10.368  1.6331  0.8888  1.1316
   42MOL0     H 5620   0.882   8.750  10.494  1.2477  0.4985  0.3730
   42MOL0     H 5621   0.773   8.618  10.158 -1.6473  1.8124 -3.5781
   42MOL0     H 5622   0.526   8.584  10.052  5.5341 -0.1902  4.2310
   42MOL0     H 5623   0.412   8.718  10.110 -0.1631  0.4810  0.9307
   42MOL0     H 5624   0.619   8.721   9.894  0.3678 -0.2262 -0.6316
   42MOL0     H 5625   0.455   8.706   9.856  2.6112 -0.1879 -2.7047
   42MOL0     H 5626   0.584   8.951   9.967  0.2088 -0.5887  1.8141
   42MOL0     H 5627   0.418   8.928  10.011  0.6887  3.7336  0.1406
   42MOL0     H 5628   0.384   9.038   9.802  5.0907  4.4105 -1.8486
   42MOL0     H 5629   0.404   8.868   9.740  0.8725  0.7613 -0.0181
   42MOL0     H 5630   0.469   9.242   9.776  0.2384  0.9401  0.8984
   42MOL0     H 5631   0.491   9.432   9.625  1.1802  0.3188  0.5009
   42MOL0     H 5632   0.423   9.517   9.123  0.0555  0.0014 -2.2093
   42MOL0     H 5633   0.430   9.705   8.976 -0.0557 -0.1804  1.0952
   42MOL0     H 5634   0.462   9.929   8.926  0.4360  2.6843  0.4953
   42MOL0     H 5635   0.596   9.984   9.025 -1.2075 -0.6429  0.8343
   42MOL0     H 5636   0.690  10.099   8.829  0.3837 -0.2440 -0.9498
   42MOL0     H 5637   0.538  10.051   8.744 -2.7309  1.5130  1.2815
   42MOL0     H 5638   0.409  10.168   8.923  0.7040 -3.0111 -1.4551
   42MOL0     H 5639   0.569  10.218   8.982 -0.9823 -1.2688  0.9827
   42MOL0     H 5640   0.396  10.301   8.757 -0.5717 -0.6943  2.8739
   42MOL0     H 5641   0.561  10.283   8.713 -0.5892 -2.3349  0.9442
   42MOL0     H 5642   0.527  10.521   8.790 -0.5230 -0.7256 -1.1949
   42MOL0     H 5643   0.621  10.437   8.909  0.6920 -2.7592 -0.3539
   42MOL0     H 5644   0.323  10.515   8.920  1.9376  0.7144 -2.3623
   42MOL0     H 5645   0.404  10.404   9.045 -0.5379 -0.1613 -0.6539
   42MOL0     H 5646   0.483  10.680   8.978 -0.5896  1.0765  0.1277
   42MOL0     H 5647   0.558  10.589   9.111 -0.8214 -2.1805  0.8779
   42MOL0     H 5648   0.369  10.589   9.232  2.6602 -0.1207  0.1125
   42MOL0     H 5649   0.420  10.749   9.191  0.7365 -0.0672 -2.4208
   42MOL0     H 5650   0.853   9.712   8.996  0.3411 -1.0317 -1.2698
   42MOL0     H 5651   0.853   9.552   9.164 -1.5217 -1.3212  3.6102
   42MOL0     H 5652   0.691   9.175   9.337  1.5151 -0.4956  0.8638
   42MOL0     H 5653   0.690   8.996   9.479  0.8043 -0.1604 -1.4003
   42MOL0     H 5654   1.782   9.287   9.952  0.1353 -0.1709 -0.3994
   42MOL0     H 5655   1.981   9.395   9.923  0.7726 -0.3864 -1.4111
   42MOL0     H 5656   2.339   9.541  10.224 -0.5301 -1.9879 -0.1846
   42MOL0     H 5657   2.543   9.682  10.222  4.4560 -0.4004  1.3367
   42MOL0     H 5658   2.854   9.567   9.948  0.7784 -1.1405 -0.8496
   42MOL0     H 5659   2.954   9.553  10.097 -0.3325  0.5638  0.3146
   42MOL0     H 5660   2.946   9.794  10.104 -3.8108  0.6286  0.7054
   42MOL0     H 5661   2.851   9.812   9.960  1.8129  2.1024  0.0230
   42MOL0     H 5662   3.016   9.707   9.829 -0.4783  0.1238 -1.3125
   42MOL0     H 5663   3.113   9.660   9.973 -1.1534 -0.9062  1.9765
   42MOL0     H 5664   3.204   9.859   9.834  0.9408  1.0995  0.7119
   42MOL0     H 5665   3.061   9.951   9.889  0.3424 -1.2158 -1.8459
   42MOL0     H 5666   3.320   9.901  10.232  1.9191 -1.2738 -1.2159
   42MOL0     H 5667   2.737   9.375  10.006  0.8151 -0.2484  3.0582
   42MOL0     H 5668   2.471   9.229   9.867  1.4417  3.0610  0.4631
   42MOL0     H 5669   2.641   9.222   9.890  1.3578  0.3733  0.7721
   42MOL0     H 5670   2.529   9.120   9.990  1.2528  0.5420 -0.9234
   43MOL0     O 5671   2.225   8.247   1.436 -0.2606  0.4374 -0.6219
   43MOL0     C 5672   2.279   8.288   1.339 -0.2873 -0.5441  0.4320
   43MOL0     O 5673   2.253   8.411   1.277  0.2250 -0.0488 -0.3249
   43MOL0     C 5674   2.160   8.497   1.337 -0.9149  0.6347  0.5647
   43MOL0     C 5675   2.080   8.554   1.242  0.6946 -0.1398 -0.6280
   43MOL0     C 5676   1.992   8.661   1.282 -0.5471 -0.2512 -0.1454
   43MOL0     C 5677   2.003   8.704   1.410  0.4462 -0.3902  1.2022
   43MOL0     O 5678   1.941   8.826   1.439 -0.2018 -1.1605  0.2875
   43MOL0     C 5679   1.799   8.830   1.423 -0.0797  0.0265  0.2894
   43MOL0     C 5680   1.762   8.976   1.457  0.3987 -0.0138  0.0889
   43MOL0     C 5681   1.612   9.007   1.435 -0.3029  0.5368 -0.4823
   43MOL0     C 5682   1.582   9.024   1.287 -1.0084 -0.2166 -0.0199
   43MOL0     C 5683   1.434   9.056   1.249 -1.2198  1.1417 -0.1912
   43MOL0     C 5684   1.349   9.141   1.331 -0.4051  0.5700 -1.0511
   43MOL0     C 5685   1.215   9.152   1.252 -0.2011  0.0559  0.3175
   43MOL0     C 5686   1.098   9.247   1.315  0.0050 -0.6096 -0.7462
   43MOL0     N 5687   1.056   9.202   1.445 -1.0034 -0.1898 -0.0199
   43MOL0     C 5688   1.006   9.076   1.489 -0.2370 -0.0444  0.2470
   43MOL0     C 5689   0.986   9.091   1.618 -0.0025 -0.7708 -0.5847
   43MOL0     C 5690   0.927   8.990   1.714 -0.3809 -0.3552 -0.0650
   43MOL0     C 5691   0.956   9.030   1.856  0.7681 -0.3906  0.2137
   43MOL0     C 5692   0.916   8.921   1.953 -0.5353  0.2025  0.8459
   43MOL0     C 5693   0.951   8.953   2.102 -0.2027  1.1679  0.2610
   43MOL0     O 5694   0.878   9.072   2.141  0.0040  0.2500 -0.7057
   43MOL0     C 5695   0.918   9.129   2.257 -0.2442  0.2543  1.0069
   43MOL0     C 5696   1.024   9.086   2.345 -0.5372 -0.8474 -0.7610
   43MOL0     C 5697   1.050   9.169   2.452  0.5826  0.4294 -0.0552
   43MOL0     C 5698   0.996   9.295   2.470  0.0258 -0.0440  0.6493
   43MOL0     C 5699   1.034   9.385   2.574 -0.3241  0.7809  0.3294
   43MOL0     O 5700   1.011   9.514   2.558  0.2371 -0.0802 -0.2601
   43MOL0     C 5701   1.036   9.613   2.654  0.0929  0.5154  0.5999
   43MOL0     C 5702   1.022   9.596   2.793 -0.1409 -0.8850  0.5337
   43MOL0     C 5703   1.057   9.699   2.886 -0.6199 -0.4831  1.6082
   43MOL0     C 5704   1.094   9.828   2.831  0.0948 -0.4709 -0.1754
   43MOL0     O 5705   1.128   9.935   2.904 -0.2393  0.3255 -0.0966
   43MOL0     C 5706   1.170   9.919   3.037 -0.5418 -0.0846  0.5023
   43MOL0     C 5707   1.053   9.912   3.140 -1.2733 -0.5582 -0.1884
   43MOL0     C 5708   0.983  10.048   3.163  0.3638 -0.3896 -0.5087
   43MOL0     C 5709   0.946  10.079   3.302 -0.1826 -0.0541 -1.2466
   43MOL0     C 5710   0.812  10.012   3.341  0.3741 -1.4597  0.7037
   43MOL0     C 5711   0.774  10.012   3.486  0.3559 -0.0700 -0.0014
   43MOL0     C 5712   0.666   9.907   3.520  0.9296  0.5247 -0.1958
   43MOL0     C 5713   0.537   9.941   3.461  0.3524  0.5515  0.0021
   43MOL0    Cl 5714   0.463  10.079   3.550  0.3512  0.0518 -0.0770
   43MOL0     C 5715   1.092   9.845   2.694  0.0393  0.6529  0.2834
   43MOL0     C 5716   1.063   9.739   2.601 -0.1212  0.2416 -0.5598
   43MOL0     O 5717   1.092   9.334   2.668 -0.5291 -0.2304 -0.7424
   43MOL0     C 5718   0.911   9.346   2.374 -1.0350  0.4292 -0.1615
   43MOL0     C 5719   0.864   9.258   2.275 -1.4704 -1.0080  0.3023
   43MOL0     N 5720   1.042   9.224   1.659  0.0649  0.6509 -1.0039
   43MOL0     N 5721   1.069   9.291   1.554 -1.0627 -0.9058  0.7426
   43MOL0     C 5722   2.085   8.646   1.502  0.3091  0.1894 -0.0561
   43MOL0     C 5723   2.159   8.537   1.473 -0.4082  0.8575  0.4969
   43MOL0     C 5724   2.404   8.231   1.298  1.0830 -0.7597 -0.7140
   43MOL0     C 5725   2.507   8.323   1.262 -0.4645  1.0920 -0.6385
   43MOL0     C 5726   2.634   8.273   1.236  0.8846  0.0420 -0.0274
   43MOL0     C 5727   2.667   8.142   1.241 -0.2113 -0.2945 -1.3279
   43MOL0     O 5728   2.796   8.107   1.216 -0.3156 -0.0421 -0.7909
   43MOL0     C 5729   2.877   8.066   1.325  0.8296  0.2105  0.0535
   43MOL0     C 5730   3.015   8.118   1.318 -0.5919 -0.6082  0.5446
   43MOL0     C 5731   3.099   8.019   1.223 -0.4627 -0.3441  0.6045
   43MOL0     C 5732   3.182   7.917   1.295 -0.3980  0.6003  0.5286
   43MOL0     C 5733   3.277   7.983   1.385  0.9234 -0.1716  0.1165
   43MOL0     C 5734   3.359   8.035   1.467 -0.5842  0.2948 -0.5955
   43MOL0     C 5735   2.564   8.053   1.285 -1.1220  0.1053 -0.4553
   43MOL0     C 5736   2.432   8.094   1.309 -0.0035  0.7336 -0.0754
   43MOL0     C 5737   2.325   7.982   1.330 -0.0635 -0.5826 -0.5888
   43MOL0     H 5738   2.078   8.502   1.147 -1.1817  0.4559 -0.9498
   43MOL0     H 5739   1.930   8.699   1.203  1.5422 -0.5978 -2.0490
   43MOL0     H 5740   1.773   8.807   1.319  0.6784  5.0694 -1.2728
   43MOL0     H 5741   1.760   8.754   1.492  0.2205  0.2596  0.7187
   43MOL0     H 5742   1.816   9.033   1.381 -1.2175 -2.2959 -2.9885
   43MOL0     H 5743   1.800   8.995   1.558  0.4211  1.9687 -0.2497
   43MOL0     H 5744   1.595   9.096   1.497  4.0234 -0.6952  3.0517
   43MOL0     H 5745   1.548   8.934   1.485 -1.1445  2.7516  1.9480
   43MOL0     H 5746   1.644   9.107   1.251  0.1083 -1.9315 -2.2539
   43MOL0     H 5747   1.609   8.931   1.236  1.6800 -0.2664  1.3385
   43MOL0     H 5748   1.455   9.120   1.163  1.3544  4.3842  2.5941
   43MOL0     H 5749   1.379   8.966   1.220 -1.6486  2.4285 -3.8248
   43MOL0     H 5750   1.321   9.108   1.432 -0.2732 -0.6094 -1.3762
   43MOL0     H 5751   1.394   9.240   1.341 -0.4845  0.7534 -2.3571
   43MOL0     H 5752   1.176   9.050   1.243 -1.4793  0.5899 -0.5074
   43MOL0     H 5753   1.238   9.198   1.155 -0.0864  1.1469  0.8401
   43MOL0     H 5754   1.140   9.344   1.342  1.3930 -1.4747  0.3349
   43MOL0     H 5755   1.012   9.255   1.248 -0.2149  2.9640 -0.2354
   43MOL0     H 5756   0.980   8.999   1.418 -1.8406 -0.2459  0.9989
   43MOL0     H 5757   0.818   8.992   1.705 -0.6315  2.4536  1.9558
   43MOL0     H 5758   0.967   8.891   1.691  3.6166 -0.1967  4.4882
   43MOL0     H 5759   1.063   9.046   1.864  0.6956  0.6716 -0.6565
   43MOL0     H 5760   0.909   9.128   1.870  1.9595  0.0132  1.4784
   43MOL0     H 5761   0.969   8.833   1.916 -1.1489 -0.4404  1.4890
   43MOL0     H 5762   0.808   8.912   1.940 -0.5835  1.9113 -0.3178
   43MOL0     H 5763   1.056   8.980   2.116 -0.2932  1.2352  0.8463
   43MOL0     H 5764   0.923   8.865   2.161  1.8096 -1.8171 -2.8786
   43MOL0     H 5765   1.086   9.000   2.324  0.6712  0.3541 -2.2719
   43MOL0     H 5766   1.132   9.143   2.518 -0.4148  0.9404  1.4539
   43MOL0     H 5767   1.002   9.496   2.830  1.6201 -1.3180  0.4137
   43MOL0     H 5768   1.051   9.684   2.993 -3.0455 -0.5918  1.5014
   43MOL0     H 5769   1.239   9.835   3.045  2.1733  1.7420 -2.0710
   43MOL0     H 5770   1.232  10.003   3.068  0.7476 -0.5977 -0.6349
   43MOL0     H 5771   0.979   9.835   3.117 -3.0393  0.9934  0.0952
   43MOL0     H 5772   1.098   9.889   3.238 -2.3372  0.1531  0.4915
   43MOL0     H 5773   1.040  10.132   3.123  0.0070 -0.1144 -0.4362
   43MOL0     H 5774   0.891  10.034   3.105 -0.7228 -5.1395  1.8312
   43MOL0     H 5775   0.936  10.187   3.318 -1.0729 -0.3654  0.5708
   43MOL0     H 5776   1.027  10.042   3.365 -2.9307 -1.3327  1.8118
   43MOL0     H 5777   0.805   9.911   3.299  0.6438 -0.8503 -0.8789
   43MOL0     H 5778   0.741  10.075   3.287  3.0057  1.7296  0.6627
   43MOL0     H 5779   0.864   9.978   3.539 -0.9423 -0.4298  2.0740
   43MOL0     H 5780   0.754  10.109   3.532  3.7612  0.4345  0.6829
   43MOL0     H 5781   0.655   9.907   3.629 -0.3968  2.1753 -0.2963
   43MOL0     H 5782   0.701   9.809   3.487  0.9311 -0.6317  2.9188
   43MOL0     H 5783   0.551   9.972   3.357  1.1094 -0.4872 -0.2131
   43MOL0     H 5784   0.463   9.861   3.470  2.0709 -0.9712  1.1968
   43MOL0     H 5785   1.138   9.933   2.650  2.4786 -0.6205  0.1106
   43MOL0     H 5786   1.079   9.754   2.495  0.2500  0.7059 -0.4399
   43MOL0     H 5787   0.882   9.451   2.366  0.2107  0.6705 -3.0594
   43MOL0     H 5788   0.797   9.299   2.200 -1.0344  0.4078  0.6627
   43MOL0     H 5789   2.087   8.678   1.606  4.0494 -0.3038  0.1625
   43MOL0     H 5790   2.222   8.484   1.544 -1.1024 -0.0995  0.4258
   43MOL0     H 5791   2.501   8.430   1.246 -0.2801  0.8607 -2.4882
   43MOL0     H 5792   2.704   8.355   1.222 -0.3179  1.3401  1.2938
   43MOL0     H 5793   2.874   7.957   1.320 -0.7635  0.1505  1.4054
   43MOL0     H 5794   2.821   8.092   1.416 -2.1538 -0.6941 -1.3908
   43MOL0     H 5795   3.058   8.118   1.418  1.1679 -0.3315 -0.1900
   43MOL0     H 5796   3.014   8.220   1.278  0.0944 -1.6358 -2.3496
   43MOL0     H 5797   3.155   8.073   1.146  0.3931 -1.2896  0.5446
   43MOL0     H 5798   3.031   7.958   1.162 -0.5090 -0.0047  0.3122
   43MOL0     H 5799   3.108   7.859   1.350 -2.5391  0.2517 -2.4853
   43MOL0     H 5800   3.234   7.847   1.229 -0.4462 -0.9359  2.0632
   43MOL0     H 5801   3.435   8.076   1.531  0.4285  0.1835 -1.6805
   43MOL0     H 5802   2.601   7.951   1.277  1.4656  0.8528  0.8017
   43MOL0     H 5803   2.370   7.888   1.299  0.5553 -1.7074  3.1632
   43MOL0     H 5804   2.305   7.980   1.438 -1.5946  2.3181 -0.7136
   43MOL0     H 5805   2.232   8.004   1.276  0.2723  1.5828 -0.4007
   44MOL0     O 5806   0.084   7.128   6.764 -0.2008  0.3000  0.1861
   44MOL0     C 5807   0.073   7.097   6.644 -0.6524  0.0487  0.1031
   44MOL0     O 5808   0.173   7.049   6.571  0.4999 -0.4964  0.8444
   44MOL0     C 5809   0.306   7.059   6.621  0.9352  0.1525 -0.2974
   44MOL0     C 5810   0.351   6.983   6.733  0.0604 -1.0137  0.2181
   44MOL0     C 5811   0.484   6.998   6.778  0.4475  0.8768 -0.5619
   44MOL0     C 5812   0.569   7.081   6.702 -0.4086  0.2752 -0.7090
   44MOL0     O 5813   0.689   7.120   6.761  0.2100  0.0443 -0.2528
   44MOL0     C 5814   0.768   7.035   6.843 -0.8656 -0.1872 -0.5046
   44MOL0     C 5815   0.907   7.091   6.871  0.7167  0.1606 -0.5615
   44MOL0     C 5816   0.996   7.018   6.974 -0.1818 -0.3135 -0.1535
   44MOL0     C 5817   1.118   7.104   6.993  0.5939 -0.6137 -0.3555
   44MOL0     C 5818   1.217   7.023   7.071  0.1858 -0.0094  0.3318
   44MOL0     C 5819   1.341   7.097   7.099 -0.0412 -0.1173  0.3304
   44MOL0     C 5820   1.450   6.992   7.161  0.0149 -0.5664 -0.4435
   44MOL0     C 5821   1.437   6.947   7.312 -0.2415  0.7204  0.0136
   44MOL0     N 5822   1.520   6.820   7.335  0.1520 -0.5603  0.0634
   44MOL0     C 5823   1.481   6.693   7.379  0.2622  0.0505 -0.2509
   44MOL0     C 5824   1.586   6.623   7.363  0.9039  0.5687 -0.0416
   44MOL0     C 5825   1.608   6.482   7.418  0.9852 -0.1816  0.1028
   44MOL0     C 5826   1.583   6.484   7.570 -0.0801  0.5510  0.1431
   44MOL0     C 5827   1.571   6.340   7.609  0.0440  0.4265  0.8869
   44MOL0     C 5828   1.507   6.345   7.747 -0.2681 -0.1501 -0.4765
   44MOL0     O 5829   1.463   6.219   7.799  0.5889 -0.1551 -0.0056
   44MOL0     C 5830   1.349   6.163   7.751  0.9502 -0.7159  0.3352
   44MOL0     C 5831   1.248   6.243   7.680  0.7421 -0.1638 -0.8295
   44MOL0     C 5832   1.128   6.176   7.647  0.3583  0.1172  0.1343
   44MOL0     C 5833   1.096   6.047   7.691  0.3042 -0.3166  0.3480
   44MOL0     C 5834   0.968   5.987   7.666  0.2462 -0.2558  0.2248
   44MOL0     O 5835   0.973   5.847   7.659  0.1820 -0.2676 -0.6289
   44MOL0     C 5836   0.849   5.793   7.646  0.7699  0.3755 -0.0160
   44MOL0     C 5837   0.795   5.774   7.522 -0.0975 -0.3542  0.7594
   44MOL0     C 5838   0.670   5.719   7.519 -0.3802  0.2200  0.0283
   44MOL0     C 5839   0.592   5.689   7.627  0.9150  0.1566  0.4121
   44MOL0     O 5840   0.466   5.639   7.623  0.1298 -0.2517  0.0423
   44MOL0     C 5841   0.464   5.503   7.682  0.2413 -0.9312 -0.2207
   44MOL0     C 5842   0.323   5.441   7.671 -0.0455 -0.2084  0.3215
   44MOL0     C 5843   0.224   5.508   7.767 -0.3067  0.3149 -1.0134
   44MOL0     C 5844   0.253   5.473   7.912 -0.5875 -0.0013 -1.1325
   44MOL0     C 5845   0.131   5.471   8.009 -0.0731  0.1905 -0.0094
   44MOL0     C 5846   0.179   5.430   8.153  0.4040  0.7956 -0.0846
   44MOL0     C 5847   0.057   5.433   8.253 -0.1265 -0.3012  0.3902
   44MOL0     C 5848   0.093   5.470   8.400 -1.2518  0.8999  0.6691
   44MOL0    Cl 5849  -0.056   5.483   8.490  0.2730 -0.2850  0.5868
   44MOL0     C 5850   0.648   5.711   7.750 -0.7921 -0.6213 -0.8114
   44MOL0     C 5851   0.780   5.761   7.760  0.0426  0.7484 -0.0682
   44MOL0     O 5852   0.870   6.061   7.642 -0.3973  0.1531  0.4646
   44MOL0     C 5853   1.189   5.979   7.779  0.9946 -0.4946  0.5135
   44MOL0     C 5854   1.320   6.036   7.804  0.7590  0.5113 -0.0959
   44MOL0     N 5855   1.690   6.689   7.323  0.3005  0.6797  0.3089
   44MOL0     N 5856   1.654   6.815   7.304  0.0174 -0.5239 -0.5738
   44MOL0     C 5857   0.524   7.154   6.591 -0.4932 -0.5199  0.8374
   44MOL0     C 5858   0.392   7.133   6.546 -0.8591  0.1232  0.2185
   44MOL0     C 5859  -0.062   7.091   6.583 -0.1207  0.4907  0.9292
   44MOL0     C 5860  -0.165   7.106   6.668 -0.5241 -0.2235 -0.4398
   44MOL0     C 5861  -0.294   7.123   6.625 -0.0476  0.0805  0.5015
   44MOL0     C 5862  -0.327   7.130   6.492 -1.0916  0.4024  0.1975
   44MOL0     O 5863  -0.461   7.154   6.463 -0.2373  0.8060  0.7000
   44MOL0     C 5864  -0.479   7.191   6.320 -0.4854 -0.3104 -0.0047
   44MOL0     C 5865  -0.623   7.214   6.271  0.2723 -0.4874 -0.0618
   44MOL0     C 5866  -0.718   7.098   6.284 -0.1798 -0.4144  0.9012
   44MOL0     C 5867  -0.860   7.118   6.237  0.0739 -0.2595  0.3401
   44MOL0     C 5868  -0.924   7.210   6.326 -0.4522 -0.7826 -0.1335
   44MOL0     C 5869  -0.976   7.296   6.390  0.5846 -0.3322  0.4468
   44MOL0     C 5870  -0.217   7.125   6.398 -0.0971 -0.1592 -0.2951
   44MOL0     C 5871  -0.088   7.104   6.441 -0.0802 -0.6261  0.5815
   44MOL0     C 5872   0.017   7.102   6.336 -0.1935  0.5647 -0.0561
   44MOL0     H 5873   0.283   6.922   6.792  0.6490 -1.4825  0.4216
   44MOL0     H 5874   0.508   6.951   6.872 -1.1223  1.8758  0.3939
   44MOL0     H 5875   0.731   7.020   6.945  0.9126  2.3244  0.6274
   44MOL0     H 5876   0.789   6.939   6.796  3.3904 -0.5581  1.6172
   44MOL0     H 5877   0.887   7.195   6.897 -2.4725 -0.3786 -0.4274
   44MOL0     H 5878   0.951   7.096   6.771  0.1541 -1.7266 -0.9377
   44MOL0     H 5879   1.018   6.912   6.954  0.8603 -0.3938  1.2123
   44MOL0     H 5880   0.948   7.023   7.072  3.6182  0.4907  1.8843
   44MOL0     H 5881   1.157   7.132   6.895 -0.1416 -3.1899 -1.4841
   44MOL0     H 5882   1.093   7.200   7.039  1.9794 -0.1877 -0.4299
   44MOL0     H 5883   1.172   6.981   7.160  1.4903 -0.9351  0.5788
   44MOL0     H 5884   1.236   6.937   7.006  2.1112  2.5386 -2.7873
   44MOL0     H 5885   1.376   7.129   7.001 -0.1000 -0.6379  0.1403
   44MOL0     H 5886   1.314   7.176   7.170  0.2542 -0.5376  0.9256
   44MOL0     H 5887   1.549   7.034   7.141  0.2493 -1.2697 -0.7755
   44MOL0     H 5888   1.451   6.900   7.103  1.2885 -0.3085 -0.8693
   44MOL0     H 5889   1.479   7.025   7.377 -0.0193  0.5382  0.0885
   44MOL0     H 5890   1.332   6.918   7.322  0.0645  0.0868  1.9422
   44MOL0     H 5891   1.396   6.648   7.427  0.7162 -0.2426  0.2845
   44MOL0     H 5892   1.528   6.415   7.384  2.8196 -1.2046 -2.5606
   44MOL0     H 5893   1.707   6.447   7.388  1.5421  1.3113  0.1559
   44MOL0     H 5894   1.678   6.518   7.611  1.7395 -1.1400 -2.3974
   44MOL0     H 5895   1.500   6.543   7.611  0.6881  0.5453  1.7920
   44MOL0     H 5896   1.667   6.288   7.599 -0.5475 -0.3341 -1.6317
   44MOL0     H 5897   1.504   6.290   7.539  1.3903 -3.3620  2.0369
   44MOL0     H 5898   1.421   6.412   7.758  1.5672  2.2321  0.1919
   44MOL0     H 5899   1.585   6.391   7.808  1.5968 -2.0650 -1.2721
   44MOL0     H 5900   1.266   6.344   7.646  0.4334 -0.3027 -1.4244
   44MOL0     H 5901   1.062   6.227   7.578  0.1818  0.2432  0.3963
   44MOL0     H 5902   0.853   5.808   7.438  1.5916  0.1793  2.0886
   44MOL0     H 5903   0.626   5.714   7.420  3.8581  1.2239 -2.1474
   44MOL0     H 5904   0.527   5.449   7.610 -1.5784  0.0078 -2.6674
   44MOL0     H 5905   0.504   5.491   7.783 -2.4262 -4.2086  0.6428
   44MOL0     H 5906   0.277   5.454   7.573 -0.8000 -0.4042  0.6432
   44MOL0     H 5907   0.328   5.333   7.692 -2.4091 -0.3322  0.4421
   44MOL0     H 5908   0.217   5.616   7.751 -2.2703  0.5662  1.0610
   44MOL0     H 5909   0.122   5.468   7.757 -0.9185  1.1703  1.1318
   44MOL0     H 5910   0.323   5.545   7.955 -0.8103  0.3100 -1.2862
   44MOL0     H 5911   0.319   5.389   7.934  1.6353  2.2558  1.7041
   44MOL0     H 5912   0.064   5.396   7.965  0.2565  0.2610 -0.6356
   44MOL0     H 5913   0.076   5.565   8.014 -0.1955  0.0398  2.2448
   44MOL0     H 5914   0.225   5.332   8.164  1.0897  1.3348  2.3137
   44MOL0     H 5915   0.247   5.510   8.183  2.5196 -1.8383  2.6821
   44MOL0     H 5916   0.007   5.336   8.249  0.6337 -0.7633  1.6211
   44MOL0     H 5917  -0.020   5.505   8.223 -0.4322  0.2718  2.4034
   44MOL0     H 5918   0.158   5.396   8.447 -3.2140  1.4645  4.6852
   44MOL0     H 5919   0.148   5.564   8.394  1.2387 -0.5465 -1.1822
   44MOL0     H 5920   0.607   5.697   7.850 -2.3626  0.9850 -1.1853
   44MOL0     H 5921   0.834   5.770   7.854  3.4606  2.4446 -1.9970
   44MOL0     H 5922   1.167   5.879   7.816  1.3671 -1.4694 -1.7237
   44MOL0     H 5923   1.395   5.985   7.863  3.1573  0.3732 -3.0287
   44MOL0     H 5924   0.586   7.228   6.541  0.7754 -2.0007  0.1329
   44MOL0     H 5925   0.357   7.190   6.460  1.8294  2.8472  0.7560
   44MOL0     H 5926  -0.163   7.095   6.776  0.7600  1.6860 -0.2213
   44MOL0     H 5927  -0.376   7.119   6.696  0.7634  1.1463  1.5550
   44MOL0     H 5928  -0.445   7.108   6.257 -0.9514 -0.9373  0.5584
   44MOL0     H 5929  -0.440   7.292   6.300 -2.1036  1.1495  3.3921
   44MOL0     H 5930  -0.635   7.250   6.168  1.6839  0.8394  0.1892
   44MOL0     H 5931  -0.656   7.303   6.325  1.1872  0.1071 -0.4450
   44MOL0     H 5932  -0.719   7.071   6.390  0.0999  1.9190  1.5683
   44MOL0     H 5933  -0.676   7.017   6.225  1.3290 -1.5482  3.3572
   44MOL0     H 5934  -0.860   7.131   6.128  1.5550 -3.0122 -0.0868
   44MOL0     H 5935  -0.909   7.021   6.244  1.2575 -1.0451 -1.4654
   44MOL0     H 5936  -1.007   7.365   6.466 -0.3367 -0.5513  0.2775
   44MOL0     H 5937  -0.234   7.140   6.292  1.2319 -0.1620 -0.5187
   44MOL0     H 5938  -0.015   7.132   6.236 -1.2897  1.0719  0.4332
   44MOL0     H 5939   0.106   7.156   6.370 -1.6567  2.4976  0.9531
   44MOL0     H 5940   0.053   6.999   6.339 -3.0400 -0.5481  3.1922
   45MOL0     O 5941   4.620  10.327   8.820  0.5690 -0.1684 -0.4122
   45MOL0     C 5942   4.737  10.291   8.816  0.1754  0.3594 -0.0033
   45MOL0     O 5943   4.823  10.268   8.923  0.2580 -1.0510 -0.1352
   45MOL0     C 5944   4.788  10.306   9.054 -0.4802  0.1684  1.0158
   45MOL0     C 5945   4.791  10.440   9.097 -0.4195  0.7696  0.1907
   45MOL0     C 5946   4.747  10.469   9.232 -0.0279  0.0510  0.0728
   45MOL0     C 5947   4.712  10.364   9.315 -0.8578  0.4119  0.3063
   45MOL0     O 5948   4.666  10.383   9.444  0.5621  0.2181 -1.1583
   45MOL0     C 5949   4.657  10.510   9.520 -0.7999  0.0450 -0.9630
   45MOL0     C 5950   4.562  10.517   9.633 -0.6263  0.5025  0.4736
   45MOL0     C 5951   4.420  10.499   9.579  0.4619 -0.4158 -0.9306
   45MOL0     C 5952   4.324  10.453   9.697  0.5440 -0.7175  0.0576
   45MOL0     C 5953   4.308  10.562   9.799 -0.3994  0.2153  0.1477
   45MOL0     C 5954   4.203  10.523   9.907 -0.3587 -0.0997 -0.1530
   45MOL0     C 5955   4.162  10.645   9.976 -1.1168 -0.4300  0.4686
   45MOL0     C 5956   4.095  10.626  10.114  0.6295  0.8312 -0.0611
   45MOL0     N 5957   4.171  10.554  10.210 -0.7693 -0.0346  0.3080
   45MOL0     C 5958   4.295  10.596  10.245  0.6696 -1.2801  0.4257
   45MOL0     C 5959   4.330  10.510  10.340 -0.4601 -0.3069  0.1849
   45MOL0     C 5960   4.465  10.521  10.418 -0.3301  0.4515  0.6623
   45MOL0     C 5961   4.441  10.493  10.558  0.4591 -0.7510 -0.4754
   45MOL0     C 5962   4.563  10.489  10.641 -0.3985  0.6275  0.1735
   45MOL0     C 5963   4.509  10.505  10.788  0.2487 -0.4165  0.0029
   45MOL0     O 5964   4.474  10.647  10.811  0.5983 -0.5652  0.0698
   45MOL0     C 5965   4.373  10.671  10.905 -0.3479 -0.1180 -0.1363
   45MOL0     C 5966   4.318  10.802  10.915  0.1119  0.5117  0.3096
   45MOL0     C 5967   4.215  10.830  11.001 -0.3612 -0.1945  0.0851
   45MOL0     C 5968   4.151  10.726  11.073  0.7881  0.6521  1.0894
   45MOL0     C 5969   4.028  10.757  11.160 -0.4688  0.2312 -0.2710
   45MOL0     O 5970   3.966  10.642  11.228 -0.7212  0.4955  0.1846
   45MOL0     C 5971   3.861  10.658  11.314  0.2430  1.2510 -0.6498
   45MOL0     C 5972   3.874  10.669  11.449  0.6900 -1.3615 -0.0435
   45MOL0     C 5973   3.757  10.696  11.521  0.6105 -0.3314  0.1456
   45MOL0     C 5974   3.631  10.712  11.462 -0.4362  0.2177 -0.2469
   45MOL0     O 5975   3.521  10.710  11.545  0.3468 -0.0117  0.0716
   45MOL0     C 5976   3.388  10.756  11.491  0.3586 -0.2675 -0.6222
   45MOL0     C 5977   3.297  10.633  11.492  0.5226 -0.3336  0.6431
   45MOL0     C 5978   3.140  10.665  11.468 -0.1770 -0.0996  0.3523
   45MOL0     C 5979   3.082  10.676  11.610  0.8363 -0.2238  0.3117
   45MOL0     C 5980   2.928  10.681  11.605 -0.8178 -0.8427 -0.3158
   45MOL0     C 5981   2.861  10.551  11.579  0.4842  0.4091  0.0021
   45MOL0     C 5982   2.703  10.558  11.581 -0.0796  1.2959  0.5384
   45MOL0     C 5983   2.657  10.608  11.449 -0.0375 -0.0559  0.1034
   45MOL0    Cl 5984   2.474  10.621  11.446 -0.0329  0.2638  0.1264
   45MOL0     C 5985   3.625  10.694  11.323  0.5065  0.0577  0.5902
   45MOL0     C 5986   3.739  10.657  11.254 -0.4381 -0.0514  0.3360
   45MOL0     O 5987   3.978  10.869  11.167 -0.2359  0.6445  0.0156
   45MOL0     C 5988   4.206  10.601  11.068  0.3179  0.6709 -0.2709
   45MOL0     C 5989   4.317  10.569  10.981 -0.5147 -0.6443  0.0625
   45MOL0     N 5990   4.239  10.404  10.333  0.1818  0.4128 -0.5744
   45MOL0     N 5991   4.145  10.431  10.253  0.3617  0.2743 -0.3596
   45MOL0     C 5992   4.723  10.235   9.274  0.2809 -0.2729 -0.0049
   45MOL0     C 5993   4.752  10.204   9.147  0.2941 -0.5403  0.9769
   45MOL0     C 5994   4.810  10.261   8.687 -0.2405 -0.1771 -1.4219
   45MOL0     C 5995   4.948  10.268   8.682 -0.3644 -0.4980  0.4522
   45MOL0     C 5996   5.014  10.260   8.559 -0.3818 -0.3513 -1.4183
   45MOL0     C 5997   4.942  10.251   8.439 -0.3671  1.1541  0.2504
   45MOL0     O 5998   5.000  10.259   8.312 -0.9271 -0.0599 -0.3248
   45MOL0     C 5999   5.140  10.229   8.309  0.5436  0.6858  0.0526
   45MOL0     C 6000   5.190  10.196   8.165  0.3977 -0.6336 -0.1792
   45MOL0     C 6001   5.336  10.231   8.122  0.0285 -0.1470 -0.2719
   45MOL0     C 6002   5.361  10.384   8.094 -1.2991  0.1656  0.3622
   45MOL0     C 6003   5.507  10.416   8.071  0.4290 -0.0475 -0.3511
   45MOL0     C 6004   5.626  10.453   8.058  0.6600  0.2402  0.0563
   45MOL0     C 6005   4.804  10.236   8.447 -0.1109  0.0262 -0.0860
   45MOL0     C 6006   4.738  10.233   8.572  0.7468 -0.6164  0.4927
   45MOL0     C 6007   4.594  10.200   8.559  0.2164  0.1692 -0.5626
   45MOL0     H 6008   4.812  10.522   9.030 -3.1332  0.3973 -1.2585
   45MOL0     H 6009   4.728  10.570   9.268 -0.2701  0.0942 -0.1718
   45MOL0     H 6010   4.755  10.517   9.569 -1.0061  2.9984 -0.7942
   45MOL0     H 6011   4.660  10.609   9.474 -0.5059  0.7110  0.4207
   45MOL0     H 6012   4.573  10.620   9.668 -0.3468  1.6840 -2.6941
   45MOL0     H 6013   4.587  10.442   9.708 -1.7301  0.6881  1.0449
   45MOL0     H 6014   4.412  10.417   9.507  0.5015 -1.5053  0.2625
   45MOL0     H 6015   4.383  10.595   9.543 -1.1566 -1.0235 -0.9354
   45MOL0     H 6016   4.225  10.449   9.650  1.4104 -4.4812 -1.8027
   45MOL0     H 6017   4.357  10.353   9.726  1.4958 -0.8386 -1.3784
   45MOL0     H 6018   4.404  10.581   9.847  0.7927  1.3684 -2.4920
   45MOL0     H 6019   4.281  10.655   9.748 -0.5159 -0.8875 -1.8810
   45MOL0     H 6020   4.113  10.469   9.875  0.7138 -0.9743 -1.8777
   45MOL0     H 6021   4.268  10.470   9.977  1.2519 -0.2621 -1.6936
   45MOL0     H 6022   4.094  10.696   9.908 -2.4257  0.0768  2.0971
   45MOL0     H 6023   4.247  10.707  10.005 -0.7751 -1.8074  2.6581
   45MOL0     H 6024   4.074  10.725  10.156 -0.5194  0.4969  0.1730
   45MOL0     H 6025   3.993  10.587  10.110  0.8821  0.1418  0.1555
   45MOL0     H 6026   4.346  10.690  10.229 -0.3042  0.2929  4.9782
   45MOL0     H 6027   4.527  10.443  10.372  0.0291  0.6827  0.7548
   45MOL0     H 6028   4.514  10.616  10.395  0.5013 -0.4807 -1.9010
   45MOL0     H 6029   4.367  10.567  10.589  0.6731 -1.3243  1.5777
   45MOL0     H 6030   4.381  10.402  10.569 -1.1211  0.2140 -0.8115
   45MOL0     H 6031   4.626  10.575  10.618  2.3683 -1.0983  0.8153
   45MOL0     H 6032   4.615  10.393  10.633  0.7356  1.0790  1.6184
   45MOL0     H 6033   4.580  10.474  10.865 -1.5655 -1.0508  1.4978
   45MOL0     H 6034   4.415  10.450  10.795 -1.3758  2.3168  1.1885
   45MOL0     H 6035   4.369  10.878  10.856  1.3497 -0.5477 -0.0145
   45MOL0     H 6036   4.183  10.933  10.996 -0.2761 -0.2354 -2.4541
   45MOL0     H 6037   3.970  10.666  11.501  1.3721  2.3050 -0.8239
   45MOL0     H 6038   3.757  10.699  11.630 -0.1521 -1.7034  0.2181
   45MOL0     H 6039   3.334  10.824  11.558 -0.4168 -4.9764  4.2267
   45MOL0     H 6040   3.398  10.810  11.396  0.0583  0.7824 -0.0725
   45MOL0     H 6041   3.329  10.557  11.420 -0.2742  0.0106 -0.0826
   45MOL0     H 6042   3.313  10.593  11.593  1.4709 -2.5993 -0.3556
   45MOL0     H 6043   3.132  10.759  11.413  1.2730 -0.8319 -1.2083
   45MOL0     H 6044   3.102  10.582  11.407 -0.3503  0.3312 -0.1259
   45MOL0     H 6045   3.113  10.769  11.658 -0.1821 -0.5070  1.6071
   45MOL0     H 6046   3.120  10.598  11.676  1.9308 -1.4734 -1.7040
   45MOL0     H 6047   2.890  10.745  11.525  1.4367  0.1937 -0.6428
   45MOL0     H 6048   2.891  10.722  11.700 -1.0367  1.1457 -1.2051
   45MOL0     H 6049   2.892  10.501  11.486  1.2305  1.9978 -0.6264
   45MOL0     H 6050   2.895  10.484  11.659 -0.7287 -0.8932 -0.5130
   45MOL0     H 6051   2.670  10.628  11.658  0.9678 -1.6496  3.9600
   45MOL0     H 6052   2.666  10.457  11.601 -0.1220  1.3785  0.8863
   45MOL0     H 6053   2.705  10.704  11.431 -0.9910  0.9670  2.5060
   45MOL0     H 6054   2.694  10.537  11.374  0.9428  0.0492  0.4628
   45MOL0     H 6055   3.525  10.682  11.283  0.4152 -0.6698  1.0215
   45MOL0     H 6056   3.735  10.649  11.146 -1.8275 -0.3295  0.3891
   45MOL0     H 6057   4.161  10.518  11.121  0.1322  3.8789  5.3469
   45MOL0     H 6058   4.339  10.463  10.974  1.0772 -0.3243 -0.1311
   45MOL0     H 6059   4.671  10.154   9.324 -1.8293  0.9138 -0.1638
   45MOL0     H 6060   4.744  10.104   9.107  0.0232 -0.1296 -0.0431
   45MOL0     H 6061   5.020  10.269   8.764  1.7643 -2.3693 -1.2650
   45MOL0     H 6062   5.119  10.281   8.574 -0.1324 -3.5298  3.2201
   45MOL0     H 6063   5.160  10.142   8.372  1.8230  2.4965  2.3085
   45MOL0     H 6064   5.198  10.310   8.354  1.1213  0.7865 -0.8677
   45MOL0     H 6065   5.123  10.248   8.095 -1.8261 -2.1761  0.6575
   45MOL0     H 6066   5.180  10.090   8.140  3.2394 -1.0582  0.1580
   45MOL0     H 6067   5.366  10.172   8.034 -3.6581 -0.1071 -1.7193
   45MOL0     H 6068   5.400  10.202   8.205 -0.0239  1.3109  0.3046
   45MOL0     H 6069   5.292  10.423   8.018  0.3415 -2.2743 -2.6154
   45MOL0     H 6070   5.350  10.446   8.183 -1.9270 -0.9806  1.1134
   45MOL0     H 6071   5.728  10.483   8.039  0.1837  3.5232  1.9666
   45MOL0     H 6072   4.748  10.243   8.355  2.4233 -1.7763 -1.9151
   45MOL0     H 6073   4.557  10.142   8.645 -1.8082 -0.1163 -1.5715
   45MOL0     H 6074   4.530  10.289   8.554 -0.5031 -0.3987 -4.1755
   45MOL0     H 6075   4.573  10.135   8.474 -0.4420  0.3594 -0.5478
   46MOL0     O 6076   0.533   2.952  10.611 -0.0805  0.1444  0.4895
   46MOL0     C 6077   0.595   2.956  10.511 -0.2082 -0.0205  0.6017
   46MOL0     O 6078   0.570   2.881  10.397  0.1658  0.9971  0.5162
   46MOL0     C 6079   0.469   2.785  10.389  0.4099 -0.1022  0.0137
   46MOL0     C 6080   0.454   2.675  10.474 -0.4093 -1.1598  0.5835
   46MOL0     C 6081   0.362   2.577  10.466  0.5297 -0.0958 -0.7051
   46MOL0     C 6082   0.271   2.583  10.363 -0.4454  0.6387  0.0412
   46MOL0     O 6083   0.184   2.480  10.347  0.0508  0.1045  0.1576
   46MOL0     C 6084   0.046   2.531  10.367 -0.5787  0.2805  0.1229
   46MOL0     C 6085  -0.026   2.432  10.457 -0.0580 -0.0575  0.6142
   46MOL0     C 6086  -0.175   2.485  10.469 -0.0326  0.9201  0.6925
   46MOL0     C 6087  -0.267   2.399  10.560 -0.2166  0.4218 -0.2377
   46MOL0     C 6088  -0.386   2.487  10.610 -0.6831  0.6221  1.0094
   46MOL0     C 6089  -0.461   2.559  10.508 -0.0772  0.4051  0.1743
   46MOL0     C 6090  -0.567   2.650  10.573  0.4146  0.5901 -1.0330
   46MOL0     C 6091  -0.659   2.723  10.470 -0.8023  0.2285 -0.6398
   46MOL0     N 6092  -0.748   2.639  10.374  0.0375  0.8096 -0.0055
   46MOL0     C 6093  -0.732   2.613  10.240 -0.1593  0.0108 -1.0228
   46MOL0     C 6094  -0.841   2.546  10.205 -0.0940  0.6200  0.9492
   46MOL0     C 6095  -0.854   2.489  10.069  0.7566 -0.5129 -0.0473
   46MOL0     C 6096  -0.883   2.598   9.972 -0.6304  0.4818  1.4327
   46MOL0     C 6097  -0.768   2.684   9.930  0.8436 -0.6626 -0.2003
   46MOL0     C 6098  -0.797   2.758   9.790  0.3059  0.0483 -0.4738
   46MOL0     O 6099  -0.866   2.884   9.804  0.4417  0.2259  0.5621
   46MOL0     C 6100  -0.870   2.966   9.700  0.0340  0.1022  0.0808
   46MOL0     C 6101  -0.892   3.102   9.726  0.1565  0.6903  0.0266
   46MOL0     C 6102  -0.919   3.198   9.633  0.4196  0.0660  0.3282
   46MOL0     C 6103  -0.893   3.176   9.502 -0.5544 -0.5372  0.7877
   46MOL0     C 6104  -0.881   3.281   9.407  0.1476 -0.7491  0.2532
   46MOL0     O 6105  -0.893   3.410   9.453 -0.5289 -0.3889 -0.1034
   46MOL0     C 6106  -0.864   3.492   9.352 -0.2175 -0.6335  0.5732
   46MOL0     C 6107  -0.966   3.567   9.298 -0.3144  0.3789  0.5016
   46MOL0     C 6108  -0.958   3.660   9.187 -0.3316 -0.0765 -0.0377
   46MOL0     C 6109  -0.824   3.688   9.147 -0.5342  0.5877  0.3838
   46MOL0     O 6110  -0.798   3.770   9.039  0.3489  0.5864 -0.1954
   46MOL0     C 6111  -0.894   3.866   8.987 -0.3035 -0.2712 -0.1403
   46MOL0     C 6112  -0.842   3.935   8.857  0.1175 -0.4108 -0.2384
   46MOL0     C 6113  -0.808   3.833   8.747  0.0143 -0.4180 -0.0740
   46MOL0     C 6114  -0.656   3.811   8.735 -0.6753 -0.0371  0.1012
   46MOL0     C 6115  -0.573   3.872   8.616  0.7700 -0.4832  0.5592
   46MOL0     C 6116  -0.541   4.019   8.645  0.1353  0.3053 -0.4960
   46MOL0     C 6117  -0.455   4.093   8.542  0.2730  0.0078  1.0174
   46MOL0     C 6118  -0.415   4.246   8.575 -0.4373  1.1139 -0.1468
   46MOL0    Cl 6119  -0.559   4.338   8.618  0.0133  0.1987  0.3417
   46MOL0     C 6120  -0.710   3.617   9.200  0.3992 -0.1352  1.4299
   46MOL0     C 6121  -0.734   3.528   9.298  0.8926  0.7023  0.3908
   46MOL0     O 6122  -0.850   3.250   9.292  0.2472 -0.3496  0.2242
   46MOL0     C 6123  -0.854   3.043   9.464  0.1693  0.6333 -0.4798
   46MOL0     C 6124  -0.852   2.937   9.562 -0.8897  0.1970  0.1902
   46MOL0     N 6125  -0.917   2.522  10.318 -0.3351  0.2583  0.1519
   46MOL0     N 6126  -0.858   2.581  10.426 -0.4879  0.5157  0.2261
   46MOL0     C 6127   0.276   2.691  10.269 -0.3569 -1.0080 -0.6233
   46MOL0     C 6128   0.379   2.785  10.275 -0.0001  0.2597  0.9880
   46MOL0     C 6129   0.705   3.059  10.501  1.0601 -0.2428  0.1655
   46MOL0     C 6130   0.774   3.069  10.380  0.7256  0.5160  0.4825
   46MOL0     C 6131   0.874   3.163  10.354  0.7049 -0.1631  0.2250
   46MOL0     C 6132   0.911   3.240  10.461 -0.2426 -1.3606 -0.2486
   46MOL0     O 6133   1.015   3.322  10.425 -0.0666  1.0767 -0.6724
   46MOL0     C 6134   1.050   3.429  10.505  0.9543  0.2451 -0.1358
   46MOL0     C 6135   0.941   3.540  10.487  0.4575  0.5968  0.0605
   46MOL0     C 6136   0.972   3.663  10.566 -0.7208  0.3025 -0.5179
   46MOL0     C 6137   0.924   3.674  10.711  0.4147 -0.0254  0.5252
   46MOL0     C 6138   0.953   3.560  10.799  0.4065  1.1835 -0.3975
   46MOL0     C 6139   0.986   3.463  10.862  0.1514 -0.2378 -1.0075
   46MOL0     C 6140   0.842   3.246  10.580  0.1406  0.9272  0.2849
   46MOL0     C 6141   0.744   3.147  10.601 -0.7687  0.1093  0.0065
   46MOL0     C 6142   0.678   3.171  10.734  0.3726  0.3111 -1.1182
   46MOL0     H 6143   0.527   2.672  10.554 -0.6603  0.1798  0.8956
   46MOL0     H 6144   0.355   2.503  10.545  1.4134  1.8144  1.2830
   46MOL0     H 6145   0.049   2.632  10.409  0.4956 -0.0689  0.9565
   46MOL0     H 6146  -0.006   2.537  10.271  1.4845  2.2948 -0.9804
   46MOL0     H 6147   0.017   2.411  10.555  0.5458 -0.7777  0.2076
   46MOL0     H 6148  -0.031   2.335  10.405 -2.2649  1.2712 -1.8771
   46MOL0     H 6149  -0.227   2.494  10.373  3.7828  0.9475 -1.5662
   46MOL0     H 6150  -0.181   2.582  10.518  3.3085  0.0954  3.1114
   46MOL0     H 6151  -0.303   2.318  10.496  2.8427  0.6608 -2.4626
   46MOL0     H 6152  -0.209   2.362  10.645 -0.4890 -2.9364 -1.3614
   46MOL0     H 6153  -0.456   2.423  10.664  0.7504 -1.6041  0.3382
   46MOL0     H 6154  -0.353   2.564  10.682 -1.0103  2.0690 -0.3267
   46MOL0     H 6155  -0.400   2.632  10.456 -2.6037  2.6000  0.0541
   46MOL0     H 6156  -0.505   2.486  10.439 -2.7234  1.6702  0.3682
   46MOL0     H 6157  -0.511   2.720  10.636  0.2983 -0.4744  0.3023
   46MOL0     H 6158  -0.628   2.587  10.638  0.0950  0.2678 -1.6382
   46MOL0     H 6159  -0.727   2.787  10.526  0.3060  0.1429  0.8824
   46MOL0     H 6160  -0.599   2.795  10.414  2.3960  1.5738  3.9273
   46MOL0     H 6161  -0.648   2.640  10.177  1.7719 -0.0734  1.3907
   46MOL0     H 6162  -0.762   2.438  10.039  0.3909 -0.2007 -1.8123
   46MOL0     H 6163  -0.927   2.409  10.054  0.3896 -0.6829  2.2558
   46MOL0     H 6164  -0.927   2.544   9.888  1.7907 -0.3697  0.6093
   46MOL0     H 6165  -0.949   2.665  10.028  1.2447 -0.1359  4.6681
   46MOL0     H 6166  -0.681   2.619   9.918  1.4226  0.5763 -4.8643
   46MOL0     H 6167  -0.746   2.763  10.003 -1.6752  2.1163 -2.1796
   46MOL0     H 6168  -0.843   2.687   9.721 -1.3991  2.0611 -1.5526
   46MOL0     H 6169  -0.698   2.771   9.745  1.6391 -1.3840  1.8702
   46MOL0     H 6170  -0.893   3.129   9.831  0.2211  0.9121 -0.0289
   46MOL0     H 6171  -0.948   3.300   9.654 -1.2318 -0.5188  1.0339
   46MOL0     H 6172  -1.068   3.559   9.333 -0.8549 -1.0472 -1.2735
   46MOL0     H 6173  -1.042   3.714   9.145  0.5813  2.1854  0.8489
   46MOL0     H 6174  -0.992   3.824   8.961  0.2540 -0.6907 -1.6580
   46MOL0     H 6175  -0.914   3.939   9.066  1.8682 -0.3099  0.4935
   46MOL0     H 6176  -0.906   4.013   8.815  0.9217  0.5291  0.2202
   46MOL0     H 6177  -0.756   3.992   8.894 -0.1925 -0.7600  1.0496
   46MOL0     H 6178  -0.860   3.740   8.773 -1.0623 -0.2220 -1.3858
   46MOL0     H 6179  -0.854   3.873   8.656  1.6584  0.5557 -0.5273
   46MOL0     H 6180  -0.640   3.703   8.741 -0.0533  0.1162  1.4553
   46MOL0     H 6181  -0.610   3.849   8.826  0.6644  1.9729 -1.3280
   46MOL0     H 6182  -0.641   3.869   8.529  0.0358 -1.1153  1.1406
   46MOL0     H 6183  -0.478   3.821   8.601  3.6702  4.4601 -0.0536
   46MOL0     H 6184  -0.636   4.073   8.646 -0.9020 -1.4341 -0.1781
   46MOL0     H 6185  -0.485   4.027   8.738  0.9679  1.1391 -1.0560
   46MOL0     H 6186  -0.516   4.085   8.452 -0.0538 -2.8105  1.3988
   46MOL0     H 6187  -0.362   4.037   8.528  0.2057 -0.2427  1.5183
   46MOL0     H 6188  -0.341   4.230   8.654 -1.1435  0.7803  0.4581
   46MOL0     H 6189  -0.367   4.290   8.487  0.1830  1.0236  0.1445
   46MOL0     H 6190  -0.609   3.627   9.161  0.9626 -2.7221  2.0142
   46MOL0     H 6191  -0.647   3.487   9.347  0.4302  1.5010  1.9677
   46MOL0     H 6192  -0.826   3.023   9.361  0.1718 -2.5273  0.0284
   46MOL0     H 6193  -0.812   2.843   9.523 -0.2265  1.6918 -3.1144
   46MOL0     H 6194   0.192   2.698  10.201 -1.3950 -3.5304  0.2467
   46MOL0     H 6195   0.407   2.853  10.195 -0.0913 -0.6751  0.1582
   46MOL0     H 6196   0.737   3.008  10.298 -1.6215  0.1796  1.6967
   46MOL0     H 6197   0.929   3.168  10.260  1.5231  3.7985  0.7252
   46MOL0     H 6198   1.148   3.469  10.476  1.6619  0.6899  2.5427
   46MOL0     H 6199   1.055   3.400  10.610  1.9375 -2.6260 -0.8792
   46MOL0     H 6200   0.843   3.506  10.521  0.5694  3.5629  4.0180
   46MOL0     H 6201   0.944   3.567  10.381 -1.3365 -0.7506 -0.3867
   46MOL0     H 6202   0.939   3.754  10.516 -0.0341  2.5769  2.8650
   46MOL0     H 6203   1.081   3.673  10.565 -0.8753  2.2466 -1.3419
   46MOL0     H 6204   0.965   3.766  10.754 -0.5808 -0.1709  1.8395
   46MOL0     H 6205   0.816   3.695  10.709  0.3601 -0.3073 -0.6056
   46MOL0     H 6206   1.026   3.388  10.928  0.5152  1.0172  0.2623
   46MOL0     H 6207   0.860   3.322  10.655  0.2030  1.7375 -0.5286
   46MOL0     H 6208   0.667   3.075  10.786  0.7463  0.9351  0.1502
   46MOL0     H 6209   0.745   3.232  10.795  0.4628  1.1959 -2.0893
   46MOL0     H 6210   0.577   3.213  10.738 -0.8532 -2.4218  2.2766
   47MOL0     O 6211   1.505   5.232   7.482  0.2666  0.0197 -0.2369
   47MOL0     C 6212   1.534   5.123   7.535 -0.4933  0.2078  0.8888
   47MOL0     O 6213   1.471   5.063   7.638  0.1326 -0.4027  0.2150
   47MOL0     C 6214   1.372   5.130   7.697  0.3220 -0.1568 -1.0196
   47MOL0     C 6215   1.398   5.244   7.780 -0.0234  0.8606  0.3035
   47MOL0     C 6216   1.290   5.309   7.835  0.2834 -0.1524 -1.0078
   47MOL0     C 6217   1.155   5.266   7.822 -0.3522 -0.4719 -0.8535
   47MOL0     O 6218   1.045   5.336   7.881 -0.8332  0.3643 -0.0495
   47MOL0     C 6219   1.053   5.483   7.893 -0.5032 -0.7014 -0.2145
   47MOL0     C 6220   1.080   5.511   8.043  0.0507 -0.5293 -0.5607
   47MOL0     C 6221   1.119   5.663   8.051 -0.2711  0.2683  0.9356
   47MOL0     C 6222   1.156   5.709   8.196  0.5073 -1.1093 -1.3547
   47MOL0     C 6223   1.128   5.857   8.226  0.0662  0.6047 -0.7831
   47MOL0     C 6224   1.172   5.898   8.369 -0.5878 -0.0118  0.0226
   47MOL0     C 6225   1.138   6.054   8.399 -0.3531  0.1405 -0.2948
   47MOL0     C 6226   1.157   6.092   8.551 -0.6009  0.4598 -0.0955
   47MOL0     N 6227   1.133   6.232   8.565 -0.4937 -0.2582 -0.0251
   47MOL0     C 6228   1.008   6.285   8.600 -0.0451  0.1847 -0.5313
   47MOL0     C 6229   1.030   6.415   8.615 -0.9436  0.6161  1.0960
   47MOL0     C 6230   0.927   6.530   8.646 -1.4186 -0.3019  0.1018
   47MOL0     C 6231   0.966   6.675   8.598 -0.0409 -0.6089  0.1639
   47MOL0     C 6232   0.844   6.775   8.618 -0.0143 -1.0972 -0.5138
   47MOL0     C 6233   0.837   6.833   8.766  1.5037 -1.3055  0.1720
   47MOL0     O 6234   0.737   6.947   8.768  0.2523  0.8296  0.1761
   47MOL0     C 6235   0.617   6.928   8.703  0.8661 -0.4389 -0.4854
   47MOL0     C 6236   0.535   6.819   8.739 -0.0689 -0.9092  0.2705
   47MOL0     C 6237   0.409   6.803   8.681 -0.1136 -0.4813 -0.3768
   47MOL0     C 6238   0.360   6.901   8.588 -0.3143 -0.1751 -0.0942
   47MOL0     C 6239   0.218   6.891   8.539 -0.1481  0.2355  0.0745
   47MOL0     O 6240   0.156   6.771   8.535  0.5926  0.4218 -0.5412
   47MOL0     C 6241   0.016   6.775   8.540 -1.0113  0.7788 -0.6377
   47MOL0     C 6242  -0.040   6.699   8.439  0.3095 -0.6801 -1.1347
   47MOL0     C 6243  -0.178   6.677   8.448 -0.6528  0.1281 -0.7597
   47MOL0     C 6244  -0.256   6.715   8.548  0.4842 -0.6570  0.5553
   47MOL0     O 6245  -0.388   6.666   8.550 -0.3794  0.8590  0.0732
   47MOL0     C 6246  -0.482   6.708   8.647 -0.4741 -0.2833 -0.2657
   47MOL0     C 6247  -0.615   6.645   8.604 -0.3395 -0.5733  0.0317
   47MOL0     C 6248  -0.718   6.679   8.709  0.7428 -0.8210 -1.0542
   47MOL0     C 6249  -0.826   6.782   8.665  0.1339  0.3369  0.3401
   47MOL0     C 6250  -0.924   6.825   8.772  0.6352 -0.0771  0.0420
   47MOL0     C 6251  -1.027   6.936   8.721 -0.5264  0.1302  0.1242
   47MOL0     C 6252  -1.152   6.945   8.804 -0.5839  0.3663  0.8678
   47MOL0     C 6253  -1.271   6.882   8.740  0.8822  0.5397 -0.3206
   47MOL0    Cl 6254  -1.277   6.713   8.782 -0.4161  0.3282 -0.1184
   47MOL0     C 6255  -0.194   6.806   8.639 -0.2927  0.4555 -0.0725
   47MOL0     C 6256  -0.061   6.843   8.633  0.0281  0.4583  0.4881
   47MOL0     O 6257   0.171   6.998   8.503 -0.1904  0.6443 -0.0522
   47MOL0     C 6258   0.440   7.017   8.573  0.1232  0.3324  0.8011
   47MOL0     C 6259   0.568   7.035   8.624 -0.5254  0.6865 -0.6668
   47MOL0     N 6260   1.168   6.440   8.605 -0.2789  0.3997 -0.1184
   47MOL0     N 6261   1.228   6.327   8.574 -0.0168 -0.5637  0.1808
   47MOL0     C 6262   1.137   5.150   7.745 -0.0297  0.6853  0.1643
   47MOL0     C 6263   1.243   5.085   7.689 -0.7419  0.5639  0.6310
   47MOL0     C 6264   1.651   5.054   7.480 -0.5040  0.1700 -0.1412
   47MOL0     C 6265   1.689   4.940   7.551 -0.0839  0.8410  0.8404
   47MOL0     C 6266   1.790   4.854   7.509 -1.0393  0.7048  0.0937
   47MOL0     C 6267   1.838   4.877   7.384  1.0685  0.7447  0.0845
   47MOL0     O 6268   1.928   4.781   7.339 -0.3365  0.2514  0.4278
   47MOL0     C 6269   1.955   4.765   7.202 -0.0690 -0.2257  0.1233
   47MOL0     C 6270   1.828   4.734   7.111  0.3172 -0.3215 -0.0144
   47MOL0     C 6271   1.869   4.696   6.971 -0.3689  0.5801  0.0661
   47MOL0     C 6272   1.738   4.674   6.887 -0.0679 -0.3957  0.1627
   47MOL0     C 6273   1.775   4.697   6.745 -0.0659  0.6287 -0.3453
   47MOL0     C 6274   1.803   4.720   6.633  0.5732 -0.8527  0.7246
   47MOL0     C 6275   1.799   4.990   7.303  0.3918 -0.5528 -0.4677
   47MOL0     C 6276   1.709   5.087   7.355 -0.9502  0.2574  0.8416
   47MOL0     C 6277   1.681   5.207   7.272  0.6933 -0.0460  0.5750
   47MOL0     H 6278   1.499   5.284   7.788 -0.9844  3.7364 -0.5519
   47MOL0     H 6279   1.307   5.391   7.905 -0.2505 -0.8860  0.0101
   47MOL0     H 6280   1.128   5.534   7.832  0.4057  0.5413  1.8259
   47MOL0     H 6281   0.954   5.519   7.866 -1.3698 -0.5129  2.8214
   47MOL0     H 6282   1.162   5.446   8.078  0.6117 -0.3212 -1.4652
   47MOL0     H 6283   0.997   5.499   8.113  2.4321  4.9744  4.0503
   47MOL0     H 6284   1.043   5.730   8.009  3.3986  2.8837 -2.3198
   47MOL0     H 6285   1.204   5.676   7.983 -2.1284  1.3462 -1.3285
   47MOL0     H 6286   1.092   5.648   8.259 -0.1628 -0.6873 -1.6092
   47MOL0     H 6287   1.260   5.688   8.223  1.0682  2.9141  0.4607
   47MOL0     H 6288   1.192   5.920   8.164  0.1868  1.9421  0.6361
   47MOL0     H 6289   1.027   5.893   8.204 -0.5487  0.1275  1.0630
   47MOL0     H 6290   1.129   5.832   8.445  1.6741  0.3844  1.7571
   47MOL0     H 6291   1.281   5.896   8.377 -0.6251  0.2094  0.5836
   47MOL0     H 6292   1.037   6.087   8.374  0.5185  1.7871 -1.8774
   47MOL0     H 6293   1.210   6.115   8.344 -0.9428  0.9221 -0.2177
   47MOL0     H 6294   1.095   6.041   8.626 -0.7326 -0.9251 -1.1101
   47MOL0     H 6295   1.262   6.066   8.568 -1.3293 -1.9319  1.2242
   47MOL0     H 6296   0.915   6.230   8.612  0.7663 -1.0344  0.4420
   47MOL0     H 6297   0.839   6.501   8.588 -1.8417  1.4764 -0.2122
   47MOL0     H 6298   0.895   6.534   8.750 -0.5000 -1.2054  0.4371
   47MOL0     H 6299   1.049   6.716   8.655 -2.2022  1.0646  2.3087
   47MOL0     H 6300   0.989   6.666   8.491  1.0629  0.0160  0.3360
   47MOL0     H 6301   0.751   6.745   8.569 -0.3746  0.5447 -0.8721
   47MOL0     H 6302   0.867   6.852   8.544  1.2886 -0.5840  0.3888
   47MOL0     H 6303   0.931   6.881   8.796 -0.7746  2.6380  1.7894
   47MOL0     H 6304   0.811   6.758   8.841  0.4488 -1.3484 -0.2235
   47MOL0     H 6305   0.564   6.753   8.821  0.8890  2.7619  3.2014
   47MOL0     H 6306   0.345   6.722   8.714  0.4299  0.0294  2.1229
   47MOL0     H 6307   0.020   6.651   8.363  1.7669  0.8755 -1.0149
   47MOL0     H 6308  -0.223   6.612   8.373 -0.9789 -0.0384 -0.4242
   47MOL0     H 6309  -0.448   6.668   8.742  1.1867  0.7870 -0.3661
   47MOL0     H 6310  -0.502   6.816   8.650 -0.1285 -0.2482  1.5775
   47MOL0     H 6311  -0.640   6.688   8.507 -1.6206  2.6421  1.6485
   47MOL0     H 6312  -0.592   6.539   8.589  1.6955  0.0968 -2.3415
   47MOL0     H 6313  -0.779   6.591   8.734 -1.9093  0.5529 -2.2908
   47MOL0     H 6314  -0.661   6.704   8.799  3.0793  0.2608 -2.7274
   47MOL0     H 6315  -0.879   6.741   8.579  0.3588 -2.2867  1.3664
   47MOL0     H 6316  -0.766   6.871   8.642  0.0014 -0.0642 -1.7621
   47MOL0     H 6317  -0.882   6.868   8.864 -2.6012 -1.5561  2.4443
   47MOL0     H 6318  -0.983   6.740   8.808  1.5859  0.8637  4.5128
   47MOL0     H 6319  -0.974   7.031   8.731 -2.9118  1.6423 -0.7747
   47MOL0     H 6320  -1.059   6.929   8.616  1.6799  2.7542 -0.8356
   47MOL0     H 6321  -1.183   7.049   8.819 -0.4751  0.4196  0.7265
   47MOL0     H 6322  -1.133   6.904   8.904 -2.5703  0.1174  1.1765
   47MOL0     H 6323  -1.362   6.923   8.784  1.1812 -0.8956  1.7386
   47MOL0     H 6324  -1.282   6.907   8.634  0.3839  0.5054 -0.2785
   47MOL0     H 6325  -0.250   6.860   8.715 -0.2204  1.4899 -0.7252
   47MOL0     H 6326  -0.014   6.910   8.703 -0.6190  0.4287  0.9598
   47MOL0     H 6327   0.408   7.106   8.520  3.2283  1.9450  1.4023
   47MOL0     H 6328   0.621   7.129   8.610  1.3036 -0.3818 -1.2314
   47MOL0     H 6329   1.037   5.110   7.728 -0.2230  0.2416  2.1018
   47MOL0     H 6330   1.228   4.994   7.633 -1.0541  0.4668  0.8710
   47MOL0     H 6331   1.644   4.924   7.648 -0.6926  3.1012  0.9903
   47MOL0     H 6332   1.806   4.763   7.566 -0.5165  1.6170  1.4443
   47MOL0     H 6333   2.033   4.690   7.190  0.9191  0.3303  2.5172
   47MOL0     H 6334   2.002   4.860   7.175 -0.3299 -0.1198  0.0353
   47MOL0     H 6335   1.769   4.827   7.108  1.4116  0.3785 -1.7157
   47MOL0     H 6336   1.768   4.653   7.153 -0.5494  0.4531  0.2773
   47MOL0     H 6337   1.938   4.611   6.962  0.8545  1.6836 -1.4371
   47MOL0     H 6338   1.922   4.783   6.932 -1.5625  0.3310 -2.2516
   47MOL0     H 6339   1.697   4.576   6.912  1.7522 -0.3586  4.1537
   47MOL0     H 6340   1.671   4.756   6.913  0.8012  0.2822  0.3217
   47MOL0     H 6341   1.815   4.760   6.534 -1.3707 -0.9868  0.4072
   47MOL0     H 6342   1.838   5.018   7.206  1.0818 -0.5947 -0.2069
   47MOL0     H 6343   1.745   5.215   7.183 -1.6364 -1.0509 -1.2969
   47MOL0     H 6344   1.577   5.210   7.240  1.5389 -0.3848 -2.5665
   47MOL0     H 6345   1.703   5.298   7.328  0.8339  0.4658 -0.2986
   48MOL0     O 6346   0.562   5.407   9.184  0.1897  0.2960  0.9302
   48MOL0     C 6347   0.608   5.520   9.163  0.6910 -0.2397 -0.3719
   48MOL0     O 6348   0.737   5.543   9.159 -0.5580 -0.9959 -0.5026
   48MOL0     C 6349   0.822   5.434   9.167  0.6796  0.5748 -0.5415
   48MOL0     C 6350   0.830   5.359   9.290 -0.5809  0.1757 -0.0070
   48MOL0     C 6351   0.911   5.245   9.303 -0.1926  0.1110 -0.5212
   48MOL0     C 6352   0.983   5.196   9.191 -0.0123  0.0156 -0.5233
   48MOL0     O 6353   1.051   5.079   9.191  0.2084  0.4927  0.0445
   48MOL0     C 6354   0.974   4.971   9.134 -0.0402  0.1439 -0.6973
   48MOL0     C 6355   0.963   4.867   9.247  0.4425 -0.2089  0.0655
   48MOL0     C 6356   0.871   4.757   9.219  0.0688  1.4327  0.2267
   48MOL0     C 6357   0.876   4.639   9.326  0.1516 -0.6757 -0.0366
   48MOL0     C 6358   0.826   4.508   9.269 -0.7350  0.3171 -0.7642
   48MOL0     C 6359   0.700   4.514   9.192  0.2916  0.5375 -0.2602
   48MOL0     C 6360   0.605   4.388   9.189 -0.0067  0.9339  0.3040
   48MOL0     C 6361   0.537   4.365   9.324  0.5129 -0.8034  0.5919
   48MOL0     N 6362   0.454   4.242   9.322  0.9464 -0.1180  0.0863
   48MOL0     C 6363   0.313   4.248   9.302  1.0617 -0.0887  0.1461
   48MOL0     C 6364   0.283   4.120   9.341  0.3629  0.4012 -0.0320
   48MOL0     C 6365   0.139   4.076   9.359 -0.4874 -0.6898 -0.3537
   48MOL0     C 6366   0.075   4.001   9.239 -0.8070  0.6101  0.3958
   48MOL0     C 6367  -0.048   3.927   9.281 -0.5697 -0.3433  0.2619
   48MOL0     C 6368  -0.120   3.861   9.166 -0.2425  0.0289 -0.5145
   48MOL0     O 6369  -0.205   3.769   9.237  0.0008  0.9967  0.1388
   48MOL0     C 6370  -0.327   3.822   9.272  0.7550 -0.6883 -0.4517
   48MOL0     C 6371  -0.346   3.835   9.411 -0.1398 -1.2135 -0.0454
   48MOL0     C 6372  -0.476   3.879   9.453  0.5332 -0.2879  0.1898
   48MOL0     C 6373  -0.573   3.926   9.361 -0.3591 -0.4454  1.3017
   48MOL0     C 6374  -0.696   3.983   9.399  0.9671  0.5045  0.1226
   48MOL0     O 6375  -0.718   3.991   9.536 -0.3654  0.2882 -0.4460
   48MOL0     C 6376  -0.843   4.015   9.580  0.2321 -0.4166  0.1335
   48MOL0     C 6377  -0.862   4.132   9.655 -0.0211  0.2967 -0.1383
   48MOL0     C 6378  -0.977   4.168   9.715  0.5973  0.7386 -0.7198
   48MOL0     C 6379  -1.087   4.078   9.715  1.2196 -0.2585 -0.1277
   48MOL0     O 6380  -1.213   4.101   9.769 -0.7826  0.1002 -0.4454
   48MOL0     C 6381  -1.254   4.235   9.793  0.1277  0.1906 -0.0302
   48MOL0     C 6382  -1.232   4.332   9.676 -0.8422 -0.7729 -0.3094
   48MOL0     C 6383  -1.286   4.278   9.547  0.0395  0.7918 -0.3156
   48MOL0     C 6384  -1.266   4.387   9.437 -0.1379  0.2941  0.2832
   48MOL0     C 6385  -1.351   4.347   9.321 -0.4639 -0.1528  0.3786
   48MOL0     C 6386  -1.320   4.424   9.195 -0.5746  0.3235 -0.4324
   48MOL0     C 6387  -1.410   4.376   9.088 -0.5036  0.3038  0.1445
   48MOL0     C 6388  -1.382   4.428   8.948 -0.0082 -0.5643 -0.1387
   48MOL0    Cl 6389  -1.225   4.362   8.860  0.0665  0.1247  0.3095
   48MOL0     C 6390  -1.064   3.954   9.650  0.1088 -0.7480 -0.1684
   48MOL0     C 6391  -0.945   3.929   9.579  0.0182  0.0149 -0.4269
   48MOL0     O 6392  -0.784   4.012   9.314  0.3255 -0.1697 -0.1618
   48MOL0     C 6393  -0.543   3.905   9.219 -0.4386  0.8917 -0.2827
   48MOL0     C 6394  -0.420   3.859   9.174 -1.3158 -0.0458 -0.1388
   48MOL0     N 6395   0.390   4.057   9.389  0.1555  0.6281 -0.2808
   48MOL0     N 6396   0.498   4.119   9.373 -0.1157  0.1226 -0.1451
   48MOL0     C 6397   0.974   5.275   9.072  0.3301  0.6403 -0.6269
   48MOL0     C 6398   0.888   5.379   9.053 -0.1534 -0.6585 -0.8795
   48MOL0     C 6399   0.520   5.620   9.118 -0.1597  0.7850  0.3843
   48MOL0     C 6400   0.573   5.718   9.027 -0.6917  0.0306  0.3257
   48MOL0     C 6401   0.492   5.798   8.956  0.2585 -0.4451  0.8051
   48MOL0     C 6402   0.356   5.799   8.973 -0.1257  0.0437 -0.5715
   48MOL0     O 6403   0.281   5.884   8.892  0.3788  0.1869 -0.3171
   48MOL0     C 6404   0.175   5.823   8.809  0.3266 -0.7755 -0.0777
   48MOL0     C 6405   0.035   5.843   8.855  0.1544 -0.7467  0.2142
   48MOL0     C 6406  -0.062   5.764   8.775 -0.4288  0.3929 -0.1470
   48MOL0     C 6407  -0.090   5.622   8.820 -0.7655  0.1777 -0.0376
   48MOL0     C 6408  -0.127   5.616   8.958  0.4735 -0.8650  0.1638
   48MOL0     C 6409  -0.154   5.597   9.077 -0.4044 -1.0602 -0.8164
   48MOL0     C 6410   0.300   5.722   9.085  0.3539  0.5215  0.5555
   48MOL0     C 6411   0.384   5.636   9.162  0.4352  1.2284 -0.1539
   48MOL0     C 6412   0.315   5.553   9.258  0.7311  0.4390 -0.2214
   48MOL0     H 6413   0.770   5.397   9.373 -2.5637  3.8470 -2.8185
   48MOL0     H 6414   0.919   5.185   9.393  3.0102  2.0808  0.6684
   48MOL0     H 6415   0.878   5.006   9.095 -0.2780  3.2527  2.1376
   48MOL0     H 6416   1.028   4.928   9.049 -1.8089 -0.4965 -1.5455
   48MOL0     H 6417   0.936   4.929   9.333 -1.0286  1.4367 -1.4907
   48MOL0     H 6418   1.064   4.829   9.267  0.2031  0.3156  2.6332
   48MOL0     H 6419   0.901   4.712   9.123 -2.8380  0.9539 -0.5544
   48MOL0     H 6420   0.776   4.809   9.204  0.2217  2.2230  1.8681
   48MOL0     H 6421   0.983   4.629   9.351 -0.0461  1.6249  2.2421
   48MOL0     H 6422   0.831   4.664   9.423 -0.5012 -1.3133 -0.1768
   48MOL0     H 6423   0.907   4.471   9.205  0.4866  0.0178  0.9066
   48MOL0     H 6424   0.824   4.435   9.350  4.2168  0.6238 -0.0410
   48MOL0     H 6425   0.642   4.600   9.227  0.1590  1.4921 -2.6525
   48MOL0     H 6426   0.729   4.531   9.088  2.0452  0.2896  0.1616
   48MOL0     H 6427   0.659   4.295   9.170  0.4061  0.7481  2.2040
   48MOL0     H 6428   0.530   4.400   9.110  1.0594  2.2752 -0.5538
   48MOL0     H 6429   0.614   4.357   9.400 -2.8375 -1.1693  4.2674
   48MOL0     H 6430   0.480   4.449   9.365  1.2672  0.6471 -1.1935
   48MOL0     H 6431   0.246   4.324   9.263 -2.2240 -3.1888 -0.7927
   48MOL0     H 6432   0.139   4.007   9.444  1.7775 -1.6528 -1.0391
   48MOL0     H 6433   0.080   4.164   9.387 -1.9739 -2.3417  2.0129
   48MOL0     H 6434   0.048   4.074   9.161  3.3308  1.2812 -0.6599
   48MOL0     H 6435   0.147   3.936   9.188 -0.7926 -0.8338  2.1747
   48MOL0     H 6436  -0.121   3.985   9.338 -1.2071 -2.4347  1.6600
   48MOL0     H 6437  -0.017   3.843   9.342 -1.4424 -2.4019 -1.9640
   48MOL0     H 6438  -0.066   3.796   9.097 -3.1245 -0.0099 -2.9484
   48MOL0     H 6439  -0.167   3.933   9.098 -0.9782 -1.7130 -1.9306
   48MOL0     H 6440  -0.261   3.808   9.472 -1.5480 -0.1857  2.5313
   48MOL0     H 6441  -0.486   3.893   9.561 -1.2051  2.3301 -0.2264
   48MOL0     H 6442  -0.775   4.197   9.667  0.7431 -0.8895  1.1530
   48MOL0     H 6443  -0.976   4.262   9.769 -0.2313  0.1848  0.3050
   48MOL0     H 6444  -1.360   4.234   9.820 -0.4524  1.8468 -1.9693
   48MOL0     H 6445  -1.204   4.268   9.885  0.3609  2.8419 -0.9932
   48MOL0     H 6446  -1.290   4.418   9.709  1.8147  0.8606  0.3538
   48MOL0     H 6447  -1.128   4.364   9.660 -1.4561  0.4467 -2.2195
   48MOL0     H 6448  -1.234   4.184   9.531 -2.3973 -1.0701  1.8586
   48MOL0     H 6449  -1.393   4.264   9.566  0.3193  1.4477  2.2095
   48MOL0     H 6450  -1.161   4.404   9.411 -1.2015  2.3080 -3.2348
   48MOL0     H 6451  -1.302   4.484   9.472 -3.5691 -0.0941 -1.7308
   48MOL0     H 6452  -1.458   4.358   9.341 -0.5358 -3.6299  2.9185
   48MOL0     H 6453  -1.352   4.239   9.304  2.3458 -0.2520  0.4808
   48MOL0     H 6454  -1.338   4.530   9.215  0.1381  0.5876 -1.1164
   48MOL0     H 6455  -1.216   4.403   9.168 -0.4315 -1.8493  1.4957
   48MOL0     H 6456  -1.516   4.378   9.114 -0.4296  1.2188  0.4056
   48MOL0     H 6457  -1.379   4.271   9.080 -1.0089  0.2658 -1.7950
   48MOL0     H 6458  -1.467   4.415   8.880  1.3453 -1.5892 -1.7006
   48MOL0     H 6459  -1.370   4.535   8.968  3.1907 -0.6343 -1.1268
   48MOL0     H 6460  -1.145   3.882   9.647 -0.3095 -0.5671  3.2276
   48MOL0     H 6461  -0.921   3.838   9.525 -0.4345 -0.2209 -0.2396
   48MOL0     H 6462  -0.618   3.944   9.150 -1.5419  1.8898  1.4227
   48MOL0     H 6463  -0.390   3.846   9.071  0.5881 -4.1372  0.7001
   48MOL0     H 6464   1.018   5.250   8.976 -0.2448  3.7062 -1.7826
   48MOL0     H 6465   0.881   5.434   8.960 -0.4552 -0.2149 -0.6008
   48MOL0     H 6466   0.677   5.725   8.996 -1.2734  0.6722 -1.6222
   48MOL0     H 6467   0.517   5.863   8.873 -1.0984  0.3966  1.0272
   48MOL0     H 6468   0.197   5.718   8.789 -0.3655 -1.4099  2.1239
   48MOL0     H 6469   0.177   5.873   8.713 -0.8700  1.6628  1.0824
   48MOL0     H 6470   0.011   5.949   8.863  0.8240 -0.6090  0.4641
   48MOL0     H 6471   0.036   5.798   8.955  1.2010 -0.9285  0.1335
   48MOL0     H 6472  -0.023   5.766   8.673 -0.3567  1.2036 -0.1064
   48MOL0     H 6473  -0.164   5.804   8.772 -0.7363  0.2947  3.5680
   48MOL0     H 6474  -0.154   5.579   8.742  1.8472 -1.5940 -1.3598
   48MOL0     H 6475   0.005   5.569   8.808 -0.6538  0.1061  1.0930
   48MOL0     H 6476  -0.192   5.585   9.177  1.6806 -0.7970  0.0726
   48MOL0     H 6477   0.197   5.742   9.116  0.5360  0.4096  1.2555
   48MOL0     H 6478   0.316   5.447   9.230  0.9970  0.4757 -0.3555
   48MOL0     H 6479   0.364   5.548   9.355 -0.3208  0.0481  0.3090
   48MOL0     H 6480   0.210   5.584   9.270  0.1962 -1.0994 -0.6100
   49MOL0     O 6481   1.707   6.935   6.734 -0.5271 -0.7174  0.2023
   49MOL0     C 6482   1.791   6.865   6.684 -0.0353  0.4567 -0.6076
   49MOL0     O 6483   1.794   6.824   6.548 -0.5100 -0.6645 -0.0647
   49MOL0     C 6484   1.691   6.871   6.465 -0.2056  0.7555 -0.4295
   49MOL0     C 6485   1.700   6.995   6.417  0.0717 -0.5285 -0.3754
   49MOL0     C 6486   1.599   7.035   6.324 -0.3369  0.1121  1.0189
   49MOL0     C 6487   1.475   6.959   6.305 -0.3977  0.3206  0.1212
   49MOL0     O 6488   1.376   7.003   6.228  0.3094  0.1435 -0.1512
   49MOL0     C 6489   1.339   7.134   6.266  0.8418 -0.4127 -0.5034
   49MOL0     C 6490   1.208   7.171   6.201 -1.0281  0.1328  0.0428
   49MOL0     C 6491   1.185   7.318   6.212  0.1325  0.8491  0.0060
   49MOL0     C 6492   1.043   7.357   6.165 -0.0804 -0.0017  0.5879
   49MOL0     C 6493   1.037   7.507   6.184  0.7336 -0.3750 -0.0363
   49MOL0     C 6494   0.904   7.562   6.135  0.6775 -0.1106 -0.3197
   49MOL0     C 6495   0.789   7.526   6.225  0.1718  0.4363  0.6326
   49MOL0     C 6496   0.660   7.570   6.164 -0.5207 -0.2929 -0.2699
   49MOL0     N 6497   0.547   7.509   6.234  0.0330 -0.3223  0.0980
   49MOL0     C 6498   0.448   7.581   6.296 -0.4865  0.6476  0.4205
   49MOL0     C 6499   0.353   7.485   6.332 -0.6996 -0.4768  0.2709
   49MOL0     C 6500   0.228   7.495   6.410  0.5114 -0.5023 -0.1986
   49MOL0     C 6501   0.114   7.565   6.330 -0.7137 -0.0864 -0.3768
   49MOL0     C 6502   0.008   7.473   6.261 -0.0473  0.0103 -0.5847
   49MOL0     C 6503  -0.064   7.561   6.158  0.7304 -0.1266  0.3080
   49MOL0     O 6504  -0.150   7.657   6.223  0.1316 -0.7876  0.4096
   49MOL0     C 6505  -0.184   7.766   6.144 -0.1684  0.1539 -0.1750
   49MOL0     C 6506  -0.255   7.870   6.208 -0.8805  0.1755  0.3524
   49MOL0     C 6507  -0.283   7.991   6.145 -0.0209  0.3225 -0.6286
   49MOL0     C 6508  -0.258   8.009   6.012  0.2587 -0.0669 -0.4932
   49MOL0     C 6509  -0.275   8.142   5.949 -0.1577 -0.7233  0.0968
   49MOL0     O 6510  -0.362   8.228   6.020  0.8157 -0.3605  0.1289
   49MOL0     C 6511  -0.375   8.365   5.991 -0.5912  0.2142 -0.2186
   49MOL0     C 6512  -0.280   8.445   5.921  0.2152  0.0487  0.5950
   49MOL0     C 6513  -0.314   8.577   5.885  0.0268 -0.0290 -0.2545
   49MOL0     C 6514  -0.438   8.630   5.901  0.5028 -0.1672 -0.2053
   49MOL0     O 6515  -0.472   8.757   5.868  0.7670  0.2868  0.9462
   49MOL0     C 6516  -0.472   8.787   5.725  0.1191  0.3647 -1.0634
   49MOL0     C 6517  -0.499   8.942   5.705  0.3378  0.6922  0.0225
   49MOL0     C 6518  -0.432   8.992   5.570 -0.1986  0.2051 -0.4804
   49MOL0     C 6519  -0.489   9.128   5.529  0.3739 -0.6449 -0.0117
   49MOL0     C 6520  -0.631   9.116   5.473  0.9472  0.4183 -0.2248
   49MOL0     C 6521  -0.636   9.083   5.329 -0.0729  0.1242  0.3755
   49MOL0     C 6522  -0.773   9.060   5.267  0.7690  0.0284 -0.5666
   49MOL0     C 6523  -0.759   9.013   5.125  0.4250  0.2620  0.2139
   49MOL0    Cl 6524  -0.680   9.131   5.020  0.2246 -0.1671  0.1899
   49MOL0     C 6525  -0.531   8.549   5.970 -0.1361 -0.1557  0.1295
   49MOL0     C 6526  -0.499   8.420   6.013 -0.4389 -0.2223  0.5245
   49MOL0     O 6527  -0.200   8.181   5.858 -0.0938  0.2612 -0.6475
   49MOL0     C 6528  -0.190   7.903   5.949 -0.5949 -0.6103 -0.2152
   49MOL0     C 6529  -0.147   7.790   6.012  0.0431 -0.8176  0.2646
   49MOL0     N 6530   0.403   7.362   6.285 -0.7323  0.0328  0.0274
   49MOL0     N 6531   0.515   7.378   6.230  0.2147 -0.9513 -0.1853
   49MOL0     C 6532   1.469   6.834   6.359  0.0368 -0.0685 -0.1121
   49MOL0     C 6533   1.580   6.788   6.436  0.7162 -0.0499  0.5221
   49MOL0     C 6534   1.905   6.809   6.766 -1.0851  0.3401 -0.0789
   49MOL0     C 6535   2.016   6.750   6.693 -0.5793 -0.1824  0.0064
   49MOL0     C 6536   2.130   6.694   6.756  0.0473 -0.4014  1.2996
   49MOL0     C 6537   2.140   6.701   6.899  0.9358 -0.5245 -1.5563
   49MOL0     O 6538   2.259   6.646   6.956  0.7566 -0.3410  0.8855
   49MOL0     C 6539   2.306   6.700   7.079  0.3081 -0.1026  0.0125
   49MOL0     C 6540   2.446   6.643   7.120 -0.3622  1.2653  0.6130
   49MOL0     C 6541   2.560   6.705   7.028  0.6019  0.9552  0.6960
   49MOL0     C 6542   2.576   6.848   7.028  0.4889 -0.3258  0.1237
   49MOL0     C 6543   2.697   6.896   6.954 -0.2216  0.0201 -0.9005
   49MOL0     C 6544   2.812   6.933   6.924 -0.4688 -0.0375 -0.5083
   49MOL0     C 6545   2.032   6.758   6.971  0.3124 -0.0126 -0.1599
   49MOL0     C 6546   1.920   6.801   6.908  0.6996  0.1360  0.9232
   49MOL0     C 6547   1.808   6.848   7.002 -0.3131  0.1628 -0.0214
   49MOL0     H 6548   1.789   7.052   6.442  0.3039 -1.2820  0.5659
   49MOL0     H 6549   1.610   7.121   6.258 -0.3318 -0.8934 -0.3253
   49MOL0     H 6550   1.317   7.140   6.373 -4.5802 -2.1862 -1.2163
   49MOL0     H 6551   1.416   7.205   6.235  0.1491  0.0750 -1.1613
   49MOL0     H 6552   1.127   7.119   6.252 -2.2810  0.6250 -1.3614
   49MOL0     H 6553   1.222   7.129   6.101  0.7075 -2.0964  1.1442
   49MOL0     H 6554   1.264   7.364   6.152 -0.7418  0.3181 -1.6219
   49MOL0     H 6555   1.188   7.336   6.320 -2.6076  0.4795  0.2320
   49MOL0     H 6556   1.029   7.322   6.062 -0.7220 -0.9762  0.9886
   49MOL0     H 6557   0.969   7.306   6.227 -0.5708  0.6947  0.5712
   49MOL0     H 6558   1.058   7.539   6.286  1.6175  0.4845 -0.4707
   49MOL0     H 6559   1.111   7.551   6.116  1.1119 -1.8099 -0.5850
   49MOL0     H 6560   0.911   7.671   6.128  1.6031 -0.1566 -0.2226
   49MOL0     H 6561   0.880   7.527   6.035  0.2828  0.4454 -0.4233
   49MOL0     H 6562   0.801   7.576   6.322  2.7586  1.4931 -0.1604
   49MOL0     H 6563   0.788   7.419   6.246  1.2173  0.0071 -1.3054
   49MOL0     H 6564   0.643   7.678   6.155  2.3960  0.2808  0.1252
   49MOL0     H 6565   0.656   7.539   6.060  0.4684 -1.5838  0.0582
   49MOL0     H 6566   0.441   7.687   6.320  1.0605  0.8429  0.0723
   49MOL0     H 6567   0.206   7.402   6.463  2.2180 -0.4664  0.6734
   49MOL0     H 6568   0.247   7.572   6.486  1.1052 -2.4413  1.7117
   49MOL0     H 6569   0.076   7.633   6.407  2.3804  1.1874  0.1852
   49MOL0     H 6570   0.173   7.616   6.253  1.8567 -3.1529 -0.6331
   49MOL0     H 6571  -0.058   7.424   6.333  0.2916  0.6585  0.1795
   49MOL0     H 6572   0.068   7.394   6.216  1.9932  1.8671 -1.3053
   49MOL0     H 6573  -0.125   7.491   6.101  0.3396  0.7397 -0.3671
   49MOL0     H 6574   0.011   7.607   6.092  1.1461  1.7194  1.9465
   49MOL0     H 6575  -0.279   7.861   6.313  1.5643  0.6128  1.0021
   49MOL0     H 6576  -0.337   8.067   6.200 -0.5305  0.9020 -1.8919
   49MOL0     H 6577  -0.183   8.405   5.894  0.2555  0.2198  0.4791
   49MOL0     H 6578  -0.243   8.624   5.818  0.4123 -0.2700 -0.0151
   49MOL0     H 6579  -0.371   8.770   5.687  1.7621  0.1560  2.9090
   49MOL0     H 6580  -0.555   8.727   5.686 -1.2052  0.6423  1.1384
   49MOL0     H 6581  -0.608   8.945   5.717  0.4970  0.4940  1.7196
   49MOL0     H 6582  -0.449   8.999   5.783  1.5858 -0.9224  0.4319
   49MOL0     H 6583  -0.324   8.999   5.582 -0.2763 -0.3243  0.7345
   49MOL0     H 6584  -0.454   8.922   5.489  0.5783  1.9211 -2.2478
   49MOL0     H 6585  -0.427   9.187   5.461  1.9287 -0.2222  1.6926
   49MOL0     H 6586  -0.487   9.197   5.614 -1.5240  0.6849 -0.9827
   49MOL0     H 6587  -0.676   9.216   5.471 -2.0651 -0.8350 -0.4130
   49MOL0     H 6588  -0.695   9.047   5.530 -0.6021 -1.0999 -3.5484
   49MOL0     H 6589  -0.580   9.159   5.273  0.5360 -0.5607  0.0395
   49MOL0     H 6590  -0.581   8.990   5.312  0.4592  0.3880  0.6116
   49MOL0     H 6591  -0.833   9.151   5.268  0.4784 -0.1448  1.5925
   49MOL0     H 6592  -0.830   8.980   5.315 -1.3791  2.3783  1.0274
   49MOL0     H 6593  -0.705   8.918   5.132  3.6726  1.8355 -1.5216
   49MOL0     H 6594  -0.858   8.982   5.093 -0.1809  1.7014  0.5922
   49MOL0     H 6595  -0.628   8.594   5.988 -0.8370 -0.8730 -1.6481
   49MOL0     H 6596  -0.576   8.362   6.064  0.7550 -0.8813  1.6286
   49MOL0     H 6597  -0.155   7.912   5.847 -0.9345  0.1134 -0.2743
   49MOL0     H 6598  -0.086   7.721   5.955  2.8075  1.3304  0.4417
   49MOL0     H 6599   1.383   6.770   6.339 -1.0601  0.9622  1.0868
   49MOL0     H 6600   1.573   6.689   6.481  0.9417 -0.6730 -0.7749
   49MOL0     H 6601   2.014   6.757   6.585  2.1312  0.4954 -0.0720
   49MOL0     H 6602   2.204   6.643   6.695 -2.7324 -2.5648 -0.5037
   49MOL0     H 6603   2.234   6.672   7.157 -0.0309  2.6341  0.7764
   49MOL0     H 6604   2.295   6.808   7.079  0.9327 -0.0375 -0.7825
   49MOL0     H 6605   2.446   6.535   7.101  0.8838  1.5015 -0.9023
   49MOL0     H 6606   2.469   6.663   7.225  0.1814  0.5980  0.6301
   49MOL0     H 6607   2.549   6.663   6.927  4.2854 -2.0461  1.3075
   49MOL0     H 6608   2.650   6.656   7.066 -0.8086 -0.5457  2.3082
   49MOL0     H 6609   2.488   6.879   6.970  0.6447  0.3897  0.2683
   49MOL0     H 6610   2.573   6.880   7.133 -0.9934 -2.4603  0.7960
   49MOL0     H 6611   2.912   6.946   6.887  0.1442 -2.8087 -0.0309
   49MOL0     H 6612   2.039   6.774   7.078 -4.5154  2.4888  0.0321
   49MOL0     H 6613   1.788   6.955   7.007 -0.5983  0.0578  1.4145
   49MOL0     H 6614   1.708   6.815   6.971 -0.8202  1.2376  0.4267
   49MOL0     H 6615   1.821   6.813   7.104 -1.1234 -0.7118 -0.2007
   50MOL0     O 6616   0.242   7.591   0.832  0.0606  0.3091 -0.7221
   50MOL0     C 6617   0.164   7.519   0.774 -0.9054  0.5484  0.2470
   50MOL0     O 6618   0.033   7.544   0.778  0.4041  0.3613 -0.3904
   50MOL0     C 6619  -0.022   7.577   0.901  1.6768  0.6116 -0.0172
   50MOL0     C 6620  -0.121   7.674   0.897 -0.5047  0.0899 -0.5077
   50MOL0     C 6621  -0.198   7.702   1.013 -0.0315  0.0179  0.0989
   50MOL0     C 6622  -0.179   7.637   1.133 -0.1848  0.8694 -0.1762
   50MOL0     O 6623  -0.263   7.653   1.248 -0.2805  1.3139  0.2287
   50MOL0     C 6624  -0.377   7.744   1.243  0.2167 -0.0670  1.2122
   50MOL0     C 6625  -0.412   7.768   1.393  0.0633 -0.4591  0.2955
   50MOL0     C 6626  -0.496   7.899   1.420 -0.0577 -0.0481 -0.7490
   50MOL0     C 6627  -0.520   7.908   1.569 -0.0813 -0.0221 -0.2044
   50MOL0     C 6628  -0.650   7.974   1.620  0.4309 -0.6170 -0.2465
   50MOL0     C 6629  -0.663   8.126   1.581  1.0025  0.1576  1.0030
   50MOL0     C 6630  -0.782   8.199   1.646  0.4168 -0.6454  0.3089
   50MOL0     C 6631  -0.916   8.141   1.605 -0.2607 -0.0066 -0.9865
   50MOL0     N 6632  -1.014   8.172   1.717 -1.2325 -0.6276  0.5039
   50MOL0     C 6633  -1.027   8.099   1.832 -0.2247  0.1424 -0.1590
   50MOL0     C 6634  -1.108   8.175   1.911 -0.1009 -0.9229 -0.9100
   50MOL0     C 6635  -1.115   8.166   2.061  0.6894 -0.2180 -0.5406
   50MOL0     C 6636  -1.240   8.102   2.113 -0.9175  0.6372 -0.6545
   50MOL0     C 6637  -1.235   8.120   2.266  0.0746 -0.0128 -1.1409
   50MOL0     C 6638  -1.360   8.051   2.326 -0.2803 -0.0664 -0.5088
   50MOL0     O 6639  -1.475   8.129   2.325  0.6077  0.1558  0.1513
   50MOL0     C 6640  -1.591   8.069   2.371 -0.4123 -0.0636 -0.2325
   50MOL0     C 6641  -1.592   8.010   2.498  1.2925  1.0593  0.3057
   50MOL0     C 6642  -1.713   7.955   2.542  0.2347 -0.3289 -0.2945
   50MOL0     C 6643  -1.833   7.955   2.469 -0.5862 -0.3901 -1.0321
   50MOL0     C 6644  -1.951   7.891   2.533 -0.2627  0.5994 -0.2253
   50MOL0     O 6645  -2.057   7.868   2.451  0.0356 -0.2987 -0.4787
   50MOL0     C 6646  -2.178   7.838   2.505  1.1118  0.4044  0.5784
   50MOL0     C 6647  -2.182   7.727   2.603  1.3169 -0.3626  0.3164
   50MOL0     C 6648  -2.306   7.688   2.663 -0.3454 -0.1023  0.3783
   50MOL0     C 6649  -2.423   7.759   2.626 -0.1550  1.1215 -0.0174
   50MOL0     O 6650  -2.542   7.741   2.689 -0.5226  0.5482  0.1669
   50MOL0     C 6651  -2.541   7.677   2.823  0.6196 -0.4524 -0.0910
   50MOL0     C 6652  -2.694   7.718   2.879 -0.2609  0.7979  0.2948
   50MOL0     C 6653  -2.714   7.868   2.882 -0.4879 -0.6010 -0.0481
   50MOL0     C 6654  -2.834   7.910   2.793 -0.8214 -0.1388 -0.1915
   50MOL0     C 6655  -2.876   8.050   2.798  0.0765 -0.1621  0.0230
   50MOL0     C 6656  -2.953   8.092   2.921  0.2382  0.1962 -0.1594
   50MOL0     C 6657  -3.003   8.229   2.907 -0.6429  1.0738  0.1263
   50MOL0     C 6658  -2.898   8.340   2.877 -0.0934 -0.2187  0.0730
   50MOL0    Cl 6659  -2.785   8.347   3.022  0.2215  0.1611  0.0326
   50MOL0     C 6660  -2.424   7.861   2.527 -0.5222  1.3627  0.1667
   50MOL0     C 6661  -2.301   7.899   2.463  0.8139  0.9376  0.0611
   50MOL0     O 6662  -1.946   7.869   2.654 -0.6269 -0.4832 -0.8340
   50MOL0     C 6663  -1.826   8.009   2.337  0.1357 -0.9063 -0.1531
   50MOL0     C 6664  -1.707   8.075   2.300  0.9725 -0.2128  0.7081
   50MOL0     N 6665  -1.157   8.283   1.838 -0.9804  0.0196 -0.6686
   50MOL0     N 6666  -1.106   8.275   1.720 -0.2262 -0.5095 -0.1866
   50MOL0     C 6667  -0.071   7.550   1.142  1.2689 -0.4386  0.2206
   50MOL0     C 6668  -0.010   7.513   1.025 -0.4661 -0.7683 -0.7630
   50MOL0     C 6669   0.198   7.399   0.692 -0.2506  0.1497  0.4005
   50MOL0     C 6670   0.089   7.335   0.630 -1.3529 -0.7520  0.5365
   50MOL0     C 6671   0.117   7.213   0.561  0.2197 -0.6793 -0.6223
   50MOL0     C 6672   0.245   7.161   0.554 -0.4182  0.6792 -0.5040
   50MOL0     O 6673   0.266   7.038   0.508  0.0145 -0.0893 -0.2942
   50MOL0     C 6674   0.355   7.022   0.406 -0.4200  0.4037 -0.0431
   50MOL0     C 6675   0.334   6.879   0.349 -0.5490 -0.3331  0.0593
   50MOL0     C 6676   0.451   6.825   0.265  0.5352  0.6916 -0.0725
   50MOL0     C 6677   0.411   6.698   0.188  0.8260 -0.3939 -0.1572
   50MOL0     C 6678   0.532   6.644   0.125  0.2234  0.1776  0.3470
   50MOL0     C 6679   0.637   6.610   0.073 -0.1676  0.5353 -0.5724
   50MOL0     C 6680   0.357   7.238   0.601 -0.0188 -0.0593 -0.6953
   50MOL0     C 6681   0.328   7.357   0.673 -0.0816 -0.2446  0.5394
   50MOL0     C 6682   0.447   7.442   0.730 -0.0739  0.2245 -0.0926
   50MOL0     H 6683  -0.141   7.734   0.809  0.3876 -0.1589 -0.8850
   50MOL0     H 6684  -0.282   7.771   1.016  1.2111  1.5909 -0.4232
   50MOL0     H 6685  -0.342   7.841   1.205  1.0440 -0.5045  0.8371
   50MOL0     H 6686  -0.462   7.701   1.188 -0.7060  2.1893  0.7632
   50MOL0     H 6687  -0.321   7.761   1.453  0.3461  0.9155  0.0789
   50MOL0     H 6688  -0.464   7.676   1.422  2.7144 -1.9929  0.4721
   50MOL0     H 6689  -0.599   7.903   1.386 -0.0959 -1.5981 -0.9246
   50MOL0     H 6690  -0.440   7.980   1.373  0.5311 -0.0626 -0.1050
   50MOL0     H 6691  -0.523   7.816   1.627  1.0169  0.1781  0.2031
   50MOL0     H 6692  -0.438   7.970   1.607  1.0085 -1.6805  0.2642
   50MOL0     H 6693  -0.739   7.919   1.590 -1.0561  1.7241 -0.3586
   50MOL0     H 6694  -0.654   7.985   1.729  1.7051  0.1452 -0.2480
   50MOL0     H 6695  -0.575   8.184   1.608  0.6597  0.2726  1.9025
   50MOL0     H 6696  -0.665   8.133   1.472 -1.4041  0.0091  0.9735
   50MOL0     H 6697  -0.783   8.305   1.618 -1.0354 -0.7214  0.0049
   50MOL0     H 6698  -0.755   8.191   1.752  0.1122 -1.5813  0.3225
   50MOL0     H 6699  -0.961   8.176   1.512 -0.8473  1.1608 -0.2838
   50MOL0     H 6700  -0.909   8.032   1.602 -0.0336 -0.5469  5.4036
   50MOL0     H 6701  -0.972   8.014   1.871  2.4958  1.9326  0.1501
   50MOL0     H 6702  -1.028   8.112   2.101  0.0915 -1.1534 -0.4712
   50MOL0     H 6703  -1.112   8.268   2.100  0.3737 -0.5337  0.3485
   50MOL0     H 6704  -1.326   8.152   2.068  0.4860  4.2952  0.3497
   50MOL0     H 6705  -1.234   7.993   2.100  1.9170  0.8072 -1.4694
   50MOL0     H 6706  -1.226   8.217   2.316  2.2409 -2.1752  3.2143
   50MOL0     H 6707  -1.151   8.060   2.301 -0.2933  0.3440  0.4359
   50MOL0     H 6708  -1.334   8.016   2.426  0.4401  0.8648 -0.3481
   50MOL0     H 6709  -1.375   7.965   2.261 -3.6564  0.0242 -0.0065
   50MOL0     H 6710  -1.506   8.002   2.564  0.5913 -0.9102  1.0704
   50MOL0     H 6711  -1.710   7.908   2.640 -1.7059  0.8174  0.3617
   50MOL0     H 6712  -2.088   7.678   2.626  2.2154  0.3869 -1.5012
   50MOL0     H 6713  -2.313   7.605   2.733 -2.4725  2.5389  3.6432
   50MOL0     H 6714  -2.511   7.572   2.833 -1.7583 -1.7828 -4.3254
   50MOL0     H 6715  -2.466   7.736   2.875  2.3936  1.0728 -4.0037
   50MOL0     H 6716  -2.770   7.666   2.820  0.3340 -0.4561  0.5875
   50MOL0     H 6717  -2.707   7.677   2.980  0.1092  1.2233  0.5157
   50MOL0     H 6718  -2.733   7.891   2.987 -0.0537  1.9911 -0.4662
   50MOL0     H 6719  -2.623   7.922   2.856 -1.3845  0.8354 -0.2943
   50MOL0     H 6720  -2.919   7.842   2.806 -0.7072 -0.1313  0.6430
   50MOL0     H 6721  -2.798   7.889   2.692  1.2266 -0.1450  0.4817
   50MOL0     H 6722  -2.942   8.065   2.712 -1.5319 -0.1565  1.2121
   50MOL0     H 6723  -2.791   8.116   2.783  0.8485 -0.8560  1.2328
   50MOL0     H 6724  -3.040   8.028   2.934 -0.0010  0.2974 -1.1815
   50MOL0     H 6725  -2.884   8.095   3.005 -1.9917 -0.2948  1.7754
   50MOL0     H 6726  -3.045   8.250   3.006 -1.5691  2.5710 -0.5455
   50MOL0     H 6727  -3.091   8.228   2.841 -1.3726  2.5403  1.0202
   50MOL0     H 6728  -2.854   8.329   2.778 -3.0467 -1.3578 -1.2526
   50MOL0     H 6729  -2.940   8.441   2.875  1.9383  0.6701  0.1301
   50MOL0     H 6730  -2.519   7.904   2.500 -0.5949 -0.6048 -3.2009
   50MOL0     H 6731  -2.287   7.977   2.389 -1.0477  3.1133  1.8328
   50MOL0     H 6732  -1.902   7.999   2.260 -1.5298  1.8004  1.0148
   50MOL0     H 6733  -1.705   8.111   2.197  2.5595 -1.6442  0.1962
   50MOL0     H 6734  -0.056   7.504   1.239 -1.0721  2.6608  2.2493
   50MOL0     H 6735   0.069   7.438   1.022 -1.9550 -2.4503 -0.1732
   50MOL0     H 6736  -0.014   7.365   0.644 -0.7715  0.6741  2.1306
   50MOL0     H 6737   0.033   7.160   0.518 -0.1247 -0.0801 -0.6968
   50MOL0     H 6738   0.457   7.033   0.444 -0.0604 -0.7763 -0.5982
   50MOL0     H 6739   0.330   7.095   0.328  0.5429  0.0016 -0.7416
   50MOL0     H 6740   0.249   6.881   0.281  0.6643  2.6705 -1.5471
   50MOL0     H 6741   0.309   6.807   0.428  0.6951 -2.4303 -1.3587
   50MOL0     H 6742   0.539   6.809   0.328  0.6254  5.1793  1.2946
   50MOL0     H 6743   0.481   6.906   0.197 -1.0999  0.1428 -1.5169
   50MOL0     H 6744   0.365   6.621   0.249  0.2629 -0.9060 -1.2008
   50MOL0     H 6745   0.348   6.716   0.100  1.1647  1.7435 -0.0120
   50MOL0     H 6746   0.727   6.564   0.039 -0.0309  0.1272  0.3410
   50MOL0     H 6747   0.460   7.205   0.591  0.2224 -0.0570  1.3608
   50MOL0     H 6748   0.456   7.450   0.839 -0.7013  2.4033 -0.1551
   50MOL0     H 6749   0.538   7.397   0.689 -0.1247 -1.3090  1.3541
   50MOL0     H 6750   0.439   7.542   0.687 -0.4591 -0.2155 -1.0612
   51MOL0     O 6751   7.048   4.911   2.636 -0.8786 -0.2504  0.5623
   51MOL0     C 6752   6.939   4.952   2.676 -0.2771 -0.1477  0.3278
   51MOL0     O 6753   6.917   5.007   2.791  0.3732  0.7554  0.4833
   51MOL0     C 6754   7.026   5.006   2.873  0.0427 -0.4556  1.0666
   51MOL0     C 6755   7.010   4.937   2.984  0.3439  0.0150 -0.7872
   51MOL0     C 6756   7.120   4.921   3.074  0.4226 -0.1650  0.9424
   51MOL0     C 6757   7.242   4.978   3.056 -0.7896 -0.5151 -0.9811
   51MOL0     O 6758   7.350   4.965   3.136 -0.2970  0.1910  0.4222
   51MOL0     C 6759   7.324   4.935   3.275 -0.2093 -0.9658  0.6653
   51MOL0     C 6760   7.447   4.947   3.361  0.8735  0.2219  0.0960
   51MOL0     C 6761   7.494   5.098   3.348  0.1919  0.0147 -0.9120
   51MOL0     C 6762   7.604   5.119   3.455  0.0848 -0.1401 -0.5335
   51MOL0     C 6763   7.683   5.252   3.431  1.0611 -0.2079 -0.0297
   51MOL0     C 6764   7.589   5.382   3.447 -0.5448  0.9584 -0.4261
   51MOL0     C 6765   7.660   5.515   3.417  0.9145  0.2252 -0.4926
   51MOL0     C 6766   7.764   5.538   3.530 -0.3344 -0.6565  1.4465
   51MOL0     N 6767   7.804   5.682   3.503  0.0452  0.9474 -0.1953
   51MOL0     C 6768   7.754   5.785   3.571  0.3460  0.0343  0.1764
   51MOL0     C 6769   7.805   5.886   3.501  0.0588 -0.5490 -0.9553
   51MOL0     C 6770   7.740   6.019   3.520 -0.8520 -0.0863 -0.7465
   51MOL0     C 6771   7.727   6.060   3.669  0.2177  0.8725 -0.8100
   51MOL0     C 6772   7.610   6.154   3.703  1.0861  0.1955 -0.6082
   51MOL0     C 6773   7.599   6.280   3.621  0.5841 -0.9742  0.2281
   51MOL0     O 6774   7.529   6.382   3.687  0.4841 -0.4642 -0.0551
   51MOL0     C 6775   7.402   6.407   3.658  0.5053 -0.0070  0.4789
   51MOL0     C 6776   7.310   6.341   3.572 -0.0286 -0.3853  0.1318
   51MOL0     C 6777   7.175   6.386   3.555 -0.1556 -0.2701  0.2659
   51MOL0     C 6778   7.136   6.494   3.628 -0.3466 -0.4946 -0.5937
   51MOL0     C 6779   6.995   6.535   3.616 -0.8209 -0.3546  0.6269
   51MOL0     O 6780   6.925   6.509   3.495 -0.3921  0.1061 -0.2500
   51MOL0     C 6781   6.798   6.540   3.500 -0.1512  0.1372 -0.3026
   51MOL0     C 6782   6.744   6.660   3.488 -0.2693 -0.5116 -0.2657
   51MOL0     C 6783   6.603   6.677   3.476  0.1568 -0.1785  0.5799
   51MOL0     C 6784   6.522   6.560   3.467  0.2597  0.0816 -0.6095
   51MOL0     O 6785   6.388   6.579   3.443  0.2113 -0.3189 -0.0860
   51MOL0     C 6786   6.338   6.681   3.359 -0.0766  0.3529  0.3348
   51MOL0     C 6787   6.197   6.644   3.304 -0.0933 -0.3893  0.1658
   51MOL0     C 6788   6.101   6.683   3.417 -0.4313  0.9319 -0.6064
   51MOL0     C 6789   5.967   6.635   3.371  0.5343 -0.0772  0.0960
   51MOL0     C 6790   5.846   6.647   3.467 -0.3199  0.1754  0.0845
   51MOL0     C 6791   5.839   6.790   3.522 -0.0315  0.0712 -0.6492
   51MOL0     C 6792   5.706   6.814   3.594  0.3377  0.0342 -0.0559
   51MOL0     C 6793   5.689   6.943   3.686 -0.2025  0.0843 -0.0408
   51MOL0    Cl 6794   5.809   6.933   3.817 -0.2180 -0.0279  0.0643
   51MOL0     C 6795   6.577   6.432   3.499 -0.0875  0.6642 -0.5086
   51MOL0     C 6796   6.717   6.422   3.505  1.0195 -0.1008  1.3126
   51MOL0     O 6797   6.947   6.593   3.714  0.1798 -0.4596  0.7395
   51MOL0     C 6798   7.224   6.555   3.721  0.2449  0.0965 -0.2709
   51MOL0     C 6799   7.354   6.517   3.729  0.3109  0.4768 -0.6956
   51MOL0     N 6800   7.899   5.856   3.402  0.2261 -0.3749 -1.1962
   51MOL0     N 6801   7.898   5.723   3.408 -0.2035  1.3441  0.2321
   51MOL0     C 6802   7.252   5.060   2.943 -0.0380 -0.6180 -0.5791
   51MOL0     C 6803   7.144   5.077   2.857  0.5893 -0.1525  0.4623
   51MOL0     C 6804   6.818   4.934   2.586  0.2369  0.0806  0.3337
   51MOL0     C 6805   6.701   5.011   2.623 -0.4879  0.8877 -1.0657
   51MOL0     C 6806   6.579   5.003   2.555  0.3426 -0.4371  1.3612
   51MOL0     C 6807   6.584   4.932   2.435  0.4907  0.2078  0.5984
   51MOL0     O 6808   6.461   4.928   2.373 -0.2992 -0.9198  0.4843
   51MOL0     C 6809   6.439   4.869   2.242  0.6225 -0.3596 -0.5809
   51MOL0     C 6810   6.438   4.717   2.257  0.7363  0.0829 -0.2951
   51MOL0     C 6811   6.296   4.656   2.243 -0.2341  0.4971  0.6416
   51MOL0     C 6812   6.235   4.712   2.112 -0.1371  0.6413  0.0166
   51MOL0     C 6813   6.123   4.623   2.060  0.2485  0.0072  0.4346
   51MOL0     C 6814   6.021   4.563   2.014  0.4792  0.9097  0.0506
   51MOL0     C 6815   6.693   4.852   2.388 -0.7211  0.1894 -0.4860
   51MOL0     C 6816   6.815   4.862   2.459  0.5575  1.0424 -0.4513
   51MOL0     C 6817   6.943   4.795   2.409  0.5173 -0.3481  0.6795
   51MOL0     H 6818   6.918   4.885   3.009  0.0019 -0.0766 -2.1362
   51MOL0     H 6819   7.112   4.865   3.166 -0.1265  2.4452  2.5733
   51MOL0     H 6820   7.246   4.999   3.316  0.8604  1.4318 -0.8042
   51MOL0     H 6821   7.285   4.835   3.297  0.4035 -1.9095 -2.0904
   51MOL0     H 6822   7.528   4.884   3.324 -1.6145 -1.4076 -3.0873
   51MOL0     H 6823   7.413   4.924   3.462  1.4794  0.3477  0.3347
   51MOL0     H 6824   7.409   5.164   3.369 -0.3490 -1.1064  0.6334
   51MOL0     H 6825   7.534   5.114   3.247  0.5138 -1.0331 -0.9634
   51MOL0     H 6826   7.559   5.116   3.555 -0.2257 -0.6677 -0.6836
   51MOL0     H 6827   7.675   5.036   3.446 -2.2450 -2.0283 -3.2961
   51MOL0     H 6828   7.776   5.263   3.486  0.6570  1.3859  0.3629
   51MOL0     H 6829   7.719   5.245   3.328  1.3024 -0.2923  0.0593
   51MOL0     H 6830   7.518   5.370   3.365 -2.1447  2.4075  0.6946
   51MOL0     H 6831   7.537   5.384   3.543 -0.7839  1.0578 -0.5571
   51MOL0     H 6832   7.585   5.594   3.431 -1.5558 -2.4157  2.7057
   51MOL0     H 6833   7.698   5.513   3.315 -1.1517 -1.8850 -1.3182
   51MOL0     H 6834   7.742   5.523   3.636  0.1201 -0.6933  1.5382
   51MOL0     H 6835   7.844   5.469   3.502 -1.5639 -1.7857  0.6079
   51MOL0     H 6836   7.684   5.778   3.654 -0.2483  0.6668 -0.2539
   51MOL0     H 6837   7.813   6.088   3.475 -0.0786  0.5053  1.2999
   51MOL0     H 6838   7.648   6.022   3.461 -0.0955  0.2247 -1.9715
   51MOL0     H 6839   7.720   5.966   3.724  2.2105 -0.6610 -2.9656
   51MOL0     H 6840   7.821   6.108   3.696 -0.1939  1.3683 -0.2462
   51MOL0     H 6841   7.633   6.181   3.806 -0.5295 -2.2935  0.4890
   51MOL0     H 6842   7.515   6.101   3.711  2.5556 -2.5771  0.0632
   51MOL0     H 6843   7.569   6.265   3.516 -0.9650  1.1943  0.2909
   51MOL0     H 6844   7.703   6.312   3.624  0.4216 -0.1565 -1.4739
   51MOL0     H 6845   7.340   6.253   3.516  0.0903  0.7875 -1.7169
   51MOL0     H 6846   7.104   6.327   3.498 -1.1546  2.9525 -2.0792
   51MOL0     H 6847   6.800   6.751   3.505 -1.7056  0.4062 -0.2841
   51MOL0     H 6848   6.564   6.778   3.467 -1.4101 -0.6684  1.4156
   51MOL0     H 6849   6.313   6.777   3.406 -2.2946  0.7753 -1.5108
   51MOL0     H 6850   6.399   6.691   3.269 -2.0131  0.0208 -1.0877
   51MOL0     H 6851   6.193   6.707   3.214  3.0668  1.3728  1.0908
   51MOL0     H 6852   6.203   6.548   3.252  4.0350 -0.4011  0.3170
   51MOL0     H 6853   6.128   6.639   3.513 -0.6595 -1.9171 -1.7671
   51MOL0     H 6854   6.093   6.790   3.440 -2.0767  0.4656  1.1655
   51MOL0     H 6855   5.978   6.528   3.350 -1.4762 -0.3391  0.2086
   51MOL0     H 6856   5.935   6.687   3.280  1.0592 -0.1351 -0.1284
   51MOL0     H 6857   5.858   6.571   3.545  3.2928 -2.4458 -2.6544
   51MOL0     H 6858   5.753   6.627   3.412  0.6912 -0.5466 -1.4343
   51MOL0     H 6859   5.922   6.800   3.593 -1.0659 -0.6129  0.7087
   51MOL0     H 6860   5.855   6.868   3.447  1.7946 -0.4767 -0.8618
   51MOL0     H 6861   5.690   6.719   3.645  1.1328  0.1379  0.4142
   51MOL0     H 6862   5.630   6.817   3.516 -1.2587  0.3373  1.4348
   51MOL0     H 6863   5.725   7.027   3.628  0.0955 -0.6305 -0.9128
   51MOL0     H 6864   5.584   6.962   3.713 -0.7413  2.5449 -3.3259
   51MOL0     H 6865   6.507   6.351   3.488 -2.3372  2.6763 -1.7433
   51MOL0     H 6866   6.776   6.331   3.499  0.5209 -0.3360 -1.3249
   51MOL0     H 6867   7.187   6.626   3.793 -1.5129  2.2364 -3.0607
   51MOL0     H 6868   7.417   6.572   3.799  0.0327  0.6687 -0.5960
   51MOL0     H 6869   7.349   5.103   2.920 -1.4635  2.8340 -0.6938
   51MOL0     H 6870   7.130   5.132   2.765 -4.6285 -1.6391  0.0794
   51MOL0     H 6871   6.711   5.073   2.711  1.4402 -1.1567  0.2821
   51MOL0     H 6872   6.492   5.062   2.581 -0.0663 -0.6599  0.5237
   51MOL0     H 6873   6.517   4.911   2.178  1.5689 -4.2750 -2.2229
   51MOL0     H 6874   6.340   4.905   2.211  0.1159 -0.0777  1.2181
   51MOL0     H 6875   6.486   4.691   2.352 -2.0658 -1.6213  0.7582
   51MOL0     H 6876   6.509   4.679   2.183  0.7242 -2.3503  0.8481
   51MOL0     H 6877   6.235   4.685   2.329 -0.0857 -0.6973  1.1669
   51MOL0     H 6878   6.302   4.547   2.248 -0.5424  0.5330  2.9783
   51MOL0     H 6879   6.204   4.816   2.128  1.6944  1.1323  0.7347
   51MOL0     H 6880   6.315   4.708   2.038  1.9225 -3.2487  2.1393
   51MOL0     H 6881   5.935   4.506   1.986  2.3637 -1.1695 -2.0013
   51MOL0     H 6882   6.695   4.796   2.295 -0.0663  0.3813 -0.5920
   51MOL0     H 6883   7.021   4.870   2.398  3.1777 -2.7376  2.1263
   51MOL0     H 6884   6.970   4.711   2.473 -3.1712 -1.2777  1.2598
   51MOL0     H 6885   6.930   4.746   2.312 -1.4105  2.0058 -0.3700
   52MOL0     O 6886   9.040   7.527   8.359  0.0366  0.2717 -0.4903
   52MOL0     C 6887   9.094   7.422   8.379 -0.1278  0.8616  0.5555
   52MOL0     O 6888   9.034   7.302   8.343  0.0058 -0.2694 -0.8067
   52MOL0     C 6889   8.907   7.282   8.283  0.8292 -0.5848  0.1659
   52MOL0     C 6890   8.885   7.180   8.190 -0.4385 -0.0163  0.2501
   52MOL0     C 6891   8.762   7.164   8.126  0.0773  0.2169  0.1241
   52MOL0     C 6892   8.654   7.244   8.157 -0.5481  0.2309  0.4511
   52MOL0     O 6893   8.531   7.221   8.100 -1.0002  0.0946 -0.2322
   52MOL0     C 6894   8.426   7.313   8.123 -0.1809 -0.0599 -0.4167
   52MOL0     C 6895   8.306   7.290   8.034 -0.8481  0.2346  0.5156
   52MOL0     C 6896   8.329   7.258   7.887 -0.2455  0.9649  0.2944
   52MOL0     C 6897   8.206   7.242   7.802 -0.2328  0.5565  0.2021
   52MOL0     C 6898   8.110   7.363   7.805  0.0328 -0.4027 -0.0844
   52MOL0     C 6899   8.044   7.395   7.675 -0.1134  0.2627  0.9712
   52MOL0     C 6900   7.939   7.281   7.651 -0.3573 -1.0881  0.0039
   52MOL0     C 6901   7.837   7.313   7.537 -0.6376  0.7753  0.5992
   52MOL0     N 6902   7.906   7.305   7.404  0.5449  0.5124  0.7026
   52MOL0     C 6903   7.890   7.193   7.327 -1.2467 -0.0567 -0.0721
   52MOL0     C 6904   7.994   7.202   7.243 -0.5285 -0.3784 -0.1595
   52MOL0     C 6905   8.032   7.094   7.145 -0.8220  0.2133 -0.6427
   52MOL0     C 6906   7.997   7.148   6.995 -0.8141  0.8976 -0.3644
   52MOL0     C 6907   8.070   7.061   6.895 -0.3407 -0.3904  0.6688
   52MOL0     C 6908   8.017   7.101   6.758 -0.5691  0.0423  0.5424
   52MOL0     O 6909   8.046   6.997   6.663  0.0226 -0.3043  0.1064
   52MOL0     C 6910   8.167   6.984   6.608  0.0680 -0.0965 -0.9581
   52MOL0     C 6911   8.182   6.882   6.515  0.3293 -0.0971 -0.0726
   52MOL0     C 6912   8.302   6.874   6.447 -0.5720 -0.2780  1.0391
   52MOL0     C 6913   8.410   6.960   6.475 -0.0090  0.9578 -0.5079
   52MOL0     C 6914   8.543   6.942   6.408 -0.6136 -0.3550 -0.9957
   52MOL0     O 6915   8.558   6.820   6.344  0.1786  0.0224 -0.1140
   52MOL0     C 6916   8.646   6.791   6.243 -0.6617  0.1922 -0.0358
   52MOL0     C 6917   8.778   6.846   6.236 -0.2052  0.1981  0.7648
   52MOL0     C 6918   8.860   6.832   6.115 -0.0648 -0.0879 -1.3317
   52MOL0     C 6919   8.820   6.737   6.021  0.2902 -0.0976  0.1856
   52MOL0     O 6920   8.893   6.711   5.906  1.0595 -0.8864 -0.2160
   52MOL0     C 6921   8.978   6.593   5.911 -0.3344 -0.2544 -0.0681
   52MOL0     C 6922   9.067   6.600   5.795 -0.4394 -0.7065  0.1529
   52MOL0     C 6923   9.190   6.692   5.806  0.2024 -0.2914 -0.0150
   52MOL0     C 6924   9.262   6.676   5.677  0.1344 -0.0822 -0.1072
   52MOL0     C 6925   9.316   6.536   5.631  0.8310 -0.5543 -0.6329
   52MOL0     C 6926   9.445   6.494   5.688  0.1152 -0.3152 -0.4030
   52MOL0     C 6927   9.483   6.358   5.635 -0.7495 -0.1061  1.0991
   52MOL0     C 6928   9.616   6.306   5.692 -0.1248 -1.1153  0.1937
   52MOL0    Cl 6929   9.704   6.202   5.575  0.4635  0.3734 -0.5401
   52MOL0     C 6930   8.688   6.672   6.033 -0.1042  0.1348 -0.1131
   52MOL0     C 6931   8.604   6.702   6.145 -0.6002  0.0123  0.1550
   52MOL0     O 6932   8.632   7.030   6.411 -0.6928  0.4144  0.3930
   52MOL0     C 6933   8.390   7.063   6.566 -0.4899 -0.4025 -0.0071
   52MOL0     C 6934   8.269   7.077   6.632 -1.1261 -0.0790 -0.7591
   52MOL0     N 6935   8.069   7.320   7.262 -0.4769 -0.0954 -0.4657
   52MOL0     N 6936   8.009   7.382   7.363 -0.1867 -0.1902 -0.1128
   52MOL0     C 6937   8.669   7.338   8.258  0.2525 -0.2509 -0.1297
   52MOL0     C 6938   8.796   7.356   8.317  1.1961 -0.5548  0.6443
   52MOL0     C 6939   9.235   7.413   8.445  0.4138 -1.2041 -0.9939
   52MOL0     C 6940   9.301   7.289   8.443  1.0153 -1.1064  0.1665
   52MOL0     C 6941   9.426   7.288   8.502 -1.0404 -0.5818  0.9690
   52MOL0     C 6942   9.488   7.402   8.557  0.5576  0.1973  0.6667
   52MOL0     O 6943   9.612   7.383   8.607  0.1477  0.0814 -0.2061
   52MOL0     C 6944   9.607   7.358   8.747 -0.0644  0.0734  0.1917
   52MOL0     C 6945   9.725   7.282   8.799 -0.2617 -0.5038 -0.2620
   52MOL0     C 6946   9.859   7.309   8.730 -0.7678 -0.1166  0.0500
   52MOL0     C 6947   9.964   7.216   8.788  0.1249 -0.4671  0.6034
   52MOL0     C 6948  10.096   7.268   8.742 -0.6784 -0.4408 -0.6699
   52MOL0     C 6949  10.201   7.325   8.706  1.0078  0.6379 -0.3761
   52MOL0     C 6950   9.423   7.526   8.532 -0.7636 -0.0903 -0.5233
   52MOL0     C 6951   9.297   7.533   8.484  0.7326 -0.1889  0.0090
   52MOL0     C 6952   9.246   7.669   8.439 -0.4374 -0.7433 -0.5363
   52MOL0     H 6953   8.962   7.109   8.161 -1.2012  0.1068 -2.2681
   52MOL0     H 6954   8.745   7.087   8.052 -1.8370  2.2274 -1.6780
   52MOL0     H 6955   8.391   7.315   8.227  1.0320 -0.2489  0.0083
   52MOL0     H 6956   8.459   7.413   8.093 -3.7249  3.2264  4.8361
   52MOL0     H 6957   8.244   7.380   8.044 -2.4472 -0.4607 -2.0780
   52MOL0     H 6958   8.250   7.206   8.074  0.8764 -1.0349  0.3819
   52MOL0     H 6959   8.387   7.165   7.891  0.6824  1.5569  2.6678
   52MOL0     H 6960   8.394   7.322   7.827 -1.4000  1.8415 -0.0643
   52MOL0     H 6961   8.245   7.234   7.700  3.7213  2.9383  1.3376
   52MOL0     H 6962   8.144   7.155   7.827 -1.7255  0.6152 -2.8043
   52MOL0     H 6963   8.041   7.340   7.887 -1.5748  0.8683 -1.0388
   52MOL0     H 6964   8.164   7.449   7.845 -0.2818  0.1908 -0.9155
   52MOL0     H 6965   8.000   7.494   7.688 -0.1393  0.4200 -0.1678
   52MOL0     H 6966   8.123   7.393   7.599  0.0230  0.7833  1.0985
   52MOL0     H 6967   7.891   7.267   7.748  2.0517 -4.8925  0.8694
   52MOL0     H 6968   7.994   7.187   7.641  2.5037  0.3221  1.4557
   52MOL0     H 6969   7.763   7.232   7.539 -0.2819  0.4059 -0.5476
   52MOL0     H 6970   7.777   7.403   7.553 -0.7312  0.9028 -0.4356
   52MOL0     H 6971   7.816   7.115   7.343 -3.8923  2.6494  1.9010
   52MOL0     H 6972   8.138   7.065   7.148 -1.1626 -0.9904  0.1784
   52MOL0     H 6973   7.977   7.002   7.165 -1.8157  0.1733 -3.1705
   52MOL0     H 6974   7.888   7.147   6.983 -0.7871 -0.1592 -0.5477
   52MOL0     H 6975   8.046   7.245   6.981  0.8866  0.6113  2.7059
   52MOL0     H 6976   8.038   6.957   6.908  1.5357 -1.1294 -0.3703
   52MOL0     H 6977   8.178   7.072   6.905  0.1237 -3.1648 -0.2482
   52MOL0     H 6978   8.057   7.194   6.717  2.8154 -2.3674 -2.1879
   52MOL0     H 6979   7.908   7.109   6.768 -0.7289 -2.2673  1.4478
   52MOL0     H 6980   8.096   6.818   6.496  2.0487 -2.6873  0.3157
   52MOL0     H 6981   8.314   6.795   6.374 -0.3043  1.3462 -0.7362
   52MOL0     H 6982   8.805   6.903   6.325 -4.6020 -0.7895  3.0071
   52MOL0     H 6983   8.952   6.886   6.094 -0.6336  1.5122  0.0647
   52MOL0     H 6984   9.039   6.586   6.002  0.8139 -1.6145 -0.8989
   52MOL0     H 6985   8.914   6.505   5.915 -2.9856  1.5802  1.5276
   52MOL0     H 6986   9.095   6.496   5.779 -2.9733 -1.4607  0.1965
   52MOL0     H 6987   8.996   6.624   5.715 -2.2901 -1.4466  1.5181
   52MOL0     H 6988   9.171   6.799   5.819  0.4119 -0.2556  0.0015
   52MOL0     H 6989   9.249   6.659   5.893  1.3056 -1.1700 -1.0609
   52MOL0     H 6990   9.353   6.737   5.681 -2.6331  4.6417 -1.1006
   52MOL0     H 6991   9.198   6.708   5.594 -3.0757  3.6888  3.3982
   52MOL0     H 6992   9.321   6.536   5.522 -2.9614 -0.0344 -0.9644
   52MOL0     H 6993   9.240   6.457   5.639  0.0780  0.3259  2.1671
   52MOL0     H 6994   9.522   6.570   5.671  2.7701 -3.0074 -1.3263
   52MOL0     H 6995   9.434   6.488   5.796 -2.1584  2.5322 -0.3785
   52MOL0     H 6996   9.490   6.367   5.526 -0.6728  0.4373  1.1433
   52MOL0     H 6997   9.405   6.285   5.660 -0.7664 -1.4548 -2.3192
   52MOL0     H 6998   9.684   6.389   5.712  0.4841 -1.3509 -0.8340
   52MOL0     H 6999   9.599   6.264   5.792 -1.8197  2.6080  1.6487
   52MOL0     H 7000   8.648   6.600   5.962 -2.2848  0.1664  0.9849
   52MOL0     H 7001   8.505   6.670   6.175 -0.1782  0.5230  2.2301
   52MOL0     H 7002   8.479   7.126   6.572  0.0621 -1.2603  1.1689
   52MOL0     H 7003   8.260   7.161   6.701 -0.0431  0.1503 -0.8802
   52MOL0     H 7004   8.591   7.403   8.298  1.7672  1.0641  0.8270
   52MOL0     H 7005   8.808   7.430   8.396 -0.1968 -1.2165  1.5179
   52MOL0     H 7006   9.254   7.205   8.395  0.0365  0.2703 -1.3777
   52MOL0     H 7007   9.474   7.193   8.522 -0.3404 -0.3037  0.6431
   52MOL0     H 7008   9.508   7.322   8.775  0.1340  0.0379  0.8788
   52MOL0     H 7009   9.620   7.456   8.796  1.6933 -1.9914  4.4093
   52MOL0     H 7010   9.696   7.176   8.800 -2.9404  0.1164  2.4585
   52MOL0     H 7011   9.735   7.292   8.908 -2.4141 -3.0895  0.2938
   52MOL0     H 7012   9.892   7.412   8.750  0.5838 -1.1097  3.6540
   52MOL0     H 7013   9.848   7.289   8.623 -0.3954 -0.7670  0.1283
   52MOL0     H 7014   9.948   7.202   8.896  1.1138  1.4287  1.0358
   52MOL0     H 7015   9.960   7.117   8.741  2.2442 -1.0932  1.6380
   52MOL0     H 7016  10.294   7.374   8.685  0.7016  1.1572 -0.5436
   52MOL0     H 7017   9.480   7.611   8.567  3.4547 -2.9805  0.3303
   52MOL0     H 7018   9.159   7.707   8.492  1.3069  0.5835  1.5699
   52MOL0     H 7019   9.328   7.738   8.460  0.0394 -2.1733  3.0629
   52MOL0     H 7020   9.229   7.689   8.332 -0.4007  2.1898 -0.0715
   53MOL0     O 7021   4.492   1.773   1.523  0.0770  0.1806  0.1694
   53MOL0     C 7022   4.427   1.769   1.627  0.4842  0.3069 -0.3049
   53MOL0     O 7023   4.447   1.843   1.735 -0.2648 -0.5163 -0.1084
   53MOL0     C 7024   4.566   1.892   1.787 -0.1282  0.9299 -0.5491
   53MOL0     C 7025   4.690   1.894   1.723  0.7149  0.6950 -0.1231
   53MOL0     C 7026   4.794   1.981   1.766  0.2079 -0.2970 -0.8660
   53MOL0     C 7027   4.780   2.051   1.887  0.3729 -0.1464  0.6688
   53MOL0     O 7028   4.879   2.127   1.945  0.0882  0.7660 -0.2093
   53MOL0     C 7029   4.961   2.214   1.860 -0.1872  0.5594 -0.9443
   53MOL0     C 7030   5.000   2.346   1.942  0.3809  0.7475  0.8979
   53MOL0     C 7031   5.141   2.348   2.003  0.2590  0.6900 -0.2645
   53MOL0     C 7032   5.147   2.249   2.118 -1.1816  0.3846 -0.3450
   53MOL0     C 7033   5.288   2.202   2.161 -0.0510  0.1556 -0.8172
   53MOL0     C 7034   5.381   2.327   2.176 -0.6997 -0.4795  0.1700
   53MOL0     C 7035   5.527   2.286   2.204  0.5061 -0.3667  0.3034
   53MOL0     C 7036   5.625   2.390   2.164 -0.3016 -0.3477 -0.1854
   53MOL0     N 7037   5.746   2.370   2.232  0.6028  0.0515  0.8921
   53MOL0     C 7038   5.839   2.277   2.194  0.9814 -0.1268 -0.3093
   53MOL0     C 7039   5.942   2.312   2.264 -0.5222 -0.1610 -0.6251
   53MOL0     C 7040   6.068   2.240   2.265  0.1637 -0.6814 -0.1786
   53MOL0     C 7041   6.112   2.191   2.403 -0.1700  0.1452  0.5977
   53MOL0     C 7042   6.232   2.096   2.405 -1.0770 -0.0102 -0.1581
   53MOL0     C 7043   6.362   2.162   2.361  0.4672 -0.1996  0.0212
   53MOL0     O 7044   6.474   2.113   2.434  0.6490  0.3088  0.2105
   53MOL0     C 7045   6.587   2.165   2.389  0.5518 -0.3960  0.5318
   53MOL0     C 7046   6.595   2.269   2.298  0.0701  0.9833  0.5610
   53MOL0     C 7047   6.718   2.329   2.272 -0.3429 -0.0022 -0.0777
   53MOL0     C 7048   6.832   2.278   2.342 -0.0720 -0.2836 -0.9799
   53MOL0     C 7049   6.960   2.342   2.330  0.3104  1.0345  0.4273
   53MOL0     O 7050   7.072   2.317   2.416 -0.0223 -0.5355  0.8456
   53MOL0     C 7051   7.192   2.382   2.400 -0.3640  0.3769  0.9337
   53MOL0     C 7052   7.192   2.525   2.387 -0.0911 -0.2280 -0.2592
   53MOL0     C 7053   7.313   2.597   2.376 -0.8358 -0.0481 -0.1597
   53MOL0     C 7054   7.432   2.522   2.353  0.4035 -0.6130 -0.1275
   53MOL0     O 7055   7.546   2.599   2.328  0.1965  0.4370 -0.3741
   53MOL0     C 7056   7.669   2.528   2.289 -0.0276 -0.5307 -0.5446
   53MOL0     C 7057   7.766   2.639   2.231 -0.9717 -1.3922 -1.2979
   53MOL0     C 7058   7.898   2.583   2.165  0.6620  0.6973 -0.3563
   53MOL0     C 7059   7.963   2.691   2.077  0.8560 -0.9043 -0.1555
   53MOL0     C 7060   8.082   2.630   1.999 -0.9324  1.0283 -0.0152
   53MOL0     C 7061   8.150   2.726   1.912 -0.7504 -0.7147  0.3769
   53MOL0     C 7062   8.272   2.655   1.834  0.1726  0.8292 -0.2242
   53MOL0     C 7063   8.316   2.748   1.713 -0.3600  0.1939  0.0187
   53MOL0    Cl 7064   8.432   2.655   1.624  0.3426 -0.3120 -0.3023
   53MOL0     C 7065   7.425   2.379   2.355 -0.3848 -0.4056 -0.5650
   53MOL0     C 7066   7.310   2.307   2.372  0.1254 -0.1136 -0.9020
   53MOL0     O 7067   6.956   2.426   2.243 -0.4662 -0.5460  0.2998
   53MOL0     C 7068   6.818   2.158   2.419 -0.9582 -1.9822 -0.6681
   53MOL0     C 7069   6.697   2.113   2.450 -0.1076  0.5431 -0.0627
   53MOL0     N 7070   5.912   2.422   2.343 -0.2651  0.3926 -1.2176
   53MOL0     N 7071   5.788   2.452   2.325 -0.6175 -0.4457  0.1386
   53MOL0     C 7072   4.659   2.023   1.962  0.5131  0.5272 -0.4266
   53MOL0     C 7073   4.546   1.947   1.912 -0.2686  0.3384 -0.0391
   53MOL0     C 7074   4.293   1.719   1.612  0.0419  0.1819 -0.0025
   53MOL0     C 7075   4.272   1.574   1.626 -0.6267  0.4753  0.6725
   53MOL0     C 7076   4.149   1.513   1.617 -0.0535  0.1393 -0.8535
   53MOL0     C 7077   4.033   1.601   1.598  0.3449 -0.2594  0.5196
   53MOL0     O 7078   3.894   1.575   1.600 -0.3678 -0.2294 -0.0436
   53MOL0     C 7079   3.857   1.445   1.617 -1.1141 -0.2193 -0.6034
   53MOL0     C 7080   3.705   1.441   1.583 -0.2124  0.3687 -0.5711
   53MOL0     C 7081   3.609   1.511   1.681 -1.1874 -0.1132 -0.1766
   53MOL0     C 7082   3.481   1.559   1.627  0.5654  0.2283  0.1928
   53MOL0     C 7083   3.400   1.620   1.736 -0.0733 -0.5207  0.0283
   53MOL0     C 7084   3.340   1.672   1.824 -0.6682  0.6367  0.8833
   53MOL0     C 7085   4.057   1.741   1.565 -0.1962  0.1529 -0.8421
   53MOL0     C 7086   4.183   1.799   1.577  0.3273  0.6846  0.2698
   53MOL0     C 7087   4.195   1.951   1.560 -0.1358 -0.1182 -1.0362
   53MOL0     H 7088   4.693   1.850   1.624  3.6170  2.8083 -1.1400
   53MOL0     H 7089   4.885   1.990   1.707  0.4258  4.3723 -0.1475
   53MOL0     H 7090   5.050   2.166   1.818  0.0276  1.4133 -1.4937
   53MOL0     H 7091   4.905   2.240   1.770  0.4019 -0.7124 -1.7064
   53MOL0     H 7092   4.922   2.372   2.014  0.5967  0.3340  1.2889
   53MOL0     H 7093   4.999   2.423   1.864 -0.4184 -2.0853 -2.1139
   53MOL0     H 7094   5.173   2.446   2.039  0.0722  0.3210  0.9640
   53MOL0     H 7095   5.214   2.323   1.925  1.2390  2.0612  0.1766
   53MOL0     H 7096   5.084   2.273   2.204 -0.0235 -0.0270  0.6393
   53MOL0     H 7097   5.102   2.156   2.080 -1.7455  0.8504 -0.8468
   53MOL0     H 7098   5.269   2.152   2.256  1.3993 -0.0167 -0.5894
   53MOL0     H 7099   5.315   2.130   2.083 -2.7822  0.2131 -1.9337
   53MOL0     H 7100   5.380   2.391   2.087  1.2728  1.7476  1.6414
   53MOL0     H 7101   5.345   2.391   2.257  1.5037  2.8273 -1.2056
   53MOL0     H 7102   5.553   2.196   2.147  1.8587  0.7751 -0.9798
   53MOL0     H 7103   5.541   2.268   2.311  2.0498  0.9213  0.3500
   53MOL0     H 7104   5.639   2.374   2.057 -3.6150  0.0208 -0.7798
   53MOL0     H 7105   5.578   2.487   2.180  0.3525 -0.3534  2.0574
   53MOL0     H 7106   5.821   2.207   2.113 -0.7718 -1.0235  0.7838
   53MOL0     H 7107   6.061   2.161   2.190  3.1515  0.1842 -1.5287
   53MOL0     H 7108   6.142   2.313   2.231 -0.9324 -1.0101 -3.7456
   53MOL0     H 7109   6.124   2.277   2.470  2.6049  0.5970 -0.3884
   53MOL0     H 7110   6.029   2.134   2.447  0.0674  1.9496  3.7005
   53MOL0     H 7111   6.196   2.005   2.356  0.1086 -1.9755  2.3384
   53MOL0     H 7112   6.249   2.073   2.511 -1.0533  1.8095  0.2579
   53MOL0     H 7113   6.351   2.269   2.378 -2.1863 -0.2025 -1.1833
   53MOL0     H 7114   6.368   2.136   2.255  1.0947 -1.8436  0.4256
   53MOL0     H 7115   6.511   2.314   2.245  0.0763  0.9876  0.5545
   53MOL0     H 7116   6.716   2.429   2.231 -0.0523  0.9793  2.1613
   53MOL0     H 7117   7.100   2.577   2.408  2.4629  3.8556  2.0522
   53MOL0     H 7118   7.326   2.704   2.389 -0.2167 -0.4068  3.1516
   53MOL0     H 7119   7.715   2.468   2.368 -3.8476 -1.2149  1.4295
   53MOL0     H 7120   7.643   2.454   2.213 -1.3806  1.0108 -1.6619
   53MOL0     H 7121   7.703   2.692   2.159  1.0581 -1.9655 -3.6248
   53MOL0     H 7122   7.797   2.697   2.318  1.2927 -1.7570 -1.7825
   53MOL0     H 7123   7.976   2.543   2.230  0.2114 -3.7777 -2.1980
   53MOL0     H 7124   7.884   2.503   2.091  3.2838  1.6498 -2.0200
   53MOL0     H 7125   8.003   2.772   2.139  1.8922 -0.0710 -1.8340
   53MOL0     H 7126   7.893   2.735   2.006 -0.1220  1.1942  1.9724
   53MOL0     H 7127   8.043   2.542   1.948  0.9596  1.6125 -2.6988
   53MOL0     H 7128   8.159   2.594   2.068  0.1382  4.0601  0.5471
   53MOL0     H 7129   8.077   2.755   1.837 -0.1616  0.8654  0.3885
   53MOL0     H 7130   8.188   2.813   1.965  1.9343 -2.1712  1.0295
   53MOL0     H 7131   8.235   2.563   1.789 -0.3556  1.1255 -0.4015
   53MOL0     H 7132   8.352   2.629   1.904 -1.3694  1.4363  1.8837
   53MOL0     H 7133   8.246   2.788   1.639  0.5670  1.9965  0.0604
   53MOL0     H 7134   8.365   2.836   1.755 -0.7598 -0.5255  2.1137
   53MOL0     H 7135   7.517   2.322   2.350  0.4047  0.5934  1.4963
   53MOL0     H 7136   7.326   2.200   2.369 -0.3463 -0.1645 -2.0194
   53MOL0     H 7137   6.909   2.136   2.475 -0.1646 -0.1958 -1.1649
   53MOL0     H 7138   6.681   2.034   2.523  0.3013 -2.8192 -3.3223
   53MOL0     H 7139   4.655   2.060   2.064 -1.6520  1.0057 -0.6268
   53MOL0     H 7140   4.450   1.951   1.963  0.2745 -0.7032  1.1232
   53MOL0     H 7141   4.354   1.508   1.651 -1.3760 -1.2716 -1.1251
   53MOL0     H 7142   4.144   1.407   1.637  2.5701 -0.5523 -3.1415
   53MOL0     H 7143   3.878   1.410   1.718 -1.3982 -1.1393 -0.8541
   53MOL0     H 7144   3.910   1.380   1.546  0.6553 -2.1862  2.3266
   53MOL0     H 7145   3.678   1.335   1.576  2.1914 -0.2624 -1.2580
   53MOL0     H 7146   3.689   1.479   1.482  0.7371 -1.6793 -1.5354
   53MOL0     H 7147   3.663   1.594   1.727  1.2865  0.1007 -3.1312
   53MOL0     H 7148   3.595   1.436   1.759 -0.7115  0.6543  0.6642
   53MOL0     H 7149   3.500   1.632   1.547  0.1152 -0.3383 -0.4420
   53MOL0     H 7150   3.433   1.473   1.578  2.1955 -0.5310 -0.1546
   53MOL0     H 7151   3.270   1.720   1.890 -0.8901  2.6215 -0.7141
   53MOL0     H 7152   3.985   1.818   1.537  0.4445  0.7827 -0.7822
   53MOL0     H 7153   4.129   1.973   1.476 -1.9222 -2.6319 -0.4108
   53MOL0     H 7154   4.160   1.999   1.652  1.0352  1.0198 -1.1534
   53MOL0     H 7155   4.300   1.980   1.550  0.0567  0.1920  1.3561
   54MOL0     O 7156   3.462   0.643   9.090 -0.0269  0.3318  0.0392
   54MOL0     C 7157   3.398   0.722   9.022  0.5444  0.0317  0.2318
   54MOL0     O 7158   3.370   0.845   9.055 -0.1597  0.5273  0.2606
   54MOL0     C 7159   3.417   0.889   9.172 -0.0128  0.3293  0.3983
   54MOL0     C 7160   3.543   0.951   9.185 -0.1826 -0.7599 -0.3068
   54MOL0     C 7161   3.596   1.003   9.308 -0.1555  0.4509 -0.7179
   54MOL0     C 7162   3.518   1.003   9.426 -0.1686 -0.0239  1.1960
   54MOL0     O 7163   3.566   1.051   9.544 -0.1481  0.4373  0.0740
   54MOL0     C 7164   3.655   1.161   9.543 -0.1642 -0.2902  0.1200
   54MOL0     C 7165   3.647   1.209   9.694 -0.5951  0.6523  0.4924
   54MOL0     C 7166   3.729   1.340   9.720  0.2465  0.7717 -0.4641
   54MOL0     C 7167   3.712   1.384   9.872  0.5186 -0.2186 -0.2108
   54MOL0     C 7168   3.782   1.522   9.892 -0.3814  0.0068 -0.9338
   54MOL0     C 7169   3.797   1.566  10.043  0.6171  0.3480  0.1795
   54MOL0     C 7170   3.667   1.572  10.127  0.8360 -0.1996 -0.2933
   54MOL0     C 7171   3.599   1.716  10.103 -0.0911 -0.0807  0.7676
   54MOL0     N 7172   3.470   1.736  10.171 -0.9653  0.8835 -0.5462
   54MOL0     C 7173   3.455   1.757  10.305 -0.2793  0.1170  0.2501
   54MOL0     C 7174   3.324   1.733  10.331 -0.4570  0.5424  0.0375
   54MOL0     C 7175   3.253   1.739  10.470  1.1755  0.8231  1.0139
   54MOL0     C 7176   3.334   1.789  10.584 -0.1152 -0.6754 -0.2394
   54MOL0     C 7177   3.276   1.760  10.732  0.3906 -0.8901 -0.0087
   54MOL0     C 7178   3.129   1.778  10.736 -0.7785 -0.0593 -0.2761
   54MOL0     O 7179   3.072   1.793  10.868  0.5088  0.3197  0.0905
   54MOL0     C 7180   2.941   1.769  10.892 -0.2120 -0.4912 -0.0112
   54MOL0     C 7181   2.909   1.760  11.027  0.7081 -0.3676 -0.0657
   54MOL0     C 7182   2.775   1.748  11.072 -0.2918  0.1139  0.4864
   54MOL0     C 7183   2.677   1.749  10.974  0.4697  0.6358  0.3798
   54MOL0     C 7184   2.532   1.736  11.022  0.0745 -0.3936 -0.0770
   54MOL0     O 7185   2.431   1.720  10.928  0.0558 -0.0650 -0.0248
   54MOL0     C 7186   2.306   1.738  10.982  0.3245 -0.2575  0.2073
   54MOL0     C 7187   2.196   1.647  10.970 -0.2957  0.0764  0.0326
   54MOL0     C 7188   2.066   1.670  11.020  0.3402  0.2923 -1.5425
   54MOL0     C 7189   2.041   1.793  11.074  0.6681 -0.5750 -0.6460
   54MOL0     O 7190   1.925   1.834  11.126 -0.1772  0.2849  0.0452
   54MOL0     C 7191   1.804   1.774  11.078  0.3357  0.0734  1.5155
   54MOL0     C 7192   1.679   1.859  11.116  0.2588  0.7457  0.0708
   54MOL0     C 7193   1.549   1.772  11.092  0.1123 -0.2757  0.2126
   54MOL0     C 7194   1.423   1.860  11.110 -0.1275 -0.7357 -0.4784
   54MOL0     C 7195   1.396   1.976  11.003 -0.4496  0.2633  0.2197
   54MOL0     C 7196   1.283   2.071  11.049  0.7956 -0.3932  0.0116
   54MOL0     C 7197   1.191   2.110  10.924  1.0367  0.4686 -0.0842
   54MOL0     C 7198   1.066   2.202  10.969  0.2416  0.6024 -0.1862
   54MOL0    Cl 7199   0.952   2.126  11.079 -0.5099 -0.0536 -0.5433
   54MOL0     C 7200   2.142   1.887  11.085  0.4135 -0.3180 -0.2368
   54MOL0     C 7201   2.268   1.857  11.036 -0.1043 -0.3808 -0.2991
   54MOL0     O 7202   2.516   1.725  11.146 -0.5663  1.0959 -0.1133
   54MOL0     C 7203   2.713   1.753  10.832  0.1235 -0.3619 -0.3879
   54MOL0     C 7204   2.844   1.782  10.794  0.0713 -1.9796  1.2390
   54MOL0     N 7205   3.259   1.712  10.211  0.3595 -0.3907  0.0774
   54MOL0     N 7206   3.347   1.717  10.110 -0.3200  0.5305  0.1117
   54MOL0     C 7207   3.390   0.942   9.421 -0.2728 -0.0086 -0.1267
   54MOL0     C 7208   3.340   0.897   9.290  0.2156  0.7050  0.1417
   54MOL0     C 7209   3.334   0.678   8.897 -0.0907  0.4678 -0.0275
   54MOL0     C 7210   3.196   0.683   8.890  0.2549  0.5667 -0.0864
   54MOL0     C 7211   3.128   0.623   8.787 -0.5685  0.6439 -0.1907
   54MOL0     C 7212   3.200   0.579   8.671 -0.1632  0.2241 -0.4852
   54MOL0     O 7213   3.138   0.527   8.560 -1.0800 -0.1647  0.1046
   54MOL0     C 7214   2.996   0.551   8.537  0.4165 -0.3422 -0.6202
   54MOL0     C 7215   2.922   0.431   8.576  0.8585  0.2475 -0.2290
   54MOL0     C 7216   2.774   0.456   8.555  1.7457 -1.2614  0.9618
   54MOL0     C 7217   2.686   0.359   8.631  1.1954 -0.0271  0.2813
   54MOL0     C 7218   2.682   0.234   8.552  0.2694 -0.7168 -0.6509
   54MOL0     C 7219   2.682   0.128   8.502 -0.1980  0.7115  0.7175
   54MOL0     C 7220   3.339   0.586   8.670 -0.1964  0.3645 -0.7278
   54MOL0     C 7221   3.408   0.631   8.788  0.3185  0.6720  0.6194
   54MOL0     C 7222   3.557   0.625   8.783 -0.2482  0.5756 -0.0561
   54MOL0     H 7223   3.618   0.950   9.106  0.0496  2.4551 -0.2578
   54MOL0     H 7224   3.699   1.039   9.312  0.3970 -1.1386  1.8630
   54MOL0     H 7225   3.758   1.141   9.513 -0.5272  1.1965 -2.4024
   54MOL0     H 7226   3.611   1.242   9.484  0.3001  0.0286  0.2121
   54MOL0     H 7227   3.681   1.121   9.750 -0.9257 -3.3273 -4.7639
   54MOL0     H 7228   3.544   1.243   9.710 -0.9872  0.7657 -1.9288
   54MOL0     H 7229   3.695   1.422   9.655 -0.8033 -0.5180 -1.5902
   54MOL0     H 7230   3.834   1.329   9.692  0.2189  0.4152 -0.4256
   54MOL0     H 7231   3.608   1.392   9.906  0.9936  4.5787  0.8420
   54MOL0     H 7232   3.754   1.309   9.939  1.3634  1.5541  1.3331
   54MOL0     H 7233   3.884   1.506   9.856  0.2185 -1.1499  1.1314
   54MOL0     H 7234   3.742   1.599   9.826  0.0510  0.5977 -0.5119
   54MOL0     H 7235   3.866   1.498  10.093 -0.0100 -0.0892  0.4679
   54MOL0     H 7236   3.841   1.666  10.044  1.5056 -0.0287  1.4198
   54MOL0     H 7237   3.686   1.559  10.234 -1.6271 -3.0987 -0.0839
   54MOL0     H 7238   3.607   1.488  10.091  2.6703 -1.6493 -0.1244
   54MOL0     H 7239   3.664   1.798  10.137  2.4398 -2.8948  3.2736
   54MOL0     H 7240   3.571   1.728   9.997  0.0269 -0.5866  0.6744
   54MOL0     H 7241   3.536   1.790  10.370  0.5108  3.8278 -2.2646
   54MOL0     H 7242   3.166   1.804  10.459 -2.0741 -2.9963  1.7992
   54MOL0     H 7243   3.228   1.634  10.486  1.1663  0.2984 -1.9569
   54MOL0     H 7244   3.437   1.753  10.591 -0.2652 -0.7735  3.2989
   54MOL0     H 7245   3.338   1.897  10.574  0.0844 -0.6402  0.2019
   54MOL0     H 7246   3.331   1.822  10.804 -1.4250  2.6459 -1.4256
   54MOL0     H 7247   3.297   1.654  10.752  1.3123 -0.4674  1.3984
   54MOL0     H 7248   3.090   1.692  10.680 -0.6130 -0.4769  0.2403
   54MOL0     H 7249   3.109   1.866  10.675 -2.0500  0.0199  0.2214
   54MOL0     H 7250   2.981   1.778  11.107 -0.0976  1.9546  0.2224
   54MOL0     H 7251   2.750   1.739  11.177 -0.6297 -1.3601  0.2882
   54MOL0     H 7252   2.208   1.557  10.910  1.9478  0.9569 -0.9694
   54MOL0     H 7253   1.985   1.598  11.009 -2.2676  3.0507 -1.6626
   54MOL0     H 7254   1.819   1.767  10.970  2.0297 -1.7532  1.8200
   54MOL0     H 7255   1.790   1.680  11.131  1.9204 -2.0174 -1.5169
   54MOL0     H 7256   1.693   1.890  11.220  1.0773 -1.0296  0.5144
   54MOL0     H 7257   1.678   1.948  11.052 -0.4684  0.2747 -0.5793
   54MOL0     H 7258   1.554   1.750  10.985 -0.4236 -4.3524  0.8474
   54MOL0     H 7259   1.542   1.687  11.161  0.1100 -1.5994 -1.3595
   54MOL0     H 7260   1.431   1.912  11.207  1.5733 -0.3460 -0.7906
   54MOL0     H 7261   1.338   1.792  11.108 -0.7459  0.0227 -2.2143
   54MOL0     H 7262   1.354   1.918  10.920 -2.7281 -0.5910  1.8413
   54MOL0     H 7263   1.482   2.031  10.963 -0.6442 -0.6851 -1.5926
   54MOL0     H 7264   1.225   2.021  11.127 -1.5830  1.3083 -0.5656
   54MOL0     H 7265   1.308   2.167  11.094  1.3460  0.4066 -1.9025
   54MOL0     H 7266   1.150   2.016  10.884 -3.0512  1.5101  1.2012
   54MOL0     H 7267   1.247   2.163  10.846 -1.4902  2.3361 -0.7186
   54MOL0     H 7268   1.095   2.292  11.023 -2.4679  1.4677 -0.0215
   54MOL0     H 7269   1.022   2.234  10.874  1.1838 -0.9944 -1.2246
   54MOL0     H 7270   2.115   1.987  11.119 -0.8449 -0.4812 -0.7088
   54MOL0     H 7271   2.344   1.934  11.040 -0.2200 -0.2880  0.1914
   54MOL0     H 7272   2.634   1.757  10.757  0.5583  0.9912 -0.8036
   54MOL0     H 7273   2.866   1.799  10.689  2.4575 -0.0569  1.9582
   54MOL0     H 7274   3.343   0.929   9.518  0.9307 -0.7851  0.3772
   54MOL0     H 7275   3.239   0.857   9.296  0.0781  0.9018 -0.7317
   54MOL0     H 7276   3.157   0.736   8.976 -1.1480  1.4667 -1.2279
   54MOL0     H 7277   3.025   0.594   8.806 -0.3905  0.3796  0.4072
   54MOL0     H 7278   2.975   0.569   8.431 -1.4737  1.7369  0.0412
   54MOL0     H 7279   2.966   0.637   8.597  3.2191 -0.5016  1.1789
   54MOL0     H 7280   2.944   0.408   8.681 -2.5580 -1.1821  0.3118
   54MOL0     H 7281   2.953   0.348   8.511  0.2558 -0.7885  0.7610
   54MOL0     H 7282   2.744   0.462   8.450  1.5855 -2.4656  0.9189
   54MOL0     H 7283   2.749   0.555   8.594  0.9872 -0.9982 -0.1704
   54MOL0     H 7284   2.730   0.343   8.730 -0.9835 -1.4539  1.0807
   54MOL0     H 7285   2.585   0.395   8.651  1.3510  0.5109  0.1123
   54MOL0     H 7286   2.687   0.032   8.454  2.0632  0.8051  0.6411
   54MOL0     H 7287   3.386   0.553   8.578  1.8453 -1.2941  0.8043
   54MOL0     H 7288   3.603   0.701   8.846  1.9192 -0.4570 -0.3083
   54MOL0     H 7289   3.601   0.526   8.798  0.1601  0.3064 -2.4790
   54MOL0     H 7290   3.592   0.651   8.682  2.9875 -0.4874  0.6818
   55MOL0     O 7291   5.482  10.407   5.050  0.5861  0.3116  0.2907
   55MOL0     C 7292   5.460  10.445   5.166 -0.3694  0.1860 -1.0758
   55MOL0     O 7293   5.564  10.442   5.261  0.3585 -0.0803 -0.0869
   55MOL0     C 7294   5.693  10.419   5.229  0.1009  0.7442 -0.7160
   55MOL0     C 7295   5.730  10.307   5.160 -0.9335 -0.2538  0.6983
   55MOL0     C 7296   5.868  10.279   5.145  0.1043 -0.2603 -1.5197
   55MOL0     C 7297   5.968  10.367   5.188  0.9190  1.4250  0.2224
   55MOL0     O 7298   6.098  10.344   5.159  0.3424 -0.1009  0.2157
   55MOL0     C 7299   6.135  10.357   5.016  0.3625  0.1520 -1.6467
   55MOL0     C 7300   6.264  10.437   5.011 -0.6095  0.6253 -0.7050
   55MOL0     C 7301   6.234  10.576   5.042 -0.1124  0.7981 -1.0827
   55MOL0     C 7302   6.372  10.641   5.045 -0.4725 -1.2324 -0.6303
   55MOL0     C 7303   6.354  10.798   5.070  0.1621  0.8747  0.0369
   55MOL0     C 7304   6.494  10.874   5.073  0.3906  0.1682  0.1319
   55MOL0     C 7305   6.569  10.854   5.199 -0.5044 -0.6355 -1.0497
   55MOL0     C 7306   6.701  10.779   5.192 -0.7486 -0.2197 -0.2855
   55MOL0     N 7307   6.813  10.851   5.137 -0.8281  0.3716  0.6698
   55MOL0     C 7308   6.878  10.945   5.207  1.0548 -0.1092 -0.1454
   55MOL0     C 7309   6.992  10.964   5.134  0.6166  0.2831 -1.0633
   55MOL0     C 7310   7.102  11.059   5.176  0.1993  0.1057 -0.0504
   55MOL0     C 7311   7.238  11.043   5.099  0.9577 -0.4786 -0.1190
   55MOL0     C 7312   7.337  11.111   5.193  1.3123 -0.2097 -0.1528
   55MOL0     C 7313   7.467  11.154   5.130  0.5864 -0.1980 -0.9873
   55MOL0     O 7314   7.547  11.195   5.244 -0.7923 -0.0509 -0.8604
   55MOL0     C 7315   7.667  11.255   5.226  0.0946  1.0253  0.0872
   55MOL0     C 7316   7.723  11.291   5.100  0.9290  0.3086 -0.8382
   55MOL0     C 7317   7.860  11.336   5.104 -0.4250  0.2509 -0.7292
   55MOL0     C 7318   7.936  11.350   5.220  0.0138 -0.5148 -0.0434
   55MOL0     C 7319   8.080  11.378   5.216 -0.5388 -0.3155  0.5757
   55MOL0     O 7320   8.125  11.438   5.331  0.0430 -0.0789  0.3118
   55MOL0     C 7321   8.253  11.484   5.346  0.1525 -0.6020  0.5050
   55MOL0     C 7322   8.300  11.592   5.285  0.4956  0.3138  1.2829
   55MOL0     C 7323   8.421  11.644   5.309  0.4849 -0.0008 -0.2585
   55MOL0     C 7324   8.501  11.606   5.411 -0.5007 -0.7511  0.2089
   55MOL0     O 7325   8.629  11.666   5.431 -0.0623  0.2944 -0.2635
   55MOL0     C 7326   8.696  11.637   5.553 -0.6327  0.7923  0.7252
   55MOL0     C 7327   8.785  11.759   5.602 -0.7130 -0.5988 -0.7644
   55MOL0     C 7328   8.880  11.808   5.488 -0.0824  0.0222 -0.2604
   55MOL0     C 7329   8.938  11.941   5.526  0.7229 -0.6785  0.9235
   55MOL0     C 7330   9.015  11.933   5.662  0.3401  0.5600  0.6059
   55MOL0     C 7331   9.100  12.063   5.664  0.4859  0.2065  0.6371
   55MOL0     C 7332   9.198  12.064   5.780 -0.3355 -0.4462 -0.1973
   55MOL0     C 7333   9.332  11.989   5.742  0.8695 -0.5011  0.1125
   55MOL0    Cl 7334   9.436  12.095   5.643 -0.1483  0.2417  0.0988
   55MOL0     C 7335   8.450  11.501   5.489 -0.0078 -0.4218 -0.2780
   55MOL0     C 7336   8.327  11.436   5.452  0.2962  0.3059  0.1195
   55MOL0     O 7337   8.151  11.349   5.116 -0.1149  0.6353 -0.6035
   55MOL0     C 7338   7.871  11.326   5.343  0.7106  1.3583  0.7095
   55MOL0     C 7339   7.736  11.283   5.345 -0.1141 -0.6109 -1.0770
   55MOL0     N 7340   6.998  10.867   5.032 -1.1553  0.2775  0.1292
   55MOL0     N 7341   6.888  10.805   5.034 -0.1523  1.0097  0.2743
   55MOL0     C 7342   5.929  10.473   5.261 -0.9541 -0.4543  0.4458
   55MOL0     C 7343   5.795  10.504   5.279 -0.5260  0.1508 -0.1610
   55MOL0     C 7344   5.326  10.504   5.198  0.0063  0.1957 -0.1453
   55MOL0     C 7345   5.320  10.608   5.303 -0.7697  0.0641  0.1086
   55MOL0     C 7346   5.203  10.693   5.309 -0.9072  0.3695 -0.3839
   55MOL0     C 7347   5.099  10.673   5.220  0.4206 -0.2080  0.5299
   55MOL0     O 7348   4.999  10.772   5.231 -0.3832  0.2534  0.2794
   55MOL0     C 7349   4.882  10.779   5.154 -0.1258  0.1740  0.2662
   55MOL0     C 7350   4.793  10.888   5.188 -0.2760  0.7997 -0.0282
   55MOL0     C 7351   4.667  10.882   5.100 -0.4404  0.4954 -0.2739
   55MOL0     C 7352   4.608  11.022   5.079  0.7001 -0.7214 -0.5794
   55MOL0     C 7353   4.564  11.095   5.203  0.0287  0.1545  0.1302
   55MOL0     C 7354   4.526  11.161   5.297 -0.7410 -0.4659 -0.7304
   55MOL0     C 7355   5.096  10.565   5.129 -0.2069 -0.4760  0.3089
   55MOL0     C 7356   5.211  10.485   5.116  0.4375  0.5344  0.6542
   55MOL0     C 7357   5.205  10.372   5.019  0.4136  0.0300 -0.0251
   55MOL0     H 7358   5.652  10.247   5.116 -0.8499 -0.5376  0.9387
   55MOL0     H 7359   5.901  10.205   5.073  0.7710  2.3518 -4.0807
   55MOL0     H 7360   6.154  10.254   4.984 -2.8515 -1.1500  0.1193
   55MOL0     H 7361   6.051  10.399   4.959 -0.9769  0.4210  0.3968
   55MOL0     H 7362   6.305  10.437   4.909  1.7492 -1.1799  0.1574
   55MOL0     H 7363   6.347  10.406   5.075  0.3807  1.3922 -1.5694
   55MOL0     H 7364   6.178  10.585   5.135  2.3922  0.5492  0.5497
   55MOL0     H 7365   6.177  10.619   4.959 -0.2709  0.8330 -0.9556
   55MOL0     H 7366   6.441  10.594   5.117  2.2054  0.5775 -1.8333
   55MOL0     H 7367   6.421  10.632   4.948 -0.3516 -1.1517 -0.5778
   55MOL0     H 7368   6.284  10.831   4.993 -1.7819 -0.8728  0.9638
   55MOL0     H 7369   6.307  10.804   5.169  0.6166 -1.8726  0.5014
   55MOL0     H 7370   6.553  10.850   4.984 -1.7866  0.7262 -1.5510
   55MOL0     H 7371   6.472  10.981   5.063  2.3315  0.7201  1.1632
   55MOL0     H 7372   6.513  10.799   5.275 -0.7432  1.2222  0.1965
   55MOL0     H 7373   6.589  10.950   5.249  2.2304 -1.6400  0.0121
   55MOL0     H 7374   6.720  10.749   5.295  0.7681 -0.3972 -0.5938
   55MOL0     H 7375   6.676  10.701   5.120 -0.6577 -0.0562 -0.4977
   55MOL0     H 7376   6.837  10.990   5.298 -2.9781 -0.5801 -1.5067
   55MOL0     H 7377   7.076  11.165   5.169  1.1036  0.5547  2.3632
   55MOL0     H 7378   7.112  11.029   5.281 -1.9673  2.7190  1.0208
   55MOL0     H 7379   7.262  10.937   5.095  0.5934 -0.5269 -1.7818
   55MOL0     H 7380   7.226  11.091   5.001  1.1733 -1.2117 -0.5056
   55MOL0     H 7381   7.349  11.033   5.268 -2.0285  0.8723  1.7013
   55MOL0     H 7382   7.290  11.196   5.243  0.1537 -1.4756  0.9995
   55MOL0     H 7383   7.464  11.241   5.064  1.1240 -1.0820 -2.2189
   55MOL0     H 7384   7.513  11.073   5.073  0.4602 -0.5779 -0.5605
   55MOL0     H 7385   7.657  11.283   5.014 -1.4939 -0.6926  1.0089
   55MOL0     H 7386   7.907  11.376   5.015 -0.0177  0.7233 -0.3065
   55MOL0     H 7387   8.228  11.652   5.231 -0.8028 -1.1470  1.3361
   55MOL0     H 7388   8.452  11.737   5.263 -0.0106 -0.0033 -0.6087
   55MOL0     H 7389   8.624  11.628   5.635  0.3051  1.1872  1.6334
   55MOL0     H 7390   8.753  11.544   5.546 -2.1797 -0.2284  1.3305
   55MOL0     H 7391   8.718  11.838   5.638 -4.9993 -3.6303 -1.3905
   55MOL0     H 7392   8.845  11.730   5.689  2.0061  1.2730 -1.8699
   55MOL0     H 7393   8.961  11.738   5.465  0.0742 -0.6451  2.0728
   55MOL0     H 7394   8.838  11.822   5.388  1.1481  1.6145 -0.6037
   55MOL0     H 7395   8.854  12.010   5.536 -0.7105 -2.2917  0.4497
   55MOL0     H 7396   8.997  11.975   5.441 -0.2556 -1.1992  0.0172
   55MOL0     H 7397   9.083  11.848   5.662 -1.3286 -0.8399  0.2110
   55MOL0     H 7398   8.947  11.925   5.747  2.2155 -0.9567  2.0349
   55MOL0     H 7399   9.163  12.052   5.575 -1.2565 -1.0560 -0.5112
   55MOL0     H 7400   9.044  12.156   5.652  1.9673  1.1951  1.1851
   55MOL0     H 7401   9.151  12.010   5.863 -0.6211 -0.6364 -0.4797
   55MOL0     H 7402   9.224  12.166   5.809 -1.4100 -0.4823  0.9349
   55MOL0     H 7403   9.381  11.955   5.834  1.2962  0.0097  0.0783
   55MOL0     H 7404   9.300  11.895   5.696  1.1393 -1.9050  2.5887
   55MOL0     H 7405   8.509  11.456   5.568  1.5735 -1.5987 -2.0395
   55MOL0     H 7406   8.300  11.346   5.507  0.9161 -1.1493 -1.8141
   55MOL0     H 7407   7.930  11.351   5.430  0.7249 -1.2358  1.5300
   55MOL0     H 7408   7.698  11.267   5.446  3.3926 -0.4623  0.4132
   55MOL0     H 7409   6.014  10.532   5.292  0.1621 -3.1677  3.0376
   55MOL0     H 7410   5.766  10.588   5.340 -0.6252  0.1681 -0.2308
   55MOL0     H 7411   5.405  10.626   5.369 -2.6173  1.9894  2.1081
   55MOL0     H 7412   5.188  10.766   5.388 -0.4531 -0.5897  0.6077
   55MOL0     H 7413   4.824  10.689   5.178  1.0240 -0.4546  0.7454
   55MOL0     H 7414   4.897  10.775   5.046 -1.1250  0.3615  0.1015
   55MOL0     H 7415   4.844  10.980   5.158 -0.2699  0.2671 -1.6983
   55MOL0     H 7416   4.764  10.898   5.294  2.3649  0.4186  0.7963
   55MOL0     H 7417   4.598  10.809   5.144  0.8577 -0.6870 -0.1361
   55MOL0     H 7418   4.685  10.855   4.996  0.5027  1.3955 -0.3618
   55MOL0     H 7419   4.680  11.089   5.030  0.6698  2.5918  3.3618
   55MOL0     H 7420   4.520  11.007   5.017  1.3149 -0.6223 -1.4844
   55MOL0     H 7421   4.474  11.203   5.381  0.3808  1.4503 -0.9221
   55MOL0     H 7422   5.007  10.562   5.068  0.6728 -0.5498 -0.9925
   55MOL0     H 7423   5.245  10.389   4.919 -2.5758  2.1727 -0.9901
   55MOL0     H 7424   5.259  10.282   5.051  2.9117  0.4988 -2.5290
   55MOL0     H 7425   5.101  10.346   4.998  0.1871  0.3930  0.6129
   56MOL0     O 7426   1.013   0.917   0.031 -0.5897 -0.4233  0.2929
   56MOL0     C 7427   0.902   0.930   0.082 -0.6516  0.5095  0.5287
   56MOL0     O 7428   0.788   0.969   0.016  0.1722  0.2373  0.0599
   56MOL0     C 7429   0.772   0.954  -0.116 -0.2644  0.1433 -0.0814
   56MOL0     C 7430   0.643   0.898  -0.152 -0.0213 -0.0673  0.3808
   56MOL0     C 7431   0.615   0.891  -0.283  0.2696  0.0993  0.8625
   56MOL0     C 7432   0.705   0.946  -0.379  0.0159  0.1476  0.1620
   56MOL0     O 7433   0.677   0.926  -0.520 -0.0314  0.7213 -0.2812
   56MOL0     C 7434   0.777   0.897  -0.622 -0.0497 -0.7918 -0.0776
   56MOL0     C 7435   0.718   0.803  -0.734  0.3926 -0.3771 -0.3179
   56MOL0     C 7436   0.677   0.663  -0.685 -0.3534 -0.6198 -0.3220
   56MOL0     C 7437   0.688   0.558  -0.788 -0.3609  0.3007  0.2747
   56MOL0     C 7438   0.571   0.542  -0.870 -0.5399  0.8932  0.3426
   56MOL0     C 7439   0.589   0.423  -0.972 -0.0297  0.3402  0.2299
   56MOL0     C 7440   0.453   0.382  -1.031  1.2891 -0.0219 -0.1287
   56MOL0     C 7441   0.421   0.455  -1.152 -0.3008 -1.0622 -0.0856
   56MOL0     N 7442   0.326   0.388  -1.238 -0.1794  0.7506 -0.4142
   56MOL0     C 7443   0.206   0.433  -1.283 -0.7319  0.5911 -0.3485
   56MOL0     C 7444   0.143   0.330  -1.349  0.3844  1.3345 -0.7240
   56MOL0     C 7445   0.004   0.326  -1.416  0.7928 -0.6733  0.1437
   56MOL0     C 7446  -0.112   0.334  -1.322 -0.3615  1.5061  0.8126
   56MOL0     C 7447  -0.237   0.240  -1.334 -0.1348 -0.4605  0.5600
   56MOL0     C 7448  -0.294   0.228  -1.479 -0.4311  0.4744  0.2646
   56MOL0     O 7449  -0.336   0.355  -1.506  0.5477  0.4930 -0.0102
   56MOL0     C 7450  -0.358   0.359  -1.646  1.0841 -0.1099 -0.8459
   56MOL0     C 7451  -0.463   0.296  -1.712  0.0532 -0.7992  0.3860
   56MOL0     C 7452  -0.471   0.303  -1.851 -0.7856 -0.6489  0.3057
   56MOL0     C 7453  -0.370   0.374  -1.931 -0.0324  0.4676  0.0308
   56MOL0     C 7454  -0.382   0.389  -2.078 -0.3106  0.0062  0.2190
   56MOL0     O 7455  -0.270   0.453  -2.147  0.3869 -0.2074  0.6935
   56MOL0     C 7456  -0.268   0.442  -2.289 -0.3260  0.0040 -1.0053
   56MOL0     C 7457  -0.159   0.399  -2.361  0.8018  0.4168 -0.4921
   56MOL0     C 7458  -0.157   0.410  -2.501 -0.7017 -0.3377 -0.4575
   56MOL0     C 7459  -0.263   0.468  -2.577 -0.6280  0.5715 -0.5749
   56MOL0     O 7460  -0.247   0.450  -2.709 -0.2418  0.4512 -0.3662
   56MOL0     C 7461  -0.369   0.499  -2.778  0.0031 -0.8861 -1.0416
   56MOL0     C 7462  -0.376   0.646  -2.798 -0.1567 -0.0569 -0.2140
   56MOL0     C 7463  -0.233   0.712  -2.825  0.5084  0.7991  0.5251
   56MOL0     C 7464  -0.254   0.856  -2.851  0.2536 -0.1536  0.5261
   56MOL0     C 7465  -0.127   0.937  -2.825  0.3782  0.2778  0.4543
   56MOL0     C 7466  -0.116   0.976  -2.678  0.4548  0.2785 -0.6604
   56MOL0     C 7467  -0.142   1.122  -2.651 -0.8098  0.3712  0.4506
   56MOL0     C 7468  -0.274   1.186  -2.713 -0.0304 -0.0006 -1.5404
   56MOL0    Cl 7469  -0.419   1.099  -2.637 -0.6120 -0.7481  0.1835
   56MOL0     C 7470  -0.374   0.499  -2.497 -0.6741 -0.3349  0.3020
   56MOL0     C 7471  -0.377   0.488  -2.358 -0.7528 -0.7194  0.9663
   56MOL0     O 7472  -0.470   0.316  -2.131 -0.0757  0.3088  0.4172
   56MOL0     C 7473  -0.277   0.441  -1.855  0.0308 -0.1477 -0.6897
   56MOL0     C 7474  -0.272   0.436  -1.720  0.0580  0.2010 -0.4055
   56MOL0     N 7475   0.224   0.221  -1.324  0.7076  0.1186 -0.6241
   56MOL0     N 7476   0.332   0.254  -1.264  1.2213 -0.0486  0.6416
   56MOL0     C 7477   0.832   0.993  -0.345  0.3674 -0.1463 -0.4155
   56MOL0     C 7478   0.871   1.001  -0.211 -0.0414  0.8122  0.6791
   56MOL0     C 7479   0.884   0.922   0.230 -0.6025 -0.3002  0.4781
   56MOL0     C 7480   0.751   0.890   0.274 -0.0257  0.5742  0.1793
   56MOL0     C 7481   0.728   0.867   0.412  0.8687  0.1456 -0.6357
   56MOL0     C 7482   0.828   0.885   0.504 -0.5740 -0.0316 -0.8142
   56MOL0     O 7483   0.829   0.861   0.639 -0.6799  0.6778 -0.1072
   56MOL0     C 7484   0.713   0.815   0.700 -0.2024 -0.9621 -0.2592
   56MOL0     C 7485   0.740   0.801   0.848  1.1165 -0.2753  0.2416
   56MOL0     C 7486   0.854   0.705   0.884  0.3436  0.0055  0.1856
   56MOL0     C 7487   0.985   0.771   0.942 -0.5084  0.1679 -0.6708
   56MOL0     C 7488   1.091   0.674   0.964  0.0203  0.5513 -0.8403
   56MOL0     C 7489   1.170   0.589   0.990  0.0291 -0.0492 -0.6595
   56MOL0     C 7490   0.961   0.915   0.461  0.3627 -0.6209 -0.0699
   56MOL0     C 7491   0.985   0.939   0.324  0.0548  0.4581 -0.1812
   56MOL0     C 7492   1.135   0.977   0.293  0.1917 -0.1679  0.0347
   56MOL0     H 7493   0.571   0.863  -0.079  0.5295 -2.2154 -0.0569
   56MOL0     H 7494   0.527   0.839  -0.320 -1.4755  2.2237  1.8186
   56MOL0     H 7495   0.789   0.994  -0.671 -1.8579  0.7722  2.3080
   56MOL0     H 7496   0.871   0.854  -0.586 -0.0156 -0.6259  0.0331
   56MOL0     H 7497   0.802   0.793  -0.804  1.3093  0.2457  0.6600
   56MOL0     H 7498   0.635   0.855  -0.783  0.7885  0.3850 -0.2003
   56MOL0     H 7499   0.575   0.664  -0.648 -0.0131 -1.3190  0.6776
   56MOL0     H 7500   0.750   0.625  -0.613  0.0770  0.8175  0.0292
   56MOL0     H 7501   0.779   0.573  -0.847 -0.4397  1.3729  0.4032
   56MOL0     H 7502   0.697   0.461  -0.739 -1.7826 -0.2344 -0.4607
   56MOL0     H 7503   0.486   0.519  -0.805 -2.0033 -2.5523 -2.4634
   56MOL0     H 7504   0.540   0.636  -0.917 -3.0401 -0.5573 -1.0925
   56MOL0     H 7505   0.656   0.456  -1.052  1.6760  0.4412  1.6570
   56MOL0     H 7506   0.634   0.339  -0.920  3.2494  2.2868  0.7985
   56MOL0     H 7507   0.371   0.404  -0.962 -1.8481  1.7449 -4.0461
   56MOL0     H 7508   0.451   0.273  -1.043 -0.1432 -0.4697  3.1414
   56MOL0     H 7509   0.389   0.559  -1.136 -1.8840 -1.5686  0.2113
   56MOL0     H 7510   0.505   0.460  -1.222  1.1567 -0.3536  1.6329
   56MOL0     H 7511   0.161   0.531  -1.263  0.4770  1.1591 -0.3261
   56MOL0     H 7512   0.004   0.417  -1.478  1.6106 -1.0279 -0.3987
   56MOL0     H 7513  -0.007   0.231  -1.469 -1.0132 -0.5737  0.3017
   56MOL0     H 7514  -0.078   0.322  -1.219  1.7329  0.8666  0.1049
   56MOL0     H 7515  -0.139   0.440  -1.323  0.7930  1.8291 -0.4147
   56MOL0     H 7516  -0.316   0.281  -1.270  2.2584  1.9468  2.1866
   56MOL0     H 7517  -0.206   0.138  -1.307  0.5399 -0.2079  0.7578
   56MOL0     H 7518  -0.378   0.158  -1.489 -1.4395  0.8513  4.3377
   56MOL0     H 7519  -0.217   0.200  -1.551  0.3062 -1.3182  1.6538
   56MOL0     H 7520  -0.529   0.231  -1.656 -0.8673  0.5850  0.9564
   56MOL0     H 7521  -0.554   0.255  -1.903  0.2631 -2.3654  0.1634
   56MOL0     H 7522  -0.080   0.352  -2.304 -0.5603  0.9142  1.9534
   56MOL0     H 7523  -0.065   0.373  -2.545 -0.2131 -0.8047  0.9097
   56MOL0     H 7524  -0.355   0.465  -2.881  0.9263  2.1491 -2.0315
   56MOL0     H 7525  -0.468   0.468  -2.743 -0.7336  2.6427  0.3996
   56MOL0     H 7526  -0.448   0.670  -2.876 -1.1183 -0.7521  0.4432
   56MOL0     H 7527  -0.421   0.690  -2.708 -1.2194  0.3752 -0.9484
   56MOL0     H 7528  -0.174   0.701  -2.734 -0.0482 -1.5550  0.6685
   56MOL0     H 7529  -0.186   0.657  -2.907 -2.7204 -0.0557 -0.9422
   56MOL0     H 7530  -0.331   0.898  -2.787  2.1745  0.2625  2.7139
   56MOL0     H 7531  -0.288   0.865  -2.955  1.5711 -0.8159  0.0151
   56MOL0     H 7532  -0.128   1.026  -2.888 -1.4518  0.5850  0.8634
   56MOL0     H 7533  -0.047   0.871  -2.861 -1.2656 -0.8396 -1.3315
   56MOL0     H 7534  -0.187   0.912  -2.623  1.3862 -0.3215 -0.1325
   56MOL0     H 7535  -0.014   0.963  -2.643  1.0252  4.2753 -0.4222
   56MOL0     H 7536  -0.053   1.178  -2.681  0.0945 -1.1845  0.1151
   56MOL0     H 7537  -0.160   1.132  -2.544 -0.1157 -0.0379  0.6042
   56MOL0     H 7538  -0.271   1.291  -2.683 -0.4211  0.2870 -2.4648
   56MOL0     H 7539  -0.275   1.206  -2.821  0.0564  4.1004 -0.9208
   56MOL0     H 7540  -0.462   0.534  -2.550 -1.7927 -2.2040  0.8258
   56MOL0     H 7541  -0.470   0.511  -2.308 -1.9067 -1.1318 -0.9085
   56MOL0     H 7542  -0.204   0.508  -1.901 -1.1779  2.6664  1.1701
   56MOL0     H 7543  -0.210   0.507  -1.666 -0.5021  1.4511 -1.3526
   56MOL0     H 7544   0.901   1.019  -0.424  0.8229  0.3191  0.1193
   56MOL0     H 7545   0.972   1.037  -0.198  1.4557 -2.8364  0.4361
   56MOL0     H 7546   0.681   0.852   0.200  0.4874  2.3223 -1.2638
   56MOL0     H 7547   0.629   0.836   0.445  1.6157 -0.2705  1.3180
   56MOL0     H 7548   0.678   0.721   0.656 -0.8605 -2.1713  2.6462
   56MOL0     H 7549   0.641   0.896   0.685  0.0634 -0.6004  0.3958
   56MOL0     H 7550   0.645   0.761   0.887 -0.2184  2.0081 -0.4906
   56MOL0     H 7551   0.771   0.900   0.882  0.5970  0.7461 -2.0596
   56MOL0     H 7552   0.867   0.645   0.793 -1.3106 -0.3446  0.1581
   56MOL0     H 7553   0.814   0.633   0.956  1.9447 -0.1387  0.9699
   56MOL0     H 7554   1.036   0.834   0.868  3.2372  1.9654  3.0251
   56MOL0     H 7555   0.978   0.827   1.036 -1.0509 -0.3564 -0.3893
   56MOL0     H 7556   1.248   0.515   1.000  2.4709  2.6346  4.2892
   56MOL0     H 7557   1.045   0.918   0.530  1.6810 -0.2357 -1.6312
   56MOL0     H 7558   1.206   0.932   0.363  0.5198 -0.5633 -0.5470
   56MOL0     H 7559   1.167   0.934   0.198  1.0094 -2.5405  1.3100
   56MOL0     H 7560   1.155   1.085   0.294  1.1104 -0.2791 -2.1818
   57MOL0     O 7561   4.354   5.450   0.766  0.8047  0.1542 -0.8214
   57MOL0     C 7562   4.299   5.430   0.873  0.0654 -1.1534  0.1854
   57MOL0     O 7563   4.334   5.336   0.962  0.0438 -0.0277 -0.0120
   57MOL0     C 7564   4.433   5.248   0.922  0.9194 -0.4789  0.7471
   57MOL0     C 7565   4.540   5.221   1.006  0.5275 -0.3085  0.3084
   57MOL0     C 7566   4.648   5.145   0.973 -1.1297  0.3155 -0.5719
   57MOL0     C 7567   4.659   5.084   0.843 -0.2568 -0.6791  0.5033
   57MOL0     O 7568   4.778   5.024   0.808 -0.1564 -0.1350  0.3291
   57MOL0     C 7569   4.774   4.922   0.701 -0.0517  0.4259 -0.0024
   57MOL0     C 7570   4.841   4.792   0.758 -0.5423  0.0281  0.3274
   57MOL0     C 7571   4.979   4.801   0.836 -0.7609 -0.1360  0.4638
   57MOL0     C 7572   5.083   4.871   0.747  0.0464 -0.0344 -0.2586
   57MOL0     C 7573   5.139   4.777   0.641 -0.0068 -0.5705 -0.1889
   57MOL0     C 7574   5.245   4.851   0.556  0.2515  0.6097  0.2283
   57MOL0     C 7575   5.324   4.758   0.469  0.1177 -0.1368  0.1203
   57MOL0     C 7576   5.370   4.839   0.344 -0.5848  0.0454  0.2491
   57MOL0     N 7577   5.443   4.964   0.378 -0.0817 -0.0615 -0.5090
   57MOL0     C 7578   5.570   4.959   0.439  0.1670  0.0939  0.1757
   57MOL0     C 7579   5.620   5.083   0.444  0.2314  0.6434 -1.0823
   57MOL0     C 7580   5.755   5.129   0.492 -0.3307 -0.6648 -0.0694
   57MOL0     C 7581   5.857   5.178   0.386 -0.5899  0.3872  0.1237
   57MOL0     C 7582   5.935   5.059   0.332  0.1376  0.8569  0.5219
   57MOL0     C 7583   6.057   5.099   0.242  0.7009  0.5984 -0.0437
   57MOL0     O 7584   6.155   5.131   0.335  0.3313 -0.0780 -0.0891
   57MOL0     C 7585   6.283   5.153   0.296 -0.1615 -0.4660 -0.1448
   57MOL0     C 7586   6.316   5.205   0.167  1.1251  0.5195 -0.1853
   57MOL0     C 7587   6.445   5.222   0.141 -0.5171  0.9840  0.6756
   57MOL0     C 7588   6.557   5.197   0.228  0.7547  0.4693 -0.8982
   57MOL0     C 7589   6.701   5.202   0.189  0.9475  0.0421  1.1298
   57MOL0     O 7590   6.729   5.263   0.070 -0.4382  0.3375  0.3057
   57MOL0     C 7591   6.857   5.328   0.065  0.6306 -0.9701 -0.6995
   57MOL0     C 7592   6.923   5.397   0.174 -1.6575  0.5017 -0.0079
   57MOL0     C 7593   7.045   5.463   0.155  0.4199  0.9241 -0.6473
   57MOL0     C 7594   7.102   5.461   0.032  0.6820  0.2458  0.1930
   57MOL0     O 7595   7.221   5.523   0.017 -0.0897  0.2518 -0.7340
   57MOL0     C 7596   7.332   5.465  -0.061 -0.2407  0.3893 -0.8260
   57MOL0     C 7597   7.430   5.587  -0.080 -0.0449  0.1189  0.2426
   57MOL0     C 7598   7.520   5.604   0.045 -0.2158  0.6487  0.7131
   57MOL0     C 7599   7.652   5.531   0.020  0.2946 -0.6358  0.1192
   57MOL0     C 7600   7.746   5.539   0.136  0.7226  0.2307 -0.1432
   57MOL0     C 7601   7.825   5.679   0.144 -0.2778 -0.6707 -0.1026
   57MOL0     C 7602   7.929   5.679   0.260 -0.6365 -0.2177 -0.4030
   57MOL0     C 7603   8.034   5.787   0.246  0.1957 -0.7585 -0.7648
   57MOL0    Cl 7604   8.145   5.786   0.384 -0.0200  0.5096 -0.2396
   57MOL0     C 7605   7.044   5.400  -0.075  0.9561 -0.5342 -0.9943
   57MOL0     C 7606   6.922   5.338  -0.055 -0.3188 -0.5354 -0.3358
   57MOL0     O 7607   6.784   5.144   0.262  0.7294 -0.2971 -0.1953
   57MOL0     C 7608   6.515   5.150   0.359  0.2870  0.2187  0.1300
   57MOL0     C 7609   6.381   5.124   0.388 -0.5529  0.3991  0.1651
   57MOL0     N 7610   5.529   5.161   0.385 -0.2933  0.0818 -0.1922
   57MOL0     N 7611   5.423   5.093   0.349 -0.5037  0.5061  0.0790
   57MOL0     C 7612   4.561   5.118   0.755 -0.1911 -0.5087  0.5327
   57MOL0     C 7613   4.446   5.191   0.789  0.6311  0.7178  0.0488
   57MOL0     C 7614   4.185   5.519   0.924  0.5265 -0.3285 -0.2305
   57MOL0     C 7615   4.147   5.523   1.065 -0.4817  0.2880  1.0171
   57MOL0     C 7616   4.062   5.622   1.110 -0.2426  0.4988 -0.6793
   57MOL0     C 7617   3.993   5.707   1.029  0.0002  0.2531  0.0531
   57MOL0     O 7618   3.887   5.793   1.050 -0.9697 -0.3684  1.5134
   57MOL0     C 7619   3.826   5.792   1.182  0.3159  0.9836  0.8489
   57MOL0     C 7620   3.730   5.913   1.193  0.4350  0.2008 -0.5291
   57MOL0     C 7621   3.606   5.898   1.105 -0.7422  0.1894  0.6627
   57MOL0     C 7622   3.522   6.025   1.075 -0.4406 -0.6789 -0.7541
   57MOL0     C 7623   3.510   6.121   1.185  0.2213  0.3948  0.5857
   57MOL0     C 7624   3.489   6.198   1.270  0.4321 -0.0783  0.3467
   57MOL0     C 7625   4.035   5.709   0.890 -0.1078  0.3321  0.1090
   57MOL0     C 7626   4.125   5.616   0.835  0.3149  0.0387 -0.5948
   57MOL0     C 7627   4.147   5.606   0.686  0.9101  0.4903  0.3544
   57MOL0     H 7628   4.532   5.253   1.109 -1.0164 -0.9599  0.4258
   57MOL0     H 7629   4.724   5.115   1.045 -3.2455 -4.0033  0.1539
   57MOL0     H 7630   4.669   4.897   0.680 -0.0085 -2.6802  2.7157
   57MOL0     H 7631   4.832   4.965   0.619 -0.0743  1.1017  0.3272
   57MOL0     H 7632   4.851   4.717   0.680 -0.1715  0.6451 -0.2266
   57MOL0     H 7633   4.761   4.755   0.824 -1.5176  0.8485 -0.3543
   57MOL0     H 7634   5.000   4.697   0.862 -0.7911 -0.1485  0.4395
   57MOL0     H 7635   4.970   4.851   0.933  0.2189  0.6623  0.1528
   57MOL0     H 7636   5.049   4.965   0.702 -1.5831  0.1794  1.2878
   57MOL0     H 7637   5.156   4.899   0.823 -0.8411 -0.6867  0.8738
   57MOL0     H 7638   5.185   4.686   0.681  1.9668 -0.6346 -2.3549
   57MOL0     H 7639   5.063   4.730   0.578 -2.5117  0.6377  1.7830
   57MOL0     H 7640   5.199   4.933   0.499 -0.0068  0.5864  0.4015
   57MOL0     H 7641   5.315   4.898   0.626  0.0083  0.1491  0.7865
   57MOL0     H 7642   5.264   4.675   0.429 -0.1395  1.2108 -2.4977
   57MOL0     H 7643   5.410   4.730   0.531 -0.8629  2.1835  2.7155
   57MOL0     H 7644   5.434   4.778   0.280 -1.2236  0.3400 -0.6923
   57MOL0     H 7645   5.277   4.864   0.293 -1.1967  0.9691  1.7330
   57MOL0     H 7646   5.628   4.873   0.470 -0.2354  0.2663  1.4337
   57MOL0     H 7647   5.746   5.208   0.566 -1.7121 -0.1538 -0.7403
   57MOL0     H 7648   5.801   5.051   0.553  1.3941  0.1856 -0.2153
   57MOL0     H 7649   5.808   5.222   0.298  0.4189 -1.6547 -1.5458
   57MOL0     H 7650   5.935   5.248   0.419 -2.2567  1.6445  1.6079
   57MOL0     H 7651   5.862   5.007   0.269  3.5691 -2.3516 -1.1920
   57MOL0     H 7652   5.959   4.987   0.411 -0.4819  0.4713  0.3664
   57MOL0     H 7653   6.022   5.185   0.185  0.6434  2.1317  2.1894
   57MOL0     H 7654   6.095   5.015   0.182 -1.2734 -0.9412  0.7521
   57MOL0     H 7655   6.243   5.239   0.095  0.8810  1.6453  0.5686
   57MOL0     H 7656   6.465   5.262   0.042 -2.1865 -1.3901 -0.7150
   57MOL0     H 7657   6.878   5.394   0.273  1.0253  2.9181  1.4517
   57MOL0     H 7658   7.089   5.518   0.239 -0.0552  0.3905 -0.0372
   57MOL0     H 7659   7.389   5.389  -0.007 -0.3192  0.5738 -0.4830
   57MOL0     H 7660   7.299   5.434  -0.161  1.5230  0.5708 -1.5098
   57MOL0     H 7661   7.486   5.572  -0.173  1.0188  0.5455  0.8079
   57MOL0     H 7662   7.374   5.678  -0.103 -0.5070 -0.0945  0.4949
   57MOL0     H 7663   7.541   5.709   0.063  0.2948  0.4287  1.4665
   57MOL0     H 7664   7.469   5.568   0.135 -1.3368 -0.3832 -0.2842
   57MOL0     H 7665   7.699   5.569  -0.071  1.4217 -1.6007  0.2820
   57MOL0     H 7666   7.642   5.422   0.017  1.4709 -0.8265  1.5599
   57MOL0     H 7667   7.817   5.461   0.107 -0.7012 -0.1614 -2.9863
   57MOL0     H 7668   7.702   5.517   0.233  2.2348  0.7067  0.6883
   57MOL0     H 7669   7.880   5.705   0.053  1.0587  0.5219  0.9974
   57MOL0     H 7670   7.753   5.758   0.167 -1.9025 -2.6244  1.8647
   57MOL0     H 7671   7.977   5.581   0.251 -3.3548 -1.4952 -2.7267
   57MOL0     H 7672   7.883   5.690   0.358 -0.6372  0.3875 -0.4670
   57MOL0     H 7673   8.093   5.770   0.155 -0.1260 -0.0763 -1.1059
   57MOL0     H 7674   7.989   5.886   0.233 -1.6690 -1.5338 -0.4583
   57MOL0     H 7675   7.086   5.423  -0.172  0.1625  1.5884 -0.8843
   57MOL0     H 7676   6.877   5.296  -0.144 -1.2450  2.1185 -1.2010
   57MOL0     H 7677   6.585   5.155   0.441  2.0013  1.1387 -1.3105
   57MOL0     H 7678   6.373   5.090   0.491  2.5640 -1.8780 -0.2016
   57MOL0     H 7679   4.569   5.079   0.654  0.1988  1.0799 -0.0793
   57MOL0     H 7680   4.378   5.208   0.706  1.2922 -1.3074 -0.9706
   57MOL0     H 7681   4.197   5.453   1.130  1.7963  0.2545 -0.6683
   57MOL0     H 7682   4.038   5.627   1.216  1.2323  0.1002 -0.2998
   57MOL0     H 7683   3.896   5.789   1.265  0.9077 -1.5641  0.3227
   57MOL0     H 7684   3.771   5.699   1.195  2.2403 -0.5736 -1.4150
   57MOL0     H 7685   3.781   6.001   1.153  0.5439  0.1057 -0.5973
   57MOL0     H 7686   3.699   5.910   1.298  0.2132 -2.9635 -0.5643
   57MOL0     H 7687   3.549   5.828   1.167 -1.9244  1.1549  0.6979
   57MOL0     H 7688   3.631   5.858   1.006  0.3650  0.9047  0.6337
   57MOL0     H 7689   3.579   6.087   1.005  0.2453 -1.8425 -1.2629
   57MOL0     H 7690   3.424   6.001   1.034 -0.5365 -2.0451  0.1850
   57MOL0     H 7691   3.465   6.263   1.352 -3.1334  0.2632 -0.8020
   57MOL0     H 7692   3.988   5.786   0.830  2.9366  1.7247 -0.6601
   57MOL0     H 7693   4.079   5.675   0.636  1.1069 -0.6432 -1.5971
   57MOL0     H 7694   4.245   5.641   0.655  1.2146 -1.8214 -1.6021
   57MOL0     H 7695   4.130   5.507   0.641 -4.7116  1.8493 -1.4220
   58MOL0     O 7696  11.420   7.583  10.180 -0.0879  0.1012  0.7155
   58MOL0     C 7697  11.501   7.490  10.193  0.4118  0.6195  0.1437
   58MOL0     O 7698  11.527   7.428  10.317 -0.4421  0.1725  0.6005
   58MOL0     C 7699  11.523   7.498  10.434 -0.0064 -0.9692  0.1915
   58MOL0     C 7700  11.631   7.577  10.466  0.2235  0.0148 -0.3727
   58MOL0     C 7701  11.625   7.642  10.587 -0.5424  0.3695  0.3152
   58MOL0     C 7702  11.525   7.612  10.680 -0.5610 -0.0816 -0.1599
   58MOL0     O 7703  11.540   7.660  10.804  0.1709 -0.3044 -0.1013
   58MOL0     C 7704  11.520   7.568  10.912  0.5578 -1.0043  0.5646
   58MOL0     C 7705  11.476   7.649  11.039 -0.7362 -0.9224  0.2477
   58MOL0     C 7706  11.335   7.710  11.024 -0.6750  0.8038 -0.8209
   58MOL0     C 7707  11.269   7.777  11.148  0.0808 -0.0551  0.2151
   58MOL0     C 7708  11.112   7.778  11.157 -0.5393  0.0106 -0.9868
   58MOL0     C 7709  11.055   7.869  11.271 -0.8943 -0.0776 -0.5536
   58MOL0     C 7710  10.910   7.837  11.290  0.4573  0.1549  0.0528
   58MOL0     C 7711  10.829   7.937  11.369  0.5900  0.1037 -1.4230
   58MOL0     N 7712  10.860   8.077  11.346 -0.2270 -0.2894  0.3427
   58MOL0     C 7713  10.821   8.142  11.231 -0.3936 -0.1697 -0.4810
   58MOL0     C 7714  10.886   8.260  11.227  0.0303  1.0844 -0.3629
   58MOL0     C 7715  10.858   8.366  11.126 -0.0434  0.0081  0.0195
   58MOL0     C 7716  10.992   8.384  11.058 -0.6580 -0.5008 -0.1309
   58MOL0     C 7717  10.990   8.485  10.942 -0.1912 -0.0453  0.0050
   58MOL0     C 7718  10.942   8.625  10.988 -0.9708 -1.1982  0.5838
   58MOL0     O 7719  10.800   8.630  11.002  0.2117  0.8417  0.7871
   58MOL0     C 7720  10.759   8.752  11.034  0.0018  0.3992 -0.2868
   58MOL0     C 7721  10.755   8.861  10.945  0.0845 -0.7323 -1.1866
   58MOL0     C 7722  10.691   8.984  10.990  0.0614  0.6285  0.3735
   58MOL0     C 7723  10.636   8.990  11.119 -0.1262 -0.2096 -0.5055
   58MOL0     C 7724  10.556   9.112  11.154 -0.2005 -0.1757 -0.0885
   58MOL0     O 7725  10.537   9.216  11.071 -0.4334 -0.1439 -0.0487
   58MOL0     C 7726  10.483   9.329  11.126  0.5618 -0.8338  0.2012
   58MOL0     C 7727  10.570   9.436  11.162  0.2317 -0.0102 -0.0645
   58MOL0     C 7728  10.517   9.544  11.223  0.9272  0.9103 -0.0493
   58MOL0     C 7729  10.378   9.566  11.249 -0.4036 -0.6028 -0.3871
   58MOL0     O 7730  10.340   9.692  11.295  0.0633 -0.2307 -0.2175
   58MOL0     C 7731  10.209   9.733  11.320 -0.5340 -0.1059 -0.7762
   58MOL0     C 7732  10.166   9.668  11.452 -0.1754  0.8530  0.3322
   58MOL0     C 7733  10.043   9.738  11.509 -0.1421  0.1394 -0.4587
   58MOL0     C 7734  10.019   9.674  11.652  0.3617 -0.3409  0.5382
   58MOL0     C 7735   9.944   9.541  11.634  0.4620 -0.5168  0.0568
   58MOL0     C 7736   9.796   9.559  11.617  0.1126 -0.4334  0.0829
   58MOL0     C 7737   9.721   9.420  11.608 -0.5699 -0.4367  0.2721
   58MOL0     C 7738   9.587   9.417  11.676 -0.7910 -0.0411  0.0692
   58MOL0    Cl 7739   9.612   9.447  11.856 -0.6905 -0.1568 -0.0338
   58MOL0     C 7740  10.293   9.459  11.221 -0.0564 -0.6028 -0.5078
   58MOL0     C 7741  10.344   9.343  11.167 -0.4286  0.9479  0.1529
   58MOL0     O 7742  10.544   9.122  11.283  0.1678 -0.2437 -0.4721
   58MOL0     C 7743  10.655   8.885  11.211  1.3567  0.6741 -0.8242
   58MOL0     C 7744  10.701   8.764  11.162  0.8817  0.5306 -0.9668
   58MOL0     N 7745  10.953   8.268  11.344 -0.1196 -0.1029  0.1048
   58MOL0     N 7746  10.931   8.166  11.415  1.0358 -0.2636 -0.6258
   58MOL0     C 7747  11.422   7.531  10.648  0.3424  0.5916  0.8524
   58MOL0     C 7748  11.415   7.472  10.517  0.2503  0.4609  0.2411
   58MOL0     C 7749  11.536   7.413  10.071  0.1277 -0.8082  0.1559
   58MOL0     C 7750  11.470   7.448   9.956  0.1147 -0.4635 -0.1886
   58MOL0     C 7751  11.490   7.393   9.832 -1.1260  0.2636 -0.0236
   58MOL0     C 7752  11.579   7.286   9.820  0.4287 -0.1925  0.0686
   58MOL0     O 7753  11.590   7.218   9.705  0.5779  0.9835  0.3787
   58MOL0     C 7754  11.678   7.275   9.604  0.4657 -0.5726  0.3679
   58MOL0     C 7755  11.616   7.281   9.460 -0.2345  0.2423 -0.3174
   58MOL0     C 7756  11.478   7.343   9.462 -0.0198  0.1709  0.5475
   58MOL0     C 7757  11.421   7.319   9.320 -0.2124  0.4984 -0.7552
   58MOL0     C 7758  11.506   7.368   9.199  0.3051 -0.1046  0.8108
   58MOL0     C 7759  11.555   7.400   9.091 -0.1403  0.7738  0.4193
   58MOL0     C 7760  11.654   7.248   9.933  0.2925 -0.8375 -0.6327
   58MOL0     C 7761  11.640   7.311  10.057  1.1192  0.4116 -1.0146
   58MOL0     C 7762  11.732   7.261  10.170  0.0977 -0.3852 -0.2182
   58MOL0     H 7763  11.705   7.573  10.386  0.1356  2.3968 -0.6516
   58MOL0     H 7764  11.706   7.711  10.610  0.5469 -1.7011  3.2278
   58MOL0     H 7765  11.440   7.496  10.891  1.3136 -1.9416  0.8547
   58MOL0     H 7766  11.605   7.506  10.940  1.7210  0.0449 -0.5265
   58MOL0     H 7767  11.546   7.734  11.041 -0.9099 -0.6575 -2.0113
   58MOL0     H 7768  11.496   7.599  11.134  0.0635  0.1306  0.6507
   58MOL0     H 7769  11.268   7.632  10.985  1.1962 -0.3806 -1.8486
   58MOL0     H 7770  11.331   7.791  10.950 -1.2943  0.0201 -1.6727
   58MOL0     H 7771  11.303   7.717  11.233  0.4376 -2.4418 -1.5116
   58MOL0     H 7772  11.307   7.877  11.169 -1.7959  0.5036  1.0799
   58MOL0     H 7773  11.071   7.811  11.061  0.3830  0.3397 -1.2738
   58MOL0     H 7774  11.074   7.675  11.159 -3.8170  1.0337 -2.9528
   58MOL0     H 7775  11.104   7.851  11.368 -2.1359  0.1074  0.1237
   58MOL0     H 7776  11.071   7.967  11.225 -1.5030 -0.5809 -1.8867
   58MOL0     H 7777  10.903   7.744  11.348 -1.7194 -0.5214 -1.1727
   58MOL0     H 7778  10.855   7.829  11.196  1.4034  0.7183 -0.5611
   58MOL0     H 7779  10.726   7.922  11.335 -0.3107 -0.3729  1.2803
   58MOL0     H 7780  10.841   7.918  11.476  2.8880  2.1230 -1.2264
   58MOL0     H 7781  10.753   8.095  11.161 -0.3887  0.4394 -0.9030
   58MOL0     H 7782  10.785   8.334  11.050  1.4946 -3.5762 -0.1782
   58MOL0     H 7783  10.842   8.464  11.171 -0.4729  1.9005 -3.7808
   58MOL0     H 7784  11.062   8.420  11.134 -1.5203 -3.1781  2.1214
   58MOL0     H 7785  11.020   8.285  11.020 -1.5389 -1.6635  2.0205
   58MOL0     H 7786  10.926   8.443  10.864 -2.4544  0.1703  1.6509
   58MOL0     H 7787  11.097   8.495  10.922  0.3226 -1.4962  1.7282
   58MOL0     H 7788  10.975   8.700  10.915  0.5918 -0.0571  2.3665
   58MOL0     H 7789  10.989   8.656  11.082 -1.9508 -0.0337  0.7217
   58MOL0     H 7790  10.804   8.860  10.848  1.1998 -2.8022 -0.6553
   58MOL0     H 7791  10.676   9.067  10.922  1.5457  0.5582 -0.0679
   58MOL0     H 7792  10.678   9.442  11.159  0.3748  1.0516  3.2493
   58MOL0     H 7793  10.595   9.615  11.248  2.4650 -1.1715  1.3974
   58MOL0     H 7794  10.201   9.843  11.322  0.9485  0.0235  2.3625
   58MOL0     H 7795  10.139   9.703  11.241 -1.0844  3.7423 -1.9617
   58MOL0     H 7796  10.159   9.560  11.442 -0.5147  0.7811  1.2654
   58MOL0     H 7797  10.252   9.677  11.519 -1.0757  0.3191  1.5893
   58MOL0     H 7798  10.065   9.844  11.529  0.7591 -0.7697  4.5584
   58MOL0     H 7799   9.964   9.732  11.434  2.4335  0.4904 -3.4314
   58MOL0     H 7800   9.958   9.744  11.710  0.4725 -0.2315  0.5215
   58MOL0     H 7801  10.113   9.672  11.707  0.7799  0.9613 -0.0942
   58MOL0     H 7802   9.967   9.491  11.728  1.3735  2.9807  1.8984
   58MOL0     H 7803   9.989   9.491  11.549  4.3633  1.9017  0.4227
   58MOL0     H 7804   9.758   9.607  11.708 -1.7344 -0.6974 -0.5223
   58MOL0     H 7805   9.779   9.621  11.529  2.5933 -2.2387 -1.8095
   58MOL0     H 7806   9.786   9.353  11.664 -1.9888 -0.5669  1.8584
   58MOL0     H 7807   9.710   9.387  11.504 -1.4414  0.3644  0.0884
   58MOL0     H 7808   9.530   9.496  11.626 -2.2466 -0.3951  1.1029
   58MOL0     H 7809   9.549   9.315  11.669  4.5544 -2.4396  0.9295
   58MOL0     H 7810  10.187   9.469  11.242  0.5985  1.5779  2.4298
   58MOL0     H 7811  10.268   9.274  11.129 -0.2967 -0.7720  2.7575
   58MOL0     H 7812  10.633   8.903  11.316  1.0902  1.2346 -0.9706
   58MOL0     H 7813  10.693   8.691  11.242 -2.7223  1.0071 -0.7514
   58MOL0     H 7814  11.338   7.500  10.710 -0.5395  0.1181 -0.5297
   58MOL0     H 7815  11.335   7.403  10.496  1.0103 -0.4645  0.3295
   58MOL0     H 7816  11.398   7.528   9.948  0.0130 -0.2179  2.4171
   58MOL0     H 7817  11.411   7.402   9.758 -0.0442 -1.1575 -1.4125
   58MOL0     H 7818  11.765   7.208   9.604  0.8636 -0.0991 -1.2968
   58MOL0     H 7819  11.726   7.371   9.622  2.6916 -1.9317  2.1601
   58MOL0     H 7820  11.605   7.176   9.432 -1.2413  0.5725 -1.2434
   58MOL0     H 7821  11.687   7.334   9.395 -0.4472 -2.0065 -2.5433
   58MOL0     H 7822  11.466   7.450   9.482 -0.4514  0.4065 -0.8589
   58MOL0     H 7823  11.422   7.294   9.541 -0.8975  1.5798  0.8312
   58MOL0     H 7824  11.412   7.211   9.307 -1.6284  0.7257 -2.0293
   58MOL0     H 7825  11.323   7.365   9.307 -0.1053 -0.0111 -4.4919
   58MOL0     H 7826  11.587   7.430   8.994 -2.6676 -0.2536 -0.8210
   58MOL0     H 7827  11.734   7.176   9.915  3.1490  1.8453  0.3567
   58MOL0     H 7828  11.830   7.231  10.131 -0.2062 -1.8555  0.0762
   58MOL0     H 7829  11.744   7.331  10.253 -1.6630  0.5781 -0.7277
   58MOL0     H 7830  11.692   7.168  10.212  0.5954 -0.9554 -0.9570
   59MOL0     O 7831   1.821   5.382   0.890  0.3551 -1.1257 -0.1336
   59MOL0     C 7832   1.941   5.357   0.885 -0.3518  0.2654 -0.5489
   59MOL0     O 7833   2.041   5.421   0.946 -0.4232  0.6784  0.1178
   59MOL0     C 7834   1.999   5.536   1.016 -0.5942 -0.1219 -1.3879
   59MOL0     C 7835   2.005   5.529   1.158  0.0329  1.0536  1.3099
   59MOL0     C 7836   1.979   5.650   1.227  0.4709  0.3726 -0.5761
   59MOL0     C 7837   1.944   5.767   1.161 -0.9047 -0.0187 -0.5665
   59MOL0     O 7838   1.928   5.868   1.251  0.1734  0.1843 -0.1122
   59MOL0     C 7839   1.808   5.952   1.245  0.1244  1.4812  0.5104
   59MOL0     C 7840   1.772   6.008   1.386 -0.0416 -0.5321 -0.1838
   59MOL0     C 7841   1.724   6.156   1.370 -0.5429 -0.0518  0.0590
   59MOL0     C 7842   1.576   6.168   1.320 -0.5793 -0.3303  0.6075
   59MOL0     C 7843   1.542   6.308   1.292 -0.5766 -0.9314  1.1415
   59MOL0     C 7844   1.389   6.323   1.260 -0.4419 -0.0590  0.0698
   59MOL0     C 7845   1.353   6.470   1.224 -0.1690  0.6544 -0.9653
   59MOL0     C 7846   1.205   6.511   1.199  0.5064 -0.3972 -0.1111
   59MOL0     N 7847   1.169   6.658   1.210 -0.0546 -0.1603 -0.3156
   59MOL0     C 7848   1.055   6.701   1.275 -0.8213 -0.1593 -0.3241
   59MOL0     C 7849   1.058   6.840   1.282 -0.9348 -0.8908  0.2192
   59MOL0     C 7850   0.956   6.931   1.336 -0.4025 -0.5924 -0.9930
   59MOL0     C 7851   0.976   6.938   1.493  0.1186 -1.0143 -0.7584
   59MOL0     C 7852   0.862   7.022   1.551  0.2806 -0.0709  0.5439
   59MOL0     C 7853   0.895   7.078   1.686  0.5658  0.9541 -0.2029
   59MOL0     O 7854   1.010   7.163   1.680  0.4864 -0.0145  0.2938
   59MOL0     C 7855   1.051   7.216   1.801 -0.5362 -0.5225  0.7213
   59MOL0     C 7856   1.012   7.170   1.930  0.2677  1.1260  0.5935
   59MOL0     C 7857   1.046   7.244   2.048  0.7705 -0.5326  0.0842
   59MOL0     C 7858   1.137   7.352   2.046  0.1507  0.7854  0.2653
   59MOL0     C 7859   1.184   7.422   2.171  0.8364  0.6686  0.1274
   59MOL0     O 7860   1.130   7.373   2.290 -0.8496  0.0061  0.0714
   59MOL0     C 7861   1.209   7.408   2.396  0.0434 -0.3598  0.2678
   59MOL0     C 7862   1.163   7.504   2.497  0.1019 -0.4923 -0.1983
   59MOL0     C 7863   1.248   7.548   2.603  0.3831  0.4468  1.3061
   59MOL0     C 7864   1.381   7.503   2.621  0.1852  0.7424  0.4036
   59MOL0     O 7865   1.456   7.562   2.713 -0.3770 -0.4814  0.0442
   59MOL0     C 7866   1.579   7.492   2.748 -0.9435 -0.1470  0.1427
   59MOL0     C 7867   1.581   7.482   2.893  0.0609 -0.2329 -0.3794
   59MOL0     C 7868   1.540   7.612   2.978  0.7718 -0.0892  0.5435
   59MOL0     C 7869   1.518   7.577   3.128  0.6875 -1.2075  0.0689
   59MOL0     C 7870   1.473   7.689   3.226 -1.0325  0.1496 -0.1424
   59MOL0     C 7871   1.532   7.825   3.177 -0.0283 -0.5443 -0.0986
   59MOL0     C 7872   1.514   7.932   3.290 -0.2743  0.0205  0.4638
   59MOL0     C 7873   1.607   7.924   3.410 -0.1781 -0.2419 -0.4005
   59MOL0    Cl 7874   1.554   8.044   3.537  0.1134  0.8089  0.3098
   59MOL0     C 7875   1.431   7.424   2.507  0.3285  0.7746 -0.9296
   59MOL0     C 7876   1.345   7.362   2.412 -0.3315 -0.1949 -1.0319
   59MOL0     O 7877   1.261   7.515   2.161 -0.4657  0.7736  0.5209
   59MOL0     C 7878   1.191   7.388   1.922  0.3827  0.8510 -0.2338
   59MOL0     C 7879   1.154   7.315   1.800  0.1316 -1.0603 -0.4173
   59MOL0     N 7880   1.176   6.874   1.221  0.1464 -0.3783  0.5242
   59MOL0     N 7881   1.240   6.777   1.182 -0.5786 -0.4838  0.7393
   59MOL0     C 7882   1.946   5.775   1.027 -0.5109  0.7579  0.3903
   59MOL0     C 7883   1.962   5.655   0.957 -0.8426  1.2437 -0.3509
   59MOL0     C 7884   1.990   5.235   0.809  0.5283  0.8220  0.7426
   59MOL0     C 7885   2.122   5.229   0.760 -0.5044  0.1572 -0.3186
   59MOL0     C 7886   2.184   5.131   0.683 -0.2164 -0.2699 -0.5613
   59MOL0     C 7887   2.112   5.024   0.656 -0.3684  0.5498  0.5728
   59MOL0     O 7888   2.187   4.926   0.593  0.1966  0.3278 -0.2407
   59MOL0     C 7889   2.113   4.801   0.564 -0.5707 -0.0047 -0.6816
   59MOL0     C 7890   2.167   4.731   0.444  0.3902  0.8519 -0.1031
   59MOL0     C 7891   2.085   4.601   0.401 -0.0694 -0.6656  0.0060
   59MOL0     C 7892   2.113   4.560   0.249 -0.4084  0.0174 -0.7026
   59MOL0     C 7893   2.249   4.515   0.236 -0.0777  0.4922  0.1522
   59MOL0     C 7894   2.365   4.484   0.227 -0.6084 -0.5370 -0.6871
   59MOL0     C 7895   1.973   5.021   0.703  0.3505  0.5388  0.4654
   59MOL0     C 7896   1.909   5.129   0.771 -0.0023  0.3649 -0.9128
   59MOL0     C 7897   1.763   5.108   0.793 -0.3976 -0.8569  0.9865
   59MOL0     H 7898   2.053   5.444   1.207 -0.1943  0.7784  1.0553
   59MOL0     H 7899   1.981   5.658   1.336  0.3348  0.4012 -0.5759
   59MOL0     H 7900   1.824   6.030   1.170 -1.6625 -0.4880 -2.1090
   59MOL0     H 7901   1.726   5.890   1.209  1.0607 -0.7379  1.9667
   59MOL0     H 7902   1.859   6.000   1.451 -2.1739  0.0012  2.9258
   59MOL0     H 7903   1.688   5.953   1.430 -0.4985  1.2496  1.2712
   59MOL0     H 7904   1.790   6.206   1.298 -1.5634  2.1521  0.5525
   59MOL0     H 7905   1.730   6.201   1.469  2.1335 -1.5506  0.6618
   59MOL0     H 7906   1.561   6.117   1.225  2.1266 -2.4243  1.1549
   59MOL0     H 7907   1.506   6.121   1.389 -0.3713  1.3111  2.0061
   59MOL0     H 7908   1.559   6.366   1.384 -2.8252  0.6851  0.6376
   59MOL0     H 7909   1.596   6.345   1.205 -1.8088  0.8865  1.1041
   59MOL0     H 7910   1.371   6.252   1.178 -1.2969 -0.7797  0.8528
   59MOL0     H 7911   1.328   6.286   1.343  2.1610 -1.1096  1.6534
   59MOL0     H 7912   1.426   6.506   1.151  1.9655  1.0575  1.2297
   59MOL0     H 7913   1.374   6.532   1.312 -3.0735  2.5418 -1.4898
   59MOL0     H 7914   1.184   6.489   1.094 -1.6491  2.4314 -0.4020
   59MOL0     H 7915   1.144   6.442   1.257 -1.3183 -1.0031 -2.5938
   59MOL0     H 7916   0.976   6.644   1.324 -1.6612 -0.0090 -1.4389
   59MOL0     H 7917   0.967   7.035   1.303 -1.0924  1.4684  4.3520
   59MOL0     H 7918   0.852   6.899   1.327 -0.9494  0.7389  0.2687
   59MOL0     H 7919   0.986   6.837   1.534 -1.5361 -0.5364  0.9834
   59MOL0     H 7920   1.067   6.997   1.506 -0.4171 -0.0965 -1.0439
   59MOL0     H 7921   0.773   6.958   1.553 -2.2297  3.1923  1.6832
   59MOL0     H 7922   0.839   7.104   1.482 -1.1057  1.9989  3.3064
   59MOL0     H 7923   0.915   6.991   1.750  2.0010  1.2847 -0.1678
   59MOL0     H 7924   0.805   7.130   1.721  1.5587 -0.3408  5.2543
   59MOL0     H 7925   0.960   7.077   1.950  0.2484  0.6576 -1.4427
   59MOL0     H 7926   1.007   7.193   2.135 -0.5860  1.4619  0.7122
   59MOL0     H 7927   1.059   7.534   2.483 -0.0314  0.9996  3.0629
   59MOL0     H 7928   1.201   7.623   2.666  0.6567  1.4289  0.3836
   59MOL0     H 7929   1.596   7.396   2.699 -0.7264  0.2596 -0.6028
   59MOL0     H 7930   1.664   7.556   2.720 -1.0544  0.0140  0.1731
   59MOL0     H 7931   1.506   7.406   2.916 -0.2789  1.0291  3.3119
   59MOL0     H 7932   1.677   7.450   2.932 -1.4059 -2.9703  1.2742
   59MOL0     H 7933   1.623   7.682   2.976 -1.4761  2.8876  2.4175
   59MOL0     H 7934   1.449   7.655   2.934  0.0564 -1.9662  0.0736
   59MOL0     H 7935   1.615   7.542   3.165  0.0231 -0.0900  3.1451
   59MOL0     H 7936   1.445   7.496   3.136  2.9642 -3.6797 -2.0519
   59MOL0     H 7937   1.511   7.664   3.325 -3.4173  0.2140  0.8500
   59MOL0     H 7938   1.364   7.704   3.224 -0.7315  2.9231 -0.4210
   59MOL0     H 7939   1.637   7.809   3.151 -0.1297 -0.2663 -0.6888
   59MOL0     H 7940   1.493   7.853   3.079 -2.4255 -2.5460  0.1720
   59MOL0     H 7941   1.412   7.917   3.329 -0.1631 -0.1640  0.6835
   59MOL0     H 7942   1.520   8.031   3.244  0.6242 -1.1288 -2.0299
   59MOL0     H 7943   1.608   7.822   3.450 -0.5641 -0.5490 -1.1565
   59MOL0     H 7944   1.713   7.948   3.400 -0.8349  3.0936 -0.3237
   59MOL0     H 7945   1.534   7.392   2.497 -0.1208 -1.3728  0.6273
   59MOL0     H 7946   1.386   7.279   2.354 -0.1941 -0.6947 -0.2420
   59MOL0     H 7947   1.261   7.470   1.909 -2.6515  3.8424  0.7583
   59MOL0     H 7948   1.191   7.339   1.701  1.7990 -2.6841 -0.2378
   59MOL0     H 7949   1.922   5.868   0.976  0.9480  2.2943  2.3312
   59MOL0     H 7950   1.960   5.644   0.849  1.9002 -1.9456 -0.2445
   59MOL0     H 7951   2.180   5.319   0.783  0.7745 -0.1794 -2.0148
   59MOL0     H 7952   2.289   5.126   0.657 -0.5821 -2.4348 -1.9085
   59MOL0     H 7953   2.008   4.820   0.538 -0.8037 -0.8627 -0.3988
   59MOL0     H 7954   2.115   4.738   0.654  0.9548  0.8755 -0.0565
   59MOL0     H 7955   2.272   4.707   0.465  0.7973  0.3572 -2.3833
   59MOL0     H 7956   2.180   4.798   0.359  2.7723 -0.1001 -0.5792
   59MOL0     H 7957   1.978   4.617   0.419 -0.2081 -2.6090  1.2516
   59MOL0     H 7958   2.103   4.516   0.467 -1.3535 -1.5208 -0.7084
   59MOL0     H 7959   2.052   4.476   0.214  0.6641 -2.5559  3.0010
   59MOL0     H 7960   2.089   4.644   0.184  0.3803  0.4917 -0.3931
   59MOL0     H 7961   2.466   4.449   0.224 -0.6039 -0.7211  0.6779
   59MOL0     H 7962   1.921   4.926   0.701 -1.9631  1.7003  1.2339
   59MOL0     H 7963   1.723   5.014   0.753  0.0735  0.0173 -1.7633
   59MOL0     H 7964   1.729   5.113   0.897 -1.8994  1.2223  0.4744
   59MOL0     H 7965   1.709   5.195   0.755  0.6497 -0.2696  0.8067
   60MOL0     O 7966   0.695   3.551   7.758 -0.8113 -0.2920 -0.7442
   60MOL0     C 7967   0.716   3.656   7.820  0.0419  0.3421 -0.5829
   60MOL0     O 7968   0.651   3.697   7.933 -0.3442 -0.1186  0.0244
   60MOL0     C 7969   0.523   3.660   7.957  0.6414  0.3570  0.4873
   60MOL0     C 7970   0.415   3.741   7.922  0.1355  0.1744  0.4086
   60MOL0     C 7971   0.288   3.699   7.957  0.2561  0.0376  0.2090
   60MOL0     C 7972   0.262   3.569   7.995 -0.3408  0.5013 -0.5719
   60MOL0     O 7973   0.136   3.530   8.031 -0.1802  0.2078  0.2294
   60MOL0     C 7974   0.052   3.618   8.108 -0.1697  0.4334  0.5958
   60MOL0     C 7975  -0.087   3.552   8.118 -0.2408 -0.7518  0.0379
   60MOL0     C 7976  -0.186   3.617   8.202  0.6278 -0.2722  0.5192
   60MOL0     C 7977  -0.329   3.560   8.205  0.8044 -0.0696  0.0147
   60MOL0     C 7978  -0.438   3.633   8.283 -0.4632 -0.6435  0.1878
   60MOL0     C 7979  -0.558   3.537   8.315  0.4536 -0.5007 -0.1881
   60MOL0     C 7980  -0.685   3.596   8.356 -0.2164  0.3246  0.4928
   60MOL0     C 7981  -0.804   3.503   8.373 -0.0676 -0.1299 -0.1207
   60MOL0     N 7982  -0.920   3.591   8.393  0.4414  0.0114 -1.3216
   60MOL0     C 7983  -0.994   3.599   8.510  0.3603  0.1625 -0.2016
   60MOL0     C 7984  -1.084   3.693   8.491  0.1997 -0.4091 -0.5551
   60MOL0     C 7985  -1.191   3.725   8.599 -0.6351  0.0020 -0.7224
   60MOL0     C 7986  -1.315   3.645   8.596  0.2448  0.8634  0.1786
   60MOL0     C 7987  -1.304   3.489   8.604 -0.2252  0.5858 -0.3614
   60MOL0     C 7988  -1.339   3.429   8.736 -0.3908 -0.0788 -1.2794
   60MOL0     O 7989  -1.244   3.460   8.836 -0.7389  0.1162 -0.2417
   60MOL0     C 7990  -1.121   3.409   8.821 -0.0366 -0.0833 -0.2831
   60MOL0     C 7991  -1.097   3.289   8.740 -0.3610 -0.3176 -0.0535
   60MOL0     C 7992  -0.963   3.255   8.702 -1.3894  0.2247 -0.2360
   60MOL0     C 7993  -0.852   3.323   8.748  0.2733 -0.2265 -0.2240
   60MOL0     C 7994  -0.713   3.285   8.712 -0.0805  0.3987 -0.3565
   60MOL0     O 7995  -0.606   3.376   8.715 -0.5498 -0.1227 -0.3372
   60MOL0     C 7996  -0.484   3.338   8.673 -0.3327  0.1013  0.2257
   60MOL0     C 7997  -0.399   3.443   8.619 -0.7110 -0.7268 -0.6778
   60MOL0     C 7998  -0.283   3.411   8.546 -0.0753 -0.1774 -0.3307
   60MOL0     C 7999  -0.234   3.275   8.538  0.0961 -0.5432  0.5541
   60MOL0     O 8000  -0.116   3.236   8.480  0.3556  0.1613  0.3451
   60MOL0     C 8001  -0.006   3.317   8.529 -0.5926 -0.0029  0.5559
   60MOL0     C 8002   0.120   3.262   8.478  0.2462 -0.5388  1.5425
   60MOL0     C 8003   0.110   3.234   8.324 -0.9750 -0.4938  0.1876
   60MOL0     C 8004   0.253   3.176   8.297  0.5207  0.5600 -0.4662
   60MOL0     C 8005   0.238   3.122   8.151 -0.5472  0.4492  0.2925
   60MOL0     C 8006   0.360   3.015   8.105 -0.4068  0.1790  0.0870
   60MOL0     C 8007   0.354   2.943   7.969 -0.2645 -0.8857  0.0169
   60MOL0     C 8008   0.477   2.854   7.943  0.0644  0.1567  0.6123
   60MOL0    Cl 8009   0.460   2.698   8.028 -0.3027 -0.6328  0.3102
   60MOL0     C 8010  -0.311   3.177   8.606 -1.0969  0.3407  0.4595
   60MOL0     C 8011  -0.433   3.206   8.673  0.5064  0.8298 -0.6014
   60MOL0     O 8012  -0.712   3.165   8.677  0.3639 -0.4879  0.1440
   60MOL0     C 8013  -0.870   3.444   8.834 -0.7950  1.1214 -0.1745
   60MOL0     C 8014  -1.007   3.483   8.870 -0.8973  0.3397 -0.3365
   60MOL0     N 8015  -1.068   3.738   8.359  0.4932  0.6555 -0.3607
   60MOL0     N 8016  -0.965   3.685   8.308 -0.3378 -0.5678 -0.6381
   60MOL0     C 8017   0.364   3.479   8.014 -1.1360 -0.3031  0.0112
   60MOL0     C 8018   0.495   3.531   8.003  0.6515 -0.1890 -0.3682
   60MOL0     C 8019   0.849   3.717   7.788 -0.5767 -0.2292 -0.2317
   60MOL0     C 8020   0.915   3.783   7.888  0.4046 -0.1231 -0.1429
   60MOL0     C 8021   1.046   3.834   7.868  0.9433  0.6657  0.6877
   60MOL0     C 8022   1.112   3.819   7.741 -0.0200  0.6850  0.7107
   60MOL0     O 8023   1.235   3.887   7.711 -0.8912  1.1973 -0.6133
   60MOL0     C 8024   1.341   3.888   7.816 -0.7550 -0.1351 -0.5691
   60MOL0     C 8025   1.492   3.873   7.781  0.5996  0.3053  0.4534
   60MOL0     C 8026   1.552   3.991   7.716  0.4883  0.3399 -0.5291
   60MOL0     C 8027   1.699   3.976   7.680  0.7009 -0.7941 -0.3769
   60MOL0     C 8028   1.745   4.086   7.601  0.6685 -0.8632  0.5519
   60MOL0     C 8029   1.771   4.178   7.525 -0.5440 -0.7542  0.0372
   60MOL0     C 8030   1.040   3.760   7.644 -0.4791  0.5221  0.6709
   60MOL0     C 8031   0.916   3.707   7.663 -0.4327  0.9304 -0.0267
   60MOL0     C 8032   0.850   3.659   7.531  0.3802  0.2859 -0.3034
   60MOL0     H 8033   0.430   3.836   7.872 -1.5701  0.1362 -0.2789
   60MOL0     H 8034   0.207   3.767   7.936 -1.1526 -1.5175  0.3485
   60MOL0     H 8035   0.099   3.635   8.205 -0.8832  3.2927  0.5190
   60MOL0     H 8036   0.035   3.716   8.062  1.3782  1.6619  2.4870
   60MOL0     H 8037  -0.074   3.448   8.152  0.4869 -1.1043 -1.2495
   60MOL0     H 8038  -0.120   3.539   8.015  2.5843 -4.9405 -0.5950
   60MOL0     H 8039  -0.184   3.722   8.170 -0.4679 -0.8937 -1.7908
   60MOL0     H 8040  -0.167   3.614   8.310 -2.9501  0.5804  1.3015
   60MOL0     H 8041  -0.369   3.536   8.106 -0.1574 -2.9754  0.9795
   60MOL0     H 8042  -0.316   3.454   8.230 -1.2638 -0.5891 -0.8590
   60MOL0     H 8043  -0.403   3.679   8.375  0.1266  2.6854 -1.5276
   60MOL0     H 8044  -0.468   3.717   8.219  1.0194  0.7649  1.2552
   60MOL0     H 8045  -0.573   3.485   8.219 -1.6602 -1.8919  0.8233
   60MOL0     H 8046  -0.535   3.466   8.395 -3.9525 -0.8852  1.0356
   60MOL0     H 8047  -0.708   3.674   8.282  1.5453 -0.5783 -1.0846
   60MOL0     H 8048  -0.671   3.645   8.453  0.1086  1.2364  0.0063
   60MOL0     H 8049  -0.827   3.439   8.287 -0.3165  1.1153 -1.0054
   60MOL0     H 8050  -0.804   3.445   8.466  1.7650  0.7754  0.4912
   60MOL0     H 8051  -0.984   3.540   8.601  2.5280  0.2849 -0.3102
   60MOL0     H 8052  -1.146   3.748   8.695  0.8478 -1.1612 -1.0975
   60MOL0     H 8053  -1.226   3.820   8.557 -2.7013 -1.2920 -2.1424
   60MOL0     H 8054  -1.391   3.682   8.666 -0.3133 -1.1909  0.7443
   60MOL0     H 8055  -1.353   3.672   8.497  3.2417  1.7709 -0.8093
   60MOL0     H 8056  -1.209   3.447   8.569 -0.1993 -0.3532  0.7710
   60MOL0     H 8057  -1.372   3.452   8.527 -0.1878 -2.1042  0.8150
   60MOL0     H 8058  -1.359   3.322   8.727 -1.8446 -0.0978  1.2749
   60MOL0     H 8059  -1.427   3.478   8.778  0.6949  1.0733 -0.2470
   60MOL0     H 8060  -1.178   3.224   8.707 -0.4001 -1.0285  1.3858
   60MOL0     H 8061  -0.957   3.174   8.630 -1.2867  0.5701 -0.6204
   60MOL0     H 8062  -0.436   3.545   8.619  0.1104  0.0255  6.0514
   60MOL0     H 8063  -0.229   3.484   8.487  0.6964  1.7019  2.5315
   60MOL0     H 8064  -0.015   3.414   8.478 -0.7351  0.4689  1.4668
   60MOL0     H 8065  -0.005   3.322   8.638 -0.0912 -3.6577  0.8363
   60MOL0     H 8066   0.202   3.328   8.508  0.5790 -0.4666  0.4938
   60MOL0     H 8067   0.141   3.158   8.503 -1.3550 -3.0949 -5.4926
   60MOL0     H 8068   0.038   3.162   8.287 -0.1773 -0.7800 -0.8441
   60MOL0     H 8069   0.109   3.323   8.261  0.3054 -0.4255  0.2411
   60MOL0     H 8070   0.288   3.097   8.365  3.3866  2.7240  0.7948
   60MOL0     H 8071   0.334   3.249   8.301  0.1498  1.2010 -2.9323
   60MOL0     H 8072   0.234   3.209   8.085 -1.5678  1.3599  1.5049
   60MOL0     H 8073   0.145   3.065   8.155  0.4939 -1.2247  2.5057
   60MOL0     H 8074   0.452   3.072   8.121 -0.3231 -0.0489  0.4438
   60MOL0     H 8075   0.347   2.943   8.186  3.1319 -0.5241  0.2177
   60MOL0     H 8076   0.335   3.017   7.892 -0.1624 -1.4139 -0.5202
   60MOL0     H 8077   0.266   2.879   7.969  1.2301 -3.0499 -0.6530
   60MOL0     H 8078   0.497   2.836   7.837  0.2475 -1.4910  0.9014
   60MOL0     H 8079   0.565   2.902   7.987  0.1029 -0.1900  0.9142
   60MOL0     H 8080  -0.275   3.075   8.606 -1.0913  0.2767  2.8046
   60MOL0     H 8081  -0.497   3.127   8.711  0.7405 -0.2801 -2.4177
   60MOL0     H 8082  -0.781   3.501   8.854  1.2356 -2.2140  1.1992
   60MOL0     H 8083  -1.005   3.577   8.925  1.7210  0.3075 -0.2802
   60MOL0     H 8084   0.347   3.375   8.041  0.1737 -1.2979 -2.6256
   60MOL0     H 8085   0.588   3.478   8.022  2.5492  2.5626 -1.2308
   60MOL0     H 8086   0.877   3.797   7.989  0.1982  0.0863 -0.2475
   60MOL0     H 8087   1.097   3.894   7.942 -0.7464  1.3647  1.3402
   60MOL0     H 8088   1.315   3.799   7.875  1.8298 -1.2847 -1.0158
   60MOL0     H 8089   1.320   3.981   7.869 -1.1807  0.9206 -2.5054
   60MOL0     H 8090   1.497   3.787   7.714  0.4399 -0.6001  1.5703
   60MOL0     H 8091   1.560   3.859   7.866 -0.0337  0.1278  0.9393
   60MOL0     H 8092   1.548   4.075   7.786  0.2215 -0.0147 -0.1123
   60MOL0     H 8093   1.505   4.013   7.620  2.2123  1.3808 -1.1823
   60MOL0     H 8094   1.758   3.984   7.772 -0.1415  1.6032  0.0226
   60MOL0     H 8095   1.719   3.884   7.624  2.9926  1.3097 -3.3888
   60MOL0     H 8096   1.795   4.250   7.449 -0.5611 -0.0578  0.6773
   60MOL0     H 8097   1.094   3.738   7.553  1.5051 -1.3433  2.1976
   60MOL0     H 8098   0.778   3.579   7.551 -0.5537  1.4534  1.2185
   60MOL0     H 8099   0.784   3.730   7.481 -0.4334 -0.9709 -1.0779
   60MOL0     H 8100   0.925   3.627   7.458  1.9926 -0.0335  1.4264
   61MOL0     O 8101   5.653   9.094   1.361  0.2808 -0.4499  0.2901
   61MOL0     C 8102   5.569   9.178   1.332  0.2273 -0.2853 -0.3269
   61MOL0     O 8103   5.503   9.264   1.426  0.7284 -0.3466  0.3857
   61MOL0     C 8104   5.543   9.255   1.555 -0.0440 -0.3441 -0.2014
   61MOL0     C 8105   5.612   9.358   1.609 -0.2758  0.4908  0.1886
   61MOL0     C 8106   5.655   9.351   1.737  0.5147 -0.6903 -0.0545
   61MOL0     C 8107   5.621   9.247   1.812  0.3200 -0.1243 -0.3004
   61MOL0     O 8108   5.659   9.250   1.942  0.0528  0.0534  0.0193
   61MOL0     C 8109   5.763   9.155   1.984 -0.2309  0.6002 -0.4098
   61MOL0     C 8110   5.894   9.158   1.916 -0.5345 -0.6103 -0.1276
   61MOL0     C 8111   5.974   9.286   1.948  0.3028 -0.6131 -0.2993
   61MOL0     C 8112   6.106   9.285   1.869  0.4328  0.0944 -0.5349
   61MOL0     C 8113   6.214   9.375   1.929  0.0324 -0.0092 -0.4844
   61MOL0     C 8114   6.161   9.529   1.927  0.0806 -0.5744  0.2125
   61MOL0     C 8115   6.268   9.633   1.895  0.9187 -0.4258  1.1778
   61MOL0     C 8116   6.293   9.642   1.746  0.0829 -0.2591 -0.2311
   61MOL0     N 8117   6.177   9.700   1.683  0.0179 -0.1296  0.1688
   61MOL0     C 8118   6.098   9.631   1.589 -0.7110 -1.1974 -0.7119
   61MOL0     C 8119   5.969   9.673   1.595 -1.4032  0.0441  0.1275
   61MOL0     C 8120   5.878   9.614   1.498  0.2078  0.9731 -0.0488
   61MOL0     C 8121   5.865   9.697   1.366 -0.1215 -0.2576 -0.3483
   61MOL0     C 8122   5.732   9.672   1.293  0.9213 -0.5005  0.3487
   61MOL0     C 8123   5.747   9.578   1.173 -0.5570  0.0321  0.9402
   61MOL0     O 8124   5.795   9.444   1.208  0.8156 -0.6407  0.2770
   61MOL0     C 8125   5.928   9.412   1.213  0.1960  0.3887  0.0235
   61MOL0     C 8126   6.033   9.490   1.160 -0.7152  0.5845  0.6550
   61MOL0     C 8127   6.165   9.448   1.174 -0.4036 -0.0038 -0.0764
   61MOL0     C 8128   6.198   9.328   1.226 -0.7030  1.1622  0.1758
   61MOL0     C 8129   6.338   9.283   1.220 -0.6284  0.1783 -0.1238
   61MOL0     O 8130   6.378   9.179   1.306 -0.1841 -0.4571 -0.5539
   61MOL0     C 8131   6.501   9.123   1.286 -0.7432  0.3214 -0.1261
   61MOL0     C 8132   6.520   8.987   1.299 -0.2017  0.7645 -0.1528
   61MOL0     C 8133   6.637   8.915   1.268  0.3470 -0.9448 -0.5404
   61MOL0     C 8134   6.753   8.981   1.218 -0.2341 -0.0357 -0.2137
   61MOL0     O 8135   6.882   8.925   1.194  0.2888  0.7368  0.2652
   61MOL0     C 8136   6.872   8.831   1.094  0.0628 -0.8569 -0.1653
   61MOL0     C 8137   6.997   8.808   1.010  0.7288 -0.0268 -0.1949
   61MOL0     C 8138   7.092   8.708   1.081  0.2557 -1.0975  0.8322
   61MOL0     C 8139   7.240   8.734   1.036 -0.0156  0.6270 -0.1435
   61MOL0     C 8140   7.262   8.692   0.893 -1.4839 -1.0766 -0.3638
   61MOL0     C 8141   7.406   8.718   0.856  0.3883  0.3336 -0.0601
   61MOL0     C 8142   7.507   8.617   0.925  0.4908 -0.2636 -0.0571
   61MOL0     C 8143   7.652   8.646   0.922 -0.5108 -0.8444 -0.5668
   61MOL0    Cl 8144   7.715   8.639   0.757  0.0632  0.1067  0.2720
   61MOL0     C 8145   6.749   9.120   1.215 -0.3152 -0.2120  0.1790
   61MOL0     C 8146   6.622   9.192   1.237  0.5879  0.4076  0.0537
   61MOL0     O 8147   6.407   9.328   1.128  0.2929 -0.2676  0.5449
   61MOL0     C 8148   6.093   9.246   1.274 -0.9130 -0.4883  0.0132
   61MOL0     C 8149   5.968   9.289   1.266  1.3648  0.0574 -0.2307
   61MOL0     N 8150   5.974   9.786   1.680 -0.4009 -0.2353  0.2896
   61MOL0     N 8151   6.093   9.795   1.734 -0.3262 -0.4001 -0.3914
   61MOL0     C 8152   5.534   9.146   1.766 -0.1631 -0.2616 -0.6339
   61MOL0     C 8153   5.500   9.146   1.631 -0.2531 -0.0285  0.0118
   61MOL0     C 8154   5.530   9.195   1.195 -0.6160 -0.5447 -0.0279
   61MOL0     C 8155   5.502   9.330   1.149  0.7774 -0.6945 -0.0569
   61MOL0     C 8156   5.485   9.351   1.010 -1.1996  0.8224  0.4453
   61MOL0     C 8157   5.482   9.252   0.913  0.5354 -0.6278 -0.3740
   61MOL0     O 8158   5.471   9.292   0.778 -0.0486 -0.0144 -1.2838
   61MOL0     C 8159   5.466   9.181   0.685  0.3591 -0.6496 -0.2405
   61MOL0     C 8160   5.478   9.236   0.538 -0.2251 -0.7939  0.3378
   61MOL0     C 8161   5.581   9.155   0.457  0.0594 -0.3138  1.2786
   61MOL0     C 8162   5.621   9.235   0.333 -0.1833 -1.0578 -0.4738
   61MOL0     C 8163   5.507   9.250   0.244  0.3537  0.1589  0.3984
   61MOL0     C 8164   5.423   9.275   0.160  0.0027  0.5150  0.5239
   61MOL0     C 8165   5.498   9.125   0.967  0.0262  0.6306 -0.2061
   61MOL0     C 8166   5.525   9.093   1.098  0.7843  0.1701  0.3110
   61MOL0     C 8167   5.538   8.946   1.129 -0.2055  0.0884 -1.0771
   61MOL0     H 8168   5.639   9.442   1.545  0.2772  0.7637  0.7681
   61MOL0     H 8169   5.716   9.432   1.777  1.0520 -1.6253  1.1009
   61MOL0     H 8170   5.771   9.163   2.093  0.7820  0.5556 -0.4755
   61MOL0     H 8171   5.711   9.061   1.965  1.5242 -0.3740 -0.5349
   61MOL0     H 8172   5.882   9.143   1.808 -1.0578  2.2700 -0.5328
   61MOL0     H 8173   5.964   9.081   1.950  0.3459 -0.5562 -1.7435
   61MOL0     H 8174   5.997   9.297   2.054  2.9110  1.6025 -0.9812
   61MOL0     H 8175   5.923   9.373   1.904  3.3162 -0.3323 -3.6804
   61MOL0     H 8176   6.139   9.180   1.866 -0.6482 -0.2384 -1.7723
   61MOL0     H 8177   6.091   9.316   1.765  2.2529  1.9692 -0.3089
   61MOL0     H 8178   6.248   9.334   2.024  1.5381  0.8904 -0.5927
   61MOL0     H 8179   6.308   9.364   1.875  2.4396  0.2107  3.3092
   61MOL0     H 8180   6.076   9.538   1.859 -1.4581  2.9912  2.3338
   61MOL0     H 8181   6.115   9.558   2.022 -0.0259  0.1762 -0.0655
   61MOL0     H 8182   6.364   9.616   1.944  1.4319  2.1616  1.2552
   61MOL0     H 8183   6.242   9.735   1.927  0.3186 -0.0774 -0.3255
   61MOL0     H 8184   6.376   9.712   1.731 -0.7083  0.7350 -0.0673
   61MOL0     H 8185   6.309   9.541   1.706  0.7803  0.1920 -1.1266
   61MOL0     H 8186   6.135   9.548   1.529 -0.1837 -1.2625 -0.3040
   61MOL0     H 8187   5.901   9.509   1.480 -0.2114  0.9352 -0.4128
   61MOL0     H 8188   5.781   9.620   1.548  0.8309  2.3223  1.0526
   61MOL0     H 8189   5.863   9.803   1.395  0.3910 -0.3992  0.2257
   61MOL0     H 8190   5.956   9.669   1.313  0.7131 -1.8895  1.7834
   61MOL0     H 8191   5.691   9.762   1.248 -0.1624 -0.3801  1.5122
   61MOL0     H 8192   5.655   9.629   1.359  0.8465  0.7780  1.1251
   61MOL0     H 8193   5.802   9.615   1.086 -0.3650 -3.2485 -0.5079
   61MOL0     H 8194   5.647   9.556   1.132  0.3359 -3.2108  0.1871
   61MOL0     H 8195   6.015   9.577   1.099  0.0567 -0.6237 -1.3717
   61MOL0     H 8196   6.236   9.505   1.115 -1.0897 -0.7620 -1.6978
   61MOL0     H 8197   6.434   8.932   1.334 -1.3093  0.0864 -3.5239
   61MOL0     H 8198   6.642   8.807   1.282 -3.2472 -1.2767 -0.7770
   61MOL0     H 8199   6.855   8.731   1.135  3.0598 -1.0979  0.7637
   61MOL0     H 8200   6.793   8.859   1.025  0.4927 -0.0560 -0.3430
   61MOL0     H 8201   6.966   8.769   0.913  1.2978 -1.5140  0.2038
   61MOL0     H 8202   7.051   8.903   1.004 -0.9211  0.9485 -0.1781
   61MOL0     H 8203   7.082   8.728   1.188  1.2197  2.3751  0.4219
   61MOL0     H 8204   7.065   8.604   1.063  1.0513 -0.9154 -1.8524
   61MOL0     H 8205   7.299   8.667   1.100 -2.9312 -1.6189  0.4512
   61MOL0     H 8206   7.289   8.831   1.051  0.9747  0.2299 -0.7211
   61MOL0     H 8207   7.193   8.752   0.832  1.1920  3.1433  0.3629
   61MOL0     H 8208   7.231   8.588   0.875  1.3194 -1.8586 -1.2149
   61MOL0     H 8209   7.406   8.712   0.747 -4.7761 -2.5180 -0.2154
   61MOL0     H 8210   7.442   8.815   0.890  0.9409 -0.1607  0.7885
   61MOL0     H 8211   7.492   8.521   0.874  3.7134 -0.9270  0.0176
   61MOL0     H 8212   7.478   8.608   1.030 -0.1857  0.5163 -0.1676
   61MOL0     H 8213   7.668   8.743   0.971 -0.7569 -1.0854 -0.0059
   61MOL0     H 8214   7.695   8.569   0.986  1.6161 -0.6205 -1.6273
   61MOL0     H 8215   6.839   9.174   1.186  0.2429 -1.0460  0.3208
   61MOL0     H 8216   6.630   9.300   1.235  4.5776  0.2928  0.4814
   61MOL0     H 8217   6.123   9.145   1.300  2.3134  0.3785  0.1605
   61MOL0     H 8218   5.890   9.218   1.293  1.8284 -1.2067 -2.0809
   61MOL0     H 8219   5.508   9.077   1.845 -3.2863  1.4655  0.0383
   61MOL0     H 8220   5.437   9.065   1.596 -0.6207  0.2654 -0.0146
   61MOL0     H 8221   5.496   9.417   1.213  0.9267 -2.5202  2.5756
   61MOL0     H 8222   5.460   9.453   0.982  0.9548  2.3593  3.5109
   61MOL0     H 8223   5.377   9.122   0.710 -0.2353  0.2720 -0.1488
   61MOL0     H 8224   5.557   9.123   0.704  0.4650 -0.8107 -1.1888
   61MOL0     H 8225   5.509   9.341   0.543 -1.3606 -0.4008 -0.4537
   61MOL0     H 8226   5.378   9.239   0.494 -1.0188  0.0956  2.0937
   61MOL0     H 8227   5.547   9.055   0.429  3.5958 -1.1770 -0.5650
   61MOL0     H 8228   5.668   9.149   0.523 -0.0268  1.2955  1.5949
   61MOL0     H 8229   5.651   9.339   0.349 -1.5853 -0.1056 -3.3815
   61MOL0     H 8230   5.706   9.186   0.285  0.3786 -1.2367  0.6671
   61MOL0     H 8231   5.357   9.285   0.077  0.6117 -3.6945 -0.6817
   61MOL0     H 8232   5.514   9.045   0.895 -3.0719 -0.2146 -0.0973
   61MOL0     H 8233   5.485   8.875   1.064 -0.1801  1.2013 -2.3649
   61MOL0     H 8234   5.645   8.924   1.126 -0.6812 -2.5600 -1.5034
   61MOL0     H 8235   5.503   8.930   1.231  0.2737  0.4802 -0.8515
   62MOL0     O 8236   7.699   0.550   3.385 -0.0505 -0.4926 -0.1709
   62MOL0     C 8237   7.820   0.548   3.382  0.1966  0.6220 -0.0504
   62MOL0     O 8238   7.897   0.494   3.277  0.6631  0.5325  0.1904
   62MOL0     C 8239   7.826   0.474   3.153  0.2863  1.0177  0.5031
   62MOL0     C 8240   7.730   0.558   3.096  0.9071  0.0347  0.1672
   62MOL0     C 8241   7.660   0.515   2.984  1.0082  0.1603 -0.2214
   62MOL0     C 8242   7.712   0.403   2.917  0.7393  0.8992  0.4307
   62MOL0     O 8243   7.639   0.356   2.813 -0.6636 -0.0179 -0.2156
   62MOL0     C 8244   7.570   0.236   2.857  0.4189 -0.8376  0.3723
   62MOL0     C 8245   7.501   0.176   2.732  0.6477 -0.1056 -0.3888
   62MOL0     C 8246   7.582   0.070   2.660 -0.2550  0.6007  0.3332
   62MOL0     C 8247   7.583   0.080   2.505  0.0664  0.6213 -0.9091
   62MOL0     C 8248   7.684  -0.027   2.452 -0.2711 -0.1155  0.1126
   62MOL0     C 8249   7.733   0.006   2.319  0.9454 -0.1893  0.5863
   62MOL0     C 8250   7.843  -0.084   2.263  0.1424  0.8989  0.1754
   62MOL0     C 8251   7.982  -0.033   2.296  0.2565 -0.7330 -0.1201
   62MOL0     N 8252   8.082  -0.110   2.218 -0.0858 -0.2956  0.2749
   62MOL0     C 8253   8.087  -0.250   2.189 -0.2431 -0.3404 -0.4177
   62MOL0     C 8254   8.161  -0.258   2.076 -0.0776 -0.3489  0.5808
   62MOL0     C 8255   8.192  -0.399   2.016  0.5440 -1.2747  0.5681
   62MOL0     C 8256   8.321  -0.455   2.075  0.7405 -0.6093 -0.6466
   62MOL0     C 8257   8.371  -0.571   1.983 -0.1585  0.4502 -0.5739
   62MOL0     C 8258   8.262  -0.673   1.952 -0.7624 -0.4647 -0.7702
   62MOL0     O 8259   8.328  -0.787   1.909  0.6944 -0.1728 -0.0579
   62MOL0     C 8260   8.248  -0.889   1.879 -0.0569 -0.2721 -0.0863
   62MOL0     C 8261   8.237  -0.922   1.746  0.2662 -0.7847  0.4008
   62MOL0     C 8262   8.160  -1.028   1.704  0.1060  0.1521  0.1912
   62MOL0     C 8263   8.086  -1.099   1.797  0.2483 -0.3555  0.2309
   62MOL0     C 8264   7.987  -1.202   1.756 -0.1382 -0.0630 -0.5591
   62MOL0     O 8265   7.955  -1.197   1.626  1.5510  0.9317  0.3480
   62MOL0     C 8266   7.868  -1.302   1.578 -1.0502  0.2238 -0.1137
   62MOL0     C 8267   7.759  -1.257   1.505 -0.1243  0.4622 -0.3456
   62MOL0     C 8268   7.668  -1.349   1.445  0.4379 -0.0575  0.9570
   62MOL0     C 8269   7.694  -1.488   1.452  0.3574 -0.3807 -0.2176
   62MOL0     O 8270   7.611  -1.573   1.389  0.1833  0.0309  0.5094
   62MOL0     C 8271   7.603  -1.565   1.241 -0.1384 -1.2689 -0.1989
   62MOL0     C 8272   7.615  -1.698   1.182  0.5185 -0.3281  0.0170
   62MOL0     C 8273   7.602  -1.694   1.031  0.3888 -0.1043 -0.0587
   62MOL0     C 8274   7.551  -1.825   0.987 -1.1110  0.5455  0.4774
   62MOL0     C 8275   7.554  -1.836   0.835 -0.5387  0.2952 -0.1074
   62MOL0     C 8276   7.478  -1.960   0.781 -0.2398  0.6548  0.7208
   62MOL0     C 8277   7.457  -1.969   0.625  0.3159 -0.5419  0.4614
   62MOL0     C 8278   7.371  -1.862   0.555  0.5343 -0.6139 -0.1873
   62MOL0    Cl 8279   7.202  -1.918   0.603  0.2234 -0.0332  0.0695
   62MOL0     C 8280   7.804  -1.532   1.521 -0.1571  0.1325  0.0528
   62MOL0     C 8281   7.887  -1.440   1.590  0.7130  0.2880 -0.4490
   62MOL0     O 8282   7.961  -1.292   1.836 -0.0905  0.8780  0.0915
   62MOL0     C 8283   8.102  -1.070   1.933  0.3089  0.1769  0.4370
   62MOL0     C 8284   8.180  -0.965   1.974  0.1030 -0.2769  0.2108
   62MOL0     N 8285   8.197  -0.127   2.043 -0.0128  1.0173 -0.2924
   62MOL0     N 8286   8.155  -0.039   2.120  0.3622  0.5517  0.1958
   62MOL0     C 8287   7.823   0.335   2.956  0.9194 -0.3048  0.6011
   62MOL0     C 8288   7.877   0.362   3.082 -0.0600  0.2804  0.3462
   62MOL0     C 8289   7.895   0.600   3.496 -1.3570  0.3512  0.5316
   62MOL0     C 8290   8.033   0.557   3.503 -0.6252  0.0723 -0.5032
   62MOL0     C 8291   8.118   0.625   3.588  0.0448 -0.4141 -0.1582
   62MOL0     C 8292   8.077   0.724   3.687  0.0560  0.3039 -0.2460
   62MOL0     O 8293   8.168   0.769   3.779  0.6211 -0.4275  0.0899
   62MOL0     C 8294   8.146   0.913   3.815  0.1102  1.2390 -0.7172
   62MOL0     C 8295   8.193   0.932   3.962 -0.5756  0.1546 -0.5556
   62MOL0     C 8296   8.189   1.086   4.004 -0.4676 -0.1419  0.2672
   62MOL0     C 8297   8.281   1.114   4.125 -0.0599  0.4564  0.1503
   62MOL0     C 8298   8.249   1.023   4.235  0.0742  0.0870  0.9715
   62MOL0     C 8299   8.213   0.957   4.335  0.6750 -0.4374 -0.5107
   62MOL0     C 8300   7.937   0.742   3.690  0.1434  0.3112 -0.8539
   62MOL0     C 8301   7.848   0.681   3.602 -0.1638 -0.5567 -0.7623
   62MOL0     C 8302   7.702   0.717   3.625  0.2880  0.7754 -0.8790
   62MOL0     H 8303   7.720   0.657   3.140 -0.5048 -0.4508  0.9993
   62MOL0     H 8304   7.582   0.580   2.946  1.1192 -0.8815 -2.3581
   62MOL0     H 8305   7.645   0.170   2.900 -2.0494 -1.9262  3.3168
   62MOL0     H 8306   7.493   0.265   2.929  0.8026 -0.3767  0.6027
   62MOL0     H 8307   7.470   0.257   2.666  1.8152  0.7992  0.1368
   62MOL0     H 8308   7.405   0.137   2.768 -0.5298  2.6334 -0.2993
   62MOL0     H 8309   7.541  -0.024   2.699 -1.4110  1.5504  1.5308
   62MOL0     H 8310   7.684   0.080   2.699  0.3136  1.0646 -1.2063
   62MOL0     H 8311   7.483   0.072   2.463 -1.7342  2.0255  2.7431
   62MOL0     H 8312   7.609   0.181   2.474 -0.1934  0.4538 -1.6901
   62MOL0     H 8313   7.777  -0.017   2.508  0.3578  3.2899 -1.2657
   62MOL0     H 8314   7.637  -0.126   2.453  2.6173 -1.6349  2.1417
   62MOL0     H 8315   7.643   0.006   2.257  1.7612 -0.5942 -0.6462
   62MOL0     H 8316   7.757   0.112   2.307 -0.7285  0.2052  0.5297
   62MOL0     H 8317   7.826  -0.094   2.155 -4.9877  2.2681  0.5473
   62MOL0     H 8318   7.834  -0.184   2.305  1.2619  1.2905  1.4056
   62MOL0     H 8319   7.985   0.068   2.254  0.2956 -1.0468 -0.8872
   62MOL0     H 8320   7.985  -0.022   2.405 -1.7371  2.4518 -0.2384
   62MOL0     H 8321   8.037  -0.328   2.245  2.9133 -1.6638  0.8084
   62MOL0     H 8322   8.106  -0.466   2.030 -0.9178  0.6757  1.4710
   62MOL0     H 8323   8.212  -0.377   1.910  4.7511  1.0061  1.6279
   62MOL0     H 8324   8.398  -0.377   2.074  1.9590 -1.6708  1.6232
   62MOL0     H 8325   8.300  -0.492   2.176  3.9025 -1.7081 -0.2930
   62MOL0     H 8326   8.455  -0.608   2.043 -1.6125  0.8188  1.8234
   62MOL0     H 8327   8.411  -0.527   1.891 -1.5088 -1.2924 -2.0574
   62MOL0     H 8328   8.196  -0.638   1.872 -0.3716  1.2356 -0.3738
   62MOL0     H 8329   8.207  -0.685   2.046 -0.4843  0.7978 -0.4280
   62MOL0     H 8330   8.286  -0.854   1.677 -1.5089 -1.3144 -1.5033
   62MOL0     H 8331   8.151  -1.051   1.599 -1.0522 -1.6390  0.6440
   62MOL0     H 8332   7.727  -1.153   1.504  0.8446  0.8630  2.2062
   62MOL0     H 8333   7.582  -1.321   1.385  1.6647  2.2377  0.1459
   62MOL0     H 8334   7.510  -1.516   1.209 -0.1847 -0.7412  0.7034
   62MOL0     H 8335   7.684  -1.504   1.201 -1.6289  0.0204 -1.3736
   62MOL0     H 8336   7.709  -1.744   1.214  0.9659  0.4063 -0.2245
   62MOL0     H 8337   7.538  -1.764   1.224  2.0061 -2.2860 -0.2125
   62MOL0     H 8338   7.514  -1.630   1.016 -1.6028 -2.0521  2.3757
   62MOL0     H 8339   7.695  -1.660   0.985  0.3240 -0.7511 -0.6837
   62MOL0     H 8340   7.450  -1.849   1.020 -1.3619 -1.5345 -1.5222
   62MOL0     H 8341   7.609  -1.910   1.023  0.6527  2.0103  1.2812
   62MOL0     H 8342   7.661  -1.830   0.815 -0.5184  3.7081  0.4222
   62MOL0     H 8343   7.497  -1.747   0.808 -1.6165 -0.0345  0.9268
   62MOL0     H 8344   7.515  -2.059   0.808  0.3339  0.4971 -0.5775
   62MOL0     H 8345   7.379  -1.955   0.828 -0.5794 -0.0865  0.1038
   62MOL0     H 8346   7.394  -2.057   0.617  0.6089 -0.8044  0.9765
   62MOL0     H 8347   7.551  -1.991   0.573  0.4011 -2.5712  1.3655
   62MOL0     H 8348   7.383  -1.761   0.596  0.7051  0.3820 -2.4847
   62MOL0     H 8349   7.384  -1.847   0.447 -3.4113 -0.1466 -0.7611
   62MOL0     H 8350   7.831  -1.637   1.525 -1.3913 -0.1799  3.2778
   62MOL0     H 8351   7.960  -1.476   1.662 -0.9211 -1.5205  0.3817
   62MOL0     H 8352   8.045  -1.132   2.002  1.4408 -3.2379 -1.4669
   62MOL0     H 8353   8.197  -0.951   2.080  0.1976  2.6488 -0.1021
   62MOL0     H 8354   7.858   0.252   2.895  0.8378 -0.5955  0.9475
   62MOL0     H 8355   7.959   0.304   3.124 -0.2757 -0.3217 -0.0580
   62MOL0     H 8356   8.065   0.488   3.427  2.2919  0.4736  0.2388
   62MOL0     H 8357   8.222   0.617   3.559 -0.3759  1.3063 -2.3689
   62MOL0     H 8358   8.039   0.933   3.814  0.6362  4.5026 -0.8549
   62MOL0     H 8359   8.173   0.986   3.738 -1.0146  0.5229 -1.8378
   62MOL0     H 8360   8.297   0.900   3.973 -1.0247 -0.8953  1.0174
   62MOL0     H 8361   8.125   0.873   4.023  1.4157  0.8223  2.5777
   62MOL0     H 8362   8.085   1.111   4.026  0.0151  0.1531  2.4039
   62MOL0     H 8363   8.226   1.141   3.917  1.9053 -1.8510  0.0839
   62MOL0     H 8364   8.384   1.091   4.094 -0.2372 -2.3975  1.3617
   62MOL0     H 8365   8.271   1.211   4.174 -2.3373 -0.7163  2.1858
   62MOL0     H 8366   8.181   0.915   4.428  2.8295  1.5848  1.2903
   62MOL0     H 8367   7.887   0.812   3.758  0.5204  1.0395 -1.3115
   62MOL0     H 8368   7.644   0.629   3.651  1.6496  0.2090  0.3932
   62MOL0     H 8369   7.685   0.793   3.701  1.1044 -0.7148  0.8550
   62MOL0     H 8370   7.658   0.767   3.538 -3.1362 -2.4710 -1.2598
   63MOL0     O 8371   3.187   6.658   8.964 -0.0484 -0.0161  0.0197
   63MOL0     C 8372   3.170   6.545   8.915 -0.3317  1.2585 -0.1157
   63MOL0     O 8373   3.180   6.517   8.786  0.5428 -0.0693 -0.0593
   63MOL0     C 8374   3.245   6.605   8.706  0.6331 -0.7111 -0.2515
   63MOL0     C 8375   3.170   6.635   8.592 -0.4007  0.5640  0.2465
   63MOL0     C 8376   3.224   6.730   8.509 -0.1313 -0.7588  0.4794
   63MOL0     C 8377   3.338   6.808   8.543  0.3561  0.4785 -0.9439
   63MOL0     O 8378   3.399   6.906   8.482  0.3101 -0.6118 -0.0204
   63MOL0     C 8379   3.337   6.973   8.374 -0.3672  0.7809  0.4256
   63MOL0     C 8380   3.447   7.052   8.314 -0.4207  0.0865  0.1841
   63MOL0     C 8381   3.559   6.957   8.257  0.2423 -0.1475 -0.0015
   63MOL0     C 8382   3.655   7.031   8.156 -0.7353  0.2471 -0.6380
   63MOL0     C 8383   3.714   6.929   8.054 -0.6890 -0.5331 -0.1880
   63MOL0     C 8384   3.830   7.001   7.993 -0.6658 -0.7021  0.9827
   63MOL0     C 8385   3.844   6.951   7.852 -0.5686  0.3595  0.6497
   63MOL0     C 8386   3.965   7.017   7.781 -0.0918 -0.4910 -0.2645
   63MOL0     N 8387   4.005   6.956   7.650 -0.1302  0.4305  0.4238
   63MOL0     C 8388   3.955   6.981   7.518 -0.6407 -0.5022 -0.5874
   63MOL0     C 8389   4.029   6.912   7.437  0.4699 -0.8317 -0.0473
   63MOL0     C 8390   4.003   6.875   7.293 -0.2687 -0.6219 -0.1997
   63MOL0     C 8391   3.858   6.841   7.258  0.4968 -0.2203  0.8494
   63MOL0     C 8392   3.803   6.717   7.330 -0.0127  0.4254  0.0185
   63MOL0     C 8393   3.671   6.653   7.288  0.1250  0.6379 -0.6664
   63MOL0     O 8394   3.571   6.753   7.291 -0.0921 -0.0939  0.5259
   63MOL0     C 8395   3.476   6.727   7.200  0.2369  0.2063  0.0523
   63MOL0     C 8396   3.467   6.811   7.092 -0.0863  0.2517  0.4940
   63MOL0     C 8397   3.372   6.786   6.991  1.0201 -0.7307 -0.1243
   63MOL0     C 8398   3.281   6.673   6.997 -0.1665  0.3255 -0.4150
   63MOL0     C 8399   3.168   6.649   6.895 -0.3932 -1.0741  0.6588
   63MOL0     O 8400   3.161   6.730   6.793 -0.1738 -0.4626  0.2719
   63MOL0     C 8401   3.092   6.710   6.676  0.4001  0.1445  0.0819
   63MOL0     C 8402   3.072   6.584   6.617  0.1850  0.3113  0.5913
   63MOL0     C 8403   3.000   6.566   6.499  0.2846  0.0742  0.3075
   63MOL0     C 8404   2.945   6.675   6.425 -0.0747  0.0828  0.3076
   63MOL0     O 8405   2.886   6.676   6.303  0.1249  0.6721  0.1908
   63MOL0     C 8406   2.808   6.566   6.252  0.1267  0.1145 -0.0878
   63MOL0     C 8407   2.679   6.628   6.187 -0.0712 -0.3554 -1.2478
   63MOL0     C 8408   2.595   6.534   6.099  0.5985 -0.3395 -0.4175
   63MOL0     C 8409   2.522   6.423   6.179  0.0394 -0.0405 -0.6512
   63MOL0     C 8410   2.477   6.300   6.095  0.0844 -0.6694 -0.0608
   63MOL0     C 8411   2.366   6.332   5.998 -0.2418  0.5113  0.3027
   63MOL0     C 8412   2.335   6.200   5.912  0.4895 -1.3263  0.1984
   63MOL0     C 8413   2.187   6.176   5.899 -0.1556 -0.8785 -0.9463
   63MOL0    Cl 8414   2.111   6.331   5.843 -0.1269 -0.2423  0.0437
   63MOL0     C 8415   2.953   6.797   6.495 -0.4246  0.5295 -0.6798
   63MOL0     C 8416   3.031   6.817   6.611  0.9169  0.4481 -0.5959
   63MOL0     O 8417   3.089   6.556   6.918  0.3999  0.0883 -0.4720
   63MOL0     C 8418   3.289   6.599   7.108 -0.1852 -0.1474  0.2567
   63MOL0     C 8419   3.385   6.623   7.207 -0.2592 -0.2937 -0.1800
   63MOL0     N 8420   4.123   6.848   7.522 -0.2143 -0.1115  0.0925
   63MOL0     N 8421   4.107   6.873   7.649  0.4883  0.6131 -0.7178
   63MOL0     C 8422   3.411   6.761   8.661  0.4521  0.2913 -0.2052
   63MOL0     C 8423   3.363   6.658   8.737  0.1329  1.3163  0.1952
   63MOL0     C 8424   3.123   6.435   9.001  0.1080 -0.0474 -0.1066
   63MOL0     C 8425   3.015   6.346   8.958  0.0230 -0.3103  0.8409
   63MOL0     C 8426   2.984   6.236   9.041  0.8716  0.0115 -0.2953
   63MOL0     C 8427   3.060   6.204   9.160  0.2828  0.4099 -1.2371
   63MOL0     O 8428   3.046   6.096   9.246 -0.1216  0.3159  0.0574
   63MOL0     C 8429   2.927   6.012   9.236  0.6501 -0.0633  0.3125
   63MOL0     C 8430   2.976   5.883   9.170  0.0468  0.1809 -0.4498
   63MOL0     C 8431   3.018   5.772   9.271  0.3702 -0.8882  0.0727
   63MOL0     C 8432   3.068   5.655   9.190  0.4428  0.0627  0.1624
   63MOL0     C 8433   3.132   5.551   9.272  0.1235  0.3006 -0.0657
   63MOL0     C 8434   3.190   5.456   9.324 -0.8278  0.2285  0.3609
   63MOL0     C 8435   3.172   6.278   9.189  0.0226  0.1150 -0.4164
   63MOL0     C 8436   3.199   6.395   9.117  0.5242 -0.5951 -0.2449
   63MOL0     C 8437   3.320   6.466   9.170 -0.1144  0.0125  0.1686
   63MOL0     H 8438   3.077   6.581   8.578  0.7201 -1.7389  1.1203
   63MOL0     H 8439   3.181   6.759   8.414  1.3954  0.4763  0.1275
   63MOL0     H 8440   3.307   6.906   8.292 -0.5024  2.3474 -0.8583
   63MOL0     H 8441   3.253   7.032   8.410  0.7220  1.9267  1.1545
   63MOL0     H 8442   3.485   7.123   8.388 -0.4467 -1.2856  1.5700
   63MOL0     H 8443   3.406   7.100   8.225 -0.8584 -3.5653 -1.7574
   63MOL0     H 8444   3.509   6.877   8.201  2.9431 -1.5959 -0.5343
   63MOL0     H 8445   3.607   6.905   8.340 -0.3761 -1.1093 -0.2268
   63MOL0     H 8446   3.595   7.116   8.122 -4.8595 -2.2533 -0.3590
   63MOL0     H 8447   3.735   7.077   8.215 -1.1714 -0.6852  0.7300
   63MOL0     H 8448   3.742   6.835   8.102 -0.6950 -1.7622 -2.4459
   63MOL0     H 8449   3.640   6.906   7.977  1.7866 -2.1915 -2.2803
   63MOL0     H 8450   3.815   7.110   7.991 -1.6805 -0.7891 -2.1318
   63MOL0     H 8451   3.917   6.980   8.055  0.7562  2.4738  0.2530
   63MOL0     H 8452   3.750   6.974   7.801 -0.6055 -1.3537 -0.0974
   63MOL0     H 8453   3.866   6.844   7.863 -0.2475  0.3641  0.0470
   63MOL0     H 8454   3.948   7.123   7.762  2.9581  0.1812  0.2172
   63MOL0     H 8455   4.053   7.004   7.846 -0.0005  0.1211 -0.2647
   63MOL0     H 8456   3.884   7.061   7.502  1.1256  1.2365 -0.1890
   63MOL0     H 8457   4.020   6.968   7.238  0.3264  0.6928  2.0589
   63MOL0     H 8458   4.074   6.799   7.261  0.3435  0.5862 -1.8428
   63MOL0     H 8459   3.794   6.926   7.283 -0.5534  0.5274 -3.4589
   63MOL0     H 8460   3.860   6.821   7.150  0.6379  0.7174  0.6638
   63MOL0     H 8461   3.792   6.730   7.438 -0.1601  0.2663  0.0243
   63MOL0     H 8462   3.887   6.647   7.325 -1.1716 -1.0169  0.0520
   63MOL0     H 8463   3.643   6.575   7.359 -0.4814  1.0831 -0.4169
   63MOL0     H 8464   3.687   6.618   7.185  1.1129  1.5260 -0.8360
   63MOL0     H 8465   3.537   6.894   7.081 -0.5239  0.8781  2.1180
   63MOL0     H 8466   3.372   6.857   6.909 -1.2908  0.5250  0.8792
   63MOL0     H 8467   3.132   6.509   6.667  1.1224 -0.3428 -1.4115
   63MOL0     H 8468   2.983   6.463   6.468 -3.2972 -0.3703  3.1535
   63MOL0     H 8469   2.869   6.513   6.179 -0.7313 -0.0944 -0.6626
   63MOL0     H 8470   2.784   6.495   6.331  3.1921 -1.8589 -0.7844
   63MOL0     H 8471   2.614   6.668   6.265  2.2472 -1.8838  1.6904
   63MOL0     H 8472   2.709   6.711   6.122  1.2438 -1.2264 -1.7854
   63MOL0     H 8473   2.518   6.602   6.061  0.7834  2.1691  3.2169
   63MOL0     H 8474   2.641   6.492   6.009 -2.2744 -0.6902 -1.8417
   63MOL0     H 8475   2.431   6.461   6.226 -0.8425 -1.2901 -1.2738
   63MOL0     H 8476   2.601   6.394   6.249  3.0499  2.6154 -2.6628
   63MOL0     H 8477   2.446   6.218   6.161  0.4811 -1.0026 -0.2820
   63MOL0     H 8478   2.563   6.260   6.041 -0.1742 -0.0144 -0.9751
   63MOL0     H 8479   2.270   6.359   6.041 -1.0252  1.4778 -1.8954
   63MOL0     H 8480   2.392   6.415   5.932 -1.3736  0.1124 -0.6697
   63MOL0     H 8481   2.388   6.116   5.959  1.0871 -0.0289  1.9185
   63MOL0     H 8482   2.375   6.219   5.812 -1.0596 -0.9248 -0.3589
   63MOL0     H 8483   2.168   6.090   5.835  0.0513 -2.5893  1.1711
   63MOL0     H 8484   2.154   6.139   5.996  3.3624 -3.0375 -0.3723
   63MOL0     H 8485   2.911   6.877   6.435 -0.1221 -0.9919 -3.0898
   63MOL0     H 8486   3.039   6.920   6.646  0.1376  0.0241  0.9106
   63MOL0     H 8487   3.215   6.522   7.126  0.1890 -0.8147 -0.9288
   63MOL0     H 8488   3.394   6.572   7.302  1.9935  3.7284  2.0349
   63MOL0     H 8489   3.501   6.815   8.687  0.1335  0.1844  1.2081
   63MOL0     H 8490   3.417   6.637   8.828  0.6837 -0.3822 -0.4643
   63MOL0     H 8491   2.959   6.372   8.868  1.3246 -1.0362 -0.2253
   63MOL0     H 8492   2.896   6.180   9.012  1.1406 -1.2910  1.2605
   63MOL0     H 8493   2.850   6.066   9.180  1.0985  0.7432  0.4560
   63MOL0     H 8494   2.879   5.991   9.333  3.2331 -0.4809  1.5783
   63MOL0     H 8495   3.059   5.899   9.100 -0.7218  0.4677 -1.3179
   63MOL0     H 8496   2.892   5.846   9.111 -0.5384  1.0828 -0.1915
   63MOL0     H 8497   2.933   5.750   9.335  0.4850 -1.5288  0.0142
   63MOL0     H 8498   3.092   5.814   9.340 -0.8190 -0.6273  1.2179
   63MOL0     H 8499   2.986   5.611   9.133 -1.1544  1.4089  1.2736
   63MOL0     H 8500   3.128   5.692   9.107 -0.5331  0.3844 -0.4146
   63MOL0     H 8501   3.249   5.371   9.352  0.8521  1.1469 -0.2301
   63MOL0     H 8502   3.224   6.252   9.280 -2.1036 -1.2450  0.4983
   63MOL0     H 8503   3.351   6.427   9.268  0.6677 -1.4025 -0.6011
   63MOL0     H 8504   3.411   6.454   9.110 -0.1549 -2.2143  0.4693
   63MOL0     H 8505   3.296   6.572   9.185 -0.1711 -0.1477  1.3016
   64MOL0     O 8506   1.295   6.007   1.120  0.2229  0.0525  0.5664
   64MOL0     C 8507   1.341   5.957   1.022 -0.4811  0.0604 -0.0775
   64MOL0     O 8508   1.365   6.022   0.909  0.0256 -0.4556 -0.3430
   64MOL0     C 8509   1.317   6.150   0.895  0.7148  0.1174 -0.6518
   64MOL0     C 8510   1.416   6.248   0.905 -1.6626 -1.2899 -0.1017
   64MOL0     C 8511   1.393   6.386   0.878 -0.3791 -0.1695 -0.0813
   64MOL0     C 8512   1.270   6.430   0.825 -0.4164  0.5232 -0.2508
   64MOL0     O 8513   1.245   6.561   0.796  0.0855 -0.5161  0.2751
   64MOL0     C 8514   1.333   6.607   0.690 -0.2444  0.4919  0.5657
   64MOL0     C 8515   1.319   6.755   0.674  0.8532 -0.1790  0.5844
   64MOL0     C 8516   1.331   6.833   0.797 -0.1307 -0.7948 -0.5606
   64MOL0     C 8517   1.315   6.986   0.769  0.0479 -0.1966  0.3903
   64MOL0     C 8518   1.295   7.075   0.892 -0.6894  0.4271 -0.4739
   64MOL0     C 8519   1.422   7.155   0.914  0.3147 -0.0534  1.0429
   64MOL0     C 8520   1.437   7.237   1.048  0.1348  0.1344  0.4292
   64MOL0     C 8521   1.458   7.149   1.169  0.1689  0.0965 -0.7725
   64MOL0     N 8522   1.586   7.069   1.162  0.5798  0.3929 -0.5945
   64MOL0     C 8523   1.591   6.942   1.128  0.1644  1.0763 -0.5289
   64MOL0     C 8524   1.721   6.917   1.091 -0.3670  0.7495  0.0799
   64MOL0     C 8525   1.773   6.798   1.025  0.4287  0.1427 -0.3178
   64MOL0     C 8526   1.814   6.685   1.118 -0.1031 -0.9000  0.6087
   64MOL0     C 8527   1.829   6.548   1.053  1.6510  0.1984 -0.6145
   64MOL0     C 8528   1.925   6.537   0.930 -0.3136 -0.1652 -0.1534
   64MOL0     O 8529   1.850   6.574   0.807 -0.0747  0.1090  0.2262
   64MOL0     C 8530   1.911   6.602   0.691 -0.1658  0.8044 -0.4618
   64MOL0     C 8531   1.842   6.604   0.571  0.7878  0.1421  0.1511
   64MOL0     C 8532   1.894   6.627   0.445  0.6245  0.5098 -0.0065
   64MOL0     C 8533   2.026   6.664   0.435 -0.0876  0.0092 -1.1777
   64MOL0     C 8534   2.097   6.687   0.313 -0.1428  1.1545 -0.1531
   64MOL0     O 8535   2.234   6.711   0.324 -0.1409  0.1783  0.5702
   64MOL0     C 8536   2.288   6.800   0.231 -0.5823  0.3540 -0.3735
   64MOL0     C 8537   2.228   6.917   0.190 -0.5846  0.1974 -0.2654
   64MOL0     C 8538   2.286   7.001   0.101 -0.7129 -0.9943 -0.6765
   64MOL0     C 8539   2.421   6.988   0.062 -0.7196  0.5000 -0.1974
   64MOL0     O 8540   2.513   7.075   0.002 -1.1375 -0.1028 -0.6648
   64MOL0     C 8541   2.462   7.204  -0.028  0.4509 -0.1257 -0.6987
   64MOL0     C 8542   2.479   7.309   0.084  0.4909  0.4524 -0.2490
   64MOL0     C 8543   2.462   7.448   0.040 -0.5980 -0.4413 -0.9779
   64MOL0     C 8544   2.560   7.500  -0.066  0.3921  0.0370  0.3836
   64MOL0     C 8545   2.541   7.646  -0.115 -0.3316 -0.7867 -0.4335
   64MOL0     C 8546   2.606   7.735  -0.008  0.1526 -0.3807 -0.3626
   64MOL0     C 8547   2.616   7.882  -0.048 -0.6684  0.6457 -0.6521
   64MOL0     C 8548   2.690   7.955   0.059  0.3000 -0.0888  0.0256
   64MOL0    Cl 8549   2.621   8.119   0.081  0.5351 -0.1218  0.1189
   64MOL0     C 8550   2.483   6.864   0.098  1.2682 -0.5818 -0.6659
   64MOL0     C 8551   2.415   6.773   0.178 -0.3711 -0.1421 -0.4919
   64MOL0     O 8552   2.034   6.693   0.212  0.2416 -0.3079  0.1723
   64MOL0     C 8553   2.104   6.657   0.550 -0.4524 -0.1949 -0.5817
   64MOL0     C 8554   2.048   6.626   0.672 -0.1831  0.2064 -0.6545
   64MOL0     N 8555   1.793   7.025   1.122  0.1574 -0.0975  0.1574
   64MOL0     N 8556   1.711   7.123   1.161 -0.0849  0.9133 -0.1429
   64MOL0     C 8557   1.168   6.337   0.812  0.6037  0.6088 -0.4867
   64MOL0     C 8558   1.193   6.200   0.844 -0.7312 -0.5625  0.5251
   64MOL0     C 8559   1.407   5.820   1.043 -0.2461 -0.0619  0.5565
   64MOL0     C 8560   1.410   5.767   1.167  0.6475  0.6582 -0.3128
   64MOL0     C 8561   1.473   5.649   1.197 -0.7054  0.6657 -0.6394
   64MOL0     C 8562   1.536   5.566   1.097 -0.0390 -0.0787 -0.0984
   64MOL0     O 8563   1.583   5.439   1.110  0.2131  0.5606 -0.5909
   64MOL0     C 8564   1.550   5.371   1.236  1.0114 -0.0960  0.2655
   64MOL0     C 8565   1.661   5.400   1.337 -0.0879  1.0725 -0.4426
   64MOL0     C 8566   1.612   5.346   1.472  0.0144 -0.1547 -1.2120
   64MOL0     C 8567   1.734   5.316   1.566  0.0179 -0.1428 -0.8056
   64MOL0     C 8568   1.811   5.435   1.583 -0.5851  0.5862  0.2667
   64MOL0     C 8569   1.886   5.526   1.593 -0.0226 -0.0206 -0.1101
   64MOL0     C 8570   1.533   5.623   0.962  1.1654 -0.2751 -0.2169
   64MOL0     C 8571   1.474   5.753   0.940 -0.0783  0.8091 -0.1960
   64MOL0     C 8572   1.509   5.819   0.808  0.4789  0.7572 -0.3307
   64MOL0     H 8573   1.520   6.223   0.923 -1.0630  1.2346  0.2230
   64MOL0     H 8574   1.476   6.455   0.890 -1.3356  0.6984  2.0515
   64MOL0     H 8575   1.437   6.577   0.704  0.2163  1.9626  0.4096
   64MOL0     H 8576   1.295   6.562   0.598 -1.9852  0.2351  1.3608
   64MOL0     H 8577   1.222   6.780   0.630  0.8031  0.1769  0.8984
   64MOL0     H 8578   1.400   6.787   0.607  0.2699 -0.4583 -0.2798
   64MOL0     H 8579   1.421   6.815   0.856  1.0671  0.6902 -1.8552
   64MOL0     H 8580   1.250   6.814   0.868  2.0144  0.8750  2.5660
   64MOL0     H 8581   1.396   7.017   0.702 -1.0204  0.8495 -0.4706
   64MOL0     H 8582   1.222   6.984   0.711  0.6713  1.6738 -0.7945
   64MOL0     H 8583   1.215   7.147   0.874  1.2469  2.8505  0.0288
   64MOL0     H 8584   1.268   7.019   0.982  0.7420 -0.0030 -0.2819
   64MOL0     H 8585   1.506   7.086   0.916  0.9848  0.7249  0.1692
   64MOL0     H 8586   1.442   7.223   0.831  1.8553 -2.3511 -0.5869
   64MOL0     H 8587   1.362   7.313   1.069 -0.8660 -1.4232  2.8983
   64MOL0     H 8588   1.529   7.295   1.032 -0.1412  0.0297 -1.8804
   64MOL0     H 8589   1.483   7.218   1.250 -0.3914  1.5783 -1.8168
   64MOL0     H 8590   1.373   7.082   1.187  0.9036 -0.9334 -1.0484
   64MOL0     H 8591   1.508   6.874   1.113  0.5939  0.5588 -0.5898
   64MOL0     H 8592   1.694   6.751   0.966 -0.9550  0.8205  0.9214
   64MOL0     H 8593   1.846   6.830   0.951  0.3698 -1.1413 -0.9504
   64MOL0     H 8594   1.909   6.713   1.166  0.3070  0.5509 -0.9572
   64MOL0     H 8595   1.752   6.668   1.206  0.3058 -0.9042  0.8978
   64MOL0     H 8596   1.731   6.511   1.023  1.6843  1.5991 -2.7040
   64MOL0     H 8597   1.866   6.480   1.131 -0.6633 -0.1270  0.2504
   64MOL0     H 8598   1.968   6.436   0.920  1.9605  0.6538  0.6547
   64MOL0     H 8599   2.007   6.608   0.945  0.7358 -1.3172 -0.2759
   64MOL0     H 8600   1.734   6.588   0.570  0.6800 -0.0703  3.6089
   64MOL0     H 8601   1.823   6.635   0.364 -1.8308 -0.0254  1.9620
   64MOL0     H 8602   2.139   6.960   0.236 -1.8861 -0.7318 -1.7847
   64MOL0     H 8603   2.243   7.098   0.076  0.0585 -0.7433 -1.0541
   64MOL0     H 8604   2.516   7.224  -0.121  0.3264 -2.0537 -1.2225
   64MOL0     H 8605   2.358   7.215  -0.060  0.7699  1.5929 -1.2707
   64MOL0     H 8606   2.406   7.273   0.156 -0.2557 -2.2662 -2.2147
   64MOL0     H 8607   2.582   7.301   0.118  0.0741  0.3715  1.0297
   64MOL0     H 8608   2.358   7.455   0.008 -0.3373 -1.0924 -2.0131
   64MOL0     H 8609   2.485   7.508   0.129  1.3661 -0.8410 -1.1646
   64MOL0     H 8610   2.528   7.434  -0.147 -1.6826 -2.8882  3.3138
   64MOL0     H 8611   2.663   7.479  -0.036 -0.1270  0.3335  2.5037
   64MOL0     H 8612   2.434   7.666  -0.125 -0.5825 -2.2988 -1.0614
   64MOL0     H 8613   2.595   7.668  -0.208 -1.6084  0.0777 -1.0001
   64MOL0     H 8614   2.548   7.720   0.083  0.9470 -3.8736 -0.3227
   64MOL0     H 8615   2.705   7.703   0.026 -0.0496  1.2036  1.9496
   64MOL0     H 8616   2.514   7.919  -0.056 -1.1738 -0.5539  0.0349
   64MOL0     H 8617   2.665   7.884  -0.146 -3.3362 -3.4273 -2.3277
   64MOL0     H 8618   2.688   7.911   0.159  1.3156  1.3603  0.7069
   64MOL0     H 8619   2.796   7.959   0.036  0.0725 -2.4862 -1.7796
   64MOL0     H 8620   2.581   6.850   0.054  0.9267  0.5141 -1.8584
   64MOL0     H 8621   2.455   6.680   0.217 -0.5814 -0.3331 -0.7275
   64MOL0     H 8622   2.213   6.656   0.547 -0.4641 -2.3019 -1.6775
   64MOL0     H 8623   2.121   6.613   0.751 -1.5041 -2.4340  0.2964
   64MOL0     H 8624   1.069   6.378   0.793  1.1929  2.9374  1.0823
   64MOL0     H 8625   1.116   6.130   0.813 -0.0608 -0.5183 -1.3541
   64MOL0     H 8626   1.371   5.819   1.254  1.1674 -2.1032  1.7209
   64MOL0     H 8627   1.485   5.630   1.303  0.8885  1.1642 -0.7062
   64MOL0     H 8628   1.546   5.265   1.209  2.2762  0.4897 -2.5911
   64MOL0     H 8629   1.451   5.404   1.271 -0.4758 -1.6468 -2.1296
   64MOL0     H 8630   1.692   5.505   1.338 -0.6344  1.2365 -0.4789
   64MOL0     H 8631   1.743   5.336   1.302 -3.0721 -3.0491 -0.6749
   64MOL0     H 8632   1.539   5.266   1.463  0.2942 -0.3592 -1.7299
   64MOL0     H 8633   1.565   5.436   1.513 -0.4317 -0.0893 -1.8524
   64MOL0     H 8634   1.691   5.283   1.661 -0.1016  0.8485 -0.5039
   64MOL0     H 8635   1.804   5.239   1.533  1.2134  0.8204 -0.5848
   64MOL0     H 8636   1.948   5.613   1.601  0.3326 -0.1112 -1.6804
   64MOL0     H 8637   1.583   5.556   0.893 -0.0617 -1.1217 -0.3305
   64MOL0     H 8638   1.567   5.747   0.748 -1.1558 -1.8288  0.9966
   64MOL0     H 8639   1.417   5.833   0.749  0.7701 -0.1489 -1.0392
   64MOL0     H 8640   1.559   5.914   0.826  1.0003 -0.0032  2.7029
   65MOL0     O 8641  10.385   2.767   8.553  0.1713  0.5963  0.7332
   65MOL0     C 8642  10.287   2.748   8.621  0.1247 -0.7812  0.2069
   65MOL0     O 8643  10.210   2.641   8.608 -0.6372  0.1627 -0.2296
   65MOL0     C 8644  10.233   2.555   8.499  0.4080 -0.7783 -1.0318
   65MOL0     C 8645  10.222   2.416   8.521  0.2285 -0.9365 -0.1437
   65MOL0     C 8646  10.220   2.331   8.412 -0.4992 -0.6530  0.1294
   65MOL0     C 8647  10.246   2.386   8.280 -0.5355 -0.3000  0.1321
   65MOL0     O 8648  10.266   2.304   8.169 -0.3360  0.5461  0.2594
   65MOL0     C 8649  10.404   2.299   8.126 -0.2059  0.3023 -0.0491
   65MOL0     C 8650  10.409   2.293   7.965  0.1622 -0.0297 -0.9990
   65MOL0     C 8651  10.472   2.161   7.916  0.7648 -0.5375  0.1907
   65MOL0     C 8652  10.517   2.180   7.776  0.4981  0.2003  0.1195
   65MOL0     C 8653  10.596   2.049   7.718 -0.5059 -1.0596 -0.1463
   65MOL0     C 8654  10.745   2.053   7.765  0.9372  0.3189 -0.5802
   65MOL0     C 8655  10.824   1.951   7.664 -0.2250 -0.3883 -1.5083
   65MOL0     C 8656  10.969   1.981   7.684  0.7944 -0.2492  0.8221
   65MOL0     N 8657  11.049   1.879   7.614  0.2331 -0.0109  0.2813
   65MOL0     C 8658  11.132   1.921   7.507  0.3013  1.0088  0.8281
   65MOL0     C 8659  11.224   1.816   7.492  0.1434  0.3263 -0.1907
   65MOL0     C 8660  11.343   1.779   7.401  0.2717 -0.0065  0.3940
   65MOL0     C 8661  11.290   1.701   7.278 -0.2577  0.5469  0.1798
   65MOL0     C 8662  11.399   1.703   7.173 -0.5218  0.6758  0.1842
   65MOL0     C 8663  11.498   1.589   7.223  0.6706 -0.3100  0.7516
   65MOL0     O 8664  11.620   1.594   7.143 -0.0012  0.2032  0.1860
   65MOL0     C 8665  11.711   1.496   7.154  0.4023  0.0944 -1.0263
   65MOL0     C 8666  11.701   1.387   7.247 -0.1869 -0.1847  0.3590
   65MOL0     C 8667  11.790   1.285   7.242  0.3137 -0.2981  0.1974
   65MOL0     C 8668  11.887   1.288   7.139 -0.3702  0.4736  0.6282
   65MOL0     C 8669  11.985   1.176   7.132 -0.6614 -0.3494  0.1471
   65MOL0     O 8670  11.961   1.063   7.212  0.7569 -0.3520  0.8754
   65MOL0     C 8671  12.055   0.974   7.268 -0.3694 -1.0569 -0.3349
   65MOL0     C 8672  12.181   0.949   7.212  0.0891 -0.5251  0.3376
   65MOL0     C 8673  12.268   0.867   7.279 -0.6336  0.0180  0.6724
   65MOL0     C 8674  12.230   0.802   7.398  0.0921  0.8174  0.1924
   65MOL0     O 8675  12.296   0.699   7.451 -0.6632 -0.0672 -0.5558
   65MOL0     C 8676  12.314   0.582   7.384 -1.0596 -0.1675  0.4938
   65MOL0     C 8677  12.458   0.566   7.351 -0.8344 -0.2186  0.7506
   65MOL0     C 8678  12.547   0.582   7.480  0.3501 -0.2205  0.7147
   65MOL0     C 8679  12.683   0.518   7.461 -0.8272 -0.0349  0.3534
   65MOL0     C 8680  12.685   0.358   7.495 -0.4786 -0.5675 -0.4583
   65MOL0     C 8681  12.661   0.334   7.639 -0.5956 -0.3466 -0.9932
   65MOL0     C 8682  12.668   0.182   7.654 -0.5635  0.4349  0.6015
   65MOL0     C 8683  12.657   0.141   7.795 -0.2146 -0.5552  0.1844
   65MOL0    Cl 8684  12.520   0.204   7.875  0.1383 -0.2566 -0.2049
   65MOL0     C 8685  12.094   0.813   7.440 -0.0979 -0.1680 -0.9460
   65MOL0     C 8686  12.008   0.898   7.373  0.1467 -0.1324  0.2944
   65MOL0     O 8687  12.094   1.200   7.078 -0.3302  0.3801 -0.5082
   65MOL0     C 8688  11.901   1.403   7.052 -0.9619  0.6228 -0.0556
   65MOL0     C 8689  11.816   1.505   7.063 -0.2414 -0.9724 -0.4574
   65MOL0     N 8690  11.195   1.726   7.593 -0.5188 -0.1091  0.7229
   65MOL0     N 8691  11.089   1.760   7.665  0.1303 -0.4550 -0.5946
   65MOL0     C 8692  10.255   2.521   8.260  0.7723 -0.2350 -0.4813
   65MOL0     C 8693  10.236   2.605   8.366 -0.9462  0.3815 -0.1005
   65MOL0     C 8694  10.274   2.836   8.737  0.0749 -0.5957 -0.6409
   65MOL0     C 8695  10.148   2.844   8.803 -0.2346 -0.3785  0.5564
   65MOL0     C 8696  10.127   2.927   8.911 -0.3012  0.0273 -0.4456
   65MOL0     C 8697  10.223   3.002   8.967 -0.2882  0.7044  0.0196
   65MOL0     O 8698  10.190   3.087   9.076 -1.0153  0.3272  0.6753
   65MOL0     C 8699  10.279   3.173   9.136 -0.6948 -0.6308 -0.1814
   65MOL0     C 8700  10.214   3.232   9.262  0.1746  0.6676 -0.2732
   65MOL0     C 8701  10.066   3.251   9.265 -0.4460 -0.8524 -0.6133
   65MOL0     C 8702  10.015   3.326   9.398 -0.6514  0.2957  0.4236
   65MOL0     C 8703  10.023   3.225   9.512 -0.1905 -0.0894  0.1586
   65MOL0     C 8704  10.030   3.133   9.581  0.0072  0.4149 -0.4420
   65MOL0     C 8705  10.356   2.995   8.903 -0.3354  0.2616 -0.6017
   65MOL0     C 8706  10.377   2.920   8.787 -0.6247 -0.1623 -1.0870
   65MOL0     C 8707  10.519   2.919   8.749 -0.4958  0.2856 -0.0408
   65MOL0     H 8708  10.191   2.381   8.619  0.9676 -1.3203 -0.0403
   65MOL0     H 8709  10.206   2.223   8.421 -1.0451 -0.7796 -1.8840
   65MOL0     H 8710  10.461   2.385   8.163 -0.6886  0.3964  0.4825
   65MOL0     H 8711  10.454   2.215   8.175  0.2257  1.0628  0.8565
   65MOL0     H 8712  10.483   2.368   7.938  2.3347 -1.3952  0.7348
   65MOL0     H 8713  10.312   2.318   7.923  0.4268  0.7089 -1.1798
   65MOL0     H 8714  10.401   2.081   7.939  1.4137 -0.8769  1.0653
   65MOL0     H 8715  10.561   2.132   7.972 -0.7661 -0.6763  2.6987
   65MOL0     H 8716  10.427   2.202   7.719  1.1379 -0.4247 -1.1744
   65MOL0     H 8717  10.576   2.271   7.768  0.5430  0.0138 -2.2926
   65MOL0     H 8718  10.549   1.954   7.742  1.4963 -1.9430  0.5460
   65MOL0     H 8719  10.606   2.058   7.609  0.2628  2.2495  0.0797
   65MOL0     H 8720  10.771   2.158   7.751 -0.5542  0.7223 -0.4649
   65MOL0     H 8721  10.757   2.028   7.871  0.6483  3.2064  0.2210
   65MOL0     H 8722  10.799   1.961   7.558 -1.5195 -1.9329 -1.3933
   65MOL0     H 8723  10.806   1.847   7.692 -0.3993 -0.0035 -0.1038
   65MOL0     H 8724  11.014   2.071   7.643  5.3326 -1.4532  2.4979
   65MOL0     H 8725  10.980   1.979   7.793 -1.4378  4.0808  1.3261
   65MOL0     H 8726  11.128   2.010   7.446 -2.2696 -0.4286 -1.2794
   65MOL0     H 8727  11.400   1.870   7.381  1.6532 -0.5721  1.5767
   65MOL0     H 8728  11.415   1.722   7.460 -1.8865 -3.1670  0.2537
   65MOL0     H 8729  11.254   1.602   7.306  2.8707 -0.6677  0.3926
   65MOL0     H 8730  11.199   1.749   7.241 -1.8894 -2.1396  0.4834
   65MOL0     H 8731  11.450   1.800   7.166  0.6539  0.0548 -0.1688
   65MOL0     H 8732  11.373   1.669   7.072  0.3248 -0.9306  0.4727
   65MOL0     H 8733  11.443   1.495   7.212  3.0321 -1.5132 -1.7015
   65MOL0     H 8734  11.517   1.606   7.330  1.0424  1.1231  0.4741
   65MOL0     H 8735  11.625   1.387   7.324 -0.7303 -0.2536 -0.1709
   65MOL0     H 8736  11.778   1.208   7.318  1.0846 -0.8181 -0.1903
   65MOL0     H 8737  12.208   0.998   7.119 -2.2783 -1.8003 -1.1134
   65MOL0     H 8738  12.367   0.851   7.238  1.2205  1.5726  4.0834
   65MOL0     H 8739  12.279   0.496   7.441 -0.2641 -0.5943  0.3490
   65MOL0     H 8740  12.255   0.590   7.292  0.6960  2.6910 -0.5265
   65MOL0     H 8741  12.468   0.465   7.310 -1.4385 -0.4550  1.1712
   65MOL0     H 8742  12.500   0.636   7.277  1.7485 -2.0484  0.3751
   65MOL0     H 8743  12.555   0.687   7.509  1.4958 -0.0368 -0.1899
   65MOL0     H 8744  12.484   0.543   7.561  0.0757  1.0044  1.1115
   65MOL0     H 8745  12.755   0.571   7.524  1.3241 -0.6865 -1.4439
   65MOL0     H 8746  12.710   0.532   7.356 -2.2003 -1.4573 -0.2353
   65MOL0     H 8747  12.778   0.318   7.454  0.7885  0.3362  1.4022
   65MOL0     H 8748  12.602   0.309   7.443 -0.5914  0.3302 -1.1504
   65MOL0     H 8749  12.742   0.382   7.694  0.0559 -1.7251 -0.7344
   65MOL0     H 8750  12.568   0.376   7.678  1.8159  1.0141  4.1054
   65MOL0     H 8751  12.758   0.147   7.602 -0.8271  1.4977 -0.6239
   65MOL0     H 8752  12.596   0.121   7.601  2.0038 -3.1751  0.9078
   65MOL0     H 8753  12.641   0.034   7.803  0.6378 -1.0553 -3.1379
   65MOL0     H 8754  12.752   0.163   7.845  0.0510  2.0657 -1.2558
   65MOL0     H 8755  12.061   0.756   7.527  0.7687  0.9724  0.1775
   65MOL0     H 8756  11.902   0.914   7.391 -0.1647  0.6860 -1.9422
   65MOL0     H 8757  11.981   1.407   6.980  0.8405  3.4149  1.8861
   65MOL0     H 8758  11.831   1.599   7.010 -2.3302  0.6352  1.5304
   65MOL0     H 8759  10.256   2.566   8.161  0.9025  1.0207  0.0633
   65MOL0     H 8760  10.254   2.710   8.347  1.3110 -0.0078 -0.4403
   65MOL0     H 8761  10.066   2.777   8.784 -0.5962 -0.2183  1.4955
   65MOL0     H 8762  10.025   2.923   8.949 -0.6224 -0.7799 -1.3495
   65MOL0     H 8763  10.290   3.258   9.068  0.1136  2.0387  2.9942
   65MOL0     H 8764  10.376   3.126   9.156 -2.0718 -2.8643  1.7702
   65MOL0     H 8765  10.264   3.328   9.281  3.0809  0.3057 -4.5338
   65MOL0     H 8766  10.226   3.151   9.334 -2.6519  1.3925  1.1316
   65MOL0     H 8767  10.020   3.156   9.237 -1.5263 -0.4839 -0.1762
   65MOL0     H 8768  10.049   3.323   9.184 -0.4425 -0.8860 -0.6438
   65MOL0     H 8769  10.084   3.411   9.405 -0.1724 -0.0266 -0.3572
   65MOL0     H 8770   9.912   3.364   9.394 -0.3221  1.0921 -0.9302
   65MOL0     H 8771  10.034   3.045   9.642 -3.7689  0.5747  0.3007
   65MOL0     H 8772  10.436   3.058   8.938 -0.1999  0.9864 -2.1180
   65MOL0     H 8773  10.532   2.933   8.641 -0.1597 -1.5280 -0.2743
   65MOL0     H 8774  10.571   2.994   8.809  0.7896 -0.9076  0.4207
   65MOL0     H 8775  10.570   2.823   8.768  1.6755  1.3558 -0.1513
   66MOL0     O 8776   7.034   4.754   1.262  0.4433  0.6957  0.8107
   66MOL0     C 8777   7.031   4.664   1.345  0.5853 -0.1411  0.3667
   66MOL0     O 8778   6.937   4.572   1.363  0.2975  0.0465  0.3971
   66MOL0     C 8779   6.822   4.577   1.287  0.4965 -1.4363 -0.1706
   66MOL0     C 8780   6.804   4.500   1.171  0.0998  0.4929  0.2638
   66MOL0     C 8781   6.686   4.505   1.094 -0.6825 -0.2308  1.3860
   66MOL0     C 8782   6.586   4.593   1.128 -0.7674  1.4818 -0.2113
   66MOL0     O 8783   6.471   4.584   1.060  0.3005  0.0105 -0.6126
   66MOL0     C 8784   6.361   4.666   1.105  0.3710 -0.1664 -0.8107
   66MOL0     C 8785   6.233   4.671   1.014 -1.0403 -0.0296 -0.5868
   66MOL0     C 8786   6.270   4.742   0.888  0.2478  0.5278 -0.8029
   66MOL0     C 8787   6.161   4.745   0.779  0.2957 -0.7749 -0.0696
   66MOL0     C 8788   6.199   4.852   0.668  0.1712 -0.5171 -0.2594
   66MOL0     C 8789   6.295   4.791   0.568 -0.6196  0.6666  0.2376
   66MOL0     C 8790   6.225   4.683   0.467 -0.3704  0.6264  0.2793
   66MOL0     C 8791   6.183   4.754   0.343 -0.2368 -0.0852 -0.1477
   66MOL0     N 8792   6.275   4.739   0.226  0.1494  0.3207 -0.1465
   66MOL0     C 8793   6.402   4.787   0.223  0.1540 -0.1991 -0.6886
   66MOL0     C 8794   6.437   4.822   0.099 -0.0355 -0.5171  0.6452
   66MOL0     C 8795   6.574   4.882   0.072 -0.1226  0.2087  0.3771
   66MOL0     C 8796   6.648   4.798  -0.035  0.8859 -0.1155  0.3666
   66MOL0     C 8797   6.787   4.854  -0.068  0.7270 -0.0751  1.2182
   66MOL0     C 8798   6.830   4.848  -0.218  0.5416  0.3639  0.7759
   66MOL0     O 8799   6.958   4.791  -0.241 -0.4265  0.6600 -0.2720
   66MOL0     C 8800   7.066   4.879  -0.256  0.1501 -0.5670 -0.2076
   66MOL0     C 8801   7.189   4.825  -0.292 -0.9852 -0.6776 -0.0868
   66MOL0     C 8802   7.298   4.907  -0.322  0.3423 -0.0401 -0.2720
   66MOL0     C 8803   7.288   5.043  -0.317 -0.3981 -1.9490  0.8225
   66MOL0     C 8804   7.409   5.112  -0.347  0.1044  0.9263  0.0052
   66MOL0     O 8805   7.387   5.239  -0.341  0.7370  0.1259  0.2736
   66MOL0     C 8806   7.491   5.318  -0.387  0.2881 -0.9767  0.6270
   66MOL0     C 8807   7.488   5.366  -0.522  0.4793 -0.6446  0.2564
   66MOL0     C 8808   7.605   5.440  -0.563  0.3055 -0.2143  0.4148
   66MOL0     C 8809   7.716   5.472  -0.479  0.4354  0.7124 -0.2461
   66MOL0     O 8810   7.827   5.544  -0.505 -0.3761  0.5157 -0.4379
   66MOL0     C 8811   7.807   5.671  -0.568 -0.3740 -1.9429 -0.4337
   66MOL0     C 8812   7.906   5.767  -0.501 -0.2815  0.5452  0.3899
   66MOL0     C 8813   7.880   5.805  -0.362  0.4292 -0.0475 -0.1383
   66MOL0     C 8814   7.735   5.829  -0.317  0.5346  1.0910 -0.0536
   66MOL0     C 8815   7.715   5.875  -0.179 -0.4266 -0.5876 -0.2037
   66MOL0     C 8816   7.768   6.013  -0.140  0.5759  0.4146 -0.3640
   66MOL0     C 8817   7.697   6.127  -0.225  0.1301  0.4120 -0.0991
   66MOL0     C 8818   7.689   6.250  -0.132  0.7404  0.3059  0.7645
   66MOL0    Cl 8819   7.664   6.396  -0.236 -0.1055 -0.4467 -0.1002
   66MOL0     C 8820   7.705   5.421  -0.349 -0.0155 -1.2758 -0.4230
   66MOL0     C 8821   7.598   5.349  -0.306 -0.5921 -0.3665 -0.2507
   66MOL0     O 8822   7.520   5.059  -0.381  0.0490 -0.1320 -0.5865
   66MOL0     C 8823   7.168   5.103  -0.278 -0.4850 -0.0697 -0.3891
   66MOL0     C 8824   7.061   5.023  -0.251  0.5757  0.3911  0.5780
   66MOL0     N 8825   6.332   4.780   0.020 -0.0810  0.3628  0.4963
   66MOL0     N 8826   6.243   4.731   0.093 -0.0066 -0.0423 -0.0473
   66MOL0     C 8827   6.613   4.676   1.241  0.1970  0.0997 -0.1667
   66MOL0     C 8828   6.725   4.674   1.321  0.0425 -0.3930  0.1514
   66MOL0     C 8829   7.153   4.652   1.424 -0.6384  0.1453  0.5537
   66MOL0     C 8830   7.278   4.685   1.365 -0.0119 -0.2633 -0.6934
   66MOL0     C 8831   7.391   4.685   1.449 -0.4344 -0.1060 -1.1962
   66MOL0     C 8832   7.391   4.631   1.579  0.8337  0.2223 -0.2308
   66MOL0     O 8833   7.490   4.615   1.671  0.1249 -0.4184 -0.3561
   66MOL0     C 8834   7.629   4.642   1.628 -0.0327  0.0901 -0.8361
   66MOL0     C 8835   7.722   4.581   1.741  0.1846 -0.4582  0.0293
   66MOL0     C 8836   7.696   4.631   1.879 -0.0324 -0.1078 -1.1936
   66MOL0     C 8837   7.596   4.552   1.958 -0.6992 -0.1364  0.5180
   66MOL0     C 8838   7.612   4.592   2.099  0.1566 -0.1503  0.1777
   66MOL0     C 8839   7.650   4.607   2.212  0.1311 -0.0530  0.8015
   66MOL0     C 8840   7.268   4.594   1.624 -0.3058 -0.1233  0.5794
   66MOL0     C 8841   7.154   4.607   1.551  0.3990  0.1694 -0.6116
   66MOL0     C 8842   7.030   4.580   1.633  0.5172  0.6717 -0.5854
   66MOL0     H 8843   6.880   4.433   1.133 -0.5249  1.0153 -2.1099
   66MOL0     H 8844   6.671   4.429   1.018 -0.7990  1.7693 -0.6768
   66MOL0     H 8845   6.319   4.629   1.199 -0.4022  1.6889 -0.3830
   66MOL0     H 8846   6.404   4.766   1.117 -1.6782  0.5506  1.4672
   66MOL0     H 8847   6.155   4.720   1.072  0.4972 -1.9867  3.5691
   66MOL0     H 8848   6.214   4.566   0.989  2.0851 -0.9454  0.3683
   66MOL0     H 8849   6.358   4.684   0.857 -0.4125 -1.3945  0.7415
   66MOL0     H 8850   6.302   4.845   0.905 -2.5587  1.7879 -2.4951
   66MOL0     H 8851   6.160   4.643   0.738 -2.1108 -0.8147 -0.1066
   66MOL0     H 8852   6.072   4.765   0.841  2.1166 -0.1130  2.4783
   66MOL0     H 8853   6.107   4.882   0.617 -1.3824 -1.1400  2.0438
   66MOL0     H 8854   6.235   4.936   0.727  0.4556 -1.2197  0.5966
   66MOL0     H 8855   6.351   4.866   0.511 -2.4938  0.4556 -2.0471
   66MOL0     H 8856   6.365   4.732   0.627  0.1531  1.9522  0.6458
   66MOL0     H 8857   6.134   4.640   0.509 -0.7603  1.6230  0.4759
   66MOL0     H 8858   6.299   4.607   0.438 -1.3576 -1.0620  1.9370
   66MOL0     H 8859   6.086   4.715   0.308 -1.2173  2.2633 -0.2493
   66MOL0     H 8860   6.162   4.858   0.367  1.5299 -0.1500  1.9462
   66MOL0     H 8861   6.472   4.807   0.304  2.5025  1.9441 -3.0292
   66MOL0     H 8862   6.553   4.981   0.030 -0.8596 -0.9250 -2.1051
   66MOL0     H 8863   6.631   4.884   0.166  2.1722 -0.2065 -0.9237
   66MOL0     H 8864   6.651   4.696   0.004  1.0931 -1.2646 -2.4163
   66MOL0     H 8865   6.585   4.806  -0.125  0.0194 -1.2788  0.8510
   66MOL0     H 8866   6.862   4.806  -0.004 -0.0980 -1.2437  1.3369
   66MOL0     H 8867   6.799   4.957  -0.033  2.6733 -0.3046  1.3052
   66MOL0     H 8868   6.818   4.944  -0.269  2.5520 -1.1348 -2.9772
   66MOL0     H 8869   6.753   4.786  -0.264  0.8061  0.6950 -0.1343
   66MOL0     H 8870   7.208   4.718  -0.295 -1.2337 -0.7055 -1.5929
   66MOL0     H 8871   7.391   4.851  -0.330 -0.7083 -2.2048  1.4010
   66MOL0     H 8872   7.401   5.344  -0.584 -0.2537  0.4696  0.8577
   66MOL0     H 8873   7.612   5.479  -0.664  0.3031  0.0541  0.5172
   66MOL0     H 8874   7.835   5.668  -0.673  2.1720 -1.3151  0.1723
   66MOL0     H 8875   7.702   5.701  -0.561 -0.3792 -1.5427 -1.9441
   66MOL0     H 8876   8.008   5.728  -0.500 -1.0543 -1.5752  1.0600
   66MOL0     H 8877   7.923   5.859  -0.559 -0.9789 -0.1924 -1.0370
   66MOL0     H 8878   7.912   5.722  -0.298  5.2912  3.1876  2.2370
   66MOL0     H 8879   7.938   5.895  -0.343  0.9465 -0.2373 -0.7732
   66MOL0     H 8880   7.691   5.729  -0.322  0.7557  0.9289  0.9999
   66MOL0     H 8881   7.690   5.889  -0.397  1.1579  0.5386 -0.8390
   66MOL0     H 8882   7.763   5.809  -0.105  1.4125 -0.0987 -0.8938
   66MOL0     H 8883   7.608   5.867  -0.157 -0.7425 -1.5516 -1.9401
   66MOL0     H 8884   7.750   6.043  -0.036  0.5215  0.6277 -0.4350
   66MOL0     H 8885   7.877   6.007  -0.142  0.7511  1.9236  1.6473
   66MOL0     H 8886   7.604   6.093  -0.272  1.4318 -0.2514 -2.3450
   66MOL0     H 8887   7.769   6.150  -0.304  0.3712  3.8519  0.9250
   66MOL0     H 8888   7.611   6.244  -0.056 -1.3540 -0.9169 -1.3228
   66MOL0     H 8889   7.784   6.250  -0.079  1.1880 -2.2141  0.1112
   66MOL0     H 8890   7.771   5.467  -0.276 -0.0963 -2.2274  0.2658
   66MOL0     H 8891   7.594   5.325  -0.200  0.4001  2.1700  0.4400
   66MOL0     H 8892   7.168   5.211  -0.264  1.2847 -0.1029  0.1709
   66MOL0     H 8893   6.971   5.079  -0.227 -0.7622  0.4671 -3.7638
   66MOL0     H 8894   6.546   4.751   1.282  1.8969  0.8730  1.3311
   66MOL0     H 8895   6.733   4.737   1.408  2.2793 -1.7537  1.0132
   66MOL0     H 8896   7.282   4.733   1.267 -0.8609  0.4468 -0.3991
   66MOL0     H 8897   7.482   4.719   1.402 -0.6754  0.3041 -1.3682
   66MOL0     H 8898   7.652   4.749   1.628 -2.1913  0.6072  0.1602
   66MOL0     H 8899   7.653   4.601   1.530  0.1742  3.2822 -2.2471
   66MOL0     H 8900   7.820   4.616   1.707 -0.8236  2.0609 -0.5450
   66MOL0     H 8901   7.736   4.473   1.738  0.2284 -0.4743 -3.6316
   66MOL0     H 8902   7.654   4.732   1.870 -2.6821 -1.1697 -1.5128
   66MOL0     H 8903   7.796   4.622   1.922 -0.3020  0.8576 -0.3341
   66MOL0     H 8904   7.498   4.574   1.915 -0.1666 -0.7427 -1.0698
   66MOL0     H 8905   7.623   4.446   1.950 -1.6209 -0.2634 -1.4973
   66MOL0     H 8906   7.684   4.593   2.313  0.5819 -1.2445  0.5083
   66MOL0     H 8907   7.275   4.562   1.728  1.3930 -2.1761 -0.0829
   66MOL0     H 8908   6.975   4.500   1.584 -0.1197  1.1303 -0.6307
   66MOL0     H 8909   7.066   4.543   1.729  0.6356  0.4175 -0.7267
   66MOL0     H 8910   6.960   4.662   1.653 -0.2578 -0.1546  0.1227
   67MOL0     O 8911   3.717   8.452   0.322 -0.0282  0.0392  0.3242
   67MOL0     C 8912   3.808   8.479   0.243 -0.4568 -0.2263 -0.3857
   67MOL0     O 8913   3.839   8.602   0.206 -0.3580 -0.2644  0.4459
   67MOL0     C 8914   3.819   8.708   0.294  1.0945  1.4140 -0.8796
   67MOL0     C 8915   3.756   8.831   0.259  0.5800 -0.5002  0.1068
   67MOL0     C 8916   3.737   8.935   0.354 -0.5782  0.9819 -0.8095
   67MOL0     C 8917   3.777   8.919   0.485  0.6956  0.2864 -0.4829
   67MOL0     O 8918   3.743   9.024   0.569 -0.3247  0.4629 -0.3756
   67MOL0     C 8919   3.820   9.023   0.693  0.8172  0.1547  0.3973
   67MOL0     C 8920   3.842   9.165   0.744  0.4379  0.3410  0.0482
   67MOL0     C 8921   3.707   9.222   0.799 -0.1256  0.0489 -1.2332
   67MOL0     C 8922   3.723   9.366   0.853 -0.6305 -0.5948 -0.3481
   67MOL0     C 8923   3.603   9.426   0.933 -0.3009 -0.3324  0.2278
   67MOL0     C 8924   3.621   9.588   0.946 -0.0978  0.2752 -0.5167
   67MOL0     C 8925   3.494   9.648   1.014 -0.2955  0.1038 -0.6285
   67MOL0     C 8926   3.363   9.625   0.944 -0.3694  0.3555 -0.1708
   67MOL0     N 8927   3.283   9.734   0.987  0.5432  0.0566 -0.0795
   67MOL0     C 8928   3.216   9.756   1.108  0.4695  0.2203 -0.4148
   67MOL0     C 8929   3.158   9.878   1.097 -0.8059 -0.0811  0.2030
   67MOL0     C 8930   3.057   9.939   1.201  0.7968 -0.5288 -0.6452
   67MOL0     C 8931   3.045  10.091   1.200 -0.4428 -0.2483  0.5599
   67MOL0     C 8932   3.173  10.147   1.259 -0.0155 -0.4161 -0.1051
   67MOL0     C 8933   3.306  10.133   1.185 -0.6005  0.2157  0.2471
   67MOL0     O 8934   3.418  10.207   1.255  0.1714  1.2034 -0.5034
   67MOL0     C 8935   3.546  10.177   1.221 -0.2283 -0.2755  0.0064
   67MOL0     C 8936   3.588  10.078   1.131  0.4677 -0.7702 -0.3103
   67MOL0     C 8937   3.715  10.031   1.120  0.1998 -0.6062  0.2133
   67MOL0     C 8938   3.821  10.089   1.192 -0.5129  1.3991  0.1407
   67MOL0     C 8939   3.961  10.055   1.178  0.1188  0.7547 -0.0391
   67MOL0     O 8940   4.034  10.079   1.287 -0.1395  0.3870 -0.2600
   67MOL0     C 8941   4.166  10.028   1.271  0.8399 -0.4110  0.2078
   67MOL0     C 8942   4.210   9.902   1.229  0.3357  0.0545  0.4163
   67MOL0     C 8943   4.346   9.871   1.223 -0.4073  1.0563 -0.1552
   67MOL0     C 8944   4.446   9.959   1.257 -0.3306 -0.3794  0.9061
   67MOL0     O 8945   4.576   9.934   1.244 -0.3153  0.4910  0.5229
   67MOL0     C 8946   4.659  10.037   1.187  0.1386 -0.8243  0.3847
   67MOL0     C 8947   4.797  10.000   1.221  0.2510  0.8250  1.7146
   67MOL0     C 8948   4.831   9.985   1.378  0.1371  0.2543  0.0287
   67MOL0     C 8949   4.977   9.976   1.419 -1.0194 -0.5524  0.2540
   67MOL0     C 8950   5.017   9.986   1.568 -0.4029  0.1542  0.1770
   67MOL0     C 8951   5.006  10.130   1.611 -0.4548 -0.2488 -0.8855
   67MOL0     C 8952   5.090  10.143   1.735  1.0585  0.4713 -0.4170
   67MOL0     C 8953   5.110  10.284   1.773 -0.3178 -0.6806  0.3096
   67MOL0    Cl 8954   5.236  10.346   1.660 -0.2192 -0.2371  0.2625
   67MOL0     C 8955   4.404  10.083   1.303  0.6892  0.1783  0.0958
   67MOL0     C 8956   4.263  10.115   1.315  0.7590  0.7335  1.0206
   67MOL0     O 8957   3.997   9.995   1.073  0.2432 -0.1462 -0.5053
   67MOL0     C 8958   3.782  10.187   1.282  0.8912  0.6939 -0.1746
   67MOL0     C 8959   3.652  10.231   1.294 -0.2232 -1.0556  0.1529
   67MOL0     N 8960   3.189   9.926   0.964 -0.1534  0.2567 -0.0556
   67MOL0     N 8961   3.253   9.835   0.899  0.1845  0.4680  0.8316
   67MOL0     C 8962   3.831   8.788   0.521  0.3345 -0.9156  0.0937
   67MOL0     C 8963   3.857   8.691   0.430 -0.4569  0.9627 -1.1562
   67MOL0     C 8964   3.852   8.381   0.149  0.5777 -0.2111 -0.2597
   67MOL0     C 8965   3.928   8.420   0.035  0.5650  0.6139 -0.4287
   67MOL0     C 8966   3.989   8.321  -0.046  0.1305  0.1528 -1.4425
   67MOL0     C 8967   3.986   8.181  -0.014  0.2123  0.4795  1.0192
   67MOL0     O 8968   4.067   8.097  -0.087 -0.0546  0.1924 -0.5013
   67MOL0     C 8969   4.121   7.976  -0.020 -0.2553  0.7040  1.0443
   67MOL0     C 8970   4.225   7.913  -0.116  0.2122  0.5004 -0.0569
   67MOL0     C 8971   4.252   7.766  -0.063 -0.2938  0.5901  0.0242
   67MOL0     C 8972   4.300   7.761   0.086  0.6381  1.0374 -1.0620
   67MOL0     C 8973   4.434   7.814   0.111  0.6495  0.5786  0.5691
   67MOL0     C 8974   4.546   7.851   0.140  0.3195 -0.0182 -0.4500
   67MOL0     C 8975   3.897   8.145   0.085 -0.4843  1.1673  0.4009
   67MOL0     C 8976   3.832   8.241   0.175  0.2682 -0.6394 -0.0083
   67MOL0     C 8977   3.714   8.189   0.262 -0.2001 -0.2074  0.0457
   67MOL0     H 8978   3.710   8.846   0.162 -0.9496  1.1549  1.0175
   67MOL0     H 8979   3.690   9.026   0.321 -3.0344 -0.9946 -3.1977
   67MOL0     H 8980   3.752   8.969   0.760 -0.5550 -0.9665 -1.7735
   67MOL0     H 8981   3.915   8.970   0.687  3.0854  4.0060 -2.4340
   67MOL0     H 8982   3.891   9.225   0.668  0.1779  0.1418 -0.2810
   67MOL0     H 8983   3.903   9.157   0.835 -0.1789 -0.0771  0.4380
   67MOL0     H 8984   3.666   9.172   0.888 -1.5349 -0.2220 -2.0072
   67MOL0     H 8985   3.636   9.208   0.718 -1.4142 -1.0241  0.0270
   67MOL0     H 8986   3.814   9.354   0.913 -1.0140 -0.2873  0.3040
   67MOL0     H 8987   3.754   9.435   0.773 -0.0318 -1.8386 -1.2120
   67MOL0     H 8988   3.510   9.395   0.883  1.3479 -0.6856 -2.8217
   67MOL0     H 8989   3.579   9.373   1.026 -0.5151 -0.8890 -0.1388
   67MOL0     H 8990   3.717   9.616   0.992  1.5642 -1.4148 -2.7141
   67MOL0     H 8991   3.621   9.625   0.843 -3.9646  2.2578  0.0261
   67MOL0     H 8992   3.519   9.754   1.025 -0.1512  0.3527 -2.7912
   67MOL0     H 8993   3.501   9.595   1.109  1.2811 -0.8409 -1.2507
   67MOL0     H 8994   3.357   9.632   0.835 -2.5001 -0.3480 -0.1411
   67MOL0     H 8995   3.309   9.534   0.971 -1.1231 -0.3394 -3.5366
   67MOL0     H 8996   3.213   9.675   1.180 -2.0476 -0.1454 -0.8338
   67MOL0     H 8997   2.954   9.903   1.194 -0.6913  2.6032  2.4086
   67MOL0     H 8998   3.104   9.927   1.299 -0.4140  4.3324  0.7995
   67MOL0     H 8999   3.028  10.132   1.100 -0.2091 -1.2846  0.0779
   67MOL0     H 9000   2.965  10.108   1.273 -0.1174  2.0569  0.4549
   67MOL0     H 9001   3.183  10.096   1.355  0.8412 -0.2394 -0.0987
   67MOL0     H 9002   3.169  10.255   1.275  1.3939 -0.0310 -2.0552
   67MOL0     H 9003   3.296  10.164   1.081 -0.8816  2.8463  0.9964
   67MOL0     H 9004   3.337  10.028   1.194  1.3536  0.7491  0.2512
   67MOL0     H 9005   3.509  10.032   1.073  0.6118 -2.0422  0.4552
   67MOL0     H 9006   3.733   9.947   1.054  0.1341 -0.5208  0.0866
   67MOL0     H 9007   4.140   9.824   1.203 -1.2989  0.9267  1.9845
   67MOL0     H 9008   4.378   9.775   1.186 -0.4544  0.2869  1.6851
   67MOL0     H 9009   4.635  10.037   1.080  0.2220 -0.0043  0.3596
   67MOL0     H 9010   4.645  10.139   1.224 -1.2499 -0.6392 -0.5651
   67MOL0     H 9011   4.835   9.905   1.182  2.4069  1.6519  1.6833
   67MOL0     H 9012   4.853  10.085   1.181 -1.5934 -0.3262 -4.4270
   67MOL0     H 9013   4.796  10.077   1.427  0.9683  0.6027 -0.0049
   67MOL0     H 9014   4.780   9.898   1.420  2.2149 -1.4072 -0.7071
   67MOL0     H 9015   5.027  10.054   1.361 -0.9754 -2.7744 -3.0020
   67MOL0     H 9016   5.021   9.890   1.367  0.5961  2.0221 -3.0192
   67MOL0     H 9017   5.119   9.952   1.587  0.1789  2.9090  2.5788
   67MOL0     H 9018   4.954   9.920   1.629 -0.2761  0.9249  1.1546
   67MOL0     H 9019   5.056  10.186   1.531 -2.7386  1.8686 -0.9465
   67MOL0     H 9020   4.902  10.161   1.624  0.0563  0.7384  1.3921
   67MOL0     H 9021   5.179  10.084   1.714  1.2273  0.3205  0.7063
   67MOL0     H 9022   5.035  10.098   1.818  1.1249  0.4494 -0.3853
   67MOL0     H 9023   5.020  10.346   1.765  1.6023  2.1420 -1.4456
   67MOL0     H 9024   5.156  10.288   1.872  1.9431  3.3688 -0.6806
   67MOL0     H 9025   4.474  10.151   1.349 -0.1869  1.2968 -0.1864
   67MOL0     H 9026   4.240  10.215   1.349  0.5281  1.0028  0.0962
   67MOL0     H 9027   3.864  10.232   1.336  1.3213 -1.0430  0.6869
   67MOL0     H 9028   3.635  10.303   1.374  0.1328 -0.6770 -0.1133
   67MOL0     H 9029   3.870   8.767   0.620  1.6167 -1.5947 -0.5324
   67MOL0     H 9030   3.912   8.610   0.477  1.9255  1.9351 -2.1168
   67MOL0     H 9031   3.958   8.522   0.016  2.6789 -0.2304 -2.0565
   67MOL0     H 9032   4.060   8.362  -0.118  5.3606 -1.6299  2.0623
   67MOL0     H 9033   4.034   7.910  -0.013  0.6382 -1.1113 -2.7118
   67MOL0     H 9034   4.169   8.012   0.072  1.0872  0.0447  0.6264
   67MOL0     H 9035   4.312   7.978  -0.110 -1.2279  2.5032  0.1698
   67MOL0     H 9036   4.181   7.904  -0.216  0.1197  2.7088 -0.2559
   67MOL0     H 9037   4.333   7.731  -0.128 -0.4831 -0.7491  0.4948
   67MOL0     H 9038   4.168   7.701  -0.087 -2.1939  2.8902  0.0533
   67MOL0     H 9039   4.218   7.797   0.150  0.7126 -1.2811  0.4404
   67MOL0     H 9040   4.320   7.656   0.109 -0.9496  0.9198 -0.0489
   67MOL0     H 9041   4.646   7.885   0.160  0.9542 -1.9086 -0.2540
   67MOL0     H 9042   3.890   8.037   0.095 -2.7031  0.9758 -2.1198
   67MOL0     H 9043   3.743   8.190   0.367  0.4826 -2.2016 -0.0842
   67MOL0     H 9044   3.623   8.243   0.234 -0.7092  0.6588  3.0065
   67MOL0     H 9045   3.690   8.088   0.227 -2.0193 -0.6192  2.2549
   68MOL0     O 9046   5.952   4.614   3.361  0.2209 -0.5027  0.1914
   68MOL0     C 9047   5.865   4.524   3.380  0.0042 -0.3290  0.0106
   68MOL0     O 9048   5.860   4.440   3.485  0.2583  0.1650  0.0846
   68MOL0     C 9049   5.951   4.456   3.590  0.4849 -0.8238  0.0253
   68MOL0     C 9050   6.085   4.488   3.573 -0.1166  0.8013  0.7461
   68MOL0     C 9051   6.169   4.513   3.677 -0.2617 -0.8581  0.3318
   68MOL0     C 9052   6.141   4.486   3.809  1.0099  0.0126  0.3615
   68MOL0     O 9053   6.222   4.512   3.913  0.2648  0.0306 -0.1856
   68MOL0     C 9054   6.354   4.466   3.914 -0.4227 -0.4062  0.9395
   68MOL0     C 9055   6.432   4.522   4.032 -0.7253 -0.5102 -0.7339
   68MOL0     C 9056   6.569   4.451   4.049  0.6136 -0.0495  1.0929
   68MOL0     C 9057   6.682   4.551   4.070 -0.3885 -0.1985  0.6715
   68MOL0     C 9058   6.819   4.485   4.049  0.2330 -0.4585  0.1589
   68MOL0     C 9059   6.863   4.400   4.169 -0.6091  0.3465 -0.5761
   68MOL0     C 9060   6.998   4.330   4.162  0.1187  0.5831 -0.2529
   68MOL0     C 9061   7.117   4.427   4.161  0.2999 -0.1774  0.0019
   68MOL0     N 9062   7.236   4.359   4.117  0.3012  0.3110  0.2837
   68MOL0     C 9063   7.282   4.331   3.990  0.2323 -0.4168  0.6812
   68MOL0     C 9064   7.411   4.298   3.999  0.4413  0.1915  0.2814
   68MOL0     C 9065   7.494   4.240   3.885  0.7300  0.2700 -0.6390
   68MOL0     C 9066   7.494   4.096   3.863 -0.1409  0.2445 -0.2860
   68MOL0     C 9067   7.625   4.035   3.827  0.0751 -0.4385 -0.8327
   68MOL0     C 9068   7.632   3.889   3.855 -0.6150 -0.3477  0.7982
   68MOL0     O 9069   7.521   3.822   3.796 -0.5055 -0.8037  0.3169
   68MOL0     C 9070   7.458   3.723   3.863 -0.8179  0.3915 -0.3899
   68MOL0     C 9071   7.328   3.753   3.893  0.3230 -0.5360 -0.0511
   68MOL0     C 9072   7.244   3.659   3.948  0.3813 -0.7087  0.8102
   68MOL0     C 9073   7.302   3.540   3.995 -0.0625 -0.2453 -0.1296
   68MOL0     C 9074   7.216   3.443   4.071  0.1209  0.1957 -0.0801
   68MOL0     O 9075   7.091   3.481   4.098  0.0071  0.0662 -0.5430
   68MOL0     C 9076   6.990   3.390   4.098  0.1496  0.6808  0.9370
   68MOL0     C 9077   6.871   3.426   4.153 -0.0524 -0.0543  0.6227
   68MOL0     C 9078   6.759   3.344   4.145  0.3134 -0.7090 -0.8536
   68MOL0     C 9079   6.751   3.230   4.074  0.0633  0.0922  1.3429
   68MOL0     O 9080   6.636   3.163   4.043  0.1933  0.1011 -0.1833
   68MOL0     C 9081   6.544   3.251   3.976 -0.4792 -0.6076 -0.0541
   68MOL0     C 9082   6.406   3.180   3.969  0.1898 -0.2776  0.0920
   68MOL0     C 9083   6.392   3.068   3.860 -0.0635 -0.3116 -0.6183
   68MOL0     C 9084   6.261   2.986   3.869  1.2806  0.5372 -0.6210
   68MOL0     C 9085   6.150   3.041   3.773  0.0816 -0.4966 -1.1139
   68MOL0     C 9086   6.013   2.967   3.783 -0.0649  0.0499  0.1509
   68MOL0     C 9087   5.956   2.963   3.930  0.3071 -0.5996 -0.0176
   68MOL0     C 9088   5.905   3.099   3.975 -0.3902 -0.3387  0.8474
   68MOL0    Cl 9089   5.894   3.219   3.840  0.2048 -0.4626 -0.4129
   68MOL0     C 9090   6.871   3.190   4.007  0.1357 -1.3131 -0.1004
   68MOL0     C 9091   6.990   3.274   4.017  0.1625  0.1740 -0.3410
   68MOL0     O 9092   7.275   3.342   4.116 -0.2977 -0.0816  0.0109
   68MOL0     C 9093   7.442   3.522   3.983  1.1716  0.3870 -0.7284
   68MOL0     C 9094   7.522   3.613   3.911 -0.7298  0.5636 -0.2651
   68MOL0     N 9095   7.444   4.325   4.127 -0.0112 -0.4542  0.8173
   68MOL0     N 9096   7.338   4.343   4.199 -0.8219 -0.6066 -0.2037
   68MOL0     C 9097   6.012   4.439   3.826  0.1561 -0.3935  0.5737
   68MOL0     C 9098   5.918   4.424   3.719 -0.2602  0.6165  0.1457
   68MOL0     C 9099   5.744   4.520   3.295 -0.1561 -0.3120 -0.6694
   68MOL0     C 9100   5.671   4.394   3.286  0.7033 -0.0608 -0.6144
   68MOL0     C 9101   5.555   4.386   3.212 -0.6160 -0.8364 -0.2655
   68MOL0     C 9102   5.497   4.498   3.146 -0.1513 -0.0999 -0.2069
   68MOL0     O 9103   5.387   4.482   3.068 -0.0201 -0.9037  0.2103
   68MOL0     C 9104   5.285   4.583   3.064  0.3913 -0.3940 -0.3013
   68MOL0     C 9105   5.149   4.522   3.040 -0.2792  0.5315 -0.2781
   68MOL0     C 9106   5.031   4.622   3.067  0.7398 -0.3914 -0.3230
   68MOL0     C 9107   4.903   4.585   2.992  0.2331 -0.5230  0.1576
   68MOL0     C 9108   4.864   4.447   3.038  0.4419 -0.8566 -0.1939
   68MOL0     C 9109   4.829   4.331   3.060 -0.2494 -0.7079 -0.0286
   68MOL0     C 9110   5.573   4.613   3.145 -0.1680  1.1791  0.2812
   68MOL0     C 9111   5.698   4.627   3.213  0.9881  0.0927  0.2902
   68MOL0     C 9112   5.774   4.757   3.191 -0.1931 -0.4808 -0.6373
   68MOL0     H 9113   6.112   4.504   3.469 -1.1126  2.3203  0.6843
   68MOL0     H 9114   6.269   4.538   3.646 -0.9951 -0.9413 -2.3690
   68MOL0     H 9115   6.358   4.357   3.929 -0.2568 -0.6256 -0.5500
   68MOL0     H 9116   6.410   4.496   3.824  0.0773 -0.1344  1.3357
   68MOL0     H 9117   6.363   4.516   4.116  0.0636 -2.9244 -0.2008
   68MOL0     H 9118   6.449   4.629   4.014  2.2071 -0.3493  2.1016
   68MOL0     H 9119   6.593   4.388   3.962  1.5552  0.5868  0.8698
   68MOL0     H 9120   6.570   4.376   4.128 -0.0756 -1.7695 -0.4532
   68MOL0     H 9121   6.672   4.623   3.987 -0.1013  0.6664  1.3695
   68MOL0     H 9122   6.683   4.605   4.165  0.9493 -0.9162  1.0884
   68MOL0     H 9123   6.820   4.432   3.953  1.0170  1.7713 -1.1243
   68MOL0     H 9124   6.896   4.562   4.037 -0.1895 -0.1109 -0.3823
   68MOL0     H 9125   6.857   4.474   4.249 -2.8203  1.3340 -1.5591
   68MOL0     H 9126   6.791   4.322   4.193  0.4661 -0.5288 -0.1217
   68MOL0     H 9127   7.005   4.279   4.065  1.8665  2.8571 -1.3964
   68MOL0     H 9128   7.010   4.270   4.253  1.1900  0.3780 -0.5091
   68MOL0     H 9129   7.098   4.506   4.088 -2.0981 -1.3850 -0.7740
   68MOL0     H 9130   7.128   4.471   4.260  0.1784 -2.0731  0.9184
   68MOL0     H 9131   7.213   4.340   3.906 -0.3780 -2.2680  0.9427
   68MOL0     H 9132   7.457   4.284   3.792  0.5264 -1.1702 -1.2653
   68MOL0     H 9133   7.593   4.282   3.904  0.5660 -0.3687  2.0427
   68MOL0     H 9134   7.459   4.044   3.952 -1.1481  0.6317 -0.4407
   68MOL0     H 9135   7.424   4.070   3.783 -1.3170  0.0436  0.7868
   68MOL0     H 9136   7.704   4.085   3.884 -0.8001 -0.1711  0.1809
   68MOL0     H 9137   7.648   4.051   3.721 -1.0169 -1.0722 -1.1741
   68MOL0     H 9138   7.638   3.870   3.962  2.7226  0.7274  0.9022
   68MOL0     H 9139   7.725   3.849   3.814 -0.2720  3.3675 -2.7973
   68MOL0     H 9140   7.289   3.844   3.848  0.5457 -1.0492 -1.3181
   68MOL0     H 9141   7.138   3.681   3.957  0.5370  1.0636 -1.0457
   68MOL0     H 9142   6.861   3.524   4.200  0.2803  0.2674  0.0360
   68MOL0     H 9143   6.671   3.370   4.203  0.1041  0.4927 -1.6598
   68MOL0     H 9144   6.527   3.347   4.025 -1.5034  0.7013 -2.7361
   68MOL0     H 9145   6.571   3.272   3.872 -2.3862 -0.5045 -0.5781
   68MOL0     H 9146   6.368   3.143   4.064 -3.4276  1.4577 -0.5211
   68MOL0     H 9147   6.336   3.256   3.933 -1.0036 -1.0848  0.6777
   68MOL0     H 9148   6.409   3.100   3.756 -0.6436  0.4576 -0.4813
   68MOL0     H 9149   6.480   3.007   3.882  2.1330  2.8909  0.1254
   68MOL0     H 9150   6.225   2.967   3.970 -2.1265  0.6467 -1.7104
   68MOL0     H 9151   6.286   2.883   3.839 -1.7835 -0.9797  1.5275
   68MOL0     H 9152   6.181   3.035   3.668  1.1574  0.4271 -0.8674
   68MOL0     H 9153   6.135   3.148   3.783  2.5877  0.1472 -3.2152
   68MOL0     H 9154   5.943   3.006   3.710 -2.1618  2.0234  2.9961
   68MOL0     H 9155   6.033   2.860   3.766  1.5242  0.2787  0.3796
   68MOL0     H 9156   6.020   2.911   4.002 -1.0647 -0.1578  1.5792
   68MOL0     H 9157   5.873   2.893   3.938 -0.8590  0.9882  3.6663
   68MOL0     H 9158   5.801   3.083   4.007 -0.9692  1.0445 -0.2423
   68MOL0     H 9159   5.976   3.131   4.052  0.5494  0.1382 -0.2085
   68MOL0     H 9160   6.867   3.100   3.945 -0.6075 -0.9959 -0.5207
   68MOL0     H 9161   7.072   3.235   3.958 -0.4584 -2.2767  0.3097
   68MOL0     H 9162   7.479   3.432   4.031  0.3814  1.8796  3.0653
   68MOL0     H 9163   7.627   3.593   3.888 -0.1320  0.3061  2.3928
   68MOL0     H 9164   5.989   4.411   3.928 -1.4442  0.6127  0.5376
   68MOL0     H 9165   5.828   4.376   3.755  1.1988 -0.1219  3.0305
   68MOL0     H 9166   5.689   4.301   3.339 -1.6664  0.6413  1.6724
   68MOL0     H 9167   5.505   4.290   3.199 -0.2266 -1.2510  1.1272
   68MOL0     H 9168   5.297   4.657   2.984 -0.2442  1.4330  1.2120
   68MOL0     H 9169   5.280   4.645   3.154 -0.9115  1.4871 -1.5943
   68MOL0     H 9170   5.146   4.458   3.129 -3.6410  2.5808  1.3033
   68MOL0     H 9171   5.147   4.468   2.945 -0.1142  1.1323 -0.6286
   68MOL0     H 9172   5.066   4.723   3.041  4.1557 -1.4059 -0.1503
   68MOL0     H 9173   5.023   4.606   3.174  1.8227  0.2885 -0.1244
   68MOL0     H 9174   4.821   4.654   3.013  0.3008 -0.6043  0.6851
   68MOL0     H 9175   4.918   4.581   2.883 -3.8004  3.3343 -0.8634
   68MOL0     H 9176   4.796   4.240   3.105 -2.4665  0.5965  1.1665
   68MOL0     H 9177   5.534   4.688   3.077 -1.7200 -1.8332 -2.4118
   68MOL0     H 9178   5.707   4.838   3.160 -0.8591  1.2086  4.3026
   68MOL0     H 9179   5.810   4.797   3.286  0.2368 -0.8058 -0.6580
   68MOL0     H 9180   5.853   4.751   3.115  0.4127 -0.7218 -0.0018
   69MOL0     O 9181   3.053  10.497   4.671 -0.8324  0.0266  0.0048
   69MOL0     C 9182   2.980  10.590   4.701 -0.1815  0.3333  0.5726
   69MOL0     O 9183   2.991  10.722   4.640  0.0897  0.5108  0.2482
   69MOL0     C 9184   3.109  10.752   4.591 -0.6161 -0.3541  0.2324
   69MOL0     C 9185   3.138  10.766   4.459  0.0977  0.5158  0.5325
   69MOL0     C 9186   3.264  10.810   4.424 -0.4067  0.0937 -0.0937
   69MOL0     C 9187   3.370  10.835   4.510 -0.9189 -0.0481 -0.6760
   69MOL0     O 9188   3.495  10.879   4.468 -0.2345  0.6825  0.2080
   69MOL0     C 9189   3.610  10.881   4.559 -0.1624 -0.0627  0.6236
   69MOL0     C 9190   3.727  10.960   4.506 -0.1109 -0.1526 -0.5871
   69MOL0     C 9191   3.812  10.869   4.414 -0.2882 -0.4730 -0.3158
   69MOL0     C 9192   3.932  10.947   4.358  0.4350  0.1555 -0.1468
   69MOL0     C 9193   4.020  10.849   4.272 -0.4779  0.3157 -0.4554
   69MOL0     C 9194   4.158  10.915   4.269 -1.1016  0.9969 -0.1899
   69MOL0     C 9195   4.249  10.824   4.178 -0.1310  0.6864  0.2106
   69MOL0     C 9196   4.392  10.864   4.157  0.1712  0.5514 -0.5077
   69MOL0     N 9197   4.473  10.851   4.275 -0.4020 -0.1546 -0.7999
   69MOL0     C 9198   4.602  10.898   4.277 -0.1912 -0.4995  0.6007
   69MOL0     C 9199   4.641  10.868   4.402  1.3068 -0.6405  0.5476
   69MOL0     C 9200   4.784  10.872   4.453  0.8432 -0.2218  0.4483
   69MOL0     C 9201   4.795  10.936   4.592 -0.4185  0.1203  0.0712
   69MOL0     C 9202   4.926  10.908   4.660 -0.5571  0.3712  0.5233
   69MOL0     C 9203   5.054  10.898   4.572  1.0080  0.4682 -0.7399
   69MOL0     O 9204   5.071  10.990   4.462  0.4461 -0.4277  0.0650
   69MOL0     C 9205   5.164  10.961   4.358  0.0152 -0.9673 -0.0888
   69MOL0     C 9206   5.180  11.061   4.269 -1.0234  1.1310 -0.3704
   69MOL0     C 9207   5.274  11.045   4.162 -0.0411  0.1317 -0.6437
   69MOL0     C 9208   5.349  10.926   4.154  0.5586  0.8780  1.3330
   69MOL0     C 9209   5.457  10.898   4.056  0.3020 -0.3761  0.1752
   69MOL0     O 9210   5.546  10.793   4.090 -0.0736 -0.2053  0.5641
   69MOL0     C 9211   5.616  10.736   3.980 -0.6360 -0.5885  0.5491
   69MOL0     C 9212   5.546  10.658   3.890 -0.2077  0.3886  0.3863
   69MOL0     C 9213   5.613  10.603   3.779  0.7844  0.3212  0.0354
   69MOL0     C 9214   5.737  10.640   3.745 -0.5427  0.2663 -0.4345
   69MOL0     O 9215   5.797  10.570   3.639 -0.0256 -0.8624 -0.6219
   69MOL0     C 9216   5.871  10.649   3.545 -0.1670  0.4279  0.0815
   69MOL0     C 9217   5.841  10.607   3.398 -0.8377  0.0089  0.1231
   69MOL0     C 9218   5.744  10.705   3.335  0.2568  0.1862 -0.6202
   69MOL0     C 9219   5.689  10.667   3.191 -0.0169  0.2499  0.0165
   69MOL0     C 9220   5.578  10.761   3.147  1.1742 -0.5876 -1.1235
   69MOL0     C 9221   5.546  10.767   2.999  0.0800 -0.4030 -0.8183
   69MOL0     C 9222   5.430  10.860   2.992  0.4660  0.5900 -0.5658
   69MOL0     C 9223   5.378  10.865   2.859 -0.0222  0.2264  0.0913
   69MOL0    Cl 9224   5.338  10.703   2.787  0.3908  0.2373 -0.0737
   69MOL0     C 9225   5.800  10.739   3.817  0.0483 -0.1555 -0.0881
   69MOL0     C 9226   5.738  10.792   3.934  0.7197 -0.1689  0.3697
   69MOL0     O 9227   5.467  10.973   3.957  0.6031 -0.1886 -0.7538
   69MOL0     C 9228   5.335  10.827   4.245  0.8763  0.2067 -1.2388
   69MOL0     C 9229   5.238  10.836   4.349  0.1939 -0.8242  0.1688
   69MOL0     N 9230   4.541  10.790   4.465 -0.2242 -1.1216  0.3725
   69MOL0     N 9231   4.445  10.782   4.382 -0.1239 -0.5635  0.3705
   69MOL0     C 9232   3.338  10.812   4.651 -0.1309 -0.2672  0.3971
   69MOL0     C 9233   3.209  10.774   4.688  0.2092 -0.3946 -0.4000
   69MOL0     C 9234   2.872  10.567   4.805 -0.1673 -0.1746 -0.1657
   69MOL0     C 9235   2.767  10.662   4.813 -0.6916 -0.2581 -0.5389
   69MOL0     C 9236   2.658  10.652   4.898 -0.8393  0.0440 -0.6774
   69MOL0     C 9237   2.639  10.545   4.980  0.5696  0.6841 -0.3224
   69MOL0     O 9238   2.527  10.529   5.071 -0.1296 -0.2808  0.0361
   69MOL0     C 9239   2.521  10.429   5.169 -0.0701 -0.4170  0.3397
   69MOL0     C 9240   2.402  10.469   5.261  0.0201  0.0647 -0.2109
   69MOL0     C 9241   2.277  10.491   5.181  0.4429 -0.7763 -0.0008
   69MOL0     C 9242   2.157  10.510   5.268  0.4917  0.4155  0.4816
   69MOL0     C 9243   2.130  10.397   5.360 -0.4932  0.3501  0.0767
   69MOL0     C 9244   2.107  10.298   5.429 -0.3557  0.1569  0.5898
   69MOL0     C 9245   2.741  10.445   4.973  0.3813  0.6960 -0.4309
   69MOL0     C 9246   2.852  10.456   4.889  0.1444  0.1769  0.3952
   69MOL0     C 9247   2.930  10.324   4.884  0.6688 -1.0402  0.6368
   69MOL0     H 9248   3.077  10.753   4.370  0.0003  2.3276  0.2906
   69MOL0     H 9249   3.289  10.829   4.320 -1.3058  2.4484  0.0566
   69MOL0     H 9250   3.591  10.925   4.657  1.8721  2.2819  0.0951
   69MOL0     H 9251   3.651  10.781   4.575  1.7179  0.0280 -2.6317
   69MOL0     H 9252   3.777  10.982   4.601  0.5573 -0.5351 -0.8411
   69MOL0     H 9253   3.693  11.048   4.452  1.1139 -0.6576 -2.2752
   69MOL0     H 9254   3.762  10.815   4.333 -0.7437  0.5533 -0.7495
   69MOL0     H 9255   3.840  10.787   4.481 -2.3232 -1.4498 -0.5916
   69MOL0     H 9256   3.891  11.034   4.306 -0.9100  0.6521  1.6188
   69MOL0     H 9257   3.983  10.991   4.445 -1.4946 -1.0575  1.7095
   69MOL0     H 9258   4.036  10.750   4.317  1.6209  1.6594  2.0616
   69MOL0     H 9259   3.962  10.843   4.179 -1.3236 -3.1813  0.1366
   69MOL0     H 9260   4.160  11.014   4.223 -2.1041  1.4037  0.6004
   69MOL0     H 9261   4.179  10.934   4.374  0.2605  0.2759 -0.3054
   69MOL0     H 9262   4.197  10.809   4.082 -1.7776 -1.4233  1.3519
   69MOL0     H 9263   4.249  10.722   4.218  0.6389 -0.2711 -2.0572
   69MOL0     H 9264   4.428  10.803   4.073  3.7430  0.8080  0.6658
   69MOL0     H 9265   4.406  10.966   4.120  2.4862  0.6118  0.3326
   69MOL0     H 9266   4.658  10.954   4.202  0.5937  2.1711  3.0150
   69MOL0     H 9267   4.822  10.771   4.468  0.6537  0.0802  3.4925
   69MOL0     H 9268   4.844  10.917   4.373  0.2832  0.3893  0.3613
   69MOL0     H 9269   4.773  11.043   4.595 -1.1208 -0.0266  0.2931
   69MOL0     H 9270   4.714  10.892   4.652  1.0222 -0.0760  1.9706
   69MOL0     H 9271   4.930  10.827   4.734 -0.0074  2.0118  2.3741
   69MOL0     H 9272   4.943  10.999   4.719  0.8011  1.4566 -1.4383
   69MOL0     H 9273   5.043  10.799   4.527 -1.2649  0.5931 -0.5829
   69MOL0     H 9274   5.142  10.896   4.637 -0.3105  2.1898  1.2429
   69MOL0     H 9275   5.146  11.163   4.284 -2.1804  0.8735 -1.0891
   69MOL0     H 9276   5.292  11.131   4.098 -3.5018  1.9059  0.4997
   69MOL0     H 9277   5.449  10.621   3.919  0.9141 -1.3200  2.2707
   69MOL0     H 9278   5.559  10.541   3.707 -1.9625  2.7922 -0.2328
   69MOL0     H 9279   5.851  10.756   3.546  0.7142  0.5947  0.1692
   69MOL0     H 9280   5.978  10.636   3.562 -0.1316  1.5775  0.8228
   69MOL0     H 9281   5.939  10.600   3.351  0.0351 -3.0794  2.0839
   69MOL0     H 9282   5.800  10.506   3.407 -0.2385 -0.0452  3.1171
   69MOL0     H 9283   5.658  10.721   3.401  1.4538  0.3657  0.9458
   69MOL0     H 9284   5.795  10.802   3.327  0.7223 -0.1728 -2.5040
   69MOL0     H 9285   5.653  10.564   3.187 -2.5262  1.1092 -2.1443
   69MOL0     H 9286   5.771  10.670   3.118 -1.3572 -2.0801 -1.7073
   69MOL0     H 9287   5.605  10.862   3.179  0.2594 -0.2483 -1.3705
   69MOL0     H 9288   5.488  10.732   3.203  0.1959  3.0017 -0.5714
   69MOL0     H 9289   5.626  10.797   2.931 -0.9630  3.5276 -0.5457
   69MOL0     H 9290   5.506  10.667   2.978  2.0281 -1.6553  1.0115
   69MOL0     H 9291   5.470  10.957   3.022  0.7416  1.0151 -2.2394
   69MOL0     H 9292   5.348  10.833   3.059  0.6968 -0.9097 -0.8295
   69MOL0     H 9293   5.288  10.927   2.856  1.1517  1.9611 -0.9035
   69MOL0     H 9294   5.452  10.900   2.787 -0.3561  2.2346  0.6614
   69MOL0     H 9295   5.890  10.786   3.779 -1.5501  3.1125 -0.1603
   69MOL0     H 9296   5.795  10.867   3.987  1.2011 -0.1583 -0.1454
   69MOL0     H 9297   5.372  10.725   4.246 -0.8370 -0.5548  2.4201
   69MOL0     H 9298   5.223  10.757   4.421  0.0025 -0.7606  0.1985
   69MOL0     H 9299   3.411  10.828   4.730  1.2967 -0.3793 -0.8644
   69MOL0     H 9300   3.196  10.736   4.788  1.4186 -0.7435 -0.3615
   69MOL0     H 9301   2.771  10.748   4.747  2.0815 -0.4722 -0.7607
   69MOL0     H 9302   2.588  10.734   4.906 -0.0163  0.8306 -1.2278
   69MOL0     H 9303   2.615  10.411   5.222  0.8164 -1.7566 -1.5841
   69MOL0     H 9304   2.497  10.332   5.126  1.7051 -0.0330 -1.6812
   69MOL0     H 9305   2.415  10.562   5.317 -5.0588  0.9058  0.0308
   69MOL0     H 9306   2.385  10.394   5.339  0.8949 -0.4648 -0.5106
   69MOL0     H 9307   2.267  10.411   5.108 -0.8015 -0.3443 -0.3310
   69MOL0     H 9308   2.292  10.586   5.127  3.0967  0.8363  3.2043
   69MOL0     H 9309   2.163  10.602   5.328  3.4630  0.9889 -0.5353
   69MOL0     H 9310   2.080  10.540   5.196  2.8125  1.0712 -1.8690
   69MOL0     H 9311   2.077  10.214   5.488  0.6985 -0.2838  0.5052
   69MOL0     H 9312   2.731  10.353   5.030  0.0742  2.4678  2.5929
   69MOL0     H 9313   2.904  10.248   4.959  2.7253 -1.0223  1.4423
   69MOL0     H 9314   2.923  10.287   4.782  3.9730 -0.6897  0.1678
   69MOL0     H 9315   3.039  10.341   4.889  0.6513 -0.5849 -0.3088
   70MOL0     O 9316   4.685   5.343   9.130  0.0589 -0.6323  0.0267
   70MOL0     C 9317   4.783   5.363   9.062  0.5155  0.4478 -0.3546
   70MOL0     O 9318   4.789   5.353   8.922 -0.6554 -0.0717  0.1540
   70MOL0     C 9319   4.671   5.342   8.854 -0.2212  0.0766 -0.2526
   70MOL0     C 9320   4.614   5.445   8.785 -0.0362 -1.0456 -1.6979
   70MOL0     C 9321   4.495   5.412   8.709  0.1120  0.2715  0.1580
   70MOL0     C 9322   4.438   5.278   8.700 -0.2326 -0.6462 -0.3591
   70MOL0     O 9323   4.326   5.255   8.632 -0.3640  0.0741 -0.4243
   70MOL0     C 9324   4.326   5.255   8.490  0.1329  0.6028 -0.3010
   70MOL0     C 9325   4.190   5.312   8.429 -0.3320 -0.3499 -1.1570
   70MOL0     C 9326   4.180   5.274   8.291 -0.2587 -0.1092 -0.3702
   70MOL0     C 9327   4.163   5.120   8.263  0.5725 -0.1769  0.0231
   70MOL0     C 9328   4.149   5.102   8.107 -0.8622  0.1149  0.2165
   70MOL0     C 9329   4.124   4.954   8.077 -0.4141 -1.0558  0.2600
   70MOL0     C 9330   3.995   4.894   8.129  0.3383 -1.5062 -0.6329
   70MOL0     C 9331   4.003   4.833   8.272 -0.4795  0.7360  0.5848
   70MOL0     N 9332   4.125   4.743   8.278  0.5009 -0.4484  0.6560
   70MOL0     C 9333   4.233   4.765   8.355  0.5654  1.4018  0.5651
   70MOL0     C 9334   4.305   4.649   8.343  0.8792  0.3958 -0.1914
   70MOL0     C 9335   4.436   4.615   8.401  0.5562  0.2935 -0.7775
   70MOL0     C 9336   4.433   4.570   8.540  1.9578 -0.1886 -0.0069
   70MOL0     C 9337   4.374   4.677   8.626  0.2003  1.5282  0.2029
   70MOL0     C 9338   4.429   4.676   8.774 -0.1556  0.0364  0.3560
   70MOL0     O 9339   4.353   4.769   8.850  0.2239 -0.0138 -0.3447
   70MOL0     C 9340   4.394   4.782   8.980  0.0399 -0.1952  0.3853
   70MOL0     C 9341   4.343   4.891   9.049 -0.4582 -0.1700 -0.4405
   70MOL0     C 9342   4.374   4.907   9.186  0.2610 -0.7286 -0.0511
   70MOL0     C 9343   4.464   4.819   9.246 -0.2162  1.3708  0.5122
   70MOL0     C 9344   4.494   4.832   9.392 -0.1533  0.3149  0.8894
   70MOL0     O 9345   4.453   4.949   9.449  0.5952 -0.0381 -0.1565
   70MOL0     C 9346   4.485   4.946   9.586 -0.1267 -0.0992 -0.0632
   70MOL0     C 9347   4.572   5.043   9.637  0.1789 -0.7228  0.6063
   70MOL0     C 9348   4.606   5.050   9.778  0.1558 -0.5052  0.1570
   70MOL0     C 9349   4.560   4.948   9.862  0.1665 -0.0466 -0.5493
   70MOL0     O 9350   4.584   4.966   9.999 -0.3984  0.2086  0.0998
   70MOL0     C 9351   4.543   4.863  10.096  0.4895 -0.3854  0.6026
   70MOL0     C 9352   4.593   4.895  10.240  0.3052  0.4597 -0.3269
   70MOL0     C 9353   4.745   4.880  10.242 -0.4074  0.1815 -0.1999
   70MOL0     C 9354   4.807   4.900  10.385  0.2419 -0.3092  0.3351
   70MOL0     C 9355   4.952   4.897  10.387 -0.6104 -0.6664  0.3973
   70MOL0     C 9356   5.010   4.905  10.518  0.0792  0.0844 -0.7342
   70MOL0     C 9357   4.995   5.055  10.572  0.3643  0.0839 -1.2035
   70MOL0     C 9358   5.022   5.059  10.721 -0.1587  0.4332 -0.4830
   70MOL0    Cl 9359   5.007   5.223  10.777  0.4742 -0.8399 -0.6709
   70MOL0     C 9360   4.476   4.849   9.810  0.3472  0.9350 -0.7435
   70MOL0     C 9361   4.431   4.846   9.679 -1.0155 -1.1745  0.2559
   70MOL0     O 9362   4.534   4.731   9.448 -0.8766 -0.8883  0.3825
   70MOL0     C 9363   4.532   4.722   9.171 -0.0131 -0.6974 -0.6253
   70MOL0     C 9364   4.488   4.701   9.041 -0.7339  0.0950  0.0874
   70MOL0     N 9365   4.234   4.568   8.254 -0.4473  0.2568  0.0681
   70MOL0     N 9366   4.125   4.626   8.219  0.1393  0.5133  0.0700
   70MOL0     C 9367   4.491   5.182   8.780  0.0399 -0.0094  0.1877
   70MOL0     C 9368   4.605   5.214   8.851  0.6969 -0.4648 -1.0826
   70MOL0     C 9369   4.904   5.392   9.146 -0.1745  0.1822  0.1577
   70MOL0     C 9370   4.890   5.422   9.293 -0.1529 -0.7926  0.5711
   70MOL0     C 9371   5.002   5.452   9.370 -0.1662  0.3006  0.3580
   70MOL0     C 9372   5.133   5.455   9.318  1.1441 -0.8941 -0.7148
   70MOL0     O 9373   5.255   5.485   9.382 -0.1833  0.1789 -0.6274
   70MOL0     C 9374   5.264   5.542   9.504 -0.2241  0.7994 -0.0036
   70MOL0     C 9375   5.392   5.494   9.577 -0.5036 -0.7924  0.4840
   70MOL0     C 9376   5.514   5.564   9.506  0.8345  0.3367  0.1421
   70MOL0     C 9377   5.652   5.533   9.562 -0.0483 -0.6210  0.1210
   70MOL0     C 9378   5.748   5.523   9.444  1.2755  0.5940 -1.4287
   70MOL0     C 9379   5.809   5.501   9.344  0.3918  0.5117  0.0135
   70MOL0     C 9380   5.140   5.431   9.181 -0.2064 -0.3311  0.4105
   70MOL0     C 9381   5.033   5.409   9.090  0.8936 -0.0518 -0.7180
   70MOL0     C 9382   5.059   5.405   8.942 -0.3427 -0.3020  0.0914
   70MOL0     H 9383   4.672   5.537   8.775 -2.8653  1.1489  0.4502
   70MOL0     H 9384   4.464   5.491   8.642  0.0248 -0.4641 -0.6999
   70MOL0     H 9385   4.396   5.334   8.461 -0.8622  1.8293  0.5749
   70MOL0     H 9386   4.343   5.155   8.447 -0.4307  0.0202  0.8079
   70MOL0     H 9387   4.191   5.422   8.424  1.0645 -0.3876 -2.8124
   70MOL0     H 9388   4.104   5.270   8.480 -0.7794  1.4778 -0.3312
   70MOL0     H 9389   4.256   5.312   8.222 -0.6329  0.1163 -0.6610
   70MOL0     H 9390   4.092   5.328   8.255  1.1354  2.7696  0.2416
   70MOL0     H 9391   4.237   5.050   8.302  1.2890  0.0432 -0.9076
   70MOL0     H 9392   4.069   5.090   8.309 -0.8918  2.5289 -0.9969
   70MOL0     H 9393   4.074   5.163   8.056 -0.1110 -0.5109 -1.7073
   70MOL0     H 9394   4.245   5.128   8.062 -0.8408 -2.0424 -1.1277
   70MOL0     H 9395   4.130   4.931   7.971  0.0745  2.8539 -0.7100
   70MOL0     H 9396   4.211   4.893   8.104  1.3235 -0.5877 -3.6971
   70MOL0     H 9397   3.964   4.812   8.064 -0.4191 -1.3509 -0.4795
   70MOL0     H 9398   3.922   4.973   8.113  2.6307  0.7916 -0.2898
   70MOL0     H 9399   4.012   4.912   8.347 -0.0740 -0.2437  1.5943
   70MOL0     H 9400   3.915   4.773   8.297 -0.1502  0.2089  0.5000
   70MOL0     H 9401   4.267   4.850   8.413 -1.2195  0.7378  2.7227
   70MOL0     H 9402   4.486   4.536   8.344  0.7015 -1.0629  1.1425
   70MOL0     H 9403   4.508   4.697   8.392  1.0875  0.1206  1.3270
   70MOL0     H 9404   4.382   4.473   8.539  4.9285 -1.8535 -0.5653
   70MOL0     H 9405   4.529   4.539   8.581  0.2983 -2.8649  2.2023
   70MOL0     H 9406   4.267   4.658   8.623  0.0084  2.0414  2.3954
   70MOL0     H 9407   4.383   4.780   8.589  0.0467  2.1231  1.7807
   70MOL0     H 9408   4.535   4.705   8.768 -0.4044  1.1845  1.2477
   70MOL0     H 9409   4.409   4.574   8.807 -0.2492  0.1755  0.7325
   70MOL0     H 9410   4.281   4.966   9.001 -1.4975  1.1566  2.7342
   70MOL0     H 9411   4.332   4.991   9.240  2.5455  0.7843 -0.4850
   70MOL0     H 9412   4.607   5.116   9.565 -1.7755 -0.5186 -0.1797
   70MOL0     H 9413   4.677   5.123   9.815 -2.3699  0.0877  4.5259
   70MOL0     H 9414   4.434   4.851  10.099  0.1495  0.9490 -2.6673
   70MOL0     H 9415   4.590   4.768  10.069 -0.7719 -0.2762 -2.3144
   70MOL0     H 9416   4.571   5.002  10.254 -0.3599  0.7722 -3.0948
   70MOL0     H 9417   4.537   4.828  10.305  0.2125 -0.0729 -0.9455
   70MOL0     H 9418   4.782   4.785  10.204  1.3428  1.6173 -2.3821
   70MOL0     H 9419   4.797   4.950  10.175  0.3761  0.0250  0.2333
   70MOL0     H 9420   4.766   4.812  10.435 -3.3802  0.6873 -0.6155
   70MOL0     H 9421   4.777   4.993  10.435  1.3838 -0.3205  1.0986
   70MOL0     H 9422   4.986   4.983  10.328  2.5843 -1.0311  1.5485
   70MOL0     H 9423   4.991   4.805  10.343 -0.3229  0.3992 -1.7125
   70MOL0     H 9424   4.963   4.843  10.594  2.7235  1.4796  2.3115
   70MOL0     H 9425   5.116   4.878  10.517  0.9016  2.6060  1.9608
   70MOL0     H 9426   4.898   5.107  10.566  1.8170  3.8925  3.0306
   70MOL0     H 9427   5.066   5.117  10.516 -0.5931  1.7191 -0.6911
   70MOL0     H 9428   4.950   4.993  10.770  0.5394 -0.5736 -0.7910
   70MOL0     H 9429   5.123   5.024  10.739  0.8134  2.6251 -1.2816
   70MOL0     H 9430   4.434   4.770   9.872 -0.7029  0.4302 -2.0642
   70MOL0     H 9431   4.367   4.770   9.636 -1.0720 -1.5628  0.9946
   70MOL0     H 9432   4.609   4.658   9.213  0.3535  1.3796  2.1588
   70MOL0     H 9433   4.553   4.625   8.998  0.6134  1.1671  0.1397
   70MOL0     H 9434   4.442   5.086   8.785 -2.4595  1.2151  1.2574
   70MOL0     H 9435   4.647   5.132   8.908  2.1767 -0.3179 -1.9362
   70MOL0     H 9436   4.794   5.410   9.342  0.2225  1.4088  2.0116
   70MOL0     H 9437   4.996   5.461   9.478  3.7608  2.4759  0.5893
   70MOL0     H 9438   5.177   5.518   9.566 -1.4806  0.3597 -1.8831
   70MOL0     H 9439   5.257   5.650   9.492  0.1527  1.0862  1.9404
   70MOL0     H 9440   5.404   5.387   9.561  0.6429 -0.6264  0.1846
   70MOL0     H 9441   5.382   5.517   9.684  1.2423  2.0456  0.1408
   70MOL0     H 9442   5.498   5.671   9.522 -2.6621 -0.1683  0.7702
   70MOL0     H 9443   5.512   5.546   9.399 -2.3592 -2.5439  0.5117
   70MOL0     H 9444   5.691   5.609   9.630 -0.3424  2.5756 -3.0561
   70MOL0     H 9445   5.656   5.434   9.609  1.4749 -1.2567 -1.2483
   70MOL0     H 9446   5.869   5.479   9.257 -2.1754 -5.8687 -0.6683
   70MOL0     H 9447   5.244   5.429   9.149 -0.2249 -1.0920  0.3948
   70MOL0     H 9448   5.036   5.310   8.894 -1.4373  1.1410 -2.4416
   70MOL0     H 9449   4.996   5.483   8.898  0.8946  2.2940  2.5376
   70MOL0     H 9450   5.161   5.439   8.925 -1.0053  2.5379  1.1410
   71MOL0     O 9451   6.157   9.363   0.371 -0.5956  0.0898  0.5109
   71MOL0     C 9452   6.194   9.361   0.486 -0.2039 -0.1662  0.6306
   71MOL0     O 9453   6.265   9.256   0.545  0.4201 -0.3649 -0.5051
   71MOL0     C 9454   6.302   9.147   0.481  0.6263 -0.8016 -0.5497
   71MOL0     C 9455   6.264   9.027   0.539  0.2633  0.1721  0.0646
   71MOL0     C 9456   6.321   8.902   0.497  0.3365  0.4750  0.3380
   71MOL0     C 9457   6.408   8.898   0.380 -0.2909 -0.3102  0.5750
   71MOL0     O 9458   6.476   8.789   0.328  0.8015  0.7222 -1.1005
   71MOL0     C 9459   6.567   8.743   0.423 -0.2182  0.2233 -0.2723
   71MOL0     C 9460   6.691   8.833   0.413 -0.6434  0.1197  0.0612
   71MOL0     C 9461   6.792   8.794   0.524 -0.4884  0.0752  0.1519
   71MOL0     C 9462   6.907   8.705   0.461 -0.3484  0.1878 -0.0765
   71MOL0     C 9463   6.979   8.636   0.569 -0.3355 -0.3382 -0.2176
   71MOL0     C 9464   7.091   8.544   0.504 -0.5218 -0.5301  0.7214
   71MOL0     C 9465   7.049   8.400   0.508 -0.3988 -0.6868 -0.4937
   71MOL0     C 9466   7.159   8.326   0.426 -0.3510  0.3109  0.0052
   71MOL0     N 9467   7.119   8.189   0.392  0.0688 -0.2330  0.2554
   71MOL0     C 9468   7.119   8.078   0.474  1.0017 -0.0161  0.5987
   71MOL0     C 9469   7.044   7.981   0.418  0.2096 -0.6830  1.3980
   71MOL0     C 9470   7.001   7.860   0.500  0.6431 -0.5004  0.9175
   71MOL0     C 9471   6.892   7.784   0.444  0.1026  0.3154 -0.3990
   71MOL0     C 9472   6.939   7.681   0.339 -0.4701  0.0825 -0.1416
   71MOL0     C 9473   7.006   7.749   0.212 -0.2690 -0.7456  0.5304
   71MOL0     O 9474   7.038   7.648   0.120  0.0437 -0.0877 -0.1499
   71MOL0     C 9475   7.083   7.688  -0.000  0.3651  0.1496 -0.6363
   71MOL0     C 9476   7.175   7.615  -0.070  0.9008  0.6275  0.6316
   71MOL0     C 9477   7.211   7.653  -0.195 -0.1446 -0.2239  0.0727
   71MOL0     C 9478   7.169   7.773  -0.258 -0.4064  1.0701 -0.7800
   71MOL0     C 9479   7.208   7.797  -0.403 -0.7442 -0.8721 -0.5050
   71MOL0     O 9480   7.146   7.912  -0.452 -0.4231 -0.0130 -1.0770
   71MOL0     C 9481   7.148   7.958  -0.580 -0.1015 -0.0167 -1.0502
   71MOL0     C 9482   7.096   8.086  -0.602 -0.5641 -0.5544 -0.1216
   71MOL0     C 9483   7.083   8.125  -0.734  0.0049  0.4257  0.7030
   71MOL0     C 9484   7.128   8.049  -0.841 -0.3520 -0.8557  1.2602
   71MOL0     O 9485   7.100   8.104  -0.971 -0.3786  0.0924  0.2922
   71MOL0     C 9486   7.043   8.003  -1.056  1.5414 -1.0473  1.5126
   71MOL0     C 9487   6.901   8.059  -1.100  0.1398  0.8401  0.3900
   71MOL0     C 9488   6.811   8.049  -0.966  0.1383  0.9258  0.2328
   71MOL0     C 9489   6.657   8.077  -0.992 -0.1410  0.1036  0.6549
   71MOL0     C 9490   6.565   8.066  -0.872 -0.0322 -0.2687 -0.1215
   71MOL0     C 9491   6.422   8.112  -0.896  1.1436 -0.1454  0.0716
   71MOL0     C 9492   6.403   8.260  -0.925  0.2326  0.8802 -0.3091
   71MOL0     C 9493   6.314   8.283  -1.053 -0.3223 -0.8505  0.3801
   71MOL0    Cl 9494   6.383   8.186  -1.192  0.1501 -0.2706  0.4154
   71MOL0     C 9495   7.177   7.918  -0.826 -0.0187  0.3407 -0.4878
   71MOL0     C 9496   7.187   7.877  -0.688  0.0803  0.2096 -0.2782
   71MOL0     O 9497   7.299   7.731  -0.457  0.0266 -1.6909  0.3758
   71MOL0     C 9498   7.089   7.853  -0.176 -0.3016  1.2341  0.0179
   71MOL0     C 9499   7.047   7.811  -0.058  0.1922 -0.1318  0.0932
   71MOL0     N 9500   6.995   8.036   0.303 -0.5512  0.4917 -0.6364
   71MOL0     N 9501   7.039   8.155   0.286 -0.3790 -0.4823  0.5290
   71MOL0     C 9502   6.421   9.022   0.310  0.4138  0.2990 -0.1791
   71MOL0     C 9503   6.375   9.140   0.364 -0.6671 -0.1887  0.9549
   71MOL0     C 9504   6.169   9.480   0.578 -0.1704  0.3030 -0.1259
   71MOL0     C 9505   6.077   9.572   0.542 -0.4099 -0.3993  0.4213
   71MOL0     C 9506   6.036   9.685   0.621  0.1550  0.4778 -1.0165
   71MOL0     C 9507   6.082   9.692   0.753  0.5265  0.3517  0.2165
   71MOL0     O 9508   6.039   9.784   0.847 -0.1883  0.1455  0.3171
   71MOL0     C 9509   6.025   9.914   0.809 -0.6512 -0.2593  0.3868
   71MOL0     C 9510   5.992   9.994   0.936 -0.2488 -0.5166 -0.0097
   71MOL0     C 9511   5.883  10.093   0.916  0.3877 -1.5934 -0.3470
   71MOL0     C 9512   5.857  10.172   1.040  0.4724 -0.0474 -0.5543
   71MOL0     C 9513   5.799  10.089   1.139  0.2730  0.6494  0.4320
   71MOL0     C 9514   5.782  10.028   1.247 -0.6973  0.0039  0.0822
   71MOL0     C 9515   6.170   9.589   0.798  0.2912  0.0671  0.1649
   71MOL0     C 9516   6.219   9.498   0.715 -0.2222  0.5825  0.9314
   71MOL0     C 9517   6.324   9.406   0.790  0.3535 -0.1181  0.2474
   71MOL0     H 9518   6.211   9.035   0.633  1.5873 -1.0254  0.9597
   71MOL0     H 9519   6.294   8.809   0.545  3.1493 -0.5373  0.1286
   71MOL0     H 9520   6.521   8.739   0.522  1.1844  1.0571  0.4298
   71MOL0     H 9521   6.605   8.643   0.403  0.6854  0.4343  0.3665
   71MOL0     H 9522   6.679   8.938   0.442  0.0531 -0.0850  1.1241
   71MOL0     H 9523   6.736   8.829   0.313 -2.2828 -1.8891 -0.6734
   71MOL0     H 9524   6.738   8.735   0.599 -1.4502  0.2468 -0.3918
   71MOL0     H 9525   6.833   8.882   0.574 -2.7356  0.8433  0.7532
   71MOL0     H 9526   6.866   8.627   0.396 -1.1858  1.2247 -0.8061
   71MOL0     H 9527   6.973   8.766   0.399 -1.7268  0.7492 -1.0328
   71MOL0     H 9528   7.029   8.716   0.625  2.2854 -0.2954 -2.4018
   71MOL0     H 9529   6.918   8.582   0.641  2.3220  0.8802  3.2510
   71MOL0     H 9530   7.104   8.586   0.403 -2.0165 -1.3308  0.1635
   71MOL0     H 9531   7.185   8.566   0.555  0.5780  1.5475 -1.9488
   71MOL0     H 9532   6.947   8.398   0.469 -0.8911 -2.6360  0.7604
   71MOL0     H 9533   7.059   8.368   0.612 -1.7482  0.1425 -0.0938
   71MOL0     H 9534   7.183   8.388   0.339  2.0378 -0.2581  0.2100
   71MOL0     H 9535   7.251   8.330   0.484 -0.4510  2.5155  0.0912
   71MOL0     H 9536   7.172   8.080   0.569 -1.5123 -2.6057  2.2144
   71MOL0     H 9537   7.085   7.789   0.501  0.4159 -0.7778  0.7254
   71MOL0     H 9538   6.980   7.889   0.603 -1.9833 -1.3802  0.7040
   71MOL0     H 9539   6.852   7.735   0.534 -0.8669 -1.2998 -1.6476
   71MOL0     H 9540   6.826   7.856   0.395 -1.0246 -0.9968 -0.9038
   71MOL0     H 9541   6.850   7.620   0.320 -1.9120  1.3428  2.0543
   71MOL0     H 9542   7.022   7.619   0.374  1.7570  2.4787 -0.8761
   71MOL0     H 9543   7.095   7.795   0.255 -1.4515  1.6167  0.6466
   71MOL0     H 9544   6.935   7.824   0.175 -1.3110 -1.6647  0.5896
   71MOL0     H 9545   7.212   7.520  -0.034  0.4435  1.3564  3.2392
   71MOL0     H 9546   7.277   7.584  -0.247  0.2508  0.1752  0.0346
   71MOL0     H 9547   7.056   8.153  -0.525 -1.3749 -2.0480  0.8140
   71MOL0     H 9548   7.025   8.211  -0.767  0.0646  0.6540  1.1901
   71MOL0     H 9549   7.103   7.996  -1.147  1.8318  0.6585  1.5292
   71MOL0     H 9550   7.026   7.903  -1.014 -0.4381 -1.9071 -1.0867
   71MOL0     H 9551   6.890   8.158  -1.144  0.5614  1.6446  2.0002
   71MOL0     H 9552   6.854   7.991  -1.172  1.8836  0.5948 -0.5600
   71MOL0     H 9553   6.805   7.943  -0.939  1.1281  0.3364 -1.6321
   71MOL0     H 9554   6.855   8.118  -0.894  3.4366 -0.0800 -0.6561
   71MOL0     H 9555   6.628   8.009  -1.073  0.8741  1.6313 -1.0779
   71MOL0     H 9556   6.643   8.175  -1.039  1.1283 -0.0197 -0.0414
   71MOL0     H 9557   6.618   8.110  -0.788 -0.1091  1.5608 -0.9828
   71MOL0     H 9558   6.570   7.961  -0.840 -0.5711  0.6211  3.2600
   71MOL0     H 9559   6.370   8.047  -0.968 -1.3820  0.1883  1.4531
   71MOL0     H 9560   6.366   8.091  -0.804  1.3787 -0.4001  0.1570
   71MOL0     H 9561   6.498   8.314  -0.928  1.2922 -0.8687  0.1878
   71MOL0     H 9562   6.344   8.301  -0.841 -1.8227 -0.9035 -0.8001
   71MOL0     H 9563   6.215   8.247  -1.022 -0.0165 -1.1871  0.9853
   71MOL0     H 9564   6.309   8.390  -1.073  1.5150 -1.1446 -1.9850
   71MOL0     H 9565   7.196   7.846  -0.904 -0.0390 -1.8245  1.4073
   71MOL0     H 9566   7.222   7.776  -0.668 -0.0084 -0.0002 -1.1609
   71MOL0     H 9567   7.051   7.946  -0.216  1.3791  1.8651 -0.2060
   71MOL0     H 9568   6.978   7.879  -0.009 -3.8517 -3.4994 -0.2939
   71MOL0     H 9569   6.490   9.038   0.228  1.2129  1.2554  0.6443
   71MOL0     H 9570   6.391   9.241   0.326 -5.1345  1.7515  3.4294
   71MOL0     H 9571   6.036   9.573   0.441 -2.9175  1.6027  1.3488
   71MOL0     H 9572   5.966   9.761   0.586  0.8365  1.0733 -1.0951
   71MOL0     H 9573   5.951   9.932   0.731  2.7138  2.8850 -2.4742
   71MOL0     H 9574   6.113   9.955   0.759 -2.4377  0.2058 -2.6443
   71MOL0     H 9575   6.085  10.046   0.960 -2.1041  3.3879 -0.5699
   71MOL0     H 9576   5.960   9.922   1.012  0.2164 -2.9823 -2.0127
   71MOL0     H 9577   5.795  10.030   0.903  0.9472 -2.7150  0.9811
   71MOL0     H 9578   5.891  10.159   0.829 -1.2401 -2.6459 -1.3507
   71MOL0     H 9579   5.936  10.243   1.067 -1.7223  2.4765 -0.3068
   71MOL0     H 9580   5.791  10.254   1.009 -0.1512 -0.4661 -0.3571
   71MOL0     H 9581   5.785   9.969   1.337  0.6762  1.0419  0.7639
   71MOL0     H 9582   6.185   9.580   0.905  0.8504 -2.6798 -0.0838
   71MOL0     H 9583   6.408   9.395   0.721 -1.2407  1.0985 -2.0249
   71MOL0     H 9584   6.363   9.464   0.874 -1.9994 -0.0158  1.3428
   71MOL0     H 9585   6.275   9.311   0.815  1.0095 -1.2521 -2.3607
   72MOL0     O 9586   0.111   5.051   4.199 -0.9573 -0.2944 -0.3235
   72MOL0     C 9587   0.144   4.935   4.158  0.1533 -1.3534  0.1926
   72MOL0     O 9588   0.084   4.820   4.183 -0.7721 -0.8194 -0.3152
   72MOL0     C 9589  -0.053   4.818   4.214 -0.4989 -0.0714 -0.2005
   72MOL0     C 9590  -0.098   4.746   4.324  0.3456 -0.5145  0.6840
   72MOL0     C 9591  -0.236   4.737   4.355 -0.0281  0.2742  0.6118
   72MOL0     C 9592  -0.328   4.804   4.273 -0.0390  0.1509 -0.0018
   72MOL0     O 9593  -0.465   4.795   4.308 -0.4121 -0.3094 -0.2655
   72MOL0     C 9594  -0.501   4.714   4.416  0.2377  0.4579  0.3365
   72MOL0     C 9595  -0.654   4.755   4.452 -0.3857  0.3953 -0.7390
   72MOL0     C 9596  -0.657   4.848   4.577  0.2111 -0.1937 -0.1162
   72MOL0     C 9597  -0.804   4.864   4.618 -0.5429  0.3623 -0.1020
   72MOL0     C 9598  -0.824   4.972   4.730  0.5021  0.1718 -0.3652
   72MOL0     C 9599  -0.794   4.907   4.863  0.0794 -0.3402 -0.1964
   72MOL0     C 9600  -0.820   5.009   4.971 -0.7890 -0.8785 -0.3577
   72MOL0     C 9601  -0.770   4.961   5.102 -0.0934 -0.4305 -1.1655
   72MOL0     N 9602  -0.756   5.071   5.200  0.9346  0.3107 -0.5058
   72MOL0     C 9603  -0.637   5.133   5.222 -0.8073  0.1841  0.1474
   72MOL0     C 9604  -0.665   5.223   5.319  0.0980 -0.6153 -0.1751
   72MOL0     C 9605  -0.577   5.325   5.387 -0.0741  0.5186 -0.0580
   72MOL0     C 9606  -0.458   5.266   5.466  0.7420  0.6644  1.3184
   72MOL0     C 9607  -0.374   5.385   5.533 -0.5917  0.0564  0.4256
   72MOL0     C 9608  -0.233   5.341   5.579 -0.2639 -0.3601  0.1252
   72MOL0     O 9609  -0.258   5.246   5.696 -0.0444 -0.1007  0.3701
   72MOL0     C 9610  -0.147   5.199   5.761 -0.1731 -0.2936  0.2843
   72MOL0     C 9611  -0.173   5.174   5.890  0.0607  0.4590 -0.0044
   72MOL0     C 9612  -0.065   5.131   5.973  0.6983  0.0209  0.2172
   72MOL0     C 9613   0.063   5.112   5.924 -0.0851 -0.1171  0.1030
   72MOL0     C 9614   0.179   5.066   6.013  0.1306 -0.3901  0.7270
   72MOL0     O 9615   0.292   5.037   5.954  0.0484 -1.1108 -0.1665
   72MOL0     C 9616   0.407   5.001   6.019 -0.2440  0.1244  0.0019
   72MOL0     C 9617   0.471   5.100   6.101  0.6105  0.2971  0.2299
   72MOL0     C 9618   0.590   5.070   6.164  0.5494  0.3709  0.9387
   72MOL0     C 9619   0.651   4.943   6.145  1.0125  0.2652 -0.0240
   72MOL0     O 9620   0.779   4.925   6.192  0.3159  0.3501 -0.2917
   72MOL0     C 9621   0.845   4.812   6.155  0.4266  0.1356 -0.3313
   72MOL0     C 9622   0.991   4.804   6.206  0.6497  0.5438  1.2755
   72MOL0     C 9623   1.031   4.652   6.210  0.5689 -0.2838 -0.5980
   72MOL0     C 9624   1.177   4.648   6.188 -0.1527 -0.4715 -0.5769
   72MOL0     C 9625   1.251   4.523   6.216 -0.2544  0.1319 -0.3729
   72MOL0     C 9626   1.396   4.546   6.206 -1.2180  0.4668 -0.2458
   72MOL0     C 9627   1.482   4.428   6.213 -1.5341  0.4712 -0.6521
   72MOL0     C 9628   1.635   4.467   6.223  0.5067 -0.0962  0.2248
   72MOL0    Cl 9629   1.732   4.316   6.200 -0.2439 -0.0317  0.2687
   72MOL0     C 9630   0.575   4.838   6.084 -0.5735 -0.0145 -0.5402
   72MOL0     C 9631   0.463   4.871   6.005 -0.5057  0.0774 -1.5796
   72MOL0     O 9632   0.159   5.065   6.135 -0.4513 -0.3470 -0.7506
   72MOL0     C 9633   0.084   5.126   5.784 -1.5572 -0.0977  0.2215
   72MOL0     C 9634  -0.025   5.173   5.706  0.7065  0.8590 -0.7523
   72MOL0     N 9635  -0.794   5.200   5.364 -0.0443 -0.3479  0.2148
   72MOL0     N 9636  -0.855   5.109   5.293  0.5105  1.0165 -1.0228
   72MOL0     C 9637  -0.285   4.885   4.166  0.3698  0.6482  0.6478
   72MOL0     C 9638  -0.149   4.881   4.135  0.4856 -0.2061  0.2526
   72MOL0     C 9639   0.271   4.934   4.094 -0.1532  0.1533  0.2563
   72MOL0     C 9640   0.360   4.832   4.120 -0.8063 -0.1524 -0.3164
   72MOL0     C 9641   0.492   4.837   4.070  0.5589 -0.0097  0.3899
   72MOL0     C 9642   0.546   4.956   4.007  0.5737  0.4676  0.2378
   72MOL0     O 9643   0.679   4.943   3.981 -0.3813 -0.1646  0.7850
   72MOL0     C 9644   0.725   5.045   3.894  0.4445 -0.1661  0.2291
   72MOL0     C 9645   0.851   4.995   3.806 -0.0459  0.0525 -0.3825
   72MOL0     C 9646   0.832   4.870   3.728 -0.6536 -0.6241  0.0532
   72MOL0     C 9647   0.953   4.852   3.632  0.5012  0.0906  0.3265
   72MOL0     C 9648   1.071   4.798   3.707  0.6600  0.3494  0.0288
   72MOL0     C 9649   1.166   4.762   3.772  0.4883 -0.1980  0.1750
   72MOL0     C 9650   0.453   5.063   3.981  0.4357 -0.6245 -0.4145
   72MOL0     C 9651   0.316   5.043   4.015 -0.2309  0.4386 -0.1542
   72MOL0     C 9652   0.236   5.161   3.971  0.5468  0.1207 -0.2355
   72MOL0     H 9653  -0.026   4.688   4.380  3.5392  0.2601 -2.2299
   72MOL0     H 9654  -0.273   4.676   4.437  0.8455 -1.5039 -0.2528
   72MOL0     H 9655  -0.495   4.607   4.395  1.5913  0.7271 -0.8812
   72MOL0     H 9656  -0.444   4.736   4.507  1.2685  0.2737 -0.2383
   72MOL0     H 9657  -0.707   4.661   4.464 -2.1586  1.3568 -0.7459
   72MOL0     H 9658  -0.708   4.821   4.382 -2.2703  3.1434  2.9649
   72MOL0     H 9659  -0.616   4.946   4.552 -0.7219  0.7155  1.7063
   72MOL0     H 9660  -0.596   4.807   4.657  0.9663 -0.2424 -0.7082
   72MOL0     H 9661  -0.855   4.899   4.528 -3.2772  0.1344  1.2714
   72MOL0     H 9662  -0.847   4.771   4.656 -2.3999  0.8285 -0.9645
   72MOL0     H 9663  -0.776   5.070   4.721  1.8212 -0.1205  2.3696
   72MOL0     H 9664  -0.931   4.994   4.736 -0.0015 -2.3105  3.8718
   72MOL0     H 9665  -0.850   4.815   4.880 -0.3292  0.5397  4.6679
   72MOL0     H 9666  -0.687   4.883   4.865  0.5236  1.2073 -2.3114
   72MOL0     H 9667  -0.928   5.016   4.984 -1.1619 -4.2190 -0.7839
   72MOL0     H 9668  -0.781   5.110   4.952  0.8223 -1.5992 -1.0616
   72MOL0     H 9669  -0.832   4.884   5.149  1.5609 -1.1708 -0.0738
   72MOL0     H 9670  -0.675   4.913   5.076 -0.3222 -0.3675 -2.1559
   72MOL0     H 9671  -0.551   5.137   5.156 -0.6823 -1.5316  0.1650
   72MOL0     H 9672  -0.545   5.399   5.313 -1.1894  1.0514 -0.0338
   72MOL0     H 9673  -0.652   5.384   5.441 -1.2720  3.5802 -4.5150
   72MOL0     H 9674  -0.492   5.193   5.540 -1.9401  0.3097 -0.1383
   72MOL0     H 9675  -0.381   5.209   5.414  0.3026 -1.4966  2.8563
   72MOL0     H 9676  -0.432   5.428   5.614 -1.4538 -1.0974  0.4512
   72MOL0     H 9677  -0.353   5.460   5.456 -0.1706  0.0953  0.5764
   72MOL0     H 9678  -0.176   5.432   5.601  3.0303 -1.4610 -2.8671
   72MOL0     H 9679  -0.177   5.285   5.503 -2.9238 -0.9456 -1.5554
   72MOL0     H 9680  -0.274   5.176   5.929  0.4345  0.0547  1.0455
   72MOL0     H 9681  -0.077   5.109   6.078  1.9634 -3.1377 -0.2112
   72MOL0     H 9682   0.421   5.196   6.107 -1.5377 -0.6021 -1.7432
   72MOL0     H 9683   0.649   5.140   6.223  0.2954  1.1733  0.2582
   72MOL0     H 9684   0.793   4.726   6.197  0.6121  1.1754  2.1648
   72MOL0     H 9685   0.840   4.797   6.046 -0.7396 -1.9003 -0.0412
   72MOL0     H 9686   1.059   4.861   6.141 -2.5605  1.0768 -1.9160
   72MOL0     H 9687   1.006   4.840   6.308  1.1437  1.2057  0.9828
   72MOL0     H 9688   1.002   4.598   6.302 -0.1077 -1.1992 -1.3271
   72MOL0     H 9689   0.985   4.597   6.127 -1.1750 -0.1973  0.2638
   72MOL0     H 9690   1.224   4.716   6.259  0.4869 -0.3074 -1.1474
   72MOL0     H 9691   1.207   4.680   6.088  1.5613  5.2873  1.3996
   72MOL0     H 9692   1.224   4.448   6.140 -1.5615  0.7951 -0.6000
   72MOL0     H 9693   1.219   4.472   6.308 -2.1089 -1.5806 -1.8435
   72MOL0     H 9694   1.422   4.591   6.110 -0.6439  1.2247  0.2494
   72MOL0     H 9695   1.435   4.616   6.281  0.5897  0.1014 -0.7884
   72MOL0     H 9696   1.477   4.379   6.115 -0.6354 -1.3869  0.1890
   72MOL0     H 9697   1.463   4.363   6.299  2.7517 -0.1134  0.0581
   72MOL0     H 9698   1.660   4.546   6.152  0.6021 -0.1525  0.1954
   72MOL0     H 9699   1.656   4.501   6.325 -1.9793  1.5452  0.2701
   72MOL0     H 9700   0.612   4.736   6.091  0.0600  0.2229 -0.4250
   72MOL0     H 9701   0.409   4.793   5.954 -0.4113 -1.6234  0.7551
   72MOL0     H 9702   0.180   5.100   5.741 -1.2476 -1.9664  1.8703
   72MOL0     H 9703  -0.008   5.182   5.599  1.5574  1.2140 -0.5913
   72MOL0     H 9704  -0.350   4.945   4.103 -1.9797 -0.2566  2.0855
   72MOL0     H 9705  -0.122   4.951   4.056 -1.5478  0.9345  0.5104
   72MOL0     H 9706   0.338   4.744   4.179 -3.3747 -0.5995 -1.8060
   72MOL0     H 9707   0.563   4.755   4.081  2.3549  1.5236  0.5895
   72MOL0     H 9708   0.749   5.129   3.960  1.0853 -0.7227  0.7145
   72MOL0     H 9709   0.650   5.069   3.818 -1.3643  3.2505  2.7965
   72MOL0     H 9710   0.934   4.977   3.876  1.9099  2.5059 -1.8926
   72MOL0     H 9711   0.874   5.067   3.728  2.5435 -1.1546 -0.8345
   72MOL0     H 9712   0.741   4.854   3.670 -0.6536 -1.4691  0.2819
   72MOL0     H 9713   0.823   4.784   3.795  0.7283  2.2480  4.3007
   72MOL0     H 9714   0.922   4.785   3.551 -0.1082  0.2389  0.4311
   72MOL0     H 9715   0.971   4.946   3.579  0.6183 -0.7271 -1.1382
   72MOL0     H 9716   1.248   4.736   3.836 -0.4831 -0.7936  1.2035
   72MOL0     H 9717   0.486   5.152   3.929 -0.0196 -0.0556  0.2498
   72MOL0     H 9718   0.134   5.121   3.963  0.4117  0.4006  0.0676
   72MOL0     H 9719   0.256   5.224   4.058  3.6398  0.1579 -0.8616
   72MOL0     H 9720   0.269   5.207   3.878  1.3151 -1.3815 -0.7289
   73MOL0     O 9721   3.637   9.213   1.850 -0.9757 -0.5377 -0.1781
   73MOL0     C 9722   3.643   9.330   1.847  0.1931 -0.2310 -0.2892
   73MOL0     O 9723   3.737   9.406   1.783 -0.5410 -0.4124 -0.8502
   73MOL0     C 9724   3.861   9.343   1.759  0.0045  0.8495  0.1891
   73MOL0     C 9725   3.861   9.244   1.661 -0.4305 -0.6820  0.0118
   73MOL0     C 9726   3.979   9.164   1.644  0.2084 -0.1804  0.1173
   73MOL0     C 9727   4.088   9.185   1.715  0.3342  0.8570 -0.7221
   73MOL0     O 9728   4.201   9.103   1.685  1.0483 -0.5647 -1.0480
   73MOL0     C 9729   4.331   9.164   1.714 -0.2195 -0.5831  0.2154
   73MOL0     C 9730   4.450   9.106   1.630 -0.3359 -0.0700 -0.4964
   73MOL0     C 9731   4.466   9.176   1.496  0.9468  0.7280 -0.3869
   73MOL0     C 9732   4.555   9.084   1.406  0.6013  0.0156  1.0070
   73MOL0     C 9733   4.581   9.140   1.275 -0.1293 -0.0075  1.1234
   73MOL0     C 9734   4.668   9.044   1.188  0.0905  0.6867 -0.0436
   73MOL0     C 9735   4.588   8.927   1.123  0.1184  0.1481 -0.4256
   73MOL0     C 9736   4.626   8.910   0.977  0.4697 -0.4229  0.0769
   73MOL0     N 9737   4.767   8.912   0.930 -0.1403 -1.0543 -0.2952
   73MOL0     C 9738   4.837   9.024   0.884 -0.2962  0.5032  0.5966
   73MOL0     C 9739   4.963   8.991   0.886 -0.6949 -0.1124  1.3491
   73MOL0     C 9740   5.066   9.092   0.860  0.4186  0.1775  0.2393
   73MOL0     C 9741   5.047   9.163   0.725 -0.0828  0.1398  0.8243
   73MOL0     C 9742   5.010   9.314   0.729  0.1405  0.5135  0.2806
   73MOL0     C 9743   5.136   9.397   0.764 -0.0361  0.5864 -0.3379
   73MOL0     O 9744   5.094   9.536   0.734  0.3702  0.2152  0.2188
   73MOL0     C 9745   5.169   9.647   0.765 -0.0265  0.6548 -0.5809
   73MOL0     C 9746   5.110   9.768   0.787  0.8379  0.7921  0.2575
   73MOL0     C 9747   5.191   9.879   0.837  0.0904 -0.3189 -0.7729
   73MOL0     C 9748   5.331   9.866   0.868  0.3785  0.6426  0.0381
   73MOL0     C 9749   5.409   9.983   0.904  0.0287 -0.6845 -0.5924
   73MOL0     O 9750   5.344  10.101   0.920  0.1588 -0.2551  0.0200
   73MOL0     C 9751   5.427  10.213   0.906 -0.3397 -0.7397  0.8125
   73MOL0     C 9752   5.482  10.276   1.013 -0.2548 -0.2947  0.0305
   73MOL0     C 9753   5.565  10.382   1.006  0.1025 -0.0672 -0.1422
   73MOL0     C 9754   5.592  10.445   0.884 -1.1177 -0.0469 -1.4235
   73MOL0     O 9755   5.676  10.555   0.860 -0.1729 -0.1103  0.5081
   73MOL0     C 9756   5.745  10.621   0.960 -0.5203 -0.7278  0.5094
   73MOL0     C 9757   5.819  10.738   0.898 -0.8391  0.2824 -0.4189
   73MOL0     C 9758   5.737  10.860   0.852  0.1181  0.7372 -1.1586
   73MOL0     C 9759   5.712  10.962   0.965 -0.5114  0.4858  0.0251
   73MOL0     C 9760   5.652  11.090   0.901 -0.1563 -0.2503  1.0681
   73MOL0     C 9761   5.589  11.194   0.994 -0.2816  0.4122  1.0453
   73MOL0     C 9762   5.576  11.337   0.932  0.4886 -0.5995 -0.2187
   73MOL0     C 9763   5.507  11.330   0.793  0.2750 -0.7458 -0.1628
   73MOL0    Cl 9764   5.331  11.285   0.815  0.2102  0.1695 -0.1290
   73MOL0     C 9765   5.538  10.388   0.770 -1.1701 -0.9458  0.0707
   73MOL0     C 9766   5.455  10.277   0.782 -0.1130  0.0715  0.3800
   73MOL0     O 9767   5.521   9.966   0.934  0.7508 -0.3030  0.0748
   73MOL0     C 9768   5.389   9.737   0.837 -0.6545 -0.5173  0.8667
   73MOL0     C 9769   5.313   9.630   0.790 -0.2061 -0.8630  0.1638
   73MOL0     N 9770   4.974   8.863   0.938  0.7295  0.0914 -0.0852
   73MOL0     N 9771   4.855   8.812   0.962  0.2178  0.1723 -0.5352
   73MOL0     C 9772   4.087   9.269   1.827  0.1177 -0.5396 -0.3342
   73MOL0     C 9773   3.970   9.349   1.847 -0.0489  0.8769  0.2862
   73MOL0     C 9774   3.517   9.398   1.871 -0.7475  0.0149  0.1344
   73MOL0     C 9775   3.407   9.410   1.778 -0.1284 -0.4448 -0.0558
   73MOL0     C 9776   3.291   9.472   1.810  0.0169 -0.6298  0.2645
   73MOL0     C 9777   3.276   9.542   1.924  0.1559  0.3821 -0.0637
   73MOL0     O 9778   3.163   9.612   1.956  0.1193  0.1712 -0.0032
   73MOL0     C 9779   3.040   9.538   1.945 -0.1702 -0.3398  0.3630
   73MOL0     C 9780   2.939   9.595   2.047  0.7396 -0.6729 -0.4317
   73MOL0     C 9781   2.987   9.552   2.192 -0.0734  0.3902  0.7618
   73MOL0     C 9782   2.879   9.606   2.290 -0.0625 -0.5994  1.2476
   73MOL0     C 9783   2.934   9.621   2.429  0.0110 -0.3226  0.8407
   73MOL0     C 9784   2.955   9.649   2.549 -0.2017  0.5828  0.9526
   73MOL0     C 9785   3.385   9.565   2.007 -0.0955  0.3460  0.2454
   73MOL0     C 9786   3.500   9.481   1.989 -0.2476 -0.2181  0.9259
   73MOL0     C 9787   3.613   9.480   2.091  0.0580 -0.4565  0.2847
   73MOL0     H 9788   3.783   9.242   1.586  0.1314  1.5971 -0.7026
   73MOL0     H 9789   3.979   9.105   1.553  0.3747  0.1166 -0.0802
   73MOL0     H 9790   4.330   9.272   1.697 -1.1196 -0.7932 -1.1656
   73MOL0     H 9791   4.365   9.141   1.815 -1.0490 -1.6628  0.2592
   73MOL0     H 9792   4.429   8.999   1.621 -1.6034 -0.0206  1.3551
   73MOL0     H 9793   4.539   9.118   1.693 -0.1072 -1.8298 -0.4441
   73MOL0     H 9794   4.505   9.277   1.512  0.5779  0.9404 -0.8161
   73MOL0     H 9795   4.370   9.191   1.447  0.4689  1.5115  0.7366
   73MOL0     H 9796   4.646   9.056   1.460  1.6223  1.0397 -0.1357
   73MOL0     H 9797   4.499   8.993   1.383  0.9750  0.3378 -1.3472
   73MOL0     H 9798   4.494   9.182   1.223  0.2961 -0.1183  0.3121
   73MOL0     H 9799   4.642   9.230   1.272 -1.5514  1.0334 -2.6426
   73MOL0     H 9800   4.709   9.113   1.114 -1.5296  2.5371  0.6920
   73MOL0     H 9801   4.752   9.004   1.245 -1.8741 -1.1894  1.7076
   73MOL0     H 9802   4.485   8.961   1.130 -1.1688 -2.7139 -3.2077
   73MOL0     H 9803   4.595   8.833   1.180 -0.7446  0.8919  0.9687
   73MOL0     H 9804   4.584   8.815   0.944 -2.8537 -0.3588  3.4822
   73MOL0     H 9805   4.571   8.990   0.926  1.8022 -0.5326 -1.6245
   73MOL0     H 9806   4.793   9.119   0.855  1.3915  1.2381  0.3162
   73MOL0     H 9807   5.072   9.162   0.944  3.4534  1.3395 -0.8129
   73MOL0     H 9808   5.164   9.044   0.860  0.0974 -0.5522  2.1666
   73MOL0     H 9809   5.141   9.152   0.669 -0.2006  0.3557  0.5805
   73MOL0     H 9810   4.975   9.103   0.668 -0.0917  1.0884 -0.2116
   73MOL0     H 9811   4.929   9.336   0.800 -3.3342 -0.6272 -2.9890
   73MOL0     H 9812   4.974   9.345   0.631  3.9589 -4.1963 -3.0705
   73MOL0     H 9813   5.208   9.351   0.696 -0.6447 -1.1903  0.1691
   73MOL0     H 9814   5.167   9.384   0.868 -2.4219  1.0652  0.5105
   73MOL0     H 9815   5.004   9.785   0.774  0.6528  0.8464  1.6859
   73MOL0     H 9816   5.137   9.967   0.871 -2.4316 -2.0742  0.1084
   73MOL0     H 9817   5.477  10.237   1.115  2.4861  2.7698  1.5521
   73MOL0     H 9818   5.600  10.408   1.105 -2.2312  0.4315  0.6137
   73MOL0     H 9819   5.679  10.654   1.040 -0.3010 -0.3399  0.5312
   73MOL0     H 9820   5.824  10.560   1.006  1.0529 -0.0996 -1.2331
   73MOL0     H 9821   5.896  10.772   0.969 -2.3309  1.5241  0.6753
   73MOL0     H 9822   5.874  10.701   0.811  2.7365 -1.0157  2.1230
   73MOL0     H 9823   5.806  10.907   0.781  1.7880  1.6633  0.9423
   73MOL0     H 9824   5.642  10.837   0.803 -1.9253  2.9862  1.4614
   73MOL0     H 9825   5.806  10.987   1.014  0.4787  0.3599 -1.7369
   73MOL0     H 9826   5.650  10.916   1.043 -2.7407  0.7858 -1.4973
   73MOL0     H 9827   5.578  11.056   0.828 -0.3907 -0.5179  1.4277
   73MOL0     H 9828   5.732  11.140   0.846 -0.0457 -1.3676  0.1624
   73MOL0     H 9829   5.497  11.141   1.019  0.5265 -3.5786 -2.9655
   73MOL0     H 9830   5.652  11.197   1.083  0.0714  0.4483  0.8006
   73MOL0     H 9831   5.678  11.376   0.930  1.1213 -2.0835  1.0570
   73MOL0     H 9832   5.516  11.402   0.996 -0.3428 -3.0441  1.6398
   73MOL0     H 9833   5.523  11.424   0.740  0.9618 -0.7730 -0.0161
   73MOL0     H 9834   5.548  11.248   0.733  0.0912 -0.1842 -1.0723
   73MOL0     H 9835   5.563  10.427   0.672  1.6613 -0.0125  1.0689
   73MOL0     H 9836   5.406  10.252   0.688 -1.2687  1.6339  0.5111
   73MOL0     H 9837   5.496   9.735   0.849 -0.0360 -1.2564 -3.2611
   73MOL0     H 9838   5.360   9.536   0.764 -1.4090 -1.5112  0.2232
   73MOL0     H 9839   4.169   9.264   1.898  0.7119  0.1928 -0.9489
   73MOL0     H 9840   3.958   9.408   1.937 -3.0948 -2.8840  2.6541
   73MOL0     H 9841   3.410   9.347   1.689 -2.2866 -4.4756  2.4154
   73MOL0     H 9842   3.208   9.455   1.742 -1.8699 -3.5168  2.9962
   73MOL0     H 9843   3.041   9.434   1.981  1.1163  0.3289  2.3961
   73MOL0     H 9844   2.992   9.557   1.849  1.0680  1.8202  0.1096
   73MOL0     H 9845   2.841   9.553   2.026  0.2990  0.1564 -0.0836
   73MOL0     H 9846   2.931   9.704   2.046  2.0446 -0.5467  0.1320
   73MOL0     H 9847   3.085   9.600   2.203 -0.1725  1.8595 -3.0734
   73MOL0     H 9848   2.999   9.443   2.201 -2.0909  0.0645 -0.0241
   73MOL0     H 9849   2.825   9.696   2.261 -0.5892 -0.8686  1.3711
   73MOL0     H 9850   2.805   9.526   2.284 -1.1771  0.5003 -0.8221
   73MOL0     H 9851   2.977   9.657   2.654  2.4788 -1.3055  0.6316
   73MOL0     H 9852   3.384   9.628   2.096  1.6812  1.8002 -0.6890
   73MOL0     H 9853   3.668   9.573   2.071  0.2467 -0.6453 -0.0780
   73MOL0     H 9854   3.567   9.494   2.190 -0.6847  1.8240 -0.3161
   73MOL0     H 9855   3.676   9.391   2.089  0.6283 -0.0536 -0.8840
   74MOL0     O 9856   7.789   1.257   2.347 -0.1201  0.1289  0.1273
   74MOL0     C 9857   7.768   1.211   2.237  0.4639 -0.6444 -0.1569
   74MOL0     O 9858   7.857   1.197   2.137  1.0028 -0.4171 -0.4628
   74MOL0     C 9859   7.989   1.232   2.151 -0.2195  0.2252  0.5726
   74MOL0     C 9860   8.062   1.193   2.034  0.4248  0.1851 -0.4889
   74MOL0     C 9861   8.202   1.203   2.031  0.3115 -0.1661  0.3173
   74MOL0     C 9862   8.268   1.276   2.131 -0.6325  0.2917 -0.4666
   74MOL0     O 9863   8.406   1.298   2.135  0.2408 -0.3518 -0.0773
   74MOL0     C 9864   8.488   1.210   2.048 -0.3219  0.2050 -0.3024
   74MOL0     C 9865   8.642   1.226   2.062  0.0784 -0.0564  0.6039
   74MOL0     C 9866   8.728   1.140   1.961 -0.2004  0.0463 -0.0848
   74MOL0     C 9867   8.868   1.123   2.009 -0.1859 -0.6163 -0.2729
   74MOL0     C 9868   8.962   1.036   1.917  0.1649  0.4332 -0.3596
   74MOL0     C 9869   8.949   0.887   1.962  0.3415 -0.0468 -0.1931
   74MOL0     C 9870   9.037   0.799   1.876  0.5081 -0.1765 -1.4677
   74MOL0     C 9871   9.192   0.815   1.904  0.4324 -0.0981 -0.2150
   74MOL0     N 9872   9.228   0.768   2.036 -1.2313 -0.0956 -0.2503
   74MOL0     C 9873   9.152   0.686   2.123 -0.4369 -0.0938  0.2736
   74MOL0     C 9874   9.233   0.667   2.230  0.3351  0.7054 -0.1419
   74MOL0     C 9875   9.204   0.578   2.352  0.5293  0.1496 -0.3470
   74MOL0     C 9876   9.228   0.661   2.487  0.6923 -0.7793 -0.0143
   74MOL0     C 9877   9.118   0.630   2.593  0.0917 -0.3076  0.8782
   74MOL0     C 9878   8.980   0.697   2.574 -0.1569  0.1174  0.7023
   74MOL0     O 9879   8.920   0.666   2.451 -0.0316 -0.2662  0.5983
   74MOL0     C 9880   8.803   0.730   2.420  0.0204  1.1737  1.2026
   74MOL0     C 9881   8.719   0.807   2.508  0.3538 -0.5273 -0.0158
   74MOL0     C 9882   8.604   0.860   2.456 -0.7263 -0.3561  0.4038
   74MOL0     C 9883   8.568   0.847   2.322 -0.3149 -0.5502 -0.4248
   74MOL0     C 9884   8.437   0.911   2.281 -0.6166 -0.0642  0.9298
   74MOL0     O 9885   8.359   0.824   2.208  0.6662 -0.0479 -0.3417
   74MOL0     C 9886   8.219   0.849   2.186 -0.2709 -0.1591 -0.2462
   74MOL0     C 9887   8.163   0.813   2.064 -0.2644 -0.4960  0.6711
   74MOL0     C 9888   8.031   0.805   2.039  0.4817  0.3053 -0.4101
   74MOL0     C 9889   7.947   0.845   2.143 -0.1438 -0.6973  0.0462
   74MOL0     O 9890   7.810   0.827   2.121 -0.5328  0.4947 -1.0415
   74MOL0     C 9891   7.738   0.756   2.221 -0.0212  0.3075 -0.2798
   74MOL0     C 9892   7.795   0.629   2.263  0.3817  1.0384 -0.6805
   74MOL0     C 9893   7.704   0.571   2.372 -0.0245  0.8273  0.3914
   74MOL0     C 9894   7.757   0.428   2.424 -0.5886  0.3816 -0.7128
   74MOL0     C 9895   7.847   0.437   2.550  0.3825 -0.0581 -0.5457
   74MOL0     C 9896   7.907   0.298   2.576  0.5312  0.4144 -0.3739
   74MOL0     C 9897   8.051   0.297   2.640  0.0809  0.1698 -0.4725
   74MOL0     C 9898   8.119   0.161   2.627  0.4411 -0.7153  0.6874
   74MOL0    Cl 9899   8.067   0.043   2.735  0.3075 -0.1890  0.4057
   74MOL0     C 9900   7.996   0.897   2.265 -0.1298 -0.0462  0.7578
   74MOL0     C 9901   8.133   0.899   2.292  0.4777 -0.7542  0.5671
   74MOL0     O 9902   8.414   1.022   2.326  0.0730  0.3222  0.6439
   74MOL0     C 9903   8.650   0.774   2.233 -0.8208  0.1876 -0.5194
   74MOL0     C 9904   8.764   0.716   2.285  0.5737 -0.5929 -0.6422
   74MOL0     N 9905   9.360   0.709   2.189  1.0252  0.3264 -0.1161
   74MOL0     N 9906   9.355   0.782   2.085  0.2378 -1.3738  0.5202
   74MOL0     C 9907   8.203   1.312   2.245  0.7054  0.3326  0.0972
   74MOL0     C 9908   8.065   1.300   2.256  0.2341  0.2564  0.7797
   74MOL0     C 9909   7.625   1.166   2.214  0.2106 -0.3161  0.0390
   74MOL0     C 9910   7.610   1.076   2.103  0.1151  0.7139 -0.0809
   74MOL0     C 9911   7.481   1.042   2.053  0.4878  0.6581 -0.1399
   74MOL0     C 9912   7.370   1.078   2.130  1.0870  0.4033  0.0838
   74MOL0     O 9913   7.249   1.026   2.085  0.3740 -0.3703 -0.5423
   74MOL0     C 9914   7.132   1.111   2.122 -0.3528  0.5332  0.7938
   74MOL0     C 9915   7.015   1.060   2.031 -0.7266 -0.8651 -0.1980
   74MOL0     C 9916   7.058   1.017   1.890 -0.4918 -0.1876  0.5895
   74MOL0     C 9917   6.944   0.980   1.796  0.3922  0.0474 -0.7536
   74MOL0     C 9918   6.857   0.870   1.849 -0.3118 -0.3846 -0.0447
   74MOL0     C 9919   6.783   0.774   1.891  0.0012 -0.2120 -0.0938
   74MOL0     C 9920   7.387   1.153   2.248 -1.2376 -0.0660  0.5594
   74MOL0     C 9921   7.514   1.206   2.282 -0.0711 -0.3674  0.0356
   74MOL0     C 9922   7.521   1.308   2.394 -0.4332  0.8847 -0.2390
   74MOL0     H 9923   8.008   1.140   1.956 -0.6237 -0.0802  0.4039
   74MOL0     H 9924   8.254   1.163   1.944  4.0720  1.2403  1.7146
   74MOL0     H 9925   8.464   1.106   2.071  1.3941 -0.2282 -0.3241
   74MOL0     H 9926   8.458   1.230   1.944 -0.6580 -0.9170 -0.4346
   74MOL0     H 9927   8.681   1.206   2.162  1.6984 -0.5331 -0.0923
   74MOL0     H 9928   8.668   1.330   2.041  0.1830 -0.5074 -1.8671
   74MOL0     H 9929   8.723   1.203   1.871  2.4481 -0.4527 -0.6692
   74MOL0     H 9930   8.683   1.048   1.923 -0.6775  0.7525 -1.2939
   74MOL0     H 9931   8.923   1.217   2.000  2.2250 -1.9057  0.1823
   74MOL0     H 9932   8.860   1.090   2.113 -2.0015 -1.8020 -0.7436
   74MOL0     H 9933   8.936   1.052   1.812 -1.5381  2.3801  0.2939
   74MOL0     H 9934   9.067   1.065   1.922  0.4593  0.1945 -3.3294
   74MOL0     H 9935   8.971   0.872   2.068 -2.2765 -0.6292  0.3284
   74MOL0     H 9936   8.847   0.847   1.956  0.4020 -0.7880  2.5387
   74MOL0     H 9937   9.028   0.826   1.770  2.1928  0.2542 -1.5383
   74MOL0     H 9938   9.017   0.692   1.885  3.9118 -1.3606 -4.8527
   74MOL0     H 9939   9.244   0.750   1.833 -1.7952 -1.7341 -0.4622
   74MOL0     H 9940   9.230   0.917   1.895  2.2195 -0.5600  1.2867
   74MOL0     H 9941   9.048   0.661   2.104 -1.5263  4.4843 -1.2041
   74MOL0     H 9942   9.102   0.541   2.334 -0.0647  1.4282  0.3148
   74MOL0     H 9943   9.274   0.494   2.347  0.6731  0.3124 -1.2532
   74MOL0     H 9944   9.325   0.622   2.519  0.1472 -2.3654 -0.2088
   74MOL0     H 9945   9.239   0.770   2.479  1.0446 -0.5128  2.9471
   74MOL0     H 9946   9.160   0.648   2.693  0.3922  0.8335  0.5563
   74MOL0     H 9947   9.099   0.522   2.597 -2.3486  0.0747  2.9494
   74MOL0     H 9948   8.995   0.805   2.583  2.9618  0.1856 -2.8316
   74MOL0     H 9949   8.912   0.664   2.653 -0.9028 -1.1744 -0.4424
   74MOL0     H 9950   8.756   0.835   2.606  0.0222 -0.1091 -0.0074
   74MOL0     H 9951   8.549   0.925   2.523 -1.4042  1.0268 -1.4157
   74MOL0     H 9952   8.228   0.781   1.983 -0.0336  0.3815  0.4995
   74MOL0     H 9953   7.993   0.759   1.948 -1.9405  0.6885  0.3170
   74MOL0     H 9954   7.748   0.808   2.316  0.3321 -0.4677  0.1171
   74MOL0     H 9955   7.634   0.758   2.188  0.1753 -2.3341 -1.3173
   74MOL0     H 9956   7.799   0.552   2.185  0.4952 -0.8703  1.1176
   74MOL0     H 9957   7.889   0.652   2.314 -0.4286  2.8258  0.0976
   74MOL0     H 9958   7.712   0.628   2.464 -1.6565 -0.8496  1.6525
   74MOL0     H 9959   7.602   0.557   2.334  0.6505  2.3528 -2.2644
   74MOL0     H 9960   7.818   0.378   2.348  0.4782 -0.5629  0.7184
   74MOL0     H 9961   7.672   0.364   2.449 -0.0164 -0.3969 -0.7014
   74MOL0     H 9962   7.792   0.481   2.633 -1.0192  1.5231 -2.2029
   74MOL0     H 9963   7.935   0.496   2.522  2.4369 -2.2712  0.8864
   74MOL0     H 9964   7.839   0.244   2.642  0.8832  1.7999  1.1862
   74MOL0     H 9965   7.911   0.244   2.480  0.0210 -2.3894  1.0780
   74MOL0     H 9966   8.041   0.324   2.745 -0.0152 -0.8430 -0.2147
   74MOL0     H 9967   8.115   0.368   2.587 -0.5864  1.5925  0.5757
   74MOL0     H 9968   8.110   0.124   2.525  0.5852 -0.0089  0.4132
   74MOL0     H 9969   8.226   0.175   2.645 -0.1323  1.4662  3.1193
   74MOL0     H 9970   7.919   0.949   2.322 -0.8274 -0.8023  0.5282
   74MOL0     H 9971   8.179   0.963   2.368  0.0076  0.5689 -0.2242
   74MOL0     H 9972   8.628   0.774   2.127  2.5037  0.6257 -1.3458
   74MOL0     H 9973   8.837   0.667   2.221 -0.5189 -1.5532 -1.1718
   74MOL0     H 9974   8.265   1.356   2.322  0.7849  3.8068 -1.7328
   74MOL0     H 9975   8.006   1.331   2.342 -1.3103 -0.1863 -0.0764
   74MOL0     H 9976   7.685   1.027   2.042 -0.2270  0.3093 -0.1841
   74MOL0     H 9977   7.462   0.976   1.969 -1.1175  1.3315 -0.3581
   74MOL0     H 9978   7.157   1.217   2.120  4.7474 -0.4143 -1.0180
   74MOL0     H 9979   7.101   1.073   2.220  0.0706 -0.3558  0.6008
   74MOL0     H 9980   6.935   1.135   2.025 -1.7303 -2.0069 -3.6054
   74MOL0     H 9981   6.971   0.976   2.086 -0.6917  1.2640  3.3962
   74MOL0     H 9982   7.137   0.942   1.896 -2.3834 -2.2462  0.9652
   74MOL0     H 9983   7.106   1.103   1.842  0.6000 -1.1435 -0.0991
   74MOL0     H 9984   6.895   1.077   1.786 -1.4615 -0.7876 -0.0764
   74MOL0     H 9985   6.983   0.955   1.697 -0.7395  2.1165 -1.7873
   74MOL0     H 9986   6.728   0.704   1.951  1.4310 -0.3946  1.0812
   74MOL0     H 9987   7.300   1.170   2.310 -4.2911 -0.6228 -3.1897
   74MOL0     H 9988   7.420   1.335   2.426 -1.1137 -1.0560 -0.6399
   74MOL0     H 9989   7.580   1.267   2.476  0.4477  1.3560 -0.6237
   74MOL0     H 9990   7.560   1.401   2.352  0.0627  1.0542  0.5860
   75MOL0     O 9991   3.575   6.517  10.580  0.6398 -1.0027 -0.2296
   75MOL0     C 9992   3.556   6.634  10.545 -0.4492 -0.5411 -0.3049
   75MOL0     O 9993   3.444   6.688  10.500  0.6254  0.0536  0.3661
   75MOL0     C 9994   3.329   6.608  10.498  0.7142 -0.4582 -0.0316
   75MOL0     C 9995   3.264   6.572  10.618 -0.5856  0.4632  0.1376
   75MOL0     C 9996   3.136   6.517  10.612 -0.0893 -0.1587  0.2272
   75MOL0     C 9997   3.084   6.468  10.491  0.2511  0.1229 -0.0170
   75MOL0     O 9998   2.960   6.402  10.513 -0.1653 -0.0040 -1.2996
   75MOL0     C 9999   2.888   6.358  10.397 -0.2389  0.9786 -0.1658
   75MOL0     C10000   2.762   6.288  10.433  0.0149  0.3682  0.1996
   75MOL0     C10001   2.773   6.144  10.464  0.2930  0.5614 -0.7420
   75MOL0     C10002   2.659   6.084  10.535  0.3443  0.2099  0.0902
   75MOL0     C10003   2.663   5.929  10.538 -0.2858 -0.3226 -0.5148
   75MOL0     C10004   2.546   5.855  10.603  0.3244 -0.5278 -0.1610
   75MOL0     C10005   2.581   5.716  10.648  0.1147 -0.4260 -0.0655
   75MOL0     C10006   2.483   5.672  10.760  0.9330 -0.0402  0.0401
   75MOL0     N10007   2.506   5.714  10.898 -0.1262 -0.1120  0.4991
   75MOL0     C10008   2.429   5.793  10.972  0.0794 -0.2856  0.3687
   75MOL0     C10009   2.489   5.792  11.097  0.2415  0.0150  0.1041
   75MOL0     C10010   2.437   5.862  11.215 -0.5085 -0.7730 -0.4416
   75MOL0     C10011   2.468   6.011  11.206 -0.9140 -0.3593  0.5346
   75MOL0     C10012   2.375   6.086  11.291  0.4559  0.2418 -0.4130
   75MOL0     C10013   2.416   6.228  11.283 -0.4544 -0.5484 -0.1144
   75MOL0     O10014   2.544   6.263  11.324 -0.5005  1.3495  0.2030
   75MOL0     C10015   2.578   6.271  11.457  0.1974 -1.1107 -0.4533
   75MOL0     C10016   2.495   6.352  11.534 -1.1438 -0.8444  0.4712
   75MOL0     C10017   2.524   6.352  11.670 -0.7565 -0.0502  0.2375
   75MOL0     C10018   2.624   6.274  11.744  0.0375  0.6229  0.4571
   75MOL0     C10019   2.632   6.273  11.887  0.4727  0.3061  0.2071
   75MOL0     O10020   2.714   6.184  11.953  0.5481  0.1503  0.1285
   75MOL0     C10021   2.705   6.188  12.090 -0.3265  0.3878 -0.4908
   75MOL0     C10022   2.821   6.214  12.164  0.0122  0.6927  0.1347
   75MOL0     C10023   2.822   6.201  12.304  0.7757 -0.9587 -1.4268
   75MOL0     C10024   2.706   6.139  12.369 -1.1681  0.2510 -0.0166
   75MOL0     O10025   2.726   6.109  12.503  0.1828  0.2920 -0.6354
   75MOL0     C10026   2.630   6.169  12.597 -0.8098 -0.3428 -0.4256
   75MOL0     C10027   2.611   6.090  12.724  0.2324  0.3905 -0.0161
   75MOL0     C10028   2.737   6.027  12.785  0.3442  0.8742  0.4386
   75MOL0     C10029   2.703   5.925  12.896  0.4495 -0.1762 -0.4115
   75MOL0     C10030   2.828   5.879  12.970  1.0293 -0.0745 -0.2082
   75MOL0     C10031   2.793   5.761  13.073  0.4715  0.9016 -0.4869
   75MOL0     C10032   2.790   5.623  12.997 -0.2426  0.4522 -1.1289
   75MOL0     C10033   2.686   5.602  12.883 -0.3655 -0.4419 -0.5763
   75MOL0    Cl10034   2.669   5.427  12.824 -0.3418 -0.3551 -0.1576
   75MOL0     C10035   2.597   6.091  12.291 -0.8395 -0.1279 -0.2735
   75MOL0     C10036   2.606   6.114  12.152 -0.1937  0.5929 -0.6196
   75MOL0     O10037   2.540   6.333  11.940 -0.8533 -0.2726 -0.2522
   75MOL0     C10038   2.699   6.195  11.654 -0.4510  0.3295  0.6325
   75MOL0     C10039   2.685   6.197  11.514  0.2743 -0.1731 -0.8619
   75MOL0     N10040   2.609   5.719  11.092 -0.5675  0.1787 -0.3613
   75MOL0     N10041   2.610   5.674  10.979  0.7391 -0.1719  0.2895
   75MOL0     C10042   3.149   6.506  10.373  0.7518  0.7734 -0.2229
   75MOL0     C10043   3.266   6.571  10.377  0.7474 -0.3268  1.5259
   75MOL0     C10044   3.680   6.724  10.521 -0.3680 -0.6148 -0.1686
   75MOL0     C10045   3.803   6.684  10.574 -0.6739  0.1291  0.2206
   75MOL0     C10046   3.917   6.763  10.572 -0.6397  0.3209  0.1930
   75MOL0     C10047   3.908   6.878  10.495 -0.8293  0.4841 -0.1310
   75MOL0     O10048   4.023   6.957  10.472 -0.4723 -0.2787 -0.5458
   75MOL0     C10049   4.097   6.999  10.591  0.5797 -0.2508  0.0228
   75MOL0     C10050   4.154   7.136  10.569 -0.0274  1.1173  0.0403
   75MOL0     C10051   4.195   7.207  10.704  1.0902  0.7904 -0.3171
   75MOL0     C10052   4.343   7.224  10.734  1.2320  0.5330  0.6197
   75MOL0     C10053   4.386   7.087  10.775  0.4126 -0.3022 -0.6507
   75MOL0     C10054   4.420   6.973  10.795 -0.6557  0.8047 -0.0210
   75MOL0     C10055   3.793   6.923  10.444  0.9724 -0.1756  0.8124
   75MOL0     C10056   3.678   6.850  10.451  0.2767  0.3737 -0.7561
   75MOL0     C10057   3.550   6.909  10.386 -0.1075 -0.1233  0.1454
   75MOL0     H10058   3.306   6.601  10.713  0.7585 -1.3539  0.1631
   75MOL0     H10059   3.079   6.496  10.702  1.0684 -3.3205  0.3257
   75MOL0     H10060   2.855   6.444  10.336 -0.9093  0.8357 -0.0073
   75MOL0     H10061   2.945   6.286  10.337 -1.9014 -1.2541  0.8150
   75MOL0     H10062   2.690   6.300  10.351 -0.1157 -1.7800 -0.0478
   75MOL0     H10063   2.722   6.343  10.519  1.0756  0.2362  0.7951
   75MOL0     H10064   2.861   6.146  10.528  1.5755  2.2322 -2.4418
   75MOL0     H10065   2.796   6.079  10.379 -1.2561 -0.8834 -0.1165
   75MOL0     H10066   2.651   6.116  10.639 -1.2735  0.3664 -0.0432
   75MOL0     H10067   2.568   6.108  10.478  0.3227  2.1994  0.8919
   75MOL0     H10068   2.663   5.900  10.432 -1.6605  0.0769 -0.6375
   75MOL0     H10069   2.759   5.895  10.578  0.0267  3.1386  2.1057
   75MOL0     H10070   2.501   5.917  10.681 -1.6181 -1.1129 -0.7667
   75MOL0     H10071   2.467   5.849  10.527 -0.5302 -1.8036  0.7963
   75MOL0     H10072   2.688   5.714  10.671  0.4576  0.5375 -1.4520
   75MOL0     H10073   2.572   5.647  10.564  0.4509  0.6510 -1.0115
   75MOL0     H10074   2.384   5.714  10.738  1.3807  1.5810  0.9761
   75MOL0     H10075   2.487   5.562  10.755  4.3905 -0.0276  0.2657
   75MOL0     H10076   2.339   5.848  10.945  1.0484  1.9081  1.3752
   75MOL0     H10077   2.328   5.853  11.212 -0.9956  3.1933 -0.1224
   75MOL0     H10078   2.485   5.823  11.305 -2.1200  1.7086  1.6442
   75MOL0     H10079   2.572   6.019  11.238 -0.3396  2.2235 -1.6872
   75MOL0     H10080   2.470   6.053  11.106 -1.5305  1.9827  1.4398
   75MOL0     H10081   2.397   6.047  11.391  3.1203 -0.0930 -1.0624
   75MOL0     H10082   2.269   6.076  11.266 -0.4085  1.6032  2.2769
   75MOL0     H10083   2.339   6.290  11.330 -0.3544  0.3300 -1.0819
   75MOL0     H10084   2.404   6.258  11.179 -1.3811 -5.0696 -1.5621
   75MOL0     H10085   2.425   6.417  11.483 -0.2533  0.2321  0.5920
   75MOL0     H10086   2.459   6.412  11.732  0.8556  1.2920  0.6937
   75MOL0     H10087   2.899   6.271  12.115  0.0049  0.2135 -0.4546
   75MOL0     H10088   2.909   6.226  12.364 -0.5818  3.3561 -0.9355
   75MOL0     H10089   2.687   6.250  12.642 -0.1796 -0.9051 -0.1890
   75MOL0     H10090   2.540   6.218  12.557 -1.6545 -1.3302  0.1924
   75MOL0     H10091   2.564   6.147  12.804 -1.8932 -2.7254  1.1543
   75MOL0     H10092   2.546   6.005  12.698  2.2092 -0.8154 -1.2983
   75MOL0     H10093   2.805   5.985  12.710  2.2964  3.9973  0.2950
   75MOL0     H10094   2.799   6.100  12.838  3.7549 -2.1174  1.0410
   75MOL0     H10095   2.653   5.838  12.851  1.6543 -2.1700  1.8276
   75MOL0     H10096   2.632   5.975  12.963  1.2954  3.3936 -1.9871
   75MOL0     H10097   2.868   5.961  13.030 -0.2054  0.6907 -0.3919
   75MOL0     H10098   2.892   5.849  12.886 -0.9821  0.6978 -2.1296
   75MOL0     H10099   2.865   5.758  13.155 -0.9334 -1.2158  0.7680
   75MOL0     H10100   2.699   5.791  13.120  1.1374  0.2179  1.3530
   75MOL0     H10101   2.779   5.539  13.065  2.5312 -1.2753 -2.6194
   75MOL0     H10102   2.890   5.610  12.955 -0.5270 -0.1641 -1.6298
   75MOL0     H10103   2.597   5.646  12.929  1.0410  2.5188 -0.4428
   75MOL0     H10104   2.721   5.655  12.794  0.9408  0.3765  0.3799
   75MOL0     H10105   2.515   6.034  12.333 -0.1542 -1.0137 -0.1105
   75MOL0     H10106   2.523   6.074  12.094 -3.9720  3.0071  2.5305
   75MOL0     H10107   2.774   6.129  11.697 -0.0449  0.0265 -0.4755
   75MOL0     H10108   2.735   6.124  11.452 -0.6944  1.8079 -4.2513
   75MOL0     H10109   3.121   6.455  10.281  0.0587  2.0734 -0.7599
   75MOL0     H10110   3.318   6.596  10.285 -1.4755  0.7520  0.4919
   75MOL0     H10111   3.806   6.589  10.627  1.6289  0.9992  1.8194
   75MOL0     H10112   4.002   6.731  10.632 -0.7889  0.8379  0.6841
   75MOL0     H10113   4.178   6.933  10.623 -0.0443 -1.1005 -0.1289
   75MOL0     H10114   4.026   7.008  10.674 -1.6787 -1.8603 -1.6061
   75MOL0     H10115   4.077   7.194  10.517 -0.2163  0.7522 -0.0846
   75MOL0     H10116   4.237   7.132  10.498  1.5195  0.3378  1.7977
   75MOL0     H10117   4.154   7.141  10.781  1.2264  0.4381 -0.5496
   75MOL0     H10118   4.134   7.296  10.725 -1.1206 -1.3506  3.4028
   75MOL0     H10119   4.381   7.247  10.634 -5.2275  1.1683 -2.1704
   75MOL0     H10120   4.361   7.300  10.810  1.1944  1.4923 -0.3189
   75MOL0     H10121   4.441   6.869  10.794 -2.1467  0.4808 -1.2572
   75MOL0     H10122   3.803   7.018  10.393  0.6431  0.7574  2.4117
   75MOL0     H10123   3.493   6.960  10.464  0.3749  1.9658 -0.8008
   75MOL0     H10124   3.558   6.985  10.308 -1.3465  2.8197  2.6944
   75MOL0     H10125   3.478   6.845  10.334  0.2012  0.5183 -1.1263
   76MOL0     O10126   3.542   9.380   2.620  0.6033 -0.0041  0.4357
   76MOL0     C10127   3.554   9.376   2.500 -0.2997 -0.4234  0.0397
   76MOL0     O10128   3.659   9.427   2.427  0.2495 -0.1606  0.9357
   76MOL0     C10129   3.759   9.493   2.491 -0.3402  0.2604 -1.1526
   76MOL0     C10130   3.766   9.630   2.498 -0.8269  0.0197 -0.3082
   76MOL0     C10131   3.882   9.686   2.549 -0.0848  0.8452  0.7360
   76MOL0     C10132   3.994   9.614   2.594  0.5482 -0.2177  0.4382
   76MOL0     O10133   4.103   9.687   2.634 -0.3954 -0.1764  0.4829
   76MOL0     C10134   4.235   9.628   2.633 -0.1774  0.7378 -0.3298
   76MOL0     C10135   4.336   9.734   2.613 -0.4986  0.9129 -0.0695
   76MOL0     C10136   4.320   9.811   2.473  0.1221  0.1833 -0.0387
   76MOL0     C10137   4.339   9.728   2.346 -0.3963 -0.8128 -0.2109
   76MOL0     C10138   4.496   9.705   2.332  0.5967 -0.0345 -0.0243
   76MOL0     C10139   4.552   9.822   2.240 -0.0591 -0.3324 -0.6469
   76MOL0     C10140   4.687   9.783   2.180 -0.2528 -0.5271 -0.0556
   76MOL0     C10141   4.795   9.797   2.280 -0.5683  0.2404  0.2355
   76MOL0     N10142   4.923   9.822   2.204 -0.1738 -0.1815 -0.0573
   76MOL0     C10143   4.983   9.732   2.119  0.5631 -0.2344 -0.3128
   76MOL0     C10144   5.070   9.804   2.037 -0.6851  0.2867 -0.1372
   76MOL0     C10145   5.157   9.765   1.920  0.0463 -0.8223 -0.6041
   76MOL0     C10146   5.153   9.620   1.879  0.2218 -0.2187  0.9909
   76MOL0     C10147   5.258   9.533   1.937 -0.5681  0.2569 -0.1471
   76MOL0     C10148   5.392   9.515   1.865  0.0103 -0.4765  0.2420
   76MOL0     O10149   5.458   9.644   1.857 -0.0807 -0.6536  0.3021
   76MOL0     C10150   5.570   9.663   1.935 -0.7471 -0.3267 -0.4644
   76MOL0     C10151   5.552   9.677   2.078  0.4554 -0.4363  0.7164
   76MOL0     C10152   5.656   9.718   2.162  0.1118 -0.3223  0.0052
   76MOL0     C10153   5.780   9.741   2.103  1.0341  0.5998  0.1668
   76MOL0     C10154   5.895   9.778   2.187  0.2197  0.9731  0.8553
   76MOL0     O10155   6.014   9.815   2.123  0.1892  0.7793  0.0842
   76MOL0     C10156   6.119   9.887   2.183 -0.6798 -0.1701  0.0895
   76MOL0     C10157   6.161   9.851   2.310 -0.0456  0.2860  0.0333
   76MOL0     C10158   6.258   9.930   2.380 -0.3737  0.7700 -0.3118
   76MOL0     C10159   6.331  10.028   2.307  0.3264 -0.6253 -0.7862
   76MOL0     O10160   6.422  10.110   2.371 -0.0667  0.3674  0.3396
   76MOL0     C10161   6.477  10.225   2.298 -0.3557 -0.8855 -0.5158
   76MOL0     C10162   6.566  10.316   2.389  0.2956 -0.2135 -0.1289
   76MOL0     C10163   6.633  10.431   2.304  0.3673  0.0524 -1.1628
   76MOL0     C10164   6.759  10.388   2.242 -0.6645  0.1747  0.0522
   76MOL0     C10165   6.815  10.474   2.128 -0.3712  0.5474  0.1025
   76MOL0     C10166   6.711  10.499   2.019  0.1734 -0.1894  0.0349
   76MOL0     C10167   6.647  10.371   1.946  0.7980 -0.0174 -0.1744
   76MOL0     C10168   6.557  10.409   1.831 -0.5167 -0.1564 -0.1023
   76MOL0    Cl10169   6.424  10.510   1.897 -0.2315  0.3723 -0.3691
   76MOL0     C10170   6.295  10.045   2.173  0.3198 -0.2640 -0.1961
   76MOL0     C10171   6.191   9.977   2.114  0.6349  0.5418 -0.4130
   76MOL0     O10172   5.876   9.791   2.305 -0.6303  0.0078 -0.0589
   76MOL0     C10173   5.802   9.736   1.959 -0.6102 -0.0458 -0.5266
   76MOL0     C10174   5.696   9.695   1.882  0.1732 -0.3018 -0.1718
   76MOL0     N10175   5.038   9.938   2.056  0.3587 -0.0231 -0.2375
   76MOL0     N10176   4.958   9.947   2.158  0.8586  0.6269 -0.2464
   76MOL0     C10177   3.988   9.478   2.586 -0.4053  0.2297 -0.2854
   76MOL0     C10178   3.876   9.416   2.538  0.7917  0.2692  0.3306
   76MOL0     C10179   3.443   9.309   2.421 -0.5151 -0.7783  0.6368
   76MOL0     C10180   3.480   9.245   2.298 -0.8368 -0.6424  0.0295
   76MOL0     C10181   3.393   9.191   2.213 -0.3187  0.1846  0.6257
   76MOL0     C10182   3.260   9.179   2.247 -0.4235  0.0055 -0.4735
   76MOL0     O10183   3.169   9.108   2.179 -0.8564  0.2493 -0.3676
   76MOL0     C10184   3.207   9.027   2.064 -0.8792 -0.0724 -0.6753
   76MOL0     C10185   3.233   9.113   1.941  0.4236  0.6072 -0.5972
   76MOL0     C10186   3.162   9.065   1.812  0.3187  0.5948 -0.3291
   76MOL0     C10187   3.023   9.131   1.804 -0.1617  0.6109  0.1606
   76MOL0     C10188   2.929   9.055   1.720 -0.1781 -0.6020 -0.4204
   76MOL0     C10189   2.848   8.989   1.665 -0.8575 -1.0835 -0.4898
   76MOL0     C10190   3.218   9.234   2.369  0.1063 -0.7078  0.6099
   76MOL0     C10191   3.305   9.303   2.457  1.5943  0.1656 -0.5652
   76MOL0     C10192   3.237   9.371   2.573  0.5979  0.0864 -0.1225
   76MOL0     H10193   3.674   9.679   2.467 -0.9257 -1.7838 -3.2678
   76MOL0     H10194   3.886   9.795   2.555 -0.4323  0.9211 -0.2724
   76MOL0     H10195   4.243   9.576   2.729  3.7221 -2.2964 -2.0192
   76MOL0     H10196   4.236   9.547   2.559 -2.3705 -0.8231  1.1952
   76MOL0     H10197   4.435   9.685   2.613 -0.9190 -0.1484 -3.0854
   76MOL0     H10198   4.327   9.799   2.700  0.9357  0.6396  0.3157
   76MOL0     H10199   4.390   9.894   2.467  0.9022 -0.5803 -3.4354
   76MOL0     H10200   4.220   9.853   2.464  0.2408  0.0136 -3.2291
   76MOL0     H10201   4.284   9.633   2.347  0.6359 -1.4388 -0.5883
   76MOL0     H10202   4.299   9.781   2.259 -3.1706 -1.6752  0.4503
   76MOL0     H10203   4.556   9.699   2.423  2.4154 -0.6865 -1.2075
   76MOL0     H10204   4.509   9.619   2.266  2.4452  0.4272 -0.3227
   76MOL0     H10205   4.478   9.832   2.160 -0.2874 -0.2770 -0.4329
   76MOL0     H10206   4.554   9.915   2.298  2.8711 -1.2681  0.9704
   76MOL0     H10207   4.708   9.853   2.098  3.5107  1.1213  2.0757
   76MOL0     H10208   4.677   9.679   2.148 -2.7011 -1.0382  2.0783
   76MOL0     H10209   4.778   9.871   2.359  0.2492 -0.6984  1.3401
   76MOL0     H10210   4.799   9.698   2.325  1.0654 -0.2134 -0.8155
   76MOL0     H10211   4.978   9.626   2.138 -2.3929 -0.3049 -0.9823
   76MOL0     H10212   5.119   9.822   1.834  1.3994 -0.5151 -1.0174
   76MOL0     H10213   5.261   9.790   1.939  0.8995 -2.3194 -2.8861
   76MOL0     H10214   5.056   9.578   1.908  0.1278  0.3702  1.5578
   76MOL0     H10215   5.144   9.612   1.771 -1.6944 -1.2637  1.1826
   76MOL0     H10216   5.220   9.433   1.959 -0.2751  0.1509 -0.1145
   76MOL0     H10217   5.279   9.579   2.034 -0.9639 -1.3239  0.7216
   76MOL0     H10218   5.371   9.470   1.768 -0.3231 -0.6208  0.3787
   76MOL0     H10219   5.455   9.448   1.924  0.4910  0.4809  0.8423
   76MOL0     H10220   5.454   9.668   2.125  0.5268 -1.1533  0.7402
   76MOL0     H10221   5.637   9.726   2.268 -2.0116  1.1800 -0.4371
   76MOL0     H10222   6.119   9.769   2.366 -0.8690  0.4076 -0.4009
   76MOL0     H10223   6.267   9.912   2.487 -1.0509 -1.7172 -0.6062
   76MOL0     H10224   6.534  10.188   2.212 -0.3146  0.3570 -1.0497
   76MOL0     H10225   6.398  10.277   2.242  0.4627 -0.2011 -1.0697
   76MOL0     H10226   6.496  10.354   2.464 -1.9139 -2.5298 -0.8365
   76MOL0     H10227   6.642  10.266   2.450 -0.1208  0.8913  1.3333
   76MOL0     H10228   6.559  10.468   2.232 -0.8555  0.6942  0.3729
   76MOL0     H10229   6.655  10.517   2.369  2.2950 -1.5921  0.4859
   76MOL0     H10230   6.739  10.287   2.203 -3.2171  1.1322 -1.3672
   76MOL0     H10231   6.837  10.375   2.317  0.4476  1.3624 -0.8726
   76MOL0     H10232   6.900  10.426   2.079 -1.3669 -1.5086  0.3199
   76MOL0     H10233   6.852  10.573   2.158 -3.6316  2.3043 -1.2417
   76MOL0     H10234   6.635  10.563   2.064  0.8672  2.5967 -2.4105
   76MOL0     H10235   6.759  10.547   1.933 -0.4960 -1.5256 -1.1411
   76MOL0     H10236   6.588  10.301   2.006  3.0649 -3.2490 -1.4216
   76MOL0     H10237   6.725  10.300   1.919  1.5207  0.7216 -0.0686
   76MOL0     H10238   6.603  10.466   1.749 -1.2971  1.3190  0.4570
   76MOL0     H10239   6.529  10.320   1.774 -1.0028 -0.0754  0.0085
   76MOL0     H10240   6.350  10.109   2.105  1.5416 -0.2437  0.7853
   76MOL0     H10241   6.170   9.983   2.007  0.2211  2.6718 -0.2546
   76MOL0     H10242   5.896   9.762   1.912 -0.2354 -1.4460 -0.5855
   76MOL0     H10243   5.711   9.691   1.774  2.4972 -1.7553  0.1415
   76MOL0     H10244   4.068   9.413   2.619  1.1628  1.4788 -1.4745
   76MOL0     H10245   3.881   9.308   2.522 -3.3125 -0.3016  1.7346
   76MOL0     H10246   3.587   9.242   2.281 -0.5172 -1.5695  1.8882
   76MOL0     H10247   3.433   9.134   2.129 -1.7805 -1.4073  0.9611
   76MOL0     H10248   3.115   8.971   2.046 -1.2977  0.6018 -0.6328
   76MOL0     H10249   3.298   8.969   2.083 -0.3777  1.2666  1.2848
   76MOL0     H10250   3.339   9.128   1.917 -0.0105  1.0729 -2.4233
   76MOL0     H10251   3.197   9.211   1.975  2.8352  0.7810  1.7036
   76MOL0     H10252   3.148   8.957   1.825  0.9850  0.7782  2.5410
   76MOL0     H10253   3.235   9.067   1.730  1.8073  1.5557  0.9728
   76MOL0     H10254   2.973   9.139   1.901 -0.2850  0.6229  0.0972
   76MOL0     H10255   3.043   9.232   1.766  0.9641  1.4048  2.6300
   76MOL0     H10256   2.776   8.936   1.606 -1.4873 -1.1921  0.3640
   76MOL0     H10257   3.111   9.223   2.385 -0.2416  3.2243  2.1409
   76MOL0     H10258   3.157   9.432   2.533 -2.3391 -2.3405  1.5916
   76MOL0     H10259   3.189   9.291   2.630 -2.3709  2.1220  0.4443
   76MOL0     H10260   3.317   9.421   2.629  0.5589  1.7041 -1.4402
   77MOL0     O10261   6.723   9.033   2.796  0.3336  0.5211  0.5002
   77MOL0     C10262   6.645   9.007   2.703 -0.0218 -0.2563  0.5911
   77MOL0     O10263   6.533   9.076   2.677 -0.2570  0.2228  0.0576
   77MOL0     C10264   6.480   9.170   2.770  0.1732  0.1895  0.2867
   77MOL0     C10265   6.343   9.156   2.800  0.4748 -0.0238 -0.9227
   77MOL0     C10266   6.290   9.246   2.885  0.0122  0.3553 -0.9800
   77MOL0     C10267   6.352   9.366   2.920 -1.1436 -0.2335 -0.0352
   77MOL0     O10268   6.289   9.469   2.979  0.6029  0.8178  0.3645
   77MOL0     C10269   6.154   9.507   2.953 -0.0127 -0.0810  0.0973
   77MOL0     C10270   6.132   9.522   2.798  0.0129 -0.1678  0.3897
   77MOL0     C10271   6.155   9.667   2.755  0.6023  0.4273 -0.1823
   77MOL0     C10272   6.291   9.727   2.785 -0.5952 -0.1549  0.3844
   77MOL0     C10273   6.389   9.692   2.669 -0.8612 -0.0203 -0.4508
   77MOL0     C10274   6.515   9.772   2.697  0.2460 -0.8819 -0.5506
   77MOL0     C10275   6.642   9.706   2.651  0.4653 -0.6437 -0.4696
   77MOL0     C10276   6.761   9.787   2.690 -0.5212  0.6934 -0.4054
   77MOL0     N10277   6.838   9.833   2.576  0.3133 -0.3697 -0.9542
   77MOL0     C10278   6.782   9.922   2.489 -0.4022  1.3846  0.4949
   77MOL0     C10279   6.871   9.929   2.385  0.3339  1.0707  0.4283
   77MOL0     C10280   6.854   9.993   2.257  0.0558  0.1979  1.0435
   77MOL0     C10281   6.852   9.892   2.130 -0.8874 -0.6174 -0.3352
   77MOL0     C10282   6.704   9.889   2.066 -0.6157  0.0246  0.4584
   77MOL0     C10283   6.708   9.803   1.932  0.2712 -0.1232 -0.5499
   77MOL0     O10284   6.599   9.843   1.852  0.9207 -0.1576 -0.1308
   77MOL0     C10285   6.614   9.914   1.746  0.8874 -0.2419  0.0889
   77MOL0     C10286   6.718   9.931   1.665 -0.1605  0.0032 -0.2095
   77MOL0     C10287   6.725  10.020   1.559  0.4387 -0.2493  0.6459
   77MOL0     C10288   6.607  10.101   1.525 -0.1219  0.0435 -0.0075
   77MOL0     C10289   6.602  10.183   1.402 -0.2252  0.2843  0.5811
   77MOL0     O10290   6.495  10.266   1.398  0.6654 -0.2517  0.4418
   77MOL0     C10291   6.494  10.367   1.314  0.1552 -0.4073 -1.0029
   77MOL0     C10292   6.530  10.493   1.373 -0.2380  0.1037 -0.3978
   77MOL0     C10293   6.509  10.617   1.307 -0.4716  0.6893  0.2471
   77MOL0     C10294   6.435  10.611   1.193 -0.5670 -1.2996  1.4404
   77MOL0     O10295   6.407  10.737   1.143  0.6980  0.2155  0.0024
   77MOL0     C10296   6.301  10.751   1.044  1.0757 -0.5254 -0.3763
   77MOL0     C10297   6.264  10.893   1.016 -0.4817 -0.0068  0.0230
   77MOL0     C10298   6.190  10.905   0.884  0.4169  0.0197  0.0007
   77MOL0     C10299   6.163  11.052   0.852 -0.8113 -0.2141  0.4529
   77MOL0     C10300   6.092  11.053   0.713 -0.0857 -0.0547 -0.0430
   77MOL0     C10301   6.107  11.190   0.646  0.1139 -0.3982  0.5473
   77MOL0     C10302   6.006  11.286   0.697 -0.3660 -0.6549  0.2190
   77MOL0     C10303   5.873  11.297   0.613  0.1130 -0.1503  0.0967
   77MOL0    Cl10304   5.779  11.444   0.665 -0.4405  0.5938  0.2713
   77MOL0     C10305   6.395  10.487   1.137 -0.8771 -0.1501  0.1868
   77MOL0     C10306   6.422  10.366   1.199 -0.8114 -0.3267  0.7663
   77MOL0     O10307   6.685  10.163   1.311  0.0283  0.1503  0.2975
   77MOL0     C10308   6.494  10.084   1.606 -0.2412 -0.5868 -0.6728
   77MOL0     C10309   6.497   9.985   1.712 -0.5079 -0.5249 -0.2978
   77MOL0     N10310   6.991   9.871   2.436  0.3681 -0.2475 -0.1925
   77MOL0     N10311   6.967   9.825   2.559  0.0356 -0.9788  0.2610
   77MOL0     C10312   6.488   9.379   2.891  1.1674 -0.9615  0.2000
   77MOL0     C10313   6.553   9.281   2.818 -0.1402  0.0287 -0.3616
   77MOL0     C10314   6.674   8.893   2.618 -0.5364  0.4148 -0.2092
   77MOL0     C10315   6.566   8.822   2.565 -0.0997  0.1743 -0.9402
   77MOL0     C10316   6.571   8.703   2.490 -0.4159  0.7599  0.0678
   77MOL0     C10317   6.697   8.654   2.443 -0.2685 -0.1613 -0.2947
   77MOL0     O10318   6.717   8.541   2.370  1.3517  0.1810  0.3990
   77MOL0     C10319   6.619   8.439   2.344  0.3836  0.6187 -0.7224
   77MOL0     C10320   6.568   8.359   2.462 -0.3082 -1.2696  0.1662
   77MOL0     C10321   6.671   8.262   2.530  0.3356 -0.5616 -0.3341
   77MOL0     C10322   6.698   8.162   2.435 -0.4928  0.2425  0.1921
   77MOL0     C10323   6.763   8.052   2.510 -0.5974 -0.6274 -0.0886
   77MOL0     C10324   6.801   7.948   2.568 -0.6641  0.5222  0.3779
   77MOL0     C10325   6.805   8.735   2.479  0.3371  0.5782 -0.5773
   77MOL0     C10326   6.800   8.842   2.566  0.4161  0.3602 -0.4320
   77MOL0     C10327   6.920   8.911   2.607 -0.4550  0.4449  0.2717
   77MOL0     H10328   6.288   9.067   2.770 -0.6300 -0.3824  1.8279
   77MOL0     H10329   6.188   9.236   2.923  0.5572 -0.2170  0.3841
   77MOL0     H10330   6.093   9.425   2.992 -0.2951 -0.3522 -0.8861
   77MOL0     H10331   6.139   9.602   3.005  0.6616 -0.1418  0.4195
   77MOL0     H10332   6.029   9.494   2.773  0.5979 -2.4746  0.3811
   77MOL0     H10333   6.198   9.456   2.742 -2.0731 -1.5462 -0.5840
   77MOL0     H10334   6.078   9.730   2.798  2.4078  2.5441  0.1451
   77MOL0     H10335   6.143   9.669   2.646  3.2321 -1.3784 -0.6126
   77MOL0     H10336   6.275   9.834   2.797  0.1380 -0.0347  0.2882
   77MOL0     H10337   6.327   9.695   2.884 -0.0650  1.2679  0.6728
   77MOL0     H10338   6.399   9.583   2.672 -2.6696 -0.2145 -0.3217
   77MOL0     H10339   6.343   9.722   2.574 -1.6187 -3.4719 -1.3093
   77MOL0     H10340   6.499   9.869   2.649 -1.7968  0.4467  2.4647
   77MOL0     H10341   6.518   9.805   2.801  0.0327  2.9076 -1.6118
   77MOL0     H10342   6.641   9.695   2.542 -4.3448  1.3257 -0.9125
   77MOL0     H10343   6.667   9.604   2.679  1.0509 -1.3395 -3.2354
   77MOL0     H10344   6.730   9.874   2.749  1.6774  1.1901  0.0982
   77MOL0     H10345   6.831   9.748   2.763 -1.0937  2.6687  1.3187
   77MOL0     H10346   6.686   9.973   2.490 -0.3375  1.7935 -2.7242
   77MOL0     H10347   6.756  10.042   2.254 -1.5050 -2.7297 -0.5201
   77MOL0     H10348   6.929  10.068   2.233 -1.6569  0.9384 -2.5573
   77MOL0     H10349   6.913   9.930   2.048  1.2676 -0.4905  1.2349
   77MOL0     H10350   6.891   9.793   2.154 -1.6045 -0.5825  1.1325
   77MOL0     H10351   6.667   9.991   2.054  3.8189  1.9900  1.5876
   77MOL0     H10352   6.633   9.841   2.133 -4.2448  1.2168 -2.1900
   77MOL0     H10353   6.695   9.697   1.953 -2.0202  0.1699 -0.2457
   77MOL0     H10354   6.806   9.819   1.886  0.3067 -0.6951 -0.6747
   77MOL0     H10355   6.806   9.872   1.686  0.8968  2.1075  1.6220
   77MOL0     H10356   6.819  10.049   1.512 -0.6392  3.5808  0.5140
   77MOL0     H10357   6.576  10.511   1.470 -0.5229  2.6239 -0.6667
   77MOL0     H10358   6.546  10.708   1.353  0.7891  0.8308 -0.9629
   77MOL0     H10359   6.342  10.714   0.949 -0.3425  2.2291 -2.2046
   77MOL0     H10360   6.213  10.691   1.068 -0.4996  2.9961  3.9067
   77MOL0     H10361   6.212  10.935   1.102  2.1243  1.5611  0.9177
   77MOL0     H10362   6.353  10.955   0.999  0.5376 -2.0299 -2.8514
   77MOL0     H10363   6.254  10.868   0.804  0.2180 -0.6918  0.1663
   77MOL0     H10364   6.092  10.857   0.893 -0.9518  2.9909  4.4872
   77MOL0     H10365   6.255  11.111   0.844 -0.6232 -0.4999  0.4804
   77MOL0     H10366   6.092  11.085   0.927 -0.4575 -0.3845  0.8702
   77MOL0     H10367   5.988  11.025   0.732 -0.4375  1.1783 -0.0603
   77MOL0     H10368   6.137  10.975   0.652  1.5522 -0.5320  1.6964
   77MOL0     H10369   6.207  11.232   0.659 -0.2900  0.3945  1.2863
   77MOL0     H10370   6.100  11.186   0.537  0.9085 -1.1423  0.5140
   77MOL0     H10371   6.050  11.386   0.692 -1.5015 -0.2002 -3.0435
   77MOL0     H10372   5.973  11.268   0.800  1.2636 -2.2503  0.5260
   77MOL0     H10373   5.896  11.299   0.507  4.3799  1.8564  0.8624
   77MOL0     H10374   5.827  11.199   0.632  1.1442 -0.1016  3.6565
   77MOL0     H10375   6.332  10.480   1.048 -2.3588 -2.0752  1.3053
   77MOL0     H10376   6.375  10.273   1.169 -0.0892 -0.0338 -1.4374
   77MOL0     H10377   6.399  10.133   1.586 -1.2081 -1.7636  0.8055
   77MOL0     H10378   6.402   9.970   1.763 -1.1833 -0.4737 -1.5100
   77MOL0     H10379   6.537   9.468   2.929  2.5562 -2.3185  1.7386
   77MOL0     H10380   6.660   9.289   2.802 -0.0986 -0.7390 -0.5084
   77MOL0     H10381   6.466   8.858   2.590  0.5697  1.3033  0.2507
   77MOL0     H10382   6.480   8.647   2.474 -1.7613  3.2615 -1.8281
   77MOL0     H10383   6.658   8.373   2.266  0.1536  1.6503 -1.7403
   77MOL0     H10384   6.541   8.502   2.301  0.9237  1.8698  0.0676
   77MOL0     H10385   6.473   8.316   2.429 -0.4813 -0.3570 -0.5533
   77MOL0     H10386   6.535   8.425   2.543  1.0915  0.2220 -0.4363
   77MOL0     H10387   6.627   8.223   2.622  1.6323  0.8362  0.9216
   77MOL0     H10388   6.761   8.315   2.561  0.9772 -1.9115  0.2264
   77MOL0     H10389   6.607   8.121   2.390 -0.1630  1.6708 -1.8816
   77MOL0     H10390   6.762   8.205   2.357  1.5557 -2.3695  0.2683
   77MOL0     H10391   6.842   7.871   2.630 -0.1042  1.7255  1.5443
   77MOL0     H10392   6.903   8.702   2.448  0.8517 -0.0116  1.4923
   77MOL0     H10393   6.933   9.010   2.563  3.5432 -0.2989 -0.6099
   77MOL0     H10394   6.920   8.915   2.716 -0.2591 -0.3855  0.3117
   77MOL0     H10395   7.010   8.855   2.581  1.1248  3.0533 -0.1632
   78MOL0     O10396   2.329   6.007   9.445 -0.3316  0.0737  0.2718
   78MOL0     C10397   2.386   6.113   9.405 -0.6159 -0.3615 -0.0345
   78MOL0     O10398   2.472   6.124   9.295  0.6318  0.4041 -0.5873
   78MOL0     C10399   2.518   6.008   9.247 -0.9396  0.2090  0.4355
   78MOL0     C10400   2.478   5.973   9.114 -0.6009  0.1489 -0.5817
   78MOL0     C10401   2.501   5.836   9.069  0.6218 -0.4684 -1.0052
   78MOL0     C10402   2.562   5.738   9.149  0.5453 -0.8244 -0.3242
   78MOL0     O10403   2.582   5.606   9.114 -0.4836  0.3762 -0.6378
   78MOL0     C10404   2.527   5.560   8.990  0.2973  0.3503  0.2766
   78MOL0     C10405   2.544   5.412   8.960 -0.9860 -0.2459 -0.4149
   78MOL0     C10406   2.681   5.362   9.008 -0.4882  0.1224 -0.2103
   78MOL0     C10407   2.669   5.281   9.132  0.0741 -0.1232  0.4950
   78MOL0     C10408   2.800   5.220   9.174 -0.2992  0.0262 -0.6803
   78MOL0     C10409   2.781   5.124   9.292 -0.0401  0.7389  0.7678
   78MOL0     C10410   2.926   5.076   9.328  0.5403 -0.0518  0.1240
   78MOL0     C10411   2.912   4.948   9.412  0.2990 -0.0014 -0.4902
   78MOL0     N10412   3.032   4.921   9.491  0.7148  0.3805 -1.0067
   78MOL0     C10413   3.161   4.900   9.446  0.5970 -0.3424 -0.7782
   78MOL0     C10414   3.235   4.868   9.553  0.0794  0.6645  0.4439
   78MOL0     C10415   3.380   4.851   9.573 -0.3533  0.1863  0.1310
   78MOL0     C10416   3.461   4.966   9.506 -0.0279 -0.2866  0.4540
   78MOL0     C10417   3.456   5.094   9.581  0.1557 -0.0930 -0.4184
   78MOL0     C10418   3.529   5.205   9.513 -0.1409  0.0621 -0.1334
   78MOL0     O10419   3.663   5.178   9.489 -0.7512  0.1974 -0.4399
   78MOL0     C10420   3.754   5.229   9.579  0.0545 -0.0406  0.5045
   78MOL0     C10421   3.726   5.245   9.721 -0.1193  0.1749 -0.1446
   78MOL0     C10422   3.828   5.292   9.802  0.6632  0.7865 -0.1822
   78MOL0     C10423   3.948   5.339   9.753  0.2282  0.0464 -0.0332
   78MOL0     C10424   4.050   5.380   9.839  0.1210  0.9690 -1.1986
   78MOL0     O10425   4.179   5.341   9.798 -0.2561 -0.8558  0.0895
   78MOL0     C10426   4.275   5.424   9.844  0.2578 -0.5378 -0.0783
   78MOL0     C10427   4.269   5.563   9.844 -0.5493 -0.3905 -0.0924
   78MOL0     C10428   4.363   5.642   9.903  0.4159  0.2433  0.7281
   78MOL0     C10429   4.481   5.582   9.953 -0.6023  0.0400  0.7220
   78MOL0     O10430   4.578   5.673   9.993 -0.4212 -0.4820 -0.2851
   78MOL0     C10431   4.654   5.636  10.114  0.1081 -0.0739 -0.7012
   78MOL0     C10432   4.779   5.720  10.102 -0.2270 -0.2311 -0.7668
   78MOL0     C10433   4.884   5.665  10.204  0.2388 -0.7002  0.2711
   78MOL0     C10434   4.835   5.664  10.347  0.2102  0.3678 -0.5282
   78MOL0     C10435   4.807   5.805  10.415  0.2715 -1.0956 -0.4339
   78MOL0     C10436   4.731   5.797  10.549  0.9816 -0.2335  0.4638
   78MOL0     C10437   4.817   5.722  10.648 -0.2905  0.5363 -1.0901
   78MOL0     C10438   4.763   5.731  10.794 -0.0654  0.4814 -0.1622
   78MOL0    Cl10439   4.787   5.573  10.868  0.0833  0.0075  0.1151
   78MOL0     C10440   4.497   5.438   9.954  0.1663  1.0939  0.5653
   78MOL0     C10441   4.388   5.363   9.894 -1.3278  0.0125  0.8371
   78MOL0     O10442   4.024   5.461   9.928 -0.0551  0.5927  0.9685
   78MOL0     C10443   3.973   5.341   9.613 -0.2026 -0.5708 -0.6717
   78MOL0     C10444   3.876   5.278   9.531  0.4042  0.0704 -0.4174
   78MOL0     N10445   3.149   4.874   9.664 -0.8884  0.3220 -0.7184
   78MOL0     N10446   3.025   4.899   9.625 -1.3993 -1.4090  0.1252
   78MOL0     C10447   2.600   5.782   9.285  0.7996  0.2766 -0.0034
   78MOL0     C10448   2.572   5.908   9.330  0.6207  0.1472 -0.2586
   78MOL0     C10449   2.355   6.237   9.477 -0.5291  0.4261  0.3147
   78MOL0     C10450   2.459   6.326   9.496 -0.1945 -0.8049 -0.2717
   78MOL0     C10451   2.432   6.445   9.568 -0.1936  0.2366 -0.2200
   78MOL0     C10452   2.310   6.473   9.621 -0.0265  0.3033 -0.8489
   78MOL0     O10453   2.276   6.585   9.691  0.2445  0.1922 -0.0373
   78MOL0     C10454   2.380   6.653   9.760 -0.2848  0.4634  0.1576
   78MOL0     C10455   2.312   6.739   9.862  1.0139  0.7227 -0.5758
   78MOL0     C10456   2.327   6.887   9.847  0.3800  0.2271  0.4694
   78MOL0     C10457   2.356   6.944   9.983 -0.5799 -0.7416 -0.2506
   78MOL0     C10458   2.244   6.953  10.077 -0.4004  0.5233  0.1285
   78MOL0     C10459   2.159   6.954  10.160 -0.6855 -0.0342  0.2633
   78MOL0     C10460   2.205   6.376   9.603 -0.8455 -0.3754  1.0720
   78MOL0     C10461   2.227   6.257   9.531  0.6916  0.0618 -0.0520
   78MOL0     C10462   2.101   6.172   9.522  0.0653 -0.0635  0.3527
   78MOL0     H10463   2.422   6.037   9.047 -0.7258 -0.5473 -1.1619
   78MOL0     H10464   2.471   5.825   8.965  0.2468  0.6766 -1.0312
   78MOL0     H10465   2.419   5.580   8.992  0.1038 -0.6328  0.1418
   78MOL0     H10466   2.575   5.612   8.907 -0.0163 -1.6176 -1.2354
   78MOL0     H10467   2.524   5.394   8.854  1.3748 -0.0555 -0.9387
   78MOL0     H10468   2.468   5.361   9.021 -1.2647  0.2157 -0.3634
   78MOL0     H10469   2.745   5.448   9.033 -2.3038  0.7750  2.7100
   78MOL0     H10470   2.719   5.303   8.925  1.4297  0.8831  0.0567
   78MOL0     H10471   2.626   5.326   9.222  1.6538 -1.5117  2.0011
   78MOL0     H10472   2.605   5.197   9.104 -1.7674  0.9869  1.1827
   78MOL0     H10473   2.850   5.166   9.094  1.2368  0.2803  0.0820
   78MOL0     H10474   2.873   5.294   9.209  1.9946 -2.6642  0.6007
   78MOL0     H10475   2.735   5.171   9.380 -3.9154 -1.5045  0.1492
   78MOL0     H10476   2.728   5.033   9.264 -0.2044  1.3844 -1.1784
   78MOL0     H10477   2.987   5.147   9.384 -0.5313  0.4305  0.7117
   78MOL0     H10478   2.980   5.061   9.234 -0.1243  1.7014 -0.5754
   78MOL0     H10479   2.838   4.975   9.488  0.4089  2.9052 -1.3091
   78MOL0     H10480   2.887   4.856   9.358 -0.7086 -0.3736  0.5642
   78MOL0     H10481   3.198   4.895   9.344 -1.3509 -2.1352 -1.4756
   78MOL0     H10482   3.403   4.847   9.679 -0.1047  2.3083  0.1893
   78MOL0     H10483   3.415   4.756   9.531  0.6717  0.9320 -0.7770
   78MOL0     H10484   3.567   4.939   9.498 -0.2707 -1.1292 -0.1108
   78MOL0     H10485   3.422   4.976   9.404  0.7935 -0.2324  0.1357
   78MOL0     H10486   3.489   5.076   9.684  1.2653  3.2191 -0.0823
   78MOL0     H10487   3.350   5.121   9.580 -0.4833 -2.3043  0.2722
   78MOL0     H10488   3.508   5.299   9.564 -1.3370  0.4764 -1.3326
   78MOL0     H10489   3.483   5.221   9.415  0.4379 -0.7555 -0.5558
   78MOL0     H10490   3.629   5.218   9.761 -0.8716  2.1253 -0.5508
   78MOL0     H10491   3.822   5.297   9.911 -0.2773  1.2026 -0.2474
   78MOL0     H10492   4.184   5.615   9.800 -0.5941 -2.0062 -2.0737
   78MOL0     H10493   4.352   5.750   9.899 -2.0947  0.0369 -2.3868
   78MOL0     H10494   4.605   5.661  10.209 -0.4498  3.0342 -1.6960
   78MOL0     H10495   4.665   5.527  10.120 -2.8782 -0.4902 -1.1854
   78MOL0     H10496   4.824   5.719  10.002 -2.9795 -2.5767 -2.1246
   78MOL0     H10497   4.752   5.825  10.120 -0.2623 -0.5792  1.5175
   78MOL0     H10498   4.903   5.563  10.172 -2.1747 -1.4449  0.9523
   78MOL0     H10499   4.980   5.716  10.198  1.5569 -3.1402 -0.3907
   78MOL0     H10500   4.914   5.623  10.410 -0.7982  3.6695  3.3898
   78MOL0     H10501   4.745   5.602  10.342 -1.3438  2.5815 -3.3442
   78MOL0     H10502   4.760   5.872  10.342  2.7373  1.2885 -0.0128
   78MOL0     H10503   4.906   5.849  10.431  0.3990 -1.9232  1.1863
   78MOL0     H10504   4.701   5.895  10.588 -3.2172 -0.6064 -1.2837
   78MOL0     H10505   4.637   5.740  10.546  2.0411 -2.4720  4.0602
   78MOL0     H10506   4.923   5.750  10.651 -0.3387  0.6570 -0.4470
   78MOL0     H10507   4.804   5.617  10.621 -0.1857  0.2950 -0.2283
   78MOL0     H10508   4.826   5.808  10.841  1.4010 -0.5719 -0.3340
   78MOL0     H10509   4.659   5.764  10.788  0.4525  2.1448 -0.7442
   78MOL0     H10510   4.586   5.387   9.990 -0.1089  1.5354  1.9542
   78MOL0     H10511   4.412   5.257   9.903  0.3651  0.1675 -1.2000
   78MOL0     H10512   4.072   5.374   9.587  1.7743 -2.9607  2.9550
   78MOL0     H10513   3.905   5.284   9.427 -2.0156  3.4296 -1.0931
   78MOL0     H10514   2.654   5.708   9.343  1.7645  0.2788 -0.8770
   78MOL0     H10515   2.568   5.928   9.437 -2.2973  2.4838 -0.6653
   78MOL0     H10516   2.554   6.297   9.454 -0.6935 -0.9338 -1.3330
   78MOL0     H10517   2.508   6.522   9.577  1.2504 -1.0018 -1.2120
   78MOL0     H10518   2.441   6.713   9.693  0.0511  1.6211  1.4580
   78MOL0     H10519   2.455   6.590   9.808  0.1607  0.5979 -0.3580
   78MOL0     H10520   2.339   6.703   9.962 -1.1694 -0.3876 -0.3330
   78MOL0     H10521   2.205   6.719   9.848  1.5884 -3.5458 -0.2067
   78MOL0     H10522   2.237   6.925   9.799  0.1952  1.8118  1.9488
   78MOL0     H10523   2.417   6.908   9.789  1.3622 -0.8276  1.5288
   78MOL0     H10524   2.451   6.912  10.028  1.7159  4.9170 -0.2557
   78MOL0     H10525   2.369   7.045   9.943  1.8367 -1.2614 -0.9597
   78MOL0     H10526   2.077   6.961  10.229 -1.1222 -0.0266 -0.2491
   78MOL0     H10527   2.105   6.411   9.625 -0.7994 -1.2617  2.8966
   78MOL0     H10528   2.013   6.221   9.479  0.0938  0.2387  0.6277
   78MOL0     H10529   2.117   6.086   9.457 -0.0911  1.0512 -1.2120
   78MOL0     H10530   2.078   6.129   9.620 -0.1839 -0.3470  0.1706
   79MOL0     O10531   3.822   7.937   9.751 -0.2899 -0.0438  0.3972
   79MOL0     C10532   3.751   7.849   9.702 -0.4679  0.3406  1.4397
   79MOL0     O10533   3.672   7.767   9.766  0.9527  0.5954  0.4254
   79MOL0     C10534   3.678   7.780   9.903  0.1998 -0.5927  0.7431
   79MOL0     C10535   3.696   7.668   9.970 -0.0939  0.8424 -1.4147
   79MOL0     C10536   3.674   7.668  10.112 -0.3713  0.0356  0.0964
   79MOL0     C10537   3.625   7.772  10.183 -0.0922  0.1437 -0.4668
   79MOL0     O10538   3.610   7.754  10.317 -0.5656 -0.0696  0.3546
   79MOL0     C10539   3.650   7.860  10.406  0.5398  0.4117  0.2578
   79MOL0     C10540   3.692   7.803  10.541  0.2062  0.1064  0.2559
   79MOL0     C10541   3.568   7.802  10.641  0.1061 -0.1644  0.2716
   79MOL0     C10542   3.615   7.780  10.780 -0.2670  0.1787  0.7171
   79MOL0     C10543   3.508   7.777  10.883 -0.6273  0.6164  0.7998
   79MOL0     C10544   3.570   7.718  11.016 -0.0844 -0.4475 -1.0228
   79MOL0     C10545   3.465   7.706  11.132  0.2128  0.3115  0.8123
   79MOL0     C10546   3.465   7.575  11.201 -0.6399 -0.2937  0.5903
   79MOL0     N10547   3.470   7.452  11.113  0.7506  1.0468  0.2174
   79MOL0     C10548   3.351   7.415  11.051 -0.7394 -0.1315 -0.3934
   79MOL0     C10549   3.384   7.292  11.005  0.7934 -0.2396 -0.2670
   79MOL0     C10550   3.308   7.213  10.907 -0.9449 -0.3608 -0.9693
   79MOL0     C10551   3.163   7.197  10.945 -0.5288  0.4267  1.1391
   79MOL0     C10552   3.090   7.137  10.830  0.8443  0.3438  0.3534
   79MOL0     C10553   2.936   7.127  10.853  0.7428  0.2844 -0.4827
   79MOL0     O10554   2.876   7.256  10.864  0.1786  0.1546 -0.0522
   79MOL0     C10555   2.845   7.318  10.745 -0.5198  0.0826  0.1899
   79MOL0     C10556   2.757   7.426  10.742 -0.0858 -0.4354 -0.3663
   79MOL0     C10557   2.733   7.505  10.627  0.3582  0.4003 -0.0783
   79MOL0     C10558   2.796   7.471  10.507 -0.6904 -0.2448 -0.1424
   79MOL0     C10559   2.782   7.552  10.386 -1.1859 -0.8129 -0.1615
   79MOL0     O10560   2.766   7.687  10.414 -0.3068 -0.5841 -0.5228
   79MOL0     C10561   2.718   7.754  10.306  0.1264  0.4409  0.2365
   79MOL0     C10562   2.581   7.788  10.302 -0.7251  0.2348  0.7503
   79MOL0     C10563   2.519   7.844  10.191  0.2234 -0.7466  1.0627
   79MOL0     C10564   2.594   7.869  10.080  0.6961  0.6387  0.0517
   79MOL0     O10565   2.528   7.924   9.968 -0.2778 -0.4766  0.3716
   79MOL0     C10566   2.536   8.069   9.953 -0.3073 -0.1758 -0.0876
   79MOL0     C10567   2.450   8.136  10.058 -0.0873  0.0057  0.3269
   79MOL0     C10568   2.301   8.115  10.031 -0.5638  0.0760  0.9057
   79MOL0     C10569   2.219   8.165  10.145 -0.5325 -0.3828  0.2889
   79MOL0     C10570   2.184   8.059  10.251 -0.0683 -0.4703 -0.0698
   79MOL0     C10571   2.080   8.121  10.344  0.4177 -0.7203 -0.0396
   79MOL0     C10572   2.045   8.052  10.472  0.1196  0.4011 -0.1920
   79MOL0     C10573   1.951   8.139  10.556  0.3394 -0.4181  0.5949
   79MOL0    Cl10574   1.797   8.170  10.463 -0.0202 -0.3119  0.2423
   79MOL0     C10575   2.735   7.846  10.084 -0.4453 -0.1139  0.3310
   79MOL0     C10576   2.796   7.783  10.191  0.4877 -0.2429 -0.4011
   79MOL0     O10577   2.792   7.496  10.276 -0.7713 -0.5120 -0.3295
   79MOL0     C10578   2.871   7.352  10.505  0.3608 -0.0301 -0.1234
   79MOL0     C10579   2.893   7.278  10.618  0.3269  0.0272  0.7047
   79MOL0     N10580   3.513   7.253  11.047  0.2581 -0.9270 -0.3052
   79MOL0     N10581   3.554   7.352  11.113  0.2256 -0.4926 -0.0171
   79MOL0     C10582   3.621   7.897  10.116  0.9336  0.0961 -0.1542
   79MOL0     C10583   3.650   7.902   9.975  1.3384  0.5560 -0.7913
   79MOL0     C10584   3.738   7.845   9.549  0.2840  0.4473 -1.4328
   79MOL0     C10585   3.612   7.839   9.489  0.3511  0.9608 -0.2135
   79MOL0     C10586   3.590   7.849   9.356 -0.2523 -0.1541  1.0535
   79MOL0     C10587   3.694   7.859   9.262  0.4497 -0.4306 -0.3468
   79MOL0     O10588   3.667   7.876   9.131  0.7504  0.0935  0.0637
   79MOL0     C10589   3.543   7.938   9.095  0.2137  0.7060 -0.4183
   79MOL0     C10590   3.573   8.020   8.969  0.4907 -0.5463 -0.2700
   79MOL0     C10591   3.453   8.085   8.903 -0.3070 -0.2696  0.2410
   79MOL0     C10592   3.476   8.105   8.752  0.0585  0.7108 -0.0648
   79MOL0     C10593   3.378   8.209   8.697  0.2650 -0.2013  0.0028
   79MOL0     C10594   3.295   8.298   8.672  0.0454 -0.0491 -0.8116
   79MOL0     C10595   3.830   7.851   9.321 -0.1982  0.7017 -0.0275
   79MOL0     C10596   3.850   7.837   9.467 -1.0373  0.4285  0.9266
   79MOL0     C10597   3.992   7.814   9.519 -0.1822 -0.5752  0.7765
   79MOL0     H10598   3.703   7.567   9.933  0.1097 -0.2831  1.4687
   79MOL0     H10599   3.707   7.574  10.156  3.1578  0.2930 -1.6706
   79MOL0     H10600   3.740   7.905  10.363 -0.8803  0.4805 -2.9425
   79MOL0     H10601   3.574   7.937  10.417  0.6337  1.1761 -3.2965
   79MOL0     H10602   3.769   7.864  10.587 -0.4610  0.3879  1.0218
   79MOL0     H10603   3.714   7.696  10.539 -1.2915 -0.3342  2.6360
   79MOL0     H10604   3.500   7.722  10.614 -0.6201  0.8023 -0.8507
   79MOL0     H10605   3.519   7.900  10.643  1.6205  0.6367  0.9192
   79MOL0     H10606   3.663   7.682  10.789 -2.0202 -0.7699  0.2947
   79MOL0     H10607   3.683   7.859  10.813  1.1378 -1.6607  2.5435
   79MOL0     H10608   3.476   7.882  10.889  0.2715  0.9410  0.0834
   79MOL0     H10609   3.413   7.729  10.858 -1.5538  0.7242  3.6496
   79MOL0     H10610   3.626   7.625  11.000  0.1636 -0.2458 -1.3512
   79MOL0     H10611   3.653   7.779  11.053  2.7092 -3.7961 -1.2419
   79MOL0     H10612   3.361   7.715  11.101  0.5840 -1.3210 -1.0396
   79MOL0     H10613   3.489   7.774  11.215  0.4371 -0.4789  1.4054
   79MOL0     H10614   3.561   7.576  11.253 -0.2083  1.9685 -0.1512
   79MOL0     H10615   3.382   7.568  11.273  0.0019  1.9783  1.6466
   79MOL0     H10616   3.261   7.474  11.042 -1.2962 -0.6759  1.1664
   79MOL0     H10617   3.325   7.264  10.812 -0.6104  0.9749 -0.2192
   79MOL0     H10618   3.371   7.126  10.889  3.9134  2.5436  0.0909
   79MOL0     H10619   3.154   7.141  11.039 -4.3053 -0.4820  0.4111
   79MOL0     H10620   3.117   7.295  10.965 -1.4154  0.0071  1.1791
   79MOL0     H10621   3.108   7.030  10.843  0.2114  0.5701  4.1392
   79MOL0     H10622   3.100   7.180  10.730 -3.3471  0.2323 -0.3135
   79MOL0     H10623   2.929   7.073  10.948  1.3018  0.8231 -0.1237
   79MOL0     H10624   2.874   7.067  10.786  3.8722 -1.9164 -1.6932
   79MOL0     H10625   2.713   7.465  10.833  1.6641  0.1183  0.2972
   79MOL0     H10626   2.666   7.591  10.631 -0.7474 -0.4578  0.7133
   79MOL0     H10627   2.515   7.752  10.380 -2.0371  0.0343 -0.4018
   79MOL0     H10628   2.416   7.877  10.197  0.2011 -0.0208 -1.9771
   79MOL0     H10629   2.639   8.106   9.957 -0.6490  0.7004  3.3352
   79MOL0     H10630   2.514   8.102   9.851  1.6564  0.8967 -0.2188
   79MOL0     H10631   2.458   8.105  10.162  0.0961  1.4638  0.7715
   79MOL0     H10632   2.479   8.241  10.052  2.4629 -0.4439  2.7297
   79MOL0     H10633   2.264   8.162   9.940  1.0928 -3.9081 -2.1475
   79MOL0     H10634   2.288   8.009  10.007 -0.6584 -0.3263  2.6159
   79MOL0     H10635   2.121   8.188  10.104 -1.5249 -2.7813  1.1406
   79MOL0     H10636   2.255   8.259  10.187  0.7534  0.2336 -1.9986
   79MOL0     H10637   2.276   8.040  10.307  1.0322 -1.8734 -2.2491
   79MOL0     H10638   2.147   7.969  10.201  0.5467  0.3171 -1.9960
   79MOL0     H10639   2.135   8.203  10.391  1.2668 -2.2652  1.7720
   79MOL0     H10640   1.993   8.155  10.286  0.4355 -0.4135  0.1115
   79MOL0     H10641   2.124   8.029  10.544  0.4315  0.1981 -0.5998
   79MOL0     H10642   1.992   7.959  10.450  1.3694 -1.0908  2.6161
   79MOL0     H10643   1.932   8.086  10.649 -1.6646 -1.6113 -0.4399
   79MOL0     H10644   1.983   8.241  10.579  0.7603 -0.8004  1.7767
   79MOL0     H10645   2.802   7.879  10.005 -0.0710 -1.3544  0.1109
   79MOL0     H10646   2.899   7.749  10.195  0.0618 -1.5836 -0.1774
   79MOL0     H10647   2.905   7.321  10.407  0.1955 -0.0879 -0.1635
   79MOL0     H10648   2.960   7.199  10.585  2.6235  1.9593  0.4657
   79MOL0     H10649   3.572   7.978  10.170 -0.5484 -0.1425 -1.0881
   79MOL0     H10650   3.646   8.000   9.928  4.7021  0.2230 -2.0751
   79MOL0     H10651   3.528   7.824   9.555  1.0895 -4.6429 -0.0608
   79MOL0     H10652   3.487   7.853   9.322  0.0593 -0.7695 -0.0208
   79MOL0     H10653   3.514   8.002   9.179 -0.0343 -0.2497  0.2331
   79MOL0     H10654   3.454   7.877   9.075  0.9219  0.2744 -2.4981
   79MOL0     H10655   3.620   7.951   8.898 -1.2940 -0.4112 -1.6628
   79MOL0     H10656   3.650   8.095   8.993  0.4773 -0.8954  0.9071
   79MOL0     H10657   3.447   8.183   8.950  1.0620 -0.7716  1.5278
   79MOL0     H10658   3.358   8.037   8.928 -0.8146  0.8654  0.5475
   79MOL0     H10659   3.571   8.156   8.736  0.1903  0.0363 -1.5294
   79MOL0     H10660   3.462   8.013   8.694 -1.9585  0.3390  0.9019
   79MOL0     H10661   3.212   8.349   8.628  0.1340 -1.3397 -2.6198
   79MOL0     H10662   3.917   7.839   9.257 -0.3166 -2.6358  0.2536
   79MOL0     H10663   4.002   7.718   9.570  1.0557 -0.7543  0.2536
   79MOL0     H10664   4.064   7.824   9.437 -0.2121 -2.2181  0.5222
   79MOL0     H10665   3.992   7.900   9.586 -2.5812  3.5349 -3.8497
   80MOL0     O10666   7.818  10.585   9.901 -0.9742  0.0629 -0.6579
   80MOL0     C10667   7.719  10.642   9.933 -1.2009 -0.8666  1.1093
   80MOL0     O10668   7.719  10.762   9.994  1.0886  0.2809  0.5280
   80MOL0     C10669   7.828  10.829  10.028 -1.0027  0.2602 -0.0683
   80MOL0     C10670   7.927  10.859   9.936  0.3005  0.0917  0.0541
   80MOL0     C10671   8.045  10.929   9.980  0.2565  0.4087 -0.6903
   80MOL0     C10672   8.072  10.953  10.113  0.0078  0.0423 -0.7351
   80MOL0     O10673   8.178  11.012  10.163 -0.5897  0.1600 -0.8584
   80MOL0     C10674   8.246  11.120  10.094 -0.7010 -0.4417 -0.1677
   80MOL0     C10675   8.155  11.239  10.090  0.0894  0.2194  0.2670
   80MOL0     C10676   8.119  11.294  10.224 -0.5064  0.2699 -0.1027
   80MOL0     C10677   8.037  11.422  10.219 -0.0213  0.0602 -0.0397
   80MOL0     C10678   8.017  11.502  10.353  0.5800  1.4173  0.4176
   80MOL0     C10679   7.940  11.627  10.312 -0.0152 -0.1598  0.1204
   80MOL0     C10680   7.928  11.722  10.425 -0.6356  0.0130  0.1954
   80MOL0     C10681   7.885  11.863  10.374  0.0563 -0.1796 -0.0125
   80MOL0     N10682   7.739  11.868  10.337 -0.1965  0.1235  0.0458
   80MOL0     C10683   7.679  11.838  10.219  0.3367  0.4253 -0.5582
   80MOL0     C10684   7.548  11.868  10.239  0.4910  0.0115 -1.2109
   80MOL0     C10685   7.455  11.849  10.125  0.2304  0.5463  0.8976
   80MOL0     C10686   7.339  11.952  10.127 -0.9777  0.3376  0.7057
   80MOL0     C10687   7.231  11.914  10.020  0.4673  0.1069  1.3410
   80MOL0     C10688   7.126  12.018   9.990 -0.2911 -0.6765  0.3151
   80MOL0     O10689   7.175  12.095   9.879  0.1615 -0.6741  0.2125
   80MOL0     C10690   7.093  12.161   9.794 -0.2158 -0.3825  0.1206
   80MOL0     C10691   7.151  12.189   9.671 -0.2311 -0.3975  0.1042
   80MOL0     C10692   7.070  12.243   9.566  0.6666 -0.7240  0.0112
   80MOL0     C10693   6.935  12.281   9.583  0.0910 -0.0222 -0.1163
   80MOL0     C10694   6.862  12.347   9.469 -0.6454  1.2921 -0.2584
   80MOL0     O10695   6.744  12.392   9.505 -0.0198  0.3728  1.1603
   80MOL0     C10696   6.678  12.500   9.444 -0.0225  1.5506 -0.1116
   80MOL0     C10697   6.724  12.572   9.331 -0.3374 -0.5723  0.1195
   80MOL0     C10698   6.644  12.651   9.255  1.5383  0.2216 -0.2971
   80MOL0     C10699   6.510  12.663   9.292  0.0742 -0.0729 -0.3043
   80MOL0     O10700   6.444  12.750   9.205 -0.0254  0.9576 -0.3966
   80MOL0     C10701   6.316  12.798   9.248 -0.7308 -0.5718  0.0086
   80MOL0     C10702   6.265  12.897   9.134 -0.0420 -0.2062  0.2382
   80MOL0     C10703   6.117  12.875   9.099  0.0045 -0.2104 -0.1026
   80MOL0     C10704   6.075  12.956   8.978  0.0218  0.2312 -0.7706
   80MOL0     C10705   5.950  12.915   8.904  0.9280  0.6509  0.2869
   80MOL0     C10706   5.818  12.939   8.972  0.8673 -0.2415  0.3949
   80MOL0     C10707   5.703  12.889   8.883 -0.9425 -0.5093  0.5547
   80MOL0     C10708   5.576  12.922   8.948 -0.6111  1.4934 -0.3276
   80MOL0    Cl10709   5.436  12.863   8.843 -0.2072 -0.4470 -0.0981
   80MOL0     C10710   6.469  12.595   9.410  0.0945 -0.6891  0.8885
   80MOL0     C10711   6.548  12.510   9.484  0.5273 -0.5293  0.3935
   80MOL0     O10712   6.921  12.365   9.359  1.0644  0.0870 -0.4337
   80MOL0     C10713   6.885  12.255   9.709  0.0988 -0.3591 -0.5798
   80MOL0     C10714   6.957  12.197   9.813  0.0207 -0.2161  0.8352
   80MOL0     N10715   7.521  11.908  10.365 -0.0258 -0.0999 -0.5661
   80MOL0     N10716   7.644  11.908  10.420 -0.6664  0.4477  0.2045
   80MOL0     C10717   7.976  10.909  10.204 -0.2265  0.3366 -0.5772
   80MOL0     C10718   7.855  10.852  10.160 -0.2021 -1.0860 -0.4690
   80MOL0     C10719   7.597  10.575   9.915  0.4106  0.0373 -0.7684
   80MOL0     C10720   7.479  10.647   9.960  0.4776  0.4015 -0.3896
   80MOL0     C10721   7.359  10.577   9.965  0.2234 -0.1596  0.1329
   80MOL0     C10722   7.359  10.444   9.942 -0.0721  1.1746 -0.4434
   80MOL0     O10723   7.232  10.385   9.951  0.4485 -0.7026  0.3827
   80MOL0     C10724   7.214  10.252   9.898  0.3580 -0.8179 -0.7497
   80MOL0     C10725   7.062  10.221   9.912  0.1484 -0.1836 -0.0925
   80MOL0     C10726   6.987  10.278   9.781 -0.3764  0.3883  0.2000
   80MOL0     C10727   6.843  10.236   9.793  0.0959 -0.2231 -0.4502
   80MOL0     C10728   6.758  10.317   9.707 -0.3477 -0.4468 -0.7478
   80MOL0     C10729   6.697  10.386   9.628 -0.6007  0.1207  0.5736
   80MOL0     C10730   7.475  10.379   9.897 -0.6853 -0.5003 -0.2961
   80MOL0     C10731   7.596  10.438   9.880 -0.3778  0.3605 -0.0532
   80MOL0     C10732   7.702  10.359   9.817  0.2309  0.1622  0.2244
   80MOL0     H10733   7.934  10.821   9.835  2.8268  0.7170 -0.0831
   80MOL0     H10734   8.117  10.955   9.903  1.0106 -0.4939 -0.3057
   80MOL0     H10735   8.331  11.151  10.155 -0.1470  1.1251 -1.6579
   80MOL0     H10736   8.283  11.083   9.998  0.1686  1.5102 -0.6433
   80MOL0     H10737   8.062  11.208  10.042  0.4736  1.8151 -1.6538
   80MOL0     H10738   8.196  11.319  10.027 -0.8772  0.2104 -0.3989
   80MOL0     H10739   8.214  11.316  10.275 -0.0353 -0.6537 -0.5532
   80MOL0     H10740   8.079  11.221  10.295  0.7279  1.8737  2.3836
   80MOL0     H10741   8.088  11.482  10.142  0.5283  0.4100  0.5802
   80MOL0     H10742   7.937  11.399  10.183 -0.7884  0.8318  1.5068
   80MOL0     H10743   7.952  11.435  10.411 -1.1332  0.1569 -2.7468
   80MOL0     H10744   8.106  11.526  10.412  0.6727  2.5029 -0.1419
   80MOL0     H10745   7.995  11.675  10.231 -0.8025 -1.0359 -0.9831
   80MOL0     H10746   7.842  11.616  10.263  0.5205  1.3190 -1.3578
   80MOL0     H10747   8.024  11.732  10.477 -0.4414 -0.5233 -0.0595
   80MOL0     H10748   7.860  11.672  10.495 -0.1672  0.3715  0.9244
   80MOL0     H10749   7.878  11.938  10.453 -0.5931  1.6477 -1.7046
   80MOL0     H10750   7.951  11.900  10.295  0.7385  1.6739  1.3756
   80MOL0     H10751   7.732  11.812  10.128  1.6260  2.7925 -0.5600
   80MOL0     H10752   7.503  11.857  10.028  0.7732  3.9094  1.3184
   80MOL0     H10753   7.413  11.749  10.137  0.9660  0.3080  1.5895
   80MOL0     H10754   7.297  11.965  10.227 -1.2378  0.5490  0.5689
   80MOL0     H10755   7.383  12.045  10.091 -0.7664 -0.6478 -1.8398
   80MOL0     H10756   7.178  11.822  10.047  0.8370 -1.0359 -1.4844
   80MOL0     H10757   7.278  11.903   9.923  2.0335 -0.9959  2.1758
   80MOL0     H10758   7.113  12.084  10.076 -1.4224 -1.3095  0.6492
   80MOL0     H10759   7.027  11.976   9.970 -1.4974  0.6432  2.9761
   80MOL0     H10760   7.251  12.148   9.663 -0.2777 -0.7589  1.3078
   80MOL0     H10761   7.112  12.250   9.466  0.2751  0.9286 -0.0567
   80MOL0     H10762   6.827  12.556   9.301  0.4909  1.8497  1.4262
   80MOL0     H10763   6.688  12.685   9.162  1.8135  0.5514 -0.0470
   80MOL0     H10764   6.243  12.717   9.253  0.8762 -2.0966  0.1696
   80MOL0     H10765   6.324  12.852   9.343  0.3588  0.3037 -0.5537
   80MOL0     H10766   6.271  13.003   9.163 -0.9907  0.2489 -1.1414
   80MOL0     H10767   6.339  12.891   9.054 -0.3819 -0.9576 -0.0319
   80MOL0     H10768   6.085  12.770   9.092  0.4765 -0.3693  0.1422
   80MOL0     H10769   6.058  12.916   9.182  2.8795  1.5259  1.2369
   80MOL0     H10770   6.163  12.941   8.915 -1.4522 -3.8221 -2.1735
   80MOL0     H10771   6.073  13.062   9.005  0.9643 -0.7092  3.8591
   80MOL0     H10772   5.959  12.810   8.875  0.4290  0.5116  0.6274
   80MOL0     H10773   5.948  12.972   8.811 -1.9253  0.3938  0.0875
   80MOL0     H10774   5.816  12.896   9.072 -2.7422 -0.8037  0.2068
   80MOL0     H10775   5.822  13.047   8.987  0.2511  0.0920 -1.5762
   80MOL0     H10776   5.718  12.782   8.864 -2.4882 -0.5794 -0.4319
   80MOL0     H10777   5.709  12.936   8.784 -0.8561 -3.1905 -0.7943
   80MOL0     H10778   5.582  12.856   9.036 -2.6405  1.6038 -0.0526
   80MOL0     H10779   5.566  13.025   8.982 -0.8542  1.6980 -1.0144
   80MOL0     H10780   6.371  12.620   9.451  0.7571  2.3340  0.8830
   80MOL0     H10781   6.503  12.448   9.561 -0.5370  0.7852  0.8734
   80MOL0     H10782   6.780  12.267   9.731 -0.1172 -1.8179 -0.6740
   80MOL0     H10783   6.905  12.171   9.905 -2.4154  0.1148 -0.3573
   80MOL0     H10784   7.986  10.920  10.311 -0.1798 -1.2399 -0.4067
   80MOL0     H10785   7.781  10.818  10.231 -1.2880  0.5459 -0.7720
   80MOL0     H10786   7.482  10.752   9.984 -1.2709  0.1320  1.2922
   80MOL0     H10787   7.262  10.619   9.987 -0.1060 -0.8833  0.0946
   80MOL0     H10788   7.271  10.178   9.956  0.9992 -0.8353 -1.3758
   80MOL0     H10789   7.243  10.244   9.792  2.4846  1.9186 -0.4839
   80MOL0     H10790   7.021  10.265  10.003  2.3665  1.7750  0.0461
   80MOL0     H10791   7.057  10.112   9.911  0.4971 -0.2894  2.5099
   80MOL0     H10792   7.025  10.247   9.684 -2.7708 -0.6575 -0.4649
   80MOL0     H10793   6.991  10.388   9.787  1.2047  0.4763 -1.6890
   80MOL0     H10794   6.844  10.130   9.765  1.8618 -0.1999 -0.5960
   80MOL0     H10795   6.811  10.239   9.897 -1.9385  1.2756 -1.0642
   80MOL0     H10796   6.653  10.445   9.550 -1.0807  2.7106  2.6685
   80MOL0     H10797   7.475  10.273   9.873  0.4065 -0.9287  1.4637
   80MOL0     H10798   7.711  10.401   9.716 -2.3310 -4.4694 -2.2859
   80MOL0     H10799   7.794  10.344   9.874  1.6567  0.7554 -1.7874
   80MOL0     H10800   7.679  10.254   9.795 -0.0021  0.1255  0.6334
   81MOL0     O10801  10.163   1.786   9.579  0.2132  0.0849  1.0246
   81MOL0     C10802  10.049   1.727   9.561  0.3375  0.0314  0.2986
   81MOL0     O10803  10.032   1.595   9.533  0.2663 -0.1003  0.2680
   81MOL0     C10804  10.144   1.511   9.535 -0.0053  0.4241 -0.1530
   81MOL0     C10805  10.149   1.414   9.430 -0.2207 -0.1196 -0.2257
   81MOL0     C10806  10.239   1.308   9.431  0.2903  0.2766 -0.4784
   81MOL0     C10807  10.336   1.292   9.529 -0.0604 -0.7307 -0.0324
   81MOL0     O10808  10.415   1.180   9.537 -0.1800  0.1353 -0.8013
   81MOL0     C10809  10.519   1.179   9.637  0.2623  0.2344 -0.0092
   81MOL0     C10810  10.599   1.055   9.627 -0.1334 -0.6375 -1.0845
   81MOL0     C10811  10.736   1.078   9.699 -0.1188  0.4594  0.3901
   81MOL0     C10812  10.836   0.961   9.681 -0.7233  0.0196  0.1387
   81MOL0     C10813  10.975   1.009   9.693  1.4782  0.5984  0.3945
   81MOL0     C10814  11.079   0.900   9.662 -1.2106  0.6235 -0.0716
   81MOL0     C10815  11.223   0.960   9.679 -0.8456 -0.0993 -0.1030
   81MOL0     C10816  11.319   0.898   9.576 -0.1737  0.3318 -0.6198
   81MOL0     N10817  11.415   0.804   9.644 -0.5819  0.1778  0.2742
   81MOL0     C10818  11.556   0.810   9.628  0.8422  0.3534 -0.1371
   81MOL0     C10819  11.603   0.700   9.687 -0.5173 -0.6980 -0.0200
   81MOL0     C10820  11.751   0.670   9.686  0.5186  0.6506  0.7855
   81MOL0     C10821  11.782   0.561   9.793  0.5464 -0.6241  0.0585
   81MOL0     C10822  11.928   0.529   9.780 -0.2276  0.3530  0.7807
   81MOL0     C10823  11.960   0.420   9.885  0.1289 -0.2477 -0.3000
   81MOL0     O10824  12.097   0.437   9.919  0.0883  0.1839  0.7409
   81MOL0     C10825  12.162   0.349   9.998  0.1317  0.4294  1.1980
   81MOL0     C10826  12.105   0.236  10.051 -0.7315  0.4107 -0.1898
   81MOL0     C10827  12.178   0.150  10.137 -0.2638  0.6315 -0.1831
   81MOL0     C10828  12.318   0.173  10.150 -0.8691  0.2687 -0.0571
   81MOL0     C10829  12.405   0.069  10.214 -0.1266 -0.7996 -0.0655
   81MOL0     O10830  12.543   0.082  10.219 -0.0426 -0.1052  0.4154
   81MOL0     C10831  12.608  -0.005  10.297  0.1756 -0.4099 -0.0011
   81MOL0     C10832  12.663   0.045  10.418 -0.1964 -0.5588  0.3686
   81MOL0     C10833  12.730  -0.044  10.500  0.6094 -0.7870 -0.1351
   81MOL0     C10834  12.756  -0.173  10.463  0.0238  0.1464  0.3412
   81MOL0     O10835  12.813  -0.249  10.566 -0.2877 -0.5315  1.2648
   81MOL0     C10836  12.808  -0.392  10.555  0.2083  1.3363 -0.2652
   81MOL0     C10837  12.800  -0.464  10.689 -0.0735 -0.5961  0.0121
   81MOL0     C10838  12.939  -0.460  10.756 -0.1506  0.3748  1.0057
   81MOL0     C10839  13.028  -0.582  10.713  0.8166  0.0144  0.1786
   81MOL0     C10840  12.974  -0.712  10.783  0.3326  0.6301 -0.1755
   81MOL0     C10841  13.039  -0.842  10.745  0.6516  0.2878 -0.5386
   81MOL0     C10842  12.979  -0.970  10.816  0.8500 -0.3149 -0.0882
   81MOL0     C10843  12.996  -1.101  10.751  0.1614  1.0544  0.0774
   81MOL0    Cl10844  12.901  -1.231  10.830  0.0037  0.1444  0.0044
   81MOL0     C10845  12.714  -0.217  10.336 -0.4903 -0.2883  0.4936
   81MOL0     C10846  12.632  -0.138  10.261 -0.2007 -0.6482 -0.3316
   81MOL0     O10847  12.346  -0.028  10.259 -0.2098 -0.0820  0.0051
   81MOL0     C10848  12.377   0.278  10.087  0.3829  0.1251  0.3710
   81MOL0     C10849  12.296   0.370  10.019 -0.1548 -0.2161  0.2544
   81MOL0     N10850  11.491   0.631   9.739  0.0315 -0.4545 -0.2394
   81MOL0     N10851  11.382   0.690   9.711  0.5226  0.7050  0.1458
   81MOL0     C10852  10.339   1.399   9.630 -0.1461  0.4146 -0.5683
   81MOL0     C10853  10.241   1.501   9.637 -0.0191  0.1883  0.4604
   81MOL0     C10854   9.927   1.810   9.591 -0.4340  0.3226  0.7236
   81MOL0     C10855   9.928   1.938   9.657 -0.2268 -0.1770 -1.2089
   81MOL0     C10856   9.807   2.017   9.670  1.0696 -0.8942  0.1896
   81MOL0     C10857   9.686   1.954   9.641 -0.9777  0.0005  0.4504
   81MOL0     O10858   9.563   2.000   9.670  0.0931 -0.0464  0.0344
   81MOL0     C10859   9.548   2.126   9.739  0.0294 -0.2779  0.4683
   81MOL0     C10860   9.570   2.128   9.882 -0.0635  0.7406  0.0255
   81MOL0     C10861   9.474   2.026   9.942  0.3683 -0.1030  0.0511
   81MOL0     C10862   9.493   1.995  10.097 -0.6350 -0.1950 -0.1564
   81MOL0     C10863   9.633   1.975  10.149 -0.1923  0.1074  0.5344
   81MOL0     C10864   9.743   1.982  10.200 -0.0117 -0.3961  0.5664
   81MOL0     C10865   9.680   1.830   9.579 -0.2857 -0.8047  0.0294
   81MOL0     C10866   9.794   1.763   9.548 -0.3515  0.0730  0.0573
   81MOL0     C10867   9.762   1.629   9.489  0.0577  0.5770 -0.2208
   81MOL0     H10868  10.067   1.426   9.360 -0.5466  3.5227  0.5895
   81MOL0     H10869  10.232   1.231   9.355 -1.7915  0.7559 -0.8170
   81MOL0     H10870  10.577   1.271   9.627  0.6440  0.1197  1.0911
   81MOL0     H10871  10.477   1.178   9.738 -0.4089  2.2223 -0.2232
   81MOL0     H10872  10.615   1.046   9.519 -0.4026  0.5025 -1.2320
   81MOL0     H10873  10.544   0.966   9.660  1.4385 -0.4919  2.4281
   81MOL0     H10874  10.720   1.101   9.804 -0.0683 -1.8987  0.9803
   81MOL0     H10875  10.777   1.168   9.652  1.1036 -1.0439 -1.5691
   81MOL0     H10876  10.811   0.891   9.761  0.6912  1.9147  2.3726
   81MOL0     H10877  10.830   0.916   9.581 -1.1984  1.0405 -0.3070
   81MOL0     H10878  10.977   1.095   9.624 -0.5527  1.4038  1.2633
   81MOL0     H10879  10.987   1.053   9.792  2.2117 -0.1668  0.6539
   81MOL0     H10880  11.066   0.818   9.733 -0.7257  0.3142 -0.3372
   81MOL0     H10881  11.063   0.869   9.559 -2.4096  1.1021 -0.0406
   81MOL0     H10882  11.260   0.937   9.779  0.4919  3.9695  0.5194
   81MOL0     H10883  11.225   1.067   9.658  0.5565 -0.3909 -1.6585
   81MOL0     H10884  11.264   0.830   9.510 -4.1890  0.1024  2.5563
   81MOL0     H10885  11.370   0.979   9.523 -0.0167  0.3231 -0.4832
   81MOL0     H10886  11.621   0.888   9.588  2.0650 -0.0978  0.8857
   81MOL0     H10887  11.770   0.641   9.582 -0.8727  0.1163  0.6576
   81MOL0     H10888  11.813   0.759   9.702 -0.1643  1.2546  0.0981
   81MOL0     H10889  11.750   0.598   9.891  0.2577 -1.5203  0.3112
   81MOL0     H10890  11.722   0.470   9.789 -0.9286  0.3332 -0.1905
   81MOL0     H10891  11.987   0.619   9.802  1.1810  0.0150 -1.3474
   81MOL0     H10892  11.945   0.490   9.679 -0.9223 -0.1631  0.8522
   81MOL0     H10893  11.941   0.321   9.843  0.0605 -0.6161  0.5956
   81MOL0     H10894  11.892   0.442   9.967  0.4064  0.7860 -0.3333
   81MOL0     H10895  11.999   0.218  10.035 -0.3114  0.5892 -3.8446
   81MOL0     H10896  12.138   0.063  10.188 -0.7890  0.4340 -0.9219
   81MOL0     H10897  12.662   0.150  10.444  2.4596  0.2740 -2.3059
   81MOL0     H10898  12.765  -0.004  10.595  0.4686  0.6885 -0.6813
   81MOL0     H10899  12.715  -0.418  10.505 -0.1327  0.5753  0.7412
   81MOL0     H10900  12.898  -0.428  10.504  0.2692 -1.8667  1.8079
   81MOL0     H10901  12.731  -0.401  10.746 -0.2981 -0.5212 -0.3395
   81MOL0     H10902  12.750  -0.561  10.690  0.9897 -1.1679  1.2518
   81MOL0     H10903  12.998  -0.373  10.727  3.6588 -1.5847  2.2339
   81MOL0     H10904  12.909  -0.463  10.861 -1.7245 -0.3703  0.5734
   81MOL0     H10905  13.129  -0.565  10.751 -0.5160  0.8223  3.8623
   81MOL0     H10906  13.021  -0.594  10.605 -4.4626 -1.2289  0.3970
   81MOL0     H10907  12.868  -0.724  10.759 -0.2262  3.4827  0.4625
   81MOL0     H10908  12.981  -0.688  10.889 -0.3069  2.2548 -0.4666
   81MOL0     H10909  13.052  -0.864  10.639 -0.1351  4.7716 -1.7955
   81MOL0     H10910  13.146  -0.830  10.765  0.4587  4.3710 -1.0497
   81MOL0     H10911  12.876  -0.950  10.845  1.2544  0.3533  0.9707
   81MOL0     H10912  13.031  -0.978  10.913  1.3300 -0.5724 -0.3645
   81MOL0     H10913  12.956  -1.091  10.650 -3.7873  0.7728  1.4323
   81MOL0     H10914  13.101  -1.130  10.750  0.0369  0.5171  0.8703
   81MOL0     H10915  12.737  -0.316  10.298 -0.4498  0.9012 -2.8764
   81MOL0     H10916  12.592  -0.185  10.172 -0.4848  1.9766 -1.6835
   81MOL0     H10917  12.484   0.282  10.073  0.0197  1.0315 -2.8066
   81MOL0     H10918  12.332   0.452   9.957 -1.3004 -1.2068 -1.8002
   81MOL0     H10919  10.422   1.407   9.699  1.4869 -2.8621 -1.9100
   81MOL0     H10920  10.249   1.586   9.705  1.4627  1.6750 -1.4710
   81MOL0     H10921  10.025   1.976   9.686 -1.4458  2.6832 -0.5536
   81MOL0     H10922   9.816   2.116   9.716 -0.2523 -0.8412  0.3630
   81MOL0     H10923   9.443   2.155   9.730  0.8155  2.8019 -0.1900
   81MOL0     H10924   9.599   2.210   9.690  1.0216 -0.6927  0.7651
   81MOL0     H10925   9.537   2.224   9.923 -2.5526 -0.8591  2.1185
   81MOL0     H10926   9.675   2.101   9.901 -0.1818 -0.2061 -0.6225
   81MOL0     H10927   9.483   1.931   9.888 -0.5710  1.3352 -2.8352
   81MOL0     H10928   9.374   2.056   9.911  0.8862  0.7612 -0.8406
   81MOL0     H10929   9.443   2.062  10.167 -0.2415 -2.6827  2.7575
   81MOL0     H10930   9.443   1.900  10.116 -1.5517  0.0812 -1.1338
   81MOL0     H10931   9.830   1.994  10.262 -1.7183 -1.1436  3.2646
   81MOL0     H10932   9.579   1.793   9.571 -0.5118  0.2444 -5.4562
   81MOL0     H10933   9.801   1.549   9.552  2.1256 -0.6237 -2.8518
   81MOL0     H10934   9.654   1.612   9.475  0.1083 -0.0866  0.1242
   81MOL0     H10935   9.814   1.613   9.394 -1.2175 -1.5799 -0.6426
   82MOL0     O10936   4.779   3.600   4.407  0.0449 -0.3699 -0.1224
   82MOL0     C10937   4.778   3.700   4.342 -0.4847 -0.0344 -0.4121
   82MOL0     O10938   4.884   3.783   4.329  0.8641 -0.0920 -0.1605
   82MOL0     C10939   4.986   3.751   4.425 -0.4130 -0.1825  0.0534
   82MOL0     C10940   5.056   3.636   4.416  0.0721 -0.1924 -0.3171
   82MOL0     C10941   5.162   3.612   4.497 -0.5459  0.5342 -0.5153
   82MOL0     C10942   5.207   3.715   4.586 -0.0571 -0.2432 -0.3291
   82MOL0     O10943   5.317   3.696   4.672 -0.1032  0.1699 -0.2596
   82MOL0     C10944   5.413   3.597   4.638  0.5764  0.1883  0.6715
   82MOL0     C10945   5.555   3.635   4.692 -0.0522 -0.1569 -0.4918
   82MOL0     C10946   5.645   3.679   4.578 -0.1576 -0.1886 -0.8060
   82MOL0     C10947   5.716   3.557   4.541 -0.6148  0.1618  1.0030
   82MOL0     C10948   5.808   3.581   4.422 -0.4728  0.2389 -0.5460
   82MOL0     C10949   5.902   3.462   4.374  0.5100  0.0888 -0.3958
   82MOL0     C10950   6.042   3.516   4.348 -0.4348 -0.3756  0.0298
   82MOL0     C10951   6.137   3.397   4.316  0.7340  0.5289  0.6587
   82MOL0     N10952   6.272   3.446   4.309 -0.3634 -0.5431  0.0269
   82MOL0     C10953   6.353   3.475   4.419  0.2540 -0.2736 -1.0361
   82MOL0     C10954   6.461   3.535   4.368 -0.3251  0.6695  1.1423
   82MOL0     C10955   6.580   3.565   4.454  0.3655  0.4685 -0.1561
   82MOL0     C10956   6.568   3.661   4.566  0.0175  0.6575  0.0903
   82MOL0     C10957   6.674   3.640   4.670  0.3058 -0.3294 -0.6723
   82MOL0     C10958   6.688   3.747   4.772  1.2012  1.0714  0.1120
   82MOL0     O10959   6.556   3.756   4.840  0.0469  0.4201  0.1278
   82MOL0     C10960   6.532   3.864   4.923  0.6483 -0.0236 -0.4886
   82MOL0     C10961   6.421   3.857   5.016 -0.5199 -0.2460  0.0602
   82MOL0     C10962   6.393   3.966   5.111 -0.5659 -0.6396 -0.5027
   82MOL0     C10963   6.469   4.091   5.101 -0.0248  0.3524  0.1842
   82MOL0     C10964   6.425   4.202   5.179  0.4388 -0.9795  0.1167
   82MOL0     O10965   6.479   4.322   5.152  0.6717 -1.2270 -0.5528
   82MOL0     C10966   6.442   4.436   5.220 -0.1794  0.1450  1.3165
   82MOL0     C10967   6.309   4.478   5.216  0.7135 -0.0247  1.2146
   82MOL0     C10968   6.255   4.576   5.290 -0.4942 -0.6352  0.7917
   82MOL0     C10969   6.339   4.639   5.381 -0.4206  0.2198 -0.0773
   82MOL0     O10970   6.265   4.722   5.462 -0.0941 -0.4664 -0.1423
   82MOL0     C10971   6.352   4.799   5.549  0.1520  0.2013 -0.0924
   82MOL0     C10972   6.267   4.871   5.661 -1.0328  0.2985 -0.1343
   82MOL0     C10973   6.129   4.921   5.613  0.6891 -0.4082 -0.2260
   82MOL0     C10974   6.067   5.005   5.719 -0.2974 -0.7015 -0.4425
   82MOL0     C10975   5.914   5.034   5.699 -0.7029  0.0160 -0.0751
   82MOL0     C10976   5.873   5.170   5.741  1.0034  0.1171  0.1504
   82MOL0     C10977   5.840   5.164   5.898 -0.4570 -0.0044  0.8762
   82MOL0     C10978   5.850   5.305   5.950  0.4275  0.3030  0.9977
   82MOL0    Cl10979   5.705   5.400   5.868  0.4035 -0.2139 -0.0651
   82MOL0     C10980   6.480   4.619   5.376  0.1824  0.0508 -0.0269
   82MOL0     C10981   6.529   4.508   5.303 -0.7473 -0.0238  0.5548
   82MOL0     O10982   6.333   4.184   5.259 -0.1647  0.1772 -0.2221
   82MOL0     C10983   6.569   4.096   5.002 -0.8558 -1.0219  0.0438
   82MOL0     C10984   6.607   3.983   4.916 -0.2834 -0.3708 -0.7366
   82MOL0     N10985   6.448   3.511   4.229 -0.1338 -0.4206 -0.3446
   82MOL0     N10986   6.339   3.467   4.198 -0.0355  0.4497  0.5541
   82MOL0     C10987   5.137   3.832   4.597 -0.4169  0.2103  0.0635
   82MOL0     C10988   5.031   3.854   4.510 -1.1931 -0.7381  0.1502
   82MOL0     C10989   4.646   3.751   4.285  0.1139 -0.4377 -0.4913
   82MOL0     C10990   4.622   3.890   4.285  0.0602  1.0241  0.6039
   82MOL0     C10991   4.507   3.949   4.234  0.2152 -0.1357 -0.0208
   82MOL0     C10992   4.411   3.860   4.182 -0.1788  0.9027 -0.0735
   82MOL0     O10993   4.286   3.881   4.136 -0.0971 -0.2551 -0.8146
   82MOL0     C10994   4.230   4.009   4.127  0.1155 -0.4623  0.4272
   82MOL0     C10995   4.199   4.068   4.266 -0.5553 -0.0614 -0.5391
   82MOL0     C10996   4.150   4.206   4.235 -0.2755 -0.3106  0.3789
   82MOL0     C10997   3.997   4.229   4.211 -0.1132  0.0030 -0.6584
   82MOL0     C10998   3.967   4.206   4.065 -0.2402  0.5681  0.4578
   82MOL0     C10999   3.940   4.158   3.959  0.0079  0.3334 -0.4727
   82MOL0     C11000   4.441   3.731   4.167 -0.3236  0.4814  0.3507
   82MOL0     C11001   4.555   3.669   4.219  1.2034 -0.6302  0.5946
   82MOL0     C11002   4.564   3.516   4.201  0.2780 -0.2633 -0.7855
   82MOL0     H11003   5.021   3.558   4.349 -2.1379 -0.1808  0.7296
   82MOL0     H11004   5.208   3.514   4.501  2.0407  1.7130  1.3649
   82MOL0     H11005   5.375   3.501   4.675  0.8721 -0.4010 -0.5077
   82MOL0     H11006   5.421   3.589   4.530  0.2975 -0.9645  0.7241
   82MOL0     H11007   5.595   3.547   4.743 -1.0414 -1.3944 -1.8075
   82MOL0     H11008   5.554   3.705   4.777 -2.7444 -1.0512  0.3083
   82MOL0     H11009   5.718   3.750   4.618 -0.2660 -2.4303  4.2039
   82MOL0     H11010   5.587   3.714   4.492 -0.9628 -1.0065 -0.6181
   82MOL0     H11011   5.775   3.533   4.631  0.2950  3.4463  1.4007
   82MOL0     H11012   5.644   3.477   4.521  1.0339 -1.2540  0.4598
   82MOL0     H11013   5.738   3.605   4.342  1.5915  1.6351 -2.0409
   82MOL0     H11014   5.859   3.677   4.430  1.1594 -0.3953 -2.4622
   82MOL0     H11015   5.910   3.389   4.455  0.8640  2.0896  1.4697
   82MOL0     H11016   5.852   3.416   4.289 -0.7568  0.3270  0.1983
   82MOL0     H11017   6.092   3.559   4.435 -0.3496 -1.6935  0.6417
   82MOL0     H11018   6.029   3.595   4.273 -1.0520  1.3051  1.8113
   82MOL0     H11019   6.144   3.310   4.381  2.9847 -1.0910 -1.5722
   82MOL0     H11020   6.108   3.357   4.218 -0.0993  0.3125  0.9820
   82MOL0     H11021   6.315   3.466   4.520 -0.7258 -2.7499 -1.5433
   82MOL0     H11022   6.610   3.469   4.500 -1.3698 -0.1841 -0.3273
   82MOL0     H11023   6.656   3.612   4.391 -0.6850  2.0847 -0.2694
   82MOL0     H11024   6.581   3.762   4.527 -1.2388  2.2150  3.3294
   82MOL0     H11025   6.472   3.648   4.618  0.4605 -1.4954  0.4960
   82MOL0     H11026   6.774   3.629   4.626  1.7406 -0.7529  2.3782
   82MOL0     H11027   6.653   3.546   4.723  0.0000 -0.5027 -1.0906
   82MOL0     H11028   6.720   3.840   4.724 -0.6771  1.3122 -0.7608
   82MOL0     H11029   6.755   3.710   4.850  0.0809 -0.0487  0.5829
   82MOL0     H11030   6.361   3.767   5.008 -1.0097 -0.2899  3.0395
   82MOL0     H11031   6.316   3.954   5.185 -2.3594 -0.8929 -2.3198
   82MOL0     H11032   6.246   4.423   5.146  2.1645  1.2395 -1.2571
   82MOL0     H11033   6.152   4.609   5.279  0.0382  2.0973  2.9094
   82MOL0     H11034   6.424   4.748   5.613 -1.8766 -0.4588  1.7921
   82MOL0     H11035   6.401   4.877   5.491 -1.8508  1.4897 -0.1776
   82MOL0     H11036   6.257   4.811   5.753  1.9736 -1.8011 -1.0276
   82MOL0     H11037   6.317   4.965   5.685  1.3161 -1.2429  1.5138
   82MOL0     H11038   6.144   4.991   5.530  0.8808 -1.0018 -0.7000
   82MOL0     H11039   6.068   4.834   5.587 -1.8982  1.0325  0.6644
   82MOL0     H11040   6.113   5.105   5.722 -3.2461  0.7338  1.4337
   82MOL0     H11041   6.076   4.960   5.818 -3.4241 -2.4091 -0.8417
   82MOL0     H11042   5.851   4.950   5.729 -1.3814  0.2209 -0.8797
   82MOL0     H11043   5.900   5.045   5.591 -1.0877  0.2250 -0.0058
   82MOL0     H11044   5.945   5.249   5.717 -1.9158  3.2778  0.8871
   82MOL0     H11045   5.787   5.206   5.684  1.9896  3.9785  0.8042
   82MOL0     H11046   5.923   5.116   5.950 -1.0211 -2.0631 -0.0509
   82MOL0     H11047   5.747   5.110   5.914  1.1323 -2.5597  2.0905
   82MOL0     H11048   5.852   5.296   6.059  1.6843 -4.0814  0.8183
   82MOL0     H11049   5.950   5.348   5.936 -0.0449  1.1783  0.1106
   82MOL0     H11050   6.545   4.680   5.438  0.5118  1.3670 -1.5992
   82MOL0     H11051   6.635   4.490   5.314 -0.2493  1.2801 -1.4876
   82MOL0     H11052   6.629   4.185   4.985 -0.9233 -0.7491  1.1120
   82MOL0     H11053   6.689   4.002   4.847  1.9843  0.2252  1.9443
   82MOL0     H11054   5.185   3.911   4.654  2.2951 -1.3910  0.1761
   82MOL0     H11055   4.974   3.946   4.505 -0.2172 -0.1345 -0.2968
   82MOL0     H11056   4.698   3.953   4.329 -1.3432  0.8337  3.5715
   82MOL0     H11057   4.506   4.057   4.219  2.7103  0.1206  1.1988
   82MOL0     H11058   4.134   3.996   4.076  1.0211  0.4794 -1.6482
   82MOL0     H11059   4.287   4.082   4.069  1.0805 -1.1787  0.4399
   82MOL0     H11060   4.279   4.080   4.340 -0.3736  0.7220 -0.8516
   82MOL0     H11061   4.128   4.000   4.314  1.1343 -1.2146  0.4238
   82MOL0     H11062   4.195   4.245   4.143 -0.1015 -1.2597  0.0523
   82MOL0     H11063   4.181   4.276   4.313  1.6248 -4.0126  3.2283
   82MOL0     H11064   3.944   4.163   4.280  1.8741  0.7514  1.7488
   82MOL0     H11065   3.965   4.328   4.246  0.8077  0.1803 -0.2906
   82MOL0     H11066   3.916   4.109   3.867  0.9404  0.8119 -0.9820
   82MOL0     H11067   4.362   3.673   4.120 -2.2005  3.0834  0.1070
   82MOL0     H11068   4.476   3.475   4.150 -0.9013  0.4230  0.6108
   82MOL0     H11069   4.652   3.501   4.139 -0.3203  1.5068 -2.1604
   82MOL0     H11070   4.578   3.461   4.294  0.2080  2.2659  0.8239
   83MOL0     O11071   6.811   7.482   7.139 -1.1043 -0.2569 -0.3269
   83MOL0     C11072   6.880   7.425   7.224 -1.1310 -0.6387  0.5500
   83MOL0     O11073   6.901   7.483   7.351  0.4739  0.1564 -0.1577
   83MOL0     C11074   6.813   7.581   7.384  0.1878 -1.0122 -0.3886
   83MOL0     C11075   6.707   7.558   7.470 -0.0323  0.6681 -0.5420
   83MOL0     C11076   6.617   7.659   7.497  0.9108  0.3198  0.0020
   83MOL0     C11077   6.641   7.786   7.438 -0.0744 -0.2060  0.3078
   83MOL0     O11078   6.536   7.872   7.457  0.3829  0.0193  0.6624
   83MOL0     C11079   6.553   7.996   7.382 -0.2194  0.0393  0.6181
   83MOL0     C11080   6.412   8.061   7.395  0.2987 -0.5570 -1.0456
   83MOL0     C11081   6.372   8.077   7.540 -0.5559 -0.2350 -0.7495
   83MOL0     C11082   6.268   8.183   7.555  0.5879  0.1394 -0.3359
   83MOL0     C11083   6.168   8.139   7.670  0.1444  0.9312 -0.3310
   83MOL0     C11084   6.057   8.244   7.682 -0.1479 -0.9040 -0.0318
   83MOL0     C11085   5.966   8.250   7.553  0.6043 -0.4892  0.0628
   83MOL0     C11086   5.845   8.350   7.585 -0.1083 -0.6337 -0.4057
   83MOL0     N11087   5.748   8.353   7.473  0.2353  0.5534  0.0405
   83MOL0     C11088   5.666   8.258   7.422 -0.1880 -0.1888  0.7155
   83MOL0     C11089   5.615   8.308   7.301 -1.3551  0.4361  0.8868
   83MOL0     C11090   5.526   8.234   7.209  0.7567  0.7551 -0.0951
   83MOL0     C11091   5.386   8.220   7.280  0.8558  0.8173  0.5393
   83MOL0     C11092   5.292   8.179   7.172  0.2586  0.5433  0.2128
   83MOL0     C11093   5.147   8.164   7.216  0.4629  0.0809 -0.0254
   83MOL0     O11094   5.132   8.115   7.350  0.1566  0.5701 -0.3614
   83MOL0     C11095   5.004   8.126   7.405 -0.4028 -0.6771 -0.4167
   83MOL0     C11096   4.891   8.184   7.340 -0.0939  0.4621  0.8156
   83MOL0     C11097   4.772   8.200   7.413  0.0866 -1.0081 -0.1433
   83MOL0     C11098   4.759   8.138   7.547 -0.4883 -0.2893 -0.6208
   83MOL0     C11099   4.631   8.139   7.619 -0.2472  0.1446 -0.4281
   83MOL0     O11100   4.612   8.044   7.708  0.2854  0.1383 -0.4255
   83MOL0     C11101   4.488   8.032   7.765  0.2170 -0.0036  0.5626
   83MOL0     C11102   4.491   8.035   7.905  0.9325  0.2612 -0.5935
   83MOL0     C11103   4.369   8.026   7.984  0.0738  0.1459  0.2028
   83MOL0     C11104   4.244   8.005   7.918 -0.2095 -0.7423 -0.0158
   83MOL0     O11105   4.147   7.974   8.007  0.4543 -0.2881 -0.1997
   83MOL0     C11106   4.063   7.867   7.969 -0.1116  0.0671 -0.2168
   83MOL0     C11107   3.936   7.866   8.051  0.7282  0.7345  0.6284
   83MOL0     C11108   3.871   8.012   8.055  1.1705  0.4952  0.2958
   83MOL0     C11109   3.721   8.009   8.047  0.0848 -0.6652  0.5903
   83MOL0     C11110   3.668   8.152   8.019  0.1718 -0.4700  0.8713
   83MOL0     C11111   3.518   8.153   7.994 -0.4547 -0.7148 -0.6403
   83MOL0     C11112   3.469   8.284   7.921 -0.7013  0.3411  0.0325
   83MOL0     C11113   3.330   8.258   7.844 -0.9851  1.1624  0.2158
   83MOL0    Cl11114   3.275   8.407   7.757  0.3151  0.1340 -0.5502
   83MOL0     C11115   4.246   7.996   7.778 -0.7870 -1.1589  0.3965
   83MOL0     C11116   4.365   8.011   7.699  0.2749 -0.6957 -0.1761
   83MOL0     O11117   4.554   8.224   7.579 -0.3005  0.3663  0.0357
   83MOL0     C11118   4.871   8.091   7.610 -0.0714 -1.7256 -0.0943
   83MOL0     C11119   4.991   8.075   7.542  0.5139 -0.2435 -0.1527
   83MOL0     N11120   5.679   8.431   7.276  0.4147 -0.4195  0.9070
   83MOL0     N11121   5.733   8.457   7.388 -0.2285  0.3011 -0.2432
   83MOL0     C11122   6.756   7.810   7.346  0.4893  0.1552  0.1364
   83MOL0     C11123   6.842   7.709   7.339  0.5368 -0.1879 -0.2241
   83MOL0     C11124   6.950   7.299   7.185 -0.6160 -0.1517 -0.0462
   83MOL0     C11125   6.936   7.260   7.050 -0.1516  0.4712  0.4855
   83MOL0     C11126   6.996   7.143   6.996 -0.2474 -0.3595 -0.3945
   83MOL0     C11127   7.074   7.062   7.077 -0.3869 -0.2000 -0.5129
   83MOL0     O11128   7.135   6.940   7.042  0.1951 -0.2573  0.6507
   83MOL0     C11129   7.171   6.938   6.904 -1.0031  0.0558 -0.6438
   83MOL0     C11130   7.271   6.816   6.892  0.7448  0.2823 -0.1323
   83MOL0     C11131   7.283   6.775   6.743 -0.1777 -0.2192  0.0879
   83MOL0     C11132   7.339   6.897   6.652  0.5085  0.2460 -0.4590
   83MOL0     C11133   7.475   6.933   6.691 -0.7013  0.1252  0.0107
   83MOL0     C11134   7.586   6.963   6.731 -0.0619  0.4976  0.3270
   83MOL0     C11135   7.087   7.103   7.208 -0.6534  0.0938 -0.2680
   83MOL0     C11136   7.025   7.211   7.268 -0.0055 -0.3657  0.0141
   83MOL0     C11137   7.036   7.231   7.418 -0.2475  0.4071  0.2440
   83MOL0     H11138   6.704   7.460   7.517  0.1124 -0.4741 -2.7870
   83MOL0     H11139   6.535   7.644   7.567  2.7478 -2.2789  1.7721
   83MOL0     H11140   6.620   8.060   7.439 -2.4012 -0.6254  4.2347
   83MOL0     H11141   6.579   7.998   7.276  1.9047  2.6501  1.0701
   83MOL0     H11142   6.330   8.003   7.353  0.5479 -1.8569  0.1941
   83MOL0     H11143   6.409   8.162   7.352 -0.2724 -0.2895 -0.3921
   83MOL0     H11144   6.465   8.090   7.598 -1.0220 -2.0966  0.4991
   83MOL0     H11145   6.330   7.981   7.572  0.0147 -0.6491 -1.2323
   83MOL0     H11146   6.315   8.276   7.589 -0.5271  0.8071 -0.5868
   83MOL0     H11147   6.211   8.194   7.462 -1.6987 -2.0002  0.7195
   83MOL0     H11148   6.119   8.043   7.651  1.2621  0.2324  0.1418
   83MOL0     H11149   6.230   8.124   7.759  1.3985 -0.0647 -1.3346
   83MOL0     H11150   6.007   8.214   7.774  1.5786  0.0857  1.2814
   83MOL0     H11151   6.099   8.343   7.698 -1.8960  0.0654 -1.0680
   83MOL0     H11152   5.916   8.154   7.540 -3.0782  0.9490  2.0744
   83MOL0     H11153   6.017   8.283   7.462  1.5300 -2.3584 -0.1427
   83MOL0     H11154   5.787   8.314   7.670 -2.4542  2.9266 -0.2642
   83MOL0     H11155   5.889   8.449   7.603 -3.5978  0.6944  1.9166
   83MOL0     H11156   5.637   8.162   7.462  0.8762 -0.6072  0.5246
   83MOL0     H11157   5.524   8.288   7.114  1.4609 -0.8212 -1.0369
   83MOL0     H11158   5.569   8.134   7.194 -1.3417 -0.2396  0.2119
   83MOL0     H11159   5.394   8.153   7.366 -0.6962  3.2759  2.7486
   83MOL0     H11160   5.346   8.312   7.323 -0.4308  0.1131  0.8976
   83MOL0     H11161   5.323   8.081   7.134 -3.8339 -1.9125  2.3756
   83MOL0     H11162   5.290   8.242   7.083 -2.2090 -0.3553 -0.4505
   83MOL0     H11163   5.092   8.097   7.150  0.0718  1.1181 -0.7644
   83MOL0     H11164   5.106   8.265   7.211  0.9305  0.2177 -3.2390
   83MOL0     H11165   4.902   8.211   7.236  1.1137  0.4420  0.9224
   83MOL0     H11166   4.689   8.252   7.366  1.2270  1.4437  0.3985
   83MOL0     H11167   4.590   8.021   7.946  0.4601  0.2880  0.6038
   83MOL0     H11168   4.378   8.019   8.091 -0.2288 -0.0342  0.2178
   83MOL0     H11169   4.026   7.882   7.867 -1.1759  3.5960  0.5601
   83MOL0     H11170   4.106   7.767   7.982 -2.8348 -1.0943  0.4150
   83MOL0     H11171   3.861   7.794   8.016 -1.7439  3.0657  0.8301
   83MOL0     H11172   3.965   7.833   8.151  1.2588  0.4066  0.3737
   83MOL0     H11173   3.907   8.055   8.149 -0.2088  1.7712  0.2583
   83MOL0     H11174   3.914   8.073   7.975  1.8854  0.4888  0.6669
   83MOL0     H11175   3.694   7.976   8.148 -0.9545  0.5809  0.7464
   83MOL0     H11176   3.680   7.942   7.970  0.6874 -0.2504 -0.0989
   83MOL0     H11177   3.720   8.191   7.931 -0.4651  3.7617  2.1324
   83MOL0     H11178   3.696   8.224   8.096  2.5672 -0.1341 -0.2125
   83MOL0     H11179   3.492   8.066   7.933  1.9330 -1.8979 -0.0799
   83MOL0     H11180   3.463   8.128   8.085 -2.0996  0.6872 -1.1946
   83MOL0     H11181   3.549   8.306   7.850 -1.1648 -3.7418 -2.0459
   83MOL0     H11182   3.456   8.366   7.992 -0.9309  1.0527 -0.8184
   83MOL0     H11183   3.363   8.185   7.770  1.8129  1.8073  0.6921
   83MOL0     H11184   3.254   8.214   7.908 -1.6196  1.6175 -0.2108
   83MOL0     H11185   4.148   7.996   7.731  0.7448  0.4462 -3.1523
   83MOL0     H11186   4.362   8.020   7.591  1.2116  1.5571 -0.0815
   83MOL0     H11187   4.867   8.062   7.714  3.3744 -2.7053 -0.1416
   83MOL0     H11188   5.072   8.024   7.593 -0.6824 -0.9729  1.1172
   83MOL0     H11189   6.755   7.899   7.284 -0.4103 -1.3595 -2.1791
   83MOL0     H11190   6.923   7.731   7.270  0.7122  0.9133  0.2983
   83MOL0     H11191   6.877   7.322   6.983  0.2806  0.5579  0.1848
   83MOL0     H11192   7.001   7.113   6.892 -1.4361 -0.1365 -0.5305
   83MOL0     H11193   7.233   7.025   6.882  1.6263 -1.5769 -0.0716
   83MOL0     H11194   7.090   6.917   6.833  0.7175 -2.1342 -2.0646
   83MOL0     H11195   7.238   6.726   6.945 -0.7254 -0.5727 -2.3391
   83MOL0     H11196   7.370   6.853   6.921 -0.7757  2.3952  2.8209
   83MOL0     H11197   7.192   6.723   6.715  1.1792 -3.0218  0.4915
   83MOL0     H11198   7.362   6.699   6.735  1.5687  1.5923 -0.7497
   83MOL0     H11199   7.334   6.860   6.549 -3.1798  1.4297 -0.8650
   83MOL0     H11200   7.280   6.989   6.650  3.2127  2.1101  0.5740
   83MOL0     H11201   7.686   6.993   6.756 -0.2444  1.1666  0.2655
   83MOL0     H11202   7.140   7.036   7.276  0.8990  0.8287 -0.7144
   83MOL0     H11203   7.055   7.137   7.470 -0.0191 -0.6208 -1.6280
   83MOL0     H11204   7.119   7.297   7.446  0.6517 -1.7449  3.1236
   83MOL0     H11205   6.945   7.274   7.461 -0.1004 -0.4174  1.4382
   84MOL0     O11206   7.457   0.359   5.924 -0.1010 -0.0916  1.0118
   84MOL0     C11207   7.474   0.431   5.827  0.1900  0.1226  0.0871
   84MOL0     O11208   7.434   0.400   5.702 -0.1273  1.0289 -0.2823
   84MOL0     C11209   7.307   0.344   5.693  0.4529 -1.2118 -0.3660
   84MOL0     C11210   7.200   0.426   5.657  0.6929 -1.0632 -0.2987
   84MOL0     C11211   7.068   0.367   5.641 -0.4155  0.1435  0.6832
   84MOL0     C11212   7.039   0.233   5.656  0.7469 -1.1269 -0.7073
   84MOL0     O11213   6.904   0.210   5.656  0.3746  0.0986 -0.1037
   84MOL0     C11214   6.871   0.083   5.711  0.3700 -0.5756 -0.4790
   84MOL0     C11215   6.721   0.067   5.729  0.6470 -0.2063  0.1260
   84MOL0     C11216   6.645   0.092   5.604 -0.0884 -0.1448  0.6100
   84MOL0     C11217   6.495   0.056   5.615  0.7315 -0.5087  0.0577
   84MOL0     C11218   6.421   0.069   5.480 -0.2747  0.8374 -0.2070
   84MOL0     C11219   6.290  -0.013   5.474  0.3162 -0.0729 -0.1529
   84MOL0     C11220   6.235  -0.036   5.329  0.3277 -0.3043  0.6599
   84MOL0     C11221   6.255  -0.185   5.283  0.3236 -0.0475  0.4442
   84MOL0     N11222   6.398  -0.206   5.275 -0.7858 -0.1482  1.0218
   84MOL0     C11223   6.471  -0.138   5.174  0.1417 -0.4534 -0.0612
   84MOL0     C11224   6.602  -0.136   5.216  0.7075 -0.3811  0.7627
   84MOL0     C11225   6.709  -0.056   5.136 -0.1860  0.4725 -0.1204
   84MOL0     C11226   6.848  -0.111   5.155 -0.6765  0.1248 -1.1766
   84MOL0     C11227   6.913  -0.082   5.292  0.2870  0.3073 -0.1427
   84MOL0     C11228   6.983   0.052   5.293 -0.3430 -0.4858  0.3425
   84MOL0     O11229   7.111   0.062   5.222 -0.4042  0.6588 -0.0212
   84MOL0     C11230   7.213   0.138   5.259 -0.4145 -0.3386  0.2847
   84MOL0     C11231   7.194   0.267   5.313  0.0564  1.0801  0.2095
   84MOL0     C11232   7.303   0.347   5.347  0.8319  0.8092 -0.4848
   84MOL0     C11233   7.437   0.305   5.316  0.4643 -0.0782  0.5005
   84MOL0     C11234   7.555   0.378   5.353  0.3691  0.2038  0.1715
   84MOL0     O11235   7.676   0.329   5.322  0.7447  0.2607 -0.7852
   84MOL0     C11236   7.792   0.383   5.357 -0.3089 -0.2515 -0.3449
   84MOL0     C11237   7.900   0.302   5.397 -0.2420 -0.6730 -0.2150
   84MOL0     C11238   8.021   0.356   5.445  0.2582 -0.2399 -1.1331
   84MOL0     C11239   8.035   0.501   5.445  0.3350  0.0673 -0.8578
   84MOL0     O11240   8.157   0.550   5.490 -0.9522  0.0210  0.4749
   84MOL0     C11241   8.214   0.487   5.609  0.6111 -0.3558 -0.9709
   84MOL0     C11242   8.302   0.583   5.684  0.2427  0.1857 -1.1163
   84MOL0     C11243   8.414   0.625   5.587  1.2298  0.2349 -0.3747
   84MOL0     C11244   8.531   0.691   5.660  0.3743 -0.6155 -0.8036
   84MOL0     C11245   8.500   0.833   5.696 -0.8641 -0.4445 -0.0154
   84MOL0     C11246   8.592   0.903   5.790  0.1209  0.0643 -0.1222
   84MOL0     C11247   8.540   1.041   5.826 -1.0381 -0.5944  0.6164
   84MOL0     C11248   8.406   1.057   5.898  0.6544 -0.0929 -0.5020
   84MOL0    Cl11249   8.387   1.233   5.931 -0.3106 -0.3711  0.4327
   84MOL0     C11250   7.932   0.583   5.400  1.4999 -0.0631 -0.5850
   84MOL0     C11251   7.815   0.521   5.350  0.7218  0.4854 -0.4586
   84MOL0     O11252   7.540   0.473   5.420 -0.5377 -0.0675  0.3214
   84MOL0     C11253   7.458   0.180   5.245  0.2563  0.0082  0.3379
   84MOL0     C11254   7.348   0.091   5.222  0.4034  0.3270  0.3962
   84MOL0     N11255   6.606  -0.210   5.332  0.5920  0.8918  0.0916
   84MOL0     N11256   6.481  -0.260   5.371 -0.0387  0.1586  0.2666
   84MOL0     C11257   7.152   0.149   5.691  0.2469  0.2921 -0.8978
   84MOL0     C11258   7.279   0.205   5.696 -0.2423  0.4474 -0.6374
   84MOL0     C11259   7.581   0.531   5.840 -0.0248  0.7600  0.4808
   84MOL0     C11260   7.663   0.558   5.726 -0.3899 -0.2483  0.2230
   84MOL0     C11261   7.760   0.662   5.723 -0.1937  0.2638 -0.4983
   84MOL0     C11262   7.778   0.739   5.842  0.6231  0.1165  0.5106
   84MOL0     O11263   7.881   0.830   5.846 -0.0200  1.0443 -0.6015
   84MOL0     C11264   7.976   0.845   5.743  0.2622 -1.0882  0.1490
   84MOL0     C11265   7.913   0.928   5.629  0.2384  0.0771  0.3291
   84MOL0     C11266   7.901   1.074   5.669  0.7726 -0.2854 -0.0272
   84MOL0     C11267   7.827   1.161   5.564  0.3336  0.8171  0.7743
   84MOL0     C11268   7.824   1.301   5.597 -0.1634  0.4824 -0.5788
   84MOL0     C11269   7.814   1.412   5.638 -0.1587 -0.2029 -0.6627
   84MOL0     C11270   7.712   0.703   5.957  0.5369 -0.0877  0.1554
   84MOL0     C11271   7.617   0.599   5.962  0.1425  0.6200 -1.3187
   84MOL0     C11272   7.567   0.569   6.104 -0.3165 -0.1229 -0.3028
   84MOL0     H11273   7.213   0.533   5.647  1.2349 -1.2835 -2.5256
   84MOL0     H11274   6.990   0.440   5.624 -2.0775 -1.0461  2.6484
   84MOL0     H11275   6.903   0.008   5.638  2.5057  1.0963 -1.3754
   84MOL0     H11276   6.915   0.062   5.809 -1.3441 -2.7047 -0.0920
   84MOL0     H11277   6.688   0.135   5.808 -1.2956 -1.3998  0.4140
   84MOL0     H11278   6.701  -0.032   5.770 -2.6546  0.3847  0.2057
   84MOL0     H11279   6.685   0.032   5.522 -0.7420 -2.0716  1.6368
   84MOL0     H11280   6.664   0.197   5.581  1.6475 -0.1925  1.5912
   84MOL0     H11281   6.497  -0.051   5.638  1.1206 -0.3601  0.7370
   84MOL0     H11282   6.434   0.109   5.689 -0.0649  1.4536 -1.8919
   84MOL0     H11283   6.397   0.174   5.459 -0.1198  0.9066 -0.0378
   84MOL0     H11284   6.483   0.021   5.403  1.7717 -1.2153  2.4935
   84MOL0     H11285   6.290  -0.112   5.522  1.2737  0.9639  2.1462
   84MOL0     H11286   6.219   0.050   5.529 -0.2171 -0.4457 -0.4057
   84MOL0     H11287   6.298   0.025   5.263 -0.8294 -0.9404 -1.1047
   84MOL0     H11288   6.130  -0.007   5.322  0.4163 -0.3875 -3.3073
   84MOL0     H11289   6.226  -0.257   5.360  0.0653 -1.5979 -1.0484
   84MOL0     H11290   6.201  -0.208   5.191  0.3601  3.2409 -0.5022
   84MOL0     H11291   6.437  -0.073   5.094  0.5965  0.1703  0.2482
   84MOL0     H11292   6.689  -0.062   5.029 -0.0697 -0.2894 -0.1075
   84MOL0     H11293   6.714   0.051   5.157 -1.4455  0.7490 -1.1332
   84MOL0     H11294   6.847  -0.220   5.165  2.5480  0.1509  0.7726
   84MOL0     H11295   6.910  -0.078   5.071  0.2628 -2.0829 -1.4284
   84MOL0     H11296   6.982  -0.157   5.332  1.2266  0.9652 -0.4988
   84MOL0     H11297   6.841  -0.083   5.375  0.0153 -2.2559 -0.3410
   84MOL0     H11298   7.009   0.079   5.396 -1.3771 -0.6849  0.6677
   84MOL0     H11299   6.915   0.134   5.267 -1.7483 -1.6692  0.1939
   84MOL0     H11300   7.096   0.300   5.346 -1.2346 -0.8524 -1.4402
   84MOL0     H11301   7.290   0.446   5.390  1.3536  0.1036  1.3745
   84MOL0     H11302   7.900   0.194   5.394  1.9107 -0.7658  0.9927
   84MOL0     H11303   8.099   0.288   5.479 -2.2850 -0.9983  4.3130
   84MOL0     H11304   8.130   0.457   5.672  1.9671  0.2857  1.2471
   84MOL0     H11305   8.265   0.391   5.596 -0.9374 -2.4436  5.2484
   84MOL0     H11306   8.242   0.668   5.720 -0.8722 -1.0323 -0.0019
   84MOL0     H11307   8.343   0.532   5.772  0.2324  2.3008  0.2115
   84MOL0     H11308   8.473   0.539   5.552 -0.2134 -1.6057  1.5208
   84MOL0     H11309   8.371   0.679   5.502  0.3096  2.9481  1.6705
   84MOL0     H11310   8.622   0.678   5.600  0.8898 -0.8710  0.0211
   84MOL0     H11311   8.555   0.639   5.753  1.7666  1.5063  0.0837
   84MOL0     H11312   8.403   0.825   5.746 -1.2721  2.4143 -0.2087
   84MOL0     H11313   8.483   0.889   5.604  0.3036  1.0901  0.6626
   84MOL0     H11314   8.593   0.842   5.880 -1.6861 -0.2845 -0.2896
   84MOL0     H11315   8.692   0.912   5.748 -0.1506  1.3151 -0.5555
   84MOL0     H11316   8.532   1.102   5.736  0.2457 -1.5846 -0.2117
   84MOL0     H11317   8.616   1.083   5.892 -0.6154 -0.8068  0.2725
   84MOL0     H11318   8.321   1.011   5.847 -0.6821  0.7563  0.8644
   84MOL0     H11319   8.423   1.002   5.991 -2.2748 -0.0180  0.1872
   84MOL0     H11320   7.953   0.689   5.406 -0.4119  0.4009 -1.4899
   84MOL0     H11321   7.737   0.593   5.329  2.1001  2.3240  0.4255
   84MOL0     H11322   7.560   0.146   5.232  1.2587  2.1676  1.9835
   84MOL0     H11323   7.365  -0.007   5.180  0.6349  0.7768 -0.5809
   84MOL0     H11324   7.146   0.045   5.723 -3.2522  0.3907 -0.7986
   84MOL0     H11325   7.361   0.140   5.724 -0.7506  1.2141  3.1512
   84MOL0     H11326   7.647   0.513   5.628  0.6866  0.8489 -0.4830
   84MOL0     H11327   7.817   0.668   5.631  1.6266 -2.4296  0.3294
   84MOL0     H11328   8.008   0.747   5.706 -2.3338 -0.3845 -4.7586
   84MOL0     H11329   8.059   0.901   5.787 -1.7062  0.8850  1.5884
   84MOL0     H11330   7.814   0.885   5.612  0.8162 -1.4615  0.6615
   84MOL0     H11331   7.968   0.926   5.535  0.6989  1.7635  0.5274
   84MOL0     H11332   8.003   1.111   5.680  1.2444 -1.2352 -1.0347
   84MOL0     H11333   7.857   1.078   5.769  0.9301 -1.7827  0.1160
   84MOL0     H11334   7.879   1.151   5.469 -3.6645  5.0642 -2.3667
   84MOL0     H11335   7.724   1.124   5.553  1.5055 -1.8823 -2.9951
   84MOL0     H11336   7.806   1.510   5.682 -1.4610 -0.1615 -0.9732
   84MOL0     H11337   7.741   0.760   6.045  0.0115 -0.2102  0.4089
   84MOL0     H11338   7.622   0.637   6.171 -1.7683  1.6949 -0.8810
   84MOL0     H11339   7.463   0.592   6.126  0.3080  0.0453  2.9312
   84MOL0     H11340   7.583   0.464   6.129 -1.0350 -0.3012 -0.5687
   85MOL0     O11341   7.020   1.097   9.766  0.0386 -0.0972  0.0018
   85MOL0     C11342   7.080   1.184   9.827 -0.1803 -0.5676 -0.3862
   85MOL0     O11343   7.085   1.315   9.789  0.5315  0.0490 -0.6596
   85MOL0     C11344   6.984   1.378   9.728  0.3359 -0.6453  0.0003
   85MOL0     C11345   6.881   1.318   9.641  0.0716 -0.1045 -0.5202
   85MOL0     C11346   6.773   1.392   9.601 -0.0679 -0.1993  0.8053
   85MOL0     C11347   6.748   1.520   9.636 -0.6237  0.3336  0.1690
   85MOL0     O11348   6.637   1.595   9.608 -0.0902 -0.5888  0.5884
   85MOL0     C11349   6.610   1.590   9.464  0.3700 -0.5711 -0.8353
   85MOL0     C11350   6.715   1.643   9.363 -0.5990 -0.0838 -0.3745
   85MOL0     C11351   6.700   1.789   9.329  0.5236  1.3345  0.5279
   85MOL0     C11352   6.723   1.885   9.443  0.1149 -0.5322 -0.6513
   85MOL0     C11353   6.877   1.895   9.465  0.3944 -0.6791  0.0059
   85MOL0     C11354   6.912   1.993   9.578 -0.6064 -0.2031  0.2481
   85MOL0     C11355   6.901   2.143   9.549 -1.3447 -0.2889 -0.1248
   85MOL0     C11356   6.984   2.231   9.646  0.2324 -0.5908  0.6741
   85MOL0     N11357   6.899   2.273   9.752 -0.1453  0.1576  0.0556
   85MOL0     C11358   6.792   2.361   9.737 -0.4988  0.8897 -1.2053
   85MOL0     C11359   6.743   2.372   9.864 -0.5144 -0.2501 -0.5374
   85MOL0     C11360   6.631   2.466   9.898 -0.6206 -0.5990  0.3820
   85MOL0     C11361   6.590   2.485  10.046 -0.5787  0.4175  0.6633
   85MOL0     C11362   6.470   2.592  10.053  0.2435 -0.3701 -0.5922
   85MOL0     C11363   6.355   2.560  10.147 -0.1129  0.3109  0.6766
   85MOL0     O11364   6.237   2.568  10.066 -0.1081  0.1815 -0.3770
   85MOL0     C11365   6.124   2.526  10.132  0.5657  0.2850  0.1393
   85MOL0     C11366   6.015   2.488  10.048 -0.3480 -0.2992 -0.9982
   85MOL0     C11367   5.884   2.460  10.095 -1.2015 -0.0090 -0.4144
   85MOL0     C11368   5.862   2.458  10.228  0.6123 -1.4456  0.2389
   85MOL0     C11369   5.723   2.450  10.281  0.1995  1.1140 -0.2994
   85MOL0     O11370   5.625   2.429  10.186 -0.6821  0.1105 -0.5069
   85MOL0     C11371   5.492   2.395  10.215 -0.3667 -0.7639  0.0278
   85MOL0     C11372   5.455   2.336  10.345  0.5443 -0.8292  0.3632
   85MOL0     C11373   5.319   2.338  10.382 -0.1275  0.3254 -0.6451
   85MOL0     C11374   5.213   2.369  10.299 -0.0027 -0.1743  0.1265
   85MOL0     O11375   5.085   2.363  10.347  0.4492  0.3666 -0.4764
   85MOL0     C11376   4.973   2.427  10.282 -0.6247 -0.1227  0.4466
   85MOL0     C11377   4.854   2.385  10.360 -0.4825 -0.6368 -0.4280
   85MOL0     C11378   4.723   2.459  10.306  0.3360  0.3833  0.1901
   85MOL0     C11379   4.590   2.381  10.349 -0.6086 -0.4518 -0.2537
   85MOL0     C11380   4.468   2.427  10.285  0.4202  0.8772  1.0469
   85MOL0     C11381   4.343   2.344  10.322  0.6496  0.5720 -0.9702
   85MOL0     C11382   4.232   2.388  10.217  0.6235 -0.2626 -0.0164
   85MOL0     C11383   4.096   2.311  10.244 -0.7464  0.6166  0.1582
   85MOL0    Cl11384   4.121   2.129  10.234  0.0767 -0.0795 -0.1263
   85MOL0     C11385   5.251   2.416  10.164  0.1747 -0.6020 -0.7530
   85MOL0     C11386   5.384   2.430  10.135  0.1303  0.5450  1.2066
   85MOL0     O11387   5.703   2.458  10.402 -0.0316 -0.4305 -0.4877
   85MOL0     C11388   5.975   2.463  10.316 -0.3443 -0.2932  0.3235
   85MOL0     C11389   6.099   2.497  10.264 -0.6849  0.6060  0.0685
   85MOL0     N11390   6.799   2.282   9.949  0.9089 -0.9628  0.2764
   85MOL0     N11391   6.896   2.230   9.881 -0.6262  0.4441  0.2645
   85MOL0     C11392   6.850   1.581   9.704 -0.7934  0.0981 -1.1105
   85MOL0     C11393   6.967   1.514   9.755  0.7710  0.0658 -0.2252
   85MOL0     C11394   7.153   1.136   9.951 -1.4591 -0.3204 -0.2888
   85MOL0     C11395   7.153   1.002   9.991 -0.0462  0.4524  0.1587
   85MOL0     C11396   7.215   0.964  10.107  0.0370  0.6635 -0.5499
   85MOL0     C11397   7.311   1.040  10.177 -0.0110  0.5441  0.7897
   85MOL0     O11398   7.395   1.004  10.282 -0.1166 -0.8985 -0.1710
   85MOL0     C11399   7.372   0.878  10.348  0.4596 -0.4989  0.7041
   85MOL0     C11400   7.490   0.866  10.453  0.7596 -0.2489 -0.1780
   85MOL0     C11401   7.625   0.866  10.391 -0.8967 -0.2612  0.1515
   85MOL0     C11402   7.734   0.823  10.485 -0.1564 -0.9368  0.5168
   85MOL0     C11403   7.864   0.827  10.415 -1.2455 -0.7775 -0.4306
   85MOL0     C11404   7.971   0.818  10.370 -0.0263 -0.5706  0.8195
   85MOL0     C11405   7.332   1.169  10.121  0.8856  0.9065 -0.9761
   85MOL0     C11406   7.248   1.219  10.015 -0.3925 -0.5565 -0.3917
   85MOL0     C11407   7.256   1.367  10.021  1.0461  0.2887  0.9926
   85MOL0     H11408   6.895   1.213   9.619  1.4591  0.1397 -0.9263
   85MOL0     H11409   6.695   1.344   9.542 -0.2459  1.5271 -0.4390
   85MOL0     H11410   6.569   1.491   9.439  0.8691 -0.9341 -0.2145
   85MOL0     H11411   6.519   1.649   9.449 -0.8432 -1.4466  2.3800
   85MOL0     H11412   6.693   1.584   9.274 -1.3632  2.5286 -2.0574
   85MOL0     H11413   6.816   1.613   9.391 -0.4722  0.3810 -0.3186
   85MOL0     H11414   6.599   1.804   9.289 -0.3957  3.9432  3.4331
   85MOL0     H11415   6.771   1.811   9.250 -1.7205 -1.0838 -2.4359
   85MOL0     H11416   6.691   1.984   9.411  2.9969  2.4146  4.2322
   85MOL0     H11417   6.679   1.859   9.540  2.0484  0.1210  0.4770
   85MOL0     H11418   6.928   1.804   9.498  2.2056  0.9866  2.1192
   85MOL0     H11419   6.918   1.934   9.371  1.0812  0.0190  0.5765
   85MOL0     H11420   6.843   1.973   9.661 -0.5478  0.6123  0.5058
   85MOL0     H11421   7.018   1.975   9.600 -1.0310 -1.4318  1.4691
   85MOL0     H11422   6.798   2.179   9.548 -1.2001  0.4047  2.4635
   85MOL0     H11423   6.943   2.165   9.450 -1.1193 -0.5221 -0.0822
   85MOL0     H11424   7.076   2.179   9.673  1.2712 -1.0657 -3.2148
   85MOL0     H11425   7.007   2.326   9.595  4.3575 -1.1504  1.1351
   85MOL0     H11426   6.756   2.417   9.652 -1.7153  0.2301 -1.1449
   85MOL0     H11427   6.647   2.568   9.865 -0.1214 -1.0685 -0.8902
   85MOL0     H11428   6.544   2.429   9.844 -1.0338  0.1373  0.5442
   85MOL0     H11429   6.561   2.388  10.089  2.2909 -1.0089 -0.3695
   85MOL0     H11430   6.674   2.525  10.104  0.5736 -1.6465  0.5164
   85MOL0     H11431   6.424   2.636   9.963 -1.0771  0.6841  0.5385
   85MOL0     H11432   6.519   2.676  10.104 -0.8736 -0.2750  0.3770
   85MOL0     H11433   6.348   2.635  10.226  1.2882  0.5087  0.6362
   85MOL0     H11434   6.381   2.460  10.183  2.5914  0.1754 -1.3312
   85MOL0     H11435   6.038   2.508   9.944  4.4067  2.7595  0.2917
   85MOL0     H11436   5.799   2.472  10.029 -0.9251  0.9305 -0.6050
   85MOL0     H11437   5.535   2.304  10.412  2.3017  1.8461 -0.3053
   85MOL0     H11438   5.293   2.310  10.484  1.9710  1.4044  0.2536
   85MOL0     H11439   4.985   2.536  10.279 -1.1236 -0.0640  0.4291
   85MOL0     H11440   4.963   2.391  10.179 -1.4578  3.9657 -1.0824
   85MOL0     H11441   4.841   2.276  10.350  1.8766 -1.0798  0.6985
   85MOL0     H11442   4.860   2.411  10.466 -3.4288  1.0082 -0.5628
   85MOL0     H11443   4.723   2.555  10.359  0.5443 -1.0152  2.9243
   85MOL0     H11444   4.721   2.470  10.198 -0.6528 -2.0168 -0.0950
   85MOL0     H11445   4.578   2.381  10.457  0.8882 -2.8262 -0.0288
   85MOL0     H11446   4.601   2.277  10.317  0.2403  0.2745 -2.4880
   85MOL0     H11447   4.491   2.419  10.178  0.4029 -1.0655  1.1410
   85MOL0     H11448   4.458   2.535  10.298  1.3461  1.5042 -2.3138
   85MOL0     H11449   4.372   2.239  10.331  1.4265  0.9600  2.9976
   85MOL0     H11450   4.309   2.362  10.424 -0.4582 -3.8350 -0.3394
   85MOL0     H11451   4.260   2.354  10.117  1.4988  1.9578 -0.5845
   85MOL0     H11452   4.223   2.497  10.214  1.0103 -0.2047 -3.9138
   85MOL0     H11453   4.056   2.337  10.342  0.0487 -0.7424  0.8695
   85MOL0     H11454   4.024   2.327  10.162 -2.0919 -2.3295  0.6178
   85MOL0     H11455   5.176   2.423  10.086 -3.9405 -2.4873  2.6663
   85MOL0     H11456   5.406   2.476  10.040  1.6559  1.3197  1.9040
   85MOL0     H11457   5.957   2.454  10.422 -2.7506  0.1109 -0.0026
   85MOL0     H11458   6.166   2.532  10.343 -2.0286  1.8684  0.6937
   85MOL0     H11459   6.835   1.688   9.717 -2.9855 -0.3948  0.9561
   85MOL0     H11460   7.036   1.557   9.826  2.3052 -3.9921  1.0053
   85MOL0     H11461   7.092   0.934   9.932  0.7265 -1.2334  1.2239
   85MOL0     H11462   7.202   0.862  10.143  0.8868  0.9980  0.7940
   85MOL0     H11463   7.385   0.797  10.277 -2.7789  0.8678 -1.7001
   85MOL0     H11464   7.271   0.868  10.388  0.9038 -1.9901  1.5275
   85MOL0     H11465   7.481   0.774  10.512  1.7508  0.5563  1.2967
   85MOL0     H11466   7.479   0.947  10.526 -1.2674 -1.9637  1.5589
   85MOL0     H11467   7.651   0.966  10.355  3.7691 -1.4933 -0.6707
   85MOL0     H11468   7.627   0.796  10.307  1.4387 -1.3178  0.9791
   85MOL0     H11469   7.742   0.877  10.579 -1.2421 -0.1852  0.2027
   85MOL0     H11470   7.706   0.721  10.515  0.6420 -1.4664 -0.4358
   85MOL0     H11471   8.072   0.803  10.337  0.5263 -1.1325  2.6442
   85MOL0     H11472   7.397   1.232  10.181 -0.2156  0.5637  0.6455
   85MOL0     H11473   7.307   1.404   9.931 -0.2012  2.0339  0.9601
   85MOL0     H11474   7.154   1.405  10.014  0.9160  0.0861  1.6902
   85MOL0     H11475   7.305   1.403  10.112  0.4885  1.3103  0.9069
   86MOL0     O11476   4.467   3.348   5.542  0.4027  0.2890 -0.4951
   86MOL0     C11477   4.350   3.303   5.545 -0.4992  0.6884 -0.2705
   86MOL0     O11478   4.304   3.194   5.620  0.1766  0.6611  0.8798
   86MOL0     C11479   4.390   3.090   5.662 -0.1390  0.3449  0.4706
   86MOL0     C11480   4.431   3.073   5.790 -0.0039 -0.2371 -1.0825
   86MOL0     C11481   4.515   2.958   5.831  0.1401 -0.4054  1.0803
   86MOL0     C11482   4.559   2.872   5.733  0.4930  0.1873  0.3172
   86MOL0     O11483   4.635   2.756   5.749  0.7234 -0.2584  0.5952
   86MOL0     C11484   4.679   2.729   5.879 -0.3970  0.0390  1.1767
   86MOL0     C11485   4.818   2.795   5.885  0.3619 -0.2180 -0.9154
   86MOL0     C11486   4.888   2.794   6.018  1.1174  0.0530  0.7839
   86MOL0     C11487   4.810   2.832   6.148 -0.2497 -0.8517  0.5894
   86MOL0     C11488   4.884   2.844   6.277  0.4149 -0.1650 -0.4000
   86MOL0     C11489   4.786   2.907   6.382  1.1599 -0.6794  0.0978
   86MOL0     C11490   4.845   2.924   6.524 -0.2221 -0.1321  0.1828
   86MOL0     C11491   4.937   3.050   6.527 -0.2902  0.7136  0.0479
   86MOL0     N11492   5.016   3.063   6.652  0.0640 -0.5839 -0.0546
   86MOL0     C11493   5.051   3.181   6.713 -0.4316  0.3173 -0.8579
   86MOL0     C11494   5.120   3.130   6.824  0.1204 -0.4684 -0.4263
   86MOL0     C11495   5.166   3.203   6.940  0.0809 -0.5042 -0.8811
   86MOL0     C11496   5.067   3.285   7.012 -0.0333  0.3223  0.2230
   86MOL0     C11497   4.930   3.222   7.053 -0.3663  0.0708 -0.7592
   86MOL0     C11498   4.952   3.100   7.141  0.0797 -0.0604  1.0576
   86MOL0     O11499   4.815   3.066   7.192 -0.0649  0.3356  0.7202
   86MOL0     C11500   4.743   2.957   7.146  0.2060 -0.1858  0.0659
   86MOL0     C11501   4.624   2.925   7.213 -0.0259  0.6946  0.2099
   86MOL0     C11502   4.556   2.807   7.178  0.5152  0.0781 -0.6363
   86MOL0     C11503   4.592   2.728   7.069  0.9625 -0.0687  0.6425
   86MOL0     C11504   4.503   2.612   7.025 -0.1630 -0.3765 -0.6848
   86MOL0     O11505   4.543   2.546   6.910  1.3216 -0.1439 -0.6099
   86MOL0     C11506   4.456   2.462   6.850  0.0333  1.3629  0.2518
   86MOL0     C11507   4.474   2.322   6.842  0.6776 -1.2684 -0.1311
   86MOL0     C11508   4.370   2.249   6.797  0.8538 -0.0030  0.5052
   86MOL0     C11509   4.238   2.293   6.776 -0.4554  0.0366 -0.4513
   86MOL0     O11510   4.143   2.204   6.743  0.1471 -0.6124  0.4808
   86MOL0     C11511   4.140   2.087   6.831 -0.0146 -0.2238 -0.3606
   86MOL0     C11512   4.008   2.017   6.825  0.1308 -0.3246 -0.6442
   86MOL0     C11513   3.985   1.910   6.711  1.0506 -0.1103 -1.0133
   86MOL0     C11514   3.970   1.978   6.577  0.4532 -0.6237 -0.2043
   86MOL0     C11515   3.962   1.873   6.460 -0.7232  0.3188  0.1064
   86MOL0     C11516   3.954   1.943   6.323 -0.1058  0.0846 -0.6423
   86MOL0     C11517   3.814   1.954   6.265 -0.0429  0.3175 -0.3980
   86MOL0     C11518   3.807   2.038   6.140 -0.0405  0.2305 -0.3335
   86MOL0    Cl11519   3.652   2.026   6.045  0.8276  0.2623  0.2553
   86MOL0     C11520   4.220   2.432   6.780  0.0438  0.1939 -0.3277
   86MOL0     C11521   4.331   2.514   6.812  0.0047 -0.4102 -0.0374
   86MOL0     O11522   4.410   2.580   7.097  0.2176 -0.1099  0.4979
   86MOL0     C11523   4.698   2.772   6.999 -0.1457  0.1394  0.5284
   86MOL0     C11524   4.776   2.875   7.038  0.2166 -0.3044 -1.0264
   86MOL0     N11525   5.121   2.991   6.824  0.3024  0.2073 -0.2570
   86MOL0     N11526   5.057   2.957   6.719  0.2375  0.2521  0.0875
   86MOL0     C11527   4.513   2.890   5.600 -0.6149 -0.2102 -0.6039
   86MOL0     C11528   4.432   2.994   5.561 -0.6968 -0.2120 -0.1921
   86MOL0     C11529   4.234   3.382   5.506  0.4206  0.1912  0.2877
   86MOL0     C11530   4.126   3.403   5.594  0.9253  1.3175 -0.2572
   86MOL0     C11531   4.034   3.506   5.571 -0.2559  0.5909  0.6592
   86MOL0     C11532   4.042   3.592   5.466  0.5090  0.5447 -0.2265
   86MOL0     O11533   3.952   3.689   5.451  0.2511 -0.2039 -0.0913
   86MOL0     C11534   3.898   3.697   5.324 -0.3639  0.6822  0.4281
   86MOL0     C11535   3.763   3.760   5.334 -0.0773 -0.3220 -1.4102
   86MOL0     C11536   3.699   3.801   5.197 -0.6550  0.2900 -0.6365
   86MOL0     C11537   3.559   3.869   5.217 -1.1874  0.4140 -0.1079
   86MOL0     C11538   3.460   3.778   5.277 -1.3223 -1.2463 -0.5790
   86MOL0     C11539   3.373   3.701   5.301  0.0991 -0.0625 -0.6755
   86MOL0     C11540   4.156   3.580   5.379  1.0577  0.0943  0.3050
   86MOL0     C11541   4.248   3.477   5.397 -1.0662 -0.1271  0.5038
   86MOL0     C11542   4.355   3.471   5.289  0.4297  0.2171 -0.4620
   86MOL0     H11543   4.388   3.131   5.871 -2.1613  0.3828 -2.5877
   86MOL0     H11544   4.566   2.950   5.926  0.2102 -0.5592  1.0307
   86MOL0     H11545   4.608   2.763   5.955  1.1675  2.3503  1.7129
   86MOL0     H11546   4.687   2.620   5.885  4.5267  0.1142  0.1177
   86MOL0     H11547   4.813   2.898   5.848 -0.8758 -0.1279 -0.5442
   86MOL0     H11548   4.882   2.736   5.819  0.5516 -0.6751 -0.3350
   86MOL0     H11549   4.975   2.861   6.017  1.0123  0.1935 -0.0760
   86MOL0     H11550   4.931   2.696   6.038  0.8248 -0.1332  0.4875
   86MOL0     H11551   4.769   2.929   6.118 -1.8444 -2.1569 -1.7486
   86MOL0     H11552   4.733   2.755   6.157  0.5896 -1.5103  2.9696
   86MOL0     H11553   4.908   2.746   6.318 -1.8442  0.0078  1.5613
   86MOL0     H11554   4.970   2.912   6.274 -1.3801  2.2651 -0.0810
   86MOL0     H11555   4.737   2.995   6.339 -0.0924 -1.6148 -0.4621
   86MOL0     H11556   4.700   2.840   6.396  0.9594 -0.4782 -0.1580
   86MOL0     H11557   4.907   2.843   6.562 -1.7912 -1.4033  0.1369
   86MOL0     H11558   4.764   2.943   6.596  0.5212 -0.0013  1.0002
   86MOL0     H11559   5.005   3.043   6.441  2.9294 -0.0583  2.4857
   86MOL0     H11560   4.866   3.130   6.504  0.1622  0.7962 -1.1405
   86MOL0     H11561   5.040   3.285   6.682  1.4151  1.3952  1.6666
   86MOL0     H11562   5.217   3.130   7.003 -1.4162 -0.1020  0.8622
   86MOL0     H11563   5.245   3.273   6.910  0.0793  0.7420  1.7299
   86MOL0     H11564   5.115   3.319   7.104  0.3661 -1.7646  0.8458
   86MOL0     H11565   5.050   3.371   6.947  2.2494 -0.7829 -2.0307
   86MOL0     H11566   4.869   3.191   6.968 -2.0842  0.3934  0.3089
   86MOL0     H11567   4.876   3.300   7.108  1.1620  1.0798 -0.6076
   86MOL0     H11568   5.018   3.121   7.226 -0.6128  1.7007  1.2121
   86MOL0     H11569   4.995   3.018   7.084  1.1714  1.7019 -0.7598
   86MOL0     H11570   4.599   2.985   7.299 -1.2599  0.2319  0.1994
   86MOL0     H11571   4.481   2.763   7.243 -0.0349 -0.7520 -1.7889
   86MOL0     H11572   4.563   2.271   6.877  0.7780 -0.2473  1.1787
   86MOL0     H11573   4.390   2.146   6.769 -0.6178 -0.2615  0.3296
   86MOL0     H11574   4.220   2.013   6.835 -0.7647 -1.0091  1.7628
   86MOL0     H11575   4.133   2.133   6.931 -1.6377 -2.6843  0.7512
   86MOL0     H11576   3.997   1.950   6.911 -0.3492  2.1972  1.3891
   86MOL0     H11577   3.920   2.082   6.830 -1.7853 -2.7263 -1.0005
   86MOL0     H11578   4.070   1.841   6.707  1.0315 -0.1983 -0.0871
   86MOL0     H11579   3.900   1.844   6.729  2.2024 -1.7688 -1.3382
   86MOL0     H11580   4.050   2.052   6.567 -2.6946  3.0844 -0.3693
   86MOL0     H11581   3.880   2.039   6.578  1.3104  0.8861 -3.2115
   86MOL0     H11582   3.881   1.801   6.479  0.8435 -1.3159  0.8632
   86MOL0     H11583   4.056   1.818   6.465 -2.5935 -3.1957 -0.1544
   86MOL0     H11584   4.002   2.041   6.326 -0.2329  0.1367 -0.2770
   86MOL0     H11585   4.012   1.878   6.256 -0.3425 -2.1815  1.2224
   86MOL0     H11586   3.748   1.991   6.345  0.4970 -3.2530  1.9480
   86MOL0     H11587   3.795   1.850   6.236  2.0495 -0.4522  0.7567
   86MOL0     H11588   3.819   2.143   6.166 -1.2941 -0.0160  1.4484
   86MOL0     H11589   3.886   2.002   6.073  0.3333  0.3279  0.0509
   86MOL0     H11590   4.122   2.469   6.751 -0.3849  0.1397  1.0149
   86MOL0     H11591   4.321   2.622   6.814  1.8523 -0.1956  2.1896
   86MOL0     H11592   4.727   2.719   6.909 -0.5132 -0.6150  0.8412
   86MOL0     H11593   4.868   2.889   6.981  0.5545 -0.8664 -0.6290
   86MOL0     H11594   4.558   2.827   5.525  2.5321 -0.5165  1.3754
   86MOL0     H11595   4.402   2.977   5.458  0.6642 -1.8194 -0.3839
   86MOL0     H11596   4.116   3.343   5.684  0.0297  0.7477 -0.7160
   86MOL0     H11597   3.956   3.507   5.646  0.3346 -1.7646  1.3717
   86MOL0     H11598   3.888   3.594   5.290  1.7922  0.0273  1.5678
   86MOL0     H11599   3.966   3.752   5.258 -1.5861  0.3723 -1.1269
   86MOL0     H11600   3.760   3.845   5.403  0.1417 -1.5467  0.1552
   86MOL0     H11601   3.702   3.680   5.377 -1.3656  1.6765  0.7124
   86MOL0     H11602   3.684   3.706   5.143  0.2876 -0.4434  0.3566
   86MOL0     H11603   3.764   3.865   5.137  3.8339 -2.1934  1.1598
   86MOL0     H11604   3.572   3.964   5.270 -3.1831 -0.3270  1.8712
   86MOL0     H11605   3.517   3.900   5.121 -1.1809 -0.8424 -0.5276
   86MOL0     H11606   3.289   3.634   5.304  0.1447 -0.1208 -0.6811
   86MOL0     H11607   4.171   3.659   5.307 -1.6973 -0.3927 -0.9180
   86MOL0     H11608   4.341   3.382   5.228 -1.8441  0.2359 -0.0240
   86MOL0     H11609   4.349   3.562   5.229 -0.6085  0.1243 -0.5184
   86MOL0     H11610   4.458   3.465   5.327  0.0745  1.8290  0.9031
   87MOL0     O11611   7.187   9.701   4.660 -0.4166 -1.1329 -0.0070
   87MOL0     C11612   7.216   9.582   4.694  0.4259  0.1835  0.2923
   87MOL0     O11613   7.118   9.477   4.692 -0.3653  0.5766  0.3478
   87MOL0     C11614   6.986   9.502   4.710 -0.0094  0.2143 -0.4745
   87MOL0     C11615   6.895   9.413   4.653 -0.1628  0.5398  0.9147
   87MOL0     C11616   6.758   9.413   4.671  0.5282  0.0853 -0.8234
   87MOL0     C11617   6.698   9.519   4.746  0.0030 -0.0987 -0.2122
   87MOL0     O11618   6.562   9.514   4.767  0.2769  0.0487 -0.2836
   87MOL0     C11619   6.484   9.580   4.672  0.0485  0.0041  1.2373
   87MOL0     C11620   6.348   9.520   4.668 -0.0448  1.0012 -0.3678
   87MOL0     C11621   6.276   9.523   4.802 -0.2641  0.5909 -0.7942
   87MOL0     C11622   6.127   9.481   4.791  0.4821 -0.0753  0.3119
   87MOL0     C11623   6.039   9.600   4.758 -0.2448 -0.0218 -0.1196
   87MOL0     C11624   5.889   9.571   4.744  0.0415 -0.1089 -0.3396
   87MOL0     C11625   5.793   9.693   4.722 -0.5733 -0.4356  0.4415
   87MOL0     C11626   5.654   9.665   4.758  0.4890 -0.8320 -0.4355
   87MOL0     N11627   5.613   9.690   4.897  0.1545 -0.7136 -0.0584
   87MOL0     C11628   5.535   9.794   4.937 -0.1946  0.8195  0.0375
   87MOL0     C11629   5.487   9.753   5.056 -0.3719 -0.2610 -0.2033
   87MOL0     C11630   5.392   9.831   5.143 -0.0451  0.0628  0.5056
   87MOL0     C11631   5.252   9.771   5.158  0.1607 -0.7531 -0.6318
   87MOL0     C11632   5.169   9.794   5.047  0.4625  0.5972 -0.4439
   87MOL0     C11633   5.032   9.723   5.078  0.4304 -0.2372  0.3150
   87MOL0     O11634   4.964   9.707   4.953  0.7847 -0.0029  0.5833
   87MOL0     C11635   4.826   9.675   4.968 -0.5987  0.0790 -0.5899
   87MOL0     C11636   4.768   9.619   5.083 -0.4900  0.1316 -1.1410
   87MOL0     C11637   4.628   9.605   5.104  0.0669  0.4599 -0.4295
   87MOL0     C11638   4.541   9.646   5.003  0.3743 -0.2367 -0.4852
   87MOL0     C11639   4.400   9.616   5.008  0.0016  0.6479 -0.7771
   87MOL0     O11640   4.332   9.582   4.892 -0.2222 -0.4245  0.0475
   87MOL0     C11641   4.201   9.569   4.903  0.8449  0.3629  0.7278
   87MOL0     C11642   4.131   9.465   4.967  0.2063 -0.6535  0.4970
   87MOL0     C11643   3.990   9.453   4.968  0.9855 -1.2908 -0.4696
   87MOL0     C11644   3.907   9.554   4.914 -0.5774 -0.3959 -0.3086
   87MOL0     O11645   3.774   9.525   4.894  0.2635  0.5774 -0.7238
   87MOL0     C11646   3.679   9.634   4.870 -0.0467 -1.0070 -0.2781
   87MOL0     C11647   3.661   9.725   4.982 -0.0807 -0.5406  0.6096
   87MOL0     C11648   3.621   9.663   5.113  0.2066 -1.2127  0.0012
   87MOL0     C11649   3.477   9.620   5.123 -0.4888 -0.3578 -0.2090
   87MOL0     C11650   3.371   9.735   5.142  0.1003 -0.0630 -0.1091
   87MOL0     C11651   3.222   9.702   5.118 -0.3574 -0.7633  0.2769
   87MOL0     C11652   3.167   9.604   5.214  0.1928  0.8405  0.1344
   87MOL0     C11653   3.018   9.583   5.189 -0.2604  1.0242 -0.3077
   87MOL0    Cl11654   2.919   9.729   5.254 -0.2541  0.2746  0.0700
   87MOL0     C11655   3.976   9.664   4.867 -0.2002 -0.3193 -0.8352
   87MOL0     C11656   4.122   9.672   4.866 -0.0342  0.1326 -0.5681
   87MOL0     O11657   4.349   9.627   5.122 -0.3431 -0.2043  0.4168
   87MOL0     C11658   4.604   9.691   4.884  0.8034  0.4009  0.8296
   87MOL0     C11659   4.743   9.715   4.861  0.5161  1.0878  0.0888
   87MOL0     N11660   5.556   9.650   5.089 -0.1274  0.6029  0.5009
   87MOL0     N11661   5.631   9.607   4.997 -0.4449  0.0554  0.0492
   87MOL0     C11662   6.787   9.606   4.809  0.2419  0.1482 -0.7713
   87MOL0     C11663   6.929   9.598   4.788  0.2624  0.3064 -0.0898
   87MOL0     C11664   7.354   9.550   4.738 -0.2654 -0.0296  0.2692
   87MOL0     C11665   7.387   9.435   4.815  0.0671 -0.9229  0.2865
   87MOL0     C11666   7.506   9.395   4.860 -0.4131  0.3883 -0.8280
   87MOL0     C11667   7.623   9.462   4.819  0.4810 -0.7063 -0.9226
   87MOL0     O11668   7.754   9.432   4.861  1.5645  0.4751  0.6793
   87MOL0     C11669   7.771   9.306   4.926  0.7031 -0.1326  1.0432
   87MOL0     C11670   7.925   9.261   4.929  0.2792 -1.0739  0.1520
   87MOL0     C11671   8.001   9.286   4.792  0.9558 -0.2228  0.4661
   87MOL0     C11672   8.153   9.268   4.819  0.1053  0.0393 -0.6849
   87MOL0     C11673   8.202   9.131   4.830  0.0240 -0.8325  0.4064
   87MOL0     C11674   8.256   9.024   4.840  0.5917  0.5421 -0.0470
   87MOL0     C11675   7.601   9.585   4.749 -0.2350 -0.9391  0.2078
   87MOL0     C11676   7.476   9.626   4.698 -0.8865  0.0589  0.2308
   87MOL0     C11677   7.465   9.753   4.613 -0.4340  0.4348 -0.3828
   87MOL0     H11678   6.945   9.332   4.600 -0.4215  1.3539 -0.6460
   87MOL0     H11679   6.701   9.331   4.627  3.1304 -2.4335  0.1823
   87MOL0     H11680   6.476   9.686   4.697  0.7933 -0.4115  3.4763
   87MOL0     H11681   6.534   9.558   4.577 -0.2990  0.4953  0.9376
   87MOL0     H11682   6.365   9.416   4.637 -0.9398 -0.2851  2.9998
   87MOL0     H11683   6.290   9.560   4.585 -0.1691  0.0778 -0.7467
   87MOL0     H11684   6.278   9.627   4.834 -3.5077  1.4995 -3.0684
   87MOL0     H11685   6.329   9.455   4.870 -0.4203  0.0279 -1.2254
   87MOL0     H11686   6.124   9.398   4.721  2.1427  0.8497 -0.9333
   87MOL0     H11687   6.090   9.433   4.882 -0.1780 -1.5645 -0.7010
   87MOL0     H11688   6.065   9.674   4.834 -0.6992  0.2388 -0.2131
   87MOL0     H11689   6.071   9.643   4.662 -2.9431  1.4271 -0.4541
   87MOL0     H11690   5.871   9.504   4.660 -2.4632  0.4548 -0.3402
   87MOL0     H11691   5.856   9.534   4.841 -1.5852 -4.1804 -2.2173
   87MOL0     H11692   5.793   9.706   4.613 -0.6299  1.3260  0.6290
   87MOL0     H11693   5.836   9.788   4.756  1.9454 -1.2113 -0.3302
   87MOL0     H11694   5.595   9.726   4.688  0.9865 -1.3891 -1.3683
   87MOL0     H11695   5.631   9.561   4.732  0.0388 -1.2739  1.5515
   87MOL0     H11696   5.502   9.871   4.868  1.5093 -1.1582 -3.2223
   87MOL0     H11697   5.439   9.828   5.242  2.1409  1.7425 -0.3814
   87MOL0     H11698   5.385   9.934   5.106  1.1720 -0.7381 -2.2538
   87MOL0     H11699   5.270   9.664   5.173  4.4715 -0.0660  0.6359
   87MOL0     H11700   5.203   9.812   5.247  2.1635 -0.1772  0.2656
   87MOL0     H11701   5.209   9.761   4.951 -4.5149  1.9691 -3.3551
   87MOL0     H11702   5.147   9.901   5.034 -0.8876  0.6698  1.8240
   87MOL0     H11703   4.973   9.780   5.150  1.3272  2.1905 -0.7729
   87MOL0     H11704   5.049   9.620   5.111  0.8232 -0.9502 -1.9309
   87MOL0     H11705   4.830   9.579   5.163 -0.0260 -0.0440 -1.5828
   87MOL0     H11706   4.585   9.562   5.194 -2.2557  1.5094 -0.9755
   87MOL0     H11707   4.194   9.396   5.023 -0.3579  0.7419  3.0073
   87MOL0     H11708   3.931   9.373   5.012 -0.4627  0.2503  0.5677
   87MOL0     H11709   3.691   9.693   4.778  0.2726  2.1065  1.6309
   87MOL0     H11710   3.585   9.583   4.848 -1.0939  0.9923 -0.6498
   87MOL0     H11711   3.758   9.774   4.994  0.2300 -1.3743  1.6866
   87MOL0     H11712   3.580   9.795   4.961 -0.5306 -0.9739  0.8733
   87MOL0     H11713   3.678   9.572   5.135 -3.5814 -3.8868 -0.2612
   87MOL0     H11714   3.643   9.734   5.194 -1.8807  0.0634 -0.4789
   87MOL0     H11715   3.471   9.561   5.215  1.3341  1.3396  1.0713
   87MOL0     H11716   3.451   9.556   5.038 -2.4043 -0.6733  0.5562
   87MOL0     H11717   3.408   9.826   5.095  1.1853 -0.1441  0.5512
   87MOL0     H11718   3.389   9.761   5.247  3.3689 -2.3221  0.0456
   87MOL0     H11719   3.172   9.798   5.135  1.7694  0.3755  0.4293
   87MOL0     H11720   3.228   9.661   5.017  2.9666 -1.4643  0.6403
   87MOL0     H11721   3.189   9.611   5.321  2.6764 -0.4664 -0.2174
   87MOL0     H11722   3.227   9.516   5.187  0.2749  1.6478 -2.6419
   87MOL0     H11723   3.018   9.567   5.081  2.2743  3.5836 -0.8251
   87MOL0     H11724   2.991   9.487   5.234  2.3265 -1.6417 -3.8703
   87MOL0     H11725   3.925   9.754   4.837 -0.6184  0.0662  0.9051
   87MOL0     H11726   4.166   9.763   4.827 -0.1563 -0.6500 -2.6333
   87MOL0     H11727   4.533   9.711   4.804 -0.0846 -0.7301  1.2965
   87MOL0     H11728   4.774   9.744   4.761 -0.6027  0.2905 -0.5136
   87MOL0     H11729   6.738   9.678   4.874 -0.2777 -0.7238 -0.1802
   87MOL0     H11730   6.981   9.656   4.864 -2.1901  2.8826 -0.1977
   87MOL0     H11731   7.310   9.366   4.849 -2.2920  0.7065 -1.4809
   87MOL0     H11732   7.507   9.319   4.937  0.5662  1.0805 -0.1330
   87MOL0     H11733   7.714   9.231   4.871  1.8693 -1.2737  1.3713
   87MOL0     H11734   7.726   9.320   5.025 -0.4440 -0.9267  0.6556
   87MOL0     H11735   7.927   9.158   4.965 -0.6832 -0.6632  1.4199
   87MOL0     H11736   7.972   9.312   5.013 -0.7539  0.9911 -0.4652
   87MOL0     H11737   7.982   9.388   4.758  1.1305 -0.4810 -0.4432
   87MOL0     H11738   7.970   9.208   4.721  0.8125  1.2931 -1.2160
   87MOL0     H11739   8.193   9.319   4.732 -3.3646 -0.5399 -2.8160
   87MOL0     H11740   8.182   9.307   4.918 -0.4917 -1.1003 -0.0401
   87MOL0     H11741   8.291   8.924   4.855  0.7826  0.4373 -1.1377
   87MOL0     H11742   7.688   9.647   4.732 -1.1561  0.6417  0.9923
   87MOL0     H11743   7.446   9.834   4.684  1.4159  1.7700 -1.3155
   87MOL0     H11744   7.562   9.765   4.564  0.2854 -1.2530  0.5556
   87MOL0     H11745   7.380   9.732   4.547  0.0375 -0.2996 -0.7658
   88MOL0     O11746   8.905   8.132   6.704  0.9166  0.2516  0.1272
   88MOL0     C11747   8.934   8.019   6.742  0.7102 -0.3877 -0.1007
   88MOL0     O11748   9.057   7.958   6.726 -0.3943 -0.6083  0.6145
   88MOL0     C11749   9.178   8.025   6.739  1.0520 -0.0674  1.1817
   88MOL0     C11750   9.202   8.160   6.778  0.2987 -0.5761  0.1711
   88MOL0     C11751   9.331   8.218   6.766 -0.1103  0.0414  0.3981
   88MOL0     C11752   9.439   8.135   6.739 -0.1425 -0.7304  0.4267
   88MOL0     O11753   9.570   8.176   6.731 -0.4141  0.4107  0.1827
   88MOL0     C11754   9.599   8.312   6.711  0.5511 -0.0003 -0.0425
   88MOL0     C11755   9.740   8.331   6.671  0.2998 -0.2729 -0.1054
   88MOL0     C11756   9.839   8.326   6.788 -1.1518 -0.2490  0.4048
   88MOL0     C11757   9.837   8.455   6.869  0.0776  0.5156 -0.2887
   88MOL0     C11758   9.945   8.454   6.970 -0.5472 -0.3536 -0.1206
   88MOL0     C11759   9.926   8.346   7.078 -0.1773 -0.2757 -0.0262
   88MOL0     C11760  10.009   8.359   7.205 -0.2198 -0.7471  0.3721
   88MOL0     C11761   9.930   8.419   7.323  0.7944 -0.1920  0.1608
   88MOL0     N11762   9.835   8.323   7.381  0.0213 -0.2237 -0.1758
   88MOL0     C11763   9.697   8.312   7.364 -0.0035  0.3009 -0.5136
   88MOL0     C11764   9.653   8.225   7.456 -0.5555  1.0134 -0.7238
   88MOL0     C11765   9.507   8.181   7.473 -0.3846 -0.7489  0.6043
   88MOL0     C11766   9.418   8.300   7.525  1.0616 -0.0673 -1.0400
   88MOL0     C11767   9.475   8.346   7.659  0.0045  0.4958  0.7135
   88MOL0     C11768   9.469   8.248   7.771 -0.2492 -0.1508 -0.3930
   88MOL0     O11769   9.478   8.322   7.892  0.0737 -0.1487  0.1115
   88MOL0     C11770   9.603   8.375   7.934  0.5139  0.2874 -0.2965
   88MOL0     C11771   9.724   8.339   7.870  0.3017  0.5917 -0.3158
   88MOL0     C11772   9.844   8.398   7.918  0.8039  0.8338  0.2018
   88MOL0     C11773   9.837   8.503   8.014  0.5922 -0.3493 -0.5889
   88MOL0     C11774   9.966   8.562   8.051 -0.0761 -0.1517 -0.7781
   88MOL0     O11775  10.080   8.525   7.983  0.1262 -0.1380 -0.2097
   88MOL0     C11776  10.209   8.542   8.033  0.2297  0.4455  0.5372
   88MOL0     C11777  10.299   8.444   8.042  0.1162  0.5866 -0.6175
   88MOL0     C11778  10.432   8.472   8.054  0.4611 -0.4710 -0.4275
   88MOL0     C11779  10.476   8.601   8.083 -0.1972 -0.5784 -0.7209
   88MOL0     O11780  10.606   8.609   8.112 -0.1446 -0.8671  0.5384
   88MOL0     C11781  10.651   8.738   8.143 -0.4827  0.2481 -0.6235
   88MOL0     C11782  10.787   8.741   8.229 -0.4325  0.0312  0.2678
   88MOL0     C11783  10.922   8.753   8.159 -0.2528 -0.8781  0.4524
   88MOL0     C11784  11.038   8.772   8.262 -0.0456 -0.3528 -0.4037
   88MOL0     C11785  11.178   8.788   8.211 -0.2399 -0.0418  0.3307
   88MOL0     C11786  11.192   8.913   8.125  0.0193  0.9197 -0.0581
   88MOL0     C11787  11.343   8.931   8.097  0.2413 -0.2568 -0.3339
   88MOL0     C11788  11.347   9.066   8.025  0.1377  1.2495 -0.6077
   88MOL0    Cl11789  11.515   9.098   8.002 -0.2247 -0.0628  0.1496
   88MOL0     C11790  10.384   8.702   8.071 -0.0584 -0.8044  0.3979
   88MOL0     C11791  10.255   8.675   8.038 -0.0739  0.3451 -0.3337
   88MOL0     O11792   9.975   8.630   8.155  0.1637 -0.5294  0.7943
   88MOL0     C11793   9.711   8.540   8.075 -0.1050 -0.0272  0.2612
   88MOL0     C11794   9.596   8.471   8.032 -0.1377 -0.6187 -0.9704
   88MOL0     N11795   9.770   8.181   7.529  0.1260 -1.0340  0.4458
   88MOL0     N11796   9.875   8.234   7.479  0.1440 -0.7302  0.0851
   88MOL0     C11797   9.413   8.002   6.708 -0.2051  0.6872 -0.0678
   88MOL0     C11798   9.287   7.943   6.704  0.2498 -0.5143  0.0177
   88MOL0     C11799   8.829   7.938   6.798  0.5892  0.1412  0.4855
   88MOL0     C11800   8.821   7.808   6.730 -0.7688  0.2296  0.2627
   88MOL0     C11801   8.714   7.729   6.756  0.1130  0.9930  0.1449
   88MOL0     C11802   8.634   7.750   6.877 -0.0231  0.6226  0.2045
   88MOL0     O11803   8.543   7.653   6.915 -0.4913 -0.0397  0.6784
   88MOL0     C11804   8.456   7.669   7.027 -0.1212 -0.4130  0.3661
   88MOL0     C11805   8.357   7.556   7.041 -0.6110  0.5717  0.9075
   88MOL0     C11806   8.433   7.426   7.072 -0.2532  0.2495 -0.1016
   88MOL0     C11807   8.445   7.340   6.945 -0.4266  0.9345  0.2182
   88MOL0     C11808   8.529   7.211   6.955  0.2738 -0.1909 -0.7891
   88MOL0     C11809   8.591   7.105   6.952 -0.6982 -0.3443  0.0476
   88MOL0     C11810   8.647   7.870   6.944  0.1421 -0.2256 -0.8270
   88MOL0     C11811   8.747   7.966   6.912 -0.5833  0.9439 -0.3270
   88MOL0     C11812   8.754   8.104   6.982  0.3138  0.1367  0.0504
   88MOL0     H11813   9.125   8.223   6.821  1.7855  0.3901  1.5295
   88MOL0     H11814   9.338   8.314   6.816 -4.7367  0.5375  0.5530
   88MOL0     H11815   9.544   8.349   6.623 -0.5018 -1.0410  0.1619
   88MOL0     H11816   9.571   8.372   6.797  1.9586  0.1740  0.3233
   88MOL0     H11817   9.742   8.428   6.620  1.4930 -1.0718 -1.6803
   88MOL0     H11818   9.761   8.247   6.604 -1.8976 -1.8267  1.0590
   88MOL0     H11819   9.937   8.315   6.741 -1.2392 -2.6888  0.6869
   88MOL0     H11820   9.827   8.236   6.849  0.5191 -0.6718  0.1434
   88MOL0     H11821   9.867   8.535   6.801 -1.9526  0.2800 -1.5369
   88MOL0     H11822   9.741   8.476   6.916 -0.8466  0.1089 -1.9466
   88MOL0     H11823  10.045   8.442   6.927 -1.1167 -1.4098 -1.2252
   88MOL0     H11824   9.971   8.552   7.011  2.0993 -1.7392  1.8379
   88MOL0     H11825   9.818   8.345   7.095 -0.6179  3.7752 -1.4312
   88MOL0     H11826   9.952   8.247   7.040 -2.8352 -0.0940 -2.6217
   88MOL0     H11827  10.100   8.417   7.187  0.8740 -2.2262  0.9545
   88MOL0     H11828  10.040   8.260   7.238  0.4264 -0.8863 -0.6007
   88MOL0     H11829   9.989   8.469   7.400  2.2918 -0.3606 -0.8245
   88MOL0     H11830   9.858   8.486   7.277 -0.7126 -1.3349  0.7892
   88MOL0     H11831   9.643   8.357   7.282  0.1806  0.5219 -0.5152
   88MOL0     H11832   9.464   8.160   7.374 -0.3171  3.3598 -0.4849
   88MOL0     H11833   9.499   8.087   7.528 -0.4884 -1.7611 -1.0563
   88MOL0     H11834   9.403   8.380   7.452  0.9721 -0.4842 -1.4816
   88MOL0     H11835   9.311   8.276   7.533  1.5159 -1.5932  1.4125
   88MOL0     H11836   9.424   8.439   7.686 -0.9092  0.5050 -0.8981
   88MOL0     H11837   9.580   8.374   7.647  0.5147 -1.5333  0.1415
   88MOL0     H11838   9.552   8.179   7.754 -0.0944  1.0224 -6.4829
   88MOL0     H11839   9.377   8.190   7.761  1.2033 -2.6328 -0.1243
   88MOL0     H11840   9.736   8.268   7.789 -3.9857  0.0963 -0.7522
   88MOL0     H11841   9.933   8.377   7.861  0.3169  1.1700 -0.7015
   88MOL0     H11842  10.281   8.337   8.038  0.4097  0.5131 -0.1089
   88MOL0     H11843  10.498   8.388   8.075  3.0014  1.0673 -1.8277
   88MOL0     H11844  10.677   8.790   8.051  2.2707 -2.1508 -1.3656
   88MOL0     H11845  10.575   8.799   8.192 -1.0382  1.5893 -3.0407
   88MOL0     H11846  10.780   8.837   8.280 -0.6188  0.2477 -0.1556
   88MOL0     H11847  10.796   8.671   8.312 -1.1740 -0.6626 -0.2208
   88MOL0     H11848  10.939   8.659   8.106 -0.6630 -0.8272  0.2279
   88MOL0     H11849  10.933   8.839   8.092  0.2444 -1.1171  0.2183
   88MOL0     H11850  11.036   8.689   8.333  0.7052  0.6219  0.8081
   88MOL0     H11851  11.006   8.856   8.325  1.0554  1.9711 -2.7446
   88MOL0     H11852  11.209   8.703   8.149  0.6704 -1.0200  2.0469
   88MOL0     H11853  11.249   8.780   8.294  1.5095 -1.4388 -1.2027
   88MOL0     H11854  11.135   8.922   8.032 -0.3590  1.0444  0.1835
   88MOL0     H11855  11.162   8.995   8.190  0.0815 -0.0395  1.2343
   88MOL0     H11856  11.376   8.850   8.032  0.5070 -1.0621  0.7862
   88MOL0     H11857  11.394   8.924   8.194 -2.8514  1.0292  1.5659
   88MOL0     H11858  11.302   9.078   7.926 -1.3898 -1.1961 -0.2912
   88MOL0     H11859  11.297   9.137   8.092 -4.0256 -1.0327 -0.9581
   88MOL0     H11860  10.418   8.803   8.047 -2.6577 -0.5690 -3.0327
   88MOL0     H11861  10.185   8.750   8.002 -3.3858 -1.3308  2.0512
   88MOL0     H11862   9.684   8.612   8.152 -1.2229 -1.6658  1.4691
   88MOL0     H11863   9.503   8.507   8.074  1.3235  1.1749  0.9323
   88MOL0     H11864   9.505   7.949   6.685  0.4334  1.9755 -0.6149
   88MOL0     H11865   9.270   7.837   6.687  0.0135 -1.0027  2.8673
   88MOL0     H11866   8.878   7.801   6.638 -3.5885 -0.4188 -1.5275
   88MOL0     H11867   8.692   7.647   6.689  0.0953  1.8266 -0.8925
   88MOL0     H11868   8.397   7.759   7.010 -1.4079 -1.1580  0.8157
   88MOL0     H11869   8.512   7.681   7.121  1.0224 -1.5881 -0.1467
   88MOL0     H11870   8.316   7.538   6.941  0.0366 -1.3945  0.9311
   88MOL0     H11871   8.278   7.577   7.113 -2.1833  0.8880 -0.8306
   88MOL0     H11872   8.382   7.374   7.154  2.5077 -4.4527 -0.9684
   88MOL0     H11873   8.532   7.443   7.118 -0.2295  3.0077 -0.9741
   88MOL0     H11874   8.342   7.304   6.938 -0.0089 -0.6904  1.7737
   88MOL0     H11875   8.476   7.387   6.852  0.3311  0.0952  0.0319
   88MOL0     H11876   8.645   7.012   6.945  0.3059  0.2343 -0.0391
   88MOL0     H11877   8.585   7.880   7.032 -1.6598 -2.4620 -1.7393
   88MOL0     H11878   8.855   8.120   7.022  1.1455 -0.0629 -1.8750
   88MOL0     H11879   8.738   8.181   6.906 -1.3994 -2.7264 -2.6933
   88MOL0     H11880   8.679   8.106   7.062  0.2220  0.3778 -0.0411
   89MOL0     O11881   4.729   4.154   4.148 -0.5797 -0.4128  0.2157
   89MOL0     C11882   4.845   4.120   4.100 -0.0872  0.9333  0.0079
   89MOL0     O11883   4.855   4.062   3.968 -0.3340 -0.2783 -1.0063
   89MOL0     C11884   4.732   4.054   3.902 -0.3714  1.0797  0.7131
   89MOL0     C11885   4.712   4.139   3.793  0.6328  0.1343  0.5246
   89MOL0     C11886   4.594   4.128   3.720 -0.2518 -0.1436  0.0339
   89MOL0     C11887   4.492   4.033   3.756  1.5468  0.3938  0.2179
   89MOL0     O11888   4.367   4.015   3.695 -0.7302  0.4370 -0.1149
   89MOL0     C11889   4.309   4.117   3.606 -1.0149  0.7733 -0.5192
   89MOL0     C11890   4.160   4.099   3.585  0.4079 -0.2963 -0.2563
   89MOL0     C11891   4.091   4.210   3.506 -0.4303  0.5983  0.7734
   89MOL0     C11892   3.945   4.203   3.509  0.2362  0.2148 -0.2680
   89MOL0     C11893   3.865   4.310   3.441  0.4680 -0.7296 -1.4825
   89MOL0     C11894   3.724   4.267   3.428 -0.8229  0.1982 -0.4177
   89MOL0     C11895   3.618   4.373   3.418  0.2228 -0.7634 -0.9384
   89MOL0     C11896   3.617   4.447   3.289  0.1443 -0.2223  0.1127
   89MOL0     N11897   3.486   4.509   3.271  0.4453  0.5083 -0.3335
   89MOL0     C11898   3.378   4.440   3.228 -0.1907 -0.0858 -0.2749
   89MOL0     C11899   3.277   4.524   3.237 -0.1657 -1.4558 -0.2373
   89MOL0     C11900   3.133   4.492   3.197 -0.1322 -0.1669 -0.1309
   89MOL0     C11901   3.042   4.439   3.305  0.0800 -0.5308  0.3730
   89MOL0     C11902   3.102   4.307   3.352  0.8951 -0.4211  0.4988
   89MOL0     C11903   3.038   4.270   3.480  0.1673 -0.2886  0.7590
   89MOL0     O11904   3.067   4.135   3.525 -0.9462 -0.3440 -0.1980
   89MOL0     C11905   3.190   4.106   3.578  1.1826  1.2157 -0.6759
   89MOL0     C11906   3.287   4.206   3.599  0.4528  0.5221  1.0404
   89MOL0     C11907   3.413   4.172   3.664 -0.0622 -0.3331  0.5735
   89MOL0     C11908   3.437   4.046   3.706 -0.3698 -0.8031  0.6094
   89MOL0     C11909   3.566   4.021   3.779  1.1585  0.0938  0.5718
   89MOL0     O11910   3.572   3.911   3.855 -0.7115  0.7802 -0.0195
   89MOL0     C11911   3.682   3.895   3.944  0.3372  0.4867  0.4777
   89MOL0     C11912   3.800   3.829   3.895  0.2842 -0.6485  0.4763
   89MOL0     C11913   3.894   3.801   3.992 -0.0947 -0.0399  0.6817
   89MOL0     C11914   3.877   3.825   4.130  0.4086  1.0558  0.8225
   89MOL0     O11915   3.960   3.789   4.233  0.5642 -1.2863 -0.5584
   89MOL0     C11916   4.036   3.678   4.210 -0.6719 -0.6372  0.1283
   89MOL0     C11917   4.071   3.612   4.344 -0.0533 -0.8660  0.4686
   89MOL0     C11918   4.191   3.690   4.410  0.0453 -0.4148  0.1221
   89MOL0     C11919   4.223   3.650   4.555  0.2797  0.3702  0.1033
   89MOL0     C11920   4.374   3.682   4.575  0.5671  0.7942  0.5814
   89MOL0     C11921   4.419   3.687   4.725  0.9799 -0.9181  0.6255
   89MOL0     C11922   4.567   3.715   4.732 -0.5092 -0.7023  0.6612
   89MOL0     C11923   4.608   3.843   4.651 -0.6616  0.3610 -0.1951
   89MOL0    Cl11924   4.767   3.898   4.707 -0.4113  0.0906  0.0922
   89MOL0     C11925   3.759   3.899   4.166 -0.2068 -0.1853 -0.0727
   89MOL0     C11926   3.657   3.922   4.072  0.5789  0.3378  0.0046
   89MOL0     O11927   3.658   4.096   3.753 -0.0047 -0.4772 -0.4775
   89MOL0     C11928   3.338   3.955   3.694  0.0679  0.0418 -0.4296
   89MOL0     C11929   3.222   3.978   3.624 -0.5946 -0.4325 -1.1156
   89MOL0     N11930   3.326   4.655   3.281 -0.1154 -0.4903  0.1483
   89MOL0     N11931   3.453   4.633   3.311  0.6389  0.2398 -0.1194
   89MOL0     C11932   4.523   3.939   3.855  0.8673  0.4139 -0.0347
   89MOL0     C11933   4.646   3.952   3.923  0.9584  0.0318  0.5517
   89MOL0     C11934   4.980   4.125   4.178 -0.5778 -0.2901  0.0518
   89MOL0     C11935   5.092   4.047   4.146  0.8475  0.1069 -0.3345
   89MOL0     C11936   5.205   4.042   4.211 -0.3624 -0.8344 -0.2647
   89MOL0     C11937   5.224   4.126   4.314 -0.0062 -0.4450 -0.3300
   89MOL0     O11938   5.347   4.129   4.372 -0.4940  0.1384  0.1502
   89MOL0     C11939   5.440   4.026   4.362  0.2694 -0.8391  0.8936
   89MOL0     C11940   5.529   4.009   4.483  0.0316  0.4248 -0.4153
   89MOL0     C11941   5.571   4.146   4.541 -1.1041  0.2755  0.3609
   89MOL0     C11942   5.682   4.139   4.639 -0.2005  0.3455  0.8926
   89MOL0     C11943   5.740   4.272   4.667  0.9309 -1.1186 -0.6698
   89MOL0     C11944   5.782   4.378   4.705  0.2328  0.3613  0.0154
   89MOL0     C11945   5.128   4.224   4.342  0.6084  0.0709  0.1850
   89MOL0     C11946   5.002   4.222   4.275 -0.1151  0.2494 -0.3446
   89MOL0     C11947   4.907   4.319   4.319 -0.1200 -0.1314  0.1811
   89MOL0     H11948   4.786   4.212   3.762  0.8035  0.3714  1.4560
   89MOL0     H11949   4.567   4.198   3.641  0.2212 -0.9804 -0.8863
   89MOL0     H11950   4.323   4.213   3.655 -0.0942 -0.1868  1.1819
   89MOL0     H11951   4.359   4.108   3.509 -1.6221  0.7451 -0.8355
   89MOL0     H11952   4.111   4.086   3.682  1.2374 -0.3567  0.1648
   89MOL0     H11953   4.143   4.006   3.530  0.8850 -0.6981  0.2629
   89MOL0     H11954   4.121   4.202   3.401  0.6779 -2.8237  1.2309
   89MOL0     H11955   4.116   4.313   3.532 -1.2085  1.0819 -0.2846
   89MOL0     H11956   3.921   4.108   3.461  0.5171 -0.2062  0.4055
   89MOL0     H11957   3.905   4.204   3.611 -1.1679  0.2935 -0.7996
   89MOL0     H11958   3.866   4.404   3.497  1.5189 -0.8730 -1.2401
   89MOL0     H11959   3.911   4.324   3.342  3.6965  1.7074  0.1382
   89MOL0     H11960   3.712   4.199   3.343  1.9555 -1.0097  0.0416
   89MOL0     H11961   3.695   4.204   3.513 -1.1075  2.7682  1.5247
   89MOL0     H11962   3.629   4.451   3.494  0.2839  0.0926 -1.8059
   89MOL0     H11963   3.520   4.325   3.422 -1.3799  2.3267  0.7902
   89MOL0     H11964   3.689   4.529   3.296  1.2369 -1.3131  2.4716
   89MOL0     H11965   3.653   4.390   3.202 -2.0233 -1.0278 -0.3278
   89MOL0     H11966   3.381   4.335   3.197 -1.8982  0.3738 -2.2143
   89MOL0     H11967   3.074   4.572   3.151 -1.9165 -0.9112  0.7641
   89MOL0     H11968   3.130   4.419   3.116 -2.2125  1.3603 -1.5412
   89MOL0     H11969   3.038   4.515   3.384 -0.1384 -1.4383  1.2658
   89MOL0     H11970   2.941   4.415   3.271  1.7212 -3.2909 -3.1868
   89MOL0     H11971   3.207   4.328   3.372  0.4040  2.3528  0.6571
   89MOL0     H11972   3.079   4.238   3.270 -2.7992  1.7289 -0.5170
   89MOL0     H11973   2.930   4.281   3.463 -0.1229 -2.4865  0.8475
   89MOL0     H11974   3.065   4.350   3.550  0.0465  1.4917 -1.1216
   89MOL0     H11975   3.274   4.311   3.574 -5.7818 -0.0354  0.5033
   89MOL0     H11976   3.488   4.250   3.675  1.0931 -1.0071 -1.8861
   89MOL0     H11977   3.808   3.810   3.788 -1.5229  0.8695  0.0360
   89MOL0     H11978   3.983   3.749   3.959 -2.6473 -3.1571 -2.0518
   89MOL0     H11979   3.985   3.601   4.153  0.6347 -1.4061 -0.0365
   89MOL0     H11980   4.128   3.695   4.153 -2.4055  0.3523 -2.5866
   89MOL0     H11981   3.982   3.620   4.407  1.2845  0.2590  2.3441
   89MOL0     H11982   4.102   3.509   4.324 -1.4838 -0.7530 -2.9247
   89MOL0     H11983   4.277   3.669   4.345  0.6816 -4.5547  1.9702
   89MOL0     H11984   4.160   3.794   4.411 -0.9332 -0.6991  1.1625
   89MOL0     H11985   4.200   3.547   4.582 -0.8450  1.0369  1.8347
   89MOL0     H11986   4.160   3.701   4.628  1.9001  3.2758 -0.3627
   89MOL0     H11987   4.389   3.777   4.522 -2.4199  1.6867  1.0921
   89MOL0     H11988   4.427   3.604   4.520 -5.1939 -1.6137 -2.4254
   89MOL0     H11989   4.355   3.764   4.769  1.5781 -1.2974  2.2465
   89MOL0     H11990   4.398   3.594   4.778  2.7793 -1.6002  0.2017
   89MOL0     H11991   4.626   3.633   4.690  1.5146  1.1671 -0.3624
   89MOL0     H11992   4.601   3.721   4.836  1.0386  3.2234  0.1080
   89MOL0     H11993   4.603   3.817   4.545 -1.4880  1.1329 -0.3630
   89MOL0     H11994   4.525   3.910   4.675 -0.6787 -0.1716  1.2935
   89MOL0     H11995   3.745   3.912   4.273 -0.1122 -5.3723  0.8221
   89MOL0     H11996   3.558   3.961   4.093  0.7952  0.8488  0.0962
   89MOL0     H11997   3.357   3.857   3.738  4.5344  0.0194 -1.9572
   89MOL0     H11998   3.163   3.887   3.613 -0.0339 -0.9240 -0.1454
   89MOL0     H11999   4.456   3.864   3.895 -0.3283  1.4615 -0.0288
   89MOL0     H12000   4.669   3.880   4.002 -1.5521 -0.2294  1.1271
   89MOL0     H12001   5.070   3.983   4.060 -3.4525  0.5904  0.1914
   89MOL0     H12002   5.278   3.974   4.167 -3.2725 -2.2812 -3.3274
   89MOL0     H12003   5.490   4.046   4.267 -2.9118 -2.0738 -1.2150
   89MOL0     H12004   5.400   3.928   4.338  1.3538 -0.4339 -3.2325
   89MOL0     H12005   5.624   3.958   4.466 -0.2814 -1.6824  3.1374
   89MOL0     H12006   5.475   3.943   4.552  2.4993  0.2554  1.4972
   89MOL0     H12007   5.480   4.177   4.595 -1.2370 -0.5634  0.6279
   89MOL0     H12008   5.585   4.221   4.463 -0.7814 -0.2279 -0.0712
   89MOL0     H12009   5.650   4.087   4.729  0.4422 -3.2717 -0.7825
   89MOL0     H12010   5.763   4.075   4.603  0.1868  0.4375  1.5979
   89MOL0     H12011   5.772   4.483   4.725 -3.7199  0.0241  0.6351
   89MOL0     H12012   5.148   4.299   4.418  0.7565  0.6852 -0.4457
   89MOL0     H12013   4.941   4.385   4.399 -0.6034  0.8987 -0.4448
   89MOL0     H12014   4.875   4.389   4.242  4.5895  1.5453 -0.5318
   89MOL0     H12015   4.821   4.266   4.362  0.9842 -2.0363  0.1939
   90MOL0     O12016   5.384   5.519   7.438 -0.0519  0.7628  0.1325
   90MOL0     C12017   5.321   5.497   7.533 -0.0118 -0.3160 -0.4041
   90MOL0     O12018   5.354   5.410   7.639 -0.2581  0.8522  0.7188
   90MOL0     C12019   5.462   5.317   7.640  0.4430 -0.2969 -0.2457
   90MOL0     C12020   5.587   5.346   7.577  0.8398 -0.8531 -0.4268
   90MOL0     C12021   5.688   5.250   7.586  0.2917 -0.9444 -0.1482
   90MOL0     C12022   5.663   5.131   7.656 -0.0845 -1.0422 -0.1043
   90MOL0     O12023   5.762   5.032   7.660  0.1698 -0.2983  0.1837
   90MOL0     C12024   5.818   5.015   7.527 -0.2122 -0.2099 -0.4480
   90MOL0     C12025   5.894   4.882   7.516 -1.2519  0.6073 -0.8831
   90MOL0     C12026   5.939   4.853   7.376  0.5791 -0.2767 -0.0669
   90MOL0     C12027   6.049   4.753   7.363  0.5486  0.2756 -0.1866
   90MOL0     C12028   6.080   4.737   7.213 -0.1698 -0.6826  0.4367
   90MOL0     C12029   6.219   4.648   7.200  0.7921 -0.5086  0.1507
   90MOL0     C12030   6.201   4.524   7.115  0.2869  0.0039 -0.0269
   90MOL0     C12031   6.331   4.455   7.084 -0.9139  0.8433 -0.9270
   90MOL0     N12032   6.321   4.312   7.118  0.1334  0.2383 -0.7317
   90MOL0     C12033   6.212   4.233   7.097  0.2647  0.2060 -0.8637
   90MOL0     C12034   6.262   4.105   7.105  0.0319 -1.2233 -0.6486
   90MOL0     C12035   6.174   3.985   7.094  0.5331  0.6926  0.2453
   90MOL0     C12036   6.150   3.939   6.954 -0.0978  0.0985 -0.1086
   90MOL0     C12037   6.007   3.939   6.917 -0.8039  0.3078  0.5483
   90MOL0     C12038   6.005   3.881   6.769 -0.4623 -0.3591 -0.5737
   90MOL0     O12039   6.065   3.981   6.680  0.4617 -0.2294  0.4872
   90MOL0     C12040   6.069   3.925   6.550 -1.4193 -0.4220  0.2389
   90MOL0     C12041   6.000   3.978   6.447 -0.0642 -0.5327  0.3824
   90MOL0     C12042   6.001   3.924   6.319 -0.2834  0.9473  0.5395
   90MOL0     C12043   6.086   3.817   6.289 -0.4579  0.8191 -0.4907
   90MOL0     C12044   6.096   3.754   6.155  0.0540  0.4973  0.7148
   90MOL0     O12045   6.220   3.703   6.120  0.5504 -0.0854 -0.6748
   90MOL0     C12046   6.232   3.612   6.021 -1.1103  0.4441  0.2193
   90MOL0     C12047   6.344   3.619   5.949 -0.2890  1.6014  0.0957
   90MOL0     C12048   6.372   3.514   5.864  0.0549 -0.5789  1.0600
   90MOL0     C12049   6.279   3.416   5.823 -0.1422 -0.7656 -0.8297
   90MOL0     O12050   6.287   3.312   5.736 -0.4966 -0.2257 -0.6854
   90MOL0     C12051   6.424   3.274   5.703  0.6356 -0.7751 -0.0714
   90MOL0     C12052   6.435   3.122   5.676 -0.7867  0.1999  0.7653
   90MOL0     C12053   6.328   3.061   5.589  0.1847 -0.4137  0.6245
   90MOL0     C12054   6.365   2.910   5.572 -0.0862 -0.0942  0.3506
   90MOL0     C12055   6.275   2.848   5.462 -0.2418  0.3951 -0.5376
   90MOL0     C12056   6.323   2.707   5.425 -0.1583  0.1767  1.3206
   90MOL0     C12057   6.210   2.656   5.322 -0.1291  0.3009 -0.7838
   90MOL0     C12058   6.106   2.579   5.398  0.3825  0.8069 -0.1455
   90MOL0    Cl12059   5.949   2.545   5.300 -0.1935 -0.2285  0.1093
   90MOL0     C12060   6.157   3.415   5.888  0.9412  0.2748 -0.7322
   90MOL0     C12061   6.138   3.507   5.991  0.2318  0.2231 -0.5371
   90MOL0     O12062   5.999   3.738   6.087 -0.4023  0.2218  0.3273
   90MOL0     C12063   6.173   3.774   6.392  0.1910  0.3328 -0.0238
   90MOL0     C12064   6.164   3.824   6.516  0.7555 -0.1472  0.1445
   90MOL0     N12065   6.394   4.107   7.145  0.0055  0.1471 -0.6745
   90MOL0     N12066   6.433   4.231   7.139  0.2596  0.2085  0.4095
   90MOL0     C12067   5.545   5.107   7.725  0.2265  0.7673 -0.1822
   90MOL0     C12068   5.438   5.194   7.710  0.6935  0.1999 -0.2439
   90MOL0     C12069   5.183   5.566   7.535  0.2120 -0.5324 -0.1391
   90MOL0     C12070   5.112   5.574   7.407  0.7658 -0.2766 -0.7068
   90MOL0     C12071   4.988   5.646   7.397 -0.0296  0.5030  0.0601
   90MOL0     C12072   4.943   5.717   7.512  0.2067  0.2349  0.0745
   90MOL0     O12073   4.839   5.803   7.496 -1.0652 -0.5094  0.5518
   90MOL0     C12074   4.782   5.893   7.602 -0.5287  0.1379  0.4790
   90MOL0     C12075   4.690   5.983   7.527 -0.0998  0.1669  0.3649
   90MOL0     C12076   4.611   6.066   7.632 -0.6029  0.0424 -0.7895
   90MOL0     C12077   4.496   6.144   7.567  0.3534 -0.3609 -0.1578
   90MOL0     C12078   4.434   6.226   7.666 -0.0030 -0.1344 -0.3891
   90MOL0     C12079   4.395   6.290   7.760  0.8414 -0.0545  0.8179
   90MOL0     C12080   5.006   5.700   7.636 -0.2787  0.4306  0.8062
   90MOL0     C12081   5.128   5.615   7.645  0.1460 -0.2227 -0.7773
   90MOL0     C12082   5.210   5.636   7.768  0.3227 -0.3028 -0.4705
   90MOL0     H12083   5.613   5.443   7.537  1.8386 -0.3710  1.3081
   90MOL0     H12084   5.780   5.268   7.531 -0.2639 -1.3174 -1.2088
   90MOL0     H12085   5.739   5.025   7.452 -1.6595 -0.8793  0.9299
   90MOL0     H12086   5.887   5.097   7.505 -0.3055  0.1886  0.6989
   90MOL0     H12087   5.825   4.802   7.545  1.5920 -2.3081 -1.5583
   90MOL0     H12088   5.983   4.876   7.580 -3.0958 -0.0380  1.7918
   90MOL0     H12089   5.964   4.948   7.329 -4.2842  0.9173 -0.8544
   90MOL0     H12090   5.847   4.826   7.323  0.7840  2.8900 -2.3096
   90MOL0     H12091   6.132   4.784   7.426 -0.1608  0.8207  0.5059
   90MOL0     H12092   6.016   4.659   7.409 -1.4021  2.2197  2.7461
   90MOL0     H12093   5.992   4.689   7.169 -0.5954 -0.3494  0.9139
   90MOL0     H12094   6.095   4.836   7.170  0.2951 -0.5864  0.8021
   90MOL0     H12095   6.289   4.716   7.151  1.0634 -1.1768 -0.3954
   90MOL0     H12096   6.252   4.624   7.302  0.8146 -1.3920 -0.0585
   90MOL0     H12097   6.158   4.552   7.018  0.0801  0.7016  0.2612
   90MOL0     H12098   6.129   4.461   7.168 -0.4710 -0.6442 -1.7410
   90MOL0     H12099   6.351   4.465   6.977 -1.3485  0.9497 -1.0014
   90MOL0     H12100   6.419   4.489   7.139 -0.3913 -0.6110 -0.8250
   90MOL0     H12101   6.115   4.263   7.060 -0.8834  3.2773  3.8220
   90MOL0     H12102   6.211   3.898   7.148 -2.5688 -0.9841 -0.0811
   90MOL0     H12103   6.082   4.018   7.142  1.0955  0.3744  1.5836
   90MOL0     H12104   6.221   3.989   6.888 -1.3011  2.2174  0.0958
   90MOL0     H12105   6.188   3.837   6.956  0.1589 -0.0210 -3.9761
   90MOL0     H12106   5.953   4.034   6.920  0.4776  1.0371  1.4582
   90MOL0     H12107   5.955   3.880   6.993  1.4848 -2.1377  0.3353
   90MOL0     H12108   5.901   3.858   6.742 -1.2089  2.2981 -0.2746
   90MOL0     H12109   6.064   3.789   6.767  1.8094  1.0546 -1.5445
   90MOL0     H12110   5.949   4.071   6.470  0.5435 -0.2615  0.6372
   90MOL0     H12111   5.930   3.961   6.247 -1.1956 -0.0898  0.8775
   90MOL0     H12112   6.424   3.689   5.970  1.1344  0.6307 -1.7906
   90MOL0     H12113   6.471   3.524   5.821 -0.6941  1.8104 -0.2829
   90MOL0     H12114   6.446   3.331   5.612 -0.4427 -2.9895 -1.8409
   90MOL0     H12115   6.499   3.305   5.775  0.0893 -0.1893  0.2518
   90MOL0     H12116   6.532   3.106   5.628 -0.8030 -4.0467  1.7655
   90MOL0     H12117   6.434   3.076   5.775  2.1111 -0.9360  0.3716
   90MOL0     H12118   6.233   3.066   5.643 -0.6097  2.6089 -0.7948
   90MOL0     H12119   6.318   3.105   5.489  1.0280  0.1970  0.8045
   90MOL0     H12120   6.353   2.860   5.668  2.4273 -0.7841  0.3594
   90MOL0     H12121   6.468   2.906   5.537 -1.0029 -0.9175 -2.6025
   90MOL0     H12122   6.287   2.908   5.372  2.0687 -0.7692 -1.0835
   90MOL0     H12123   6.172   2.856   5.498  0.1975  2.5946  0.4248
   90MOL0     H12124   6.425   2.702   5.385 -0.0784 -2.8431  1.6917
   90MOL0     H12125   6.333   2.647   5.516  2.1669 -2.2271 -0.3587
   90MOL0     H12126   6.245   2.587   5.244 -2.7346  0.9322 -2.6603
   90MOL0     H12127   6.165   2.731   5.256  0.5462 -1.4135 -3.3493
   90MOL0     H12128   6.151   2.487   5.434  2.7139  2.0678  0.3064
   90MOL0     H12129   6.066   2.644   5.476 -4.9671  1.7607 -3.1816
   90MOL0     H12130   6.092   3.329   5.875  0.4943  0.4443  0.2893
   90MOL0     H12131   6.047   3.506   6.050  0.3237  3.0574 -0.1790
   90MOL0     H12132   6.249   3.700   6.371 -1.6231 -1.4236 -0.7260
   90MOL0     H12133   6.235   3.775   6.582  0.2624 -4.3581 -2.1188
   90MOL0     H12134   5.539   5.014   7.781 -1.2406  0.5348 -0.6656
   90MOL0     H12135   5.342   5.178   7.759  0.2157  2.6536 -0.2348
   90MOL0     H12136   5.150   5.519   7.321  0.1728 -1.7138 -0.0930
   90MOL0     H12137   4.929   5.650   7.307 -0.6645 -2.0484  0.2892
   90MOL0     H12138   4.865   5.958   7.633 -0.0337  0.0248 -0.5682
   90MOL0     H12139   4.734   5.837   7.682  0.9160 -2.1742 -0.1864
   90MOL0     H12140   4.616   5.915   7.484 -0.6547  0.1983  1.2535
   90MOL0     H12141   4.736   6.040   7.446 -2.8005 -0.7121 -1.9547
   90MOL0     H12142   4.676   6.136   7.687  1.1969 -1.5087 -0.8372
   90MOL0     H12143   4.565   5.996   7.702  0.0692 -0.9833 -1.3406
   90MOL0     H12144   4.534   6.214   7.493  0.8143  1.6518  1.8556
   90MOL0     H12145   4.415   6.090   7.518 -0.6209  0.2942  0.6979
   90MOL0     H12146   4.369   6.362   7.835 -1.2436  1.1511 -0.9276
   90MOL0     H12147   4.960   5.769   7.707  0.3696  1.5410  0.1748
   90MOL0     H12148   5.314   5.648   7.735  0.3284  2.0681  0.1765
   90MOL0     H12149   5.172   5.716   7.833 -2.3550 -3.1837  1.7938
   90MOL0     H12150   5.193   5.558   7.843  0.3488  0.9662  0.9087
   91MOL0     O12151   4.914  10.906  10.740  0.3400  0.2321  0.7618
   91MOL0     C12152   4.891  10.813  10.657 -0.1873 -0.3485 -0.0124
   91MOL0     O12153   4.876  10.680  10.691  0.4640 -0.5505  0.4260
   91MOL0     C12154   4.854  10.632  10.817 -0.3311 -0.1485 -0.0115
   91MOL0     C12155   4.919  10.513  10.855  0.6246 -0.4741  0.0038
   91MOL0     C12156   4.909  10.466  10.992  0.3518 -0.5953 -0.2122
   91MOL0     C12157   4.825  10.532  11.082 -0.5655 -0.1144  0.3413
   91MOL0     O12158   4.817  10.465  11.198 -0.1028  0.4705  0.2641
   91MOL0     C12159   4.727  10.501  11.304  0.5637 -0.2845  0.5098
   91MOL0     C12160   4.574  10.471  11.271  0.6213 -0.4388 -0.1640
   91MOL0     C12161   4.484  10.499  11.391 -0.2254 -0.4564 -0.3661
   91MOL0     C12162   4.365  10.418  11.377  0.0945  0.0360 -0.4430
   91MOL0     C12163   4.273  10.431  11.502  0.8517  0.4939 -0.8003
   91MOL0     C12164   4.150  10.343  11.495 -0.7286 -0.9572  0.3818
   91MOL0     C12165   4.080  10.372  11.625  0.4032 -0.6554 -0.6326
   91MOL0     C12166   3.967  10.270  11.651 -0.3404 -0.1000 -0.6278
   91MOL0     N12167   3.853  10.321  11.735 -0.4957  0.2734 -0.7116
   91MOL0     C12168   3.756  10.412  11.692  0.1301  0.1121 -1.1025
   91MOL0     C12169   3.675  10.424  11.800  0.7323 -0.3469  0.4914
   91MOL0     C12170   3.538  10.488  11.802 -0.0376 -0.5327 -0.3318
   91MOL0     C12171   3.532  10.625  11.869 -0.5663 -0.4650  0.8171
   91MOL0     C12172   3.539  10.627  12.013 -0.8517  0.2057 -0.1279
   91MOL0     C12173   3.573  10.772  12.061  0.1650 -0.3723  0.2562
   91MOL0     O12174   3.686  10.835  12.001 -0.4098 -0.1646 -0.2213
   91MOL0     C12175   3.685  10.971  11.996  0.1870 -0.2104  0.3188
   91MOL0     C12176   3.796  11.041  12.033 -0.6557  0.2249  0.6495
   91MOL0     C12177   3.808  11.182  12.024 -0.6850 -0.5557  0.6029
   91MOL0     C12178   3.726  11.252  11.941 -0.0625 -1.1031  0.0964
   91MOL0     C12179   3.751  11.395  11.919  0.5839 -0.8181 -0.8387
   91MOL0     O12180   3.855  11.468  11.968 -0.6293 -0.1463  0.4073
   91MOL0     C12181   3.852  11.604  11.958 -0.8611  0.2753  0.1046
   91MOL0     C12182   3.742  11.682  12.004  0.3459  0.6938 -0.0365
   91MOL0     C12183   3.755  11.821  12.000  0.1378  0.8720  0.0989
   91MOL0     C12184   3.866  11.886  11.942  0.0598 -0.1943  0.0021
   91MOL0     O12185   3.884  12.025  11.942 -0.2034  0.1745 -0.4951
   91MOL0     C12186   3.816  12.099  12.052 -0.5306  0.0195 -0.3486
   91MOL0     C12187   3.886  12.230  12.087  0.4284  0.0532  0.2276
   91MOL0     C12188   3.913  12.319  11.964 -0.2636 -0.3687  0.0036
   91MOL0     C12189   3.790  12.326  11.884  0.1794  0.1938 -0.2602
   91MOL0     C12190   3.787  12.441  11.783  0.2808  0.1228  1.3086
   91MOL0     C12191   3.659  12.442  11.705 -0.4372 -0.1578  0.2601
   91MOL0     C12192   3.530  12.479  11.782  0.1411  0.4127 -0.3098
   91MOL0     C12193   3.403  12.463  11.693  0.1366  0.6800 -0.7861
   91MOL0    Cl12194   3.426  12.560  11.543  0.2096  0.3917  0.4314
   91MOL0     C12195   3.963  11.807  11.900 -0.0916 -0.5016 -0.5708
   91MOL0     C12196   3.965  11.669  11.915  0.2078  0.6518 -0.0603
   91MOL0     O12197   3.665  11.451  11.849  0.1567  0.3313  0.5406
   91MOL0     C12198   3.616  11.182  11.877 -0.7357  0.2402 -0.1958
   91MOL0     C12199   3.593  11.047  11.908  0.3206 -0.7863  0.9403
   91MOL0     N12200   3.710  10.333  11.897  0.0408  0.5736 -0.2626
   91MOL0     N12201   3.829  10.285  11.862 -0.1758  0.6144 -0.1257
   91MOL0     C12202   4.758  10.644  11.047 -0.5212 -0.6277  1.2295
   91MOL0     C12203   4.764  10.697  10.915 -1.2668 -0.8852  1.1618
   91MOL0     C12204   4.855  10.847  10.522 -0.3674  0.1799 -0.8811
   91MOL0     C12205   4.957  10.821  10.428  0.6802 -0.0013 -0.2785
   91MOL0     C12206   4.934  10.865  10.297 -0.4029 -0.2581 -0.5488
   91MOL0     C12207   4.816  10.937  10.251 -0.3702  0.2726  0.0421
   91MOL0     O12208   4.797  10.962  10.119  0.6210  0.2696 -0.8196
   91MOL0     C12209   4.778  11.102  10.090  0.1902  0.4313  0.0693
   91MOL0     C12210   4.925  11.164  10.077  0.5687  0.0792  0.3475
   91MOL0     C12211   5.015  11.093   9.971 -0.2518 -0.1539 -0.8907
   91MOL0     C12212   4.953  11.089   9.828  0.0227  0.0510  0.2875
   91MOL0     C12213   5.059  11.060   9.740 -0.2118 -1.0491  0.9005
   91MOL0     C12214   5.127  11.015   9.647 -0.5947 -0.4276  0.3604
   91MOL0     C12215   4.712  10.948  10.350 -0.3750  0.0200  0.7103
   91MOL0     C12216   4.737  10.918  10.484 -1.1937  0.5944  0.9927
   91MOL0     C12217   4.633  10.936  10.592  1.3555  0.1732  0.2535
   91MOL0     H12218   4.983  10.467  10.780  0.1638  2.1834 -2.1445
   91MOL0     H12219   4.965  10.384  11.036  0.6015 -0.2097  0.1834
   91MOL0     H12220   4.737  10.455  11.402  2.1710 -0.9551  0.0572
   91MOL0     H12221   4.732  10.609  11.320 -1.2712 -0.0023 -0.5125
   91MOL0     H12222   4.558  10.375  11.221  1.4586 -2.0102  2.3556
   91MOL0     H12223   4.537  10.534  11.190 -0.0626  0.1512  0.5924
   91MOL0     H12224   4.452  10.603  11.403 -0.7553 -0.5226 -1.0734
   91MOL0     H12225   4.544  10.471  11.478  1.7259 -2.2348 -2.1809
   91MOL0     H12226   4.314  10.459  11.290  0.1338 -0.5477 -0.7460
   91MOL0     H12227   4.400  10.316  11.357 -0.2730 -0.4543  1.2323
   91MOL0     H12228   4.331  10.404  11.591 -0.0743  0.7304 -0.1130
   91MOL0     H12229   4.250  10.538  11.512  2.2189  0.7957 -0.6813
   91MOL0     H12230   4.083  10.378  11.416 -1.8793  1.3828  2.2992
   91MOL0     H12231   4.182  10.238  11.488  0.9241 -0.6681  2.6100
   91MOL0     H12232   4.039  10.471  11.606  0.9990 -0.4477 -0.8483
   91MOL0     H12233   4.155  10.380  11.704  0.8959 -0.6373 -1.0927
   91MOL0     H12234   3.918  10.248  11.556  0.4278  1.8683 -1.5413
   91MOL0     H12235   4.010  10.184  11.703  0.7813  0.6819 -0.2248
   91MOL0     H12236   3.742  10.459  11.595  4.6002  0.3887 -1.8236
   91MOL0     H12237   3.505  10.505  11.700 -0.0958 -1.9917 -0.5874
   91MOL0     H12238   3.475  10.417  11.856  1.2509  0.9707  3.5301
   91MOL0     H12239   3.608  10.689  11.823  0.3168 -1.4893  0.7858
   91MOL0     H12240   3.432  10.665  11.851  0.2505  1.3920  0.1918
   91MOL0     H12241   3.617  10.556  12.044 -0.5497 -2.1120 -5.1140
   91MOL0     H12242   3.441  10.599  12.051 -0.6491 -2.8086 -1.4808
   91MOL0     H12243   3.584  10.777  12.169  0.8073  1.5370  0.1447
   91MOL0     H12244   3.485  10.827  12.026  0.4860  1.0790  1.5961
   91MOL0     H12245   3.875  10.978  12.072 -1.3011 -0.1464  1.3744
   91MOL0     H12246   3.899  11.223  12.066 -0.8311 -0.4421  0.8161
   91MOL0     H12247   3.662  11.628  12.055  2.0303 -2.9356 -0.8696
   91MOL0     H12248   3.674  11.888  12.028 -1.5195  0.4008 -3.1345
   91MOL0     H12249   3.710  12.106  12.028 -0.7230 -0.9439  0.1873
   91MOL0     H12250   3.825  12.037  12.142 -1.2053 -1.2405 -1.1111
   91MOL0     H12251   3.842  12.291  12.167 -0.0922  3.2850 -2.2768
   91MOL0     H12252   3.985  12.202  12.121  0.4403  1.1346  1.1518
   91MOL0     H12253   3.947  12.418  11.996 -0.6630  1.0200 -3.4373
   91MOL0     H12254   3.988  12.276  11.897 -1.7330 -2.7258 -0.2599
   91MOL0     H12255   3.706  12.333  11.954  0.6584 -0.6916  0.4195
   91MOL0     H12256   3.777  12.236  11.823 -0.8888  0.6418 -0.7202
   91MOL0     H12257   3.871  12.427  11.714 -1.2088  0.0089 -0.5544
   91MOL0     H12258   3.799  12.542  11.823 -2.2660  0.4490  1.4230
   91MOL0     H12259   3.663  12.509  11.619 -1.4652  1.0601  1.1163
   91MOL0     H12260   3.653  12.339  11.667  0.9931  0.3238 -1.3673
   91MOL0     H12261   3.529  12.578  11.830 -1.5509  0.9247 -1.2983
   91MOL0     H12262   3.510  12.408  11.863  1.1908 -0.2127 -0.5795
   91MOL0     H12263   3.385  12.356  11.679 -2.3927  0.7864  1.0879
   91MOL0     H12264   3.315  12.493  11.750  2.1756  0.3751  2.8742
   91MOL0     H12265   4.050  11.859  11.861 -1.3420  1.6193 -0.6714
   91MOL0     H12266   4.055  11.615  11.887  0.2741 -0.9268  2.7539
   91MOL0     H12267   3.554  11.243  11.812  2.7098  2.7857 -1.4496
   91MOL0     H12268   3.520  10.983  11.859  0.0100  0.3665 -0.1547
   91MOL0     H12269   4.689  10.692  11.116  0.3389  2.5610  0.0279
   91MOL0     H12270   4.705  10.785  10.891 -0.6744 -1.1926 -1.6694
   91MOL0     H12271   5.041  10.759  10.457  0.4007 -0.9160 -1.3442
   91MOL0     H12272   5.015  10.856  10.224  1.6683 -1.3096  1.7220
   91MOL0     H12273   4.702  11.150  10.152  0.8406  1.2413  0.2456
   91MOL0     H12274   4.741  11.103   9.987  0.2196 -2.0008 -0.0283
   91MOL0     H12275   4.978  11.157  10.173  0.6899 -4.1199  0.1596
   91MOL0     H12276   4.917  11.271  10.055 -0.5182  0.0026  0.3309
   91MOL0     H12277   5.034  10.995  10.015  0.8255  0.5434  0.2399
   91MOL0     H12278   5.111  11.144   9.964 -1.8378  3.0057 -1.2439
   91MOL0     H12279   4.879  11.008   9.826  1.0888 -0.9491  0.2003
   91MOL0     H12280   4.897  11.181   9.805  0.9894  0.8210  0.9511
   91MOL0     H12281   5.179  10.968   9.565  3.4947  1.2687  1.7003
   91MOL0     H12282   4.613  10.984  10.322 -2.0274 -3.1948  1.8184
   91MOL0     H12283   4.659  10.869  10.675  0.6281  0.9379  1.1150
   91MOL0     H12284   4.640  11.036  10.635  0.8549  0.9960 -1.4914
   91MOL0     H12285   4.531  10.917  10.556  1.5415  1.1594 -0.8671
   92MOL0     O12286   4.719   0.558   5.732 -1.1650 -0.1558  0.0109
   92MOL0     C12287   4.749   0.674   5.755  0.5564 -1.0126  0.3295
   92MOL0     O12288   4.834   0.723   5.852  0.2891  0.0365  0.4837
   92MOL0     C12289   4.900   0.638   5.937  0.2641  0.1017 -0.4078
   92MOL0     C12290   4.833   0.546   6.017  0.1875 -0.4552 -0.1041
   92MOL0     C12291   4.907   0.472   6.113  0.5566  1.3348  0.2259
   92MOL0     C12292   5.051   0.480   6.106  0.0976 -0.8177  0.4182
   92MOL0     O12293   5.139   0.405   6.179 -1.2302  0.3667  0.1826
   92MOL0     C12294   5.083   0.295   6.252  0.1295 -0.1546  0.3797
   92MOL0     C12295   5.195   0.223   6.331 -0.1141  0.0727 -0.3950
   92MOL0     C12296   5.130   0.127   6.435 -0.0887  0.5379  0.6387
   92MOL0     C12297   5.234   0.031   6.484 -0.4082 -0.3959 -0.3878
   92MOL0     C12298   5.302   0.072   6.610 -1.3688  0.1497 -0.2309
   92MOL0     C12299   5.210   0.026   6.726 -0.0213  0.5221  0.5944
   92MOL0     C12300   5.231   0.124   6.840  0.2769 -0.2610 -0.5164
   92MOL0     C12301   5.150   0.077   6.968  0.1933  0.0448 -0.2373
   92MOL0     N12302   5.186   0.162   7.090  0.1080 -0.2924  0.2393
   92MOL0     C12303   5.152   0.290   7.121  0.2028  0.0227 -0.1444
   92MOL0     C12304   5.200   0.323   7.243  0.0012  0.3089  0.2200
   92MOL0     C12305   5.213   0.453   7.304 -0.9628 -0.3013  0.5372
   92MOL0     C12306   5.278   0.568   7.232 -1.1325  0.3106 -0.2726
   92MOL0     C12307   5.427   0.525   7.210  0.6939 -0.1748  0.6951
   92MOL0     C12308   5.498   0.638   7.132 -0.2602  0.4163 -0.6487
   92MOL0     O12309   5.635   0.609   7.087  0.5003  0.5377  0.1965
   92MOL0     C12310   5.649   0.566   6.956 -0.5633  1.4697 -0.4682
   92MOL0     C12311   5.771   0.587   6.897  0.0941 -0.1071 -0.4598
   92MOL0     C12312   5.785   0.538   6.766  0.8283  0.9034 -0.7493
   92MOL0     C12313   5.690   0.464   6.701 -0.1776  0.1823  0.0171
   92MOL0     C12314   5.713   0.404   6.571  0.5785 -0.2337 -1.1250
   92MOL0     O12315   5.833   0.425   6.516  0.2023  0.5961 -0.0429
   92MOL0     C12316   5.850   0.398   6.383  0.8500  0.6658  0.3444
   92MOL0     C12317   5.822   0.266   6.332 -0.4069 -0.4387 -0.3595
   92MOL0     C12318   5.858   0.235   6.199  0.7995 -0.9847 -0.2748
   92MOL0     C12319   5.929   0.331   6.122  0.4883  0.2501 -0.3716
   92MOL0     O12320   5.972   0.293   5.994 -0.1729 -0.0864 -0.1461
   92MOL0     C12321   5.913   0.353   5.886 -0.4026 -0.3990 -0.4325
   92MOL0     C12322   5.969   0.326   5.753 -0.2032  0.0323  0.6823
   92MOL0     C12323   5.907   0.218   5.668 -0.7621  1.2629 -0.3696
   92MOL0     C12324   5.826   0.266   5.555  0.7431 -0.6226 -0.5573
   92MOL0     C12325   5.874   0.214   5.422  0.0334  0.6736  0.0120
   92MOL0     C12326   5.972   0.304   5.344 -0.2724  0.6066 -0.5119
   92MOL0     C12327   6.100   0.338   5.423 -0.4607  0.4888 -0.2244
   92MOL0     C12328   6.184   0.423   5.318 -0.1210 -0.7331 -0.1783
   92MOL0    Cl12329   6.257   0.313   5.196 -0.0947 -0.0447  0.3721
   92MOL0     C12330   5.935   0.466   6.163  0.7367 -0.0656 -0.7957
   92MOL0     C12331   5.907   0.497   6.299  0.1607  0.9813 -0.6504
   92MOL0     O12332   5.618   0.347   6.518 -0.1537  0.4368  0.5715
   92MOL0     C12333   5.577   0.442   6.766 -0.0584 -0.7112  0.0075
   92MOL0     C12334   5.551   0.507   6.880 -0.2610 -0.4827 -0.3483
   92MOL0     N12335   5.269   0.209   7.283  0.2359 -0.1297  0.3292
   92MOL0     N12336   5.261   0.116   7.196  0.5559  1.4712 -0.3365
   92MOL0     C12337   5.115   0.568   6.017  0.3127 -0.5339  0.0476
   92MOL0     C12338   5.036   0.637   5.931 -0.1775  0.2407  1.2542
   92MOL0     C12339   4.712   0.773   5.653 -0.2895 -0.4118  0.1285
   92MOL0     C12340   4.739   0.906   5.686 -0.4119 -0.1952 -0.2910
   92MOL0     C12341   4.730   1.012   5.597  0.5697 -0.4917  0.2669
   92MOL0     C12342   4.668   0.983   5.473  0.2070 -0.2900 -0.1654
   92MOL0     O12343   4.626   1.084   5.383  0.3666 -0.0059 -0.2913
   92MOL0     C12344   4.654   1.222   5.410 -0.3647  0.3520  0.2568
   92MOL0     C12345   4.655   1.291   5.267 -0.5033 -0.0854 -0.0133
   92MOL0     C12346   4.512   1.291   5.208 -0.1005 -0.3180  0.1524
   92MOL0     C12347   4.411   1.390   5.267 -0.0932  0.1002 -0.1202
   92MOL0     C12348   4.459   1.527   5.288  0.7189 -0.3106 -0.3460
   92MOL0     C12349   4.463   1.652   5.297 -0.0240 -0.0495  0.7969
   92MOL0     C12350   4.637   0.852   5.437 -0.7288  0.5332  0.8134
   92MOL0     C12351   4.655   0.743   5.523  0.2401 -0.0493  0.6471
   92MOL0     C12352   4.623   0.608   5.465  0.2570  0.0546 -0.2751
   92MOL0     H12353   4.725   0.546   6.002  0.2269  0.2317 -0.4263
   92MOL0     H12354   4.841   0.408   6.172 -1.2893  3.8440  1.0720
   92MOL0     H12355   5.015   0.335   6.328  1.4222  2.4169  0.2655
   92MOL0     H12356   5.032   0.226   6.184  1.7433 -1.0587  0.0506
   92MOL0     H12357   5.247   0.292   6.397  0.6383 -1.9035  1.1760
   92MOL0     H12358   5.263   0.171   6.263  0.5068  1.5744 -0.9802
   92MOL0     H12359   5.055   0.064   6.384  0.4592 -0.0696  0.5658
   92MOL0     H12360   5.084   0.183   6.517 -1.0616 -2.1177  2.0221
   92MOL0     H12361   5.185  -0.066   6.501 -0.2035 -0.6637 -1.2598
   92MOL0     H12362   5.314   0.015   6.412 -0.9958 -0.2728 -1.0834
   92MOL0     H12363   5.399   0.022   6.623 -1.6568  0.2258  2.7345
   92MOL0     H12364   5.320   0.179   6.617  1.3041 -0.2931  1.1706
   92MOL0     H12365   5.104   0.024   6.700  0.0644 -0.1616  0.2692
   92MOL0     H12366   5.241  -0.074   6.756 -0.7492  0.7267  2.1183
   92MOL0     H12367   5.210   0.226   6.808 -0.3319 -0.6905 -1.5428
   92MOL0     H12368   5.335   0.142   6.865 -0.0417  0.6693  0.2062
   92MOL0     H12369   5.041   0.078   6.963  0.1116 -3.3319 -2.1525
   92MOL0     H12370   5.172  -0.027   6.991 -1.2483 -0.5739 -1.4905
   92MOL0     H12371   5.104   0.363   7.058  2.1306  1.3522 -0.1484
   92MOL0     H12372   5.116   0.486   7.342 -0.8474  0.4662  0.1867
   92MOL0     H12373   5.272   0.432   7.394  1.0245  1.0888 -0.3662
   92MOL0     H12374   5.231   0.579   7.133 -0.3165 -3.0152 -1.1635
   92MOL0     H12375   5.274   0.656   7.296 -1.0771 -0.5442  0.9250
   92MOL0     H12376   5.420   0.446   7.135 -2.2052  1.1972 -0.6283
   92MOL0     H12377   5.483   0.487   7.296 -1.3622 -0.1011  2.1492
   92MOL0     H12378   5.501   0.724   7.199 -0.2343 -1.8619  2.5176
   92MOL0     H12379   5.445   0.661   7.039 -0.1238 -1.0159 -1.1125
   92MOL0     H12380   5.866   0.621   6.937  0.2706 -2.1482  1.0032
   92MOL0     H12381   5.880   0.568   6.722  0.6592  1.3266 -0.8311
   92MOL0     H12382   5.765   0.202   6.398  1.7019 -2.3303 -0.2395
   92MOL0     H12383   5.847   0.139   6.149  0.4389 -2.5246  2.5148
   92MOL0     H12384   5.808   0.322   5.887 -0.3306 -0.6481  0.4484
   92MOL0     H12385   5.917   0.462   5.897  1.1598 -0.3021 -1.6588
   92MOL0     H12386   5.954   0.421   5.699  0.6362  0.0754  0.5040
   92MOL0     H12387   6.077   0.314   5.766  0.2380  0.9712 -1.6291
   92MOL0     H12388   5.997   0.161   5.643 -1.6872 -0.6496  0.4698
   92MOL0     H12389   5.861   0.146   5.736  2.4972  1.5938  2.4572
   92MOL0     H12390   5.827   0.376   5.552 -1.8256 -0.5505 -1.5600
   92MOL0     H12391   5.722   0.234   5.570  0.1273  1.3015 -0.3888
   92MOL0     H12392   5.781   0.194   5.366  0.0089 -1.6744  0.7744
   92MOL0     H12393   5.932   0.122   5.427  1.1111  1.2153 -1.7220
   92MOL0     H12394   6.000   0.242   5.259 -0.6420  0.3927 -0.4793
   92MOL0     H12395   5.925   0.399   5.316  2.2967  2.0694 -0.1385
   92MOL0     H12396   6.161   0.251   5.448  1.8511  1.9097 -0.5751
   92MOL0     H12397   6.068   0.398   5.509 -0.0347 -0.2448  0.4633
   92MOL0     H12398   6.118   0.500   5.277  1.2800  0.0021 -1.1357
   92MOL0     H12399   6.271   0.476   5.357 -1.4219  2.5233 -1.3627
   92MOL0     H12400   5.969   0.545   6.097  2.7819 -1.0060 -0.9469
   92MOL0     H12401   5.926   0.593   6.347  2.5598 -0.0528  0.6661
   92MOL0     H12402   5.496   0.387   6.719  0.1324  1.3363 -3.0057
   92MOL0     H12403   5.454   0.492   6.925  1.0535  2.3521  4.1872
   92MOL0     H12404   5.223   0.563   6.023  0.3614  1.0926  2.2394
   92MOL0     H12405   5.075   0.704   5.854 -2.6574 -0.4164 -0.7250
   92MOL0     H12406   4.785   0.935   5.779  0.8306 -2.0474 -0.2693
   92MOL0     H12407   4.765   1.107   5.635 -1.6229  1.3843 -2.0000
   92MOL0     H12408   4.747   1.237   5.465  1.1542  0.5649 -2.2159
   92MOL0     H12409   4.572   1.259   5.473 -0.4893  0.4878  0.0158
   92MOL0     H12410   4.725   1.239   5.200 -0.7802 -0.6947  0.1655
   92MOL0     H12411   4.687   1.394   5.284  0.8702 -0.9091  3.2513
   92MOL0     H12412   4.468   1.191   5.214 -0.4513 -0.0955  1.7298
   92MOL0     H12413   4.532   1.309   5.102 -0.1219  2.0276  0.4972
   92MOL0     H12414   4.335   1.400   5.188 -0.8862 -3.1869  0.0979
   92MOL0     H12415   4.361   1.361   5.360  0.2057  0.7819  0.2623
   92MOL0     H12416   4.463   1.758   5.308  0.8354  0.0411  0.0007
   92MOL0     H12417   4.604   0.838   5.334 -1.6326 -0.7040  1.2447
   92MOL0     H12418   4.541   0.608   5.393 -0.1071  0.4434  0.1339
   92MOL0     H12419   4.718   0.571   5.425 -0.1690 -2.3922  0.7371
   92MOL0     H12420   4.582   0.537   5.538 -1.7096  1.4762  0.0674
   93MOL0     O12421   1.581   6.241   4.786  0.7297 -0.2213 -0.4988
   93MOL0     C12422   1.509   6.251   4.886  0.4016  1.0745 -0.3033
   93MOL0     O12423   1.373   6.270   4.885 -0.2478  0.4588  0.2150
   93MOL0     C12424   1.309   6.227   4.772 -0.7534 -1.1621 -0.2133
   93MOL0     C12425   1.272   6.323   4.689  0.3936 -0.3674  0.8070
   93MOL0     C12426   1.205   6.308   4.564  0.7849  0.4446  0.5883
   93MOL0     C12427   1.169   6.177   4.532  0.3851  0.8811 -0.0402
   93MOL0     O12428   1.141   6.149   4.403  0.0559 -0.3480  0.2308
   93MOL0     C12429   1.015   6.095   4.376 -0.7153 -0.5655  0.5103
   93MOL0     C12430   1.018   6.013   4.243  0.4058 -0.7874 -0.5973
   93MOL0     C12431   1.095   5.889   4.259 -0.1417  0.3462 -0.3252
   93MOL0     C12432   1.128   5.831   4.124  0.5063  0.3892  0.7431
   93MOL0     C12433   1.198   5.694   4.128 -0.6444  1.0789  0.3458
   93MOL0     C12434   1.346   5.718   4.164 -0.4558  0.7844 -0.5346
   93MOL0     C12435   1.424   5.585   4.145  1.0347 -0.0329  0.8489
   93MOL0     C12436   1.562   5.570   4.212 -0.1597  0.7972  0.3505
   93MOL0     N12437   1.674   5.642   4.144  0.9346 -0.2215 -0.5688
   93MOL0     C12438   1.702   5.775   4.173 -0.9913 -0.0056 -0.3732
   93MOL0     C12439   1.784   5.816   4.074  1.1012  0.2616  0.4742
   93MOL0     C12440   1.830   5.957   4.043  0.0445  0.4172  1.0271
   93MOL0     C12441   1.766   6.014   3.914  0.7385  0.0479  0.9897
   93MOL0     C12442   1.849   6.134   3.869 -0.3133  0.5595  0.5698
   93MOL0     C12443   1.841   6.268   3.952  0.2980  0.1935 -0.6074
   93MOL0     O12444   1.915   6.388   3.912  0.2877 -0.1507  0.4338
   93MOL0     C12445   2.054   6.400   3.905  0.7915  0.7482  0.0126
   93MOL0     C12446   2.141   6.322   3.979 -0.2124  0.7958 -0.1466
   93MOL0     C12447   2.281   6.320   3.961  0.1166 -1.1668  0.2188
   93MOL0     C12448   2.333   6.417   3.874  0.5850 -0.2226 -1.0913
   93MOL0     C12449   2.468   6.421   3.826  0.7946 -1.2442  0.6026
   93MOL0     O12450   2.530   6.302   3.832 -0.3219  0.0062  0.2911
   93MOL0     C12451   2.654   6.293   3.762 -0.0966  0.1860 -0.9661
   93MOL0     C12452   2.671   6.183   3.671  0.1784  0.8391  0.8559
   93MOL0     C12453   2.801   6.169   3.604  1.0204  0.2425 -0.7030
   93MOL0     C12454   2.897   6.263   3.614 -0.1494  0.6719  0.1182
   93MOL0     O12455   3.016   6.259   3.545 -0.8955  0.4080 -0.8108
   93MOL0     C12456   3.026   6.178   3.427  0.3311  0.1090  0.3928
   93MOL0     C12457   3.143   6.202   3.361 -0.1262 -0.1648  0.8540
   93MOL0     C12458   3.172   6.122   3.230  0.4086  0.0683 -0.0559
   93MOL0     C12459   3.307   6.158   3.163 -0.3562 -0.0882  0.3887
   93MOL0     C12460   3.312   6.095   3.021  0.3663  0.7363 -0.2943
   93MOL0     C12461   3.446   6.100   2.955  0.0144  0.1154  0.2949
   93MOL0     C12462   3.443   6.010   2.831 -0.1515 -0.1401  0.0571
   93MOL0     C12463   3.568   6.028   2.750 -0.0191  0.1131 -0.1199
   93MOL0    Cl12464   3.568   6.174   2.648  0.2793  0.2397  0.0336
   93MOL0     C12465   2.878   6.360   3.711  0.2687 -0.1088 -0.2563
   93MOL0     C12466   2.761   6.384   3.778  0.6389 -0.2477 -0.9542
   93MOL0     O12467   2.509   6.530   3.777 -0.1810 -0.5360 -0.0264
   93MOL0     C12468   2.243   6.510   3.811 -0.5881 -0.4614 -0.5489
   93MOL0     C12469   2.108   6.509   3.834 -0.1887  0.8556  0.6936
   93MOL0     N12470   1.806   5.706   3.988  0.6841 -0.4302  0.5071
   93MOL0     N12471   1.744   5.600   4.036 -0.4266 -0.1448 -0.4329
   93MOL0     C12472   1.199   6.072   4.623 -0.2299  0.0245  0.7582
   93MOL0     C12473   1.260   6.095   4.752  0.1337 -0.3050  0.3309
   93MOL0     C12474   1.564   6.233   5.019 -0.6762 -0.7369  0.5867
   93MOL0     C12475   1.546   6.330   5.115  0.7722  0.7081 -0.6533
   93MOL0     C12476   1.624   6.327   5.230  0.2512 -0.0067  0.2747
   93MOL0     C12477   1.715   6.228   5.258 -0.1500 -0.3256 -0.5712
   93MOL0     O12478   1.789   6.222   5.379  0.2417 -0.0176 -0.0563
   93MOL0     C12479   1.742   6.307   5.483 -0.5570 -0.0520  0.5482
   93MOL0     C12480   1.813   6.301   5.617  0.3292  0.7226 -0.5770
   93MOL0     C12481   1.809   6.425   5.698 -0.3399  0.0149 -0.3390
   93MOL0     C12482   1.903   6.521   5.626  0.3535  0.6432  0.1438
   93MOL0     C12483   1.947   6.620   5.731  0.0633  0.1461  0.0679
   93MOL0     C12484   1.978   6.697   5.813 -0.3937 -0.8527 -0.6468
   93MOL0     C12485   1.709   6.115   5.172  0.2187 -0.1520 -0.3658
   93MOL0     C12486   1.631   6.106   5.057  0.1794  0.1818 -0.6796
   93MOL0     C12487   1.616   5.974   4.984 -0.4267  1.1822  0.7434
   93MOL0     H12488   1.298   6.424   4.720 -2.3203  0.4665  0.6325
   93MOL0     H12489   1.195   6.393   4.498 -0.2536 -0.3256 -0.2863
   93MOL0     H12490   0.977   6.031   4.456 -0.3601  0.4322  1.4953
   93MOL0     H12491   0.946   6.179   4.364  2.5350  2.0100 -2.0276
   93MOL0     H12492   1.056   6.079   4.165  2.6009 -1.3774 -0.1029
   93MOL0     H12493   0.918   5.977   4.214  0.6387 -1.6916 -0.3196
   93MOL0     H12494   1.032   5.829   4.326 -1.3872  2.7562  0.7927
   93MOL0     H12495   1.185   5.906   4.319 -0.1315  0.6672 -0.4328
   93MOL0     H12496   1.032   5.815   4.075 -0.3251  1.4283  1.9600
   93MOL0     H12497   1.192   5.905   4.075  0.7515  2.1188  3.4491
   93MOL0     H12498   1.153   5.628   4.203  0.8950  0.0537  0.4006
   93MOL0     H12499   1.184   5.641   4.033 -2.2893  0.3457  0.9449
   93MOL0     H12500   1.397   5.786   4.096  1.3591  0.1731  0.1508
   93MOL0     H12501   1.352   5.744   4.271 -0.9484 -2.3510  0.3640
   93MOL0     H12502   1.434   5.575   4.037 -0.1867 -1.5272  0.8372
   93MOL0     H12503   1.360   5.504   4.181 -2.0946  2.4990  1.3715
   93MOL0     H12504   1.554   5.585   4.320 -3.3250 -0.6154  0.4308
   93MOL0     H12505   1.594   5.466   4.203  0.5900  0.8956  1.5566
   93MOL0     H12506   1.676   5.838   4.257  1.4088  0.0997  0.3655
   93MOL0     H12507   1.802   6.018   4.129  1.6647 -2.7735  4.0781
   93MOL0     H12508   1.938   5.958   4.030 -0.0569 -1.0711 -0.2849
   93MOL0     H12509   1.761   5.931   3.843 -0.2420 -0.2676  1.4010
   93MOL0     H12510   1.663   6.047   3.931 -0.7420 -1.8727 -2.9381
   93MOL0     H12511   1.827   6.144   3.762 -0.4273  1.0518  0.6397
   93MOL0     H12512   1.954   6.102   3.862 -0.6405 -0.2043 -2.5807
   93MOL0     H12513   1.877   6.244   4.053  2.8991 -1.2926 -1.8121
   93MOL0     H12514   1.739   6.305   3.969  0.9855  1.1964  1.7877
   93MOL0     H12515   2.109   6.248   4.052  0.6973  0.2643 -0.2735
   93MOL0     H12516   2.350   6.253   4.011  2.2497 -0.8128 -2.0082
   93MOL0     H12517   2.602   6.100   3.663  1.6985 -0.3698 -0.4298
   93MOL0     H12518   2.808   6.074   3.551  1.3645  1.0779 -2.2038
   93MOL0     H12519   3.029   6.073   3.458  1.2968 -0.4879 -1.5912
   93MOL0     H12520   2.939   6.192   3.362 -1.5373 -1.8747  2.2732
   93MOL0     H12521   3.147   6.309   3.338 -0.6046  0.0062  1.5493
   93MOL0     H12522   3.229   6.176   3.423 -0.8451 -1.5471  1.2942
   93MOL0     H12523   3.171   6.017   3.259  1.8566  0.9740  3.9244
   93MOL0     H12524   3.093   6.153   3.161  0.7055 -1.5344 -1.1762
   93MOL0     H12525   3.386   6.131   3.233  0.2066  0.9784  0.1810
   93MOL0     H12526   3.320   6.266   3.148 -0.7394  0.1139  1.3919
   93MOL0     H12527   3.245   6.152   2.956  2.7515  2.4888 -1.3741
   93MOL0     H12528   3.281   5.990   3.025 -1.3404  1.2494  3.1665
   93MOL0     H12529   3.462   6.203   2.921 -0.9938  0.7261  1.6035
   93MOL0     H12530   3.529   6.069   3.019 -0.3319  3.2032  2.3882
   93MOL0     H12531   3.353   6.031   2.773 -0.4775  0.1112  0.6412
   93MOL0     H12532   3.425   5.905   2.855  1.1591 -1.6039 -4.4176
   93MOL0     H12533   3.653   6.034   2.819  0.5270  1.1393 -0.8649
   93MOL0     H12534   3.580   5.942   2.683  1.9440  1.2922 -1.3976
   93MOL0     H12535   2.953   6.438   3.726 -0.3183  0.3419  0.3928
   93MOL0     H12536   2.754   6.467   3.847  2.1837  1.5247 -2.8245
   93MOL0     H12537   2.274   6.585   3.739 -1.4584 -0.2061 -0.6720
   93MOL0     H12538   2.044   6.582   3.785 -1.1391 -0.5840 -0.2991
   93MOL0     H12539   1.166   5.974   4.588 -0.6993  0.8398 -1.1925
   93MOL0     H12540   1.265   6.021   4.830 -2.6616 -1.4149 -0.4447
   93MOL0     H12541   1.481   6.414   5.092 -1.5512 -0.7741  0.1561
   93MOL0     H12542   1.605   6.401   5.307  0.1687  0.0493  0.2004
   93MOL0     H12543   1.637   6.286   5.505 -0.1695 -0.9579  1.6556
   93MOL0     H12544   1.758   6.409   5.448  0.6344 -0.7123 -0.9517
   93MOL0     H12545   1.913   6.265   5.591 -0.0636 -1.7823  1.0170
   93MOL0     H12546   1.781   6.214   5.674  3.6064 -1.8836 -2.3866
   93MOL0     H12547   1.843   6.404   5.799  0.0392  1.0866 -0.2250
   93MOL0     H12548   1.715   6.479   5.710 -0.0891  0.3390  0.2290
   93MOL0     H12549   1.993   6.465   5.598  0.2342  1.6108 -2.4069
   93MOL0     H12550   1.866   6.563   5.532  2.3767 -1.0595 -1.5271
   93MOL0     H12551   2.023   6.767   5.880 -3.3526  1.6562 -1.0251
   93MOL0     H12552   1.763   6.024   5.195  0.0132  0.0203  0.8328
   93MOL0     H12553   1.709   5.917   4.970  0.2525  1.8076  2.3665
   93MOL0     H12554   1.544   5.916   5.043 -0.0568 -1.2057 -1.0019
   93MOL0     H12555   1.568   5.988   4.887  0.7420  1.3249  0.1610
   94MOL0     O12556  10.983   1.085   3.760  0.4458  0.1708 -0.1986
   94MOL0     C12557  10.976   1.053   3.882 -0.0376 -0.2679  0.2823
   94MOL0     O12558  11.075   1.057   3.972 -0.0952 -0.1699  0.5645
   94MOL0     C12559  11.194   1.120   3.946  0.8472 -0.1520 -0.1692
   94MOL0     C12560  11.312   1.073   4.016 -0.4429  0.3466  0.2303
   94MOL0     C12561  11.438   1.136   3.980 -0.1966  0.1939 -0.5296
   94MOL0     C12562  11.448   1.245   3.891  0.4600  0.2643 -0.1199
   94MOL0     O12563  11.564   1.318   3.873 -0.0882  0.6550 -0.1993
   94MOL0     C12564  11.571   1.389   3.744 -1.0637  0.2968 -0.0267
   94MOL0     C12565  11.713   1.444   3.730  0.2744  0.3750 -1.1639
   94MOL0     C12566  11.719   1.511   3.589 -1.5531  0.9841  0.8803
   94MOL0     C12567  11.715   1.666   3.610  0.9521 -0.4971  0.5319
   94MOL0     C12568  11.836   1.744   3.658  0.2855 -0.4701  0.7912
   94MOL0     C12569  11.956   1.739   3.563 -0.0388 -0.3652 -0.2556
   94MOL0     C12570  11.953   1.859   3.465  0.8093  0.5964  0.8874
   94MOL0     C12571  12.017   1.819   3.330  0.0454  0.2106 -0.4410
   94MOL0     N12572  12.162   1.838   3.332 -0.2817  0.0185  0.1925
   94MOL0     C12573  12.248   1.822   3.448 -0.7261 -0.2457 -0.2429
   94MOL0     C12574  12.366   1.876   3.411  0.4092 -0.2090  1.1915
   94MOL0     C12575  12.484   1.894   3.493  0.4363 -0.8216 -0.5254
   94MOL0     C12576  12.465   2.014   3.581 -0.0247  0.2808 -0.2408
   94MOL0     C12577  12.344   2.015   3.671  0.5736 -0.7442  0.2346
   94MOL0     C12578  12.348   2.141   3.754  0.6805 -0.4558  0.1084
   94MOL0     O12579  12.304   2.252   3.676 -0.5790 -0.9690  0.2054
   94MOL0     C12580  12.309   2.384   3.731  0.8638  0.6810  0.6065
   94MOL0     C12581  12.288   2.490   3.646  0.5590  0.3362  0.8321
   94MOL0     C12582  12.282   2.621   3.702  0.3534  0.0474  1.1704
   94MOL0     C12583  12.291   2.639   3.836 -0.7736  0.0193 -0.3749
   94MOL0     C12584  12.310   2.779   3.883 -0.0731 -0.7458 -0.3206
   94MOL0     O12585  12.282   2.878   3.792 -0.2082  0.4543 -0.3975
   94MOL0     C12586  12.303   3.005   3.810 -0.0030 -0.8249 -0.6740
   94MOL0     C12587  12.222   3.078   3.893 -0.9163  0.5084  0.4810
   94MOL0     C12588  12.232   3.221   3.906  0.4610 -0.9294  0.6116
   94MOL0     C12589  12.318   3.293   3.824 -0.3098 -0.1914  0.2724
   94MOL0     O12590  12.327   3.424   3.837  0.6585  0.8454 -0.0766
   94MOL0     C12591  12.457   3.475   3.883  0.0470 -0.4371 -0.0686
   94MOL0     C12592  12.445   3.614   3.943 -0.1071  0.5466 -0.2672
   94MOL0     C12593  12.336   3.620   4.049 -0.1465  0.5584  0.7871
   94MOL0     C12594  12.197   3.669   4.007 -0.0860  0.2678 -0.4145
   94MOL0     C12595  12.119   3.722   4.127 -0.7112 -0.6741 -0.4638
   94MOL0     C12596  12.069   3.617   4.219 -0.1321  0.6550  0.5042
   94MOL0     C12597  12.004   3.677   4.346  0.2918  0.2515  0.1573
   94MOL0     C12598  12.121   3.715   4.438 -0.2366 -0.0163  0.0357
   94MOL0    Cl12599  12.051   3.789   4.575  0.4725 -0.1067 -0.2247
   94MOL0     C12600  12.394   3.216   3.740 -0.7924  0.0141  0.3240
   94MOL0     C12601  12.394   3.078   3.736  0.1140  0.0671 -0.3072
   94MOL0     O12602  12.369   2.808   3.988  0.2415  0.3656  0.8371
   94MOL0     C12603  12.314   2.534   3.922 -0.3774 -0.0794  0.3087
   94MOL0     C12604  12.328   2.406   3.876  0.2348 -0.1006  0.9290
   94MOL0     N12605  12.352   1.922   3.283  0.5445 -0.2989 -0.1376
   94MOL0     N12606  12.228   1.898   3.233  0.0826  0.1276  1.0152
   94MOL0     C12607  11.324   1.298   3.843 -0.9537  0.2101 -1.1224
   94MOL0     C12608  11.207   1.240   3.868  0.4594  0.6255 -0.3325
   94MOL0     C12609  10.847   0.998   3.928  0.5507 -0.3525 -0.6548
   94MOL0     C12610  10.837   0.931   4.053  0.2300 -0.1957  0.7012
   94MOL0     C12611  10.721   0.866   4.093 -0.3560  0.4088  0.2058
   94MOL0     C12612  10.602   0.876   4.017 -1.3245 -0.6087 -0.0424
   94MOL0     O12613  10.489   0.827   4.083  1.1491 -0.6027  1.3432
   94MOL0     C12614  10.374   0.791   3.996 -0.5458  0.6136  0.1409
   94MOL0     C12615  10.290   0.673   4.052  0.5477 -0.4850 -0.4528
   94MOL0     C12616  10.232   0.718   4.185  0.1486 -0.4589 -0.1487
   94MOL0     C12617  10.207   0.604   4.290  0.0569  0.0488 -0.6365
   94MOL0     C12618  10.171   0.471   4.233  0.3396  0.5166  0.7545
   94MOL0     C12619  10.145   0.372   4.169 -0.2170  0.7293 -0.0810
   94MOL0     C12620  10.606   0.955   3.906 -0.7006 -0.0665  0.6950
   94MOL0     C12621  10.725   1.013   3.852 -0.1168 -0.2844 -0.9218
   94MOL0     C12622  10.721   1.082   3.717  0.2906  0.7486 -0.4364
   94MOL0     H12623  11.326   0.999   4.094  1.9198 -0.8678 -1.2447
   94MOL0     H12624  11.524   1.102   4.038 -2.2587 -1.8363  1.5950
   94MOL0     H12625  11.550   1.328   3.655  3.4048  0.9982 -1.8710
   94MOL0     H12626  11.503   1.475   3.744 -2.0285 -0.4006 -2.0828
   94MOL0     H12627  11.780   1.358   3.730  0.7664  0.7202  0.5067
   94MOL0     H12628  11.735   1.512   3.813 -0.4139 -3.0775  2.0964
   94MOL0     H12629  11.639   1.477   3.523  0.1671 -2.2385  0.2247
   94MOL0     H12630  11.815   1.492   3.539 -2.3785  2.2140 -1.2915
   94MOL0     H12631  11.682   1.708   3.515  1.2950  0.3600  0.7857
   94MOL0     H12632  11.633   1.682   3.681 -0.1191 -0.5829 -0.6567
   94MOL0     H12633  11.807   1.850   3.659  0.7416 -0.1001 -3.6173
   94MOL0     H12634  11.856   1.708   3.759  1.8020 -1.4886  0.1521
   94MOL0     H12635  12.043   1.755   3.627  0.1909 -1.9857 -0.1175
   94MOL0     H12636  11.970   1.647   3.506 -0.0815  0.1621 -1.1302
   94MOL0     H12637  12.018   1.940   3.499  2.1738  0.4870 -1.2750
   94MOL0     H12638  11.854   1.901   3.445  1.2863  1.8699  1.0958
   94MOL0     H12639  12.000   1.712   3.314 -2.3574  0.6487 -1.2525
   94MOL0     H12640  11.979   1.880   3.247 -0.4150  1.0619  0.3872
   94MOL0     H12641  12.222   1.789   3.548 -0.2530 -1.6535 -0.5566
   94MOL0     H12642  12.523   1.811   3.553  0.4283 -1.3131 -1.1918
   94MOL0     H12643  12.568   1.918   3.427  2.6292 -1.1930  1.9803
   94MOL0     H12644  12.558   2.028   3.638  0.0834  1.7953 -0.7335
   94MOL0     H12645  12.458   2.103   3.517  2.5860  2.4747  2.2423
   94MOL0     H12646  12.338   1.923   3.729 -1.4490  0.4712  2.1348
   94MOL0     H12647  12.253   2.017   3.609  0.1365 -1.7986  0.8134
   94MOL0     H12648  12.441   2.173   3.802 -0.0558  3.3163 -0.6032
   94MOL0     H12649  12.264   2.126   3.823  1.3688 -2.4057  0.5803
   94MOL0     H12650  12.275   2.468   3.540  0.0165 -2.3987  1.3829
   94MOL0     H12651  12.276   2.694   3.622 -1.2755 -0.7170  0.5516
   94MOL0     H12652  12.152   3.015   3.948 -1.1921  1.1067  0.8255
   94MOL0     H12653  12.169   3.268   3.980 -0.0667 -2.6337  1.2881
   94MOL0     H12654  12.502   3.417   3.963  0.1485  0.1807  0.3277
   94MOL0     H12655  12.523   3.482   3.796  0.7493  2.2938  0.5862
   94MOL0     H12656  12.533   3.637   4.004 -1.5568  0.5983  1.9155
   94MOL0     H12657  12.436   3.679   3.855  1.1775 -2.0415 -2.4813
   94MOL0     H12658  12.331   3.522   4.098  0.7661  0.2290  0.2420
   94MOL0     H12659  12.378   3.688   4.123 -1.0025  0.0558  1.7603
   94MOL0     H12660  12.126   3.604   3.956 -2.8421  0.5381  2.6975
   94MOL0     H12661  12.219   3.752   3.939  1.1731  0.9056  0.7161
   94MOL0     H12662  12.039   3.792   4.101 -2.3316 -0.1301  4.8435
   94MOL0     H12663  12.191   3.781   4.183 -1.0512 -2.6942  2.3407
   94MOL0     H12664  11.993   3.561   4.165 -0.9541 -1.7204  3.7702
   94MOL0     H12665  12.134   3.531   4.244 -1.2796 -1.2638 -2.5987
   94MOL0     H12666  11.938   3.599   4.384 -1.1189  0.5873 -1.4816
   94MOL0     H12667  11.935   3.757   4.315 -1.5825 -0.9419  1.0991
   94MOL0     H12668  12.164   3.617   4.456 -0.4466 -0.2770 -0.8170
   94MOL0     H12669  12.197   3.782   4.399  0.3244  0.5677  2.0188
   94MOL0     H12670  12.471   3.269   3.685 -0.8571  2.8495  2.6736
   94MOL0     H12671  12.456   3.016   3.673  0.4769 -0.9346  0.9951
   94MOL0     H12672  12.346   2.557   4.023 -1.7839  0.9143  0.5460
   94MOL0     H12673  12.363   2.329   3.945  2.9857  1.2445  1.1633
   94MOL0     H12674  11.309   1.388   3.784  1.6315  1.1517 -0.4802
   94MOL0     H12675  11.124   1.294   3.822  2.4763  1.4934 -3.2986
   94MOL0     H12676  10.928   0.914   4.110  2.0929 -1.5478 -2.3454
   94MOL0     H12677  10.706   0.810   4.184 -4.2208  0.4533 -0.2590
   94MOL0     H12678  10.406   0.763   3.895 -0.6519 -0.7380  0.4618
   94MOL0     H12679  10.309   0.879   3.990  1.2634  2.1984  2.1536
   94MOL0     H12680  10.360   0.589   4.065  0.1091 -0.5643  1.6876
   94MOL0     H12681  10.208   0.650   3.984  0.3209 -0.3092 -0.2403
   94MOL0     H12682  10.143   0.781   4.175  1.9293  2.3961  0.6418
   94MOL0     H12683  10.294   0.797   4.229 -3.0410  2.3367 -0.2615
   94MOL0     H12684  10.310   0.599   4.327  1.9293 -3.3800 -5.3729
   94MOL0     H12685  10.137   0.629   4.371  1.8687 -1.7061  1.6076
   94MOL0     H12686  10.131   0.276   4.124  0.9191 -0.1170  1.2920
   94MOL0     H12687  10.524   0.973   3.838 -1.2616  0.8057  1.5784
   94MOL0     H12688  10.769   1.021   3.639 -3.4507 -2.6334 -0.4066
   94MOL0     H12689  10.621   1.093   3.675 -0.1335  0.6277  0.5274
   94MOL0     H12690  10.764   1.182   3.719 -1.7666  1.6738 -0.6102
   95MOL0     O12691   6.478   0.237   8.585 -0.5144 -0.8520 -0.1645
   95MOL0     C12692   6.388   0.171   8.529  0.2578 -0.8393 -0.3055
   95MOL0     O12693   6.407   0.057   8.451 -0.4403 -0.0507 -0.5206
   95MOL0     C12694   6.531  -0.006   8.446  0.0153 -0.8337 -0.0310
   95MOL0     C12695   6.642   0.068   8.399 -0.3026 -0.2728  0.4431
   95MOL0     C12696   6.769   0.009   8.381  0.9454 -1.4466  0.4949
   95MOL0     C12697   6.787  -0.125   8.425  0.5009 -0.2887  0.0141
   95MOL0     O12698   6.903  -0.189   8.402 -1.0500  0.3221  0.1830
   95MOL0     C12699   7.011  -0.132   8.484  0.6455 -0.5565 -0.4152
   95MOL0     C12700   7.001  -0.188   8.624  0.1868  1.0059  0.4603
   95MOL0     C12701   6.993  -0.350   8.639 -0.1475  0.0744  0.1885
   95MOL0     C12702   7.112  -0.437   8.609  0.7604 -0.7480  0.4642
   95MOL0     C12703   7.182  -0.481   8.735  0.4765  0.3149  0.2350
   95MOL0     C12704   7.117  -0.592   8.819  0.7117 -0.0780  0.1219
   95MOL0     C12705   7.111  -0.721   8.732  0.7438  0.0023  0.2068
   95MOL0     C12706   7.076  -0.839   8.814 -0.7202  0.4131  0.6185
   95MOL0     N12707   7.048  -0.957   8.727 -1.4022  0.4997  0.3699
   95MOL0     C12708   7.103  -0.999   8.612 -0.0694 -0.3671  0.8460
   95MOL0     C12709   7.049  -1.116   8.576 -0.2118  0.7727  0.5393
   95MOL0     C12710   7.080  -1.187   8.448  0.2315  0.7157 -0.1020
   95MOL0     C12711   7.219  -1.246   8.453 -0.6675  0.6976 -0.4767
   95MOL0     C12712   7.222  -1.388   8.506 -0.6454  0.2416  0.2263
   95MOL0     C12713   7.367  -1.431   8.524  0.5206  0.7990 -0.4205
   95MOL0     O12714   7.377  -1.573   8.556  0.4926  0.1338 -0.0293
   95MOL0     C12715   7.507  -1.626   8.545 -0.6019 -0.0432  0.5820
   95MOL0     C12716   7.617  -1.555   8.600 -0.2007  0.0644  0.9512
   95MOL0     C12717   7.748  -1.606   8.592  0.5295  0.5107 -0.2537
   95MOL0     C12718   7.766  -1.739   8.541 -0.0937  0.6364  0.6059
   95MOL0     C12719   7.903  -1.802   8.539 -0.4074  0.7372  1.8601
   95MOL0     O12720   8.002  -1.714   8.566 -0.3696 -0.1208  0.1602
   95MOL0     C12721   8.122  -1.769   8.608  0.1116 -0.1766  0.0428
   95MOL0     C12722   8.234  -1.782   8.520 -0.6252 -0.1556 -0.2187
   95MOL0     C12723   8.358  -1.836   8.557 -0.2270  0.1852 -0.3855
   95MOL0     C12724   8.373  -1.883   8.688  1.2863  0.0953  0.3965
   95MOL0     O12725   8.505  -1.914   8.720  0.7613  0.5884 -0.6847
   95MOL0     C12726   8.534  -1.929   8.864  0.0768  0.2644  0.0455
   95MOL0     C12727   8.687  -1.927   8.883 -0.8779  0.4009 -0.3603
   95MOL0     C12728   8.752  -1.803   8.822  0.0221 -0.1653  1.4338
   95MOL0     C12729   8.730  -1.681   8.916 -0.2807 -0.4241 -0.1262
   95MOL0     C12730   8.778  -1.565   8.834 -0.0897 -0.4648  0.2852
   95MOL0     C12731   8.774  -1.428   8.910  0.6110 -0.4319  0.1437
   95MOL0     C12732   8.884  -1.405   9.026  0.3409  0.1800 -0.0208
   95MOL0     C12733   8.819  -1.426   9.165 -0.9731  0.3798 -0.2701
   95MOL0    Cl12734   8.688  -1.301   9.209  0.6324  0.4695  0.3393
   95MOL0     C12735   8.259  -1.879   8.774 -0.8996  0.0850 -0.4698
   95MOL0     C12736   8.134  -1.823   8.737 -0.1282  0.2994  0.4542
   95MOL0     O12737   7.912  -1.923   8.519 -0.1618  0.7522  0.7195
   95MOL0     C12738   7.651  -1.816   8.497 -1.5116 -0.6376  0.3377
   95MOL0     C12739   7.526  -1.754   8.496 -0.4270  0.4272  0.8529
   95MOL0     N12740   6.965  -1.155   8.681 -0.1713 -0.7291 -0.7439
   95MOL0     N12741   6.972  -1.058   8.766 -0.3696  0.3011  0.0394
   95MOL0     C12742   6.671  -0.194   8.484 -0.3068 -0.3313  0.1058
   95MOL0     C12743   6.549  -0.131   8.495  0.7781 -0.4448 -0.4209
   95MOL0     C12744   6.249   0.217   8.562 -0.3512  0.2845  0.6592
   95MOL0     C12745   6.143   0.120   8.546  0.1281  0.1503 -0.7629
   95MOL0     C12746   6.010   0.158   8.556 -0.2071 -0.0439 -0.6994
   95MOL0     C12747   5.968   0.283   8.592 -0.1594  0.1589 -0.1414
   95MOL0     O12748   5.836   0.305   8.598 -0.4968  0.2343  0.0100
   95MOL0     C12749   5.774   0.350   8.475  0.8664  0.2394 -0.0530
   95MOL0     C12750   5.627   0.393   8.509 -0.3141 -0.5750  0.2396
   95MOL0     C12751   5.550   0.416   8.370 -0.3356 -0.0727 -0.1711
   95MOL0     C12752   5.500   0.284   8.308 -0.5074  0.3880  0.3225
   95MOL0     C12753   5.365   0.244   8.355 -0.2878 -0.5617  0.3133
   95MOL0     C12754   5.249   0.221   8.391 -0.0518  0.0751 -0.3035
   95MOL0     C12755   6.068   0.377   8.619  0.6483  0.3553 -0.1364
   95MOL0     C12756   6.214   0.350   8.615  0.3541 -0.5466 -0.3295
   95MOL0     C12757   6.293   0.480   8.647  0.0271 -0.7978 -0.4365
   95MOL0     H12758   6.623   0.169   8.362  1.0063 -0.9890 -2.4280
   95MOL0     H12759   6.844   0.078   8.344 -3.0135  2.2536 -1.5469
   95MOL0     H12760   7.108  -0.160   8.442  0.0280 -1.5764 -1.2223
   95MOL0     H12761   7.005  -0.023   8.481 -1.2050 -0.5048  2.0271
   95MOL0     H12762   6.907  -0.151   8.666  1.0619 -0.0266  3.5826
   95MOL0     H12763   7.079  -0.153   8.692 -0.5304 -1.3631  2.6556
   95MOL0     H12764   6.902  -0.401   8.605  1.5981 -2.7794 -0.4933
   95MOL0     H12765   6.973  -0.367   8.745  1.7968 -1.6080  0.3236
   95MOL0     H12766   7.080  -0.523   8.548  3.8610 -0.5068 -1.7647
   95MOL0     H12767   7.180  -0.373   8.552  1.1167 -1.5146 -0.0033
   95MOL0     H12768   7.283  -0.515   8.713 -0.3673 -2.1917  0.0020
   95MOL0     H12769   7.192  -0.396   8.804 -0.0877 -0.7562  1.6705
   95MOL0     H12770   7.183  -0.603   8.906  0.3430 -0.9735  0.2953
   95MOL0     H12771   7.020  -0.562   8.858  0.2455  0.8473 -1.6585
   95MOL0     H12772   7.210  -0.725   8.685  0.9511 -0.6168  0.6856
   95MOL0     H12773   7.036  -0.710   8.654  0.5560 -2.0824  0.0511
   95MOL0     H12774   7.151  -0.869   8.888  0.0491 -5.6016 -2.0231
   95MOL0     H12775   6.981  -0.833   8.868 -0.2273 -2.2079  1.9472
   95MOL0     H12776   7.176  -0.940   8.558 -0.4929 -0.8218 -0.2682
   95MOL0     H12777   7.000  -1.262   8.439  0.0856  0.6292  1.7151
   95MOL0     H12778   7.066  -1.122   8.361  3.1380  0.9325 -0.4909
   95MOL0     H12779   7.267  -1.236   8.355  0.9414 -2.1945 -0.1042
   95MOL0     H12780   7.272  -1.190   8.531 -1.5271 -3.6321  3.6963
   95MOL0     H12781   7.174  -1.454   8.434 -1.8031 -0.7470  1.8408
   95MOL0     H12782   7.171  -1.399   8.602 -2.3260  2.0525 -0.4052
   95MOL0     H12783   7.404  -1.371   8.607  0.9986 -0.9546  0.6878
   95MOL0     H12784   7.427  -1.395   8.440 -0.0568  4.9063  0.7111
   95MOL0     H12785   7.609  -1.465   8.660  2.6251 -1.7902  4.4993
   95MOL0     H12786   7.832  -1.553   8.637  0.1811 -0.7196  2.0095
   95MOL0     H12787   8.210  -1.758   8.417  0.1024 -0.2934 -0.4267
   95MOL0     H12788   8.445  -1.833   8.492  0.7839 -0.7163  0.8714
   95MOL0     H12789   8.490  -1.845   8.920  1.2855  0.9380  0.0035
   95MOL0     H12790   8.491  -2.021   8.906  1.0615 -0.6739 -0.9614
   95MOL0     H12791   8.714  -1.926   8.989 -1.8147  1.0384 -0.1134
   95MOL0     H12792   8.718  -2.020   8.832  1.8019 -0.1810  2.1010
   95MOL0     H12793   8.860  -1.818   8.811 -0.0134  0.2123  0.5175
   95MOL0     H12794   8.705  -1.786   8.725 -0.9121 -1.8564  1.5583
   95MOL0     H12795   8.779  -1.701   9.011 -0.5414  1.5592  0.4740
   95MOL0     H12796   8.622  -1.672   8.934 -1.3620 -4.7552 -2.7833
   95MOL0     H12797   8.709  -1.564   8.750  0.4149 -0.4473 -0.1366
   95MOL0     H12798   8.879  -1.588   8.799  0.3889  2.0596 -0.1813
   95MOL0     H12799   8.803  -1.357   8.832 -0.1427 -1.7604 -1.3967
   95MOL0     H12800   8.675  -1.400   8.947  2.3814  0.9591  4.5106
   95MOL0     H12801   8.911  -1.299   9.024  1.7181 -0.0768  2.2036
   95MOL0     H12802   8.968  -1.474   9.011 -1.1419 -1.8056  0.2858
   95MOL0     H12803   8.774  -1.526   9.163  1.9861 -1.1158  1.3256
   95MOL0     H12804   8.897  -1.412   9.240 -1.5187  1.5044  0.1104
   95MOL0     H12805   8.268  -1.925   8.872 -0.7490 -0.8249 -0.9084
   95MOL0     H12806   8.057  -1.810   8.813  0.8829 -0.9090  1.7365
   95MOL0     H12807   7.662  -1.919   8.463 -1.4688 -0.1956 -1.0507
   95MOL0     H12808   7.433  -1.794   8.457 -1.9293  0.8250  3.7649
   95MOL0     H12809   6.685  -0.297   8.513 -0.8180 -0.5212 -0.3025
   95MOL0     H12810   6.464  -0.184   8.537  0.6206  0.5028  0.4760
   95MOL0     H12811   6.171   0.017   8.522 -0.4346 -0.3615  0.6416
   95MOL0     H12812   5.945   0.071   8.559  0.7334 -0.7411  0.3733
   95MOL0     H12813   5.775   0.268   8.403 -0.4860 -2.0141  2.3184
   95MOL0     H12814   5.817   0.440   8.429  0.2639  0.2810 -0.5505
   95MOL0     H12815   5.629   0.480   8.576  0.0332 -2.7220  3.2011
   95MOL0     H12816   5.572   0.311   8.557 -3.0193  0.6829 -0.4854
   95MOL0     H12817   5.615   0.481   8.311  0.0797  0.6803  1.0876
   95MOL0     H12818   5.475   0.492   8.392  1.5469  2.0015 -0.5055
   95MOL0     H12819   5.495   0.299   8.199  1.3699 -2.2640 -0.2183
   95MOL0     H12820   5.572   0.206   8.333 -0.3494  1.0374  2.0412
   95MOL0     H12821   5.147   0.192   8.406  0.2000 -1.4581 -1.3172
   95MOL0     H12822   6.034   0.470   8.664  0.1683 -1.0305  2.6028
   95MOL0     H12823   6.396   0.467   8.612  0.3133  1.0924 -0.4240
   95MOL0     H12824   6.251   0.557   8.581 -1.1205 -0.7560  0.3109
   95MOL0     H12825   6.283   0.514   8.750 -0.0767 -2.8536  0.2771
   96MOL0     O12826   1.278   4.170   2.720  0.3829 -0.4755 -0.0093
   96MOL0     C12827   1.259   4.157   2.843 -0.0858  1.1264  0.0202
   96MOL0     O12828   1.323   4.229   2.944 -0.4963  0.4610  0.3409
   96MOL0     C12829   1.388   4.340   2.910  0.4936 -0.3822 -0.3712
   96MOL0     C12830   1.525   4.338   2.936 -0.2232 -0.5124 -0.6820
   96MOL0     C12831   1.599   4.456   2.905  1.1407 -0.2389 -0.3451
   96MOL0     C12832   1.527   4.552   2.836  0.7883 -0.0368 -0.9876
   96MOL0     O12833   1.609   4.653   2.797  0.0926 -0.5711  0.2068
   96MOL0     C12834   1.559   4.779   2.754 -0.5588 -0.8454  0.1795
   96MOL0     C12835   1.675   4.874   2.746 -0.2857  0.1847 -0.2368
   96MOL0     C12836   1.637   5.020   2.748  0.3913  0.8054 -0.3603
   96MOL0     C12837   1.591   5.074   2.611 -0.9570  0.7874  0.9325
   96MOL0     C12838   1.536   5.210   2.624 -0.4660 -0.4554 -0.5223
   96MOL0     C12839   1.525   5.275   2.486 -0.0086 -0.3943  0.1002
   96MOL0     C12840   1.422   5.383   2.499  0.3190 -0.0580  0.1674
   96MOL0     C12841   1.386   5.437   2.360  0.4710 -1.0134 -0.1109
   96MOL0     N12842   1.345   5.577   2.359 -0.3000  0.8130 -0.6386
   96MOL0     C12843   1.418   5.682   2.307  0.3373  0.7504  0.2352
   96MOL0     C12844   1.370   5.798   2.350  0.4243 -0.3579 -0.1668
   96MOL0     C12845   1.403   5.935   2.295  0.0936 -1.0937 -0.1779
   96MOL0     C12846   1.508   6.011   2.365  0.6801  0.6849  0.4791
   96MOL0     C12847   1.636   5.932   2.406 -0.4726  0.7792  0.0430
   96MOL0     C12848   1.705   5.875   2.278 -1.1672 -0.4157  0.3024
   96MOL0     O12849   1.845   5.845   2.301  0.2660  0.1293 -0.6459
   96MOL0     C12850   1.942   5.930   2.278 -0.2550 -0.5590  0.0815
   96MOL0     C12851   2.039   5.958   2.373  0.0202  0.1652 -0.0926
   96MOL0     C12852   2.137   6.057   2.356  0.8253 -0.2142 -0.3472
   96MOL0     C12853   2.161   6.114   2.228 -0.6956  0.5299  0.1908
   96MOL0     C12854   2.282   6.201   2.203 -0.1000  0.1782 -1.0169
   96MOL0     O12855   2.285   6.272   2.084 -0.5075 -0.9151  0.7007
   96MOL0     C12856   2.399   6.310   2.027 -0.0089 -0.2343 -0.0262
   96MOL0     C12857   2.449   6.234   1.922 -0.3320  0.0589  0.7602
   96MOL0     C12858   2.574   6.262   1.866  0.8029  0.7320 -0.6580
   96MOL0     C12859   2.649   6.367   1.920  0.0165 -0.1532  0.7203
   96MOL0     O12860   2.782   6.394   1.895  0.0498  0.2050  0.6343
   96MOL0     C12861   2.843   6.334   1.778  0.7107 -0.2530  0.2460
   96MOL0     C12862   2.994   6.352   1.787  0.4570 -0.0448  0.3686
   96MOL0     C12863   3.061   6.295   1.659 -0.2439  0.2082  0.2979
   96MOL0     C12864   3.121   6.153   1.694 -0.0992  0.3025  1.1839
   96MOL0     C12865   3.162   6.067   1.568 -0.5783  0.4805 -0.0118
   96MOL0     C12866   3.198   5.927   1.591  0.0978 -0.2234  0.2491
   96MOL0     C12867   3.290   5.906   1.705  0.6025 -0.1971  0.1706
   96MOL0     C12868   3.211   5.844   1.818 -0.0125  0.8082  0.3819
   96MOL0    Cl12869   3.309   5.798   1.961  0.5184 -0.2870 -0.0105
   96MOL0     C12870   2.603   6.443   2.026 -0.1409  0.0678 -0.0784
   96MOL0     C12871   2.474   6.418   2.073 -0.8912  0.0026  0.7299
   96MOL0     O12872   2.362   6.207   2.297 -0.3638  0.6419 -0.4498
   96MOL0     C12873   2.078   6.068   2.117 -0.1832 -0.2312 -0.0890
   96MOL0     C12874   1.962   5.989   2.148  0.7934  0.0014  0.3616
   96MOL0     N12875   1.260   5.763   2.428  0.2829  0.4963  0.0355
   96MOL0     N12876   1.248   5.634   2.431  0.2486  0.2963 -0.4223
   96MOL0     C12877   1.394   4.552   2.820  0.0669  0.3259  0.1613
   96MOL0     C12878   1.320   4.444   2.855 -0.5919 -0.3447 -0.2569
   96MOL0     C12879   1.189   4.032   2.880  0.0948  0.5084  0.6718
   96MOL0     C12880   1.243   3.963   2.981  0.8394  0.3129 -0.6838
   96MOL0     C12881   1.189   3.841   3.028  0.1786  0.0603 -0.0165
   96MOL0     C12882   1.068   3.789   2.975 -0.4257 -0.5385  0.0115
   96MOL0     O12883   1.003   3.683   3.030 -0.2529 -0.2523 -0.1643
   96MOL0     C12884   0.873   3.642   2.987  0.0734 -0.3629  0.3503
   96MOL0     C12885   0.887   3.555   2.858 -0.3465 -0.2166  0.5757
   96MOL0     C12886   0.748   3.507   2.798 -0.3573 -0.1105  0.0598
   96MOL0     C12887   0.753   3.423   2.676  0.9304 -0.6993  0.4536
   96MOL0     C12888   0.853   3.319   2.681 -0.2119 -0.6818  0.2403
   96MOL0     C12889   0.934   3.234   2.700  0.0102 -0.0422  0.2276
   96MOL0     C12890   1.011   3.872   2.871 -0.3113  0.3802  0.2201
   96MOL0     C12891   1.068   3.994   2.822  0.3866 -0.5350 -0.2792
   96MOL0     C12892   0.981   4.094   2.739  1.1764  0.4754  0.3073
   96MOL0     H12893   1.578   4.261   2.990  1.5495  0.3407 -1.1258
   96MOL0     H12894   1.704   4.470   2.929  0.4748  0.9084  2.2335
   96MOL0     H12895   1.522   4.770   2.652  2.7479 -1.2141 -1.0961
   96MOL0     H12896   1.490   4.817   2.830  1.3892 -0.5782  1.9292
   96MOL0     H12897   1.729   4.856   2.652  0.3150 -0.7210  0.2666
   96MOL0     H12898   1.740   4.857   2.832 -0.1998 -0.0400 -0.3456
   96MOL0     H12899   1.728   5.068   2.786 -0.1185 -0.7896  3.2653
   96MOL0     H12900   1.559   5.045   2.820  2.0862  0.3003  1.7536
   96MOL0     H12901   1.665   5.065   2.530 -1.6257  1.1695  0.2605
   96MOL0     H12902   1.514   5.005   2.575  1.0107 -1.8372  1.4734
   96MOL0     H12903   1.444   5.183   2.676  1.1881  0.0134  2.9139
   96MOL0     H12904   1.601   5.268   2.690 -0.0069 -2.3746  0.7925
   96MOL0     H12905   1.621   5.314   2.450 -0.0810  2.0358  2.2398
   96MOL0     H12906   1.485   5.211   2.406 -0.9022 -1.0609  1.0580
   96MOL0     H12907   1.467   5.454   2.569  1.0259 -1.0136  0.6957
   96MOL0     H12908   1.330   5.351   2.549 -0.5298 -2.8710 -2.8392
   96MOL0     H12909   1.477   5.430   2.300  2.5709  0.7658  2.6176
   96MOL0     H12910   1.309   5.386   2.301  3.1813 -1.4390 -3.6364
   96MOL0     H12911   1.490   5.676   2.226  0.7237  0.9399  0.5599
   96MOL0     H12912   1.435   5.924   2.191 -0.9489 -2.8036 -0.3700
   96MOL0     H12913   1.312   5.994   2.286  0.7712  0.5512  2.6560
   96MOL0     H12914   1.541   6.098   2.307  1.3242 -1.0220 -1.8319
   96MOL0     H12915   1.470   6.046   2.462  1.9339 -0.4810  1.4375
   96MOL0     H12916   1.603   5.853   2.475  1.3296 -0.2090 -0.1845
   96MOL0     H12917   1.704   6.002   2.456 -0.1756  0.2737  0.3619
   96MOL0     H12918   1.696   5.955   2.204  0.0987  0.5389  1.1367
   96MOL0     H12919   1.655   5.783   2.247  0.5844 -1.0871 -0.6846
   96MOL0     H12920   2.025   5.927   2.476  2.7235 -2.3077 -0.3329
   96MOL0     H12921   2.190   6.079   2.448  1.3164  0.2890 -0.7468
   96MOL0     H12922   2.417   6.140   1.879  1.1295 -1.0772  2.0240
   96MOL0     H12923   2.616   6.192   1.793 -1.9254 -0.9279 -0.7590
   96MOL0     H12924   2.833   6.225   1.783  4.6581 -0.8480 -1.1073
   96MOL0     H12925   2.813   6.371   1.680  1.0144 -2.6738 -0.8311
   96MOL0     H12926   3.012   6.460   1.793 -0.9874  0.2667 -0.4248
   96MOL0     H12927   3.050   6.326   1.877 -1.1213  1.1883  1.7724
   96MOL0     H12928   2.991   6.300   1.575  0.1790  3.4293 -0.0090
   96MOL0     H12929   3.139   6.359   1.617 -0.7385 -0.1803 -1.2869
   96MOL0     H12930   3.030   6.102   1.728 -1.5036  1.9174  0.0180
   96MOL0     H12931   3.196   6.156   1.774  2.5226  1.3287 -1.1656
   96MOL0     H12932   3.250   6.115   1.525 -0.1899 -0.1142  0.1080
   96MOL0     H12933   3.079   6.069   1.496  0.3065 -4.2119 -1.5329
   96MOL0     H12934   3.106   5.870   1.608  0.4258 -1.7025 -2.3137
   96MOL0     H12935   3.240   5.890   1.497  1.6182 -0.1158  0.8657
   96MOL0     H12936   3.359   5.984   1.739  4.0910 -3.5283  1.4603
   96MOL0     H12937   3.355   5.823   1.681 -1.4498 -1.0383 -3.0944
   96MOL0     H12938   3.125   5.909   1.839 -1.8756 -1.6102  0.6914
   96MOL0     H12939   3.167   5.749   1.787  1.1670 -0.8787  3.4598
   96MOL0     H12940   2.655   6.528   2.068 -2.6273  1.5956  0.1229
   96MOL0     H12941   2.429   6.460   2.163 -3.3802 -0.3615 -0.2803
   96MOL0     H12942   2.098   6.103   2.016 -0.1789  1.7194  0.5468
   96MOL0     H12943   1.882   5.971   2.076  0.3723  0.4116  0.7126
   96MOL0     H12944   1.339   4.627   2.764 -0.1267 -0.1232 -0.2583
   96MOL0     H12945   1.213   4.442   2.840 -0.5526 -2.0331 -0.5183
   96MOL0     H12946   1.333   4.002   3.028  0.8201 -0.2311 -0.2010
   96MOL0     H12947   1.221   3.790   3.118 -0.2176  2.5403  1.6198
   96MOL0     H12948   0.818   3.733   2.960 -0.6380 -1.4037 -1.9371
   96MOL0     H12949   0.816   3.591   3.065 -2.2691  3.5399  1.4823
   96MOL0     H12950   0.952   3.470   2.881  0.9749  1.5319  3.9152
   96MOL0     H12951   0.945   3.610   2.783  1.4813 -1.8298  0.7155
   96MOL0     H12952   0.680   3.591   2.782 -2.5240 -2.0196 -1.4024
   96MOL0     H12953   0.696   3.449   2.874  0.5917 -0.4232  0.4744
   96MOL0     H12954   0.657   3.379   2.647  0.7633  0.0990 -0.2376
   96MOL0     H12955   0.771   3.486   2.588 -3.5772  1.9556  1.0789
   96MOL0     H12956   1.014   3.162   2.698  2.3029  2.3639 -1.6204
   96MOL0     H12957   0.917   3.839   2.828  0.0660 -1.4619  0.7269
   96MOL0     H12958   1.027   4.121   2.643 -0.7021 -3.8302 -2.0773
   96MOL0     H12959   0.883   4.048   2.721  0.4702  3.0859 -3.9513
   96MOL0     H12960   0.964   4.189   2.791  0.7883 -0.0987  1.2389
   97MOL0     O12961   2.598   7.922   6.958  0.0745 -0.1171 -0.3394
   97MOL0     C12962   2.658   7.839   7.025  0.1824  0.4703  0.3930
   97MOL0     O12963   2.758   7.760   6.967 -0.1434 -0.1974 -0.5552
   97MOL0     C12964   2.816   7.786   6.841 -0.0378  0.1793 -0.1676
   97MOL0     C12965   2.832   7.908   6.784 -0.3197 -0.0230 -0.1852
   97MOL0     C12966   2.911   7.920   6.666 -0.0612 -0.0762 -0.0793
   97MOL0     C12967   2.963   7.813   6.592  0.2192 -0.0015 -0.3112
   97MOL0     O12968   3.033   7.836   6.475 -0.0035  0.2257 -0.7702
   97MOL0     C12969   3.096   7.724   6.409 -0.1839 -0.5046 -1.3043
   97MOL0     C12970   3.203   7.765   6.301 -0.9133 -0.7052 -0.2981
   97MOL0     C12971   3.137   7.827   6.183 -0.1526  0.2643 -0.3093
   97MOL0     C12972   3.211   7.901   6.079  0.1358  1.2308  0.4964
   97MOL0     C12973   3.266   7.802   5.977 -0.9807  0.2596  0.8501
   97MOL0     C12974   3.184   7.749   5.861 -0.7089 -0.5517 -0.1917
   97MOL0     C12975   3.131   7.861   5.776 -0.4343 -0.3581  0.1247
   97MOL0     C12976   3.081   7.788   5.646  0.7434  0.5794  0.3165
   97MOL0     N12977   3.025   7.870   5.532 -0.1428 -0.2831  0.3965
   97MOL0     C12978   3.087   7.978   5.485  0.1304  0.4062 -0.4941
   97MOL0     C12979   3.011   8.024   5.389  0.1517  0.4104  0.8426
   97MOL0     C12980   3.037   8.146   5.306 -0.0907 -0.9051  0.0156
   97MOL0     C12981   3.021   8.272   5.394  0.6520  0.0026 -0.3145
   97MOL0     C12982   3.044   8.396   5.310  1.2419 -0.4092 -0.3256
   97MOL0     C12983   3.052   8.527   5.395  0.2929  0.3001  0.3518
   97MOL0     O12984   3.073   8.627   5.296  0.3321 -0.8671 -0.2565
   97MOL0     C12985   3.191   8.694   5.312 -0.4794 -0.0380 -0.1200
   97MOL0     C12986   3.274   8.711   5.204  0.2408  0.1250  0.1921
   97MOL0     C12987   3.410   8.764   5.213  0.4021  0.5511 -0.4880
   97MOL0     C12988   3.449   8.808   5.338 -0.2076 -0.9123 -0.5983
   97MOL0     C12989   3.582   8.868   5.354 -0.4488 -0.7803 -0.7199
   97MOL0     O12990   3.662   8.871   5.244 -0.3136  0.0977  0.1744
   97MOL0     C12991   3.775   8.948   5.236 -0.2318  0.1150 -0.1987
   97MOL0     C12992   3.897   8.902   5.182 -0.1236  0.3904 -0.0127
   97MOL0     C12993   4.015   8.983   5.181  0.4197  0.8420  0.1997
   97MOL0     C12994   4.018   9.109   5.225  0.1693 -0.9113 -0.3094
   97MOL0     O12995   4.126   9.195   5.225  0.8481 -0.3910 -0.0117
   97MOL0     C12996   4.225   9.141   5.309 -0.5139  0.4497  0.5796
   97MOL0     C12997   4.356   9.209   5.262 -0.1489  0.3845 -0.3012
   97MOL0     C12998   4.480   9.167   5.346  0.5960  0.0883 -0.8178
   97MOL0     C12999   4.605   9.211   5.283  0.9517 -0.3602 -0.3470
   97MOL0     C13000   4.736   9.181   5.364  0.6468 -0.6983  0.1332
   97MOL0     C13001   4.852   9.128   5.275  0.2230  0.8591  0.0622
   97MOL0     C13002   4.978   9.089   5.357 -0.5949  1.0693  0.1530
   97MOL0     C13003   5.048   9.207   5.432  0.3764  0.0393 -0.3455
   97MOL0    Cl13004   5.157   9.134   5.548 -0.6152 -0.2436 -0.2070
   97MOL0     C13005   3.902   9.162   5.282  1.3595  0.8935 -0.2372
   97MOL0     C13006   3.779   9.088   5.281 -0.4789  0.6155 -0.8350
   97MOL0     O13007   3.621   8.888   5.472 -0.1280 -0.3659 -0.4084
   97MOL0     C13008   3.355   8.810   5.447 -0.5485 -1.1385  0.1729
   97MOL0     C13009   3.225   8.765   5.427 -0.3582  0.2822  0.4613
   97MOL0     N13010   2.896   7.952   5.384 -1.0040 -0.4728  0.1423
   97MOL0     N13011   2.913   7.852   5.468  0.5888 -0.7521 -0.2190
   97MOL0     C13012   2.935   7.690   6.647  0.2410  0.4786 -0.4685
   97MOL0     C13013   2.864   7.679   6.774 -0.6448  0.7821 -0.2014
   97MOL0     C13014   2.621   7.817   7.165 -0.9210 -0.1107  0.1259
   97MOL0     C13015   2.527   7.907   7.221  0.2493 -0.3959 -0.5698
   97MOL0     C13016   2.463   7.884   7.345  0.8572 -0.0741  0.1963
   97MOL0     C13017   2.509   7.788   7.427  0.0693 -0.3876  0.3015
   97MOL0     O13018   2.450   7.749   7.545  0.6873  0.1434 -0.0969
   97MOL0     C13019   2.328   7.682   7.531 -0.6436  0.7145  0.5780
   97MOL0     C13020   2.282   7.607   7.658 -0.6455 -0.0617  0.2474
   97MOL0     C13021   2.127   7.575   7.647  0.4394  0.3361  0.6257
   97MOL0     C13022   2.095   7.444   7.551  0.1752  0.2635  0.3587
   97MOL0     C13023   2.129   7.323   7.626  0.2362 -0.4729  0.0819
   97MOL0     C13024   2.147   7.211   7.681 -0.6239 -0.6771  0.1503
   97MOL0     C13025   2.613   7.704   7.378 -0.5686  0.4972 -0.7313
   97MOL0     C13026   2.674   7.725   7.251  0.0349  0.0947  0.2004
   97MOL0     C13027   2.773   7.611   7.216  0.0792 -0.5097  1.2407
   97MOL0     H13028   2.791   7.998   6.829  2.4478  0.8674  0.7912
   97MOL0     H13029   2.930   8.017   6.620 -0.9723  0.3127  0.3262
   97MOL0     H13030   3.153   7.677   6.489 -0.8837  0.3342 -0.2719
   97MOL0     H13031   3.023   7.655   6.366  1.4831 -1.7494 -2.2341
   97MOL0     H13032   3.261   7.677   6.272 -3.0312 -1.8002 -1.4418
   97MOL0     H13033   3.260   7.851   6.339 -3.0425  2.1628 -3.0458
   97MOL0     H13034   3.050   7.890   6.204 -2.7487 -1.7012 -3.8629
   97MOL0     H13035   3.088   7.738   6.142 -1.7696 -0.2895  2.5742
   97MOL0     H13036   3.146   7.977   6.035  0.7885  2.1396  1.0557
   97MOL0     H13037   3.301   7.948   6.120 -0.8381  1.3171  2.6417
   97MOL0     H13038   3.347   7.860   5.932  1.1037 -1.0286  2.7399
   97MOL0     H13039   3.311   7.724   6.040  2.3406  2.6243  1.6816
   97MOL0     H13040   3.248   7.680   5.806  0.7926  1.0840 -0.5805
   97MOL0     H13041   3.097   7.700   5.905 -1.9522  1.2811 -0.4772
   97MOL0     H13042   3.203   7.939   5.750 -0.5329 -0.9060 -1.9402
   97MOL0     H13043   3.060   7.912   5.842  0.8684  1.5763  0.0941
   97MOL0     H13044   3.167   7.735   5.605  1.7461  1.1233  1.6639
   97MOL0     H13045   3.013   7.709   5.680  0.6109  0.4473 -0.2450
   97MOL0     H13046   3.181   8.017   5.522  1.1041 -2.6933  0.5857
   97MOL0     H13047   3.136   8.135   5.262  0.3988 -1.3851  1.1735
   97MOL0     H13048   2.958   8.163   5.232  2.0366  0.0391 -2.1595
   97MOL0     H13049   2.922   8.265   5.440  0.3420 -3.0854 -1.2028
   97MOL0     H13050   3.093   8.261   5.475  3.7688 -0.6092 -2.9506
   97MOL0     H13051   2.958   8.393   5.242  2.4018 -2.2479 -1.8101
   97MOL0     H13052   3.132   8.389   5.246  0.8200  0.9164 -1.0844
   97MOL0     H13053   3.130   8.522   5.471  0.6136 -1.1606 -0.0239
   97MOL0     H13054   2.957   8.542   5.447  0.4450 -2.1036  1.4804
   97MOL0     H13055   3.271   8.658   5.110 -3.2466  2.7033 -1.3534
   97MOL0     H13056   3.468   8.783   5.123  0.8603  2.0349  0.0901
   97MOL0     H13057   3.903   8.801   5.144  0.3491  0.3650  0.1104
   97MOL0     H13058   4.103   8.933   5.143  0.4312  1.2485 -0.3218
   97MOL0     H13059   4.197   9.165   5.412 -0.3658 -3.8586  1.8077
   97MOL0     H13060   4.233   9.032   5.311 -0.4259  0.4496  0.2959
   97MOL0     H13061   4.371   9.181   5.157  0.0672  0.8073 -0.3880
   97MOL0     H13062   4.342   9.316   5.283  0.7960 -0.2345  4.7708
   97MOL0     H13063   4.461   9.215   5.442 -0.4715  1.3940 -1.6564
   97MOL0     H13064   4.476   9.059   5.367  0.0287  0.4066  0.9136
   97MOL0     H13065   4.596   9.318   5.262  6.0701  0.1269 -1.4745
   97MOL0     H13066   4.616   9.168   5.183 -0.2433 -1.0360 -0.2030
   97MOL0     H13067   4.710   9.107   5.441  2.4227 -1.3013  0.1847
   97MOL0     H13068   4.757   9.274   5.416 -2.9752  0.8102 -0.8045
   97MOL0     H13069   4.818   9.037   5.223  0.0725  0.9027  0.0827
   97MOL0     H13070   4.874   9.202   5.198 -0.2667  0.3101 -0.6207
   97MOL0     H13071   5.045   9.029   5.295 -1.9230  2.2944 -2.6212
   97MOL0     H13072   4.945   9.018   5.433  0.5001 -0.3508 -0.6545
   97MOL0     H13073   5.108   9.270   5.366  0.4110  1.0405  0.6136
   97MOL0     H13074   4.986   9.261   5.504  1.3882 -1.3526  1.6694
   97MOL0     H13075   3.903   9.259   5.329 -5.1662  0.8158  0.9719
   97MOL0     H13076   3.689   9.132   5.323 -1.7892 -3.5499  1.2681
   97MOL0     H13077   3.392   8.840   5.544  0.5284 -2.0499  0.0601
   97MOL0     H13078   3.173   8.750   5.521  1.9768 -2.3691  1.4728
   97MOL0     H13079   2.961   7.595   6.602  3.2141  1.3048 -0.7093
   97MOL0     H13080   2.869   7.580   6.818  0.4304  1.2021  0.6519
   97MOL0     H13081   2.489   7.991   7.163  2.0996  1.0537  0.1827
   97MOL0     H13082   2.390   7.955   7.381  3.7768  3.1534  0.3027
   97MOL0     H13083   2.326   7.608   7.450  0.1681  2.4308 -1.0728
   97MOL0     H13084   2.263   7.765   7.504  2.3250  2.5149 -1.7174
   97MOL0     H13085   2.307   7.667   7.746 -0.9209  0.4496 -0.0193
   97MOL0     H13086   2.336   7.512   7.655 -1.0725 -0.3829  1.8435
   97MOL0     H13087   2.083   7.665   7.604 -1.4984  0.8111  3.3460
   97MOL0     H13088   2.090   7.558   7.749  0.0167 -3.4325 -0.0243
   97MOL0     H13089   1.986   7.434   7.546  0.1038  0.2858  1.5365
   97MOL0     H13090   2.156   7.447   7.460  3.0946 -0.1405  2.1779
   97MOL0     H13091   2.166   7.118   7.729 -2.1121 -0.9740  0.2008
   97MOL0     H13092   2.622   7.617   7.442 -2.4688  1.7283  1.3883
   97MOL0     H13093   2.803   7.551   7.302 -3.0166 -0.8466  2.2043
   97MOL0     H13094   2.738   7.541   7.139 -2.4947  0.0795  1.7779
   97MOL0     H13095   2.859   7.669   7.182 -0.5169 -0.1432  0.3027
   98MOL0     O13096   2.189   2.758   5.044  0.2059  0.5771 -0.5188
   98MOL0     C13097   2.086   2.685   5.039 -0.4935 -0.1931  1.0468
   98MOL0     O13098   2.004   2.658   5.146  0.7961  0.3890  0.2038
   98MOL0     C13099   2.013   2.736   5.260  0.9223 -0.1819  0.5986
   98MOL0     C13100   2.126   2.776   5.328 -1.0375  0.1867 -0.2075
   98MOL0     C13101   2.126   2.866   5.434  0.6036  0.3886 -0.3228
   98MOL0     C13102   2.001   2.907   5.493 -0.0006 -0.1155 -0.6117
   98MOL0     O13103   1.992   3.000   5.599  0.5042  0.2350 -0.3461
   98MOL0     C13104   2.110   3.039   5.665  0.0891 -0.5512  0.2215
   98MOL0     C13105   2.130   2.941   5.783 -0.4461 -0.1160  1.2325
   98MOL0     C13106   2.273   2.938   5.833  0.1880 -0.0343  0.2575
   98MOL0     C13107   2.285   2.828   5.940  0.4000 -0.0223 -0.0080
   98MOL0     C13108   2.428   2.818   5.993  0.3616  0.0590  0.1291
   98MOL0     C13109   2.452   2.736   6.118 -0.6417 -0.2832 -0.8765
   98MOL0     C13110   2.595   2.757   6.166  0.3198 -0.5257  0.0915
   98MOL0     C13111   2.611   2.688   6.299  0.9644 -0.5569 -0.1421
   98MOL0     N13112   2.606   2.539   6.293 -0.7528 -0.8175  1.1387
   98MOL0     C13113   2.684   2.455   6.219  0.2344 -0.6692  0.3998
   98MOL0     C13114   2.632   2.332   6.246  0.2152 -0.0569  0.2071
   98MOL0     C13115   2.678   2.199   6.182  0.6887 -0.8376  0.5733
   98MOL0     C13116   2.774   2.120   6.282  0.7822 -0.9126  0.0219
   98MOL0     C13117   2.850   2.020   6.207  0.4336  0.5070  0.0684
   98MOL0     C13118   2.773   1.887   6.192  0.3065 -0.3386  0.3969
   98MOL0     O13119   2.756   1.818   6.317  0.3155 -0.4677  0.3632
   98MOL0     C13120   2.686   1.693   6.311 -0.7206  0.4224 -0.3206
   98MOL0     C13121   2.632   1.651   6.431  0.3641  0.8894  0.8353
   98MOL0     C13122   2.560   1.533   6.435 -0.0265  0.1425 -0.0571
   98MOL0     C13123   2.521   1.468   6.321 -0.2023  0.0038  1.0603
   98MOL0     C13124   2.435   1.351   6.333 -0.4246 -0.1669 -0.4742
   98MOL0     O13125   2.460   1.269   6.434 -1.3802  0.0608  0.0906
   98MOL0     C13126   2.419   1.137   6.439  0.2691 -0.1138 -1.0128
   98MOL0     C13127   2.369   1.053   6.337 -0.8911 -0.4757 -0.4355
   98MOL0     C13128   2.328   0.928   6.368 -0.2905 -0.5467 -0.2226
   98MOL0     C13129   2.347   0.867   6.495 -0.1817 -0.5113 -0.6318
   98MOL0     O13130   2.305   0.746   6.545  0.3137 -0.5954  0.1434
   98MOL0     C13131   2.168   0.715   6.528  0.4141 -0.2463  0.2167
   98MOL0     C13132   2.155   0.567   6.555  0.1608 -0.2796  0.8995
   98MOL0     C13133   2.035   0.512   6.470  0.6299  0.7406  0.0014
   98MOL0     C13134   2.053   0.507   6.324 -0.1235 -0.9144 -0.4681
   98MOL0     C13135   1.994   0.388   6.256 -0.3459  0.0680 -0.4443
   98MOL0     C13136   1.845   0.391   6.262 -0.0616  0.1409  0.6960
   98MOL0     C13137   1.775   0.264   6.204 -0.8968 -0.8815 -0.5649
   98MOL0     C13138   1.624   0.267   6.245  0.2834  0.6095 -0.3033
   98MOL0    Cl13139   1.536   0.385   6.144  0.0150 -0.2650 -0.0090
   98MOL0     C13140   2.419   0.945   6.584  0.5435  0.6040 -0.4023
   98MOL0     C13141   2.444   1.078   6.561 -0.7623 -0.3300 -0.7919
   98MOL0     O13142   2.362   1.328   6.238 -0.1437  0.2122 -0.1094
   98MOL0     C13143   2.573   1.515   6.192  0.0797 -0.5210 -0.2657
   98MOL0     C13144   2.660   1.629   6.187 -0.1821  0.3206  0.0884
   98MOL0     N13145   2.530   2.342   6.326 -0.1186 -0.0118 -0.2100
   98MOL0     N13146   2.522   2.468   6.367 -0.5627 -0.0633 -0.1409
   98MOL0     C13147   1.880   2.868   5.424 -0.7503  0.5831 -0.2198
   98MOL0     C13148   1.890   2.788   5.310  1.1197 -0.3709 -0.9683
   98MOL0     C13149   2.085   2.581   4.934 -0.4846 -1.2660 -0.7146
   98MOL0     C13150   1.969   2.541   4.885  0.3185 -0.2462  0.0485
   98MOL0     C13151   1.958   2.425   4.804 -0.9879  0.0557 -0.2739
   98MOL0     C13152   2.066   2.353   4.778  0.6620 -0.9345 -0.5482
   98MOL0     O13153   2.046   2.234   4.713  1.0488  0.1480 -0.0390
   98MOL0     C13154   2.084   2.235   4.576 -0.3390 -0.5130  0.3239
   98MOL0     C13155   2.010   2.119   4.510 -0.7504 -0.1897  0.1917
   98MOL0     C13156   2.087   1.982   4.517  0.3981 -0.3333 -0.3579
   98MOL0     C13157   2.140   1.935   4.382 -0.2907  0.7988  0.3750
   98MOL0     C13158   2.233   2.037   4.326  0.1601  0.6841  0.8510
   98MOL0     C13159   2.311   2.132   4.308 -0.2970 -0.4973 -0.1424
   98MOL0     C13160   2.191   2.397   4.812 -0.1625  0.0064 -0.1301
   98MOL0     C13161   2.202   2.508   4.894  0.7771  0.1271  0.2058
   98MOL0     C13162   2.345   2.535   4.944 -0.1985  0.4591  0.1775
   98MOL0     H13163   2.220   2.732   5.296 -1.3923  0.2831 -1.4312
   98MOL0     H13164   2.230   2.882   5.458  1.1682 -1.5173 -1.2811
   98MOL0     H13165   2.200   3.046   5.604  0.7004 -1.2223  1.0269
   98MOL0     H13166   2.082   3.137   5.704 -2.0295 -1.5342  1.3614
   98MOL0     H13167   2.132   2.839   5.745  2.5145  0.0308  0.7378
   98MOL0     H13168   2.060   2.957   5.866  0.2654  1.5316  1.5603
   98MOL0     H13169   2.290   3.038   5.873 -4.8030  0.3625  2.1158
   98MOL0     H13170   2.337   2.916   5.747  0.0772  0.3441  0.0776
   98MOL0     H13171   2.228   2.854   6.030  0.2695  0.4341 -0.2179
   98MOL0     H13172   2.256   2.733   5.895  3.3567 -1.9471  1.7806
   98MOL0     H13173   2.495   2.777   5.917  0.7216 -3.3692  2.0628
   98MOL0     H13174   2.460   2.920   6.016 -1.0778  0.3848  0.7702
   98MOL0     H13175   2.377   2.767   6.192 -2.3869  0.2172 -2.7565
   98MOL0     H13176   2.430   2.635   6.084 -1.2773 -0.3603 -0.2701
   98MOL0     H13177   2.621   2.863   6.169  0.0125 -0.1172 -4.5010
   98MOL0     H13178   2.658   2.716   6.086  0.5578 -0.9216  0.4758
   98MOL0     H13179   2.698   2.717   6.359 -0.8207  3.2572  0.8706
   98MOL0     H13180   2.536   2.716   6.373  3.0467 -0.9259  2.2770
   98MOL0     H13181   2.769   2.485   6.158 -1.7283 -0.2459 -2.3381
   98MOL0     H13182   2.594   2.138   6.149 -1.1970  0.0435  3.3719
   98MOL0     H13183   2.738   2.222   6.094 -1.4483 -1.5950 -1.1428
   98MOL0     H13184   2.845   2.183   6.336  4.8954 -1.2747 -4.3411
   98MOL0     H13185   2.707   2.078   6.358 -1.5013  2.6694  0.1731
   98MOL0     H13186   2.943   2.001   6.262  0.4616  3.5534  1.2937
   98MOL0     H13187   2.882   2.050   6.107  0.1158 -1.7502 -0.7515
   98MOL0     H13188   2.840   1.830   6.127  0.7165 -0.4930  0.9430
   98MOL0     H13189   2.678   1.890   6.138  1.9548 -0.7842 -2.7344
   98MOL0     H13190   2.656   1.702   6.524  1.0529  0.4695  0.9031
   98MOL0     H13191   2.544   1.502   6.538 -0.5576 -0.2935 -0.2664
   98MOL0     H13192   2.342   1.098   6.242  1.1624  1.9145  0.0141
   98MOL0     H13193   2.279   0.892   6.278 -1.9771  0.6100  0.1781
   98MOL0     H13194   2.099   0.759   6.601 -0.3417 -0.3371 -0.4326
   98MOL0     H13195   2.137   0.744   6.427 -2.9728 -0.5002  1.0712
   98MOL0     H13196   2.243   0.512   6.522  0.6643 -0.1406  1.9959
   98MOL0     H13197   2.124   0.550   6.658 -1.5835 -1.7920  0.2045
   98MOL0     H13198   2.017   0.408   6.497  1.5632  0.7153  0.5746
   98MOL0     H13199   1.946   0.571   6.493  0.8379  0.4219  1.8254
   98MOL0     H13200   2.160   0.501   6.300 -0.0529 -0.5113 -0.2804
   98MOL0     H13201   2.009   0.600   6.288  1.3734  0.3224  0.6944
   98MOL0     H13202   2.027   0.301   6.313 -1.8850  0.2767  0.8209
   98MOL0     H13203   2.032   0.382   6.153 -3.2173 -1.3692 -1.5268
   98MOL0     H13204   1.807   0.413   6.363 -3.4490  0.6086 -0.5414
   98MOL0     H13205   1.808   0.478   6.208 -1.1716 -2.8762 -4.0039
   98MOL0     H13206   1.826   0.178   6.248  0.1623  0.7075  1.5041
   98MOL0     H13207   1.787   0.258   6.095 -1.1182  2.3659 -0.8701
   98MOL0     H13208   1.578   0.169   6.235  2.2590 -0.9241  3.6562
   98MOL0     H13209   1.611   0.302   6.347  0.1220  0.8778 -0.4136
   98MOL0     H13210   2.428   0.889   6.677  0.4045  0.5468 -0.4236
   98MOL0     H13211   2.467   1.141   6.646  0.4024 -0.5243 -0.9395
   98MOL0     H13212   2.548   1.472   6.095  4.6144 -2.4473 -0.8281
   98MOL0     H13213   2.697   1.662   6.090  2.5890 -1.3512  0.4480
   98MOL0     H13214   1.785   2.891   5.471 -0.6445 -1.1583  0.9830
   98MOL0     H13215   1.798   2.757   5.261 -0.9234  0.6065  1.9496
   98MOL0     H13216   1.879   2.592   4.919 -0.1358 -0.5832 -0.6054
   98MOL0     H13217   1.865   2.380   4.770 -0.3544 -0.6357 -1.1260
   98MOL0     H13218   2.191   2.214   4.567 -0.2527  0.7695 -2.9562
   98MOL0     H13219   2.075   2.326   4.515 -0.6694 -0.8692 -0.1686
   98MOL0     H13220   1.993   2.147   4.406 -0.2396  1.8032  0.5931
   98MOL0     H13221   1.912   2.116   4.559 -1.7139  1.4006 -1.5199
   98MOL0     H13222   2.017   1.905   4.549  1.4962 -2.0233 -1.8544
   98MOL0     H13223   2.170   1.992   4.587 -1.8861 -1.8876  2.8224
   98MOL0     H13224   2.176   1.833   4.397 -2.1775  0.3389  2.3309
   98MOL0     H13225   2.058   1.926   4.310  0.4639  2.7144 -0.7988
   98MOL0     H13226   2.357   2.228   4.296 -2.1020  0.2206 -2.1098
   98MOL0     H13227   2.281   2.342   4.787  0.0542 -0.9615  2.5134
   98MOL0     H13228   2.426   2.476   4.899  0.9679  0.8331  1.7072
   98MOL0     H13229   2.363   2.642   4.955 -0.6712  0.4878  0.6742
   98MOL0     H13230   2.344   2.493   5.045 -1.7574  1.2928  0.5312
   99MOL0     O13231   5.753   3.377   9.608  0.2569 -0.5476  0.0448
   99MOL0     C13232   5.757   3.394   9.725  0.6936 -0.6036  0.0651
   99MOL0     O13233   5.862   3.387   9.807 -0.1202 -0.5340 -0.0135
   99MOL0     C13234   5.995   3.377   9.764  0.6540  0.3452 -0.3632
   99MOL0     C13235   6.093   3.319   9.845 -0.4413  0.1048  0.1777
   99MOL0     C13236   6.221   3.313   9.799 -1.1026  0.1027 -0.0596
   99MOL0     C13237   6.265   3.366   9.672 -0.6819 -0.2134 -1.4765
   99MOL0     O13238   6.391   3.346   9.628 -0.2992  0.7629 -0.7269
   99MOL0     C13239   6.492   3.258   9.691  0.0322  0.0031  0.4111
   99MOL0     C13240   6.602   3.237   9.581 -0.0203 -0.7178 -0.3635
   99MOL0     C13241   6.696   3.358   9.591 -0.6625 -0.3068  0.6619
   99MOL0     C13242   6.822   3.332   9.506  0.6039  0.1120 -0.3283
   99MOL0     C13243   6.914   3.455   9.519 -0.3500  0.0348  0.5631
   99MOL0     C13244   7.032   3.439   9.423  0.6150  0.0225  0.0496
   99MOL0     C13245   7.152   3.357   9.464  0.2965  0.0571  0.1403
   99MOL0     C13246   7.265   3.355   9.353  0.8354 -0.4139  0.1153
   99MOL0     N13247   7.237   3.275   9.232  0.7728 -0.5388 -0.8406
   99MOL0     C13248   7.138   3.176   9.226 -0.7659 -0.8171 -0.1099
   99MOL0     C13249   7.144   3.127   9.098 -0.6973  0.1993 -0.4059
   99MOL0     C13250   7.056   3.026   9.035  0.5377  0.7661  0.1645
   99MOL0     C13251   6.919   3.064   9.085  0.2899 -0.0991 -0.2627
   99MOL0     C13252   6.813   2.984   9.014 -0.0270  0.3362  0.2082
   99MOL0     C13253   6.688   3.060   8.958  0.2502  0.0112 -0.0367
   99MOL0     O13254   6.630   3.114   9.082  0.0886 -0.9016 -0.4108
   99MOL0     C13255   6.514   3.198   9.078 -0.2869  0.3887 -0.0366
   99MOL0     C13256   6.468   3.251   8.963 -0.0717 -1.0681  1.4954
   99MOL0     C13257   6.376   3.360   8.974  0.3383 -0.2804 -0.0641
   99MOL0     C13258   6.313   3.394   9.097  0.5827  0.0855  0.3112
   99MOL0     C13259   6.207   3.493   9.104 -0.5719  0.2264  0.7518
   99MOL0     O13260   6.135   3.491   9.225 -0.6057  0.1951 -0.8196
   99MOL0     C13261   6.023   3.576   9.237 -0.2565  0.0092 -0.0450
   99MOL0     C13262   6.051   3.720   9.219 -0.2295  0.2082 -0.5646
   99MOL0     C13263   5.956   3.808   9.272 -0.3781 -0.1806 -0.2119
   99MOL0     C13264   5.838   3.775   9.346 -0.2076  0.1797  0.4994
   99MOL0     O13265   5.746   3.864   9.402 -0.2090 -0.4570  0.3264
   99MOL0     C13266   5.785   3.892   9.534  0.1168  1.3232  0.2871
   99MOL0     C13267   5.671   3.969   9.613 -0.3139  0.0255 -0.3416
   99MOL0     C13268   5.709   4.030   9.752  0.6036  0.6429  0.6929
   99MOL0     C13269   5.810   4.148   9.727  0.5146  0.2872 -0.0051
   99MOL0     C13270   5.844   4.207   9.866  0.0109 -0.2927 -1.1915
   99MOL0     C13271   5.970   4.304   9.868 -0.2668 -0.1596 -0.7705
   99MOL0     C13272   5.972   4.418   9.758  0.2813  0.0278 -0.5794
   99MOL0     C13273   6.102   4.506   9.766  0.2134  0.0404  0.4460
   99MOL0    Cl13274   6.140   4.581   9.922  0.3028 -0.3420  0.0442
   99MOL0     C13275   5.821   3.638   9.367 -0.4289 -0.2422 -0.4935
   99MOL0     C13276   5.914   3.542   9.315  0.2225  0.8858 -0.3937
   99MOL0     O13277   6.177   3.566   9.008 -0.9101 -0.3522 -0.0947
   99MOL0     C13278   6.342   3.318   9.213 -0.9262 -0.7439  0.2826
   99MOL0     C13279   6.443   3.222   9.198  0.2997 -0.4159 -0.1056
   99MOL0     N13280   7.257   3.190   9.042 -0.5385  0.4286  0.4696
   99MOL0     N13281   7.311   3.275   9.120 -0.7432  0.0243  0.5540
   99MOL0     C13282   6.166   3.420   9.591 -0.3005  0.7549  0.0269
   99MOL0     C13283   6.034   3.423   9.645 -0.7927  0.1158  0.4168
   99MOL0     C13284   5.621   3.396   9.794 -0.5243 -1.2793 -0.0162
   99MOL0     C13285   5.610   3.330   9.911  0.6433  0.4237 -0.6145
   99MOL0     C13286   5.496   3.339   9.987 -0.3385 -0.1260 -0.1765
   99MOL0     C13287   5.398   3.426   9.941 -0.8313 -0.4431 -0.0994
   99MOL0     O13288   5.279   3.439  10.002 -0.4375  0.0415  0.4097
   99MOL0     C13289   5.241   3.355  10.116 -0.7687 -0.6036 -0.2475
   99MOL0     C13290   5.264   3.447  10.238  0.5255  0.2648 -0.2325
   99MOL0     C13291   5.198   3.392  10.371 -0.2483 -0.3833 -0.6919
   99MOL0     C13292   5.051   3.429  10.396 -0.4004  0.1962 -0.0409
   99MOL0     C13293   4.961   3.337  10.325 -1.7007  0.7192 -0.6684
   99MOL0     C13294   4.874   3.269  10.284 -0.4494  0.2416  0.3171
   99MOL0     C13295   5.406   3.495   9.822  0.5396  0.5364 -0.1190
   99MOL0     C13296   5.516   3.481   9.742  0.3688 -0.3581 -0.1780
   99MOL0     C13297   5.519   3.567   9.614  0.0126  0.2159 -0.4054
   99MOL0     H13298   6.073   3.279   9.944 -0.7808 -1.8916 -0.6390
   99MOL0     H13299   6.290   3.268   9.869 -0.0769 -0.7992 -1.5901
   99MOL0     H13300   6.532   3.297   9.785  0.9304 -3.0447  1.4251
   99MOL0     H13301   6.461   3.155   9.713 -2.0798  0.1054 -1.7533
   99MOL0     H13302   6.561   3.237   9.480  0.6372  2.0773 -0.7217
   99MOL0     H13303   6.657   3.147   9.611 -0.2262 -0.6144  0.3633
   99MOL0     H13304   6.707   3.388   9.696 -1.2157  4.7145 -0.4442
   99MOL0     H13305   6.651   3.443   9.538 -0.9652  0.1091  1.5662
   99MOL0     H13306   6.872   3.237   9.524 -1.5612 -1.1232 -0.5416
   99MOL0     H13307   6.783   3.331   9.404  0.3899  1.8247 -0.3038
   99MOL0     H13308   6.861   3.537   9.470 -1.8162 -1.3915 -0.3238
   99MOL0     H13309   6.948   3.461   9.623 -1.8241 -1.7815  1.1963
   99MOL0     H13310   6.994   3.401   9.328 -1.8918  1.8952  0.2189
   99MOL0     H13311   7.084   3.534   9.408 -0.8576  0.8400  0.0557
   99MOL0     H13312   7.134   3.260   9.512  1.8679 -0.1168  0.4523
   99MOL0     H13313   7.199   3.421   9.539  1.1983 -1.4754  0.9358
   99MOL0     H13314   7.298   3.455   9.322 -1.1623  0.7097  1.4466
   99MOL0     H13315   7.347   3.302   9.403 -1.6122 -2.9284  1.7244
   99MOL0     H13316   7.053   3.158   9.291 -1.4076  1.4293 -0.2212
   99MOL0     H13317   7.075   3.029   8.927  0.7451 -1.2629  0.1063
   99MOL0     H13318   7.066   2.920   9.058  0.0943  0.9209  1.0855
   99MOL0     H13319   6.906   3.041   9.191  0.0998 -1.6554 -0.6025
   99MOL0     H13320   6.896   3.171   9.081 -0.9826 -0.3629 -3.5783
   99MOL0     H13321   6.777   2.897   9.069  1.2621 -1.1537 -1.1854
   99MOL0     H13322   6.854   2.928   8.929  1.8465 -0.3652  1.5204
   99MOL0     H13323   6.623   2.985   8.912 -0.2643  0.0247  0.6457
   99MOL0     H13324   6.706   3.133   8.879  0.4146 -0.2331 -0.2249
   99MOL0     H13325   6.510   3.220   8.868 -1.3198 -4.6533  1.9893
   99MOL0     H13326   6.352   3.421   8.888  1.0333  2.4210  1.5549
   99MOL0     H13327   6.137   3.754   9.163  2.1487 -0.5015  2.4447
   99MOL0     H13328   5.974   3.914   9.259  2.4562 -0.1707  2.5126
   99MOL0     H13329   5.800   3.800   9.591  2.0106  1.1894 -0.3635
   99MOL0     H13330   5.879   3.947   9.525  0.3326  0.7526 -1.3053
   99MOL0     H13331   5.636   4.059   9.561 -0.4767  1.4397  2.0520
   99MOL0     H13332   5.595   3.893   9.633  1.8577 -1.5176  3.0134
   99MOL0     H13333   5.617   4.076   9.789 -0.6124 -0.8885 -0.2931
   99MOL0     H13334   5.757   3.954   9.814  1.6601  0.9923  0.3348
   99MOL0     H13335   5.769   4.220   9.655 -1.7572 -2.3147 -1.5238
   99MOL0     H13336   5.895   4.104   9.674  0.2245 -1.0547  0.6178
   99MOL0     H13337   5.855   4.136   9.949  0.8510  1.6851  0.4872
   99MOL0     H13338   5.766   4.274   9.902  2.8720  2.4071  0.5376
   99MOL0     H13339   5.977   4.348   9.968 -0.5759  0.0332 -0.8316
   99MOL0     H13340   6.057   4.242   9.847  1.8515  3.0931 -2.4647
   99MOL0     H13341   5.886   4.484   9.770 -0.6004 -1.4410  2.0055
   99MOL0     H13342   5.965   4.365   9.662  1.0080 -0.1544 -0.5363
   99MOL0     H13343   6.180   4.432   9.745  0.5610  0.5072  0.0727
   99MOL0     H13344   6.103   4.584   9.689 -0.5762 -0.1226  0.2554
   99MOL0     H13345   5.739   3.600   9.428 -2.0569  1.6144 -1.4018
   99MOL0     H13346   5.882   3.444   9.348  1.8454 -0.1151 -1.6370
   99MOL0     H13347   6.298   3.339   9.309  2.1446 -1.3519  1.9552
   99MOL0     H13348   6.473   3.157   9.279 -2.3187 -0.5855  0.8017
   99MOL0     H13349   6.195   3.450   9.491  2.2561  0.4761  0.6255
   99MOL0     H13350   5.967   3.460   9.569 -0.3744 -0.2277 -0.1278
   99MOL0     H13351   5.679   3.255   9.949 -0.3285  0.6649  1.7601
   99MOL0     H13352   5.498   3.291  10.084  0.1063 -0.8212 -0.5160
   99MOL0     H13353   5.296   3.263  10.136 -0.6147 -0.4460  0.0561
   99MOL0     H13354   5.134   3.335  10.108 -0.6439 -0.5428 -3.0845
   99MOL0     H13355   5.213   3.542  10.218 -1.9863 -0.6609  1.1906
   99MOL0     H13356   5.372   3.459  10.249  0.4544  1.3354 -0.6199
   99MOL0     H13357   5.258   3.425  10.456 -1.6408 -0.0999  0.2035
   99MOL0     H13358   5.216   3.284  10.364  1.4316 -0.1260 -0.7960
   99MOL0     H13359   5.041   3.423  10.504  4.4565  0.1845  0.6321
   99MOL0     H13360   5.029   3.530  10.359  0.2296  1.2478  2.2885
   99MOL0     H13361   4.794   3.213  10.241  1.3183 -0.6858 -1.9386
   99MOL0     H13362   5.327   3.568   9.806  0.3722  1.2371  3.1922
   99MOL0     H13363   5.615   3.618   9.602  0.5871 -0.0317  2.3825
   99MOL0     H13364   5.505   3.506   9.525  2.9419 -1.2825  0.0367
   99MOL0     H13365   5.448   3.650   9.624 -0.6712 -0.5458  1.5969
  100MOL0     O13366   5.980  11.264   8.442  0.1173  0.9614 -0.5647
  100MOL0     C13367   5.937  11.180   8.360 -0.6902 -0.4857  0.5500
  100MOL0     O13368   6.021  11.092   8.286  0.0633  0.0928 -0.9336
  100MOL0     C13369   6.153  11.104   8.264  0.6159 -0.4748 -1.1686
  100MOL0     C13370   6.211  10.998   8.204 -0.1986  0.6677  0.4050
  100MOL0     C13371   6.352  10.984   8.188 -0.0969  0.0020 -0.1537
  100MOL0     C13372   6.431  11.096   8.194 -0.2560 -0.3058 -0.4162
  100MOL0     O13373   6.565  11.077   8.163 -0.2499  0.3766 -0.0896
  100MOL0     C13374   6.650  11.195   8.143  0.4088  0.0692 -0.3713
  100MOL0     C13375   6.629  11.277   8.010  0.2946  0.2889 -0.4848
  100MOL0     C13376   6.728  11.396   7.987  0.3515 -0.4169 -0.3010
  100MOL0     C13377   6.872  11.352   8.016 -0.1376 -0.1810  0.0103
  100MOL0     C13378   6.969  11.448   7.944  0.3195  0.2872  1.1258
  100MOL0     C13379   7.124  11.399   7.943 -0.7970  0.2944 -1.3095
  100MOL0     C13380   7.212  11.481   7.842 -0.3212 -0.1215  0.4407
  100MOL0     C13381   7.170  11.445   7.700  0.3777  0.1546 -0.5801
  100MOL0     N13382   7.160  11.571   7.623 -1.1638 -0.1283  0.0842
  100MOL0     C13383   7.087  11.687   7.646  0.9816  0.1614  0.2313
  100MOL0     C13384   7.133  11.774   7.557 -0.4133  0.1315 -1.1406
  100MOL0     C13385   7.081  11.919   7.538  0.2141  0.5138 -0.8417
  100MOL0     C13386   6.984  11.921   7.414 -0.2531  0.2798  0.3456
  100MOL0     C13387   6.862  12.028   7.428 -0.2520  0.7148  0.1007
  100MOL0     C13388   6.753  12.026   7.311 -0.2602  0.3614 -0.3639
  100MOL0     O13389   6.821  12.047   7.184  0.1766 -0.3866 -0.4679
  100MOL0     C13390   6.753  12.098   7.069  0.1134 -0.0006 -0.2460
  100MOL0     C13391   6.835  12.142   6.962 -0.1994  0.9647 -0.0073
  100MOL0     C13392   6.782  12.207   6.853 -0.2550 -0.4398 -0.3266
  100MOL0     C13393   6.642  12.212   6.841 -0.0363  0.4135 -0.3535
  100MOL0     C13394   6.584  12.269   6.721 -0.3603  0.5055 -0.2859
  100MOL0     O13395   6.663  12.247   6.609 -0.5043 -0.3075  0.4524
  100MOL0     C13396   6.649  12.317   6.496 -0.2506 -0.6687  0.2866
  100MOL0     C13397   6.765  12.399   6.467  0.6307 -0.1670 -0.0248
  100MOL0     C13398   6.769  12.473   6.348  0.4475 -0.2945 -0.9042
  100MOL0     C13399   6.654  12.480   6.274 -0.1356 -0.2418 -0.6059
  100MOL0     O13400   6.654  12.568   6.173 -0.3878  0.1536  0.1516
  100MOL0     C13401   6.595  12.542   6.047 -0.1113  0.3422  0.1212
  100MOL0     C13402   6.612  12.635   5.926  0.3030  0.6002 -0.1663
  100MOL0     C13403   6.758  12.628   5.884 -0.3029  0.5422  0.0747
  100MOL0     C13404   6.836  12.727   5.955  0.0011 -0.7090 -0.0102
  100MOL0     C13405   6.986  12.709   5.932 -0.1494  0.3945  0.5196
  100MOL0     C13406   7.060  12.607   6.021  0.6073  0.1245  0.7172
  100MOL0     C13407   7.177  12.539   5.945  0.1796 -0.2962 -0.3157
  100MOL0     C13408   7.234  12.435   6.039  0.2178 -0.7035  0.5650
  100MOL0    Cl13409   7.387  12.380   5.971 -0.3981  0.3138  0.0530
  100MOL0     C13410   6.536  12.401   6.311 -0.4382 -0.3336 -0.6909
  100MOL0     C13411   6.533  12.309   6.418  0.4295 -0.7145  0.7703
  100MOL0     O13412   6.485  12.343   6.725 -0.2391  0.7474 -0.6154
  100MOL0     C13413   6.559  12.160   6.945  0.2557 -0.1572 -0.9222
  100MOL0     C13414   6.614  12.106   7.055 -0.1617 -0.2363 -1.3056
  100MOL0     N13415   7.231  11.717   7.484 -1.1396  0.8883 -0.2458
  100MOL0     N13416   7.251  11.594   7.524  0.4141  0.0300 -0.1908
  100MOL0     C13417   6.357  11.216   8.231 -1.1318  0.2571  0.5112
  100MOL0     C13418   6.231  11.220   8.267  0.2625 -0.4737  0.1267
  100MOL0     C13419   5.800  11.135   8.377 -0.1316 -0.8552 -0.6473
  100MOL0     C13420   5.765  10.998   8.379 -0.0777  0.2167 -0.1416
  100MOL0     C13421   5.633  10.963   8.388 -0.2813 -0.2455 -0.7650
  100MOL0     C13422   5.533  11.063   8.403 -0.3474 -0.6003  0.7408
  100MOL0     O13423   5.404  11.026   8.416 -0.2849 -0.0263  0.4972
  100MOL0     C13424   5.364  10.900   8.368  0.2878  0.0928  0.0950
  100MOL0     C13425   5.220  10.917   8.319  0.0639  0.2551 -0.0648
  100MOL0     C13426   5.141  10.785   8.302 -0.3577  0.3749  0.0796
  100MOL0     C13427   5.011  10.806   8.227  0.6806  0.6575  0.2958
  100MOL0     C13428   4.955  10.674   8.201  1.2829 -0.1998 -0.8510
  100MOL0     C13429   4.900  10.566   8.179  0.0346  0.2337  0.1205
  100MOL0     C13430   5.566  11.200   8.389 -0.2474  0.7103  1.3682
  100MOL0     C13431   5.699  11.236   8.376  0.5909 -0.0678 -0.6282
  100MOL0     C13432   5.728  11.384   8.332  0.0323  0.4310 -0.1787
  100MOL0     H13433   6.155  10.912   8.167  0.9628 -0.1103  0.4252
  100MOL0     H13434   6.400  10.901   8.137  3.3260  1.1309  0.9906
  100MOL0     H13435   6.637  11.275   8.217 -0.3059  0.2545 -0.6930
  100MOL0     H13436   6.753  11.159   8.149  1.4047  2.1254 -2.8156
  100MOL0     H13437   6.528  11.319   8.013 -0.7280 -2.0223 -0.5468
  100MOL0     H13438   6.642  11.216   7.920  2.2318 -1.4492  0.8825
  100MOL0     H13439   6.698  11.481   8.049 -0.3038 -0.5892 -0.3680
  100MOL0     H13440   6.719  11.421   7.881 -2.8578 -2.4851 -0.6520
  100MOL0     H13441   6.902  11.351   8.122  1.1471 -0.1409 -0.3406
  100MOL0     H13442   6.891  11.253   7.976 -0.5594  0.4529 -1.8510
  100MOL0     H13443   6.945  11.452   7.838  1.8087 -0.5947  0.7219
  100MOL0     H13444   6.963  11.550   7.984  0.3940  0.4870  0.6338
  100MOL0     H13445   7.169  11.395   8.043  1.9849  4.3197 -2.1555
  100MOL0     H13446   7.114  11.293   7.918 -1.7388 -0.1991  0.9162
  100MOL0     H13447   7.317  11.468   7.868 -0.2730  0.2856  0.4618
  100MOL0     H13448   7.189  11.585   7.869 -2.0702 -0.3560  0.0039
  100MOL0     H13449   7.243  11.377   7.655 -0.5116 -0.4231 -1.2001
  100MOL0     H13450   7.075  11.393   7.689 -0.4955  1.8875 -1.7100
  100MOL0     H13451   7.002  11.711   7.709  1.7586  1.2186  0.9174
  100MOL0     H13452   7.032  11.966   7.624 -1.3918 -0.4275 -1.1860
  100MOL0     H13453   7.163  11.988   7.515  1.6977  0.3748  3.2315
  100MOL0     H13454   7.039  11.943   7.322  0.9950  0.6034  1.1356
  100MOL0     H13455   6.939  11.822   7.400  0.7242  0.1304 -2.2693
  100MOL0     H13456   6.914  12.125   7.431  3.3429 -1.0611  0.1748
  100MOL0     H13457   6.809  12.015   7.523 -0.6783  3.6147  0.3810
  100MOL0     H13458   6.673  12.097   7.333 -3.3432 -2.3037 -2.0310
  100MOL0     H13459   6.697  11.933   7.294 -1.0937  0.5167  1.3250
  100MOL0     H13460   6.943  12.138   6.973 -0.3298 -3.4326  2.1273
  100MOL0     H13461   6.837  12.241   6.765 -1.1587  0.0824 -0.6995
  100MOL0     H13462   6.848  12.384   6.535 -0.3164 -2.0255  0.8028
  100MOL0     H13463   6.851  12.535   6.314  0.5057  1.0615  1.5114
  100MOL0     H13464   6.630  12.443   6.016 -3.1146  0.1083 -3.1091
  100MOL0     H13465   6.487  12.536   6.065  0.0488  2.0186  2.0470
  100MOL0     H13466   6.549  12.600   5.844  0.8561 -2.6199  0.6695
  100MOL0     H13467   6.595  12.737   5.961  2.6623  0.6806  0.9526
  100MOL0     H13468   6.800  12.532   5.916 -0.8577  0.7881  1.6214
  100MOL0     H13469   6.773  12.648   5.777  2.6180  1.5328  0.5725
  100MOL0     H13470   6.809  12.713   6.060  1.4824  1.4627  0.7526
  100MOL0     H13471   6.795  12.822   5.920 -0.6225 -0.0943  2.1972
  100MOL0     H13472   7.035  12.806   5.945 -0.0693  0.3605  0.4744
  100MOL0     H13473   6.997  12.678   5.828  3.2208 -0.4691  1.0151
  100MOL0     H13474   7.099  12.650   6.113  3.0806  0.5324 -0.4448
  100MOL0     H13475   6.977  12.543   6.053 -1.1741  2.5427  1.1965
  100MOL0     H13476   7.253  12.613   5.918  1.5626 -0.6121  2.3630
  100MOL0     H13477   7.127  12.490   5.861  0.2840  0.6117 -0.9191
  100MOL0     H13478   7.249  12.492   6.131 -5.7527  3.7039 -0.5398
  100MOL0     H13479   7.161  12.355   6.054 -0.6818 -0.1383 -0.5597
  100MOL0     H13480   6.449  12.398   6.247 -1.4108 -0.6860  0.6286
  100MOL0     H13481   6.453  12.239   6.436 -0.7113  0.6730  1.2657
  100MOL0     H13482   6.451  12.155   6.933 -0.2071  2.4101  1.1649
  100MOL0     H13483   6.548  12.080   7.136  1.6239  1.7956  0.9719
  100MOL0     H13484   6.404  11.314   8.244 -1.8182  0.8277 -1.0658
  100MOL0     H13485   6.194  11.312   8.309 -1.8882 -1.8915  1.5241
  100MOL0     H13486   5.843  10.923   8.388 -1.7198 -1.4126  1.3257
  100MOL0     H13487   5.618  10.855   8.386 -0.0399 -0.3106  0.3047
  100MOL0     H13488   5.385  10.820   8.439  0.9840  1.8268  1.9154
  100MOL0     H13489   5.401  10.865   8.271 -1.8688 -0.4611 -0.5925
  100MOL0     H13490   5.199  10.967   8.224 -5.1611  0.3122  0.8353
  100MOL0     H13491   5.173  10.980   8.395  4.4571  4.4713 -0.3432
  100MOL0     H13492   5.118  10.748   8.402  0.0881 -2.7223 -0.8483
  100MOL0     H13493   5.196  10.699   8.262  0.2800  1.6419 -1.9181
  100MOL0     H13494   4.949  10.873   8.288  2.6475  2.6210  0.2309
  100MOL0     H13495   5.032  10.855   8.132  2.4382  0.7736  0.7218
  100MOL0     H13496   4.855  10.470   8.159 -0.9109  0.3487  1.5594
  100MOL0     H13497   5.486  11.273   8.393 -1.7096 -0.7514  0.3995
  100MOL0     H13498   5.755  11.449   8.415 -1.8780  0.9267  0.0895
  100MOL0     H13499   5.805  11.390   8.254  2.1389  0.6696  1.8050
  100MOL0     H13500   5.637  11.425   8.287 -0.5332 -1.2013 -0.5994
  101MOL0     O13501   9.537   2.441   0.501 -0.1344  0.2555  0.2804
  101MOL0     C13502   9.502   2.510   0.405 -0.3824 -0.4026  0.2564
  101MOL0     O13503   9.582   2.584   0.318  0.0348 -0.0039 -0.3136
  101MOL0     C13504   9.703   2.625   0.362 -0.1296  0.4980 -0.2048
  101MOL0     C13505   9.808   2.635   0.272  0.6353 -0.6638  0.2723
  101MOL0     C13506   9.942   2.670   0.327  1.5004 -0.0578  0.4399
  101MOL0     C13507   9.959   2.719   0.461 -0.2377  0.5582  0.7831
  101MOL0     O13508  10.079   2.752   0.512  0.8812 -0.0945 -0.0795
  101MOL0     C13509  10.202   2.718   0.447 -0.4837 -0.3843 -0.0318
  101MOL0     C13510  10.316   2.753   0.543 -0.3558 -0.0496 -0.2198
  101MOL0     C13511  10.443   2.795   0.460 -0.0538  0.3634 -0.2132
  101MOL0     C13512  10.474   2.946   0.428 -0.2288 -0.0966  0.4392
  101MOL0     C13513  10.615   2.967   0.356 -0.6867 -0.4561  0.0026
  101MOL0     C13514  10.636   3.116   0.343  0.7879  0.0674  0.1465
  101MOL0     C13515  10.770   3.151   0.286 -0.0278 -0.1121  0.1803
  101MOL0     C13516  10.795   3.296   0.315  0.7339 -0.2151 -0.3716
  101MOL0     N13517  10.893   3.349   0.221 -0.3431  0.6345  0.4411
  101MOL0     C13518  11.019   3.300   0.219 -0.8984 -0.4650  0.5092
  101MOL0     C13519  11.071   3.343   0.101  0.1119  0.7408  0.1684
  101MOL0     C13520  11.209   3.311   0.057 -0.1099 -0.4141  0.8041
  101MOL0     C13521  11.249   3.396  -0.068  1.5537 -0.8610 -0.5733
  101MOL0     C13522  11.275   3.544  -0.027 -0.5340 -0.3346 -0.4455
  101MOL0     C13523  11.409   3.570   0.055  0.5651 -0.0384 -0.0248
  101MOL0     O13524  11.518   3.557  -0.036  0.3395 -0.2474 -0.2375
  101MOL0     C13525  11.647   3.534   0.006 -0.4422  0.7734 -0.1801
  101MOL0     C13526  11.730   3.471  -0.072 -0.2252  0.6541  0.4548
  101MOL0     C13527  11.862   3.442  -0.026  0.4375  0.1614  0.7882
  101MOL0     C13528  11.910   3.493   0.092 -0.2546 -0.0266  1.0818
  101MOL0     C13529  12.051   3.470   0.132  0.3136  0.6267  0.5445
  101MOL0     O13530  12.080   3.529   0.253  0.0505 -0.2901 -0.2894
  101MOL0     C13531  12.204   3.500   0.315  0.0617 -0.6365  0.1699
  101MOL0     C13532  12.234   3.369   0.343  0.5014  0.7900  0.4143
  101MOL0     C13533  12.351   3.337   0.413 -0.4653 -1.5776 -0.6693
  101MOL0     C13534  12.443   3.440   0.460  0.1078 -0.1811 -0.5256
  101MOL0     O13535  12.570   3.414   0.512  0.2797 -0.9210  1.1007
  101MOL0     C13536  12.678   3.464   0.427 -0.6253  0.3310 -0.0053
  101MOL0     C13537  12.830   3.472   0.486 -1.1024  0.9143  0.1581
  101MOL0     C13538  12.861   3.351   0.578  0.5306  0.0608 -0.0816
  101MOL0     C13539  13.000   3.331   0.625 -0.8987 -0.7942 -0.4507
  101MOL0     C13540  13.025   3.421   0.742  0.2547 -0.1260 -0.2301
  101MOL0     C13541  13.169   3.412   0.800 -0.0514  0.0589  0.8282
  101MOL0     C13542  13.182   3.454   0.954  0.1276  0.0653  0.5405
  101MOL0     C13543  13.325   3.432   1.008  0.7541  0.1209  0.3224
  101MOL0    Cl13544  13.345   3.259   1.041 -0.6421 -0.2594  0.4134
  101MOL0     C13545  12.397   3.578   0.435 -0.6020 -0.2404 -1.1492
  101MOL0     C13546  12.283   3.605   0.360  0.4667  0.6138 -0.2213
  101MOL0     O13547  12.112   3.371   0.089 -0.8029 -0.2852  0.2047
  101MOL0     C13548  11.821   3.562   0.168 -0.7770  0.7744  0.4401
  101MOL0     C13549  11.690   3.581   0.128 -0.0834  0.2043 -0.2011
  101MOL0     N13550  10.971   3.408   0.034 -0.7119  0.1879  0.3535
  101MOL0     N13551  10.870   3.424   0.108  0.0768  0.7291 -0.3052
  101MOL0     C13552   9.849   2.696   0.538 -0.2728 -0.1492 -0.1520
  101MOL0     C13553   9.728   2.656   0.495 -0.6350  0.2903 -0.0796
  101MOL0     C13554   9.364   2.500   0.359 -0.1679 -0.3488 -0.6054
  101MOL0     C13555   9.339   2.433   0.236  0.5259  1.0841  0.3745
  101MOL0     C13556   9.216   2.426   0.173  0.1258  0.1880  0.5436
  101MOL0     C13557   9.104   2.478   0.236  0.6501 -0.0606  0.5237
  101MOL0     O13558   8.982   2.460   0.175  0.6414 -0.2796  0.6743
  101MOL0     C13559   8.872   2.527   0.223 -0.1272 -0.2603  0.4638
  101MOL0     C13560   8.756   2.511   0.122  0.1058  0.1890 -0.0467
  101MOL0     C13561   8.642   2.614   0.142 -0.0725 -0.1432 -0.4090
  101MOL0     C13562   8.536   2.602   0.028  0.6076 -0.3764 -0.3363
  101MOL0     C13563   8.451   2.486   0.061 -0.2307  1.0400 -1.1496
  101MOL0     C13564   8.371   2.392   0.082  1.2549  0.0706 -0.3850
  101MOL0     C13565   9.118   2.530   0.371 -0.3714 -0.4236  0.2134
  101MOL0     C13566   9.252   2.553   0.422  0.4442 -1.3341 -0.4520
  101MOL0     C13567   9.272   2.623   0.551 -0.3626  0.6794 -0.5535
  101MOL0     H13568   9.799   2.614   0.166  1.5657 -0.3518  0.1167
  101MOL0     H13569  10.030   2.653   0.265 -0.1664  2.1414 -2.8577
  101MOL0     H13570  10.210   2.613   0.420 -3.5352 -1.1821  1.6684
  101MOL0     H13571  10.223   2.781   0.360  0.3316 -0.4248  0.1312
  101MOL0     H13572  10.341   2.662   0.598  1.1148  1.8494  2.4593
  101MOL0     H13573  10.281   2.812   0.628 -2.9426 -1.8721  0.1254
  101MOL0     H13574  10.446   2.750   0.361 -4.6812  3.8105 -2.3369
  101MOL0     H13575  10.524   2.753   0.521  1.1199 -0.2054 -2.0856
  101MOL0     H13576  10.389   2.977   0.367  1.2330  2.8377 -0.2803
  101MOL0     H13577  10.486   3.009   0.517  0.5762  1.0617 -0.4688
  101MOL0     H13578  10.701   2.918   0.402  0.7097 -0.9403 -2.8827
  101MOL0     H13579  10.611   2.920   0.257  0.3674 -0.6153  0.0251
  101MOL0     H13580  10.552   3.160   0.288  1.8586 -0.2151 -1.8189
  101MOL0     H13581  10.632   3.151   0.446  1.3802 -1.1481  0.5978
  101MOL0     H13582  10.772   3.143   0.177  2.8906  1.0038  0.0557
  101MOL0     H13583  10.849   3.088   0.327  2.5439  0.8815 -2.8318
  101MOL0     H13584  10.706   3.360   0.308  1.3747  0.6467 -0.8832
  101MOL0     H13585  10.836   3.305   0.416  2.8310  1.4167 -1.2837
  101MOL0     H13586  11.075   3.239   0.290  2.2218  0.5841 -0.8498
  101MOL0     H13587  11.280   3.329   0.138  2.8004 -0.7183 -1.5075
  101MOL0     H13588  11.212   3.206   0.026  2.5441 -0.3477  0.6685
  101MOL0     H13589  11.341   3.352  -0.109  0.2508 -1.8592 -2.6189
  101MOL0     H13590  11.171   3.397  -0.145  1.1470 -0.3772 -0.1595
  101MOL0     H13591  11.194   3.590   0.031  0.2534 -0.3208  0.6550
  101MOL0     H13592  11.285   3.600  -0.121  0.8479 -1.9282 -1.2886
  101MOL0     H13593  11.413   3.499   0.138  1.0226  2.2748  2.0232
  101MOL0     H13594  11.400   3.670   0.097  0.0919  0.2024 -0.6724
  101MOL0     H13595  11.699   3.427  -0.167 -0.9427  1.7958  0.1431
  101MOL0     H13596  11.929   3.396  -0.098 -2.1914 -0.0341 -1.7175
  101MOL0     H13597  12.174   3.283   0.314  0.8746  0.8705 -0.6676
  101MOL0     H13598  12.382   3.234   0.430 -2.1393 -1.7639  1.8657
  101MOL0     H13599  12.671   3.404   0.336  1.6912  3.2122 -2.2689
  101MOL0     H13600  12.660   3.569   0.401 -1.9166  0.0516 -0.3246
  101MOL0     H13601  12.883   3.472   0.390  2.4332 -1.3997  1.9192
  101MOL0     H13602  12.860   3.562   0.540  0.8661  0.1691  0.3987
  101MOL0     H13603  12.795   3.347   0.666 -0.1405  0.0190 -0.5776
  101MOL0     H13604  12.832   3.262   0.522  1.0568  0.0857 -0.3994
  101MOL0     H13605  13.069   3.358   0.544  0.7878 -2.2690  0.4221
  101MOL0     H13606  13.011   3.223   0.640  0.8811 -0.7115 -0.8705
  101MOL0     H13607  12.962   3.392   0.827  1.8975  2.9538  2.2804
  101MOL0     H13608  13.007   3.527   0.727  2.6204  0.2871 -0.5214
  101MOL0     H13609  13.202   3.309   0.783  0.4873  0.6465 -2.1804
  101MOL0     H13610  13.230   3.480   0.741  1.9983 -2.1856  0.1888
  101MOL0     H13611  13.108   3.400   1.013  3.5171 -3.7781  1.7037
  101MOL0     H13612  13.170   3.563   0.958  1.5860  0.2879 -0.2012
  101MOL0     H13613  13.395   3.465   0.930 -2.9070  0.9112 -2.9166
  101MOL0     H13614  13.327   3.495   1.098  1.7968 -1.2784  1.3246
  101MOL0     H13615  12.469   3.654   0.464  1.7166 -1.3134 -3.6047
  101MOL0     H13616  12.253   3.708   0.341 -1.4122  0.7593  2.8218
  101MOL0     H13617  11.859   3.602   0.261  1.1731  0.7406 -0.2970
  101MOL0     H13618  11.624   3.641   0.189 -0.2689  0.3978 -0.5878
  101MOL0     H13619   9.863   2.730   0.640 -0.5859  0.0179 -0.1649
  101MOL0     H13620   9.651   2.638   0.570 -0.9704  0.8283 -0.2919
  101MOL0     H13621   9.429   2.413   0.179 -1.3291  0.5106 -2.5515
  101MOL0     H13622   9.207   2.383   0.074  4.2454 -1.3035  0.6107
  101MOL0     H13623   8.901   2.632   0.219 -0.4812 -0.1604  0.4830
  101MOL0     H13624   8.844   2.491   0.322 -2.7940 -2.7240 -1.0103
  101MOL0     H13625   8.718   2.411   0.144 -1.0253  0.5300 -0.4019
  101MOL0     H13626   8.787   2.514   0.017 -0.8795 -0.2124 -0.3644
  101MOL0     H13627   8.691   2.712   0.151  1.1877 -0.8535  1.0592
  101MOL0     H13628   8.599   2.596   0.241 -1.2146  0.6757 -0.7433
  101MOL0     H13629   8.478   2.694   0.034  3.5952  1.8398 -2.3364
  101MOL0     H13630   8.573   2.591  -0.075  0.9568  3.1726 -0.7222
  101MOL0     H13631   8.318   2.302   0.103  0.4869 -0.0586 -2.6166
  101MOL0     H13632   9.030   2.566   0.424 -2.4534 -1.0738 -2.5458
  101MOL0     H13633   9.295   2.545   0.625  0.8973  0.1965 -1.4099
  101MOL0     H13634   9.353   2.696   0.553  1.5177 -1.3247  0.1211
  101MOL0     H13635   9.185   2.678   0.588 -1.8184 -1.4059 -0.6377
  102MOL0     O13636   0.061   8.593   8.438 -0.2274  0.2483 -1.0601
  102MOL0     C13637   0.029   8.606   8.320  0.5957  0.2695  0.8437
  102MOL0     O13638  -0.073   8.537   8.259 -0.3577  0.0212  0.0774
  102MOL0     C13639  -0.167   8.452   8.324 -0.3954 -0.4577  0.6906
  102MOL0     C13640  -0.242   8.371   8.238 -0.5900  0.0081 -0.5624
  102MOL0     C13641  -0.342   8.286   8.275 -0.9852  0.1311  1.6322
  102MOL0     C13642  -0.372   8.291   8.403  0.7591  0.3700  0.3991
  102MOL0     O13643  -0.468   8.207   8.454  0.3977  0.1005 -0.4491
  102MOL0     C13644  -0.451   8.067   8.428 -0.4120 -0.3528 -0.2496
  102MOL0     C13645  -0.519   7.976   8.534  0.9415 -0.3408  0.2274
  102MOL0     C13646  -0.532   7.824   8.507 -0.1709 -0.2427  0.0034
  102MOL0     C13647  -0.557   7.745   8.641 -0.6271  0.3323 -0.3765
  102MOL0     C13648  -0.513   7.597   8.632 -0.5832  1.2647  0.8612
  102MOL0     C13649  -0.511   7.530   8.768 -0.3189 -0.1369 -0.8373
  102MOL0     C13650  -0.638   7.571   8.855  0.7879 -0.0089 -0.0715
  102MOL0     C13651  -0.777   7.532   8.782  0.0957  0.7202  0.4815
  102MOL0     N13652  -0.846   7.424   8.860  1.4148 -0.4670  0.4224
  102MOL0     C13653  -0.836   7.386   8.992 -0.2483 -0.1826  0.6111
  102MOL0     C13654  -0.906   7.266   8.994 -0.1456  0.5507  0.1917
  102MOL0     C13655  -0.939   7.181   9.108  0.4043  0.2341  0.8712
  102MOL0     C13656  -1.078   7.169   9.154  0.3574  0.3045  0.3436
  102MOL0     C13657  -1.140   7.305   9.189  0.4019 -0.5286 -0.0916
  102MOL0     C13658  -1.199   7.387   9.074  0.1961  0.3042 -0.4796
  102MOL0     O13659  -1.278   7.496   9.120  0.4118 -0.7183  0.1343
  102MOL0     C13660  -1.364   7.551   9.038 -0.6235 -0.5867  0.2377
  102MOL0     C13661  -1.310   7.619   8.930 -0.1511 -0.2758  0.0449
  102MOL0     C13662  -1.389   7.670   8.829 -0.1355  0.5186 -0.5133
  102MOL0     C13663  -1.523   7.656   8.833  0.3081  0.2445 -0.4393
  102MOL0     C13664  -1.611   7.709   8.732 -0.1175  0.2676  0.3134
  102MOL0     O13665  -1.541   7.757   8.608  0.9027  0.4472 -0.0363
  102MOL0     C13666  -1.627   7.794   8.494 -0.3160  0.6680 -0.3009
  102MOL0     C13667  -1.580   7.759   8.363  0.0662  0.4928  0.0123
  102MOL0     C13668  -1.657   7.797   8.252  0.3857 -0.3708  0.1101
  102MOL0     C13669  -1.779   7.873   8.261 -0.4178 -0.3951 -1.0379
  102MOL0     O13670  -1.856   7.925   8.161 -0.7549  0.9288 -0.2295
  102MOL0     C13671  -1.861   7.855   8.034 -0.6576 -0.7292 -0.2715
  102MOL0     C13672  -1.954   7.927   7.932 -0.8660 -0.6150 -0.4115
  102MOL0     C13673  -2.099   7.918   7.972 -0.9252  0.6287 -0.3398
  102MOL0     C13674  -2.153   7.775   7.967 -0.3831  0.6371 -0.2198
  102MOL0     C13675  -2.295   7.785   8.018  0.7275 -0.3978 -0.1307
  102MOL0     C13676  -2.357   7.647   8.022  1.2042 -0.0677 -0.9035
  102MOL0     C13677  -2.509   7.676   8.047 -1.0246  0.5569  0.1736
  102MOL0     C13678  -2.594   7.566   7.983  0.5904  0.6172 -0.5397
  102MOL0    Cl13679  -2.570   7.554   7.807  0.4861  0.3167 -0.3352
  102MOL0     C13680  -1.827   7.908   8.388 -0.5253  1.1213 -0.5254
  102MOL0     C13681  -1.747   7.866   8.502 -0.2148 -1.1288 -0.0593
  102MOL0     O13682  -1.732   7.698   8.745 -0.4226  0.1506 -0.4812
  102MOL0     C13683  -1.579   7.582   8.943  0.7932 -0.7011  0.2640
  102MOL0     C13684  -1.498   7.534   9.048 -0.0804  0.0195 -0.6419
  102MOL0     N13685  -0.947   7.237   8.866 -0.7071 -0.6705  0.0319
  102MOL0     N13686  -0.899   7.326   8.789 -0.8387  0.1940  0.1771
  102MOL0     C13687  -0.306   8.372   8.490 -0.6736  0.0464 -0.2592
  102MOL0     C13688  -0.204   8.458   8.454  0.5677 -0.1089 -0.1893
  102MOL0     C13689   0.129   8.682   8.234 -0.0161  0.0595  1.2239
  102MOL0     C13690   0.221   8.753   8.299  0.9843 -0.2462 -0.1178
  102MOL0     C13691   0.321   8.827   8.237 -0.7899 -0.1498 -0.3319
  102MOL0     C13692   0.345   8.819   8.095 -0.6334 -1.1328 -0.6929
  102MOL0     O13693   0.457   8.869   8.032 -0.3283  0.4542 -0.2678
  102MOL0     C13694   0.442   9.002   7.984  0.0178  0.0323 -0.6779
  102MOL0     C13695   0.520   9.038   7.857  0.6164  0.2428 -0.3320
  102MOL0     C13696   0.670   9.014   7.856  0.0300  0.0517 -0.8983
  102MOL0     C13697   0.737   9.126   7.780  0.2502  0.1948 -0.5646
  102MOL0     C13698   0.706   9.109   7.636  0.0100 -0.1214  0.0992
  102MOL0     C13699   0.689   9.105   7.511 -0.0623 -0.2723 -0.1252
  102MOL0     C13700   0.256   8.734   8.031  0.0731 -0.3872  0.5326
  102MOL0     C13701   0.148   8.672   8.091  1.2222  0.1545 -0.0454
  102MOL0     C13702   0.052   8.581   8.011 -0.7299  0.6941 -0.9396
  102MOL0     H13703  -0.197   8.377   8.139 -1.6164  0.0931 -1.0374
  102MOL0     H13704  -0.397   8.227   8.202  1.2032 -0.5100  0.4129
  102MOL0     H13705  -0.484   8.037   8.328  1.4053  0.3150 -1.0910
  102MOL0     H13706  -0.344   8.046   8.430 -0.9270 -3.4738 -0.7299
  102MOL0     H13707  -0.624   8.002   8.545  1.1570  0.3478  0.7287
  102MOL0     H13708  -0.471   7.989   8.632 -0.1550  1.7592  0.5352
  102MOL0     H13709  -0.442   7.793   8.454  0.6084  1.0560  0.5075
  102MOL0     H13710  -0.613   7.797   8.438 -0.2657 -1.7946  0.6930
  102MOL0     H13711  -0.508   7.797   8.724 -2.0411 -0.4981  1.0251
  102MOL0     H13712  -0.664   7.761   8.657 -0.0410  3.3746  1.3478
  102MOL0     H13713  -0.579   7.535   8.571  0.8956 -1.3130  1.7140
  102MOL0     H13714  -0.415   7.580   8.585 -1.7360 -0.7771 -1.0317
  102MOL0     H13715  -0.514   7.421   8.756 -1.1505 -0.1558 -0.5352
  102MOL0     H13716  -0.420   7.550   8.825 -0.3677 -4.5636  1.2016
  102MOL0     H13717  -0.645   7.675   8.888 -4.2389  0.1053 -0.6889
  102MOL0     H13718  -0.621   7.517   8.948 -0.9927  1.9967  1.5150
  102MOL0     H13719  -0.835   7.625   8.776 -0.9625  0.1941  2.0361
  102MOL0     H13720  -0.757   7.501   8.679 -0.4208  1.2060  0.2288
  102MOL0     H13721  -0.784   7.448   9.065 -2.7431  3.8906 -0.7402
  102MOL0     H13722  -0.906   7.078   9.095  4.2281  1.5329 -1.5264
  102MOL0     H13723  -0.882   7.213   9.196 -0.5294  1.0564  1.1926
  102MOL0     H13724  -1.135   7.115   9.078  1.3285 -0.3294  0.0450
  102MOL0     H13725  -1.091   7.114   9.248 -2.5095  0.7494  0.3089
  102MOL0     H13726  -1.065   7.372   9.232 -0.4117  1.1353 -1.1716
  102MOL0     H13727  -1.211   7.292   9.271 -1.1459  0.8481 -1.1624
  102MOL0     H13728  -1.246   7.317   9.005 -1.0736  2.3936 -1.8591
  102MOL0     H13729  -1.116   7.420   9.011  1.5563 -2.6280 -0.3637
  102MOL0     H13730  -1.203   7.640   8.925 -0.4332  3.0592  3.3168
  102MOL0     H13731  -1.346   7.718   8.741 -0.9906 -2.1815 -2.5232
  102MOL0     H13732  -1.485   7.706   8.355  1.2743  2.3926  0.9869
  102MOL0     H13733  -1.612   7.778   8.156 -2.5067  0.0761 -1.4479
  102MOL0     H13734  -1.761   7.860   7.989 -1.2837 -0.7408 -1.7121
  102MOL0     H13735  -1.884   7.749   8.044 -3.9680 -0.2719 -1.8358
  102MOL0     H13736  -1.928   8.031   7.912  0.7190 -1.0145 -0.5797
  102MOL0     H13737  -1.936   7.881   7.834  2.5706  2.1807 -1.2846
  102MOL0     H13738  -2.103   7.952   8.076  3.4177  2.4424 -0.5379
  102MOL0     H13739  -2.159   7.986   7.911  0.5824  2.4837  0.1404
  102MOL0     H13740  -2.089   7.709   8.025  0.0288  0.1953 -1.1504
  102MOL0     H13741  -2.145   7.741   7.863  0.0885  0.6884 -0.2024
  102MOL0     H13742  -2.356   7.853   7.958 -1.4102 -2.7070 -0.7878
  102MOL0     H13743  -2.280   7.814   8.122 -0.9058 -0.0751  0.0469
  102MOL0     H13744  -2.348   7.609   7.920  0.1103 -0.2761 -0.9269
  102MOL0     H13745  -2.302   7.579   8.088  1.7476  0.0493 -1.2277
  102MOL0     H13746  -2.545   7.769   8.001 -0.7239  1.0534  0.9189
  102MOL0     H13747  -2.526   7.682   8.155 -0.3333 -0.7970  0.3789
  102MOL0     H13748  -2.568   7.468   8.025  3.1035  0.1475 -2.9134
  102MOL0     H13749  -2.700   7.586   8.000  0.7115  0.6909  0.1756
  102MOL0     H13750  -1.911   7.975   8.402  0.5111  2.4854 -0.7335
  102MOL0     H13751  -1.791   7.894   8.597  2.4194  0.3209  0.8281
  102MOL0     H13752  -1.686   7.569   8.952  0.0893  1.7387 -2.8510
  102MOL0     H13753  -1.537   7.469   9.126  2.0775 -0.0870  0.4126
  102MOL0     H13754  -0.340   8.374   8.593 -1.2411 -3.6782 -0.2296
  102MOL0     H13755  -0.176   8.532   8.527 -1.5638 -2.6276  3.4977
  102MOL0     H13756   0.220   8.774   8.406  2.5136  0.2784 -0.1803
  102MOL0     H13757   0.407   8.861   8.293  0.1917 -0.1354 -1.7812
  102MOL0     H13758   0.466   9.070   8.067  3.4663 -1.3449 -0.3453
  102MOL0     H13759   0.341   9.029   7.952 -0.7099 -1.4750  0.2618
  102MOL0     H13760   0.504   9.146   7.863  0.9259  0.2955 -0.4243
  102MOL0     H13761   0.480   9.004   7.761  1.4492  1.0092 -0.9689
  102MOL0     H13762   0.685   8.915   7.812 -1.3605  0.0228 -1.3616
  102MOL0     H13763   0.701   9.002   7.960 -0.3969  0.9638 -0.6577
  102MOL0     H13764   0.697   9.222   7.814 -0.8345  0.7037 -3.0443
  102MOL0     H13765   0.846   9.130   7.794 -0.1113  1.3203  2.7570
  102MOL0     H13766   0.700   9.105   7.404  3.7320 -3.1046  0.0244
  102MOL0     H13767   0.281   8.711   7.928  0.4754  4.5848 -0.7118
  102MOL0     H13768   0.094   8.557   7.912 -0.7830  2.6891 -1.4834
  102MOL0     H13769   0.042   8.480   8.052 -1.6198  1.3206  0.4388
  102MOL0     H13770  -0.047   8.626   8.003 -0.3137  1.3270 -3.5212
  103MOL0     O13771   9.363   3.145  11.268  0.1067 -1.4122 -0.3210
  103MOL0     C13772   9.418   3.184  11.370  0.2882 -0.2284  0.0997
  103MOL0     O13773   9.554   3.195  11.385  0.6947  0.4827  0.1398
  103MOL0     C13774   9.631   3.117  11.293 -0.3060  0.3179  0.4566
  103MOL0     C13775   9.584   2.984  11.263  0.7048  0.0878 -0.5037
  103MOL0     C13776   9.637   2.914  11.154  0.0062 -0.3398 -0.4164
  103MOL0     C13777   9.744   2.963  11.085 -0.0002 -0.1492  0.4106
  103MOL0     O13778   9.798   2.895  10.984 -0.5485 -0.1474  0.1706
  103MOL0     C13779   9.936   2.873  10.991 -0.5225  0.4456 -0.2769
  103MOL0     C13780   9.994   2.906  10.853 -0.2656 -0.6605  0.2795
  103MOL0     C13781  10.128   2.843  10.853 -0.4978 -0.2684 -0.4260
  103MOL0     C13782  10.207   2.846  10.717  0.6877 -0.1995  0.3818
  103MOL0     C13783  10.334   2.754  10.704 -0.5284  0.4806  0.4746
  103MOL0     C13784  10.290   2.605  10.713 -0.1080 -0.3467 -0.1861
  103MOL0     C13785  10.200   2.561  10.593  0.1045 -0.5405 -0.4276
  103MOL0     C13786  10.178   2.414  10.604 -0.0597  0.1857 -0.8369
  103MOL0     N13787  10.103   2.358  10.493 -0.1962 -0.2012 -0.3982
  103MOL0     C13788  10.172   2.334  10.380  0.5705  0.1605 -0.0552
  103MOL0     C13789  10.074   2.282  10.299  0.2347  0.3947 -0.0680
  103MOL0     C13790  10.098   2.242  10.152  0.9577  1.2863 -0.0744
  103MOL0     C13791   9.970   2.246  10.063  1.2035  0.0566  0.3970
  103MOL0     C13792   9.942   2.378   9.992 -0.2933  0.5646  0.9159
  103MOL0     C13793   9.929   2.501  10.083  0.1619  0.5199  0.9137
  103MOL0     O13794  10.057   2.547  10.134  0.2307 -0.4690  0.4791
  103MOL0     C13795  10.070   2.673  10.183  0.2662  0.0905 -0.4761
  103MOL0     C13796  10.190   2.703  10.247 -0.1710 -0.4520  0.6609
  103MOL0     C13797  10.218   2.825  10.311  0.3903 -0.1700  0.6432
  103MOL0     C13798  10.115   2.917  10.333  0.9425 -0.1239 -0.6884
  103MOL0     C13799  10.133   3.041  10.414  0.3327  0.1296 -0.0092
  103MOL0     O13800  10.262   3.073  10.459 -0.2022  0.3730 -0.6120
  103MOL0     C13801  10.290   3.182  10.530 -0.4104 -0.3662  0.9643
  103MOL0     C13802  10.418   3.240  10.507  0.2974 -0.1323  0.1226
  103MOL0     C13803  10.471   3.343  10.585 -0.6757 -0.0232 -0.1942
  103MOL0     C13804  10.380   3.407  10.679 -0.3480  1.1206  0.5068
  103MOL0     O13805  10.412   3.518  10.750 -0.5222  0.1286 -0.9681
  103MOL0     C13806  10.480   3.621  10.687 -1.0117  0.4972 -0.1533
  103MOL0     C13807  10.625   3.640  10.740  0.1029 -0.5417  0.0969
  103MOL0     C13808  10.720   3.717  10.639  0.0052  0.8580 -1.2901
  103MOL0     C13809  10.712   3.869  10.626  0.2147  0.3096  0.7248
  103MOL0     C13810  10.807   3.903  10.512  0.7120  0.0415 -0.3796
  103MOL0     C13811  10.956   3.917  10.560  0.3880 -0.0316  0.7522
  103MOL0     C13812  11.028   3.971  10.435  0.4113  0.5914 -0.2654
  103MOL0     C13813  11.186   3.947  10.436  0.7621  0.2829 -0.9245
  103MOL0    Cl13814  11.266   3.971  10.282 -0.0227  0.1360  0.3325
  103MOL0     C13815  10.255   3.355  10.699 -1.0375  0.4841  0.8367
  103MOL0     C13816  10.214   3.246  10.626  0.1983  0.6730 -0.3833
  103MOL0     O13817  10.039   3.114  10.420  0.1180 -0.0703  0.4426
  103MOL0     C13818   9.990   2.887  10.279  0.6732 -0.2728  0.5194
  103MOL0     C13819   9.960   2.767  10.209  0.1447  0.8649 -0.2458
  103MOL0     N13820   9.954   2.281  10.371  0.9979 -0.1879  0.5149
  103MOL0     N13821   9.969   2.338  10.490 -0.2249 -0.0461 -0.0603
  103MOL0     C13822   9.796   3.089  11.119 -0.0647  0.2567  0.0309
  103MOL0     C13823   9.742   3.168  11.223  0.2835  0.1303  0.9470
  103MOL0     C13824   9.323   3.241  11.472 -0.0418  0.7616 -0.0036
  103MOL0     C13825   9.181   3.222  11.458 -0.6419  0.3652 -0.2262
  103MOL0     C13826   9.091   3.293  11.546  0.4369  0.5436  0.2515
  103MOL0     C13827   9.131   3.365  11.652 -0.3953  0.3372 -0.5236
  103MOL0     O13828   9.036   3.437  11.727 -0.6200  0.0284 -0.2388
  103MOL0     C13829   9.063   3.471  11.864  0.6540  0.1236  0.3389
  103MOL0     C13830   8.953   3.428  11.962  0.2378 -0.0715 -0.3997
  103MOL0     C13831   8.927   3.273  11.962  0.3815  0.9336  0.9399
  103MOL0     C13832   8.817   3.226  12.064  0.0900  0.5127  0.1876
  103MOL0     C13833   8.680   3.260  12.029 -0.2321 -0.4637  0.6348
  103MOL0     C13834   8.568   3.299  12.013  0.3313  0.9573  0.8430
  103MOL0     C13835   9.273   3.363  11.675  0.3118 -0.3218  0.8131
  103MOL0     C13836   9.368   3.313  11.590 -0.2778  0.2930 -0.4692
  103MOL0     C13837   9.514   3.349  11.618 -0.6004 -0.1486 -0.1770
  103MOL0     H13838   9.497   2.945  11.316  0.5933  1.3109  0.2693
  103MOL0     H13839   9.597   2.815  11.133 -1.7206  0.0973  0.6104
  103MOL0     H13840   9.990   2.917  11.075 -1.0246  0.5594 -0.0051
  103MOL0     H13841   9.939   2.766  11.010  0.5964  0.7827  1.6634
  103MOL0     H13842   9.994   3.015  10.840  1.3271 -0.8491 -1.9205
  103MOL0     H13843   9.936   2.854  10.777 -0.9968 -1.1420  1.1603
  103MOL0     H13844  10.119   2.743  10.896 -0.1764 -0.0929  0.0640
  103MOL0     H13845  10.201   2.884  10.924  0.6029 -1.9634 -0.5155
  103MOL0     H13846  10.139   2.821  10.635 -0.2291  0.4886  0.9111
  103MOL0     H13847  10.246   2.948  10.703  0.5248  0.3547  3.4318
  103MOL0     H13848  10.399   2.781  10.620  2.3267 -0.0755  2.3680
  103MOL0     H13849  10.401   2.772  10.788 -1.5947  1.7208  1.1034
  103MOL0     H13850  10.373   2.536  10.698  0.5784  0.6110 -0.9072
  103MOL0     H13851  10.253   2.572  10.811 -1.3438 -1.5712 -1.0259
  103MOL0     H13852  10.243   2.586  10.495  2.9933  0.0242  0.8608
  103MOL0     H13853  10.113   2.626  10.600 -0.8404 -1.8347  0.0437
  103MOL0     H13854  10.269   2.353  10.611 -0.7993 -0.7297  2.9622
  103MOL0     H13855  10.138   2.385  10.701  5.8462 -0.6386  1.8124
  103MOL0     H13856  10.276   2.355  10.358  0.2771  1.5461 -0.1927
  103MOL0     H13857  10.181   2.296  10.104  1.1619  0.8257 -0.2418
  103MOL0     H13858  10.126   2.137  10.158 -1.1283  0.5705 -1.6992
  103MOL0     H13859   9.986   2.172   9.984  2.5952 -2.8786  3.1814
  103MOL0     H13860   9.882   2.209  10.116  2.4926 -2.8860  0.7438
  103MOL0     H13861   9.846   2.378   9.941  0.7292 -1.3715 -1.1589
  103MOL0     H13862  10.024   2.381   9.920  0.4476 -3.4949  1.3555
  103MOL0     H13863   9.845   2.478  10.149 -2.0837  1.0863 -1.5784
  103MOL0     H13864   9.890   2.588  10.030 -1.4759 -0.0552  1.1228
  103MOL0     H13865  10.266   2.626  10.244  1.4622  1.0887  0.1891
  103MOL0     H13866  10.315   2.839  10.359  1.4684 -2.1921 -0.7850
  103MOL0     H13867  10.477   3.203  10.424  1.8928  0.2213  1.0736
  103MOL0     H13868  10.575   3.373  10.576 -0.5458 -0.7821 -1.2979
  103MOL0     H13869  10.479   3.610  10.578 -0.8521  0.9101 -0.2004
  103MOL0     H13870  10.418   3.709  10.707 -3.0219 -0.2553 -2.4692
  103MOL0     H13871  10.604   3.698  10.831 -2.4832  2.0563 -1.9860
  103MOL0     H13872  10.661   3.543  10.777 -2.8805 -2.0626 -0.6084
  103MOL0     H13873  10.822   3.708  10.677 -0.1399  0.7693 -0.9072
  103MOL0     H13874  10.695   3.678  10.540 -2.9530  1.8212 -1.0322
  103MOL0     H13875  10.745   3.913  10.720  4.8945  1.4377 -1.1605
  103MOL0     H13876  10.608   3.889  10.599 -0.1305 -1.3577  0.6833
  103MOL0     H13877  10.785   4.006  10.484 -0.6054  1.3256  4.4527
  103MOL0     H13878  10.795   3.844  10.421 -1.3813  0.5446 -0.4707
  103MOL0     H13879  10.968   3.970  10.656 -0.0966 -0.8098  1.2506
  103MOL0     H13880  10.982   3.814  10.584 -2.1913 -0.6725  1.0610
  103MOL0     H13881  11.005   4.075  10.412  2.0938  0.3396 -3.8744
  103MOL0     H13882  11.003   3.917  10.343  0.7472  3.8917 -2.4685
  103MOL0     H13883  11.222   4.012  10.516 -2.8739 -0.2694  1.3776
  103MOL0     H13884  11.204   3.843  10.464 -1.6422  0.4336  1.6411
  103MOL0     H13885  10.195   3.400  10.778 -0.8203 -1.1441  1.9760
  103MOL0     H13886  10.115   3.205  10.642  0.6126 -1.5088 -2.8035
  103MOL0     H13887   9.903   2.950  10.299  0.6173 -0.7255  1.8433
  103MOL0     H13888   9.866   2.733  10.169 -0.1135 -0.3825  1.3296
  103MOL0     H13889   9.885   3.126  11.069  1.8209  0.2556  3.0669
  103MOL0     H13890   9.783   3.260  11.263  0.4977  0.7997 -0.7467
  103MOL0     H13891   9.143   3.164  11.375  2.7737  1.4801 -2.8028
  103MOL0     H13892   8.984   3.287  11.528  0.3967  3.7333 -1.1597
  103MOL0     H13893   9.077   3.580  11.868  2.9071 -0.0725 -0.5996
  103MOL0     H13894   9.150   3.414  11.897  0.2810 -0.8054 -0.2421
  103MOL0     H13895   8.861   3.479  11.933 -0.8530 -0.7332  1.6925
  103MOL0     H13896   8.988   3.468  12.057 -1.3574 -1.6164  0.9042
  103MOL0     H13897   9.024   3.223  11.974 -0.2861 -0.5210  0.5985
  103MOL0     H13898   8.894   3.251  11.859  4.5677  3.0205 -1.0693
  103MOL0     H13899   8.827   3.117  12.066  1.8820  0.6452  0.5167
  103MOL0     H13900   8.861   3.247  12.162  3.3788  0.3476 -1.1143
  103MOL0     H13901   8.470   3.341  12.004  0.0864  0.4063  0.8713
  103MOL0     H13902   9.312   3.435  11.746 -2.5539  2.7907 -0.4819
  103MOL0     H13903   9.583   3.268  11.591  1.0755  1.1127  0.1114
  103MOL0     H13904   9.547   3.441  11.569  1.7534 -1.3473 -1.0002
  103MOL0     H13905   9.527   3.359  11.726  1.1773  2.0243 -0.5138
  104MOL0     O13906  10.551   7.508   9.525 -0.1727 -0.4906 -0.3290
  104MOL0     C13907  10.448   7.526   9.467  0.2145  0.6078 -0.5457
  104MOL0     O13908  10.435   7.605   9.361  0.1138  0.4315 -0.5479
  104MOL0     C13909  10.539   7.652   9.292 -0.1478  0.4433 -0.3894
  104MOL0     C13910  10.531   7.650   9.158  0.4042  0.4469  0.9120
  104MOL0     C13911  10.620   7.727   9.080 -0.4638  0.7261 -0.3275
  104MOL0     C13912  10.713   7.809   9.133 -0.3449  0.1900 -0.8415
  104MOL0     O13913  10.796   7.873   9.048 -0.4555 -0.0390  0.1568
  104MOL0     C13914  10.879   7.984   9.078  0.5017 -1.0022 -0.1274
  104MOL0     C13915  11.021   7.946   9.127  0.9119  0.0781 -0.7446
  104MOL0     C13916  11.095   7.851   9.034  0.6142  0.2455  0.5944
  104MOL0     C13917  11.142   7.940   8.913  0.5399  1.0095  0.5096
  104MOL0     C13918  11.239   7.855   8.825  0.1684 -0.5199  0.0541
  104MOL0     C13919  11.296   7.926   8.698  0.4810  0.2044 -0.1236
  104MOL0     C13920  11.378   7.827   8.615  0.3354  0.3998  0.5280
  104MOL0     C13921  11.484   7.742   8.684  0.4706  0.4125 -0.5685
  104MOL0     N13922  11.588   7.835   8.728 -0.2187  0.1801  0.0402
  104MOL0     C13923  11.671   7.898   8.645  0.7055  0.9794  0.1936
  104MOL0     C13924  11.757   7.968   8.722 -0.2188  0.0261 -0.0792
  104MOL0     C13925  11.881   8.029   8.681  0.2760 -0.5807 -0.7200
  104MOL0     C13926  11.856   8.164   8.601  0.3080 -0.1843 -0.4950
  104MOL0     C13927  11.848   8.288   8.692  0.2811  0.3195  0.4604
  104MOL0     C13928  11.983   8.311   8.754  0.0402  0.5653 -0.4576
  104MOL0     O13929  12.092   8.306   8.665 -0.2106  0.0090 -0.2690
  104MOL0     C13930  12.210   8.361   8.707 -0.1581  0.1648 -0.0057
  104MOL0     C13931  12.285   8.429   8.617 -0.0559 -0.6801  0.2612
  104MOL0     C13932  12.415   8.483   8.642  0.5790  0.7012  0.1787
  104MOL0     C13933  12.473   8.466   8.764 -0.2781  0.3631 -0.1105
  104MOL0     C13934  12.612   8.518   8.785 -0.2628 -0.2515 -0.9915
  104MOL0     O13935  12.698   8.532   8.683 -0.3542 -0.3017  0.4171
  104MOL0     C13936  12.831   8.571   8.697  0.1612  0.5937  0.2745
  104MOL0     C13937  12.861   8.704   8.729 -0.5498 -0.2868 -0.1429
  104MOL0     C13938  12.991   8.735   8.756  0.2983 -0.5565 -0.4662
  104MOL0     C13939  13.097   8.640   8.771  0.6824 -0.0604 -0.0633
  104MOL0     O13940  13.218   8.672   8.819  0.3503 -0.3271 -0.5857
  104MOL0     C13941  13.268   8.809   8.792 -0.7099 -0.1909  0.4514
  104MOL0     C13942  13.415   8.796   8.829  0.5096  0.5406  0.1210
  104MOL0     C13943  13.502   8.896   8.764  0.1826  0.4239  0.1917
  104MOL0     C13944  13.488   9.037   8.823 -0.9687 -0.5852 -0.4336
  104MOL0     C13945  13.575   9.133   8.741  0.1067  0.3603  0.2591
  104MOL0     C13946  13.575   9.283   8.772 -0.2394 -0.6086 -0.1341
  104MOL0     C13947  13.683   9.350   8.696 -0.4780 -0.7362  0.2525
  104MOL0     C13948  13.647   9.397   8.547  0.7472  0.1002  1.5663
  104MOL0    Cl13949  13.645   9.258   8.433  0.4396  0.0408 -0.4046
  104MOL0     C13950  13.065   8.505   8.737 -0.5892  0.3788 -0.1130
  104MOL0     C13951  12.937   8.479   8.699  0.2987 -0.3679  1.3367
  104MOL0     O13952  12.640   8.533   8.907  0.8786 -0.2927  0.0206
  104MOL0     C13953  12.395   8.395   8.858  0.4439  0.0727 -0.5867
  104MOL0     C13954  12.268   8.345   8.835  0.9693 -0.0680 -0.4210
  104MOL0     N13955  11.733   7.932   8.856  0.9176 -0.0891 -0.0120
  104MOL0     N13956  11.639   7.849   8.858 -0.1383 -0.5667 -0.7128
  104MOL0     C13957  10.730   7.811   9.272  0.3634  0.7166  0.0038
  104MOL0     C13958  10.637   7.736   9.352 -0.3086 -0.4068 -0.1187
  104MOL0     C13959  10.319   7.453   9.510 -0.0614 -0.1478 -0.2019
  104MOL0     C13960  10.195   7.504   9.459  0.4593 -0.3423 -0.2736
  104MOL0     C13961  10.069   7.427   9.474  0.7079 -0.3660 -0.1794
  104MOL0     C13962  10.062   7.307   9.538  1.0395 -0.6690  0.5905
  104MOL0     O13963   9.944   7.243   9.557 -0.4511 -0.1887 -0.3752
  104MOL0     C13964   9.892   7.249   9.696 -1.0968  1.2140  0.0472
  104MOL0     C13965   9.743   7.234   9.698  0.6567  0.3260  0.0634
  104MOL0     C13966   9.701   7.088   9.654  0.0185  0.3325 -0.8668
  104MOL0     C13967   9.545   7.083   9.652  0.7778 -0.1073 -0.3140
  104MOL0     C13968   9.488   7.113   9.789  0.4032  0.6748  0.0050
  104MOL0     C13969   9.449   7.145   9.899 -0.1984 -0.3035 -0.4381
  104MOL0     C13970  10.184   7.260   9.601  0.6495  0.1899  0.3491
  104MOL0     C13971  10.314   7.319   9.573 -1.0942 -0.0426 -0.2526
  104MOL0     C13972  10.432   7.235   9.625  1.0284 -0.6647  0.1010
  104MOL0     H13973  10.452   7.597   9.107  1.0949 -0.2052  0.4981
  104MOL0     H13974  10.609   7.731   8.972  3.3206 -0.8845 -0.9158
  104MOL0     H13975  10.873   8.055   8.996 -1.5356 -0.0682  0.7616
  104MOL0     H13976  10.838   8.029   9.169  1.9715 -2.5345  1.3841
  104MOL0     H13977  11.000   7.892   9.219  3.7986  2.4694  1.5123
  104MOL0     H13978  11.065   8.044   9.149 -1.7612  1.5554 -1.4678
  104MOL0     H13979  11.030   7.774   8.989 -0.2441  2.1121 -1.5892
  104MOL0     H13980  11.167   7.797   9.095 -0.3894  0.9776  2.4970
  104MOL0     H13981  11.057   7.966   8.850  0.4884 -1.2745 -0.4748
  104MOL0     H13982  11.188   8.022   8.968 -2.0148  1.6531  1.8379
  104MOL0     H13983  11.330   7.824   8.877  0.1085  2.5285  2.2161
  104MOL0     H13984  11.187   7.766   8.788  3.7457 -2.5378 -0.5605
  104MOL0     H13985  11.210   7.961   8.641 -0.4967 -1.1730  0.4525
  104MOL0     H13986  11.355   8.013   8.729 -0.7290  2.2193 -3.0141
  104MOL0     H13987  11.428   7.883   8.536 -2.4118  1.5503 -0.5337
  104MOL0     H13988  11.307   7.767   8.556  0.7705  1.1720 -0.8139
  104MOL0     H13989  11.439   7.687   8.767  0.3887  0.4900 -0.5618
  104MOL0     H13990  11.522   7.667   8.614 -3.3519 -3.7641  1.3447
  104MOL0     H13991  11.661   7.900   8.537  1.2395 -4.3401 -0.1969
  104MOL0     H13992  11.941   8.063   8.766 -0.0275  1.9963 -1.4499
  104MOL0     H13993  11.942   7.956   8.627 -0.0191 -3.4260  2.4161
  104MOL0     H13994  11.924   8.181   8.517  0.2646 -1.2739 -0.7726
  104MOL0     H13995  11.762   8.145   8.548 -0.6147 -0.1485  1.0694
  104MOL0     H13996  11.774   8.274   8.771 -0.7880 -0.1305 -0.5968
  104MOL0     H13997  11.831   8.380   8.636  1.8692 -0.2027 -0.9965
  104MOL0     H13998  12.006   8.233   8.826 -0.0837  1.3128  0.4028
  104MOL0     H13999  11.982   8.409   8.803  0.8373 -1.0894  3.2028
  104MOL0     H14000  12.243   8.428   8.516 -0.2274  1.3896  0.2764
  104MOL0     H14001  12.461   8.531   8.556  1.8129  1.6848  1.3357
  104MOL0     H14002  12.787   8.783   8.718  0.3517  0.4470 -1.1816
  104MOL0     H14003  13.006   8.840   8.777 -1.8308  0.0652 -1.7733
  104MOL0     H14004  13.255   8.837   8.687  0.8900 -1.7561 -0.2114
  104MOL0     H14005  13.211   8.878   8.855  0.8791  0.2362  1.4885
  104MOL0     H14006  13.421   8.801   8.938 -3.2074 -0.4564  0.4935
  104MOL0     H14007  13.448   8.696   8.800  1.2129  0.2485  1.7975
  104MOL0     H14008  13.604   8.864   8.786  0.0794 -0.0803 -0.0415
  104MOL0     H14009  13.507   8.894   8.655  2.0450  1.3558  0.2307
  104MOL0     H14010  13.522   9.029   8.927  1.0725 -0.8499 -1.0719
  104MOL0     H14011  13.380   9.057   8.821 -0.9885 -0.1146  2.0096
  104MOL0     H14012  13.559   9.124   8.633  3.3773 -0.7667 -0.2421
  104MOL0     H14013  13.675   9.102   8.771  0.0865  0.3879  0.3544
  104MOL0     H14014  13.474   9.323   8.755 -0.0333  0.2122  0.4787
  104MOL0     H14015  13.574   9.298   8.881 -3.0155 -0.1807 -0.1340
  104MOL0     H14016  13.777   9.293   8.695 -1.4102 -2.4827  2.1479
  104MOL0     H14017  13.707   9.444   8.747 -1.2129 -0.1235 -0.5163
  104MOL0     H14018  13.551   9.449   8.544 -0.0376 -1.3256 -0.0728
  104MOL0     H14019  13.715   9.473   8.507 -0.1304  0.8382  1.4252
  104MOL0     H14020  13.132   8.420   8.738 -2.6541 -1.3491 -0.4056
  104MOL0     H14021  12.897   8.381   8.675 -2.4082  1.1479 -0.9296
  104MOL0     H14022  12.431   8.371   8.957  2.3176  2.0752 -0.7016
  104MOL0     H14023  12.221   8.277   8.906 -2.4199  1.1087 -1.3359
  104MOL0     H14024  10.806   7.870   9.321 -1.6001  2.2071  1.4127
  104MOL0     H14025  10.632   7.748   9.460  2.3827 -0.7082  0.1037
  104MOL0     H14026  10.201   7.594   9.399  0.7161 -0.1036  0.1036
  104MOL0     H14027   9.986   7.470   9.418 -1.2532 -1.2583  1.8950
  104MOL0     H14028   9.911   7.341   9.752 -0.2798  0.2001  1.5000
  104MOL0     H14029   9.924   7.158   9.748 -0.8797 -0.5453 -2.9561
  104MOL0     H14030   9.697   7.309   9.633 -1.6036 -1.3080 -0.3434
  104MOL0     H14031   9.719   7.246   9.804  1.2978 -2.8926  0.6856
  104MOL0     H14032   9.733   7.017   9.732 -1.3669  0.5915 -0.0323
  104MOL0     H14033   9.707   7.056   9.550 -0.8830  1.9401 -1.4356
  104MOL0     H14034   9.500   7.155   9.582  0.8816  1.1107  0.8298
  104MOL0     H14035   9.525   6.982   9.614  0.3399  0.2264 -1.0011
  104MOL0     H14036   9.399   7.163   9.992  2.1110  0.6796  0.6956
  104MOL0     H14037  10.171   7.166   9.653 -1.1799 -0.0903 -0.5174
  104MOL0     H14038  10.388   7.174   9.704  2.1579 -0.5923  0.8010
  104MOL0     H14039  10.476   7.171   9.548  1.2035 -0.5755  0.1271
  104MOL0     H14040  10.505   7.293   9.682 -1.7153  0.5439  2.6613
  105MOL0     O14041   9.394   3.854   5.731 -0.3584  0.2565  0.0420
  105MOL0     C14042   9.409   3.878   5.613  1.4178 -0.5875 -0.2820
  105MOL0     O14043   9.468   3.797   5.524  0.0634  0.5637 -0.8770
  105MOL0     C14044   9.567   3.705   5.551 -0.6818  0.0231  0.0067
  105MOL0     C14045   9.645   3.697   5.665 -0.0899  0.6248 -0.5505
  105MOL0     C14046   9.722   3.581   5.702  0.0447 -0.6307 -0.4906
  105MOL0     C14047   9.743   3.485   5.605  0.5705 -0.6201  0.8168
  105MOL0     O14048   9.828   3.383   5.627  0.0839  0.3089 -0.6492
  105MOL0     C14049   9.894   3.308   5.524 -0.8524  0.2823 -0.1358
  105MOL0     C14050   9.993   3.402   5.448 -0.8082  0.8887 -0.6751
  105MOL0     C14051  10.133   3.431   5.520  1.2542 -0.2744 -0.1843
  105MOL0     C14052  10.111   3.532   5.637  0.9372 -0.4911 -0.7901
  105MOL0     C14053  10.215   3.639   5.652  0.3155  0.5820  0.4987
  105MOL0     C14054  10.213   3.708   5.793  0.1214  0.0024 -0.6423
  105MOL0     C14055  10.127   3.832   5.802  0.1060  0.6527 -0.3560
  105MOL0     C14056   9.978   3.782   5.828  0.1212 -0.2049 -0.0054
  105MOL0     N14057   9.918   3.895   5.894  0.0770  0.1774  0.2029
  105MOL0     C14058   9.818   3.967   5.838 -0.1181  0.1320 -0.8194
  105MOL0     C14059   9.752   4.036   5.940 -1.1663  0.1412 -0.3966
  105MOL0     C14060   9.623   4.118   5.947 -0.2190 -0.1301 -0.4502
  105MOL0     C14061   9.508   4.040   6.007 -0.3331  0.0084  0.8144
  105MOL0     C14062   9.401   4.145   6.042 -0.8467  0.2182  1.1370
  105MOL0     C14063   9.281   4.066   6.074 -0.0988 -0.7998 -0.7981
  105MOL0     O14064   9.184   4.161   6.097  0.3396  0.5741  0.0490
  105MOL0     C14065   9.062   4.122   6.133  0.3886  1.3463  0.2774
  105MOL0     C14066   8.987   4.021   6.070 -0.5680  0.2137  0.0037
  105MOL0     C14067   8.872   3.966   6.126  0.2513 -0.0128  1.0428
  105MOL0     C14068   8.817   4.021   6.237 -0.2427  0.6868 -0.0013
  105MOL0     C14069   8.699   3.974   6.302  1.0514  0.8781  0.6346
  105MOL0     O14070   8.706   3.962   6.438  0.6139 -0.1521 -0.6265
  105MOL0     C14071   8.586   3.956   6.501  0.0088  0.3702  0.4224
  105MOL0     C14072   8.563   3.867   6.607  0.0174  0.5287  0.2014
  105MOL0     C14073   8.435   3.853   6.679  0.7066 -0.3377  0.0569
  105MOL0     C14074   8.334   3.946   6.634 -0.1483  0.2894 -0.5087
  105MOL0     O14075   8.208   3.957   6.689 -0.1865 -0.3911  0.2228
  105MOL0     C14076   8.152   3.854   6.767 -0.4300 -1.2926  0.4404
  105MOL0     C14077   8.015   3.909   6.810 -0.4838  0.1587  0.5799
  105MOL0     C14078   7.922   3.930   6.690  0.4974 -0.6902 -0.0656
  105MOL0     C14079   7.773   3.951   6.733 -0.2076  0.4814 -0.4598
  105MOL0     C14080   7.674   3.936   6.614 -0.9046  0.0231 -0.1939
  105MOL0     C14081   7.534   3.956   6.655 -0.2248  0.1747  0.2470
  105MOL0     C14082   7.435   3.986   6.546 -0.6563  0.4110 -0.2488
  105MOL0     C14083   7.295   3.997   6.613 -0.7899 -0.8257 -0.1225
  105MOL0    Cl14084   7.185   4.111   6.517 -0.0343  0.5737  0.2787
  105MOL0     C14085   8.363   4.038   6.535  0.6451 -0.7183  0.0128
  105MOL0     C14086   8.483   4.041   6.468  0.4890 -0.2632 -0.7296
  105MOL0     O14087   8.598   3.946   6.228 -0.4500 -0.1855  0.3858
  105MOL0     C14088   8.883   4.135   6.292 -0.3017 -0.0345 -0.0671
  105MOL0     C14089   9.003   4.180   6.243 -0.6543 -0.5377  0.2944
  105MOL0     N14090   9.827   4.007   6.054  0.4458 -0.4230 -0.7030
  105MOL0     N14091   9.934   3.927   6.030 -0.4286 -0.0336  0.6066
  105MOL0     C14092   9.671   3.493   5.486 -0.1522 -0.0426 -0.2877
  105MOL0     C14093   9.584   3.606   5.449 -1.5061  0.3174 -0.6178
  105MOL0     C14094   9.338   3.993   5.560 -0.3479 -0.2579  0.4811
  105MOL0     C14095   9.348   4.107   5.635 -0.7113 -0.9958 -0.4077
  105MOL0     C14096   9.272   4.221   5.600  0.0368 -0.3698 -0.3829
  105MOL0     C14097   9.191   4.226   5.491  0.6564 -0.6160 -0.2542
  105MOL0     O14098   9.104   4.333   5.474  0.2496 -0.3833 -0.2310
  105MOL0     C14099   9.001   4.336   5.374 -0.1938 -0.0392  0.1367
  105MOL0     C14100   8.889   4.437   5.403  0.8508  0.3838  0.0148
  105MOL0     C14101   8.938   4.580   5.416 -0.3133  0.4769 -0.1468
  105MOL0     C14102   8.829   4.685   5.452 -0.0092 -1.0715 -1.1040
  105MOL0     C14103   8.783   4.659   5.584 -0.2842  0.3388  0.5931
  105MOL0     C14104   8.737   4.608   5.683  0.3230 -0.0548 -0.3468
  105MOL0     C14105   9.190   4.118   5.405  0.0885 -0.3975 -0.2598
  105MOL0     C14106   9.255   4.000   5.444  0.9124 -0.1686 -0.7529
  105MOL0     C14107   9.237   3.885   5.343  0.0074  0.7077 -0.0919
  105MOL0     H14108   9.637   3.771   5.744 -0.6358  1.4604 -1.3595
  105MOL0     H14109   9.768   3.563   5.799 -3.5525 -0.1154  1.5139
  105MOL0     H14110   9.940   3.227   5.582  0.2116 -0.3799 -1.8069
  105MOL0     H14111   9.829   3.249   5.459 -0.7842 -1.5859  1.3996
  105MOL0     H14112   9.949   3.494   5.409  0.3316  0.9848 -1.8145
  105MOL0     H14113  10.030   3.347   5.361  3.7283 -1.0059  2.0751
  105MOL0     H14114  10.198   3.479   5.446  1.5792  1.9267  1.4362
  105MOL0     H14115  10.181   3.338   5.554  0.1191 -0.6286  0.5088
  105MOL0     H14116  10.017   3.586   5.646  0.5545 -1.4658  2.4381
  105MOL0     H14117  10.101   3.470   5.727 -3.2401  1.4086  0.2866
  105MOL0     H14118  10.310   3.594   5.623  0.8341  0.9218  1.6164
  105MOL0     H14119  10.205   3.714   5.572  2.1123 -0.5935 -0.9136
  105MOL0     H14120  10.178   3.631   5.863  1.9823  1.2830  1.8393
  105MOL0     H14121  10.316   3.721   5.826  1.1479 -4.4840 -1.4001
  105MOL0     H14122  10.126   3.895   5.712  0.7701  0.0526 -0.7948
  105MOL0     H14123  10.162   3.895   5.884  2.1841  1.2146 -1.5982
  105MOL0     H14124   9.923   3.760   5.736 -1.1072  1.3307  0.3082
  105MOL0     H14125   9.969   3.692   5.889 -0.5957 -0.0352  0.1479
  105MOL0     H14126   9.794   3.948   5.734  0.5014 -1.8218 -0.6564
  105MOL0     H14127   9.653   4.199   6.015  2.5469  0.0909 -1.7895
  105MOL0     H14128   9.595   4.152   5.847  0.4515 -0.6469 -0.8247
  105MOL0     H14129   9.464   3.976   5.930 -0.1438  2.5639 -1.5340
  105MOL0     H14130   9.530   3.980   6.096 -0.2929 -1.0970  0.0780
  105MOL0     H14131   9.380   4.218   5.963  0.9275 -1.5756 -1.1520
  105MOL0     H14132   9.425   4.206   6.129 -0.3489  0.6270  0.7232
  105MOL0     H14133   9.304   4.015   6.168  0.9940  1.3684  0.2041
  105MOL0     H14134   9.245   4.003   5.993 -1.8588  0.9934 -1.4880
  105MOL0     H14135   9.027   3.977   5.979 -1.8237  0.4006 -0.6480
  105MOL0     H14136   8.814   3.891   6.075 -1.2550  1.6908  0.1272
  105MOL0     H14137   8.645   3.806   6.644  2.6541  2.1940 -2.4345
  105MOL0     H14138   8.431   3.774   6.753  2.0350 -0.4185  0.0565
  105MOL0     H14139   8.126   3.759   6.720 -2.7567 -0.9564  0.9591
  105MOL0     H14140   8.208   3.838   6.859 -1.8417  2.3959  2.1429
  105MOL0     H14141   7.967   3.836   6.874 -2.2034  1.2529  0.5914
  105MOL0     H14142   8.033   3.998   6.872  2.6896  0.4025 -0.5058
  105MOL0     H14143   7.948   4.008   6.619 -0.3126 -1.0860 -0.8128
  105MOL0     H14144   7.930   3.839   6.630 -0.6028 -0.5275 -0.4626
  105MOL0     H14145   7.751   4.047   6.781 -0.2734 -0.2137  0.9452
  105MOL0     H14146   7.744   3.876   6.808  0.6997  3.1991  2.8619
  105MOL0     H14147   7.694   3.845   6.556  0.9179  1.3262 -1.7523
  105MOL0     H14148   7.702   4.020   6.549  1.9870  1.2056  2.3481
  105MOL0     H14149   7.504   3.872   6.717 -0.0137 -0.2182 -0.1782
  105MOL0     H14150   7.536   4.047   6.716  2.3534  2.1985 -2.5121
  105MOL0     H14151   7.444   3.906   6.472  2.2210  2.5664 -2.4954
  105MOL0     H14152   7.461   4.077   6.491 -0.8372 -0.2679 -1.5143
  105MOL0     H14153   7.247   3.899   6.608 -4.1305  0.4482  2.9004
  105MOL0     H14154   7.301   4.046   6.711  0.9750  1.0890 -1.0887
  105MOL0     H14155   8.288   4.112   6.509 -0.6104 -0.4151  3.8568
  105MOL0     H14156   8.495   4.126   6.401 -2.1948  0.6224 -0.2016
  105MOL0     H14157   8.852   4.188   6.382 -0.1841  1.6978 -0.9949
  105MOL0     H14158   9.046   4.269   6.288  1.5400 -1.4810  0.2049
  105MOL0     H14159   9.662   3.408   5.419  0.8033 -0.9812  0.7434
  105MOL0     H14160   9.515   3.597   5.366 -4.4619 -2.5401  1.8752
  105MOL0     H14161   9.414   4.105   5.720 -2.5559 -1.8480  1.0719
  105MOL0     H14162   9.274   4.308   5.666 -0.5468 -2.0886  2.0256
  105MOL0     H14163   8.952   4.240   5.362  0.0981 -0.0971 -0.6484
  105MOL0     H14164   9.053   4.365   5.282  0.8883 -1.9143  0.1134
  105MOL0     H14165   8.825   4.412   5.489  0.4773  0.4901 -0.2308
  105MOL0     H14166   8.825   4.431   5.315 -0.1130  1.1777  0.6290
  105MOL0     H14167   8.982   4.620   5.325  3.0071  2.0224  1.9559
  105MOL0     H14168   9.021   4.581   5.487  3.6762 -0.7082 -4.3360
  105MOL0     H14169   8.876   4.784   5.461 -0.8936 -0.7227 -0.1799
  105MOL0     H14170   8.742   4.679   5.387 -2.6123 -4.0606  2.2679
  105MOL0     H14171   8.720   4.562   5.778  0.2725  5.2021  2.5522
  105MOL0     H14172   9.129   4.109   5.315 -0.0242 -1.9107 -0.0549
  105MOL0     H14173   9.313   3.899   5.265  1.5134  4.4993  1.7905
  105MOL0     H14174   9.267   3.795   5.397  0.6001 -1.5987 -3.9012
  105MOL0     H14175   9.133   3.872   5.314 -1.2898 -2.2359  4.7979
  106MOL0     O14176   4.116   0.737  10.575 -0.2028 -0.0525  0.7090
  106MOL0     C14177   4.069   0.671  10.673 -0.1553 -0.1085  0.0289
  106MOL0     O14178   4.137   0.613  10.774  0.0690 -0.6914 -0.0069
  106MOL0     C14179   4.264   0.650  10.794  0.3769 -0.0173  0.2597
  106MOL0     C14180   4.307   0.782  10.808  0.2337  0.3685 -0.4182
  106MOL0     C14181   4.438   0.824  10.824  0.0174  0.0918  0.6844
  106MOL0     C14182   4.536   0.725  10.836  0.1777  0.4221 -0.6118
  106MOL0     O14183   4.673   0.752  10.854 -0.0248  0.1497  0.2669
  106MOL0     C14184   4.724   0.887  10.891 -0.0834  0.1536 -0.2246
  106MOL0     C14185   4.880   0.877  10.877 -0.8370  0.5580  0.4772
  106MOL0     C14186   4.944   0.773  10.979  0.9452 -0.7995  0.8114
  106MOL0     C14187   5.093   0.821  10.998 -0.9240 -0.6438  0.0804
  106MOL0     C14188   5.149   0.745  11.123  0.7960  0.6401  0.1239
  106MOL0     C14189   5.286   0.699  11.074  0.1178  0.0769  0.0843
  106MOL0     C14190   5.382   0.647  11.189  1.2854 -0.4503  0.5211
  106MOL0     C14191   5.369   0.499  11.225  0.2020 -0.6176 -0.0861
  106MOL0     N14192   5.497   0.457  11.294 -0.5251 -0.4862 -0.2573
  106MOL0     C14193   5.568   0.525  11.401  0.9699  0.3183 -0.5581
  106MOL0     C14194   5.666   0.444  11.428 -0.2145  0.6799 -0.0572
  106MOL0     C14195   5.775   0.458  11.533  0.0019  1.5131 -0.0301
  106MOL0     C14196   5.737   0.422  11.677 -0.6599 -1.0849 -0.3339
  106MOL0     C14197   5.851   0.461  11.776 -0.7144  0.8818 -0.4342
  106MOL0     C14198   5.977   0.366  11.784  0.2554  0.1524  0.4126
  106MOL0     O14199   5.928   0.223  11.776 -0.0617 -0.4765 -0.5246
  106MOL0     C14200   6.026   0.126  11.780  0.5101 -0.0790  0.2521
  106MOL0     C14201   6.015   0.012  11.698 -0.3746  0.0444  0.4158
  106MOL0     C14202   6.114  -0.083  11.697  0.0953  1.0160 -0.1921
  106MOL0     C14203   6.232  -0.067  11.776 -0.8435  0.4065  0.0433
  106MOL0     C14204   6.336  -0.171  11.747 -0.2007 -0.3859 -0.1643
  106MOL0     O14205   6.290  -0.296  11.699 -0.2389 -1.2890  1.3044
  106MOL0     C14206   6.384  -0.378  11.653  0.3310 -0.2630 -0.1721
  106MOL0     C14207   6.441  -0.474  11.738 -0.2749 -0.4286 -0.9510
  106MOL0     C14208   6.559  -0.543  11.695  0.4424  0.3587 -0.4069
  106MOL0     C14209   6.613  -0.516  11.566  0.8395  0.3950 -0.2863
  106MOL0     O14210   6.721  -0.580  11.518 -0.5135 -0.1032  0.0160
  106MOL0     C14211   6.714  -0.719  11.547 -0.2593 -0.4385 -0.7480
  106MOL0     C14212   6.817  -0.800  11.451 -0.0754  0.5520  0.7004
  106MOL0     C14213   6.817  -0.943  11.476 -0.3845  0.6048  0.7525
  106MOL0     C14214   6.888  -0.996  11.600 -0.7551  0.5858  0.1740
  106MOL0     C14215   6.882  -1.157  11.609  0.3869  0.5313 -0.6796
  106MOL0     C14216   6.996  -1.206  11.701  0.0156 -0.4606 -0.3491
  106MOL0     C14217   6.973  -1.354  11.745  0.3742  0.8347 -0.7810
  106MOL0     C14218   7.087  -1.411  11.839  0.4287 -0.0405  0.1926
  106MOL0    Cl14219   7.035  -1.532  11.946 -0.2532  0.3824 -0.0625
  106MOL0     C14220   6.545  -0.434  11.482  0.0428 -0.1680 -0.8058
  106MOL0     C14221   6.436  -0.357  11.526  0.5182 -0.8851  0.1121
  106MOL0     O14222   6.456  -0.139  11.769 -0.1738 -0.9226 -0.0151
  106MOL0     C14223   6.240   0.038  11.862 -0.5051  0.0532 -0.5603
  106MOL0     C14224   6.130   0.129  11.875 -0.2912  0.0072 -0.4076
  106MOL0     N14225   5.671   0.338  11.336  0.5881  0.0915 -1.2790
  106MOL0     N14226   5.557   0.345  11.274 -1.1947  0.3120  0.0758
  106MOL0     C14227   4.501   0.588  10.837 -0.6511  0.0724 -0.1036
  106MOL0     C14228   4.360   0.549  10.817  0.3196 -0.5871 -0.1889
  106MOL0     C14229   3.924   0.663  10.680  0.1595  0.0925  0.7697
  106MOL0     C14230   3.848   0.586  10.581 -0.0045  0.3716  0.3224
  106MOL0     C14231   3.708   0.582  10.592 -0.7966 -0.4432 -0.1982
  106MOL0     C14232   3.642   0.644  10.701  1.0680  0.7702 -0.7787
  106MOL0     O14233   3.509   0.642  10.735 -0.2542  0.2058  0.0229
  106MOL0     C14234   3.418   0.637  10.622  1.1507 -0.2202  0.0674
  106MOL0     C14235   3.272   0.687  10.650 -0.4546 -0.0508  0.6850
  106MOL0     C14236   3.196   0.690  10.519  0.0381  0.1503  0.0047
  106MOL0     C14237   3.244   0.817  10.428 -0.1247 -0.2209  0.0823
  106MOL0     C14238   3.255   0.781  10.294  0.5738 -0.1785 -0.2318
  106MOL0     C14239   3.238   0.760  10.176  0.1930 -0.5938  0.2832
  106MOL0     C14240   3.720   0.710  10.792 -0.6209  0.1899 -0.9898
  106MOL0     C14241   3.861   0.723  10.784 -0.4766  0.6502 -0.2144
  106MOL0     C14242   3.941   0.795  10.892 -0.6363 -1.2620 -1.0580
  106MOL0     H14243   4.235   0.863  10.811 -1.3119 -0.9820  1.3570
  106MOL0     H14244   4.469   0.927  10.816  1.9158 -0.3260  2.0205
  106MOL0     H14245   4.687   0.960  10.819  0.3838  3.1353  2.3488
  106MOL0     H14246   4.693   0.920  10.990 -0.2622  1.2268 -0.6278
  106MOL0     H14247   4.916   0.979  10.885  1.6614 -0.0470 -1.7219
  106MOL0     H14248   4.904   0.847  10.774 -4.3918 -2.7823  0.3677
  106MOL0     H14249   4.931   0.668  10.951 -0.4596 -0.4759  0.2203
  106MOL0     H14250   4.894   0.796  11.074  0.9888 -1.5127  1.0119
  106MOL0     H14251   5.155   0.809  10.908  0.8859  0.7535  1.0753
  106MOL0     H14252   5.113   0.927  11.016  0.1114 -0.3039 -2.6139
  106MOL0     H14253   5.152   0.809  11.211 -0.0548  2.8473 -1.3622
  106MOL0     H14254   5.087   0.662  11.158  2.2600 -0.6541 -0.2177
  106MOL0     H14255   5.275   0.622  10.996 -0.6396  0.5851 -0.3358
  106MOL0     H14256   5.356   0.779  11.049  1.7526 -0.7583  1.7843
  106MOL0     H14257   5.360   0.708  11.277 -0.5650  0.5429 -0.5652
  106MOL0     H14258   5.483   0.660  11.151  0.5121  0.0307 -1.5177
  106MOL0     H14259   5.290   0.481  11.298  1.3389  2.2302  2.0882
  106MOL0     H14260   5.352   0.442  11.134  1.5501  1.3823 -1.6945
  106MOL0     H14261   5.538   0.617  11.450 -0.6784 -0.8167  0.6857
  106MOL0     H14262   5.859   0.396  11.500 -0.1527  0.7677  0.9338
  106MOL0     H14263   5.800   0.565  11.536  1.3223  1.1990  2.1506
  106MOL0     H14264   5.648   0.481  11.700 -0.1217 -0.8786  1.3359
  106MOL0     H14265   5.699   0.320  11.691 -2.4789 -0.4862 -0.6631
  106MOL0     H14266   5.804   0.472  11.874 -2.2854 -2.7306 -0.6490
  106MOL0     H14267   5.897   0.555  11.744  1.2985  0.8003  1.9060
  106MOL0     H14268   6.034   0.389  11.875 -0.1324 -1.6135  1.1366
  106MOL0     H14269   6.041   0.392  11.699  0.4537 -0.2634  0.4344
  106MOL0     H14270   5.941  -0.007  11.621 -0.7493 -1.8006  1.1828
  106MOL0     H14271   6.106  -0.166  11.628 -1.5331  0.8435  0.1686
  106MOL0     H14272   6.406  -0.491  11.839  1.0983 -0.5074 -0.4616
  106MOL0     H14273   6.593  -0.630  11.750  1.8172  1.2076  0.1395
  106MOL0     H14274   6.735  -0.745  11.651 -2.6846 -2.7006 -0.7140
  106MOL0     H14275   6.609  -0.745  11.528 -0.6427  0.9300 -0.6506
  106MOL0     H14276   6.785  -0.772  11.350  3.2597  1.1927 -0.3231
  106MOL0     H14277   6.919  -0.763  11.464 -0.2628  0.8077  1.4944
  106MOL0     H14278   6.715  -0.982  11.488 -0.0983 -0.7609 -0.8390
  106MOL0     H14279   6.865  -0.996  11.393  0.7022  1.7824  0.6136
  106MOL0     H14280   6.859  -0.951  11.696 -1.2878  1.5917 -0.4347
  106MOL0     H14281   6.995  -0.979  11.585 -0.2442 -0.9485  1.7650
  106MOL0     H14282   6.889  -1.206  11.512 -5.0213 -0.1191 -1.0612
  106MOL0     H14283   6.787  -1.184  11.656  2.0866 -1.9863  1.6145
  106MOL0     H14284   7.086  -1.184  11.643  0.0505 -0.1413 -0.1765
  106MOL0     H14285   7.014  -1.159  11.798  2.8004 -3.0789  0.5736
  106MOL0     H14286   6.970  -1.410  11.651 -0.4419  1.0293 -0.8771
  106MOL0     H14287   6.882  -1.362  11.806  0.5224  2.1497 -0.3512
  106MOL0     H14288   7.168  -1.444  11.774  0.1371  0.0944 -0.2458
  106MOL0     H14289   7.120  -1.336  11.911 -4.0051  2.6866 -0.2616
  106MOL0     H14290   6.589  -0.420  11.384 -0.9338  1.9159 -1.0027
  106MOL0     H14291   6.400  -0.277  11.463  0.3815  1.8660  3.3847
  106MOL0     H14292   6.333   0.044  11.918 -0.4571  0.6938 -0.6934
  106MOL0     H14293   6.134   0.205  11.953 -0.4361 -0.2500 -0.1465
  106MOL0     H14294   4.578   0.512  10.851 -1.9872 -0.9231  2.8245
  106MOL0     H14295   4.308   0.453  10.816 -3.7871  1.2794  3.5868
  106MOL0     H14296   3.904   0.538  10.502  2.4828 -1.4666  3.0032
  106MOL0     H14297   3.648   0.526  10.521 -0.8847  1.0291 -1.3346
  106MOL0     H14298   3.415   0.535  10.584 -2.8601 -0.2022  0.0003
  106MOL0     H14299   3.465   0.696  10.543  2.8839  0.6418  1.6442
  106MOL0     H14300   3.279   0.780  10.706 -1.1591  0.7417 -0.4941
  106MOL0     H14301   3.232   0.605  10.711 -0.1861 -2.5326 -2.1837
  106MOL0     H14302   3.090   0.710  10.538  0.2005  3.6772 -2.0830
  106MOL0     H14303   3.206   0.594  10.467  0.6535  0.7099 -0.9431
  106MOL0     H14304   3.168   0.896  10.426 -0.3650 -0.3015 -4.1226
  106MOL0     H14305   3.337   0.853  10.471  0.0958  1.2743 -1.5350
  106MOL0     H14306   3.238   0.755  10.069  1.6786 -1.3742  0.2980
  106MOL0     H14307   3.669   0.765  10.871 -1.0652 -1.3945 -0.1152
  106MOL0     H14308   3.997   0.868  10.833 -2.6875  0.2345 -1.2257
  106MOL0     H14309   3.875   0.833  10.970  0.6015 -0.2766 -0.4447
  106MOL0     H14310   4.003   0.732  10.957 -2.1869 -0.8496  0.9022
  107MOL0     O14311   2.229   5.631  10.266  0.8185  0.2145 -0.3757
  107MOL0     C14312   2.343   5.629  10.220 -0.7431  0.4126  0.7104
  107MOL0     O14313   2.421   5.511  10.207 -0.0881  0.5404 -0.1889
  107MOL0     C14314   2.365   5.392  10.241 -0.0024  1.8190 -0.4527
  107MOL0     C14315   2.327   5.296  10.141  0.5352  0.3067 -0.3971
  107MOL0     C14316   2.272   5.174  10.182  0.7299 -0.0710 -0.5825
  107MOL0     C14317   2.253   5.147  10.323 -0.2705  0.1638  0.7841
  107MOL0     O14318   2.174   5.049  10.368 -0.7943  0.3998 -0.2348
  107MOL0     C14319   2.221   4.925  10.327 -0.2170 -0.6045  0.6994
  107MOL0     C14320   2.115   4.815  10.372  0.2559 -0.5749  1.0208
  107MOL0     C14321   2.143   4.792  10.523  0.4462 -0.0301  1.3481
  107MOL0     C14322   2.253   4.677  10.531 -1.2366 -0.2198 -0.0814
  107MOL0     C14323   2.312   4.688  10.675 -0.6499  1.4360  0.5750
  107MOL0     C14324   2.378   4.557  10.713 -1.0509 -0.0330 -0.4205
  107MOL0     C14325   2.281   4.445  10.746  0.4549 -0.2828 -0.0230
  107MOL0     C14326   2.190   4.476  10.858  0.6451  0.6226 -0.1265
  107MOL0     N14327   2.104   4.366  10.901  0.5326  0.2060 -0.0134
  107MOL0     C14328   1.994   4.313  10.831  0.0904 -1.0824 -0.1990
  107MOL0     C14329   1.946   4.213  10.913 -0.2053 -0.0009  0.1104
  107MOL0     C14330   1.819   4.142  10.877  0.7959 -0.1537 -0.0800
  107MOL0     C14331   1.717   4.176  10.988 -0.5361 -0.2007  0.2329
  107MOL0     C14332   1.674   4.333  10.985 -0.0490  0.0242  0.8325
  107MOL0     C14333   1.622   4.386  10.851  0.3425 -0.2700 -0.6952
  107MOL0     O14334   1.552   4.282  10.785 -0.2959 -0.0277 -0.4194
  107MOL0     C14335   1.421   4.257  10.822 -0.6325  0.2168 -0.2750
  107MOL0     C14336   1.337   4.344  10.889  0.3218  0.4517 -0.6092
  107MOL0     C14337   1.205   4.295  10.922 -0.0891 -0.6290 -0.4837
  107MOL0     C14338   1.170   4.161  10.906 -0.3234  0.5402  0.4258
  107MOL0     C14339   1.025   4.123  10.929  0.3019 -0.6691  0.6604
  107MOL0     O14340   0.985   3.993  10.912 -0.2816 -0.6747 -0.3526
  107MOL0     C14341   0.851   3.969  10.911  1.0286 -0.7659 -0.0995
  107MOL0     C14342   0.776   3.993  10.800  0.1933  0.5168  0.2235
  107MOL0     C14343   0.637   3.961  10.811 -0.6458  0.7816  0.0997
  107MOL0     C14344   0.580   3.904  10.932  0.1081  0.0316 -0.0736
  107MOL0     O14345   0.437   3.881  10.947 -0.7728 -0.7424  0.6442
  107MOL0     C14346   0.364   3.844  10.829 -0.3557 -0.0485 -0.8400
  107MOL0     C14347   0.374   3.692  10.825  0.8344 -0.1720  0.3986
  107MOL0     C14348   0.299   3.635  10.943  0.3609 -0.8916 -0.3308
  107MOL0     C14349   0.263   3.487  10.921  0.6717 -0.1182 -0.2067
  107MOL0     C14350   0.390   3.395  10.912 -0.1124 -0.2915  0.2941
  107MOL0     C14351   0.467   3.390  11.048  0.1936 -0.1458 -0.1901
  107MOL0     C14352   0.598   3.315  11.043  0.0335 -0.3425  0.1536
  107MOL0     C14353   0.674   3.287  11.173 -0.1650 -0.8059  0.5184
  107MOL0    Cl14354   0.607   3.140  11.250  0.1996  0.6755  0.2915
  107MOL0     C14355   0.669   3.890  11.039  0.1882 -0.3634  0.5308
  107MOL0     C14356   0.795   3.930  11.031  0.2843  0.6003  0.0011
  107MOL0     O14357   0.949   4.222  10.939 -0.2491  0.4311 -0.7112
  107MOL0     C14358   1.257   4.078  10.834 -0.3816 -0.0325 -0.6588
  107MOL0     C14359   1.382   4.124  10.790 -0.8836 -0.9376  0.1797
  107MOL0     N14360   2.025   4.204  11.027 -0.2189 -0.5986 -0.1762
  107MOL0     N14361   2.117   4.295  11.017  0.0210  0.4252  0.4170
  107MOL0     C14362   2.289   5.252  10.414  0.0221  0.6284  0.0422
  107MOL0     C14363   2.362   5.361  10.374 -1.1310  0.1602  0.1799
  107MOL0     C14364   2.415   5.747  10.176  0.0844 -0.6383  0.0535
  107MOL0     C14365   2.522   5.732  10.081 -0.2221 -0.5034 -0.1142
  107MOL0     C14366   2.581   5.846  10.029 -0.6159 -0.2655  0.6414
  107MOL0     C14367   2.553   5.973  10.083 -1.1571 -0.4783  0.3588
  107MOL0     O14368   2.604   6.092  10.034  0.2582 -0.5825  0.1126
  107MOL0     C14369   2.729   6.098   9.978  0.1264 -0.0676  0.0378
  107MOL0     C14370   2.721   6.192   9.856 -0.4083  1.3709  0.6468
  107MOL0     C14371   2.857   6.212   9.783  0.1990 -0.0228  0.5169
  107MOL0     C14372   2.982   6.234   9.870 -0.1135  0.2321 -0.5591
  107MOL0     C14373   2.963   6.345   9.963  0.0946 -0.3677  0.4308
  107MOL0     C14374   2.972   6.447  10.035 -1.0066  0.1881  0.1526
  107MOL0     C14375   2.453   5.990  10.171 -0.4494 -0.7810 -1.3713
  107MOL0     C14376   2.385   5.879  10.217  1.2426 -0.1329 -0.1128
  107MOL0     C14377   2.291   5.903  10.325  1.3712 -0.4800  0.2584
  107MOL0     H14378   2.323   5.325  10.036  2.6915  2.4992  0.0424
  107MOL0     H14379   2.215   5.117  10.110 -1.8501  2.1982 -0.4635
  107MOL0     H14380   2.227   4.910  10.219 -2.1456 -1.5756  0.6735
  107MOL0     H14381   2.317   4.900  10.372  1.0179  0.7972 -1.0247
  107MOL0     H14382   2.114   4.726  10.308  2.5875  1.4586 -2.1518
  107MOL0     H14383   2.012   4.844  10.352  0.0163 -2.5718 -1.1042
  107MOL0     H14384   2.059   4.743  10.574  0.7824 -1.1684  0.8289
  107MOL0     H14385   2.196   4.875  10.570  0.1347  1.2504 -0.4564
  107MOL0     H14386   2.219   4.574  10.521 -0.6141 -0.3858 -0.5513
  107MOL0     H14387   2.338   4.688  10.464  1.1896  0.4258  2.8663
  107MOL0     H14388   2.402   4.750  10.677  0.0946  0.4763 -0.9728
  107MOL0     H14389   2.235   4.711  10.749  2.1508 -0.1493  4.2768
  107MOL0     H14390   2.458   4.540  10.640 -0.0362  3.4654 -0.2881
  107MOL0     H14391   2.430   4.574  10.807 -1.3404 -1.4649  0.0322
  107MOL0     H14392   2.334   4.353  10.772  0.9239  0.6289  2.4518
  107MOL0     H14393   2.210   4.431  10.663  0.1230  2.2957 -0.2568
  107MOL0     H14394   2.240   4.508  10.950  1.9221  1.4210 -1.0653
  107MOL0     H14395   2.123   4.557  10.828  1.0792  1.3616  0.8430
  107MOL0     H14396   1.952   4.347  10.737  1.7153 -0.0241 -0.5854
  107MOL0     H14397   1.794   4.176  10.776 -2.2240  1.7931  1.1567
  107MOL0     H14398   1.836   4.035  10.885 -0.4464 -0.3171  0.7547
  107MOL0     H14399   1.628   4.116  10.966  0.9921 -2.2865 -0.6122
  107MOL0     H14400   1.759   4.143  11.083 -1.1359 -0.7599  0.3029
  107MOL0     H14401   1.761   4.393  11.014 -0.9695  1.7204  0.2244
  107MOL0     H14402   1.599   4.336  11.065 -0.1404  2.2314  0.7364
  107MOL0     H14403   1.711   4.408  10.792  2.1174 -4.1173  0.2464
  107MOL0     H14404   1.579   4.485  10.868 -0.3210 -0.4750 -1.1447
  107MOL0     H14405   1.354   4.450  10.909 -1.2293  0.6599 -0.2231
  107MOL0     H14406   1.146   4.375  10.967  0.8646 -0.3638  0.3283
  107MOL0     H14407   0.816   4.045  10.714 -0.0356  2.8071  1.4259
  107MOL0     H14408   0.575   3.999  10.730 -0.8293  3.1469  1.2615
  107MOL0     H14409   0.258   3.863  10.848 -0.2999 -1.2411  0.9023
  107MOL0     H14410   0.394   3.899  10.739 -0.2229  0.5520 -0.4371
  107MOL0     H14411   0.342   3.645  10.731  0.9161 -2.6144  1.5069
  107MOL0     H14412   0.480   3.670  10.842  1.0978  1.5645  1.1947
  107MOL0     H14413   0.350   3.648  11.039  1.1671  0.9809 -0.9679
  107MOL0     H14414   0.207   3.691  10.959  0.9759 -0.6763  3.1234
  107MOL0     H14415   0.190   3.472  10.841 -3.3071 -0.5152  3.2052
  107MOL0     H14416   0.214   3.458  11.014 -0.9272 -0.6133 -1.1674
  107MOL0     H14417   0.456   3.425  10.830  0.9105  0.7926  1.4615
  107MOL0     H14418   0.354   3.295  10.885 -4.2763  1.0878  0.0442
  107MOL0     H14419   0.501   3.488  11.084  3.2424 -2.0777  2.9174
  107MOL0     H14420   0.393   3.346  11.115  0.2835  1.6776  1.2181
  107MOL0     H14421   0.671   3.358  10.974 -0.1301 -0.9553 -0.4076
  107MOL0     H14422   0.574   3.220  10.995  0.1160 -0.5447  0.5106
  107MOL0     H14423   0.778   3.268  11.145 -0.6961  0.1285 -2.4428
  107MOL0     H14424   0.672   3.370  11.243 -1.0116 -2.9074  3.1737
  107MOL0     H14425   0.621   3.852  11.130 -5.7299 -1.6917 -2.5943
  107MOL0     H14426   0.850   3.917  11.123  1.4694  0.4170 -0.7077
  107MOL0     H14427   1.233   3.973  10.817 -0.5795  0.1286 -1.4404
  107MOL0     H14428   1.462   4.065  10.747  0.5392  0.7512  0.4202
  107MOL0     H14429   2.285   5.229  10.520 -1.9824  0.7079  0.0104
  107MOL0     H14430   2.419   5.428  10.438  1.9773 -0.5399 -1.6458
  107MOL0     H14431   2.543   5.634  10.038  0.8255  0.0389 -0.9105
  107MOL0     H14432   2.654   5.831   9.950  1.9270  0.4184  2.7129
  107MOL0     H14433   2.774   6.001   9.953  1.1339 -0.9947  4.5792
  107MOL0     H14434   2.800   6.135  10.053 -0.2455 -0.8869  0.8030
  107MOL0     H14435   2.679   6.288   9.887 -1.4429  0.8935  0.7603
  107MOL0     H14436   2.653   6.147   9.783  0.1410  3.7252 -1.4931
  107MOL0     H14437   2.842   6.300   9.720  0.8116 -1.5780 -1.9080
  107MOL0     H14438   2.874   6.129   9.714  0.0948 -2.7844  3.5461
  107MOL0     H14439   2.993   6.145   9.933  0.2055  0.5638 -0.1361
  107MOL0     H14440   3.074   6.246   9.811 -0.3155 -0.0517 -0.9356
  107MOL0     H14441   2.969   6.537  10.094 -1.3164  0.6386 -0.5319
  107MOL0     H14442   2.439   6.086  10.219 -0.4402 -0.8408 -1.2472
  107MOL0     H14443   2.294   6.000  10.376  0.8331 -0.0599 -0.5073
  107MOL0     H14444   2.190   5.902  10.284  1.7027  3.2321 -0.9753
  107MOL0     H14445   2.294   5.820  10.397  4.5143 -0.7082  0.0328
  108MOL0     O14446   4.468   8.508   1.404  0.5173  0.0549  0.0843
  108MOL0     C14447   4.558   8.436   1.430  0.1078 -0.5443  0.1338
  108MOL0     O14448   4.621   8.357   1.341 -0.2491 -0.0095  0.1756
  108MOL0     C14449   4.605   8.374   1.210  0.2954 -0.0901 -0.0895
  108MOL0     C14450   4.597   8.258   1.128 -0.9453  0.1724  0.4218
  108MOL0     C14451   4.599   8.270   0.984 -0.8219 -0.0078  0.1767
  108MOL0     C14452   4.615   8.393   0.929 -0.3426  0.3117  0.7229
  108MOL0     O14453   4.619   8.396   0.795 -0.0766  1.3575  0.6483
  108MOL0     C14454   4.652   8.518   0.718 -0.1957  0.0326 -0.3893
  108MOL0     C14455   4.805   8.544   0.699  0.5012 -0.7649 -0.4474
  108MOL0     C14456   4.868   8.425   0.629  0.1666  0.4107  0.5306
  108MOL0     C14457   5.015   8.448   0.597  0.0645  0.8779 -0.6381
  108MOL0     C14458   5.079   8.321   0.541 -0.5231 -0.4021  0.8792
  108MOL0     C14459   5.226   8.340   0.491 -0.3782 -0.4822  0.2227
  108MOL0     C14460   5.283   8.203   0.447  1.7600 -0.2794 -0.9164
  108MOL0     C14461   5.435   8.207   0.439  0.3687 -0.6591 -0.1091
  108MOL0     N14462   5.496   8.161   0.563  0.2980  0.7686  0.7042
  108MOL0     C14463   5.529   8.242   0.674  0.3132  0.3086 -0.6216
  108MOL0     C14464   5.555   8.149   0.775  1.0300  0.0161 -0.0889
  108MOL0     C14465   5.600   8.185   0.916  0.0255 -0.3134  0.4447
  108MOL0     C14466   5.712   8.086   0.954 -1.1345 -0.8833 -0.1482
  108MOL0     C14467   5.779   8.117   1.100  0.6380  0.0848  0.4921
  108MOL0     C14468   5.913   8.047   1.137 -0.9344 -0.2768 -0.5847
  108MOL0     O14469   6.019   8.145   1.131  0.3859 -0.1297 -0.4760
  108MOL0     C14470   6.149   8.090   1.113 -0.3534  0.0709  1.2453
  108MOL0     C14471   6.178   7.953   1.094  0.3717  0.3362  0.4554
  108MOL0     C14472   6.303   7.915   1.037 -0.2106 -0.0816 -0.0412
  108MOL0     C14473   6.406   8.002   1.013  0.3380  0.2449 -0.5232
  108MOL0     C14474   6.536   7.962   0.962 -0.2624 -0.2163 -0.0775
  108MOL0     O14475   6.639   8.047   0.989  0.2950 -0.1651 -0.4827
  108MOL0     C14476   6.759   7.996   0.952  1.5810 -0.3009  0.2930
  108MOL0     C14477   6.807   7.880   1.027 -1.1069 -0.5757 -0.4692
  108MOL0     C14478   6.939   7.832   1.016 -0.1295  0.5913  1.1247
  108MOL0     C14479   7.029   7.905   0.932 -0.9405  1.0223  0.9606
  108MOL0     O14480   7.156   7.865   0.925  0.1473  0.4094 -0.2334
  108MOL0     C14481   7.193   7.741   0.854 -0.0663 -0.6732 -1.0512
  108MOL0     C14482   7.309   7.685   0.922  0.1790 -0.6137  0.1230
  108MOL0     C14483   7.269   7.627   1.052  0.0233  0.3970 -0.2201
  108MOL0     C14484   7.380   7.551   1.126  0.6986 -0.4850  0.8326
  108MOL0     C14485   7.324   7.457   1.234 -0.5256  0.3633  0.7241
  108MOL0     C14486   7.427   7.373   1.311  0.5344 -0.1917 -0.5108
  108MOL0     C14487   7.375   7.295   1.430  0.2430 -0.0126 -0.2933
  108MOL0     C14488   7.379   7.151   1.398 -0.7560 -0.1153  0.2756
  108MOL0    Cl14489   7.267   7.107   1.271 -0.3000  0.3331 -0.3544
  108MOL0     C14490   6.982   8.022   0.862  0.3097  0.5632 -0.2512
  108MOL0     C14491   6.845   8.066   0.874 -0.4816 -0.8754  0.9038
  108MOL0     O14492   6.546   7.849   0.911 -0.4282 -0.2862 -0.2000
  108MOL0     C14493   6.383   8.133   1.034 -0.3874 -0.1439 -0.2013
  108MOL0     C14494   6.255   8.184   1.079  0.8103  0.3677 -0.0154
  108MOL0     N14495   5.522   8.024   0.730 -0.3787  0.7811  1.0179
  108MOL0     N14496   5.500   8.025   0.600  0.0961  0.4525 -0.1242
  108MOL0     C14497   4.627   8.504   1.010  0.3334 -0.9094 -0.3614
  108MOL0     C14498   4.621   8.495   1.148  0.3523  0.7100  0.1935
  108MOL0     C14499   4.624   8.445   1.564 -0.4116 -0.0430 -0.0515
  108MOL0     C14500   4.761   8.427   1.574 -0.2746  0.2623  0.8499
  108MOL0     C14501   4.837   8.447   1.695 -0.1764 -0.5847  0.4140
  108MOL0     C14502   4.759   8.458   1.804  0.7644  0.5942  0.1673
  108MOL0     O14503   4.828   8.434   1.925 -0.7677  0.6022  0.8319
  108MOL0     C14504   4.763   8.446   2.055  0.1728  0.6843 -0.9382
  108MOL0     C14505   4.772   8.588   2.105  1.1187 -0.3310 -1.4573
  108MOL0     C14506   4.731   8.606   2.245  0.1596 -0.4079 -0.0455
  108MOL0     C14507   4.739   8.751   2.301 -0.7080 -0.0700 -1.0047
  108MOL0     C14508   4.866   8.819   2.266  0.8433 -0.1001  0.0363
  108MOL0     C14509   4.957   8.892   2.230 -0.0495 -0.4170 -0.6240
  108MOL0     C14510   4.616   8.466   1.809 -0.5702  0.4802  0.3441
  108MOL0     C14511   4.553   8.454   1.687  0.0455  0.7257  0.5500
  108MOL0     C14512   4.405   8.442   1.689  0.9016 -0.9696  0.4289
  108MOL0     H14513   4.589   8.162   1.179  1.2966 -1.5255 -2.1017
  108MOL0     H14514   4.597   8.172   0.937 -3.0070 -1.2833  2.6453
  108MOL0     H14515   4.601   8.495   0.625 -1.2042  3.3262 -0.7654
  108MOL0     H14516   4.598   8.603   0.760 -1.9668 -1.3195  0.1938
  108MOL0     H14517   4.857   8.563   0.793 -1.5607  0.6049  0.4863
  108MOL0     H14518   4.828   8.634   0.641  2.4967  1.0129  2.8104
  108MOL0     H14519   4.822   8.389   0.537  3.3790  0.2251 -1.1456
  108MOL0     H14520   4.863   8.344   0.702  1.3155  3.0644  3.8297
  108MOL0     H14521   5.015   8.532   0.527  0.7338 -0.2365 -2.0363
  108MOL0     H14522   5.073   8.469   0.688 -0.6962 -1.4397  0.4615
  108MOL0     H14523   5.072   8.245   0.620  0.4651  3.2485  4.8326
  108MOL0     H14524   5.012   8.292   0.460  0.7518 -3.1030  0.6886
  108MOL0     H14525   5.226   8.417   0.414  5.0160  0.1069  0.3911
  108MOL0     H14526   5.287   8.379   0.574  1.1772  2.2577 -2.0417
  108MOL0     H14527   5.235   8.173   0.354  0.8363  0.4201 -0.6806
  108MOL0     H14528   5.253   8.130   0.523 -0.5550  2.2451  0.8042
  108MOL0     H14529   5.475   8.142   0.361  1.2617  0.8868 -0.9778
  108MOL0     H14530   5.474   8.308   0.424  3.7105 -1.7871  0.0681
  108MOL0     H14531   5.533   8.351   0.674 -1.7800  0.4264 -0.3925
  108MOL0     H14532   5.625   8.290   0.933 -0.9940  1.1893 -5.2686
  108MOL0     H14533   5.513   8.176   0.980  0.1267 -1.9409  0.3890
  108MOL0     H14534   5.681   7.982   0.959 -1.3396 -0.8073  0.1834
  108MOL0     H14535   5.785   8.097   0.873 -2.5535  1.0303 -1.2394
  108MOL0     H14536   5.710   8.081   1.176 -0.1520  0.7055  0.0801
  108MOL0     H14537   5.791   8.224   1.117  2.1076 -0.4001  3.2475
  108MOL0     H14538   5.929   7.962   1.070  3.5127 -0.6994  0.6862
  108MOL0     H14539   5.907   8.013   1.241  1.4658 -1.3857 -0.7277
  108MOL0     H14540   6.115   7.869   1.119  0.9975 -0.4272 -0.4592
  108MOL0     H14541   6.321   7.814   1.001  2.4354  0.6782 -1.0610
  108MOL0     H14542   6.748   7.839   1.109 -2.1024  0.1825 -0.7830
  108MOL0     H14543   6.971   7.743   1.069  1.6569 -0.6838 -1.8543
  108MOL0     H14544   7.106   7.675   0.853 -1.7416  1.3927 -0.1585
  108MOL0     H14545   7.207   7.768   0.749  0.6218 -2.6749 -1.5151
  108MOL0     H14546   7.357   7.611   0.856  3.2929  2.7165 -1.7549
  108MOL0     H14547   7.383   7.764   0.938 -1.5434  1.3370 -1.0451
  108MOL0     H14548   7.225   7.706   1.115  0.3958  0.7255 -0.3713
  108MOL0     H14549   7.200   7.547   1.023  0.5298  0.4465 -1.5840
  108MOL0     H14550   7.444   7.628   1.170 -0.8708  1.9022 -0.7949
  108MOL0     H14551   7.434   7.495   1.049 -1.6630  1.3769 -2.4702
  108MOL0     H14552   7.254   7.387   1.188  0.3163 -0.0423  0.0250
  108MOL0     H14553   7.263   7.519   1.300 -0.8065  0.8851 -0.0029
  108MOL0     H14554   7.486   7.315   1.240 -0.2692 -0.6996 -0.7851
  108MOL0     H14555   7.502   7.442   1.349  0.6908 -0.0126 -1.1219
  108MOL0     H14556   7.272   7.320   1.456  0.9619  2.1177  0.7529
  108MOL0     H14557   7.444   7.309   1.514  1.6554  1.0409 -1.5854
  108MOL0     H14558   7.481   7.122   1.371  0.1026  3.0458 -0.2666
  108MOL0     H14559   7.356   7.097   1.491  2.6322 -4.4850 -1.0515
  108MOL0     H14560   7.056   8.076   0.804  1.2113  1.3758  1.5528
  108MOL0     H14561   6.808   8.158   0.829 -2.1851 -1.2509  1.4682
  108MOL0     H14562   6.461   8.206   1.018  0.8169 -0.2751  3.8837
  108MOL0     H14563   6.249   8.289   1.104 -2.3109  0.0577  1.0539
  108MOL0     H14564   4.633   8.606   0.973  1.9312 -0.5344  0.8414
  108MOL0     H14565   4.615   8.581   1.213 -2.6086  1.3283 -0.7586
  108MOL0     H14566   4.833   8.402   1.497 -1.2943 -1.8925  0.5229
  108MOL0     H14567   4.941   8.419   1.709 -0.5574 -0.9729  3.0182
  108MOL0     H14568   4.811   8.380   2.128 -0.6298  0.2209 -0.8206
  108MOL0     H14569   4.657   8.418   2.051 -0.1741  1.9795 -1.1627
  108MOL0     H14570   4.713   8.654   2.042 -0.6083  0.5859  0.9640
  108MOL0     H14571   4.875   8.624   2.093  1.3378  0.3584  1.5078
  108MOL0     H14572   4.804   8.549   2.303  0.7467  1.2753  0.9409
  108MOL0     H14573   4.626   8.579   2.260 -0.6549  2.8198  0.7959
  108MOL0     H14574   4.668   8.817   2.252 -0.1445  0.2636 -1.3893
  108MOL0     H14575   4.722   8.756   2.409 -0.0655 -4.4650 -0.4920
  108MOL0     H14576   5.033   8.965   2.213 -0.2236 -0.0204  0.2346
  108MOL0     H14577   4.565   8.477   1.904  1.4735 -2.7157  2.0170
  108MOL0     H14578   4.366   8.454   1.791 -0.6281  0.8198 -0.3148
  108MOL0     H14579   4.354   8.517   1.629 -0.0317 -1.0565  1.0866
  108MOL0     H14580   4.378   8.344   1.647  1.7158 -1.2259  0.4792
  109MOL0     O14581   8.274   2.764  10.558 -0.6960  0.8957  0.0538
  109MOL0     C14582   8.203   2.851  10.614  0.2791 -0.6829 -0.1595
  109MOL0     O14583   8.080   2.824  10.675 -0.4826  0.1835 -0.2018
  109MOL0     C14584   7.992   2.716  10.652  0.2768 -1.0180  0.5934
  109MOL0     C14585   7.907   2.685  10.762  0.4440 -0.3180  0.2868
  109MOL0     C14586   7.844   2.563  10.762 -1.1306  0.2002  0.2939
  109MOL0     C14587   7.862   2.464  10.659  0.0982 -1.2426  0.1135
  109MOL0     O14588   7.788   2.346  10.649 -0.7525 -0.6685 -0.0261
  109MOL0     C14589   7.700   2.303  10.758  0.0068  0.5753  0.9383
  109MOL0     C14590   7.690   2.148  10.745 -0.2603 -0.2701  1.0925
  109MOL0     C14591   7.577   2.099  10.823  0.7077 -0.0725  0.1638
  109MOL0     C14592   7.526   1.960  10.783 -0.2812  0.4350 -0.2818
  109MOL0     C14593   7.435   1.895  10.891  0.2745  0.9104  0.0581
  109MOL0     C14594   7.430   1.743  10.887 -0.8483  1.3455 -0.2675
  109MOL0     C14595   7.299   1.691  10.934  0.1742  0.3173  0.0394
  109MOL0     C14596   7.287   1.722  11.083  0.7161 -0.4343  0.0168
  109MOL0     N14597   7.166   1.647  11.144  0.8132 -0.2074  0.2861
  109MOL0     C14598   7.149   1.512  11.166 -0.6331  1.2007  0.0669
  109MOL0     C14599   7.033   1.500  11.233 -0.2682  0.4263 -0.3102
  109MOL0     C14600   6.971   1.368  11.282 -0.1034 -1.2714  0.2574
  109MOL0     C14601   6.859   1.332  11.196  0.3437  0.4123  0.4961
  109MOL0     C14602   6.807   1.191  11.217  0.5751 -0.1925 -0.0864
  109MOL0     C14603   6.662   1.190  11.170  0.8113  0.0030 -0.7658
  109MOL0     O14604   6.643   1.051  11.155  0.1061  0.0875 -0.0893
  109MOL0     C14605   6.521   0.999  11.106  0.0361 -0.6087 -0.7806
  109MOL0     C14606   6.495   0.870  11.069  0.3654 -0.5561  0.4093
  109MOL0     C14607   6.372   0.818  11.021 -0.1950  0.1670  0.4730
  109MOL0     C14608   6.261   0.900  11.010 -1.4013 -0.2663  0.0606
  109MOL0     C14609   6.135   0.850  10.972  0.2549  0.1459  0.9035
  109MOL0     O14610   6.035   0.945  10.984 -0.1404  0.8939 -0.5831
  109MOL0     C14611   5.905   0.908  10.940 -0.3548 -0.4331  0.7351
  109MOL0     C14612   5.854   0.787  10.925 -0.8835 -0.1728 -0.0385
  109MOL0     C14613   5.736   0.765  10.865  0.5377 -1.1414 -0.0334
  109MOL0     C14614   5.664   0.869  10.809 -0.1915 -0.0640  0.1575
  109MOL0     O14615   5.544   0.851  10.745  0.1483 -0.6893  0.8415
  109MOL0     C14616   5.524   0.894  10.613  0.3861 -0.8322  0.0226
  109MOL0     C14617   5.392   0.842  10.558 -0.4125  0.4566  0.0757
  109MOL0     C14618   5.364   0.874  10.410 -0.3362  0.2774  0.5339
  109MOL0     C14619   5.284   1.007  10.413  0.7254  0.4640 -0.4589
  109MOL0     C14620   5.212   1.036  10.279  0.1159 -0.1334  1.4266
  109MOL0     C14621   5.196   1.188  10.258 -0.6702 -0.4169  0.0985
  109MOL0     C14622   5.096   1.267  10.347 -0.1716 -0.3932  0.4827
  109MOL0     C14623   5.087   1.416  10.311 -0.6945 -0.5687 -0.2697
  109MOL0    Cl14624   4.995   1.409  10.160 -0.2520 -0.0044  0.0095
  109MOL0     C14625   5.715   1.003  10.822 -0.1593 -0.2006 -0.5068
  109MOL0     C14626   5.839   1.017  10.886  0.0710 -0.8848 -1.4254
  109MOL0     O14627   6.120   0.745  10.914 -0.7075  0.4605  0.1261
  109MOL0     C14628   6.284   1.024  11.054 -0.0049  0.5310  0.1928
  109MOL0     C14629   6.413   1.077  11.088 -0.0742  0.4556 -0.5218
  109MOL0     N14630   6.967   1.621  11.232  0.8529 -0.8184  0.2562
  109MOL0     N14631   7.046   1.703  11.172 -0.1948 -0.3958 -0.1651
  109MOL0     C14632   7.948   2.501  10.544  0.3362 -0.3833 -0.0669
  109MOL0     C14633   8.010   2.624  10.544 -1.2456 -0.2214  0.0324
  109MOL0     C14634   8.258   2.987  10.632 -0.5602  0.1213 -0.7871
  109MOL0     C14635   8.330   3.038  10.526  0.2031  0.4661 -0.0836
  109MOL0     C14636   8.366   3.179  10.529  0.3052  0.2562  0.2435
  109MOL0     C14637   8.366   3.246  10.644  0.7004  0.2886 -1.1195
  109MOL0     O14638   8.421   3.370  10.651 -0.2666 -0.3523  0.2687
  109MOL0     C14639   8.546   3.374  10.723  0.5657 -0.0780 -0.2712
  109MOL0     C14640   8.620   3.506  10.705  0.9610 -0.2079 -0.7891
  109MOL0     C14641   8.689   3.521  10.564 -0.3905  0.3642 -0.2884
  109MOL0     C14642   8.815   3.437  10.556 -0.4543 -0.0276  0.1126
  109MOL0     C14643   8.903   3.444  10.446 -0.3464 -0.1681  0.9916
  109MOL0     C14644   8.979   3.441  10.355 -0.1256  0.3384 -0.5414
  109MOL0     C14645   8.301   3.191  10.757 -0.2160 -0.8304 -0.2148
  109MOL0     C14646   8.248   3.064  10.750  0.0265 -0.0088 -1.1358
  109MOL0     C14647   8.180   3.009  10.874  0.1521  0.2433  0.3797
  109MOL0     H14648   7.903   2.761  10.839 -1.3687 -0.6661  0.5708
  109MOL0     H14649   7.787   2.537  10.850  2.6089 -0.2037  2.8144
  109MOL0     H14650   7.749   2.319  10.854 -0.4710 -3.4476  2.0141
  109MOL0     H14651   7.603   2.352  10.747  0.0844  0.6750  0.6926
  109MOL0     H14652   7.776   2.101  10.793  0.5421  2.4262  2.5107
  109MOL0     H14653   7.673   2.111  10.644  1.4222 -1.1080  1.0818
  109MOL0     H14654   7.495   2.172  10.824  0.7894  0.0602 -1.0027
  109MOL0     H14655   7.605   2.095  10.929  0.7938 -1.5922  0.1082
  109MOL0     H14656   7.469   1.972  10.691 -2.6508 -0.5327  0.9748
  109MOL0     H14657   7.609   1.888  10.776  0.0196  0.2157  3.4281
  109MOL0     H14658   7.466   1.930  10.990  0.4816 -1.2156  0.7816
  109MOL0     H14659   7.332   1.930  10.880  0.1707  0.6257  0.1332
  109MOL0     H14660   7.436   1.708  10.784 -1.7445 -0.3381  0.2077
  109MOL0     H14661   7.510   1.693  10.941  1.4804  3.5424 -1.4723
  109MOL0     H14662   7.318   1.585  10.920  1.4884  0.6441 -0.8145
  109MOL0     H14663   7.216   1.731  10.874  0.0034 -0.8688 -0.5511
  109MOL0     H14664   7.375   1.687  11.137  1.8428 -0.0388 -1.4973
  109MOL0     H14665   7.286   1.830  11.099  1.9239 -0.0619 -2.0458
  109MOL0     H14666   7.229   1.442  11.145 -0.9716  0.6903  0.4285
  109MOL0     H14667   7.039   1.282  11.284  2.6250  0.7162  3.2728
  109MOL0     H14668   6.939   1.379  11.387  0.5628  0.1634  0.3356
  109MOL0     H14669   6.772   1.398  11.198 -0.7273 -0.9690  1.8893
  109MOL0     H14670   6.898   1.337  11.094 -1.7353  2.1640 -0.2961
  109MOL0     H14671   6.807   1.156  11.320 -1.6218 -1.8235 -0.5704
  109MOL0     H14672   6.877   1.131  11.159 -0.7303  1.9416 -4.3399
  109MOL0     H14673   6.650   1.243  11.075  1.6821 -1.3517 -1.6743
  109MOL0     H14674   6.594   1.239  11.240  2.2830 -1.3192  1.7252
  109MOL0     H14675   6.573   0.794  11.072 -0.9858 -2.3370 -3.5800
  109MOL0     H14676   6.375   0.714  10.992  0.2790 -0.1261  1.5278
  109MOL0     H14677   5.896   0.704  10.980  1.8114  0.8815 -0.3369
  109MOL0     H14678   5.700   0.663  10.876  1.1969 -1.4408 -0.5514
  109MOL0     H14679   5.531   1.003  10.610  0.2160 -0.7535  1.4529
  109MOL0     H14680   5.602   0.859  10.545  0.3155 -0.6893 -0.1301
  109MOL0     H14681   5.407   0.734  10.567  0.5410  0.6222  0.6268
  109MOL0     H14682   5.309   0.869  10.624 -0.3667 -1.7551  1.1104
  109MOL0     H14683   5.458   0.901  10.360 -0.4756 -0.6049 -0.2308
  109MOL0     H14684   5.324   0.789  10.355  1.1533 -2.0918  2.8888
  109MOL0     H14685   5.345   1.091  10.448 -0.5984  1.1114  0.3455
  109MOL0     H14686   5.202   1.004  10.485  1.3468 -0.1677  0.2430
  109MOL0     H14687   5.115   0.985  10.279 -0.7376  1.3438  3.7056
  109MOL0     H14688   5.274   1.001  10.196 -0.9540  2.9333 -0.9010
  109MOL0     H14689   5.298   1.228  10.260 -0.3359 -1.2598  0.1674
  109MOL0     H14690   5.161   1.195  10.154 -0.8365 -0.4084  0.1555
  109MOL0     H14691   5.122   1.258  10.453  0.7622 -2.7942  0.1153
  109MOL0     H14692   4.993   1.230  10.342 -0.3116  0.0466  0.0970
  109MOL0     H14693   5.024   1.467  10.384 -0.2779 -0.7221  0.1996
  109MOL0     H14694   5.181   1.465  10.282 -0.6298 -1.2734 -1.3219
  109MOL0     H14695   5.668   1.093  10.786 -0.1698  0.1427  0.3498
  109MOL0     H14696   5.880   1.116  10.901  1.8335 -1.3320 -2.8879
  109MOL0     H14697   6.198   1.091  11.056 -2.1670 -1.9327  4.3969
  109MOL0     H14698   6.428   1.180  11.119  1.7191  0.1323 -0.1778
  109MOL0     H14699   7.953   2.440  10.454 -1.4384  1.8622 -1.7942
  109MOL0     H14700   8.081   2.655  10.468  1.3507  1.6476  2.9781
  109MOL0     H14701   8.337   2.981  10.434 -0.6319 -0.1627  0.2265
  109MOL0     H14702   8.409   3.231  10.445  3.1378 -1.3448  0.5521
  109MOL0     H14703   8.605   3.285  10.702  2.1845  1.6457 -3.8904
  109MOL0     H14704   8.529   3.369  10.831  0.4905 -1.0194 -0.3178
  109MOL0     H14705   8.691   3.529  10.785  0.4821  1.7423 -0.8780
  109MOL0     H14706   8.552   3.591  10.713 -0.3217 -1.3676  2.6809
  109MOL0     H14707   8.710   3.624  10.533 -1.6109  0.6873 -0.0715
  109MOL0     H14708   8.625   3.476  10.487 -1.7961  0.3998  0.8184
  109MOL0     H14709   8.876   3.450  10.646 -0.5976 -2.5380  0.6581
  109MOL0     H14710   8.783   3.334  10.574 -0.9795 -0.2350 -1.7847
  109MOL0     H14711   9.041   3.434  10.268  0.6851 -0.9524  0.1061
  109MOL0     H14712   8.297   3.243  10.852  1.8358 -0.7488 -0.1363
  109MOL0     H14713   8.237   2.922  10.910  2.5982  1.4714 -0.3139
  109MOL0     H14714   8.167   3.082  10.954 -0.4066  1.5331 -0.8472
  109MOL0     H14715   8.081   2.977  10.840  0.3386 -0.5204  0.5167
  110MOL0     O14716   8.985   9.626  10.755  0.0489 -0.1853  0.4779
  110MOL0     C14717   8.884   9.646  10.692  1.0240  0.1503  0.5916
  110MOL0     O14718   8.806   9.759  10.699  0.0790  0.1868  1.3345
  110MOL0     C14719   8.811   9.853  10.798  0.7251 -0.2585  0.3430
  110MOL0     C14720   8.908   9.864  10.901  0.0562 -0.0709 -0.9488
  110MOL0     C14721   8.895   9.963  11.001  0.0638  0.1545  0.2340
  110MOL0     C14722   8.797  10.064  10.993  0.1426 -0.4341  0.4235
  110MOL0     O14723   8.795  10.157  11.097 -0.2445  0.2173 -0.1244
  110MOL0     C14724   8.684  10.248  11.106  0.8698  0.5063 -0.1464
  110MOL0     C14725   8.562  10.170  11.179 -1.1241  0.3145 -0.1560
  110MOL0     C14726   8.421  10.237  11.166  0.8880  0.0915 -0.0947
  110MOL0     C14727   8.311  10.144  11.219  0.7534 -0.5839  0.7448
  110MOL0     C14728   8.171  10.203  11.179  0.7476 -0.3695 -0.6693
  110MOL0     C14729   8.135  10.347  11.235  0.2021  0.7199  0.1006
  110MOL0     C14730   8.128  10.351  11.393 -0.5149  0.3590  0.2814
  110MOL0     C14731   8.134  10.497  11.451  0.0021  0.1615 -0.4419
  110MOL0     N14732   8.271  10.532  11.478 -0.0498 -0.8318 -1.2510
  110MOL0     C14733   8.339  10.635  11.410 -0.9810  1.0334  1.2103
  110MOL0     C14734   8.456  10.659  11.477 -0.4577 -0.4500 -1.1490
  110MOL0     C14735   8.570  10.744  11.437  0.2135  0.9082  0.8229
  110MOL0     C14736   8.571  10.889  11.491  0.8047  0.1727  0.1267
  110MOL0     C14737   8.595  10.895  11.641  0.3129  0.2147 -0.2421
  110MOL0     C14738   8.625  11.029  11.696  0.3712  0.2735 -0.3364
  110MOL0     O14739   8.755  11.071  11.685  0.1390 -0.4573 -0.0221
  110MOL0     C14740   8.779  11.199  11.702 -0.0384 -0.1329 -0.4382
  110MOL0     C14741   8.882  11.264  11.638  0.3084 -0.4090  0.6927
  110MOL0     C14742   8.907  11.401  11.655 -0.2444  0.2786 -0.2346
  110MOL0     C14743   8.833  11.477  11.745  0.0033 -1.1075 -0.5027
  110MOL0     C14744   8.863  11.629  11.772  0.1241  0.0520 -0.0520
  110MOL0     O14745   8.882  11.707  11.664 -0.0261 -0.3245  0.2835
  110MOL0     C14746   8.946  11.824  11.688  0.3006 -0.5149 -0.3469
  110MOL0     C14747   9.066  11.840  11.616  0.3186  0.0431 -0.9212
  110MOL0     C14748   9.111  11.970  11.605 -0.0837  0.4995 -0.3772
  110MOL0     C14749   9.030  12.084  11.647 -0.6672  0.7396 -0.6016
  110MOL0     O14750   9.077  12.212  11.621 -0.0654  0.4706  0.4264
  110MOL0     C14751   9.216  12.251  11.610  0.5071 -0.1940  1.1026
  110MOL0     C14752   9.212  12.384  11.537 -0.1233 -0.8535  0.3033
  110MOL0     C14753   9.352  12.431  11.528 -0.2054 -0.9389  0.0090
  110MOL0     C14754   9.389  12.494  11.390  0.1315  0.4326 -0.0321
  110MOL0     C14755   9.522  12.445  11.343 -0.8490  0.3305 -0.0743
  110MOL0     C14756   9.566  12.480  11.204 -0.6784  0.0294  0.1625
  110MOL0     C14757   9.711  12.442  11.172 -0.2922 -0.3190 -0.2143
  110MOL0     C14758   9.759  12.476  11.033  0.6483 -0.0625  0.5348
  110MOL0    Cl14759   9.646  12.403  10.920 -0.3650  0.0759  0.2578
  110MOL0     C14760   8.915  12.061  11.722 -0.6726 -0.1252 -0.9192
  110MOL0     C14761   8.874  11.931  11.742 -1.2449  0.1842  0.8775
  110MOL0     O14762   8.844  11.667  11.887 -0.1546 -0.4522 -0.4121
  110MOL0     C14763   8.726  11.410  11.815  0.0568  0.1945  0.2830
  110MOL0     C14764   8.710  11.271  11.800 -0.0126 -0.0630 -0.0533
  110MOL0     N14765   8.443  10.593  11.595 -0.9402 -0.1093  0.1353
  110MOL0     N14766   8.339  10.517  11.600 -0.6348  0.7574 -0.0981
  110MOL0     C14767   8.707  10.054  10.879 -0.1047  0.1383  0.2186
  110MOL0     C14768   8.712   9.956  10.789 -0.0481  0.0189  0.4657
  110MOL0     C14769   8.828   9.533  10.612  0.3830  0.1029  0.3702
  110MOL0     C14770   8.740   9.566  10.501 -0.9437 -0.1153 -0.8719
  110MOL0     C14771   8.709   9.463  10.413  0.0116 -0.2864  0.0504
  110MOL0     C14772   8.756   9.332  10.430  0.1183  0.3804  0.1214
  110MOL0     O14773   8.736   9.228  10.347 -0.1099 -0.3321  0.4321
  110MOL0     C14774   8.695   9.261  10.214  0.5622 -0.5941  0.5037
  110MOL0     C14775   8.552   9.287  10.181  0.2855  0.1310 -0.2420
  110MOL0     C14776   8.542   9.333  10.032  0.4790  0.1694 -0.1474
  110MOL0     C14777   8.495   9.215   9.957 -0.5567 -0.5544  0.9784
  110MOL0     C14778   8.455   9.250   9.820 -0.4199  0.8304  0.4025
  110MOL0     C14779   8.436   9.254   9.696  0.1777 -0.6330 -0.3843
  110MOL0     C14780   8.830   9.300  10.539 -0.6420 -0.5217 -0.8796
  110MOL0     C14781   8.864   9.394  10.639 -0.3951 -1.1442 -0.4394
  110MOL0     C14782   8.949   9.356  10.763 -0.2754  0.0068  0.1584
  110MOL0     H14783   8.995   9.799  10.901 -0.7763 -1.2360 -2.7460
  110MOL0     H14784   8.949   9.960  11.096  0.4159 -0.0953  0.0301
  110MOL0     H14785   8.707  10.331  11.172  1.1343 -2.2961  3.6248
  110MOL0     H14786   8.646  10.290  11.012  1.8757  1.3399 -0.1967
  110MOL0     H14787   8.596  10.165  11.283 -0.4026  0.8994 -0.3552
  110MOL0     H14788   8.549  10.067  11.143 -0.4922 -0.2079  1.0397
  110MOL0     H14789   8.394  10.258  11.062  0.7248 -3.0978 -0.7775
  110MOL0     H14790   8.422  10.333  11.220 -2.5840  0.9319 -1.2567
  110MOL0     H14791   8.311  10.044  11.174  1.9390 -0.1128 -0.3905
  110MOL0     H14792   8.329  10.130  11.326  5.1585  0.6097  0.3384
  110MOL0     H14793   8.174  10.204  11.069 -2.7834 -0.8021 -0.8771
  110MOL0     H14794   8.094  10.128  11.200  1.6670 -1.4720 -1.0651
  110MOL0     H14795   8.205  10.418  11.190  1.7763 -1.1422 -0.5324
  110MOL0     H14796   8.036  10.372  11.195  0.3859  1.6467  0.2028
  110MOL0     H14797   8.223  10.310  11.430  0.7804  1.2540 -1.8337
  110MOL0     H14798   8.048  10.288  11.431 -0.6293  1.2893  1.6525
  110MOL0     H14799   8.092  10.571  11.381 -1.6547  0.5913  0.9410
  110MOL0     H14800   8.073  10.499  11.541 -0.8453  0.7018 -1.0151
  110MOL0     H14801   8.317  10.674  11.311  0.2334 -0.0738  0.4659
  110MOL0     H14802   8.658  10.693  11.478  1.3374  2.6099  0.6161
  110MOL0     H14803   8.571  10.743  11.328  1.6824 -2.8632  0.7125
  110MOL0     H14804   8.650  10.943  11.438  0.6020  0.6768  0.3362
  110MOL0     H14805   8.476  10.933  11.458  1.3264  0.4454 -1.0900
  110MOL0     H14806   8.680  10.832  11.669 -1.5576 -1.7047  1.5769
  110MOL0     H14807   8.508  10.846  11.687  1.7602  0.6654  3.3469
  110MOL0     H14808   8.598  11.040  11.801 -0.6289  1.5458 -0.7030
  110MOL0     H14809   8.556  11.103  11.656 -0.0914  1.3679  2.2978
  110MOL0     H14810   8.946  11.203  11.574  0.5782  1.4805 -0.9380
  110MOL0     H14811   8.977  11.445  11.585 -0.3830 -0.6754 -0.9801
  110MOL0     H14812   9.116  11.760  11.563  1.3242 -0.7222  1.0842
  110MOL0     H14813   9.205  11.981  11.551 -0.5357 -2.8881 -2.1049
  110MOL0     H14814   9.264  12.257  11.708  0.1032  1.5293  1.2195
  110MOL0     H14815   9.261  12.189  11.532  0.5662  0.6097  0.4907
  110MOL0     H14816   9.169  12.370  11.437  0.0784 -1.9674  0.3603
  110MOL0     H14817   9.140  12.458  11.573 -0.0220 -0.4662 -0.2702
  110MOL0     H14818   9.374  12.507  11.603 -0.7272 -0.7845  0.0134
  110MOL0     H14819   9.420  12.345  11.536  1.0977 -0.0047 -0.6727
  110MOL0     H14820   9.409  12.601  11.396 -2.0557  0.8682  0.5366
  110MOL0     H14821   9.315  12.491  11.310  0.3961 -1.3709 -0.2566
  110MOL0     H14822   9.540  12.337  11.351 -0.5268  0.5105  2.4892
  110MOL0     H14823   9.596  12.494  11.407  1.5957  0.1159 -2.5248
  110MOL0     H14824   9.508  12.416  11.137  1.1489  0.1977 -1.6830
  110MOL0     H14825   9.533  12.578  11.169  0.8831 -0.1346 -1.9484
  110MOL0     H14826   9.733  12.340  11.205  1.8964 -1.1383 -3.6687
  110MOL0     H14827   9.768  12.512  11.234 -2.6568 -0.7754  2.7028
  110MOL0     H14828   9.753  12.584  11.016 -1.6493  0.0384  1.6170
  110MOL0     H14829   9.864  12.452  11.015  0.7045 -0.5256  1.3933
  110MOL0     H14830   8.854  12.140  11.767  0.7067 -1.8399  4.8314
  110MOL0     H14831   8.788  11.890  11.796 -1.2702 -2.1722 -0.7660
  110MOL0     H14832   8.675  11.463  11.894 -1.3015  1.9456 -1.6630
  110MOL0     H14833   8.630  11.224  11.857 -0.2369 -2.1554 -1.9536
  110MOL0     H14834   8.624  10.122  10.864 -2.6291 -3.0254 -1.3691
  110MOL0     H14835   8.639   9.941  10.710 -0.4915 -0.0453  0.8832
  110MOL0     H14836   8.705   9.664  10.472  0.3786  0.0459 -2.0370
  110MOL0     H14837   8.643   9.493  10.332 -0.5576  1.3227  1.0576
  110MOL0     H14838   8.721   9.186  10.139  0.6910  1.1816 -1.3105
  110MOL0     H14839   8.751   9.353  10.196 -0.4177 -0.5547 -2.9189
  110MOL0     H14840   8.489   9.357  10.238 -5.1639 -2.3915 -2.3844
  110MOL0     H14841   8.516   9.184  10.193  1.8292 -0.6852 -2.1559
  110MOL0     H14842   8.643   9.364  10.002 -0.2480  2.2697 -0.6282
  110MOL0     H14843   8.471   9.416  10.019 -0.5420 -0.4496  1.2301
  110MOL0     H14844   8.565   9.131   9.956  0.8902  0.6182 -0.1742
  110MOL0     H14845   8.404   9.180  10.007 -0.8430 -0.7722  0.3158
  110MOL0     H14846   8.416   9.256   9.591 -0.7807 -1.8555 -0.2511
  110MOL0     H14847   8.861   9.198  10.560 -1.0754 -0.4207  0.3585
  110MOL0     H14848   8.898   9.384  10.855  1.3057 -1.0650  1.4154
  110MOL0     H14849   8.960   9.247  10.753  1.4242  0.1197  0.4824
  110MOL0     H14850   9.051   9.396  10.756 -0.9347  1.4753 -2.8494
  111MOL0     O14851   2.405   2.267   0.990 -1.4536 -0.2595  0.5630
  111MOL0     C14852   2.365   2.344   1.077  0.6461  0.6162 -0.3421
  111MOL0     O14853   2.439   2.431   1.153 -0.1403  0.5006  0.3256
  111MOL0     C14854   2.575   2.432   1.153  1.4073 -0.3071 -0.2733
  111MOL0     C14855   2.639   2.525   1.079  0.7681  0.2197  1.1418
  111MOL0     C14856   2.771   2.536   1.071 -1.1264  0.3064 -0.1740
  111MOL0     C14857   2.845   2.451   1.148 -0.4871  0.2446  0.3069
  111MOL0     O14858   2.984   2.470   1.155  0.7946  0.3985  0.8313
  111MOL0     C14859   3.023   2.540   1.275 -0.0118 -0.5983  0.8393
  111MOL0     C14860   3.161   2.608   1.254  0.7590  0.1502 -0.1749
  111MOL0     C14861   3.288   2.514   1.237  1.0502 -0.1153 -0.3960
  111MOL0     C14862   3.421   2.587   1.273  0.8680 -1.3577 -0.1215
  111MOL0     C14863   3.541   2.490   1.264  0.3405 -0.2101  0.3478
  111MOL0     C14864   3.663   2.565   1.318 -0.4137  0.1547  0.3205
  111MOL0     C14865   3.666   2.613   1.464 -0.3410  0.3016  0.3258
  111MOL0     C14866   3.815   2.632   1.506  0.9235 -0.0761  1.3015
  111MOL0     N14867   3.869   2.763   1.455  0.4460  0.5017 -0.1902
  111MOL0     C14868   3.849   2.885   1.522 -0.7208 -0.1504  0.9802
  111MOL0     C14869   3.968   2.944   1.513 -0.2897  0.6087 -0.6361
  111MOL0     C14870   4.008   3.086   1.579  1.1013  0.6936  0.1691
  111MOL0     C14871   4.134   3.154   1.529  0.3479  0.4608 -0.8033
  111MOL0     C14872   4.178   3.290   1.601 -0.7220  0.0329 -0.2034
  111MOL0     C14873   4.307   3.350   1.541 -0.4735  0.5480  0.4753
  111MOL0     O14874   4.340   3.482   1.579  0.8328 -0.3634 -0.3615
  111MOL0     C14875   4.453   3.533   1.522  0.0067 -0.2895  0.0396
  111MOL0     C14876   4.455   3.669   1.526  0.8273 -0.4157  0.7104
  111MOL0     C14877   4.553   3.746   1.464 -1.0431 -0.2268 -0.2788
  111MOL0     C14878   4.659   3.670   1.404 -0.4344 -0.1993 -0.2205
  111MOL0     C14879   4.784   3.737   1.368 -0.2324  1.5019  0.3886
  111MOL0     O14880   4.788   3.869   1.370  0.1413  1.2091  0.3134
  111MOL0     C14881   4.903   3.933   1.329 -0.7265 -0.4628  0.6924
  111MOL0     C14882   5.025   3.918   1.390 -0.2019 -0.5802 -0.1434
  111MOL0     C14883   5.141   3.990   1.349  0.1023  0.3449 -0.3088
  111MOL0     C14884   5.131   4.095   1.252 -0.1948  0.0960  0.2319
  111MOL0     O14885   5.233   4.186   1.216  0.7088 -0.0284  0.0319
  111MOL0     C14886   5.339   4.212   1.321  0.4269  0.2132  0.9423
  111MOL0     C14887   5.446   4.303   1.247 -0.7308  0.4939  0.4459
  111MOL0     C14888   5.575   4.342   1.334  0.8421  0.8208 -0.6214
  111MOL0     C14889   5.655   4.456   1.272 -1.0187  1.1446 -0.1382
  111MOL0     C14890   5.757   4.504   1.379  0.5063  0.4565  0.3906
  111MOL0     C14891   5.848   4.616   1.319  1.1650  0.0955  0.0392
  111MOL0     C14892   5.950   4.674   1.420  0.3924 -0.3399  0.0387
  111MOL0     C14893   6.067   4.581   1.432 -0.3058  0.8056 -0.1511
  111MOL0    Cl14894   6.217   4.662   1.483 -0.3045  0.3437 -0.4492
  111MOL0     C14895   5.003   4.099   1.180 -0.0839  0.0296  0.9706
  111MOL0     C14896   4.894   4.030   1.228  0.1899 -0.1797 -0.6481
  111MOL0     O14897   4.869   3.661   1.314  0.0491  0.6243  0.0636
  111MOL0     C14898   4.651   3.531   1.400 -0.2704  0.1724  0.5908
  111MOL0     C14899   4.549   3.460   1.455  0.6491 -0.4194 -0.2580
  111MOL0     N14900   4.058   2.867   1.438  0.6830  0.1191  0.4293
  111MOL0     N14901   3.990   2.763   1.395 -0.2978 -0.5810  0.1913
  111MOL0     C14902   2.788   2.348   1.230 -0.6978 -0.7263 -0.1331
  111MOL0     C14903   2.644   2.338   1.225  0.0013 -0.4762  0.0808
  111MOL0     C14904   2.229   2.331   1.126 -0.1393  0.0701 -0.1099
  111MOL0     C14905   2.209   2.384   1.255  0.0415  0.4061 -0.2755
  111MOL0     C14906   2.078   2.385   1.310 -0.0752 -0.2725 -0.4793
  111MOL0     C14907   1.963   2.347   1.229 -0.2807 -0.2002 -0.2600
  111MOL0     O14908   1.844   2.354   1.295 -0.3482  0.1750 -0.0929
  111MOL0     C14909   1.742   2.260   1.261  0.5800  0.4130 -0.3140
  111MOL0     C14910   1.623   2.303   1.347 -0.1609  1.0361 -0.4918
  111MOL0     C14911   1.554   2.437   1.298  0.0628  0.6834  0.0190
  111MOL0     C14912   1.495   2.535   1.414  0.0622  0.4376 -0.2071
  111MOL0     C14913   1.395   2.459   1.493 -0.5428 -0.6983  1.4749
  111MOL0     C14914   1.311   2.400   1.552 -0.8952 -0.0497 -0.3464
  111MOL0     C14915   1.983   2.298   1.096  0.6309 -0.6003 -0.7423
  111MOL0     C14916   2.117   2.287   1.048  0.3900  0.1923 -0.7506
  111MOL0     C14917   2.131   2.257   0.899 -0.7746 -0.5803 -0.2089
  111MOL0     H14918   2.571   2.587   1.020  0.5258 -0.4974  0.6595
  111MOL0     H14919   2.808   2.608   0.999  0.8305 -0.0972  0.3700
  111MOL0     H14920   2.958   2.626   1.294 -0.6714 -1.2558  1.6086
  111MOL0     H14921   3.016   2.472   1.360  0.2597 -2.3741 -0.5115
  111MOL0     H14922   3.176   2.663   1.347  1.3963 -0.2702 -0.0223
  111MOL0     H14923   3.170   2.685   1.178 -0.1904 -0.4839 -0.9511
  111MOL0     H14924   3.283   2.479   1.133 -0.1886 -2.4001  0.3801
  111MOL0     H14925   3.290   2.431   1.308  1.9788 -0.7453 -1.1360
  111MOL0     H14926   3.445   2.669   1.205 -0.7950  1.9103  2.8867
  111MOL0     H14927   3.412   2.630   1.374 -4.0281  2.8163 -1.8643
  111MOL0     H14928   3.515   2.403   1.325 -2.2222  0.1635 -0.1106
  111MOL0     H14929   3.550   2.449   1.163 -1.1089 -0.2127  0.2001
  111MOL0     H14930   3.741   2.489   1.310 -0.3502  0.2539 -0.0061
  111MOL0     H14931   3.689   2.643   1.246  2.1720 -0.4112  0.5661
  111MOL0     H14932   3.628   2.532   1.527  2.7790 -3.2881 -1.9751
  111MOL0     H14933   3.618   2.710   1.484  2.1452  1.5516  0.5871
  111MOL0     H14934   3.814   2.631   1.615  0.4220  3.2473  1.4234
  111MOL0     H14935   3.869   2.542   1.473 -0.8608 -0.5337 -0.5954
  111MOL0     H14936   3.750   2.904   1.562 -1.9747 -1.3866 -1.3094
  111MOL0     H14937   3.920   3.151   1.574  2.2347  3.0506  4.8881
  111MOL0     H14938   4.023   3.071   1.686  0.6735  0.9789  0.2709
  111MOL0     H14939   4.222   3.090   1.526  0.1262 -0.2392  2.7417
  111MOL0     H14940   4.113   3.168   1.423 -0.3562  0.7080 -0.6410
  111MOL0     H14941   4.196   3.268   1.707 -1.0501  1.3030  0.1273
  111MOL0     H14942   4.093   3.358   1.599 -0.1853  0.7152 -0.1694
  111MOL0     H14943   4.314   3.340   1.432  1.2179 -0.0318  0.5905
  111MOL0     H14944   4.387   3.280   1.569  1.0517  2.3513  0.8556
  111MOL0     H14945   4.373   3.734   1.556  1.2989  1.4834 -1.7470
  111MOL0     H14946   4.544   3.855   1.466  0.4620 -0.0667  2.3426
  111MOL0     H14947   5.049   3.855   1.475 -1.8297  1.9986  2.3714
  111MOL0     H14948   5.232   3.963   1.400  1.1489  1.7084 -1.3802
  111MOL0     H14949   5.293   4.249   1.413 -1.7279 -0.7102  0.3104
  111MOL0     H14950   5.386   4.116   1.345 -1.1815 -0.5131  1.3140
  111MOL0     H14951   5.484   4.229   1.176 -1.0820 -1.0820  1.8365
  111MOL0     H14952   5.407   4.389   1.192  1.1892  1.4893  0.5564
  111MOL0     H14953   5.532   4.375   1.429  0.3096 -3.8054  0.9637
  111MOL0     H14954   5.637   4.254   1.353 -1.4224 -0.8094 -0.4699
  111MOL0     H14955   5.592   4.541   1.243  0.4538  3.0945  1.9903
  111MOL0     H14956   5.706   4.418   1.183  0.6588 -1.3315  1.7347
  111MOL0     H14957   5.810   4.421   1.426 -0.5290  1.4182  3.5053
  111MOL0     H14958   5.690   4.552   1.451 -0.1592 -0.5111  0.4344
  111MOL0     H14959   5.894   4.587   1.225 -0.8294  0.1109 -0.9879
  111MOL0     H14960   5.785   4.700   1.287 -0.5396 -1.5689 -1.2213
  111MOL0     H14961   5.912   4.688   1.522  1.5516  0.5323  0.3806
  111MOL0     H14962   5.981   4.772   1.382  0.0899  0.0217  0.7186
  111MOL0     H14963   6.047   4.494   1.496 -1.5266 -0.7155 -2.4842
  111MOL0     H14964   6.088   4.531   1.338  1.8130  2.6330 -0.7542
  111MOL0     H14965   4.979   4.161   1.095 -0.8853 -0.7244  0.6327
  111MOL0     H14966   4.800   4.063   1.186  0.2921  0.2251 -0.5722
  111MOL0     H14967   4.729   3.486   1.338  2.0473  0.8202  2.8752
  111MOL0     H14968   4.545   3.352   1.445 -2.0577 -0.6854  2.3606
  111MOL0     H14969   2.844   2.266   1.274 -1.4254 -0.9629  0.3580
  111MOL0     H14970   2.588   2.265   1.283 -0.4454  2.2276  3.3782
  111MOL0     H14971   2.275   2.432   1.327 -2.5197  2.3940  0.9287
  111MOL0     H14972   2.057   2.433   1.405 -0.2249 -0.0211 -0.6385
  111MOL0     H14973   1.768   2.155   1.275 -0.9373  0.1724  0.9474
  111MOL0     H14974   1.711   2.261   1.156 -4.1592  0.2135  0.8605
  111MOL0     H14975   1.669   2.320   1.444  2.0063 -2.0106 -0.8223
  111MOL0     H14976   1.560   2.214   1.351  2.6285 -1.0159  0.1958
  111MOL0     H14977   1.468   2.404   1.239  1.1451  0.5055 -1.5028
  111MOL0     H14978   1.616   2.504   1.237 -1.0404  2.7299  1.0212
  111MOL0     H14979   1.567   2.570   1.488 -0.1581  1.1100 -0.3079
  111MOL0     H14980   1.446   2.620   1.365  1.4799  0.3111 -1.9600
  111MOL0     H14981   1.249   2.327   1.599 -3.0256  2.0283  0.3015
  111MOL0     H14982   1.892   2.274   1.042 -4.0933  1.3081  5.2906
  111MOL0     H14983   2.197   2.170   0.888 -1.0025 -1.4705  3.7603
  111MOL0     H14984   2.033   2.238   0.854 -0.6720  0.9521 -1.1272
  111MOL0     H14985   2.189   2.339   0.855 -0.7188 -0.4977  0.0142
  112MOL0     O14986   6.545  10.152  11.222  0.0101  0.6287 -0.0859
  112MOL0     C14987   6.553  10.242  11.302  0.1574  0.2394  0.0494
  112MOL0     O14988   6.589  10.227  11.435  0.1855 -0.4915  0.0168
  112MOL0     C14989   6.614  10.100  11.479 -0.3925 -0.8691  0.6178
  112MOL0     C14990   6.712  10.020  11.412 -0.5901  0.3541 -0.3068
  112MOL0     C14991   6.738   9.894  11.464 -0.3971 -0.2780 -0.2772
  112MOL0     C14992   6.663   9.845  11.582  0.4435 -0.4414  0.6283
  112MOL0     O14993   6.688   9.729  11.652 -0.1016  0.7959 -0.2729
  112MOL0     C14994   6.811   9.663  11.622 -0.5080 -0.3220  0.4817
  112MOL0     C14995   6.835   9.554  11.726  0.5320 -0.2548  0.3880
  112MOL0     C14996   6.729   9.441  11.747 -0.2306 -0.9676  0.6196
  112MOL0     C14997   6.775   9.330  11.842 -0.9439 -0.3180  0.1706
  112MOL0     C14998   6.749   9.345  11.986 -0.2496 -0.9539 -0.4743
  112MOL0     C14999   6.784   9.215  12.043  0.9178 -0.2726 -0.4454
  112MOL0     C15000   6.777   9.228  12.200 -0.4657 -0.0742 -0.2059
  112MOL0     C15001   6.785   9.091  12.280 -1.4880 -0.7941  0.4884
  112MOL0     N15002   6.650   9.032  12.288 -0.4484 -0.6320  0.3644
  112MOL0     C15003   6.533   9.087  12.336 -0.2408  0.1638  0.1677
  112MOL0     C15004   6.445   8.985  12.308  1.1823  0.3057 -0.8000
  112MOL0     C15005   6.298   8.993  12.324 -1.0559 -0.6558 -0.3033
  112MOL0     C15006   6.238   8.942  12.458 -0.5763 -0.4567 -0.2013
  112MOL0     C15007   6.097   8.993  12.474  0.1028 -0.3551 -0.2548
  112MOL0     C15008   5.993   8.924  12.382  0.2463 -0.4093  0.9557
  112MOL0     O15009   5.995   8.991  12.254  0.5399 -0.6101  0.6361
  112MOL0     C15010   5.934   9.118  12.243 -1.2383  0.3590 -0.5936
  112MOL0     C15011   5.944   9.186  12.119 -0.2209  0.3065 -0.6872
  112MOL0     C15012   5.875   9.310  12.106  0.0682 -0.0597 -0.0882
  112MOL0     C15013   5.799   9.371  12.206 -0.4295  0.2102  0.3086
  112MOL0     C15014   5.735   9.505  12.187  0.0408 -0.5989 -1.3152
  112MOL0     O15015   5.692   9.527  12.057 -0.2891 -0.3859  0.1971
  112MOL0     C15016   5.647   9.651  12.010 -0.5597 -0.5007  1.5905
  112MOL0     C15017   5.656   9.774  12.081  0.5802  0.1670 -0.1101
  112MOL0     C15018   5.588   9.886  12.034  0.1499 -0.0246 -0.8429
  112MOL0     C15019   5.508   9.874  11.920 -0.9425 -0.7179 -0.6438
  112MOL0     O15020   5.452   9.987  11.871  1.1744 -0.1036 -1.1663
  112MOL0     C15021   5.317  10.016  11.925 -0.5887  0.1287 -0.2058
  112MOL0     C15022   5.218  10.051  11.820 -0.1319 -0.4293 -0.4578
  112MOL0     C15023   5.182   9.944  11.713 -0.6075  0.7164  0.0269
  112MOL0     C15024   5.133   9.806  11.762 -0.1217  0.2179  0.2659
  112MOL0     C15025   5.069   9.716  11.654 -0.8377  0.5753 -0.0495
  112MOL0     C15026   4.983   9.601  11.697 -0.7397  0.4133  0.5078
  112MOL0     C15027   5.067   9.490  11.776 -0.5746  0.2203 -0.0694
  112MOL0     C15028   4.998   9.360  11.785  0.2635  0.7390  0.1457
  112MOL0    Cl15029   5.112   9.230  11.824  0.0323  0.1411  0.3120
  112MOL0     C15030   5.503   9.758  11.844 -0.8245 -0.5680  0.8729
  112MOL0     C15031   5.566   9.645  11.897 -0.6084  0.4737  0.5422
  112MOL0     O15032   5.704   9.577  12.281  0.0427  1.0107 -0.4690
  112MOL0     C15033   5.803   9.301  12.328 -0.5697  0.1092  0.0551
  112MOL0     C15034   5.872   9.182  12.352 -0.5164  0.4773  0.4705
  112MOL0     N15035   6.505   8.874  12.247 -0.6496  0.2113  0.1890
  112MOL0     N15036   6.630   8.910  12.236 -0.0793  0.4165  1.4497
  112MOL0     C15037   6.549   9.915  11.621 -0.2248 -0.3631 -0.0698
  112MOL0     C15038   6.541  10.053  11.581 -0.0524  0.4739  0.4736
  112MOL0     C15039   6.525  10.384  11.268 -0.0056  0.2411  0.3869
  112MOL0     C15040   6.461  10.477  11.361 -0.4344  0.9979 -0.3020
  112MOL0     C15041   6.426  10.609  11.323  0.0800  1.0439  1.3108
  112MOL0     C15042   6.447  10.656  11.193 -0.8277 -0.5631 -0.7080
  112MOL0     O15043   6.401  10.789  11.189  0.0672  1.0905 -0.3478
  112MOL0     C15044   6.409  10.853  11.055 -0.5357  0.1506 -0.7145
  112MOL0     C15045   6.350  10.998  11.056  0.2055 -0.5290  0.0061
  112MOL0     C15046   6.375  11.071  10.929 -0.1979  0.0680 -0.9025
  112MOL0     C15047   6.360  11.217  10.952  0.0509 -0.0588  0.1617
  112MOL0     C15048   6.471  11.270  11.041  0.3556  0.4884  0.1045
  112MOL0     C15049   6.570  11.315  11.105 -0.2532 -0.4350  0.3715
  112MOL0     C15050   6.505  10.576  11.104 -0.3702  0.3902  0.2607
  112MOL0     C15051   6.547  10.438  11.135  0.1240 -0.2565 -0.1451
  112MOL0     C15052   6.598  10.354  11.017 -0.7311  0.2574  0.1815
  112MOL0     H15053   6.773  10.052  11.328 -2.3833 -0.0168 -1.8158
  112MOL0     H15054   6.808   9.833  11.408 -0.3201 -0.5540  0.1159
  112MOL0     H15055   6.792   9.617  11.524 -3.3323 -2.1540  1.7527
  112MOL0     H15056   6.894   9.734  11.623 -0.9736  0.6934 -4.6018
  112MOL0     H15057   6.867   9.617  11.809  3.1954  0.9077 -1.3709
  112MOL0     H15058   6.923   9.501  11.690 -0.0405 -0.5898 -0.5705
  112MOL0     H15059   6.705   9.389  11.654  3.6285 -0.1341 -1.0485
  112MOL0     H15060   6.638   9.485  11.790  0.3367  2.2182 -1.0806
  112MOL0     H15061   6.727   9.239  11.805 -3.3950  1.2090 -0.6704
  112MOL0     H15062   6.884   9.326  11.836 -0.8787  2.3007 -2.7054
  112MOL0     H15063   6.815   9.424  12.022 -2.8676  0.4904  1.4383
  112MOL0     H15064   6.642   9.366  11.995 -0.1989 -0.5413 -0.8218
  112MOL0     H15065   6.713   9.137  12.013 -1.9936  1.4474  1.3712
  112MOL0     H15066   6.888   9.185  12.030  2.0018  2.5436  0.9026
  112MOL0     H15067   6.689   9.287  12.227 -0.3700  0.0782 -0.2193
  112MOL0     H15068   6.866   9.289  12.221 -0.8722  0.2894  0.4960
  112MOL0     H15069   6.854   9.022  12.230 -0.1776  1.7204 -1.3975
  112MOL0     H15070   6.818   9.102  12.383  2.3415 -2.7900 -0.3323
  112MOL0     H15071   6.505   9.178  12.388 -2.9542 -0.1128 -0.6340
  112MOL0     H15072   6.273   9.095  12.292 -1.7913 -1.0567 -1.0351
  112MOL0     H15073   6.278   8.919  12.246  0.1721 -0.0258 -1.2447
  112MOL0     H15074   6.252   8.833  12.454  2.0581 -0.1541 -4.0878
  112MOL0     H15075   6.293   8.974  12.548 -2.2015  1.6765  0.1146
  112MOL0     H15076   6.100   9.099  12.449  0.3052 -0.4023 -0.4342
  112MOL0     H15077   6.064   8.983  12.578  0.3143 -1.5573 -0.2856
  112MOL0     H15078   5.887   8.929  12.407  0.4772 -3.2619  3.0825
  112MOL0     H15079   6.030   8.821  12.372 -0.4649 -0.5421 -0.5969
  112MOL0     H15080   6.000   9.135  12.042 -1.3640 -0.9473 -0.7137
  112MOL0     H15081   5.887   9.345  12.004 -0.1716  0.0975 -0.0638
  112MOL0     H15082   5.723   9.775  12.167  0.1818  1.0717  0.2127
  112MOL0     H15083   5.609   9.978  12.088  0.6504  0.4193 -1.7609
  112MOL0     H15084   5.278   9.933  11.985 -0.8893  1.2084  1.1174
  112MOL0     H15085   5.332  10.101  11.991  0.3389 -0.3928  0.2746
  112MOL0     H15086   5.129  10.074  11.879  0.1709 -1.9952  0.6703
  112MOL0     H15087   5.243  10.135  11.755 -2.0321 -0.1597 -0.8899
  112MOL0     H15088   5.099   9.985  11.655 -0.6829  2.0443  1.0283
  112MOL0     H15089   5.274   9.935  11.654  0.1597  2.8588  0.7952
  112MOL0     H15090   5.043   9.836  11.815  0.0145 -1.3897  1.4460
  112MOL0     H15091   5.202   9.744  11.820 -1.0493  0.7151  1.9782
  112MOL0     H15092   5.143   9.675  11.584 -0.6348 -2.4996  1.7759
  112MOL0     H15093   5.007   9.780  11.591  1.2232 -0.3287 -3.2380
  112MOL0     H15094   4.899   9.628  11.761 -0.1766 -0.3774  1.6273
  112MOL0     H15095   4.960   9.560  11.599  0.3256  0.8904  0.0452
  112MOL0     H15096   5.088   9.532  11.875 -1.6867  1.9376 -0.5195
  112MOL0     H15097   5.165   9.482  11.728  1.0207  1.9052  2.5910
  112MOL0     H15098   4.913   9.358  11.854  0.2423  0.0122  0.1169
  112MOL0     H15099   4.956   9.329  11.688 -0.7780 -0.7112  1.0112
  112MOL0     H15100   5.443   9.744  11.755  1.7981  1.1262 -1.3347
  112MOL0     H15101   5.541   9.551  11.849 -1.3641 -0.8375  3.3224
  112MOL0     H15102   5.751   9.335  12.417 -1.9292 -0.8011 -0.3785
  112MOL0     H15103   5.863   9.141  12.452  1.3856  0.3278  0.6079
  112MOL0     H15104   6.505   9.880  11.713 -0.5733  1.4305  0.4868
  112MOL0     H15105   6.467  10.122  11.620  3.8653  5.2015  0.4571
  112MOL0     H15106   6.435  10.438  11.459 -1.0495  0.8912 -0.4968
  112MOL0     H15107   6.384  10.673  11.399  3.0417  4.5528  0.2976
  112MOL0     H15108   6.366  10.795  10.972  0.8650 -1.8294 -0.1416
  112MOL0     H15109   6.514  10.865  11.027 -0.4335 -1.9556 -1.4214
  112MOL0     H15110   6.392  11.044  11.146  1.4518  1.8240 -1.6442
  112MOL0     H15111   6.242  10.993  11.071 -0.0845  0.5976 -1.4116
  112MOL0     H15112   6.305  11.028  10.856  1.9921 -1.1716 -2.3695
  112MOL0     H15113   6.474  11.050  10.887  0.0479  1.8144 -1.2548
  112MOL0     H15114   6.351  11.274  10.859  0.0339  0.2733  0.3677
  112MOL0     H15115   6.269  11.228  11.011 -0.9421  1.1012 -1.5202
  112MOL0     H15116   6.662  11.341  11.153 -2.3369  0.7623  4.1634
  112MOL0     H15117   6.536  10.612  11.006  0.2472 -1.0326 -0.0922
  112MOL0     H15118   6.700  10.324  11.043 -1.1645 -0.3586  1.2767
  112MOL0     H15119   6.540  10.265  10.991 -0.4117  0.7623 -2.4645
  112MOL0     H15120   6.612  10.418  10.930 -0.2643  1.5853  1.2003
  113MOL0     O15121   7.057   1.938   7.102 -0.3112 -0.2013  0.0638
  113MOL0     C15122   7.046   1.859   7.007  0.2589 -0.9464 -0.2862
  113MOL0     O15123   6.929   1.809   6.968  0.2279  0.0922  0.3813
  113MOL0     C15124   6.809   1.881   6.971  1.2764  0.5397 -0.1246
  113MOL0     C15125   6.806   2.020   6.959  1.1669 -0.8916 -0.0695
  113MOL0     C15126   6.688   2.094   6.951  0.1175 -0.2082  0.5743
  113MOL0     C15127   6.562   2.026   6.953 -0.1640  0.9468  0.1955
  113MOL0     O15128   6.449   2.098   6.934  0.3190  0.7055  0.1210
  113MOL0     C15129   6.355   2.141   7.032  0.1974 -0.0803 -0.7759
  113MOL0     C15130   6.233   2.052   7.046 -0.2411 -0.2941  0.0425
  113MOL0     C15131   6.153   2.088   7.170  0.3908 -0.0112 -0.5382
  113MOL0     C15132   6.027   1.997   7.165 -0.0162  0.0321 -0.3214
  113MOL0     C15133   5.946   1.992   7.298 -0.4166 -0.0219 -0.3351
  113MOL0     C15134   5.865   1.856   7.302 -0.2768 -0.0686 -0.6828
  113MOL0     C15135   5.948   1.722   7.308 -0.5767 -0.1153  0.6376
  113MOL0     C15136   5.885   1.630   7.411 -0.0072  0.3048  0.5389
  113MOL0     N15137   5.966   1.503   7.418 -0.0585 -0.0268  0.4774
  113MOL0     C15138   6.005   1.455   7.533 -0.8418 -0.3202  0.0370
  113MOL0     C15139   6.059   1.333   7.497 -0.1364 -0.4814  0.2498
  113MOL0     C15140   6.125   1.236   7.590 -0.4102 -0.7744  0.6874
  113MOL0     C15141   6.278   1.251   7.587  0.0506  0.0987  0.7350
  113MOL0     C15142   6.356   1.170   7.698 -0.5138 -0.0653  0.8910
  113MOL0     C15143   6.347   1.017   7.667  0.4802 -0.5640  0.9181
  113MOL0     O15144   6.415   0.945   7.759  0.9166 -0.4032  0.1654
  113MOL0     C15145   6.553   0.925   7.758  0.4681 -0.3891  0.0100
  113MOL0     C15146   6.627   0.888   7.645 -0.4048 -0.5021  0.7200
  113MOL0     C15147   6.758   0.869   7.657 -1.0885 -0.2540  0.1125
  113MOL0     C15148   6.834   0.881   7.769 -0.5493 -0.7728  0.0779
  113MOL0     C15149   6.978   0.857   7.788  0.0235  0.1437  0.0903
  113MOL0     O15150   7.023   0.873   7.911  0.1939 -0.3693  0.3390
  113MOL0     C15151   7.159   0.873   7.934 -0.3497 -0.0531  0.1753
  113MOL0     C15152   7.211   0.977   8.017 -0.4647  0.6089 -0.2775
  113MOL0     C15153   7.352   0.975   8.040 -0.6722  0.4943  0.4573
  113MOL0     C15154   7.448   0.883   7.994  0.6142  0.3802 -0.8558
  113MOL0     O15155   7.586   0.899   8.023 -0.0687  0.2470 -0.4499
  113MOL0     C15156   7.634   0.990   8.121  0.6048 -0.2757 -0.2632
  113MOL0     C15157   7.787   0.970   8.136  0.3868  0.8669 -0.1338
  113MOL0     C15158   7.813   0.861   8.241 -0.8936 -0.0512  0.3951
  113MOL0     C15159   7.966   0.845   8.250 -0.3569 -0.2240  0.0100
  113MOL0     C15160   8.026   0.955   8.342 -1.3463  0.1306  0.1309
  113MOL0     C15161   8.165   0.931   8.393 -0.7309 -0.0624  0.1839
  113MOL0     C15162   8.266   0.921   8.277  0.4312 -0.2833 -0.3562
  113MOL0     C15163   8.324   1.061   8.234  0.7777  0.3748  0.5403
  113MOL0    Cl15164   8.417   1.133   8.364  0.0898  0.0279  0.1310
  113MOL0     C15165   7.396   0.778   7.917  0.1398  0.0163  0.6465
  113MOL0     C15166   7.255   0.778   7.885 -0.8802  0.2237 -0.2002
  113MOL0     O15167   7.045   0.831   7.692 -0.4231  0.3531  0.1465
  113MOL0     C15168   6.762   0.933   7.883  0.1258 -0.1841  0.4850
  113MOL0     C15169   6.621   0.950   7.878 -1.0321 -0.6272 -0.2189
  113MOL0     N15170   6.041   1.322   7.355 -0.3420 -0.0833 -0.0886
  113MOL0     N15171   5.997   1.432   7.312  0.2027 -0.0836 -0.4892
  113MOL0     C15172   6.558   1.886   6.970 -0.0267 -0.8240 -0.1379
  113MOL0     C15173   6.679   1.814   6.977  0.2489  0.6915  0.0204
  113MOL0     C15174   7.170   1.829   6.930  0.3963 -0.0940 -0.0310
  113MOL0     C15175   7.145   1.778   6.804  0.2233 -0.6350  0.4805
  113MOL0     C15176   7.242   1.755   6.719  0.9538 -0.2126  0.2967
  113MOL0     C15177   7.372   1.773   6.760 -0.0112  0.4980 -0.2868
  113MOL0     O15178   7.473   1.764   6.663  0.0048  0.4563  0.1763
  113MOL0     C15179   7.590   1.682   6.686  1.3341  0.5425 -0.7697
  113MOL0     C15180   7.576   1.525   6.703  0.0912  0.2233 -0.7657
  113MOL0     C15181   7.665   1.451   6.797  0.3834  0.0925  0.8016
  113MOL0     C15182   7.809   1.496   6.812 -0.7668 -0.7980  0.3477
  113MOL0     C15183   7.905   1.399   6.867 -0.4444 -0.9662 -0.7338
  113MOL0     C15184   7.984   1.325   6.930  0.2368  0.2924  1.0610
  113MOL0     C15185   7.402   1.812   6.891  0.4840 -0.3653 -0.1431
  113MOL0     C15186   7.296   1.839   6.984 -0.6624 -1.0900  0.6536
  113MOL0     C15187   7.323   1.861   7.131 -0.4751 -0.9656 -0.0420
  113MOL0     H15188   6.896   2.074   6.931 -1.4487  3.5418 -0.8608
  113MOL0     H15189   6.693   2.202   6.947 -2.8083  0.2838  4.7295
  113MOL0     H15190   6.409   2.147   7.127  1.6884 -1.2492 -1.5095
  113MOL0     H15191   6.322   2.241   7.005 -0.1212  0.7642  2.3015
  113MOL0     H15192   6.260   1.947   7.059 -1.5941 -0.5197  1.2010
  113MOL0     H15193   6.175   2.054   6.953 -0.3321  4.5687 -0.0337
  113MOL0     H15194   6.129   2.195   7.169  1.7899  0.3247 -1.9451
  113MOL0     H15195   6.220   2.062   7.253 -0.5994 -1.0749 -0.0471
  113MOL0     H15196   5.964   2.010   7.077  0.3923 -3.8669 -1.3696
  113MOL0     H15197   6.067   1.896   7.152  1.8739  0.8300 -1.1136
  113MOL0     H15198   6.017   1.993   7.381 -2.1049  1.0098  1.1601
  113MOL0     H15199   5.880   2.079   7.304  3.1721  2.8884  0.4178
  113MOL0     H15200   5.809   1.863   7.396  0.9385 -1.1143  0.1541
  113MOL0     H15201   5.790   1.857   7.221 -0.1728 -0.8746 -0.7959
  113MOL0     H15202   6.053   1.733   7.335 -0.3724 -2.5612  1.0104
  113MOL0     H15203   5.945   1.681   7.207 -0.3270  2.4676 -0.5143
  113MOL0     H15204   5.875   1.681   7.508 -2.3691  3.6718 -1.2800
  113MOL0     H15205   5.782   1.601   7.385 -0.3186  1.9801 -0.1719
  113MOL0     H15206   5.989   1.507   7.627 -3.7487 -2.2445  0.7553
  113MOL0     H15207   6.096   1.249   7.694  0.3238 -4.0830  1.4021
  113MOL0     H15208   6.090   1.141   7.549  0.1409  0.1204 -2.1216
  113MOL0     H15209   6.306   1.227   7.484  1.6948  3.2510  0.3479
  113MOL0     H15210   6.300   1.357   7.602  0.3273 -0.2271  3.1047
  113MOL0     H15211   6.302   1.183   7.792 -0.4255  0.6137  0.8502
  113MOL0     H15212   6.453   1.221   7.700 -2.6557  4.6090 -1.1364
  113MOL0     H15213   6.376   0.983   7.567  0.8845  0.2131  0.7680
  113MOL0     H15214   6.241   0.993   7.684  0.3080  0.8671  2.0168
  113MOL0     H15215   6.589   0.871   7.545  2.6583 -0.9506 -0.4959
  113MOL0     H15216   6.804   0.833   7.565 -1.2118 -1.6776  0.5796
  113MOL0     H15217   7.147   1.060   8.042 -0.4177  0.7309 -0.5631
  113MOL0     H15218   7.382   1.066   8.091 -2.3310 -0.2425  2.9767
  113MOL0     H15219   7.608   1.087   8.078  2.5714 -0.7334 -2.6882
  113MOL0     H15220   7.588   0.990   8.220 -1.8021 -1.7890 -1.2740
  113MOL0     H15221   7.828   0.925   8.045  1.4332  1.2665  0.1245
  113MOL0     H15222   7.829   1.068   8.160 -2.1674  2.3322 -1.2437
  113MOL0     H15223   7.767   0.886   8.337 -1.6758 -0.7386  0.2146
  113MOL0     H15224   7.768   0.766   8.210 -2.2160 -0.6163  3.5839
  113MOL0     H15225   8.015   0.820   8.155  0.1871 -1.8594  0.6914
  113MOL0     H15226   7.976   0.748   8.299 -0.9658  0.2143  1.0188
  113MOL0     H15227   7.970   0.962   8.436  0.5219  2.0572  1.1867
  113MOL0     H15228   8.017   1.053   8.293 -0.9764 -0.1181 -0.4409
  113MOL0     H15229   8.197   1.018   8.451 -2.7334  0.7126  0.2150
  113MOL0     H15230   8.162   0.836   8.447 -0.7693  0.2840  0.7862
  113MOL0     H15231   8.206   0.891   8.190 -0.5838 -1.6880  0.7915
  113MOL0     H15232   8.347   0.852   8.303  0.9979  0.4948 -0.0157
  113MOL0     H15233   8.398   1.057   8.154 -1.2290  1.6973 -1.5476
  113MOL0     H15234   8.247   1.131   8.200  2.1326  2.4859  1.5675
  113MOL0     H15235   7.467   0.710   7.870  0.9308  1.0730  0.2927
  113MOL0     H15236   7.241   0.691   7.822  3.8412 -0.4066 -0.7696
  113MOL0     H15237   6.812   0.957   7.977 -3.8653  0.1997  2.7773
  113MOL0     H15238   6.563   0.983   7.964  1.7515  2.2004  0.7760
  113MOL0     H15239   6.460   1.841   6.981 -1.0989  1.3041 -0.4383
  113MOL0     H15240   6.683   1.712   7.015 -2.6854  1.1640  1.9037
  113MOL0     H15241   7.042   1.772   6.769  0.4155 -1.3620  0.0337
  113MOL0     H15242   7.229   1.727   6.615 -2.2938  0.8261  0.3356
  113MOL0     H15243   7.625   1.715   6.784  0.7968  1.2535 -0.8092
  113MOL0     H15244   7.669   1.704   6.613  2.2780  3.4004  0.9664
  113MOL0     H15245   7.582   1.479   6.604  0.5135  2.7737 -2.0188
  113MOL0     H15246   7.473   1.514   6.738  1.2026  1.4851  3.5872
  113MOL0     H15247   7.662   1.343   6.786 -0.4511 -0.0034  1.7224
  113MOL0     H15248   7.616   1.469   6.894 -0.7733  0.2594  0.2044
  113MOL0     H15249   7.842   1.520   6.711 -1.2972 -0.3477  0.2813
  113MOL0     H15250   7.822   1.585   6.874  1.0383  1.6795 -3.2378
  113MOL0     H15251   8.045   1.257   6.987  3.2547  1.4455 -0.5751
  113MOL0     H15252   7.510   1.815   6.908  0.5276  0.3628 -0.5418
  113MOL0     H15253   7.278   1.778   7.186  0.3741 -1.3703  0.0621
  113MOL0     H15254   7.431   1.862   7.150  0.0281  4.0093 -1.7147
  113MOL0     H15255   7.287   1.959   7.164  1.7560  0.2976 -1.0608
  114MOL0     O15256   7.171   9.852   2.039 -0.1482 -0.3507 -0.1874
  114MOL0     C15257   7.187   9.834   1.922 -0.0137 -0.4127 -0.1498
  114MOL0     O15258   7.241   9.718   1.872  0.2447 -0.6444  0.3706
  114MOL0     C15259   7.225   9.593   1.929  0.4150 -0.5975  0.6920
  114MOL0     C15260   7.327   9.494   1.907 -0.1556  0.1247  0.9658
  114MOL0     C15261   7.313   9.368   1.971  0.6960  0.1408 -0.0664
  114MOL0     C15262   7.203   9.343   2.051  0.3470 -0.5188  0.3769
  114MOL0     O15263   7.211   9.226   2.121 -0.2336 -0.2243  0.0342
  114MOL0     C15264   7.085   9.167   2.160  0.6656  0.7563 -0.0966
  114MOL0     C15265   7.096   9.023   2.193  0.1259  0.6861  0.2277
  114MOL0     C15266   7.172   8.999   2.326  0.2068  0.6459 -0.9068
  114MOL0     C15267   7.200   8.854   2.343 -0.5792 -0.5622 -0.2531
  114MOL0     C15268   7.302   8.840   2.459 -1.0612 -1.1708 -0.3325
  114MOL0     C15269   7.339   8.703   2.524  0.6099  0.2447 -0.2766
  114MOL0     C15270   7.456   8.638   2.441  0.3005  0.3105 -0.7341
  114MOL0     C15271   7.602   8.685   2.486  0.5974  0.5127  0.4031
  114MOL0     N15272   7.685   8.663   2.366  0.2151 -0.4323 -0.0415
  114MOL0     C15273   7.723   8.768   2.283  0.7190  0.1358  0.4578
  114MOL0     C15274   7.817   8.710   2.212 -1.2908  0.9240  0.3325
  114MOL0     C15275   7.898   8.776   2.103  0.4250  0.3827  1.0282
  114MOL0     C15276   7.802   8.824   1.988 -0.1268 -0.1614 -1.0017
  114MOL0     C15277   7.702   8.725   1.931 -0.0079 -0.4109  0.3909
  114MOL0     C15278   7.662   8.766   1.789 -0.3561  0.7422  0.5049
  114MOL0     O15279   7.657   8.906   1.770  0.4530 -0.4180 -0.1890
  114MOL0     C15280   7.534   8.953   1.742  0.2132  0.0302  0.0521
  114MOL0     C15281   7.412   8.921   1.806 -0.1915 -0.4865  0.1665
  114MOL0     C15282   7.301   8.999   1.782 -0.1818 -0.6378  0.0158
  114MOL0     C15283   7.298   9.111   1.689 -0.8974  0.8973 -0.2269
  114MOL0     C15284   7.188   9.207   1.675 -0.3930  0.3750  0.5992
  114MOL0     O15285   7.184   9.285   1.569  0.5177  0.3544  0.0114
  114MOL0     C15286   7.071   9.365   1.557  0.6383  0.2405  0.5194
  114MOL0     C15287   6.982   9.321   1.458 -0.0305  0.0204 -0.4308
  114MOL0     C15288   6.869   9.404   1.426 -0.5529 -0.5538 -0.0626
  114MOL0     C15289   6.832   9.511   1.505  0.2599  0.0305  0.7531
  114MOL0     O15290   6.718   9.584   1.481  0.3782  0.2848 -0.4300
  114MOL0     C15291   6.634   9.588   1.366  0.5611  0.1595 -0.4453
  114MOL0     C15292   6.525   9.702   1.379 -1.0770  0.0264 -0.1678
  114MOL0     C15293   6.395   9.682   1.290  0.9761 -0.8409 -0.3733
  114MOL0     C15294   6.328   9.822   1.269 -0.7561 -0.1156 -0.2284
  114MOL0     C15295   6.263   9.895   1.388 -0.0250  0.1852  0.5832
  114MOL0     C15296   6.203  10.035   1.343 -0.6242  0.3388 -0.6084
  114MOL0     C15297   6.131  10.095   1.466  0.0114 -0.3005  0.6017
  114MOL0     C15298   6.062  10.226   1.437  0.3037  0.0834 -0.7772
  114MOL0    Cl15299   6.173  10.361   1.397 -0.4234  0.0804 -0.4845
  114MOL0     C15300   6.918   9.543   1.611 -0.0650 -0.2184  0.7196
  114MOL0     C15301   7.041   9.475   1.636 -0.7244  0.0481 -0.9844
  114MOL0     O15302   7.090   9.181   1.742  0.6333 -0.4961  0.0352
  114MOL0     C15303   7.415   9.128   1.618  0.6500 -0.4517 -0.2118
  114MOL0     C15304   7.531   9.054   1.644 -0.7666  0.1688  0.3926
  114MOL0     N15305   7.840   8.579   2.246  1.2041  0.1886  0.1764
  114MOL0     N15306   7.760   8.552   2.340 -1.1529  0.1100  0.4290
  114MOL0     C15307   7.103   9.442   2.060  0.2838  0.1764  0.3680
  114MOL0     C15308   7.103   9.561   1.991 -0.8878 -0.2441 -0.4226
  114MOL0     C15309   7.141   9.940   1.833  0.3525  0.2159 -0.0279
  114MOL0     C15310   7.117   9.911   1.696  0.5159  0.1479 -0.2206
  114MOL0     C15311   7.072  10.006   1.602  0.4152 -0.5758 -0.4212
  114MOL0     C15312   7.035  10.140   1.642 -0.5797  0.7584 -0.3438
  114MOL0     O15313   6.992  10.236   1.551 -0.4093 -0.4274 -0.0561
  114MOL0     C15314   6.965  10.365   1.601 -0.1796 -0.3797  0.4557
  114MOL0     C15315   6.905  10.453   1.497 -0.5666  0.1295 -0.2839
  114MOL0     C15316   6.901  10.604   1.543  0.1750 -0.4615 -0.4651
  114MOL0     C15317   7.031  10.664   1.566 -0.1761 -0.5476 -0.4633
  114MOL0     C15318   7.014  10.817   1.553 -0.1228  0.5662  0.0746
  114MOL0     C15319   7.011  10.939   1.545  1.4772 -0.8620  0.6271
  114MOL0     C15320   7.058  10.168   1.776  0.7038 -0.2398  0.5283
  114MOL0     C15321   7.108  10.081   1.868  0.2489 -0.1235  0.4185
  114MOL0     C15322   7.145  10.147   1.998  1.0397  0.5448  0.0820
  114MOL0     H15323   7.398   9.525   1.831  0.1048  2.5483  2.1119
  114MOL0     H15324   7.389   9.290   1.966 -1.0795 -1.5847 -1.8291
  114MOL0     H15325   7.056   9.224   2.249 -1.2668 -2.9150  1.8487
  114MOL0     H15326   7.001   9.178   2.091 -0.1386  0.8619  0.8758
  114MOL0     H15327   7.144   8.971   2.109 -2.8935 -3.4546  0.7544
  114MOL0     H15328   7.000   8.977   2.218  0.4294  1.0611  2.2125
  114MOL0     H15329   7.109   9.036   2.407  1.5991 -1.1820  1.1140
  114MOL0     H15330   7.267   9.051   2.311  0.6404 -0.6624 -3.4511
  114MOL0     H15331   7.111   8.803   2.380 -0.7330  0.4457  0.8391
  114MOL0     H15332   7.245   8.807   2.255 -1.0469 -1.4559 -0.0253
  114MOL0     H15333   7.390   8.894   2.423 -0.1760 -1.2454  1.6219
  114MOL0     H15334   7.268   8.904   2.540  0.5971  1.0665 -1.2949
  114MOL0     H15335   7.368   8.715   2.629  1.6941  0.1558 -0.5552
  114MOL0     H15336   7.256   8.632   2.521 -0.8083  1.8428 -0.4109
  114MOL0     H15337   7.451   8.657   2.333  0.7189  1.1602 -0.6057
  114MOL0     H15338   7.447   8.530   2.457 -4.1975  1.0077  4.2895
  114MOL0     H15339   7.608   8.787   2.524  5.7432  0.9753 -0.9074
  114MOL0     H15340   7.636   8.628   2.573  0.4866  0.2505  0.2766
  114MOL0     H15341   7.684   8.869   2.267  0.2776 -0.3037 -1.6335
  114MOL0     H15342   7.947   8.859   2.153  2.0364 -0.0896  0.3216
  114MOL0     H15343   7.978   8.714   2.061 -0.3397  0.6302 -0.9373
  114MOL0     H15344   7.741   8.906   2.027  2.0875  0.2751  1.8868
  114MOL0     H15345   7.868   8.874   1.916  0.8421  2.2124  1.3690
  114MOL0     H15346   7.610   8.739   1.988  0.5348 -2.4874  1.9204
  114MOL0     H15347   7.737   8.621   1.926  0.7525 -0.1496  0.1482
  114MOL0     H15348   7.568   8.719   1.759  0.2047  0.5006 -0.9886
  114MOL0     H15349   7.736   8.726   1.719 -2.8426 -1.6340 -0.9711
  114MOL0     H15350   7.416   8.853   1.890 -0.3267  1.2418  1.6412
  114MOL0     H15351   7.216   8.988   1.849 -0.9046 -2.2829 -1.0903
  114MOL0     H15352   7.016   9.232   1.405 -1.4273 -1.1663  0.5706
  114MOL0     H15353   6.821   9.360   1.339  2.0157 -2.5761 -0.5944
  114MOL0     H15354   6.693   9.613   1.277  0.6363 -2.2547 -1.1449
  114MOL0     H15355   6.594   9.486   1.356  0.7542 -0.0295  0.6097
  114MOL0     H15356   6.489   9.713   1.482  2.7581 -0.2294  1.3663
  114MOL0     H15357   6.577   9.797   1.370  2.4848 -1.8420 -1.0439
  114MOL0     H15358   6.421   9.647   1.189 -3.8292 -0.5376 -1.9711
  114MOL0     H15359   6.336   9.602   1.337  2.5823 -0.5846  2.2750
  114MOL0     H15360   6.261   9.813   1.183 -1.6535  2.1024  0.1853
  114MOL0     H15361   6.392   9.901   1.229 -1.5820  0.4977 -0.3574
  114MOL0     H15362   6.338   9.928   1.461 -1.7542  0.6648  2.2304
  114MOL0     H15363   6.193   9.824   1.433  1.1735 -3.1741 -2.3984
  114MOL0     H15364   6.282  10.106   1.316  0.8354 -0.6677  0.7814
  114MOL0     H15365   6.131  10.023   1.262 -1.9649 -2.3215  0.8426
  114MOL0     H15366   6.200  10.118   1.548 -1.3294  3.8977  0.7510
  114MOL0     H15367   6.057  10.020   1.497  2.8616 -2.7613  2.0172
  114MOL0     H15368   5.990  10.209   1.356 -1.6350  0.3658  0.7944
  114MOL0     H15369   6.000  10.248   1.525  0.9851 -3.1253  0.6222
  114MOL0     H15370   6.900   9.634   1.667  0.9880 -0.1249  0.9208
  114MOL0     H15371   7.099   9.520   1.717 -1.2939  0.1055 -0.6070
  114MOL0     H15372   7.424   9.209   1.547 -0.5347 -0.9107 -0.9077
  114MOL0     H15373   7.620   9.077   1.588 -1.8349 -1.8251 -2.3482
  114MOL0     H15374   7.014   9.431   2.120 -0.8914 -2.2632 -1.6362
  114MOL0     H15375   7.030   9.641   2.002 -1.0832 -0.5377  0.5434
  114MOL0     H15376   7.133   9.811   1.658 -2.0749  0.5397 -2.6662
  114MOL0     H15377   7.073   9.984   1.496  2.1827  1.4762 -0.9090
  114MOL0     H15378   7.051  10.423   1.635  0.0999  0.0478 -0.9347
  114MOL0     H15379   6.892  10.358   1.682  0.0774 -0.0642  0.7187
  114MOL0     H15380   6.800  10.424   1.488  0.0267 -2.9431  1.2995
  114MOL0     H15381   6.959  10.449   1.401  0.3200  4.1430 -0.1384
  114MOL0     H15382   6.846  10.614   1.637  1.0552 -0.1412  0.0245
  114MOL0     H15383   6.846  10.660   1.468 -1.4801 -1.9919 -0.4598
  114MOL0     H15384   7.077  10.640   1.662  0.5235  0.6892 -0.4756
  114MOL0     H15385   7.095  10.624   1.486 -0.9377 -1.8584 -0.4460
  114MOL0     H15386   7.018  11.045   1.530  1.2886 -1.2681 -3.5277
  114MOL0     H15387   7.016  10.259   1.819 -0.6817 -0.5219 -0.1705
  114MOL0     H15388   7.229  10.100   2.050  0.3277  0.3895  1.1294
  114MOL0     H15389   7.174  10.250   1.976  3.9447 -0.1601  0.1978
  114MOL0     H15390   7.054  10.140   2.059  1.5558  0.6514  0.8784
  115MOL0     O15391   9.338   2.299  10.149  0.2067  0.5122  0.5262
  115MOL0     C15392   9.306   2.381  10.067  0.8362 -0.1898 -0.0196
  115MOL0     O15393   9.357   2.503  10.056  0.2712  0.2580  0.7208
  115MOL0     C15394   9.445   2.556  10.147 -0.0812 -1.0442  0.3229
  115MOL0     C15395   9.538   2.482  10.222  0.2482 -0.0140  0.4184
  115MOL0     C15396   9.639   2.540  10.295 -0.7823 -1.0153  0.6268
  115MOL0     C15397   9.644   2.683  10.307  1.0541  0.3669 -0.5408
  115MOL0     O15398   9.729   2.759  10.381  0.2712 -0.5537 -0.4590
  115MOL0     C15399   9.801   2.680  10.481  0.5553 -0.3066 -0.3055
  115MOL0     C15400   9.709   2.642  10.602  0.7642  0.2682 -0.6228
  115MOL0     C15401   9.784   2.554  10.706  0.9758  0.7139  0.2837
  115MOL0     C15402   9.708   2.552  10.840 -0.3964  0.6572 -0.3911
  115MOL0     C15403   9.722   2.424  10.915 -0.9070  0.2191 -0.3497
  115MOL0     C15404   9.869   2.410  10.957  0.4989 -1.0193  1.4852
  115MOL0     C15405   9.887   2.276  11.030  0.2776 -0.3758 -0.9088
  115MOL0     C15406  10.032   2.263  11.090  1.1245 -0.3718 -0.0049
  115MOL0     N15407  10.134   2.244  10.988  0.2519  0.3778  0.1919
  115MOL0     C15408  10.165   2.132  10.927  0.4161 -0.3683  0.9806
  115MOL0     C15409  10.283   2.171  10.864  0.1837 -0.4730 -0.1412
  115MOL0     C15410  10.373   2.071  10.786  0.0774 -0.7028  0.1663
  115MOL0     C15411  10.518   2.091  10.792 -0.7011  0.3751  0.2295
  115MOL0     C15412  10.562   2.206  10.697 -0.2823  0.1286 -0.3868
  115MOL0     C15413  10.718   2.239  10.710  0.5270 -0.4780  0.4355
  115MOL0     O15414  10.789   2.128  10.643 -0.6627  0.5918  0.0168
  115MOL0     C15415  10.835   2.158  10.511  0.2121  0.5106 -0.7605
  115MOL0     C15416  10.963   2.114  10.482  0.5902 -0.1847  0.1949
  115MOL0     C15417  11.015   2.133  10.353  0.7427  0.3396  0.2878
  115MOL0     C15418  10.940   2.207  10.258  0.7893  0.7808 -0.6447
  115MOL0     C15419  10.982   2.208  10.117 -0.3753  0.3494 -0.3371
  115MOL0     O15420  11.109   2.165  10.084 -0.4964 -0.6086 -0.1682
  115MOL0     C15421  11.133   2.174   9.954  0.9048 -0.3862  0.0025
  115MOL0     C15422  11.085   2.081   9.858 -0.6249 -0.7821 -0.3672
  115MOL0     C15423  11.122   2.096   9.723 -0.2231  0.5507  0.7520
  115MOL0     C15424  11.213   2.196   9.674 -0.1399  0.3152  0.0388
  115MOL0     O15425  11.277   2.209   9.550 -0.0577  0.4607  0.0391
  115MOL0     C15426  11.204   2.164   9.439  0.1260  0.1144 -0.0403
  115MOL0     C15427  11.150   2.287   9.363  0.4919  0.1186  0.1312
  115MOL0     C15428  11.271   2.375   9.326 -0.0326 -0.4032 -0.1493
  115MOL0     C15429  11.228   2.475   9.222 -1.7868 -0.0754 -0.4874
  115MOL0     C15430  11.329   2.585   9.208 -0.1029 -0.0445  0.9282
  115MOL0     C15431  11.260   2.674   9.103  0.7922 -0.7266  0.8097
  115MOL0     C15432  11.331   2.801   9.066 -0.0555 -0.6615 -0.1844
  115MOL0     C15433  11.254   2.882   8.965  0.4238 -0.1259  0.0608
  115MOL0    Cl15434  11.267   2.816   8.797  0.1315  0.3558  0.0122
  115MOL0     C15435  11.253   2.284   9.771 -0.2914 -0.0169  0.3243
  115MOL0     C15436  11.215   2.276   9.902 -0.0172  0.3320 -0.3559
  115MOL0     O15437  10.898   2.257  10.036 -0.9303 -0.1809 -0.2294
  115MOL0     C15438  10.812   2.255  10.291 -0.7441 -0.4796 -0.7451
  115MOL0     C15439  10.760   2.236  10.417  0.0627  0.0135 -0.5104
  115MOL0     N15440  10.307   2.308  10.888  0.0663 -0.6113  0.2808
  115MOL0     N15441  10.224   2.352  10.970  0.8630 -0.1094  0.4571
  115MOL0     C15442   9.547   2.760  10.243 -0.4524  0.6430  0.2607
  115MOL0     C15443   9.444   2.696  10.163 -0.0859  0.8590 -0.3188
  115MOL0     C15444   9.207   2.346   9.962 -0.3011  0.4932  0.6272
  115MOL0     C15445   9.189   2.426   9.843  0.5983  0.2250 -0.3891
  115MOL0     C15446   9.096   2.398   9.741  0.4852 -0.0877 -0.5830
  115MOL0     C15447   9.005   2.289   9.762  0.0709  0.0553  0.0108
  115MOL0     O15448   8.918   2.243   9.679  0.6175 -0.4036  0.1399
  115MOL0     C15449   8.968   2.209   9.552 -0.4278  0.6064  1.8901
  115MOL0     C15450   8.958   2.051   9.553 -0.1080  0.3965 -0.0756
  115MOL0     C15451   8.805   2.000   9.528 -0.0123  0.1090 -0.4717
  115MOL0     C15452   8.790   1.905   9.406 -0.5451 -0.6405 -0.3547
  115MOL0     C15453   8.659   1.903   9.353  0.6848 -0.0821  0.8289
  115MOL0     C15454   8.548   1.915   9.306  0.4617  0.6499  1.4820
  115MOL0     C15455   9.016   2.211   9.875  0.6300  0.1063 -0.5650
  115MOL0     C15456   9.118   2.230   9.974  0.3988 -2.2437  0.0329
  115MOL0     C15457   9.121   2.132  10.084 -0.0534  0.2632  0.0848
  115MOL0     H15458   9.552   2.378  10.197  1.2619  0.5398 -1.4421
  115MOL0     H15459   9.714   2.473  10.336 -1.4630 -1.3383  1.3895
  115MOL0     H15460   9.840   2.583  10.449  0.8116 -0.4792  0.4880
  115MOL0     H15461   9.888   2.739  10.513 -1.0770  1.2958  1.4373
  115MOL0     H15462   9.618   2.592  10.570  1.2272 -0.8069 -0.2973
  115MOL0     H15463   9.691   2.735  10.658  2.2059  1.0669 -1.4197
  115MOL0     H15464   9.886   2.587  10.729  0.7736  0.3953  1.7801
  115MOL0     H15465   9.790   2.456  10.657  2.7886  1.1072 -0.3834
  115MOL0     H15466   9.760   2.633  10.893 -2.7105  1.8317  0.2335
  115MOL0     H15467   9.602   2.577  10.829 -0.6655  0.2357  1.0434
  115MOL0     H15468   9.654   2.424  11.001 -1.2125 -2.2010 -0.5137
  115MOL0     H15469   9.709   2.337  10.850  1.2744  0.2698 -0.9100
  115MOL0     H15470   9.932   2.402  10.868 -2.7918 -0.9512 -1.0329
  115MOL0     H15471   9.898   2.497  11.016 -0.8364 -1.2526  2.5136
  115MOL0     H15472   9.851   2.193  10.969  0.8071 -0.5761 -0.9615
  115MOL0     H15473   9.818   2.275  11.114  1.6622 -1.4361  0.2497
  115MOL0     H15474  10.037   2.365  11.131  0.6666  0.2853 -1.5192
  115MOL0     H15475  10.027   2.187  11.169 -2.1284  0.0830  0.3708
  115MOL0     H15476  10.128   2.030  10.923 -4.4603  1.1804 -1.6912
  115MOL0     H15477  10.347   1.975  10.832 -2.6917  0.2728  0.8452
  115MOL0     H15478  10.350   2.069  10.679 -0.2726  4.0489 -0.0377
  115MOL0     H15479  10.552   2.104  10.895  1.3259  0.8683 -0.4429
  115MOL0     H15480  10.570   2.001  10.758  1.3932  1.6393 -0.1556
  115MOL0     H15481  10.510   2.298  10.725  0.4491  0.6956 -0.8282
  115MOL0     H15482  10.535   2.199  10.592 -0.7871 -1.3777 -0.1711
  115MOL0     H15483  10.740   2.255  10.816 -1.5341  1.1769  0.6666
  115MOL0     H15484  10.740   2.337  10.666 -2.2802  0.3563  0.7101
  115MOL0     H15485  11.024   2.060  10.553 -0.0479 -1.7562 -0.4123
  115MOL0     H15486  11.114   2.104  10.317  0.2354 -2.9164  1.1388
  115MOL0     H15487  11.016   2.013   9.906  0.9120 -0.5058  2.4542
  115MOL0     H15488  11.089   2.027   9.645 -0.3197  1.3205  0.0990
  115MOL0     H15489  11.264   2.113   9.363 -2.0175 -1.8873 -0.4791
  115MOL0     H15490  11.121   2.096   9.460 -1.2310  0.9375 -2.3094
  115MOL0     H15491  11.094   2.259   9.273 -0.9428  1.5450  0.5379
  115MOL0     H15492  11.077   2.334   9.430  0.1815 -3.3043  2.5277
  115MOL0     H15493  11.324   2.414   9.413  1.9999 -0.1606 -1.4324
  115MOL0     H15494  11.346   2.314   9.274  1.6761 -0.0277  1.7515
  115MOL0     H15495  11.135   2.521   9.256 -1.9375 -1.6105  1.3803
  115MOL0     H15496  11.204   2.420   9.130 -1.2564  0.3037 -0.8545
  115MOL0     H15497  11.426   2.548   9.174 -1.0307 -1.8407  0.0902
  115MOL0     H15498  11.343   2.635   9.304 -1.0342  2.0358  0.0346
  115MOL0     H15499  11.242   2.615   9.013 -0.7630  4.5162 -2.8372
  115MOL0     H15500  11.155   2.699   9.124  0.7695  1.0884 -1.1314
  115MOL0     H15501  11.432   2.774   9.033  1.2197 -2.6019  4.3824
  115MOL0     H15502  11.342   2.866   9.153  1.5812 -0.5482 -0.4380
  115MOL0     H15503  11.149   2.895   8.992  0.5197  1.2186 -0.1264
  115MOL0     H15504  11.303   2.980   8.968  2.5188 -0.9966 -2.3006
  115MOL0     H15505  11.323   2.361   9.742 -1.4225  0.5717 -0.9112
  115MOL0     H15506  11.241   2.351   9.976  1.7966 -1.5266  0.9982
  115MOL0     H15507  10.757   2.307  10.214  0.5219  0.7637 -0.8576
  115MOL0     H15508  10.669   2.283  10.454  0.2756  1.7121 -1.9985
  115MOL0     H15509   9.544   2.868  10.244 -2.7210  0.6385 -0.6424
  115MOL0     H15510   9.373   2.760  10.110 -0.2530  1.4263  0.5682
  115MOL0     H15511   9.258   2.509   9.830  1.6660 -0.9188 -2.5188
  115MOL0     H15512   9.092   2.449   9.645 -1.4871 -1.3252 -1.2228
  115MOL0     H15513   9.070   2.245   9.533  0.4036 -1.6244  1.7356
  115MOL0     H15514   8.907   2.252   9.472  0.6329 -1.5780 -0.2397
  115MOL0     H15515   8.990   2.031   9.656  0.7544  1.4797 -0.1195
  115MOL0     H15516   9.015   1.998   9.476 -0.7033  0.7498 -0.7598
  115MOL0     H15517   8.744   2.090   9.514  3.6804  2.8425 -0.4515
  115MOL0     H15518   8.783   1.934   9.612  3.2827  0.7921  1.0839
  115MOL0     H15519   8.855   1.926   9.321 -0.7193  0.8106 -0.1508
  115MOL0     H15520   8.815   1.804   9.439  2.5183 -0.0922 -0.7406
  115MOL0     H15521   8.448   1.914   9.268  1.4198  0.8351 -1.2532
  115MOL0     H15522   8.951   2.124   9.885  0.8624 -0.1597 -1.3103
  115MOL0     H15523   9.029   2.073  10.083  0.4931 -0.6131 -1.0464
  115MOL0     H15524   9.199   2.061  10.056  0.1857  0.2775  0.7060
  115MOL0     H15525   9.132   2.170  10.186  3.8346 -1.0307  0.3365
  116MOL0     O15526   4.466  11.391   2.220 -0.0545 -0.3293  0.1971
  116MOL0     C15527   4.431  11.367   2.333 -0.2299  0.3621  0.3615
  116MOL0     O15528   4.493  11.274   2.417  0.4914  0.5529  0.2833
  116MOL0     C15529   4.602  11.214   2.370  0.0437  0.2157  0.3803
  116MOL0     C15530   4.597  11.077   2.338 -0.2783  0.5154 -0.5424
  116MOL0     C15531   4.697  11.011   2.274 -1.1245 -0.2677 -0.0059
  116MOL0     C15532   4.828  11.077   2.266 -0.4360  1.5804  0.5000
  116MOL0     O15533   4.942  11.019   2.223 -0.2831  0.0947 -0.1875
  116MOL0     C15534   4.935  10.886   2.157  0.4792 -0.0325 -0.5567
  116MOL0     C15535   5.062  10.849   2.076  0.5035 -0.0073 -0.1196
  116MOL0     C15536   5.041  10.716   1.994 -0.7524 -0.0812  0.0821
  116MOL0     C15537   5.177  10.666   1.945  0.1572 -1.2246  0.6372
  116MOL0     C15538   5.220  10.551   2.034 -0.9332  0.2302  0.2324
  116MOL0     C15539   5.359  10.505   2.002  0.5961  0.2372  0.4144
  116MOL0     C15540   5.469  10.618   2.012 -0.3779  0.1703 -0.2086
  116MOL0     C15541   5.607  10.547   2.029 -0.0316 -0.2537  0.2060
  116MOL0     N15542   5.712  10.621   2.102  0.2161  0.1583 -0.0087
  116MOL0     C15543   5.725  10.610   2.235  0.3436 -0.3337 -1.2777
  116MOL0     C15544   5.803  10.720   2.260 -0.5258 -0.6598 -0.3961
  116MOL0     C15545   5.823  10.767   2.403  0.0249 -0.9367 -0.3292
  116MOL0     C15546   5.708  10.856   2.438 -1.4029 -0.5466  0.2203
  116MOL0     C15547   5.699  10.890   2.583  0.3381 -0.5094 -1.2992
  116MOL0     C15548   5.804  10.994   2.631 -0.4100  0.2198 -0.5313
  116MOL0     O15549   5.841  10.937   2.759 -0.5217 -0.9952  0.0416
  116MOL0     C15550   5.946  10.991   2.829 -0.1588 -0.5912  0.3805
  116MOL0     C15551   6.024  10.917   2.915 -1.6097  0.9565  0.5934
  116MOL0     C15552   6.121  10.971   2.984 -0.6441 -0.3889 -0.0389
  116MOL0     C15553   6.162  11.101   2.959 -0.3644 -0.8950  0.1108
  116MOL0     C15554   6.274  11.174   3.047 -0.2528 -0.2723  0.7481
  116MOL0     O15555   6.298  11.300   3.001 -0.3470 -0.2285 -0.1771
  116MOL0     C15556   6.385  11.383   3.063  0.0291 -1.9951 -0.1717
  116MOL0     C15557   6.438  11.478   2.982  1.0021 -0.6891 -0.0077
  116MOL0     C15558   6.529  11.566   3.030  0.8382  0.5813  0.4337
  116MOL0     C15559   6.569  11.562   3.163 -0.1225  0.1510 -0.9260
  116MOL0     O15560   6.661  11.648   3.211 -0.5730 -0.0973 -0.6276
  116MOL0     C15561   6.642  11.790   3.185 -0.4958 -0.5982  0.4262
  116MOL0     C15562   6.742  11.887   3.247 -0.5210 -0.2185 -0.7023
  116MOL0     C15563   6.882  11.865   3.220 -0.2212  0.6962  0.1512
  116MOL0     C15564   6.913  11.860   3.066  0.5359  0.4333 -0.2484
  116MOL0     C15565   7.061  11.888   3.031  0.2650 -0.0554  0.5979
  116MOL0     C15566   7.083  11.895   2.877 -0.0496 -0.1775 -0.0252
  116MOL0     C15567   7.238  11.925   2.842  0.0096 -0.3421 -1.3211
  116MOL0     C15568   7.264  11.967   2.699 -0.7874  0.4725  1.1757
  116MOL0    Cl15569   7.447  11.976   2.667 -0.3026 -0.1337 -0.5769
  116MOL0     C15570   6.508  11.471   3.255 -0.1190 -0.0648 -0.0354
  116MOL0     C15571   6.410  11.384   3.204 -0.7261  0.1018  0.1624
  116MOL0     O15572   6.341  11.115   3.133  0.6615  0.3371 -0.5172
  116MOL0     C15573   6.090  11.175   2.867  0.7399  0.5754 -0.9357
  116MOL0     C15574   5.987  11.126   2.806  0.4721  0.5538  0.0713
  116MOL0     N15575   5.822  10.804   2.146 -0.0680  0.6142 -0.5287
  116MOL0     N15576   5.763  10.741   2.057  0.4783 -0.6842 -0.7320
  116MOL0     C15577   4.836  11.212   2.298 -0.2888  0.4512  0.2712
  116MOL0     C15578   4.727  11.279   2.347  0.7386  0.1115  0.0088
  116MOL0     C15579   4.318  11.444   2.386 -0.5282 -0.5156 -0.5444
  116MOL0     C15580   4.235  11.381   2.484 -1.1347 -0.9967  0.2189
  116MOL0     C15581   4.113  11.441   2.527 -0.0581 -0.2891 -0.4619
  116MOL0     C15582   4.074  11.568   2.473  0.2472  0.3529 -0.4229
  116MOL0     O15583   3.959  11.631   2.519  0.4088 -0.1517  0.4578
  116MOL0     C15584   3.836  11.574   2.461  1.0560 -0.1964  0.3492
  116MOL0     C15585   3.736  11.569   2.580 -0.7921 -0.1984 -0.1502
  116MOL0     C15586   3.600  11.532   2.531  0.1103  0.1286 -0.8698
  116MOL0     C15587   3.503  11.572   2.641  0.1680 -0.4143  0.5982
  116MOL0     C15588   3.366  11.537   2.622  0.2195 -1.2643  0.1929
  116MOL0     C15589   3.256  11.513   2.594  0.3122  1.1076 -0.4679
  116MOL0     C15590   4.153  11.636   2.383 -0.6845  0.1580  0.4610
  116MOL0     C15591   4.271  11.571   2.336 -0.5348 -0.6481  0.4466
  116MOL0     C15592   4.357  11.663   2.247 -0.1784  0.1566 -0.8764
  116MOL0     H15593   4.504  11.028   2.363  0.8019 -1.2362  0.1778
  116MOL0     H15594   4.685  10.906   2.248  1.9825 -0.6268 -0.3401
  116MOL0     H15595   4.921  10.801   2.225 -1.9472 -3.5219 -4.8570
  116MOL0     H15596   4.864  10.875   2.075  0.8106 -2.7875 -0.5482
  116MOL0     H15597   5.153  10.835   2.136  0.6058 -0.4105 -0.3637
  116MOL0     H15598   5.075  10.922   1.995 -0.8415 -0.9839 -1.2587
  116MOL0     H15599   4.981  10.741   1.906  1.4666  3.3369 -0.6578
  116MOL0     H15600   4.992  10.645   2.061  0.2779 -0.5056  0.4001
  116MOL0     H15601   5.168  10.625   1.844  1.3345 -0.5716  0.2453
  116MOL0     H15602   5.238  10.757   1.939 -0.4274 -0.8088  0.8188
  116MOL0     H15603   5.212  10.590   2.136 -0.6594  1.3725 -0.1702
  116MOL0     H15604   5.156  10.464   2.018  0.1496 -0.7390  1.0212
  116MOL0     H15605   5.401  10.435   2.075  0.3250  0.0928  0.4335
  116MOL0     H15606   5.367  10.454   1.905 -0.8977 -0.4939  0.6482
  116MOL0     H15607   5.463  10.677   2.104 -1.1864  2.9574 -1.9506
  116MOL0     H15608   5.458  10.695   1.936 -2.7930  0.0163 -0.0923
  116MOL0     H15609   5.604  10.449   2.078  1.5414 -0.9175 -0.9473
  116MOL0     H15610   5.640  10.527   1.927 -1.5738  0.9544 -0.5841
  116MOL0     H15611   5.691  10.524   2.291  0.4588 -0.4689 -1.4138
  116MOL0     H15612   5.827  10.671   2.455  0.3157 -1.4022 -1.1931
  116MOL0     H15613   5.919  10.820   2.406 -2.0204  3.2272 -1.0013
  116MOL0     H15614   5.711  10.954   2.390  2.8847  1.5020  3.9165
  116MOL0     H15615   5.614  10.813   2.403 -1.7145  0.3128 -0.0322
  116MOL0     H15616   5.695  10.799   2.643  0.8241 -1.4942 -2.7241
  116MOL0     H15617   5.601  10.936   2.596  1.3944  1.9437 -1.4159
  116MOL0     H15618   5.762  11.094   2.641  0.4489  0.5892 -0.6035
  116MOL0     H15619   5.883  11.006   2.557 -1.4383  3.9591 -1.2150
  116MOL0     H15620   6.007  10.811   2.933  1.7652  0.1088 -0.6202
  116MOL0     H15621   6.181  10.919   3.058  0.4334  1.9747  0.8638
  116MOL0     H15622   6.421  11.470   2.875 -1.6148 -1.7435  0.4209
  116MOL0     H15623   6.580  11.632   2.959  0.3759  0.9101  0.4021
  116MOL0     H15624   6.633  11.813   3.078  2.4753  0.4367  0.3005
  116MOL0     H15625   6.546  11.832   3.216 -0.1480  2.7893 -2.4450
  116MOL0     H15626   6.712  11.983   3.204  1.3824  0.4596 -0.6397
  116MOL0     H15627   6.721  11.896   3.354 -0.2413  0.2504 -0.6839
  116MOL0     H15628   6.945  11.941   3.267  3.6414 -0.4827 -2.5569
  116MOL0     H15629   6.926  11.775   3.265 -1.5301  0.6116  1.3197
  116MOL0     H15630   6.852  11.935   3.013  0.2647  3.0281  3.3288
  116MOL0     H15631   6.900  11.763   3.018  0.1441 -0.5857  1.8304
  116MOL0     H15632   7.132  11.822   3.080  2.6451  0.4064 -1.9228
  116MOL0     H15633   7.088  11.985   3.074  2.5936 -1.9234  3.7746
  116MOL0     H15634   7.051  11.802   2.830  0.1409 -1.2045  1.7683
  116MOL0     H15635   7.020  11.977   2.841  0.9817  0.8829  0.5063
  116MOL0     H15636   7.297  11.834   2.859 -3.8977 -2.9775 -0.5277
  116MOL0     H15637   7.276  12.007   2.903 -1.3051 -0.0920 -0.7945
  116MOL0     H15638   7.211  11.912   2.620 -1.2512  3.4474 -0.7431
  116MOL0     H15639   7.230  12.068   2.677 -1.4693 -0.1981 -1.1801
  116MOL0     H15640   6.529  11.479   3.361 -3.0730 -3.5206  1.0006
  116MOL0     H15641   6.351  11.330   3.278 -1.0773  1.0549  0.5891
  116MOL0     H15642   6.116  11.281   2.866 -1.0690  1.0916  0.7340
  116MOL0     H15643   5.930  11.185   2.734 -2.0806 -2.0839 -0.2507
  116MOL0     H15644   4.935  11.252   2.279  0.0713 -0.7624 -0.5857
  116MOL0     H15645   4.735  11.377   2.392 -0.7875 -0.2901  1.2564
  116MOL0     H15646   4.253  11.276   2.501  4.5141 -0.3311  0.4579
  116MOL0     H15647   4.054  11.393   2.604  3.3807 -0.0406  2.5867
  116MOL0     H15648   3.855  11.477   2.415  2.0142 -1.0787  2.4572
  116MOL0     H15649   3.803  11.643   2.382 -0.6042 -2.9099 -1.4924
  116MOL0     H15650   3.742  11.662   2.639  1.6251 -1.2309  1.4018
  116MOL0     H15651   3.763  11.496   2.657 -0.6403  1.5616  1.5499
  116MOL0     H15652   3.602  11.423   2.527  0.3203  0.0805  0.2279
  116MOL0     H15653   3.582  11.582   2.435  0.8656 -0.4074 -1.3043
  116MOL0     H15654   3.542  11.527   2.732  2.3498 -1.0271 -0.5668
  116MOL0     H15655   3.504  11.681   2.651 -2.0104 -0.1487 -1.1497
  116MOL0     H15656   3.156  11.480   2.576  0.2150  1.2337 -0.1641
  116MOL0     H15657   4.134  11.738   2.350  3.7339  2.1259  3.0441
  116MOL0     H15658   4.351  11.642   2.140  1.0758  1.3082 -1.1921
  116MOL0     H15659   4.337  11.770   2.249  2.0808  0.6518 -1.5476
  116MOL0     H15660   4.461  11.654   2.278 -1.1430 -0.6146  2.5319
  117MOL0     O15661   6.802   9.813   9.754  0.5124  0.4749  0.0056
  117MOL0     C15662   6.721   9.730   9.789  0.9007 -0.9627 -0.0481
  117MOL0     O15663   6.600   9.764   9.837  0.4628 -0.3241  0.2878
  117MOL0     C15664   6.557   9.890   9.825  0.5079  0.0223  0.2564
  117MOL0     C15665   6.603  10.001   9.900  0.0320  0.0821 -0.1638
  117MOL0     C15666   6.540  10.118   9.889 -0.8126 -0.0791 -0.2376
  117MOL0     C15667   6.449  10.148   9.790  0.4754  0.4144  0.8044
  117MOL0     O15668   6.398  10.271   9.784  0.1811 -1.0369 -0.4236
  117MOL0     C15669   6.337  10.321   9.660 -0.1392 -0.4366  0.1176
  117MOL0     C15670   6.259  10.447   9.710 -0.2736 -0.2353 -0.2351
  117MOL0     C15671   6.360  10.548   9.775 -0.9329 -0.0333  0.1863
  117MOL0     C15672   6.346  10.680   9.711  0.5663 -0.1559 -0.3126
  117MOL0     C15673   6.429  10.790   9.787  0.8060  0.6258  0.9290
  117MOL0     C15674   6.459  10.910   9.694 -0.4617 -0.0868 -0.5342
  117MOL0     C15675   6.564  10.998   9.761  0.0209 -0.7416 -0.3672
  117MOL0     C15676   6.572  11.135   9.699  0.6422 -0.2965 -0.5922
  117MOL0     N15677   6.672  11.228   9.776  0.6464  0.0601  1.1271
  117MOL0     C15678   6.644  11.311   9.875 -0.4380 -0.2271 -0.3748
  117MOL0     C15679   6.746  11.394   9.883  0.1726  1.0229 -0.0088
  117MOL0     C15680   6.745  11.506   9.985 -0.2190  0.2005  0.2511
  117MOL0     C15681   6.837  11.619   9.941  0.1673 -0.5984  1.2260
  117MOL0     C15682   6.766  11.702   9.822  0.3091  0.8095  0.0857
  117MOL0     C15683   6.844  11.809   9.760  0.1125 -0.0045  0.4494
  117MOL0     O15684   6.785  11.848   9.636 -0.6796 -0.1584  0.2750
  117MOL0     C15685   6.679  11.939   9.647 -0.8396 -0.5883  0.7549
  117MOL0     C15686   6.621  11.981   9.524  0.6287 -0.2928  0.6154
  117MOL0     C15687   6.503  12.057   9.518  0.9385  1.2182 -0.0729
  117MOL0     C15688   6.464  12.118   9.641 -0.0475  0.0286 -0.3338
  117MOL0     C15689   6.340  12.202   9.647 -0.3454  0.2150 -0.3629
  117MOL0     O15690   6.248  12.188   9.545  0.6884 -0.7550 -0.4037
  117MOL0     C15691   6.115  12.196   9.564  0.8831  0.1182  0.3899
  117MOL0     C15692   6.046  12.210   9.686 -0.3260  0.0390  0.1110
  117MOL0     C15693   5.910  12.213   9.681  0.5429 -0.2948 -0.3378
  117MOL0     C15694   5.836  12.216   9.568  0.6070 -0.3026 -0.1766
  117MOL0     O15695   5.702  12.232   9.568 -0.2087  0.2557 -0.2095
  117MOL0     C15696   5.638  12.176   9.459 -0.2648  0.0168 -0.5203
  117MOL0     C15697   5.482  12.189   9.475 -0.1988 -0.5661 -0.2179
  117MOL0     C15698   5.415  12.149   9.348  0.4402 -0.3803  0.0509
  117MOL0     C15699   5.266  12.181   9.343  0.3322 -0.4164  0.0716
  117MOL0     C15700   5.201  12.159   9.209  0.6924 -0.5997 -0.0097
  117MOL0     C15701   5.062  12.217   9.206  0.3318 -0.4682 -0.6873
  117MOL0     C15702   5.004  12.218   9.065 -0.6775  0.2770 -0.4549
  117MOL0     C15703   5.050  12.347   8.989  0.2767  0.2598 -0.9568
  117MOL0    Cl15704   5.078  12.310   8.823 -0.2807  0.2657  0.5723
  117MOL0     C15705   5.905  12.230   9.449 -0.2589 -0.0839 -0.4385
  117MOL0     C15706   6.044  12.204   9.446  0.2286 -0.5786  0.2801
  117MOL0     O15707   6.330  12.273   9.746  0.1752  0.5744  0.2876
  117MOL0     C15708   6.535  12.088   9.761  0.4289 -0.2878  0.3434
  117MOL0     C15709   6.643  12.000   9.765  0.4490 -0.0424  0.2202
  117MOL0     N15710   6.835  11.361   9.785 -0.1613  0.2169 -0.8832
  117MOL0     N15711   6.783  11.263   9.722 -0.8096  0.3390  0.6595
  117MOL0     C15712   6.405  10.042   9.707 -0.2686  0.4447  0.0417
  117MOL0     C15713   6.457   9.918   9.726  0.0292 -0.5463 -1.1529
  117MOL0     C15714   6.764   9.586   9.787 -0.1314 -1.2713 -0.9196
  117MOL0     C15715   6.856   9.558   9.685  0.6021  0.6132  0.9907
  117MOL0     C15716   6.919   9.430   9.681  0.8830 -0.8293  0.2589
  117MOL0     C15717   6.881   9.332   9.768  0.4445  0.9539 -1.4955
  117MOL0     O15718   6.922   9.205   9.785 -0.4422  0.4080 -1.2313
  117MOL0     C15719   6.987   9.144   9.677 -0.3589  0.3094  0.1327
  117MOL0     C15720   6.996   8.993   9.700  1.0995  0.4291 -0.2553
  117MOL0     C15721   7.083   8.957   9.824  0.0875  0.2829  0.4660
  117MOL0     C15722   7.090   8.798   9.832 -0.3386  0.5719  0.2856
  117MOL0     C15723   7.184   8.765   9.944  0.5432 -0.3526  0.2558
  117MOL0     C15724   7.274   8.749  10.026  0.5219  0.0300  0.1360
  117MOL0     C15725   6.805   9.365   9.876  0.4111  0.9163  1.2486
  117MOL0     C15726   6.731   9.491   9.886  0.0115  0.4534 -0.4288
  117MOL0     C15727   6.658   9.525  10.016 -0.1438  0.9953 -0.2779
  117MOL0     H15728   6.676   9.979   9.977 -0.6173 -3.8620 -0.4581
  117MOL0     H15729   6.557  10.201   9.957  0.5139  3.9315 -4.8600
  117MOL0     H15730   6.409  10.339   9.579 -1.9490 -0.0737 -1.4997
  117MOL0     H15731   6.265  10.244   9.630  2.2741 -2.8707  0.2058
  117MOL0     H15732   6.184  10.422   9.785  0.4970  0.0908  0.6559
  117MOL0     H15733   6.205  10.498   9.629  0.8895  1.3267 -0.0696
  117MOL0     H15734   6.464  10.514   9.766 -1.0969 -1.8218  3.5839
  117MOL0     H15735   6.342  10.546   9.883 -0.8161 -1.3832  0.1893
  117MOL0     H15736   6.368  10.686   9.604  1.3697  5.1095 -0.1206
  117MOL0     H15737   6.240  10.703   9.727  1.0723  0.6256  2.3481
  117MOL0     H15738   6.362  10.813   9.871 -2.0647  1.5641 -1.4312
  117MOL0     H15739   6.516  10.741   9.832 -1.0035 -0.8003  3.0866
  117MOL0     H15740   6.486  10.891   9.590  0.6248 -1.6047 -0.0055
  117MOL0     H15741   6.368  10.970   9.684  1.4576  3.4202  1.0548
  117MOL0     H15742   6.665  10.957   9.751  0.9052  1.5058 -1.2285
  117MOL0     H15743   6.535  11.001   9.866 -0.5293  1.4746 -0.5337
  117MOL0     H15744   6.590  11.131   9.591  0.5957 -0.3394 -0.5983
  117MOL0     H15745   6.482  11.196   9.712  1.9822  2.4031 -2.8233
  117MOL0     H15746   6.547  11.324   9.922  0.8894  2.2385  1.9431
  117MOL0     H15747   6.647  11.552  10.002  0.8970  2.7381  0.3850
  117MOL0     H15748   6.780  11.464  10.079 -1.0462  0.6222  0.7619
  117MOL0     H15749   6.859  11.690  10.021  2.3780 -0.1948  0.3533
  117MOL0     H15750   6.926  11.570   9.900 -2.7754 -3.4230 -2.5969
  117MOL0     H15751   6.672  11.737   9.866  0.6088  1.3079  0.3344
  117MOL0     H15752   6.733  11.630   9.746 -3.2817  2.5536 -0.2004
  117MOL0     H15753   6.939  11.765   9.728 -1.0584 -2.4106  0.0511
  117MOL0     H15754   6.874  11.893   9.824 -2.1858  0.7558  0.6182
  117MOL0     H15755   6.658  11.923   9.441 -0.1544 -3.2393  2.1960
  117MOL0     H15756   6.438  12.070   9.433  0.3308 -1.1069 -0.0144
  117MOL0     H15757   6.101  12.207   9.780  0.0830 -1.8842 -0.1500
  117MOL0     H15758   5.853  12.208   9.773  0.3913 -0.1460 -0.4215
  117MOL0     H15759   5.664  12.234   9.371  0.7469 -1.8425 -1.5167
  117MOL0     H15760   5.672  12.072   9.449  0.9227  0.3865 -0.4395
  117MOL0     H15761   5.438  12.134   9.559 -0.0920  1.6816  1.3925
  117MOL0     H15762   5.451  12.294   9.487 -0.0799 -0.3750 -1.4524
  117MOL0     H15763   5.461  12.204   9.265  1.6114  1.6337  1.9361
  117MOL0     H15764   5.432  12.042   9.336 -1.8733 -0.8091  0.1533
  117MOL0     H15765   5.260  12.286   9.373  2.5361 -0.3148  0.3580
  117MOL0     H15766   5.213  12.131   9.425 -1.0292 -0.4402 -0.8033
  117MOL0     H15767   5.194  12.051   9.192 -1.4432 -0.0719 -3.7465
  117MOL0     H15768   5.268  12.189   9.128  0.2772 -3.5573 -1.5854
  117MOL0     H15769   4.993  12.163   9.271  0.0820  1.0087  0.3472
  117MOL0     H15770   5.066  12.319   9.248 -4.3205 -0.6059  0.6200
  117MOL0     H15771   4.898  12.196   9.076 -0.9348  1.8008  0.5516
  117MOL0     H15772   5.050  12.135   9.011  1.6774  1.3986 -0.3266
  117MOL0     H15773   4.979  12.430   9.000 -0.5783 -0.7294  1.6088
  117MOL0     H15774   5.144  12.376   9.036 -0.0462  1.5713 -1.0838
  117MOL0     H15775   5.857  12.235   9.352 -1.3092 -5.9465 -0.5782
  117MOL0     H15776   6.103  12.203   9.355  2.6591  0.0041  1.7736
  117MOL0     H15777   6.502  12.122   9.858 -4.4309 -0.9004 -0.8450
  117MOL0     H15778   6.689  11.980   9.861  4.2799  2.2613 -0.9281
  117MOL0     H15779   6.331  10.056   9.630  2.4697  1.3625 -2.6051
  117MOL0     H15780   6.430   9.828   9.672  1.8419 -1.9470  0.1393
  117MOL0     H15781   6.886   9.628   9.608 -2.8407 -0.3869 -1.4796
  117MOL0     H15782   6.981   9.411   9.594  0.6271  2.7016 -0.8764
  117MOL0     H15783   7.088   9.187   9.681 -0.8609  1.4534  1.5494
  117MOL0     H15784   6.944   9.166   9.579 -0.9594 -0.5320  0.1971
  117MOL0     H15785   7.054   8.962   9.613  0.1228  0.8968 -1.0950
  117MOL0     H15786   6.894   8.952   9.705  0.6092  1.5114 -0.9181
  117MOL0     H15787   7.041   8.993   9.919 -0.7040  0.1215  0.1883
  117MOL0     H15788   7.181   9.001   9.803 -0.1968  0.2222 -1.1291
  117MOL0     H15789   6.993   8.754   9.857  0.5931 -0.6127  2.0989
  117MOL0     H15790   7.112   8.760   9.732  0.6807  1.0805  0.3068
  117MOL0     H15791   7.351   8.742  10.101  1.4881  1.4882 -0.6834
  117MOL0     H15792   6.812   9.286   9.950 -0.4333 -1.2986 -0.8931
  117MOL0     H15793   6.675   9.632  10.033 -3.6707  1.6751 -0.2671
  117MOL0     H15794   6.552   9.503  10.001  0.2829 -1.6263  0.1633
  117MOL0     H15795   6.705   9.471  10.099  0.2180 -0.1273 -1.1979
  118MOL0     O15796   6.426   3.391   1.929 -0.0027 -0.4107 -0.6691
  118MOL0     C15797   6.329   3.342   1.974 -0.2199  0.0114 -0.1637
  118MOL0     O15798   6.338   3.264   2.090  0.4012 -0.3282 -0.2888
  118MOL0     C15799   6.463   3.265   2.148  0.5905  0.1990 -0.2723
  118MOL0     C15800   6.497   3.378   2.229 -1.1525 -0.3464  0.1965
  118MOL0     C15801   6.626   3.389   2.277  0.6277 -1.2209 -0.4136
  118MOL0     C15802   6.718   3.293   2.259 -0.0037  0.0075  1.2871
  118MOL0     O15803   6.850   3.304   2.291  0.5852 -0.6536  0.2292
  118MOL0     C15804   6.888   3.410   2.380 -0.3692  0.4066  0.5361
  118MOL0     C15805   7.032   3.371   2.426  0.3751 -0.0692  0.0698
  118MOL0     C15806   7.115   3.494   2.472  0.1348  0.4703 -0.5975
  118MOL0     C15807   7.252   3.438   2.496 -0.8269 -0.5003 -0.2353
  118MOL0     C15808   7.342   3.555   2.559  0.0599  0.8162  0.6224
  118MOL0     C15809   7.487   3.517   2.542 -0.2565  0.6513  0.0345
  118MOL0     C15810   7.531   3.399   2.632 -0.0632 -0.4989 -0.4591
  118MOL0     C15811   7.638   3.306   2.565 -0.0282  0.2377 -0.0139
  118MOL0     N15812   7.769   3.367   2.526  0.5938  0.0007 -0.6763
  118MOL0     C15813   7.817   3.359   2.402  0.4150  0.6603  0.8994
  118MOL0     C15814   7.948   3.385   2.415 -0.5363 -0.2470 -0.8063
  118MOL0     C15815   8.052   3.398   2.311  0.4168  1.2071 -0.1418
  118MOL0     C15816   8.120   3.260   2.289 -0.0838  0.5092 -0.5784
  118MOL0     C15817   8.193   3.261   2.158  0.7771  0.0827 -0.7738
  118MOL0     C15818   8.298   3.376   2.134 -0.6569 -0.5423  0.3413
  118MOL0     O15819   8.365   3.328   2.016 -0.0327 -0.5886 -0.9059
  118MOL0     C15820   8.455   3.404   1.951 -0.0231 -0.1803  0.7498
  118MOL0     C15821   8.528   3.340   1.849 -0.3089  0.6102  0.9640
  118MOL0     C15822   8.625   3.407   1.781  0.0491  0.8812 -0.0210
  118MOL0     C15823   8.658   3.544   1.811 -0.1800  0.9313  0.3199
  118MOL0     C15824   8.766   3.607   1.732  0.0609 -1.1073 -0.1953
  118MOL0     O15825   8.862   3.527   1.676  0.1126 -0.1548  0.4870
  118MOL0     C15826   8.973   3.584   1.626 -0.5058 -0.2219 -0.0734
  118MOL0     C15827   9.081   3.599   1.715  0.3125  0.2054  0.6154
  118MOL0     C15828   9.190   3.673   1.675 -0.1097  1.0150 -0.2001
  118MOL0     C15829   9.191   3.729   1.549 -0.4884 -0.0131  0.7470
  118MOL0     O15830   9.300   3.801   1.522  0.3613 -0.4592  0.4099
  118MOL0     C15831   9.339   3.832   1.388  0.0349  0.3818  0.5733
  118MOL0     C15832   9.478   3.899   1.385  0.0565 -0.1603 -0.0907
  118MOL0     C15833   9.465   4.039   1.449 -0.2893  0.4618  0.6179
  118MOL0     C15834   9.598   4.116   1.441  0.3319  0.2665  0.3510
  118MOL0     C15835   9.602   4.262   1.483 -0.4502 -0.9953 -1.0211
  118MOL0     C15836   9.616   4.266   1.635 -0.2424 -0.0784  0.1319
  118MOL0     C15837   9.585   4.406   1.697 -1.1753  0.5539  0.6319
  118MOL0     C15838   9.628   4.419   1.840 -0.0493 -0.3885  0.6838
  118MOL0    Cl15839   9.588   4.564   1.924  0.2579  0.4100  0.1765
  118MOL0     C15840   9.086   3.718   1.459 -0.0206 -0.0279 -0.1947
  118MOL0     C15841   8.972   3.653   1.503 -0.2926 -0.2670  0.3443
  118MOL0     O15842   8.770   3.732   1.739  0.4208  0.1721 -1.6963
  118MOL0     C15843   8.567   3.607   1.898  0.1117  0.0182 -0.0243
  118MOL0     C15844   8.474   3.541   1.972  0.0215  0.2164 -0.0652
  118MOL0     N15845   7.971   3.419   2.550 -0.7793  0.3769 -0.4295
  118MOL0     N15846   7.870   3.383   2.618 -0.1891  0.2975 -0.4571
  118MOL0     C15847   6.687   3.176   2.184 -0.7557 -0.0111 -0.7248
  118MOL0     C15848   6.558   3.158   2.129  0.0857  0.1692  0.3549
  118MOL0     C15849   6.201   3.393   1.934  0.1691 -0.4326  0.2905
  118MOL0     C15850   6.105   3.394   2.035  0.5768 -0.3713  0.8680
  118MOL0     C15851   5.978   3.462   2.016  0.9765 -0.8966  0.1410
  118MOL0     C15852   5.943   3.532   1.903 -0.5726  0.5179  0.8656
  118MOL0     O15853   5.830   3.615   1.876 -0.0641 -0.5561 -0.5026
  118MOL0     C15854   5.707   3.588   1.944 -0.5915  0.3837 -0.1021
  118MOL0     C15855   5.606   3.684   1.889  0.5941 -0.1642 -0.1710
  118MOL0     C15856   5.609   3.825   1.961  0.1750  0.2240  0.7601
  118MOL0     C15857   5.741   3.902   1.972  0.4546  1.4032  1.1120
  118MOL0     C15858   5.805   3.869   2.094 -0.1116 -0.2731 -0.2655
  118MOL0     C15859   5.864   3.824   2.196 -0.0940  0.2975  0.6376
  118MOL0     C15860   6.031   3.523   1.796  0.7915  0.4688  0.3039
  118MOL0     C15861   6.163   3.460   1.812  0.2352 -0.2702  0.2475
  118MOL0     C15862   6.259   3.463   1.697 -0.4005  0.4569  0.3539
  118MOL0     H15863   6.428   3.457   2.255 -0.2656 -0.2338  2.3956
  118MOL0     H15864   6.657   3.484   2.319  2.4706 -0.4750 -3.2248
  118MOL0     H15865   6.886   3.507   2.331 -1.5760  0.2167  0.1734
  118MOL0     H15866   6.825   3.418   2.470  1.5112  2.3755  1.7634
  118MOL0     H15867   7.088   3.318   2.348 -0.7671 -0.1120 -0.7388
  118MOL0     H15868   7.021   3.301   2.509 -2.0882  0.3543  0.1535
  118MOL0     H15869   7.094   3.526   2.575  3.8492 -1.1237  0.8375
  118MOL0     H15870   7.101   3.578   2.404  5.2544  1.3657 -0.9696
  118MOL0     H15871   7.257   3.354   2.566  3.3452 -0.1955  0.0778
  118MOL0     H15872   7.300   3.399   2.406  2.0183  1.2625  0.3921
  118MOL0     H15873   7.328   3.641   2.494 -1.7300 -3.1815 -5.0803
  118MOL0     H15874   7.318   3.568   2.665 -1.0375  1.7843  0.2679
  118MOL0     H15875   7.499   3.481   2.439 -1.6201 -3.9731  1.2485
  118MOL0     H15876   7.553   3.603   2.553  0.2333  0.0851  1.7413
  118MOL0     H15877   7.442   3.346   2.668 -0.1549  1.4781  2.6425
  118MOL0     H15878   7.580   3.440   2.721  2.6178  0.3194 -2.1657
  118MOL0     H15879   7.670   3.239   2.645  0.7648  0.7920  0.1458
  118MOL0     H15880   7.601   3.241   2.485  0.2767  0.1168 -0.0579
  118MOL0     H15881   7.766   3.325   2.313  2.1841 -0.7316  0.3762
  118MOL0     H15882   8.009   3.427   2.215  1.0017 -0.7311 -1.0535
  118MOL0     H15883   8.120   3.477   2.343  0.9941  0.4713  0.5225
  118MOL0     H15884   8.191   3.224   2.364 -2.9026 -2.3106  0.9687
  118MOL0     H15885   8.040   3.185   2.293 -2.8942  3.3077 -0.5152
  118MOL0     H15886   8.117   3.263   2.080  0.7891 -2.1762 -0.9117
  118MOL0     H15887   8.238   3.162   2.155 -0.9517 -0.7063 -1.8201
  118MOL0     H15888   8.365   3.388   2.220 -4.0326  0.1125  3.1085
  118MOL0     H15889   8.245   3.471   2.121  0.2436  0.5349  3.6622
  118MOL0     H15890   8.491   3.244   1.814 -2.2516  2.2313 -1.8678
  118MOL0     H15891   8.686   3.347   1.714  1.7320  0.8181  1.4776
  118MOL0     H15892   9.060   3.576   1.819 -0.1435 -0.6304  0.3557
  118MOL0     H15893   9.277   3.681   1.739  0.5840  1.1919 -1.1407
  118MOL0     H15894   9.348   3.740   1.330  0.7901  0.4930  0.5075
  118MOL0     H15895   9.266   3.899   1.341 -0.7781 -1.3695 -0.7759
  118MOL0     H15896   9.553   3.840   1.439  0.0494 -2.0196 -1.9779
  118MOL0     H15897   9.525   3.903   1.287  1.9341  1.4324  0.7956
  118MOL0     H15898   9.386   4.094   1.398  0.4838  1.9175  0.9159
  118MOL0     H15899   9.433   4.018   1.552 -1.9548  0.7895  0.1914
  118MOL0     H15900   9.630   4.099   1.338 -0.2307 -1.1531  0.3871
  118MOL0     H15901   9.679   4.063   1.493  0.2654 -0.0317  0.1564
  118MOL0     H15902   9.511   4.304   1.439 -0.3833 -0.2584 -0.4737
  118MOL0     H15903   9.687   4.322   1.449 -0.1602  1.3394  3.2201
  118MOL0     H15904   9.551   4.186   1.671 -0.8213 -0.4550 -1.6177
  118MOL0     H15905   9.722   4.252   1.658 -0.2701  1.2678  1.1673
  118MOL0     H15906   9.477   4.424   1.698 -1.0382  1.4197  0.8532
  118MOL0     H15907   9.631   4.487   1.639  1.7395 -0.6270  1.0943
  118MOL0     H15908   9.589   4.339   1.903 -0.8549 -1.3929 -1.0169
  118MOL0     H15909   9.735   4.402   1.853 -0.0327 -2.2974 -1.4242
  118MOL0     H15910   9.094   3.756   1.358 -0.2183  1.9661  0.5059
  118MOL0     H15911   8.883   3.643   1.442  0.3788 -2.5682 -0.3543
  118MOL0     H15912   8.565   3.715   1.908 -1.8280 -0.0747  1.0744
  118MOL0     H15913   8.411   3.593   2.043 -1.0161 -1.2798  0.1643
  118MOL0     H15914   6.769   3.106   2.173 -0.6782 -0.0011 -0.2022
  118MOL0     H15915   6.529   3.068   2.077  2.7231 -0.5366 -0.0102
  118MOL0     H15916   6.137   3.356   2.132  0.7537 -1.3858  0.4249
  118MOL0     H15917   5.906   3.469   2.097  3.9370  0.2525  2.8914
  118MOL0     H15918   5.716   3.598   2.053 -1.1176  2.4288 -0.2068
  118MOL0     H15919   5.682   3.485   1.916  2.1093  0.3707 -2.9476
  118MOL0     H15920   5.501   3.657   1.905  0.3194  1.6988  1.6563
  118MOL0     H15921   5.620   3.692   1.781 -0.5296 -1.2203 -0.4183
  118MOL0     H15922   5.555   3.821   2.056 -0.1362 -3.2457  0.5574
  118MOL0     H15923   5.545   3.889   1.898 -0.6437 -0.2049  1.1360
  118MOL0     H15924   5.808   3.879   1.889 -2.0464  0.1846 -0.6739
  118MOL0     H15925   5.727   4.011   1.967  0.0539  1.3031 -0.6274
  118MOL0     H15926   5.907   3.798   2.290 -0.8353  0.3859  1.0073
  118MOL0     H15927   6.014   3.582   1.706  0.7431  0.2247  0.1535
  118MOL0     H15928   6.218   3.406   1.613  2.7675 -1.5798  0.0142
  118MOL0     H15929   6.292   3.556   1.649  0.7257 -1.4315 -2.8338
  118MOL0     H15930   6.353   3.410   1.717 -0.3461  0.0339 -0.9254
  119MOL0     O15931  10.453   3.823   4.993 -0.2580  0.3976  0.8203
  119MOL0     C15932  10.516   3.882   5.086 -1.3194  0.1158 -0.0875
  119MOL0     O15933  10.466   3.928   5.199  0.0707  0.3303  0.1828
  119MOL0     C15934  10.325   3.920   5.209  0.6435 -0.7277  0.1244
  119MOL0     C15935  10.262   3.803   5.242 -0.2207  0.2864 -0.1600
  119MOL0     C15936  10.129   3.806   5.288  0.0920 -0.1055 -0.4609
  119MOL0     C15937  10.047   3.920   5.288  0.0744 -0.7332 -1.1426
  119MOL0     O15938   9.916   3.922   5.328 -0.3261  0.8497  0.4863
  119MOL0     C15939   9.826   3.827   5.270  0.0324  0.2525 -0.2252
  119MOL0     C15940   9.685   3.894   5.292 -0.5017  0.4556 -0.3811
  119MOL0     C15941   9.685   4.023   5.216 -1.2161  0.3940 -1.2111
  119MOL0     C15942   9.549   4.090   5.227 -0.0847  0.5361 -0.0907
  119MOL0     C15943   9.537   4.226   5.163 -0.7952  0.1510 -0.1044
  119MOL0     C15944   9.545   4.232   5.005 -0.6614 -1.2156 -1.1248
  119MOL0     C15945   9.512   4.367   4.945  0.8236  0.2006 -0.5678
  119MOL0     C15946   9.526   4.365   4.791  0.1296  0.0428 -1.2195
  119MOL0     N15947   9.647   4.428   4.741  0.1517  0.1952  0.1217
  119MOL0     C15948   9.664   4.564   4.723 -0.0547  0.8440  0.6048
  119MOL0     C15949   9.794   4.585   4.680  0.4038 -0.0018  0.0101
  119MOL0     C15950   9.849   4.725   4.648  0.6420  0.7394  0.6081
  119MOL0     C15951   9.763   4.812   4.551 -0.8277 -0.7999  0.3058
  119MOL0     C15952   9.824   4.954   4.530  0.2875 -0.0205 -0.5736
  119MOL0     C15953   9.819   5.036   4.658 -0.0333  0.1815 -0.9384
  119MOL0     O15954   9.928   5.008   4.751 -0.1708 -0.4654 -0.4696
  119MOL0     C15955  10.055   5.055   4.723  0.0365 -0.5547  1.5971
  119MOL0     C15956  10.099   5.186   4.755  0.4793 -0.0457 -0.0607
  119MOL0     C15957  10.225   5.239   4.722 -0.3554 -0.6521  0.0284
  119MOL0     C15958  10.307   5.158   4.643 -0.8952 -0.8984 -0.7941
  119MOL0     C15959  10.437   5.222   4.592  0.0098 -0.4405 -0.7600
  119MOL0     O15960  10.508   5.158   4.492 -0.0693  0.4202  1.4012
  119MOL0     C15961  10.607   5.211   4.415  0.5693  0.7972  0.2225
  119MOL0     C15962  10.652   5.347   4.429 -0.9998 -0.5609 -0.0205
  119MOL0     C15963  10.771   5.387   4.356 -2.2369 -0.0873  0.3251
  119MOL0     C15964  10.830   5.295   4.272 -0.0406 -0.1469 -0.7241
  119MOL0     O15965  10.945   5.324   4.208 -0.2883  0.7608 -0.2351
  119MOL0     C15966  10.939   5.410   4.102 -0.2439  0.8090 -0.8565
  119MOL0     C15967  11.096   5.427   4.070 -0.2998  0.0385  0.1500
  119MOL0     C15968  11.167   5.296   4.031 -0.6260 -0.9683  0.5365
  119MOL0     C15969  11.119   5.252   3.885  0.0601 -0.2040 -0.5314
  119MOL0     C15970  11.190   5.131   3.825  0.2316 -0.9193  0.1480
  119MOL0     C15971  11.332   5.163   3.779 -0.9795 -0.2159 -0.0232
  119MOL0     C15972  11.409   5.045   3.725 -0.0321  0.2513  0.4820
  119MOL0     C15973  11.330   4.945   3.643 -0.4372 -0.2449  0.9246
  119MOL0    Cl15974  11.267   5.021   3.491  0.3761  0.7478 -0.4253
  119MOL0     C15975  10.780   5.170   4.251 -0.1732  0.0772 -0.2038
  119MOL0     C15976  10.668   5.126   4.319  0.8611  0.0914  1.3419
  119MOL0     O15977  10.476   5.327   4.658  0.1168 -0.0415  0.6782
  119MOL0     C15978  10.265   5.027   4.598 -0.2793  0.1528 -0.9393
  119MOL0     C15979  10.137   4.985   4.627 -0.7557  0.0069  0.3050
  119MOL0     N15980   9.848   4.459   4.671  0.1266 -0.7936  0.8034
  119MOL0     N15981   9.760   4.363   4.703 -0.7153 -0.7618 -0.5946
  119MOL0     C15982  10.110   4.041   5.251 -0.8249  1.0526 -0.3783
  119MOL0     C15983  10.248   4.047   5.211 -0.2962  1.2162  0.3337
  119MOL0     C15984  10.660   3.910   5.077  0.6706  0.1505 -0.0356
  119MOL0     C15985  10.719   3.983   5.185 -0.4737  0.2884 -0.8718
  119MOL0     C15986  10.856   4.009   5.198  0.2827  0.3162  0.0294
  119MOL0     C15987  10.940   3.979   5.089 -0.4884  0.4616  0.4213
  119MOL0     O15988  11.074   4.020   5.106  0.4113 -0.3060  0.1539
  119MOL0     C15989  11.147   4.050   4.986 -0.9849  0.7321  0.3992
  119MOL0     C15990  11.280   4.127   5.019  0.4692  0.6970  0.2863
  119MOL0     C15991  11.386   4.106   4.904  0.5831 -0.0741  0.3594
  119MOL0     C15992  11.332   4.156   4.765 -0.2915 -1.1594 -0.5755
  119MOL0     C15993  11.409   4.101   4.657 -0.0489  0.7209  0.4906
  119MOL0     C15994  11.470   4.045   4.570 -0.6222 -0.0987  0.0513
  119MOL0     C15995  10.885   3.921   4.968  0.4943  1.0131 -0.5160
  119MOL0     C15996  10.747   3.886   4.968  0.1179  0.1041 -0.3357
  119MOL0     C15997  10.690   3.863   4.825  0.0188 -0.1021 -0.6205
  119MOL0     H15998  10.323   3.716   5.265 -0.5103 -0.5144 -2.2266
  119MOL0     H15999  10.090   3.711   5.322 -1.0330  1.2964  2.5783
  119MOL0     H16000   9.843   3.791   5.168 -1.4964 -0.0042 -0.4134
  119MOL0     H16001   9.833   3.746   5.344 -0.1136  1.3038  0.9843
  119MOL0     H16002   9.670   3.903   5.400 -3.6700  0.3036 -0.7263
  119MOL0     H16003   9.604   3.837   5.246 -0.5152  0.7311 -0.6986
  119MOL0     H16004   9.714   4.014   5.111 -0.1754 -0.9356 -0.8392
  119MOL0     H16005   9.751   4.093   5.269 -4.4768  0.7079  3.0346
  119MOL0     H16006   9.481   4.023   5.173 -1.0264  1.8036 -0.5349
  119MOL0     H16007   9.521   4.108   5.331  3.8380  2.3988  0.7993
  119MOL0     H16008   9.436   4.265   5.181 -1.4752 -0.5650 -2.1090
  119MOL0     H16009   9.613   4.288   5.211 -0.7923  1.8955 -2.2314
  119MOL0     H16010   9.639   4.189   4.969  0.7930  1.2047 -0.4594
  119MOL0     H16011   9.468   4.162   4.971 -0.6726 -3.2674  2.5757
  119MOL0     H16012   9.568   4.453   4.982  0.2265  0.4162 -0.1557
  119MOL0     H16013   9.406   4.384   4.967  0.5235 -2.6701  0.6469
  119MOL0     H16014   9.501   4.269   4.744  1.0813  1.1077 -4.1017
  119MOL0     H16015   9.448   4.431   4.750  1.2781  3.1000  1.1439
  119MOL0     H16016   9.585   4.638   4.731 -0.7119  0.5005 -1.9777
  119MOL0     H16017   9.867   4.774   4.744 -0.8103 -3.8152  3.5259
  119MOL0     H16018   9.951   4.715   4.609 -0.2314 -2.4481 -1.2554
  119MOL0     H16019   9.762   4.758   4.456  3.4456  0.4349 -0.6287
  119MOL0     H16020   9.661   4.813   4.591 -0.4783 -0.7656  1.2273
  119MOL0     H16021   9.752   5.006   4.465  0.4145  2.7698  1.3291
  119MOL0     H16022   9.925   4.962   4.488  1.7166 -2.3599  2.0735
  119MOL0     H16023   9.727   5.001   4.706  1.9578 -1.6210  1.9629
  119MOL0     H16024   9.811   5.142   4.635 -0.6781  0.3472  0.0084
  119MOL0     H16025  10.021   5.251   4.794 -2.3153 -0.5902 -4.1216
  119MOL0     H16026  10.251   5.343   4.737 -3.8639  0.4684 -0.8968
  119MOL0     H16027  10.594   5.417   4.488 -2.4143 -0.0318 -1.9345
  119MOL0     H16028  10.812   5.488   4.359  2.8021 -1.8174  3.2457
  119MOL0     H16029  10.883   5.352   4.028 -0.6695 -0.8783  0.7182
  119MOL0     H16030  10.893   5.506   4.128  2.0174  1.7390 -0.0242
  119MOL0     H16031  11.107   5.495   3.986 -1.1863 -1.3198 -1.1265
  119MOL0     H16032  11.144   5.469   4.159  0.1744  0.8105 -0.4625
  119MOL0     H16033  11.275   5.314   4.027 -0.2226 -3.1750 -2.8381
  119MOL0     H16034  11.148   5.213   4.099 -0.7435 -0.7226  0.8014
  119MOL0     H16035  11.132   5.338   3.819 -0.9434  1.0935  0.9171
  119MOL0     H16036  11.011   5.236   3.888 -0.0917  0.4962  3.8678
  119MOL0     H16037  11.133   5.100   3.737  0.7660  0.6300 -0.7835
  119MOL0     H16038  11.194   5.041   3.886  0.6064 -1.2090 -0.2944
  119MOL0     H16039  11.326   5.243   3.704  2.6619 -2.4065 -2.9991
  119MOL0     H16040  11.382   5.209   3.864 -2.4444  0.1451  0.6708
  119MOL0     H16041  11.451   4.993   3.811 -1.9930 -0.3963  1.1061
  119MOL0     H16042  11.490   5.078   3.659  1.5985 -0.9974  1.7384
  119MOL0     H16043  11.394   4.863   3.608 -0.9667  0.0851 -0.9392
  119MOL0     H16044  11.247   4.897   3.696 -1.0433  1.8746  1.9763
  119MOL0     H16045  10.820   5.102   4.176 -1.3213  0.3401 -1.0952
  119MOL0     H16046  10.632   5.028   4.291  0.6203 -0.0392  2.0902
  119MOL0     H16047  10.332   4.961   4.543  3.5325  0.9789  2.2063
  119MOL0     H16048  10.091   4.888   4.612  0.2262 -0.8608  2.5200
  119MOL0     H16049  10.057   4.135   5.259 -1.3364  0.7723 -0.3934
  119MOL0     H16050  10.297   4.141   5.185  1.9887 -0.3780 -1.4842
  119MOL0     H16051  10.663   4.013   5.273 -1.0530 -2.5515 -0.1869
  119MOL0     H16052  10.911   4.045   5.285 -0.2567 -1.0840  0.9829
  119MOL0     H16053  11.091   4.121   4.924  1.4741  1.3668 -1.2260
  119MOL0     H16054  11.162   3.953   4.938  0.1092  0.5753  1.0276
  119MOL0     H16055  11.317   4.089   5.116 -0.3994 -3.6771 -0.8539
  119MOL0     H16056  11.263   4.234   5.031 -0.7671  0.2191  4.5071
  119MOL0     H16057  11.408   3.999   4.896  3.1796  0.4796 -0.8659
  119MOL0     H16058  11.484   4.151   4.918  0.1999  0.8017  0.2753
  119MOL0     H16059  11.226   4.134   4.759 -2.0756  3.5317  4.5935
  119MOL0     H16060  11.339   4.265   4.752 -1.9621 -1.2509 -2.7758
  119MOL0     H16061  11.528   4.009   4.488 -1.4766 -1.8044  0.1446
  119MOL0     H16062  10.938   3.895   4.877 -0.6056  0.5799 -1.0524
  119MOL0     H16063  10.765   3.887   4.749 -0.7494 -2.1116 -2.0831
  119MOL0     H16064  10.660   3.758   4.814  1.5023 -0.6210 -0.0266
  119MOL0     H16065  10.606   3.930   4.808 -1.1629 -1.0000  1.3352
  120MOL0     O16066   8.783   1.873   0.613 -0.3882 -0.3266 -0.6262
  120MOL0     C16067   8.763   1.806   0.717 -1.1247  0.3444  0.1447
  120MOL0     O16068   8.656   1.823   0.795  0.2848 -0.2569 -0.2438
  120MOL0     C16069   8.594   1.943   0.793 -0.0100 -0.5169  0.0390
  120MOL0     C16070   8.490   1.973   0.705  0.6341 -0.7275  0.1965
  120MOL0     C16071   8.426   2.093   0.706 -0.0960 -0.1412  0.6275
  120MOL0     C16072   8.470   2.198   0.789  0.2791  0.6395 -0.0896
  120MOL0     O16073   8.404   2.318   0.776  0.0592  0.4623  0.4217
  120MOL0     C16074   8.395   2.394   0.899 -0.9089  0.2824 -0.2048
  120MOL0     C16075   8.288   2.500   0.870  0.2943  0.4769 -1.1539
  120MOL0     C16076   8.146   2.450   0.878 -0.3698 -0.3606  0.3924
  120MOL0     C16077   8.080   2.410   0.746  0.1262  0.0954  0.1533
  120MOL0     C16078   7.930   2.375   0.768  0.0138  0.5109  0.7358
  120MOL0     C16079   7.841   2.508   0.751 -0.7207 -0.2583 -0.3412
  120MOL0     C16080   7.694   2.480   0.770 -0.0105  0.5582 -0.2536
  120MOL0     C16081   7.615   2.607   0.731  0.4296 -0.3722  0.4281
  120MOL0     N16082   7.475   2.584   0.723 -0.2024 -0.6115 -0.3753
  120MOL0     C16083   7.414   2.535   0.607 -0.9185 -0.7974  0.0730
  120MOL0     C16084   7.285   2.519   0.633  0.0686 -0.6749  0.5183
  120MOL0     C16085   7.169   2.500   0.536  0.1975  0.3284 -0.6349
  120MOL0     C16086   7.126   2.354   0.541 -0.0402 -0.4502  0.2001
  120MOL0     C16087   6.988   2.339   0.467  0.0123  0.4778  0.1333
  120MOL0     C16088   6.959   2.190   0.461  0.5355 -0.2026 -0.0228
  120MOL0     O16089   6.979   2.113   0.582  0.1405 -0.0201 -0.1249
  120MOL0     C16090   6.978   1.973   0.575 -0.2887 -0.0622 -0.7358
  120MOL0     C16091   7.047   1.906   0.678 -0.3329  0.5697  0.1295
  120MOL0     C16092   7.073   1.770   0.670 -0.4076 -0.2047 -0.2819
  120MOL0     C16093   7.025   1.701   0.560  0.5479  0.3986 -0.4462
  120MOL0     C16094   7.044   1.562   0.557 -0.6352 -0.0164  0.1822
  120MOL0     O16095   6.969   1.495   0.460 -0.3145 -0.2273 -0.3237
  120MOL0     C16096   6.959   1.356   0.463 -0.3313  0.6010 -0.3591
  120MOL0     C16097   6.971   1.278   0.583  0.0368 -1.3172 -0.9974
  120MOL0     C16098   6.960   1.137   0.586 -0.4967  0.5254  0.3734
  120MOL0     C16099   6.932   1.064   0.473  0.0525 -0.6819 -0.0098
  120MOL0     O16100   6.924   0.928   0.498 -0.3254  0.5716  0.1229
  120MOL0     C16101   6.915   0.829   0.394  0.3091  0.9598 -0.3242
  120MOL0     C16102   7.035   0.832   0.310 -0.0762 -0.0176 -0.3089
  120MOL0     C16103   7.024   0.715   0.207  0.3855  0.1891  0.1500
  120MOL0     C16104   6.964   0.571   0.233  0.2347  0.2767 -0.4394
  120MOL0     C16105   6.968   0.487   0.100 -0.2982  0.0154  0.0692
  120MOL0     C16106   6.978   0.339   0.146  0.3057 -0.3941 -0.2558
  120MOL0     C16107   7.115   0.305   0.205  0.3570  0.3013  0.3858
  120MOL0     C16108   7.131   0.159   0.224  0.2688  0.4242  0.4693
  120MOL0    Cl16109   7.020   0.084   0.358 -0.0491 -0.0133  0.0637
  120MOL0     C16110   6.900   1.140   0.354  0.2257  0.3146  0.1536
  120MOL0     C16111   6.911   1.282   0.352  0.8021  0.0623 -0.2691
  120MOL0     O16112   7.128   1.519   0.628  0.0770  0.3940  0.0971
  120MOL0     C16113   6.948   1.768   0.457 -0.1484  0.5886  0.1286
  120MOL0     C16114   6.920   1.906   0.468 -0.4122  0.1018  0.3328
  120MOL0     N16115   7.272   2.558   0.768  0.6184  0.5203  0.3480
  120MOL0     N16116   7.384   2.599   0.818 -0.2520  0.1970 -0.1410
  120MOL0     C16117   8.576   2.173   0.872 -0.0945  0.0134  0.2726
  120MOL0     C16118   8.635   2.052   0.881  0.4608 -0.2989 -0.6923
  120MOL0     C16119   8.871   1.704   0.751  0.2212 -0.2752  0.0466
  120MOL0     C16120   9.003   1.726   0.713 -0.3682 -0.9943 -0.3719
  120MOL0     C16121   9.104   1.637   0.763  1.0275 -0.8600  0.9647
  120MOL0     C16122   9.073   1.521   0.821  0.2471  0.0580 -0.5753
  120MOL0     O16123   9.188   1.452   0.851 -0.0035  0.6426  0.2383
  120MOL0     C16124   9.184   1.324   0.910 -0.6898  0.0876  0.4059
  120MOL0     C16125   9.210   1.227   0.798 -0.1651 -0.3328 -0.3894
  120MOL0     C16126   9.357   1.247   0.763  0.4030 -0.4386  0.3881
  120MOL0     C16127   9.414   1.158   0.648  0.4323 -0.1522  0.3866
  120MOL0     C16128   9.349   1.184   0.518  0.4394 -0.5829  0.2781
  120MOL0     C16129   9.309   1.205   0.407  1.6611 -0.5773 -0.6459
  120MOL0     C16130   8.936   1.491   0.848  0.4493  0.9585  0.5541
  120MOL0     C16131   8.837   1.577   0.815  0.1641 -0.5253 -0.5805
  120MOL0     C16132   8.698   1.536   0.864 -0.3815 -0.4956  0.5308
  120MOL0     H16133   8.453   1.908   0.627 -0.6581  0.2175 -0.0169
  120MOL0     H16134   8.365   2.103   0.617 -1.2502  2.5074  1.6088
  120MOL0     H16135   8.365   2.329   0.982  1.2720 -1.3811 -0.6369
  120MOL0     H16136   8.482   2.449   0.937 -1.8099  1.6390 -0.0211
  120MOL0     H16137   8.308   2.541   0.771  0.5089 -0.1256 -1.3635
  120MOL0     H16138   8.308   2.585   0.936 -1.4952  0.3491 -0.3762
  120MOL0     H16139   8.094   2.535   0.923 -0.0038 -0.5522  1.2157
  120MOL0     H16140   8.144   2.370   0.952  1.5515 -1.2294 -0.4290
  120MOL0     H16141   8.083   2.497   0.679  0.8819  0.8376  1.1284
  120MOL0     H16142   8.137   2.332   0.695  0.1951  0.4494 -0.3299
  120MOL0     H16143   7.909   2.307   0.685 -0.7084  0.3055  1.0833
  120MOL0     H16144   7.924   2.320   0.862  0.7612 -0.2733  0.3374
  120MOL0     H16145   7.873   2.585   0.822 -0.2651  1.0120 -1.8535
  120MOL0     H16146   7.865   2.544   0.650  1.1142 -0.4441 -0.0046
  120MOL0     H16147   7.655   2.473   0.872 -0.3299  1.2079 -0.3224
  120MOL0     H16148   7.671   2.385   0.721 -1.6834  0.5560  0.4555
  120MOL0     H16149   7.629   2.682   0.809 -1.3614 -1.3619  1.7867
  120MOL0     H16150   7.646   2.656   0.639 -0.7277 -0.4964 -0.0450
  120MOL0     H16151   7.464   2.530   0.510 -0.1626  1.4404  0.2927
  120MOL0     H16152   7.082   2.558   0.569 -1.0500 -2.9169  2.4454
  120MOL0     H16153   7.203   2.541   0.441  1.6850 -0.4912 -0.4768
  120MOL0     H16154   7.201   2.294   0.488 -0.7875 -0.6496 -0.6492
  120MOL0     H16155   7.107   2.315   0.641 -3.4772  1.1867  0.3182
  120MOL0     H16156   7.001   2.382   0.367  0.4708 -1.9510 -0.9410
  120MOL0     H16157   6.908   2.386   0.524  2.7410  2.4241  2.6530
  120MOL0     H16158   7.019   2.145   0.382  1.8167  0.7029  0.4211
  120MOL0     H16159   6.856   2.174   0.427  0.8910 -0.0973 -1.1655
  120MOL0     H16160   7.088   1.949   0.769 -0.9914 -1.3861  1.4131
  120MOL0     H16161   7.131   1.721   0.747  1.5215  3.3617  0.7845
  120MOL0     H16162   6.993   1.331   0.675 -2.2674 -1.2670 -0.4189
  120MOL0     H16163   6.977   1.096   0.685  1.3328 -0.5796 -0.3592
  120MOL0     H16164   6.885   0.735   0.440 -1.3321  1.5216 -0.1817
  120MOL0     H16165   6.833   0.850   0.325  0.6039  2.4236 -0.2794
  120MOL0     H16166   7.053   0.923   0.252  0.0106 -1.3516 -2.4983
  120MOL0     H16167   7.119   0.816   0.378 -0.5680 -4.7537 -0.4389
  120MOL0     H16168   6.964   0.753   0.124 -2.5566  0.2372  2.1368
  120MOL0     H16169   7.129   0.698   0.184  0.4130 -0.9710  1.0456
  120MOL0     H16170   6.856   0.578   0.248  0.2025 -0.5903 -0.2528
  120MOL0     H16171   7.017   0.527   0.317  0.2702  0.2881 -0.4556
  120MOL0     H16172   7.056   0.520   0.045  0.3356  0.4985  1.3289
  120MOL0     H16173   6.885   0.504   0.030 -0.0862 -0.8612 -0.4022
  120MOL0     H16174   6.899   0.304   0.214 -0.3118  1.2175 -0.1052
  120MOL0     H16175   6.959   0.270   0.064 -3.0674 -2.3995  1.9556
  120MOL0     H16176   7.128   0.362   0.298 -0.4300  1.0330  0.0638
  120MOL0     H16177   7.187   0.327   0.126 -0.6334  1.3326 -0.2613
  120MOL0     H16178   7.106   0.116   0.126  1.3893  2.1801 -0.6520
  120MOL0     H16179   7.225   0.123   0.265 -1.5550 -1.2486  3.5613
  120MOL0     H16180   6.870   1.092   0.261 -4.0721  2.0552  0.4426
  120MOL0     H16181   6.885   1.318   0.253 -0.2260  1.7992  0.5740
  120MOL0     H16182   6.906   1.712   0.375  0.0873  2.2791 -1.2171
  120MOL0     H16183   6.864   1.950   0.386  0.4259 -0.7598 -0.7279
  120MOL0     H16184   8.615   2.251   0.936 -1.1649 -1.6808  3.1838
  120MOL0     H16185   8.720   2.041   0.946 -1.2815 -0.7705  1.6333
  120MOL0     H16186   9.024   1.820   0.663 -1.1962 -0.8515 -0.4713
  120MOL0     H16187   9.209   1.656   0.742  0.2401  1.9331 -1.1519
  120MOL0     H16188   9.088   1.310   0.960 -1.2249  1.8117 -0.0852
  120MOL0     H16189   9.255   1.298   0.988 -0.7684 -0.2707  0.3639
  120MOL0     H16190   9.150   1.247   0.708  2.4424 -1.1017 -2.4075
  120MOL0     H16191   9.182   1.126   0.831  0.1758 -0.5510 -0.7570
  120MOL0     H16192   9.421   1.225   0.849  3.4139 -2.0185 -2.0626
  120MOL0     H16193   9.373   1.349   0.729 -0.8547 -0.8506 -1.6270
  120MOL0     H16194   9.521   1.178   0.645  1.0829 -3.1018  0.9806
  120MOL0     H16195   9.415   1.049   0.655 -1.3347 -0.1935  0.4425
  120MOL0     H16196   9.266   1.215   0.310 -0.8362  0.8170  0.5336
  120MOL0     H16197   8.917   1.400   0.903  1.9606  0.2056 -0.1192
  120MOL0     H16198   8.705   1.486   0.961 -2.1101  2.4899  2.3333
  120MOL0     H16199   8.621   1.610   0.886 -1.0779 -0.8173 -0.7053
  120MOL0     H16200   8.649   1.468   0.793 -1.5077  1.2947 -0.4724
  121MOL0     O16201   4.495   3.143   2.931 -0.5591  0.6099 -0.5173
  121MOL0     C16202   4.559   3.038   2.920 -0.3231 -0.4131 -0.7909
  121MOL0     O16203   4.507   2.910   2.896  0.4165 -0.2653 -0.5323
  121MOL0     C16204   4.372   2.910   2.877 -0.3509  0.2942  0.5422
  121MOL0     C16205   4.308   2.967   2.766  0.2430 -0.6219  0.4414
  121MOL0     C16206   4.169   2.939   2.746  0.2419 -0.9731 -0.2150
  121MOL0     C16207   4.103   2.864   2.836 -0.9308 -0.2112 -0.0797
  121MOL0     O16208   3.970   2.833   2.818 -0.6507 -0.5204 -0.2109
  121MOL0     C16209   3.935   2.698   2.844  0.1827  0.3941  0.2484
  121MOL0     C16210   3.802   2.673   2.931  0.6468 -1.0576  0.7480
  121MOL0     C16211   3.683   2.721   2.854  0.4476  0.0241 -0.5473
  121MOL0     C16212   3.544   2.700   2.924  0.5348 -0.4743  0.5607
  121MOL0     C16213   3.436   2.656   2.828  0.5049  0.8949  0.1587
  121MOL0     C16214   3.308   2.638   2.906  1.5377 -0.4618 -0.1938
  121MOL0     C16215   3.193   2.558   2.834 -0.2029 -0.0752 -0.0031
  121MOL0     C16216   3.129   2.663   2.740  0.2860 -0.0260  0.6931
  121MOL0     N16217   3.007   2.610   2.680 -1.0085 -0.3727 -0.0916
  121MOL0     C16218   2.931   2.664   2.576 -0.0180 -0.1338  0.1538
  121MOL0     C16219   2.819   2.587   2.558 -1.2427 -0.1752 -0.7731
  121MOL0     C16220   2.712   2.609   2.470 -0.3913 -0.7150 -1.0116
  121MOL0     C16221   2.764   2.610   2.323  0.7485  0.8124 -0.2604
  121MOL0     C16222   2.762   2.755   2.267 -0.8274 -0.2554  0.5303
  121MOL0     C16223   2.842   2.783   2.129 -1.0039  0.2567 -0.8083
  121MOL0     O16224   2.979   2.739   2.148 -0.6061 -0.3404 -0.6062
  121MOL0     C16225   3.067   2.838   2.168  0.9982 -0.0626  0.4120
  121MOL0     C16226   3.184   2.824   2.096 -0.9145  0.3815 -0.1137
  121MOL0     C16227   3.287   2.910   2.097  0.5341  0.2286 -0.0145
  121MOL0     C16228   3.285   3.005   2.195  0.5340 -0.7045 -0.6129
  121MOL0     C16229   3.408   3.090   2.228  0.4964 -0.3313 -0.9647
  121MOL0     O16230   3.523   3.056   2.169 -0.0503  0.2553  0.7388
  121MOL0     C16231   3.643   3.125   2.182  0.5710  0.1017  0.1074
  121MOL0     C16232   3.757   3.048   2.184  0.0767  0.0836  0.3213
  121MOL0     C16233   3.888   3.105   2.180  0.3423  0.1880 -0.3754
  121MOL0     C16234   3.895   3.244   2.177 -0.1509  0.0055 -0.0700
  121MOL0     O16235   4.021   3.296   2.174  0.4321  0.0743 -0.0231
  121MOL0     C16236   4.093   3.294   2.051 -0.3079  0.2998  0.6425
  121MOL0     C16237   4.216   3.383   2.078 -0.4169  0.4177  0.0657
  121MOL0     C16238   4.317   3.370   1.965  0.4957 -0.4075 -0.4441
  121MOL0     C16239   4.456   3.404   2.011 -0.0365  0.0861 -0.7899
  121MOL0     C16240   4.536   3.412   1.886  0.2919  0.3803 -0.6311
  121MOL0     C16241   4.682   3.454   1.923  0.0155 -0.7611  0.9895
  121MOL0     C16242   4.790   3.460   1.812 -0.0266  0.2324 -0.5630
  121MOL0     C16243   4.826   3.332   1.749  0.1058  0.5873  0.3536
  121MOL0    Cl16244   4.966   3.347   1.650 -0.4532  0.1037  0.7039
  121MOL0     C16245   3.782   3.328   2.150 -0.1968  0.2746  0.1361
  121MOL0     C16246   3.658   3.264   2.150  0.1377  0.6721  1.2962
  121MOL0     O16247   3.392   3.190   2.290 -0.3310  1.0309  0.2912
  121MOL0     C16248   3.169   3.021   2.277  0.1970  0.9620 -0.8478
  121MOL0     C16249   3.061   2.942   2.255 -0.5696 -0.2864 -0.6388
  121MOL0     N16250   2.832   2.474   2.637 -1.0148  0.3495 -0.7959
  121MOL0     N16251   2.948   2.491   2.706  0.5857  1.4525 -0.3504
  121MOL0     C16252   4.161   2.833   2.960  1.2879 -0.3110 -0.2270
  121MOL0     C16253   4.294   2.848   2.977 -0.3895 -0.1225  0.5632
  121MOL0     C16254   4.701   3.044   2.908  0.5020 -0.6005  0.2325
  121MOL0     C16255   4.763   3.134   2.822  1.0158 -0.4023  1.4036
  121MOL0     C16256   4.901   3.130   2.790  0.3352  0.4178 -0.0352
  121MOL0     C16257   4.986   3.030   2.857 -0.5760  0.2069  0.4298
  121MOL0     O16258   5.119   3.014   2.825  0.0430  0.2794 -0.0177
  121MOL0     C16259   5.207   3.122   2.814 -0.0603  0.0955  0.6163
  121MOL0     C16260   5.225   3.183   2.958 -0.3126  0.1927 -0.3866
  121MOL0     C16261   5.342   3.287   2.966  1.0948  1.0357  0.4040
  121MOL0     C16262   5.369   3.324   3.112  0.0961  0.1532 -0.2610
  121MOL0     C16263   5.498   3.393   3.132 -0.9679  0.0144  0.0296
  121MOL0     C16264   5.603   3.459   3.155 -0.2992  0.5116  0.3225
  121MOL0     C16265   4.924   2.945   2.947  0.5242  0.3786  0.1009
  121MOL0     C16266   4.781   2.944   2.972 -0.4041 -0.4021  0.2066
  121MOL0     C16267   4.727   2.845   3.072 -0.2297 -0.2322  0.4103
  121MOL0     H16268   4.368   3.030   2.701  0.5527 -1.9374 -0.5836
  121MOL0     H16269   4.116   2.966   2.656 -2.3594  0.9830  1.7413
  121MOL0     H16270   3.924   2.657   2.743  0.9747 -1.0398  0.7163
  121MOL0     H16271   4.011   2.638   2.895 -1.3436 -4.7195 -2.7497
  121MOL0     H16272   3.815   2.739   3.017  3.4151 -0.2487 -0.1869
  121MOL0     H16273   3.797   2.568   2.961 -0.4072 -0.2116  3.9311
  121MOL0     H16274   3.673   2.670   2.757 -4.1850  1.9271 -1.3642
  121MOL0     H16275   3.686   2.827   2.827 -0.0274  0.2699  0.3201
  121MOL0     H16276   3.552   2.632   3.009 -2.9858 -0.4253  1.0856
  121MOL0     H16277   3.514   2.798   2.960 -0.8576 -1.1191  1.2306
  121MOL0     H16278   3.429   2.737   2.755  0.2738  0.2762 -0.5213
  121MOL0     H16279   3.456   2.563   2.774  1.0607  0.8882  0.3729
  121MOL0     H16280   3.346   2.597   3.000  1.2431 -0.9904 -0.3029
  121MOL0     H16281   3.262   2.734   2.932  1.1480 -0.6874 -0.0484
  121MOL0     H16282   3.124   2.524   2.913  0.2248 -1.3702 -0.1684
  121MOL0     H16283   3.220   2.472   2.772 -1.6791 -0.8520  0.3785
  121MOL0     H16284   3.096   2.748   2.799 -2.3087  0.0651 -0.7309
  121MOL0     H16285   3.199   2.705   2.667  1.5983 -0.7377  1.5150
  121MOL0     H16286   2.961   2.752   2.521  4.0133 -1.6271 -0.3933
  121MOL0     H16287   2.638   2.532   2.493  0.2839 -1.6401 -1.8197
  121MOL0     H16288   2.657   2.701   2.489 -0.8552 -0.2735 -4.0444
  121MOL0     H16289   2.860   2.557   2.325  0.0913 -0.4220  1.8785
  121MOL0     H16290   2.700   2.554   2.254  0.5048  3.1618 -2.0913
  121MOL0     H16291   2.801   2.811   2.352 -0.2638 -4.6555  3.4807
  121MOL0     H16292   2.656   2.775   2.253 -1.5833 -2.6780  2.1940
  121MOL0     H16293   2.830   2.887   2.097 -1.5037  1.0626  1.7863
  121MOL0     H16294   2.797   2.710   2.060 -0.3520 -0.8365 -0.1215
  121MOL0     H16295   3.188   2.741   2.026  0.6683 -1.7141  2.2749
  121MOL0     H16296   3.364   2.917   2.021  0.1103  4.3134 -0.3074
  121MOL0     H16297   3.743   2.941   2.188  3.8674 -0.5776 -0.4808
  121MOL0     H16298   3.982   3.050   2.182  0.1761 -0.1781 -1.6822
  121MOL0     H16299   4.120   3.192   2.023 -1.3049  0.5161 -1.2140
  121MOL0     H16300   4.040   3.339   1.967  0.5685  0.4764  0.1648
  121MOL0     H16301   4.177   3.484   2.093  0.0587  0.7992 -1.1233
  121MOL0     H16302   4.275   3.354   2.165  1.5495 -1.2165 -1.7154
  121MOL0     H16303   4.314   3.270   1.921  0.5135  0.2033 -1.8700
  121MOL0     H16304   4.308   3.443   1.884  2.1517  0.1984 -0.1143
  121MOL0     H16305   4.499   3.341   2.089  1.9025  2.2036 -0.0801
  121MOL0     H16306   4.445   3.501   2.060 -0.2417 -0.6497  0.6625
  121MOL0     H16307   4.491   3.494   1.829 -0.1474  1.0707  0.6491
  121MOL0     H16308   4.524   3.319   1.830  1.2782 -0.7941  1.0101
  121MOL0     H16309   4.686   3.560   1.950  4.9802 -0.2916 -0.6300
  121MOL0     H16310   4.713   3.403   2.015 -2.0103  1.7026  3.2068
  121MOL0     H16311   4.880   3.506   1.854  0.1065 -1.1986  0.8610
  121MOL0     H16312   4.745   3.522   1.735 -4.2539 -1.0106  0.6319
  121MOL0     H16313   4.831   3.247   1.818  0.5727 -0.2689 -0.7145
  121MOL0     H16314   4.751   3.296   1.678 -0.1953 -0.7915  1.3160
  121MOL0     H16315   3.799   3.432   2.124 -2.8395  0.5223 -0.8836
  121MOL0     H16316   3.564   3.304   2.114  1.6213  3.4795  0.2265
  121MOL0     H16317   3.160   3.079   2.368  1.1470  0.5778 -0.5069
  121MOL0     H16318   2.970   2.966   2.310 -0.3790  0.1478 -0.5060
  121MOL0     H16319   4.089   2.794   3.031  0.6737  0.1684 -0.5841
  121MOL0     H16320   4.342   2.814   3.068  0.9596 -2.5268 -0.9364
  121MOL0     H16321   4.688   3.191   2.769  0.8962  0.0476  2.0364
  121MOL0     H16322   4.945   3.192   2.713 -0.6997  0.3921 -0.6543
  121MOL0     H16323   5.166   3.193   2.743 -0.1681  0.2703  0.8546
  121MOL0     H16324   5.307   3.093   2.777  0.4806  1.7951  0.6915
  121MOL0     H16325   5.269   3.099   3.013  2.5055  0.6236 -1.7955
  121MOL0     H16326   5.138   3.235   2.999  0.2017  1.1122 -0.4536
  121MOL0     H16327   5.319   3.375   2.904  0.2138  1.7400  1.6868
  121MOL0     H16328   5.432   3.254   2.915  2.0912  2.3887  1.2312
  121MOL0     H16329   5.289   3.392   3.143 -0.8975 -1.4960  0.9188
  121MOL0     H16330   5.372   3.235   3.175  0.8129  0.9285  0.8341
  121MOL0     H16331   5.685   3.527   3.163  0.1990  0.0724 -0.7987
  121MOL0     H16332   4.982   2.885   3.016 -2.2497 -3.2855 -0.4734
  121MOL0     H16333   4.660   2.777   3.018  1.8023 -1.6620 -0.4465
  121MOL0     H16334   4.802   2.779   3.116  0.7440 -0.3894 -1.4030
  121MOL0     H16335   4.675   2.898   3.152  0.9960 -0.2866  1.2676
  122MOL0     O16336   9.954   1.801   2.862 -0.7509  0.5070  0.3376
  122MOL0     C16337   9.832   1.785   2.856  0.4730 -0.3104 -0.2652
  122MOL0     O16338   9.753   1.722   2.767  0.0647 -0.6619  0.7258
  122MOL0     C16339   9.819   1.647   2.678  0.7942 -0.1157  0.8483
  122MOL0     C16340   9.818   1.689   2.545 -0.0480  0.1917 -0.9653
  122MOL0     C16341   9.872   1.605   2.445  0.7687 -0.1430 -0.1909
  122MOL0     C16342   9.962   1.495   2.479 -0.0989  0.0945 -0.1661
  122MOL0     O16343  10.033   1.418   2.386 -0.4307 -0.2139 -0.4058
  122MOL0     C16344   9.991   1.412   2.247  0.1402  0.5485 -0.4183
  122MOL0     C16345   9.862   1.334   2.213  0.4146 -0.2352  0.0199
  122MOL0     C16346   9.872   1.277   2.070  1.8361 -0.7205  0.6964
  122MOL0     C16347   9.756   1.313   1.977 -0.3517 -1.1803 -0.2084
  122MOL0     C16348   9.767   1.261   1.839  0.3040  0.9056 -0.5915
  122MOL0     C16349   9.749   1.101   1.832  1.1631 -0.7080  0.4279
  122MOL0     C16350   9.613   1.056   1.886  0.7198  0.5837  0.2523
  122MOL0     C16351   9.578   0.921   1.831  0.6275 -0.1318 -0.0504
  122MOL0     N16352   9.685   0.821   1.863 -0.3577 -0.1851 -0.1460
  122MOL0     C16353   9.711   0.798   2.001  0.1310 -0.1294 -1.1482
  122MOL0     C16354   9.817   0.720   1.991  0.7363  0.3264  0.3791
  122MOL0     C16355   9.892   0.637   2.099 -0.4537 -0.9576  0.6375
  122MOL0     C16356   9.851   0.657   2.248 -0.3710 -0.8045 -0.9333
  122MOL0     C16357   9.897   0.798   2.304 -0.0096 -1.3178 -0.3583
  122MOL0     C16358   9.833   0.807   2.445 -0.2113 -0.6035 -0.1970
  122MOL0     O16359   9.890   0.711   2.535  0.4800  1.2826  0.0325
  122MOL0     C16360   9.833   0.706   2.667 -0.8104 -0.0196  0.2500
  122MOL0     C16361   9.702   0.755   2.692  0.7973  0.0329 -0.4410
  122MOL0     C16362   9.664   0.756   2.825 -0.1963 -0.9588 -0.7643
  122MOL0     C16363   9.730   0.707   2.933 -0.1518 -0.7398  0.4374
  122MOL0     C16364   9.700   0.725   3.077 -0.2001  0.4675  0.5942
  122MOL0     O16365   9.590   0.809   3.094  0.8709 -0.0059 -0.0522
  122MOL0     C16366   9.551   0.799   3.229  0.1068 -0.2149  0.2093
  122MOL0     C16367   9.605   0.880   3.322  0.1567  0.0423  0.2448
  122MOL0     C16368   9.582   0.873   3.460  0.2046 -0.5504 -0.3706
  122MOL0     C16369   9.488   0.774   3.503  0.5510 -0.0816 -0.7995
  122MOL0     O16370   9.451   0.759   3.633 -0.3474  0.1257 -0.0956
  122MOL0     C16371   9.553   0.761   3.733  0.0681  0.5202  0.2385
  122MOL0     C16372   9.635   0.631   3.720  0.3482 -0.1155  1.0758
  122MOL0     C16373   9.755   0.647   3.625 -0.2854  0.1672 -0.1333
  122MOL0     C16374   9.872   0.554   3.679 -0.0008 -0.1675  0.2062
  122MOL0     C16375   9.966   0.510   3.564  0.1440 -0.0458 -0.5292
  122MOL0     C16376  10.024   0.617   3.480 -0.8079 -0.4433 -0.2045
  122MOL0     C16377  10.122   0.561   3.372  0.3513  0.3522  0.2915
  122MOL0     C16378  10.203   0.667   3.288 -0.2594  0.0500  0.6009
  122MOL0    Cl16379  10.090   0.750   3.172  0.2429  0.2061  0.1985
  122MOL0     C16380   9.423   0.697   3.402  0.7226 -0.8358 -0.6746
  122MOL0     C16381   9.457   0.710   3.266  0.3478 -0.2482 -0.8533
  122MOL0     O16382   9.761   0.653   3.163  0.1703  0.1874  0.4699
  122MOL0     C16383   9.857   0.654   2.910 -0.3790  0.1829  0.9370
  122MOL0     C16384   9.909   0.642   2.777  1.0611  0.6326 -0.6115
  122MOL0     N16385   9.851   0.688   1.856  0.2937  0.6655 -0.4119
  122MOL0     N16386   9.774   0.764   1.786 -0.4974 -0.6155  1.0129
  122MOL0     C16387   9.971   1.463   2.615  0.7294 -0.5272 -0.2675
  122MOL0     C16388   9.901   1.536   2.712  0.0089  0.2851  0.2721
  122MOL0     C16389   9.761   1.838   2.978 -0.3680  0.1368 -0.6206
  122MOL0     C16390   9.648   1.779   3.021 -0.6764  1.2340 -0.7914
  122MOL0     C16391   9.588   1.814   3.131  0.4729  0.1050 -0.1424
  122MOL0     C16392   9.626   1.923   3.206  0.2545 -0.1206  0.2800
  122MOL0     O16393   9.552   1.945   3.315 -0.5911  0.2324 -0.5803
  122MOL0     C16394   9.602   1.881   3.435 -0.5717 -0.5718 -0.0641
  122MOL0     C16395   9.523   1.753   3.473  0.5905 -0.2892  0.2319
  122MOL0     C16396   9.522   1.718   3.624  0.1647  0.1109 -0.4329
  122MOL0     C16397   9.417   1.614   3.654 -0.6917 -0.6430 -0.3759
  122MOL0     C16398   9.424   1.556   3.790  0.2026  0.1171 -0.0035
  122MOL0     C16399   9.450   1.527   3.903 -0.0520 -0.6667  0.5186
  122MOL0     C16400   9.746   1.996   3.168  0.3994 -0.3277 -0.1473
  122MOL0     C16401   9.807   1.959   3.047  0.1883 -0.4402  0.2514
  122MOL0     C16402   9.900   2.061   2.987 -0.3732  0.4388 -0.1959
  122MOL0     H16403   9.784   1.788   2.516 -2.3907 -0.5010 -0.8297
  122MOL0     H16404   9.852   1.641   2.345 -5.5356  1.2640  1.1807
  122MOL0     H16405   9.985   1.514   2.208  1.6811 -0.1455 -2.6424
  122MOL0     H16406  10.071   1.358   2.195 -0.8601 -1.6288  0.2028
  122MOL0     H16407   9.775   1.399   2.224  0.7068 -0.0390  1.3110
  122MOL0     H16408   9.846   1.254   2.286 -2.2915 -0.6019 -0.8713
  122MOL0     H16409   9.885   1.169   2.062 -2.0850 -1.2104 -1.9199
  122MOL0     H16410   9.959   1.316   2.016  1.0387 -2.8546 -2.4629
  122MOL0     H16411   9.671   1.283   2.040 -3.0544  2.1967 -1.9251
  122MOL0     H16412   9.746   1.422   1.979  1.8816 -0.9283 -0.1558
  122MOL0     H16413   9.690   1.309   1.777 -1.2843  2.6111  2.4476
  122MOL0     H16414   9.856   1.304   1.792 -0.1021  0.0178 -2.2515
  122MOL0     H16415   9.743   1.085   1.724 -4.3653 -2.3014  0.6476
  122MOL0     H16416   9.823   1.043   1.889  1.2166 -2.4374 -1.3064
  122MOL0     H16417   9.538   1.131   1.858  2.0477  2.2989  1.1180
  122MOL0     H16418   9.611   1.047   1.995 -1.3559  0.8165  0.2824
  122MOL0     H16419   9.486   0.879   1.875  0.4458  1.8390  1.5921
  122MOL0     H16420   9.566   0.936   1.724  0.1758  0.0962  0.0292
  122MOL0     H16421   9.653   0.841   2.082 -0.9814  0.5063 -2.2635
  122MOL0     H16422   9.886   0.531   2.074 -1.7763 -0.9724  0.9206
  122MOL0     H16423   9.997   0.665   2.088 -0.7135  0.1208  0.7448
  122MOL0     H16424   9.744   0.645   2.266  0.3171 -2.1777  3.5523
  122MOL0     H16425   9.895   0.581   2.314 -2.1908 -0.9671  0.1540
  122MOL0     H16426   9.864   0.874   2.233  1.3245 -1.6323 -1.3602
  122MOL0     H16427  10.005   0.817   2.302 -0.0850 -0.8303  0.1679
  122MOL0     H16428   9.728   0.789   2.421 -1.0619  1.0138  1.9727
  122MOL0     H16429   9.847   0.909   2.483 -1.4792 -1.7152  3.7819
  122MOL0     H16430   9.636   0.795   2.617 -0.5627  0.8296  1.1294
  122MOL0     H16431   9.576   0.815   2.849  0.7512  1.7314 -3.3589
  122MOL0     H16432   9.676   0.950   3.279 -1.8824 -0.0206 -3.7384
  122MOL0     H16433   9.625   0.951   3.522 -2.3346  2.0171 -1.6135
  122MOL0     H16434   9.616   0.849   3.717  1.8822 -0.8553 -0.5114
  122MOL0     H16435   9.516   0.759   3.836  0.1607  0.6415  0.2746
  122MOL0     H16436   9.683   0.601   3.814  0.0796  1.9113  1.9084
  122MOL0     H16437   9.566   0.550   3.694  0.8831 -0.4813  0.7804
  122MOL0     H16438   9.729   0.626   3.521 -1.1497 -1.8599  0.4534
  122MOL0     H16439   9.791   0.751   3.626  0.5095 -0.1043  1.0586
  122MOL0     H16440   9.835   0.463   3.728 -0.0888 -1.6535 -2.4051
  122MOL0     H16441   9.931   0.614   3.749  3.9938  0.3047 -3.1615
  122MOL0     H16442   9.913   0.455   3.486 -2.9539  2.9898 -0.8285
  122MOL0     H16443  10.037   0.440   3.608 -3.5095 -3.1318  1.0124
  122MOL0     H16444   9.961   0.688   3.426 -2.6930 -1.6857  0.2753
  122MOL0     H16445  10.082   0.678   3.550 -2.9424  0.2918  0.9848
  122MOL0     H16446  10.077   0.482   3.310 -0.0249  0.0748  0.9012
  122MOL0     H16447  10.195   0.510   3.436  1.3229  2.4923  0.9673
  122MOL0     H16448  10.247   0.740   3.355 -0.0528 -0.3216  0.8744
  122MOL0     H16449  10.284   0.618   3.233 -1.7268 -1.7448 -0.0699
  122MOL0     H16450   9.338   0.635   3.426  0.0703  0.8836  1.7860
  122MOL0     H16451   9.407   0.645   3.195 -0.1241 -2.3917  1.3399
  122MOL0     H16452   9.923   0.614   2.987  1.2496  0.8009 -0.0670
  122MOL0     H16453  10.001   0.585   2.778  0.7103  0.0547  1.3596
  122MOL0     H16454  10.039   1.382   2.640 -0.1389 -0.5601  2.3147
  122MOL0     H16455   9.896   1.492   2.811  1.3959  1.5605  0.9509
  122MOL0     H16456   9.620   1.685   2.973  3.5600 -1.6178  1.6266
  122MOL0     H16457   9.503   1.763   3.176 -0.3304  0.1786 -1.5156
  122MOL0     H16458   9.610   1.947   3.522 -2.5563 -1.5084  0.8856
  122MOL0     H16459   9.703   1.843   3.416 -0.2615 -0.3958  1.1363
  122MOL0     H16460   9.571   1.672   3.418  1.9274 -1.4701  2.9548
  122MOL0     H16461   9.422   1.761   3.433 -0.9583  2.0016  4.1032
  122MOL0     H16462   9.499   1.802   3.690  0.2995 -0.9714  1.0600
  122MOL0     H16463   9.612   1.668   3.663 -0.7071 -1.5726 -0.4595
  122MOL0     H16464   9.318   1.654   3.630 -1.1184 -2.0167 -1.0214
  122MOL0     H16465   9.439   1.530   3.588 -0.5655  0.7391 -2.1739
  122MOL0     H16466   9.467   1.483   4.000  0.4548 -1.2869  0.1558
  122MOL0     H16467   9.777   2.074   3.237 -0.4533  0.0031 -0.1272
  122MOL0     H16468   9.913   2.058   2.878 -0.9713 -0.4902 -0.2561
  122MOL0     H16469   9.857   2.160   3.002 -2.6923 -0.6630  0.8596
  122MOL0     H16470   9.999   2.069   3.032  1.1899  0.8110 -3.3919
  123MOL0     O16471   1.594   8.856   7.418  0.0734 -0.4919 -0.4414
  123MOL0     C16472   1.641   8.793   7.325  0.7400 -0.4119 -0.2329
  123MOL0     O16473   1.577   8.701   7.254  0.4115  0.6497 -0.8506
  123MOL0     C16474   1.462   8.640   7.299  0.5038  0.7066  0.3642
  123MOL0     C16475   1.347   8.646   7.219  0.5960 -0.5603 -0.0594
  123MOL0     C16476   1.238   8.560   7.248 -0.5394 -0.0276  0.3102
  123MOL0     C16477   1.243   8.484   7.357 -0.9078  0.6766  0.2177
  123MOL0     O16478   1.132   8.404   7.395  0.6134  0.6630 -0.6064
  123MOL0     C16479   1.121   8.312   7.507  0.0060 -0.3045  0.2270
  123MOL0     C16480   0.991   8.235   7.480  0.1625 -0.0934  0.6953
  123MOL0     C16481   1.017   8.110   7.394  0.0921 -1.0240 -0.1557
  123MOL0     C16482   0.889   8.033   7.387  0.5320  0.0307  0.4494
  123MOL0     C16483   0.859   7.953   7.258  0.3058  0.3101  0.2548
  123MOL0     C16484   0.937   7.829   7.245  0.9615  1.1484  0.2478
  123MOL0     C16485   0.951   7.771   7.105  0.5490 -0.1870  0.9078
  123MOL0     C16486   1.089   7.806   7.055  0.6788  0.0478 -0.3451
  123MOL0     N16487   1.203   7.724   7.100 -0.1973  0.0635  0.5720
  123MOL0     C16488   1.227   7.594   7.044  0.2778 -1.1432 -1.0266
  123MOL0     C16489   1.343   7.567   7.110  0.9235  0.4433 -0.4944
  123MOL0     C16490   1.431   7.450   7.084 -0.9038  0.0588  0.1369
  123MOL0     C16491   1.567   7.497   7.033 -1.0906 -0.2912 -0.5502
  123MOL0     C16492   1.661   7.551   7.141 -0.1463 -0.0460 -0.1426
  123MOL0     C16493   1.794   7.470   7.155  0.0479  0.4647 -0.3652
  123MOL0     O16494   1.779   7.339   7.202 -0.2224 -0.2844  0.2230
  123MOL0     C16495   1.893   7.264   7.223 -0.7887  0.2267 -0.3122
  123MOL0     C16496   1.887   7.123   7.233  0.8629 -0.8595  0.0657
  123MOL0     C16497   1.993   7.042   7.268  0.4612  0.0084  0.5674
  123MOL0     C16498   2.126   7.090   7.275 -0.0456  0.4125 -0.3708
  123MOL0     C16499   2.239   7.000   7.301  0.2099  0.4573 -0.1534
  123MOL0     O16500   2.204   6.894   7.381 -0.6831 -0.3272 -0.2489
  123MOL0     C16501   2.310   6.846   7.450  0.3437  0.2871 -0.2692
  123MOL0     C16502   2.339   6.710   7.456  0.1399 -1.5142  0.3399
  123MOL0     C16503   2.444   6.661   7.525  0.1938 -0.4117  0.1312
  123MOL0     C16504   2.523   6.741   7.609 -0.1993 -0.9619 -0.2329
  123MOL0     O16505   2.621   6.686   7.691  0.1647  0.1494 -0.8860
  123MOL0     C16506   2.590   6.589   7.797 -0.0988 -0.1621  0.1363
  123MOL0     C16507   2.672   6.613   7.921  1.0175  0.5642 -0.0283
  123MOL0     C16508   2.619   6.538   8.054  0.8228  0.0586  0.5357
  123MOL0     C16509   2.693   6.597   8.179  0.0974 -0.1912 -0.4000
  123MOL0     C16510   2.666   6.527   8.311  0.9848 -0.1130 -0.4972
  123MOL0     C16511   2.686   6.630   8.424 -0.9305  0.2903  0.3748
  123MOL0     C16512   2.647   6.583   8.567  0.2976 -0.5043  0.6084
  123MOL0     C16513   2.764   6.519   8.643 -0.6193  0.6088  0.4372
  123MOL0    Cl16514   2.715   6.435   8.799  0.0863 -0.0937 -0.0883
  123MOL0     C16515   2.514   6.883   7.578  0.2700  0.5072 -1.1862
  123MOL0     C16516   2.404   6.930   7.506 -1.1258  0.0377  0.7564
  123MOL0     O16517   2.348   7.024   7.248  0.6965 -0.3669 -0.0077
  123MOL0     C16518   2.139   7.225   7.253 -0.2035 -0.3097 -0.0057
  123MOL0     C16519   2.023   7.312   7.239  0.1193 -0.1793  1.2026
  123MOL0     N16520   1.377   7.669   7.197 -0.5627  0.4777 -0.0851
  123MOL0     N16521   1.302   7.764   7.184  0.2844  0.4123 -0.6786
  123MOL0     C16522   1.356   8.477   7.434  0.2655 -0.2198 -0.1031
  123MOL0     C16523   1.469   8.549   7.404 -0.0355 -1.0163  0.0494
  123MOL0     C16524   1.788   8.808   7.284 -0.6763  0.4332 -1.5845
  123MOL0     C16525   1.846   8.721   7.191 -0.1728  0.1203 -0.0342
  123MOL0     C16526   1.984   8.719   7.163 -1.0465 -0.8729 -0.3412
  123MOL0     C16527   2.083   8.807   7.228  0.2671 -0.4506 -0.1354
  123MOL0     O16528   2.216   8.802   7.196 -0.0806 -0.0333  0.9649
  123MOL0     C16529   2.311   8.838   7.292 -0.0283 -0.1102  0.2290
  123MOL0     C16530   2.442   8.861   7.214 -1.0279 -0.0391 -0.8013
  123MOL0     C16531   2.560   8.907   7.292 -0.0797 -1.0097 -0.1401
  123MOL0     C16532   2.691   8.947   7.224  0.3696 -0.0660 -0.2695
  123MOL0     C16533   2.750   8.838   7.146  0.0579 -0.2529 -0.2011
  123MOL0     C16534   2.801   8.742   7.094  0.3679 -0.1731 -0.0217
  123MOL0     C16535   2.020   8.903   7.317 -0.0021 -0.1372  0.4102
  123MOL0     C16536   1.884   8.897   7.349 -0.0335 -0.7188  0.5794
  123MOL0     C16537   1.848   8.997   7.465  0.5198 -0.3045 -0.5681
  123MOL0     H16538   1.366   8.711   7.135 -0.0680 -1.1948 -0.7105
  123MOL0     H16539   1.143   8.569   7.195 -0.4264  2.2904  0.4030
  123MOL0     H16540   1.211   8.249   7.511 -1.3399 -2.2487  3.1937
  123MOL0     H16541   1.114   8.366   7.602 -2.5309  0.8532 -0.5465
  123MOL0     H16542   0.919   8.303   7.433  1.6710  2.8009  2.3029
  123MOL0     H16543   0.943   8.207   7.575 -1.8459 -0.5966 -0.4143
  123MOL0     H16544   1.101   8.058   7.441 -0.8240 -2.0679  0.3697
  123MOL0     H16545   1.048   8.129   7.291 -1.2259  1.8760 -0.1019
  123MOL0     H16546   0.889   7.965   7.472 -3.7972 -2.0925 -0.9413
  123MOL0     H16547   0.803   8.098   7.403 -2.3211 -3.1400 -0.6183
  123MOL0     H16548   0.753   7.927   7.251  0.8004 -1.5698 -1.0689
  123MOL0     H16549   0.883   8.018   7.175 -1.8737  0.4545 -0.3294
  123MOL0     H16550   1.041   7.841   7.277  1.8651 -2.2483 -0.9370
  123MOL0     H16551   0.890   7.750   7.304  1.4812  1.1286  0.6346
  123MOL0     H16552   0.860   7.806   7.056 -0.4828 -0.9392  2.2241
  123MOL0     H16553   0.934   7.663   7.112 -1.3435  0.0677  0.6952
  123MOL0     H16554   1.078   7.790   6.947  2.7054  1.0900 -0.7549
  123MOL0     H16555   1.098   7.914   7.063 -0.6730  0.1212  0.4476
  123MOL0     H16556   1.169   7.547   6.966 -1.0386  3.6799 -3.3526
  123MOL0     H16557   1.442   7.401   7.182  0.6077 -0.6165 -0.3324
  123MOL0     H16558   1.387   7.381   7.011 -1.5683 -1.9351  2.2808
  123MOL0     H16559   1.629   7.418   6.988 -0.5541  0.5864 -1.4047
  123MOL0     H16560   1.544   7.573   6.957  1.7701 -0.8382 -2.1195
  123MOL0     H16561   1.609   7.561   7.237  1.3234  1.1263  0.5663
  123MOL0     H16562   1.694   7.649   7.105 -1.9075 -0.0441 -1.8648
  123MOL0     H16563   1.864   7.519   7.224  1.1225 -0.2840 -0.8812
  123MOL0     H16564   1.838   7.465   7.055 -1.2877  1.4457 -1.0222
  123MOL0     H16565   1.790   7.073   7.236 -0.4392  1.5527  0.5666
  123MOL0     H16566   1.960   6.939   7.281  3.1502 -0.7250  2.3454
  123MOL0     H16567   2.263   6.653   7.405 -1.2397 -0.9749  1.7306
  123MOL0     H16568   2.456   6.553   7.516  1.3842 -0.2410 -0.4986
  123MOL0     H16569   2.483   6.576   7.814 -0.0206 -2.7710 -0.8888
  123MOL0     H16570   2.620   6.491   7.757  0.1772 -1.0998  2.5100
  123MOL0     H16571   2.767   6.559   7.912 -0.3684 -2.5929  2.2498
  123MOL0     H16572   2.676   6.721   7.939 -1.6132  0.6596  0.3600
  123MOL0     H16573   2.512   6.555   8.074  0.7674  1.0454 -0.4803
  123MOL0     H16574   2.644   6.433   8.039  0.8579 -0.2410  2.5062
  123MOL0     H16575   2.663   6.701   8.189 -1.4991 -0.7721  1.8311
  123MOL0     H16576   2.800   6.597   8.160  0.0600  0.1812 -0.6042
  123MOL0     H16577   2.721   6.436   8.337 -2.1593 -1.4971  1.9724
  123MOL0     H16578   2.560   6.501   8.320  1.2194 -1.0915 -0.4122
  123MOL0     H16579   2.782   6.681   8.432 -0.4415 -0.0886 -2.2252
  123MOL0     H16580   2.613   6.705   8.392 -0.8616 -0.1369 -0.8332
  123MOL0     H16581   2.567   6.509   8.571 -0.2610  0.1174  4.0780
  123MOL0     H16582   2.609   6.664   8.630  1.2024  1.0366 -0.7496
  123MOL0     H16583   2.813   6.452   8.571 -2.2897  1.7885 -1.9542
  123MOL0     H16584   2.836   6.596   8.674 -1.0625  0.4103  2.0165
  123MOL0     H16585   2.572   6.966   7.615 -1.0821  0.8566  0.2595
  123MOL0     H16586   2.405   7.036   7.481 -1.6481 -0.9431 -4.5046
  123MOL0     H16587   2.238   7.267   7.258  0.4438 -1.7230 -0.3572
  123MOL0     H16588   2.045   7.418   7.249  0.4257 -0.1629  0.4725
  123MOL0     H16589   1.361   8.417   7.524 -0.5537  0.5634  0.4803
  123MOL0     H16590   1.562   8.530   7.457 -1.0079 -4.4221  0.8050
  123MOL0     H16591   1.792   8.639   7.146  3.1040 -2.9698  1.1547
  123MOL0     H16592   2.029   8.654   7.090  3.0304  1.0618  0.1493
  123MOL0     H16593   2.319   8.754   7.362  2.3977 -0.4490 -0.3678
  123MOL0     H16594   2.273   8.932   7.332 -3.0978  1.0208 -4.5203
  123MOL0     H16595   2.428   8.944   7.145 -0.3617 -0.0512 -0.9518
  123MOL0     H16596   2.459   8.777   7.146 -1.5374 -0.0131 -0.9671
  123MOL0     H16597   2.582   8.832   7.368 -0.2878  2.7956  4.1231
  123MOL0     H16598   2.532   8.995   7.350  3.1710  0.8663 -1.1690
  123MOL0     H16599   2.683   9.032   7.155  1.6552  1.7980  1.7571
  123MOL0     H16600   2.766   8.974   7.299 -0.4680 -2.1000  1.3910
  123MOL0     H16601   2.841   8.661   7.035 -0.0997 -0.2006 -0.3078
  123MOL0     H16602   2.092   8.976   7.353  1.9309 -1.6822 -0.1496
  123MOL0     H16603   1.938   9.045   7.506 -0.0913  0.6711 -0.3475
  123MOL0     H16604   1.787   9.079   7.427 -0.9559 -0.4169  1.3863
  123MOL0     H16605   1.808   8.948   7.554  0.5687  0.3154 -0.1991
  124MOL0     O16606   5.969  11.345   2.503 -0.2458 -0.3562 -0.5882
  124MOL0     C16607   6.037  11.404   2.421 -0.8199  1.1535 -0.3538
  124MOL0     O16608   6.031  11.391   2.295  0.4780  0.4510  0.1444
  124MOL0     C16609   5.920  11.328   2.241 -0.8951 -0.6211  0.1252
  124MOL0     C16610   5.796  11.395   2.245 -0.1908  0.3013 -0.3916
  124MOL0     C16611   5.687  11.333   2.175  0.5964 -0.2896 -0.6189
  124MOL0     C16612   5.702  11.213   2.101  0.4212 -0.4322 -0.5406
  124MOL0     O16613   5.588  11.165   2.047  0.3471  0.1475  0.1608
  124MOL0     C16614   5.577  11.021   2.064 -0.5402 -0.3115  0.8881
  124MOL0     C16615   5.426  10.991   2.088  1.1917  0.7641 -0.2684
  124MOL0     C16616   5.354  11.055   2.208  0.5353  0.1866 -0.5573
  124MOL0     C16617   5.408  11.010   2.335 -0.0021 -0.4557 -0.0142
  124MOL0     C16618   5.324  11.059   2.456 -0.6599  0.6967 -0.1447
  124MOL0     C16619   5.222  10.946   2.485  0.4366 -0.0220 -1.2202
  124MOL0     C16620   5.101  10.997   2.560  1.0056 -0.2294  0.2600
  124MOL0     C16621   5.000  10.884   2.568 -0.3668 -0.5449 -0.6735
  124MOL0     N16622   4.885  10.902   2.659  0.1021  0.8724 -0.0050
  124MOL0     C16623   4.795  11.005   2.642  0.0491  0.5759  0.3132
  124MOL0     C16624   4.697  10.967   2.730 -0.7106 -0.0982  0.6806
  124MOL0     C16625   4.581  11.056   2.764  0.5802  0.0602  0.6712
  124MOL0     C16626   4.597  11.144   2.882  0.7113 -0.2523 -0.4986
  124MOL0     C16627   4.691  11.265   2.842 -0.3205  0.1232  0.6141
  124MOL0     C16628   4.710  11.371   2.953  0.6538 -0.3087  1.1264
  124MOL0     O16629   4.778  11.482   2.894 -0.2508  0.2416 -0.2868
  124MOL0     C16630   4.784  11.597   2.979  0.4651 -0.7315  0.4916
  124MOL0     C16631   4.880  11.690   2.950 -0.3873 -0.0283 -0.4853
  124MOL0     C16632   4.892  11.810   3.027 -0.4079 -0.2387  0.4618
  124MOL0     C16633   4.804  11.844   3.123 -0.0367 -0.5812 -0.4069
  124MOL0     C16634   4.818  11.967   3.199 -0.4984 -0.2152 -0.3592
  124MOL0     O16635   4.939  12.028   3.188 -1.3353  0.0429 -0.3096
  124MOL0     C16636   4.956  12.160   3.241 -0.3460  0.3524 -0.0756
  124MOL0     C16637   4.877  12.271   3.238 -0.2312 -0.1228  0.4227
  124MOL0     C16638   4.908  12.391   3.308  0.4322  0.3259  0.5904
  124MOL0     C16639   5.027  12.411   3.376  0.2820 -0.2650 -0.2387
  124MOL0     O16640   5.053  12.523   3.445 -0.8249  0.1101  0.1907
  124MOL0     C16641   4.952  12.592   3.515  0.0839  0.5796 -0.5005
  124MOL0     C16642   5.002  12.704   3.604  0.1739 -0.2227  0.2224
  124MOL0     C16643   5.097  12.653   3.706  0.3889  0.8582 -0.0822
  124MOL0     C16644   5.031  12.565   3.814 -0.3220  0.0949 -0.1643
  124MOL0     C16645   5.124  12.552   3.935 -0.2641  0.2917 -0.5534
  124MOL0     C16646   5.044  12.485   4.055  0.8280 -0.9332  0.1935
  124MOL0     C16647   5.129  12.477   4.193  0.0555  0.4823 -0.5550
  124MOL0     C16648   5.265  12.417   4.186 -0.6541  0.3632  1.6510
  124MOL0    Cl16649   5.232  12.244   4.138 -0.4901  0.0421  0.4543
  124MOL0     C16650   5.107  12.299   3.389 -0.8413  0.1237  0.4292
  124MOL0     C16651   5.082  12.185   3.308  1.4971  0.5053  0.4678
  124MOL0     O16652   4.734  12.008   3.271  0.6057  0.1155  0.1783
  124MOL0     C16653   4.697  11.751   3.156  0.5038  0.2147  0.1857
  124MOL0     C16654   4.691  11.631   3.083  0.2593  0.5856 -0.0162
  124MOL0     N16655   4.737  10.853   2.801  0.7284 -0.5644 -0.4698
  124MOL0     N16656   4.859  10.815   2.759  0.3303  1.1144 -0.2101
  124MOL0     C16657   5.829  11.154   2.089 -0.6289  0.1439 -0.1267
  124MOL0     C16658   5.936  11.210   2.161 -0.2282 -0.6224  0.5586
  124MOL0     C16659   6.142  11.496   2.472  0.1452  0.1672 -0.0127
  124MOL0     C16660   6.258  11.508   2.397  0.2135  0.1093  0.3782
  124MOL0     C16661   6.360  11.597   2.437 -0.1187  0.0173  0.0927
  124MOL0     C16662   6.337  11.683   2.545  1.4628  0.2115  0.4645
  124MOL0     O16663   6.427  11.775   2.583  0.0866 -0.9990 -0.0024
  124MOL0     C16664   6.513  11.739   2.690  0.6352 -0.3461 -0.0953
  124MOL0     C16665   6.618  11.636   2.646 -0.2471  0.0162 -0.1774
  124MOL0     C16666   6.718  11.698   2.545 -0.0691 -0.7445 -1.0105
  124MOL0     C16667   6.821  11.593   2.496  0.0904 -0.3847 -0.7864
  124MOL0     C16668   6.914  11.563   2.601  0.1140 -0.6571  0.3989
  124MOL0     C16669   6.995  11.562   2.693 -0.3751 -0.9072 -0.1765
  124MOL0     C16670   6.219  11.672   2.618  0.5839  0.6065 -0.4100
  124MOL0     C16671   6.131  11.566   2.591 -0.7624 -0.2040  0.7386
  124MOL0     C16672   6.012  11.557   2.689 -0.0971 -0.5479 -0.6313
  124MOL0     H16673   5.789  11.486   2.303  0.0381 -0.6219  1.1454
  124MOL0     H16674   5.596  11.392   2.180 -0.1778 -1.4424 -0.8203
  124MOL0     H16675   5.607  10.976   1.968  0.2473  1.3043  0.3352
  124MOL0     H16676   5.642  10.974   2.138  2.4990 -0.9600 -1.9387
  124MOL0     H16677   5.400  10.885   2.083 -1.3008  1.1210  2.4946
  124MOL0     H16678   5.357  11.022   2.009  1.0550 -0.6696 -0.7425
  124MOL0     H16679   5.249  11.025   2.204  0.4629  0.0696  1.4629
  124MOL0     H16680   5.348  11.164   2.213 -2.0683  0.2563 -2.7325
  124MOL0     H16681   5.416  10.902   2.349  0.2166 -0.4219  0.1338
  124MOL0     H16682   5.509  11.051   2.345 -0.7794  1.5200  0.2716
  124MOL0     H16683   5.385  11.085   2.543  1.7934 -2.4949 -0.7219
  124MOL0     H16684   5.267  11.147   2.426 -0.0851  0.7275 -1.1909
  124MOL0     H16685   5.176  10.911   2.392  1.5918 -0.6663 -1.5739
  124MOL0     H16686   5.269  10.867   2.544 -0.1699 -1.0274 -2.0570
  124MOL0     H16687   5.054  11.077   2.502  3.2938 -0.2718 -1.8250
  124MOL0     H16688   5.130  11.036   2.658  0.5675 -2.6432  1.4319
  124MOL0     H16689   4.961  10.869   2.467 -1.0145 -1.6212 -0.2826
  124MOL0     H16690   5.055  10.795   2.600  1.8530  0.2555 -2.0250
  124MOL0     H16691   4.804  11.093   2.580 -0.7291 -0.5822 -1.5037
  124MOL0     H16692   4.562  11.111   2.671  1.6922  1.7109  1.3772
  124MOL0     H16693   4.490  10.995   2.776 -0.1667  0.3682 -2.4773
  124MOL0     H16694   4.502  11.191   2.906  1.7470  1.2438  0.8857
  124MOL0     H16695   4.635  11.087   2.967  0.8030 -0.5509 -0.7369
  124MOL0     H16696   4.656  11.322   2.756 -0.7645 -2.8467 -1.3370
  124MOL0     H16697   4.785  11.223   2.804 -0.0128  0.4693  0.9810
  124MOL0     H16698   4.753  11.326   3.043 -3.7133  0.2132  3.7449
  124MOL0     H16699   4.606  11.390   2.980 -0.7120 -4.9544  0.1301
  124MOL0     H16700   4.951  11.660   2.874 -0.9135 -0.4539 -0.8198
  124MOL0     H16701   4.975  11.873   2.995 -1.2129 -0.2552 -1.8687
  124MOL0     H16702   4.783  12.253   3.187  0.8523 -1.0920 -1.3093
  124MOL0     H16703   4.837  12.473   3.306  1.3448  1.1872  1.8720
  124MOL0     H16704   4.867  12.632   3.459  1.3551  2.7984 -0.9852
  124MOL0     H16705   4.907  12.522   3.586  2.3181  0.8271  1.2599
  124MOL0     H16706   5.057  12.764   3.531 -0.5080 -0.1705 -0.2650
  124MOL0     H16707   4.924  12.763   3.652  0.1639  0.7139 -0.8956
  124MOL0     H16708   5.182  12.593   3.671 -0.1776 -0.6373  1.0147
  124MOL0     H16709   5.135  12.745   3.752  3.0950  0.6992 -1.7497
  124MOL0     H16710   4.992  12.469   3.780  1.0816 -0.6082  0.1623
  124MOL0     H16711   4.949  12.627   3.852  0.0587  1.0714 -0.8715
  124MOL0     H16712   5.172  12.647   3.962  2.0016 -1.0188  0.3312
  124MOL0     H16713   5.203  12.482   3.906  0.4726  1.9911 -2.9748
  124MOL0     H16714   4.955  12.542   4.084 -0.2078 -2.9977  1.2713
  124MOL0     H16715   5.015  12.385   4.022  0.4097 -0.3178 -1.4048
  124MOL0     H16716   5.070  12.426   4.271 -0.9192  0.6578 -1.1596
  124MOL0     H16717   5.145  12.580   4.225  1.1300  0.4368 -0.8985
  124MOL0     H16718   5.324  12.477   4.116 -0.8043 -0.9410  0.3553
  124MOL0     H16719   5.326  12.410   4.276  0.4313 -0.9092  0.8498
  124MOL0     H16720   5.208  12.306   3.429  1.7959  3.7490 -5.5531
  124MOL0     H16721   5.154  12.105   3.293 -0.5076 -1.7467  2.0505
  124MOL0     H16722   4.633  11.779   3.238  2.7127  1.4242  1.5978
  124MOL0     H16723   4.621  11.553   3.111 -0.1824  0.5457 -1.1712
  124MOL0     H16724   5.853  11.063   2.035  0.8217  0.4999 -0.1137
  124MOL0     H16725   6.036  11.168   2.153  0.6270  0.8160  2.7666
  124MOL0     H16726   6.275  11.458   2.302  0.2406  0.0860  0.3953
  124MOL0     H16727   6.449  11.609   2.376  0.2081  4.5075  1.0835
  124MOL0     H16728   6.461  11.698   2.777  1.0881 -0.3536  0.1744
  124MOL0     H16729   6.576  11.821   2.726  0.3859 -0.0965 -0.2232
  124MOL0     H16730   6.567  11.551   2.600  0.2052 -0.9690  1.0937
  124MOL0     H16731   6.684  11.604   2.727  1.8635  0.3727 -1.6653
  124MOL0     H16732   6.769  11.787   2.581 -0.0382  0.9803 -4.8350
  124MOL0     H16733   6.658  11.732   2.460 -0.0160 -1.4873 -1.3563
  124MOL0     H16734   6.775  11.500   2.463 -0.2128 -0.1621 -0.9968
  124MOL0     H16735   6.883  11.641   2.419  1.7983 -0.5952  0.3893
  124MOL0     H16736   7.048  11.578   2.784 -0.6640  0.1823 -0.1796
  124MOL0     H16737   6.199  11.734   2.705 -0.6851  0.6612 -0.7153
  124MOL0     H16738   5.927  11.613   2.650 -0.6262 -2.2485 -2.0700
  124MOL0     H16739   5.991  11.452   2.714 -0.1762 -0.8760 -2.0038
  124MOL0     H16740   6.043  11.602   2.784  1.1093  0.1689 -1.3413
  125MOL0     O16741   1.845   5.811   2.691 -0.0000  0.3438  0.3443
  125MOL0     C16742   1.939   5.757   2.749  0.2686 -0.4237 -0.2027
  125MOL0     O16743   2.030   5.817   2.839  0.3430  1.0354 -0.2656
  125MOL0     C16744   1.997   5.935   2.905 -0.5779 -0.8021  0.5418
  125MOL0     C16745   1.901   5.934   3.012 -0.8522  0.4589 -0.4812
  125MOL0     C16746   1.865   6.051   3.085  0.0011 -0.5949  0.3646
  125MOL0     C16747   1.919   6.173   3.031  0.7937 -0.6410  0.1685
  125MOL0     O16748   1.892   6.297   3.085 -0.1688  0.2196  0.2650
  125MOL0     C16749   1.816   6.313   3.205  0.7358  0.6588 -0.5953
  125MOL0     C16750   1.859   6.451   3.267 -0.2858 -0.6102  0.3348
  125MOL0     C16751   1.768   6.477   3.399 -0.7517 -0.3225  0.5284
  125MOL0     C16752   1.810   6.399   3.528  0.2192 -0.6181  0.2448
  125MOL0     C16753   1.703   6.415   3.641 -0.2350  0.0431  0.5268
  125MOL0     C16754   1.676   6.561   3.675  0.0573 -0.7910  0.5743
  125MOL0     C16755   1.593   6.577   3.802 -0.0764  0.3640 -0.0551
  125MOL0     C16756   1.452   6.538   3.802  0.5146  0.7053 -0.1804
  125MOL0     N16757   1.367   6.640   3.743  0.2702 -0.5874 -0.3849
  125MOL0     C16758   1.293   6.734   3.807  0.2992 -0.2242 -0.3818
  125MOL0     C16759   1.244   6.817   3.709  0.7567  0.3067  0.1131
  125MOL0     C16760   1.161   6.935   3.708  0.0801 -0.1223  0.4522
  125MOL0     C16761   1.117   6.968   3.848 -0.3241  0.2174  0.1738
  125MOL0     C16762   1.020   6.861   3.905  0.8438  0.0565  0.8153
  125MOL0     C16763   0.883   6.861   3.823 -0.1801 -0.1490 -0.0697
  125MOL0     O16764   0.814   6.984   3.843 -1.0675 -0.1297 -0.1960
  125MOL0     C16765   0.753   7.004   3.960 -0.5144 -0.9226  0.7025
  125MOL0     C16766   0.686   7.119   3.973  0.0417 -0.8184  0.2172
  125MOL0     C16767   0.600   7.157   4.069 -0.5238 -0.2452  0.3934
  125MOL0     C16768   0.579   7.073   4.181  0.3402  0.6373  0.0130
  125MOL0     C16769   0.484   7.110   4.289  0.3325 -0.5260 -0.0632
  125MOL0     O16770   0.495   7.028   4.400 -0.0506 -0.3763 -1.0490
  125MOL0     C16771   0.443   7.064   4.528 -0.2849 -0.0116  1.0189
  125MOL0     C16772   0.399   7.199   4.567  0.1108  0.1398  0.3565
  125MOL0     C16773   0.342   7.223   4.691  0.3940 -1.1016 -0.4614
  125MOL0     C16774   0.337   7.125   4.791 -0.6016 -1.0397  0.7777
  125MOL0     O16775   0.299   7.171   4.912  0.2700  0.0160  0.9695
  125MOL0     C16776   0.386   7.253   4.990  0.4385 -0.4051 -0.5509
  125MOL0     C16777   0.347   7.217   5.133  0.9675  0.1702 -0.4291
  125MOL0     C16778   0.197   7.245   5.165  0.2984  0.4318 -0.0592
  125MOL0     C16779   0.143   7.165   5.288 -0.0840 -0.0847  0.8178
  125MOL0     C16780  -0.017   7.167   5.319  0.6884  0.1638 -0.1813
  125MOL0     C16781  -0.070   7.310   5.342 -0.1580  0.2294  0.3291
  125MOL0     C16782  -0.216   7.309   5.386 -0.7592 -0.8246 -0.6341
  125MOL0     C16783  -0.259   7.445   5.409  0.8456  0.2962  0.0524
  125MOL0    Cl16784  -0.182   7.513   5.544 -0.1465 -0.0200 -0.2993
  125MOL0     C16785   0.387   6.994   4.761 -0.2617 -0.1057  0.1704
  125MOL0     C16786   0.435   6.968   4.634  0.2357 -0.0734  0.6660
  125MOL0     O16787   0.393   7.201   4.270  0.2688 -0.1732  0.5659
  125MOL0     C16788   0.656   6.958   4.187  0.4669 -0.1715 -0.0917
  125MOL0     C16789   0.737   6.921   4.073 -0.2679  0.7557 -0.2392
  125MOL0     N16790   1.275   6.753   3.588  0.2426  0.4158  0.5683
  125MOL0     N16791   1.347   6.650   3.603  0.2636  1.3721 -0.0015
  125MOL0     C16792   2.002   6.180   2.919 -0.6772 -0.0157  0.2690
  125MOL0     C16793   2.049   6.055   2.866  0.4635 -0.4816  0.0682
  125MOL0     C16794   1.962   5.607   2.718 -0.1059 -1.2209 -0.5517
  125MOL0     C16795   2.046   5.543   2.812  0.1631 -0.4766 -0.1073
  125MOL0     C16796   2.059   5.407   2.806  0.3015  0.1810  0.6858
  125MOL0     C16797   2.004   5.329   2.704  0.7927 -0.6440 -0.0068
  125MOL0     O16798   2.032   5.200   2.707 -0.0875  0.1313  0.1553
  125MOL0     C16799   1.975   5.096   2.622  0.0339 -0.7381 -0.7020
  125MOL0     C16800   2.035   4.967   2.674  0.8810 -0.0034  0.2890
  125MOL0     C16801   2.178   4.940   2.616 -0.4038 -0.8942  0.4528
  125MOL0     C16802   2.249   4.824   2.688  0.0877  0.7505  0.0896
  125MOL0     C16803   2.280   4.864   2.826 -0.1469  1.0781 -0.0972
  125MOL0     C16804   2.345   4.900   2.922  0.3457 -0.1060  0.4744
  125MOL0     C16805   1.924   5.393   2.610  0.3787  0.3691 -0.2286
  125MOL0     C16806   1.904   5.529   2.615 -0.0272  0.1616 -0.7706
  125MOL0     C16807   1.825   5.586   2.498 -0.8874 -0.9756  0.2121
  125MOL0     H16808   1.844   5.848   3.044 -0.0014 -0.3449 -1.0872
  125MOL0     H16809   1.784   6.041   3.156 -0.4620 -1.4711 -0.2675
  125MOL0     H16810   1.710   6.303   3.181  0.2789 -1.2481  1.7608
  125MOL0     H16811   1.847   6.246   3.286 -0.5683  1.0988  0.3161
  125MOL0     H16812   1.849   6.531   3.193  0.9669 -0.6866  0.0573
  125MOL0     H16813   1.965   6.453   3.292  0.3625  1.6513 -2.1686
  125MOL0     H16814   1.662   6.469   3.372 -0.4879  3.9509 -2.8894
  125MOL0     H16815   1.786   6.583   3.418 -2.5027  0.1215 -0.0852
  125MOL0     H16816   1.820   6.293   3.505  4.4871 -0.8825  2.4856
  125MOL0     H16817   1.908   6.434   3.561  0.0300  1.0087 -0.7569
  125MOL0     H16818   1.613   6.368   3.600  1.0391 -1.0881 -1.1106
  125MOL0     H16819   1.729   6.359   3.732  0.2731  1.7127  1.4519
  125MOL0     H16820   1.774   6.604   3.695 -0.5598  0.2624  1.4645
  125MOL0     H16821   1.627   6.609   3.590 -1.7913  3.7633  3.7812
  125MOL0     H16822   1.598   6.679   3.840 -0.1073 -0.2983  1.8199
  125MOL0     H16823   1.636   6.507   3.874 -2.1787 -3.4794 -2.1751
  125MOL0     H16824   1.436   6.443   3.750  0.2107  1.2077 -1.0172
  125MOL0     H16825   1.417   6.520   3.904  1.8884  0.5527  0.2846
  125MOL0     H16826   1.294   6.742   3.915 -0.7780 -0.2794 -0.3524
  125MOL0     H16827   1.226   7.016   3.675  0.9654 -1.0027 -0.0159
  125MOL0     H16828   1.076   6.916   3.641  0.9681  0.6818 -0.9447
  125MOL0     H16829   1.202   6.970   3.917 -2.6048  0.2098  3.1904
  125MOL0     H16830   1.071   7.067   3.856  2.0344  1.3779  0.3354
  125MOL0     H16831   1.003   6.884   4.010 -3.0184  3.4358 -0.2940
  125MOL0     H16832   1.057   6.759   3.890  0.5597  0.3759 -3.0853
  125MOL0     H16833   0.829   6.771   3.853 -0.5780 -0.4003 -1.4442
  125MOL0     H16834   0.902   6.852   3.715 -3.3180  1.3317 -0.8497
  125MOL0     H16835   0.697   7.187   3.889 -0.6320 -0.0480  0.7374
  125MOL0     H16836   0.548   7.251   4.059 -0.7488 -0.0687  2.7344
  125MOL0     H16837   0.397   7.279   4.494  0.5215  0.9833  1.2460
  125MOL0     H16838   0.301   7.323   4.704  2.6047 -0.3279  1.1236
  125MOL0     H16839   0.491   7.238   4.961  0.5232  1.3321 -1.2702
  125MOL0     H16840   0.349   7.354   4.971  2.2958  0.5503  0.5994
  125MOL0     H16841   0.379   7.115   5.157 -1.0191 -0.2211  0.7545
  125MOL0     H16842   0.414   7.271   5.201  2.5714 -2.0603 -0.1215
  125MOL0     H16843   0.193   7.354   5.176  0.3479  1.0919 -4.7274
  125MOL0     H16844   0.130   7.211   5.085 -0.0288 -2.8874  1.4752
  125MOL0     H16845   0.200   7.208   5.371  0.6211  1.5901 -0.4736
  125MOL0     H16846   0.165   7.057   5.283  1.2731  0.0949  2.1091
  125MOL0     H16847  -0.046   7.103   5.403 -3.1042 -1.8686 -2.7564
  125MOL0     H16848  -0.080   7.124   5.241 -1.7681  0.4473  1.5298
  125MOL0     H16849  -0.004   7.354   5.417 -0.2011  1.8065 -0.5143
  125MOL0     H16850  -0.067   7.373   5.253 -0.3133  0.7861  0.7106
  125MOL0     H16851  -0.232   7.240   5.470 -2.4976 -0.2760 -0.4628
  125MOL0     H16852  -0.270   7.274   5.297 -0.5945 -0.9391 -0.6899
  125MOL0     H16853  -0.233   7.499   5.317  2.2091  0.3121  0.4288
  125MOL0     H16854  -0.366   7.435   5.425  1.2124 -2.5202  1.1714
  125MOL0     H16855   0.398   6.916   4.836  1.5935  1.2752  1.4263
  125MOL0     H16856   0.466   6.866   4.611 -2.0262 -0.5810 -0.5449
  125MOL0     H16857   0.644   6.884   4.265  1.0706  2.3007  2.5333
  125MOL0     H16858   0.787   6.825   4.082 -1.7882 -0.2688 -1.9018
  125MOL0     H16859   2.055   6.271   2.893 -2.7434  1.0066 -0.5283
  125MOL0     H16860   2.118   6.048   2.782  0.5016 -0.7774  0.1240
  125MOL0     H16861   2.081   5.596   2.900 -0.8198 -0.1669  0.1190
  125MOL0     H16862   2.118   5.351   2.878  0.8048  0.0902  0.2116
  125MOL0     H16863   2.000   5.115   2.517  2.2203  0.3011 -0.0576
  125MOL0     H16864   1.867   5.088   2.635  0.3597 -0.2911  3.6539
  125MOL0     H16865   1.964   4.889   2.645  1.0436 -0.5853  1.4014
  125MOL0     H16866   2.029   4.952   2.782 -1.0257  0.0780  0.2235
  125MOL0     H16867   2.237   5.032   2.604 -0.0367 -1.1112  0.5606
  125MOL0     H16868   2.148   4.901   2.518  1.7085 -0.3005 -0.4889
  125MOL0     H16869   2.182   4.738   2.700  1.6112 -0.4604  0.2666
  125MOL0     H16870   2.336   4.791   2.632  0.1487  0.7153  0.2054
  125MOL0     H16871   2.407   4.937   3.002  0.8706 -1.6657  0.8218
  125MOL0     H16872   1.882   5.336   2.527  0.1213  0.3352 -0.0731
  125MOL0     H16873   1.717   5.598   2.508 -0.6251  1.8908  0.5978
  125MOL0     H16874   1.863   5.684   2.465  0.6685 -2.3751 -2.5718
  125MOL0     H16875   1.830   5.517   2.413 -0.9947  1.8516 -2.3053
  126MOL0     O16876   2.245   0.687   5.546  0.2387 -0.3345  0.3143
  126MOL0     C16877   2.248   0.803   5.501  0.5280  0.9025 -0.0001
  126MOL0     O16878   2.151   0.903   5.528  0.1792  0.4426 -0.1082
  126MOL0     C16879   2.027   0.849   5.567  1.7166 -0.4291 -0.0337
  126MOL0     C16880   1.948   0.952   5.615  0.8496 -0.0210 -0.1448
  126MOL0     C16881   1.807   0.951   5.608 -0.1859 -0.9010  0.1371
  126MOL0     C16882   1.751   0.833   5.562  1.3074 -0.0833  0.6694
  126MOL0     O16883   1.617   0.806   5.548  1.1697 -0.1665  0.1760
  126MOL0     C16884   1.515   0.911   5.565 -0.5548 -0.7658 -0.1416
  126MOL0     C16885   1.427   0.865   5.684 -1.0355  0.6680 -0.5806
  126MOL0     C16886   1.498   0.888   5.817  0.5468 -0.0237  0.7896
  126MOL0     C16887   1.419   0.848   5.937  0.8089  0.5494 -0.4780
  126MOL0     C16888   1.511   0.825   6.050  0.1672  0.0351 -0.1941
  126MOL0     C16889   1.432   0.803   6.173  0.6550  0.5728 -0.0891
  126MOL0     C16890   1.501   0.733   6.291 -0.0493  0.1584  0.5418
  126MOL0     C16891   1.572   0.842   6.383  0.3866  0.5019  0.3327
  126MOL0     N16892   1.679   0.909   6.315  0.0223  0.8968 -0.4185
  126MOL0     C16893   1.687   1.039   6.280 -0.2863 -0.6443  0.9386
  126MOL0     C16894   1.806   1.052   6.210  0.2898 -0.9089  0.7940
  126MOL0     C16895   1.880   1.158   6.132 -0.8111 -0.2017 -0.3771
  126MOL0     C16896   1.985   1.232   6.217  0.1741 -0.0829  0.8582
  126MOL0     C16897   2.063   1.335   6.126 -0.6298  0.0793  0.2825
  126MOL0     C16898   1.979   1.433   6.045 -0.3739  0.1390  0.3076
  126MOL0     O16899   1.924   1.369   5.929  0.2779  0.2788 -0.3716
  126MOL0     C16900   1.988   1.361   5.804  0.1295 -0.0590 -0.4824
  126MOL0     C16901   1.912   1.313   5.700  0.3587 -0.1920 -0.5410
  126MOL0     C16902   1.965   1.314   5.566  0.0249  0.1364 -0.5770
  126MOL0     C16903   2.100   1.358   5.542  0.2063 -0.4208  0.2974
  126MOL0     C16904   2.151   1.371   5.401 -0.9466  0.1202 -0.7034
  126MOL0     O16905   2.278   1.432   5.389 -0.2687  0.4012 -0.6363
  126MOL0     C16906   2.310   1.519   5.285  0.9954  0.3939 -0.7407
  126MOL0     C16907   2.228   1.634   5.280 -0.5656 -0.5150  0.0335
  126MOL0     C16908   2.223   1.727   5.173 -0.0109  0.5919 -0.4663
  126MOL0     C16909   2.322   1.708   5.078  0.2581 -0.1323 -0.1594
  126MOL0     O16910   2.321   1.810   4.982 -0.1631  0.2278 -0.5907
  126MOL0     C16911   2.414   1.822   4.879  0.0047 -0.0865  0.8641
  126MOL0     C16912   2.398   1.965   4.829  0.3945  0.0973 -0.2953
  126MOL0     C16913   2.478   1.986   4.703 -0.2476 -0.3090 -0.5324
  126MOL0     C16914   2.544   2.129   4.705  0.1479 -0.8794 -0.0331
  126MOL0     C16915   2.528   2.201   4.576 -0.2069 -0.1021  0.0631
  126MOL0     C16916   2.585   2.349   4.585  0.8792  0.0810 -0.7028
  126MOL0     C16917   2.545   2.413   4.442  1.1230 -0.3536 -0.3935
  126MOL0     C16918   2.625   2.536   4.406 -0.2401  0.1297  0.5585
  126MOL0    Cl16919   2.625   2.568   4.234 -0.2903 -0.5594  0.1674
  126MOL0     C16920   2.407   1.592   5.077 -0.4345 -0.3678  0.9465
  126MOL0     C16921   2.400   1.494   5.180 -0.4241  0.2984  0.3816
  126MOL0     O16922   2.084   1.340   5.310  0.0544  0.6399 -0.2654
  126MOL0     C16923   2.174   1.396   5.651 -0.5251  0.1717 -0.1336
  126MOL0     C16924   2.130   1.388   5.780 -0.7245 -0.7190 -0.0322
  126MOL0     N16925   1.867   0.925   6.218 -0.2643 -0.7724 -0.1767
  126MOL0     N16926   1.791   0.846   6.280 -0.7106  0.0136 -0.5983
  126MOL0     C16927   1.827   0.728   5.522  0.4831 -0.5858  1.0936
  126MOL0     C16928   1.960   0.734   5.517  0.0445 -0.5252 -0.2930
  126MOL0     C16929   2.358   0.828   5.396 -0.2679  0.2333  0.2458
  126MOL0     C16930   2.471   0.745   5.393  0.1770  0.1776 -0.2522
  126MOL0     C16931   2.577   0.766   5.311 -0.5315 -0.4949  0.0070
  126MOL0     C16932   2.578   0.867   5.219 -0.3454 -0.3277 -0.1716
  126MOL0     O16933   2.686   0.898   5.139 -0.0324  0.1420 -0.2829
  126MOL0     C16934   2.810   0.835   5.169 -1.3543 -0.8494  0.1906
  126MOL0     C16935   2.927   0.921   5.120 -0.7735 -0.1697 -0.6831
  126MOL0     C16936   2.918   1.076   5.137  0.5983  0.1825  0.0885
  126MOL0     C16937   2.819   1.145   5.042  0.2945 -0.2117 -0.0463
  126MOL0     C16938   2.812   1.291   5.056 -0.0120 -0.6078  0.1470
  126MOL0     C16939   2.818   1.414   5.044  0.5335  0.0728  0.0756
  126MOL0     C16940   2.462   0.935   5.205  0.3322 -0.4084 -0.4010
  126MOL0     C16941   2.349   0.932   5.295 -0.4364  1.0800 -0.4475
  126MOL0     C16942   2.233   1.020   5.269  0.8255 -0.1846  0.4011
  126MOL0     H16943   1.995   1.040   5.657 -1.6511  1.4780 -0.2283
  126MOL0     H16944   1.747   1.036   5.642 -0.9462 -0.9694 -0.9724
  126MOL0     H16945   1.560   1.007   5.592  0.0902 -2.1182  4.6279
  126MOL0     H16946   1.455   0.906   5.474 -2.7044  2.2473  0.9820
  126MOL0     H16947   1.405   0.758   5.677  1.6174 -0.0488  0.5646
  126MOL0     H16948   1.328   0.910   5.686 -1.8798 -1.1125  1.0253
  126MOL0     H16949   1.546   0.986   5.820  1.0650  0.1520 -4.4533
  126MOL0     H16950   1.580   0.818   5.801  1.8823  1.0922  2.4064
  126MOL0     H16951   1.343   0.925   5.958 -1.5599 -1.5548 -0.8053
  126MOL0     H16952   1.362   0.756   5.922 -0.4312  1.3369 -0.7633
  126MOL0     H16953   1.580   0.742   6.033 -1.1357 -1.2273  0.4834
  126MOL0     H16954   1.578   0.912   6.057 -0.0772  0.2540 -0.5340
  126MOL0     H16955   1.388   0.899   6.200 -0.7013  1.2214 -3.9633
  126MOL0     H16956   1.350   0.740   6.140  0.5513  0.1518  0.9418
  126MOL0     H16957   1.574   0.659   6.259 -0.6197 -0.0842 -0.2224
  126MOL0     H16958   1.422   0.676   6.341 -1.0686 -0.7528 -1.9454
  126MOL0     H16959   1.498   0.915   6.418  0.2007  1.7478 -2.3532
  126MOL0     H16960   1.622   0.800   6.470 -0.7877  0.0394  0.8098
  126MOL0     H16961   1.613   1.118   6.290 -0.6587 -0.9587  0.7272
  126MOL0     H16962   1.943   1.115   6.053 -0.2569 -2.9974  1.4630
  126MOL0     H16963   1.812   1.234   6.094 -0.1124  1.0602  0.7974
  126MOL0     H16964   1.952   1.283   6.307  0.9327  0.8760  0.6085
  126MOL0     H16965   2.060   1.158   6.247 -0.8409 -0.0541  3.6989
  126MOL0     H16966   2.129   1.275   6.062 -1.5468 -0.2104 -0.4325
  126MOL0     H16967   2.129   1.390   6.193 -0.7959 -1.5110  1.8408
  126MOL0     H16968   2.029   1.526   6.017 -1.3796  1.0371  1.4132
  126MOL0     H16969   1.895   1.473   6.104  0.6205  1.9733  0.5526
  126MOL0     H16970   1.811   1.281   5.726  0.3116  2.0886  2.5893
  126MOL0     H16971   1.890   1.290   5.491 -1.4432 -0.1416  0.9298
  126MOL0     H16972   2.155   1.641   5.360  1.2613  1.0535  1.6735
  126MOL0     H16973   2.147   1.804   5.172  1.1749  1.8122 -0.7523
  126MOL0     H16974   2.519   1.806   4.907  0.7268  0.8614 -1.1164
  126MOL0     H16975   2.390   1.754   4.797 -0.6614  1.4855 -0.2787
  126MOL0     H16976   2.292   1.981   4.806  0.3413  2.7842  1.3449
  126MOL0     H16977   2.413   2.029   4.917 -0.8103 -1.9362  1.5043
  126MOL0     H16978   2.563   1.919   4.685  0.7955 -0.0453  2.6317
  126MOL0     H16979   2.406   1.995   4.622 -0.2946 -1.4005 -0.6193
  126MOL0     H16980   2.650   2.126   4.734  0.4877  1.5224 -0.7827
  126MOL0     H16981   2.488   2.186   4.780  0.6563 -2.1991  1.3873
  126MOL0     H16982   2.423   2.233   4.570  0.4177  2.7245  2.0726
  126MOL0     H16983   2.570   2.138   4.498  2.0867  0.1365  1.0170
  126MOL0     H16984   2.537   2.404   4.666 -1.6280  0.0617 -2.0523
  126MOL0     H16985   2.694   2.353   4.592  1.0128 -0.0426 -2.2656
  126MOL0     H16986   2.441   2.435   4.418  1.2209  0.2720 -0.2589
  126MOL0     H16987   2.574   2.336   4.370 -0.9440  0.1245 -1.8142
  126MOL0     H16988   2.588   2.621   4.464  1.5257  1.0459  0.4216
  126MOL0     H16989   2.726   2.519   4.445  0.0534 -1.7050 -0.8932
  126MOL0     H16990   2.482   1.582   5.000 -2.3060 -2.4155 -0.7452
  126MOL0     H16991   2.468   1.409   5.180 -0.1425  0.5169  0.9518
  126MOL0     H16992   2.279   1.417   5.634 -0.6292 -1.1622 -3.0474
  126MOL0     H16993   2.196   1.393   5.865 -1.0756 -2.2654  0.3509
  126MOL0     H16994   1.766   0.648   5.480 -0.5409 -0.1635  1.7296
  126MOL0     H16995   2.013   0.664   5.452  0.3242  0.4314 -1.1204
  126MOL0     H16996   2.477   0.656   5.454 -0.4735 -0.4729 -1.1166
  126MOL0     H16997   2.667   0.708   5.329 -0.7463 -0.4084  1.5614
  126MOL0     H16998   2.820   0.731   5.136  0.0040 -1.3613  2.0069
  126MOL0     H16999   2.829   0.826   5.277  0.7393 -0.7257 -0.1175
  126MOL0     H17000   2.941   0.895   5.014  1.1796 -0.9808 -0.2674
  126MOL0     H17001   3.017   0.885   5.170  0.6607  1.2229 -2.1279
  126MOL0     H17002   3.013   1.127   5.122  1.3090 -1.4735 -1.4716
  126MOL0     H17003   2.889   1.083   5.242  1.5300 -1.5897  0.5029
  126MOL0     H17004   2.837   1.122   4.936  1.2717  1.7981 -0.3559
  126MOL0     H17005   2.717   1.115   5.066  0.7237 -1.6892  0.0662
  126MOL0     H17006   2.832   1.519   5.025  0.1587 -0.2246 -2.1325
  126MOL0     H17007   2.453   1.010   5.127 -0.2708  0.5002  0.5295
  126MOL0     H17008   2.217   1.078   5.360  0.2167  1.4367 -0.6794
  126MOL0     H17009   2.258   1.096   5.194 -0.6488 -0.2840 -0.2385
  126MOL0     H17010   2.145   0.965   5.235  0.8357  0.9919 -1.7278
  127MOL0     O17011   0.735   4.877   8.434  0.3337 -0.0023 -0.7253
  127MOL0     C17012   0.852   4.883   8.465 -0.2391 -0.2049  1.4860
  127MOL0     O17013   0.897   4.850   8.586 -0.3968  0.4875 -0.0397
  127MOL0     C17014   0.828   4.885   8.696  0.2095  0.5730 -0.0835
  127MOL0     C17015   0.745   4.788   8.744  0.0546 -0.8404 -0.1198
  127MOL0     C17016   0.656   4.820   8.850 -0.1898 -0.3598 -0.3421
  127MOL0     C17017   0.662   4.946   8.909  0.3517  0.1865 -1.4043
  127MOL0     O17018   0.567   4.958   9.016 -0.5651  0.3251  0.3668
  127MOL0     C17019   0.557   5.086   9.086 -0.6564 -0.1525  1.0710
  127MOL0     C17020   0.466   5.078   9.202  0.8123  0.2279  0.1075
  127MOL0     C17021   0.548   5.071   9.327 -0.2853  1.0564 -0.9165
  127MOL0     C17022   0.457   5.065   9.449  0.3464  0.2710  0.4121
  127MOL0     C17023   0.531   5.122   9.580 -0.1602 -0.4096 -0.2949
  127MOL0     C17024   0.575   5.267   9.584 -0.2090  0.3975 -0.4317
  127MOL0     C17025   0.725   5.285   9.627  0.8521 -0.2992  0.7142
  127MOL0     C17026   0.758   5.246   9.772 -0.6134 -0.3229  0.4102
  127MOL0     N17027   0.648   5.271   9.867  0.2896  0.6802 -0.4629
  127MOL0     C17028   0.608   5.395   9.914 -1.0574  0.1020  0.8161
  127MOL0     C17029   0.529   5.361  10.013 -0.0738 -0.3139 -0.4507
  127MOL0     C17030   0.469   5.463  10.109 -0.0935  0.3257  1.2847
  127MOL0     C17031   0.364   5.560  10.053  0.0098  0.0462 -0.6461
  127MOL0     C17032   0.232   5.480  10.032 -0.4417 -0.0639 -0.6885
  127MOL0     C17033   0.161   5.528   9.899 -0.5289 -0.0819  0.5597
  127MOL0     O17034   0.238   5.482   9.782  0.3998 -0.3102 -1.0048
  127MOL0     C17035   0.186   5.374   9.715 -0.5874 -0.7458 -0.6476
  127MOL0     C17036   0.247   5.246   9.720 -1.6057 -0.8631 -0.4223
  127MOL0     C17037   0.191   5.132   9.681  0.4262  0.1580 -0.3580
  127MOL0     C17038   0.075   5.149   9.595 -0.4177  0.8446  0.4847
  127MOL0     C17039   0.015   5.033   9.524  0.0780  0.1861 -0.8217
  127MOL0     O17040  -0.115   5.045   9.486  0.1845  0.1115  0.3741
  127MOL0     C17041  -0.161   4.975   9.370  0.1560 -0.5999 -0.5662
  127MOL0     C17042  -0.196   5.046   9.261 -0.6680  0.0434  1.0923
  127MOL0     C17043  -0.252   4.978   9.154  0.7865  0.6935  0.7585
  127MOL0     C17044  -0.266   4.844   9.161  0.1130  0.2661  0.2685
  127MOL0     O17045  -0.306   4.780   9.048 -0.1521 -0.3917  0.1750
  127MOL0     C17046  -0.338   4.634   9.041  0.3503 -0.8226 -0.0535
  127MOL0     C17047  -0.384   4.597   8.900  0.1186 -0.2083 -0.1442
  127MOL0     C17048  -0.263   4.598   8.808  0.1769  0.0285 -0.3913
  127MOL0     C17049  -0.284   4.556   8.660  1.0055 -0.1914  0.5802
  127MOL0     C17050  -0.245   4.662   8.556  0.2418  0.5586  0.9644
  127MOL0     C17051  -0.350   4.773   8.563  0.0736  0.6302  0.2586
  127MOL0     C17052  -0.329   4.869   8.449  0.6639 -0.5911 -0.1927
  127MOL0     C17053  -0.189   4.939   8.431  0.2645  0.3061 -0.7096
  127MOL0    Cl17054  -0.197   5.042   8.289 -0.1869 -0.4526  0.0691
  127MOL0     C17055  -0.239   4.770   9.280 -0.7544  0.1695  0.0206
  127MOL0     C17056  -0.186   4.840   9.382 -0.1926 -0.3866 -0.7678
  127MOL0     O17057   0.089   4.941   9.498  0.4527 -0.4120  0.1044
  127MOL0     C17058   0.020   5.271   9.580  0.1425  0.1804  0.1569
  127MOL0     C17059   0.077   5.381   9.644 -0.1911 -0.2139  1.2216
  127MOL0     N17060   0.527   5.227  10.042 -0.2292 -0.6182  0.3362
  127MOL0     N17061   0.592   5.176   9.952 -0.0587  0.5717  0.0404
  127MOL0     C17062   0.747   5.048   8.861  0.3677  0.6328  0.4507
  127MOL0     C17063   0.834   5.010   8.752 -0.5833 -0.3184  0.3038
  127MOL0     C17064   0.953   4.960   8.380  0.1627 -0.3715  0.4276
  127MOL0     C17065   1.088   4.917   8.391 -0.6052  0.1103  0.3165
  127MOL0     C17066   1.194   4.995   8.352 -0.8283 -0.3779  0.0064
  127MOL0     C17067   1.172   5.116   8.274  0.6103  0.0220  0.4837
  127MOL0     O17068   1.272   5.187   8.210  0.1686  0.0263 -0.0169
  127MOL0     C17069   1.412   5.134   8.212  0.3317 -0.2376 -0.2489
  127MOL0     C17070   1.449   5.039   8.096  0.1001  0.5351  0.3989
  127MOL0     C17071   1.599   4.993   8.099  0.6768 -0.2633  0.0862
  127MOL0     C17072   1.627   4.899   7.979  0.2773  0.8006  0.5779
  127MOL0     C17073   1.774   4.875   7.952  0.4094  0.1251  0.3706
  127MOL0     C17074   1.887   4.833   7.934 -0.3319 -0.3765  0.7794
  127MOL0     C17075   1.037   5.154   8.267  0.2005  0.1935  0.2055
  127MOL0     C17076   0.931   5.083   8.326  0.4869  0.4853  0.7975
  127MOL0     C17077   0.793   5.147   8.316 -0.5281  0.2198  1.0623
  127MOL0     H17078   0.726   4.687   8.711 -3.3887 -0.4290  0.3108
  127MOL0     H17079   0.594   4.740   8.890 -0.5163 -0.2556 -0.6319
  127MOL0     H17080   0.656   5.121   9.116 -1.4458  0.3336  3.2962
  127MOL0     H17081   0.516   5.156   9.013  4.0456 -2.6049 -4.7622
  127MOL0     H17082   0.402   4.989   9.198  1.5105 -0.2493 -0.8546
  127MOL0     H17083   0.408   5.170   9.198 -1.5659 -1.2203 -3.2148
  127MOL0     H17084   0.619   5.153   9.340  1.7644 -0.6863 -0.5411
  127MOL0     H17085   0.610   4.981   9.333  0.0634  1.2797 -1.1319
  127MOL0     H17086   0.371   5.131   9.446  0.6689  0.6902 -2.1000
  127MOL0     H17087   0.434   4.960   9.471  1.9259 -0.4524 -1.1326
  127MOL0     H17088   0.457   5.106   9.660 -0.3394 -1.8408 -0.7311
  127MOL0     H17089   0.617   5.063   9.611 -0.7131 -0.2862  1.6165
  127MOL0     H17090   0.548   5.321   9.492 -0.1618 -0.5250 -0.9951
  127MOL0     H17091   0.517   5.315   9.663  0.5561 -1.2882  1.2447
  127MOL0     H17092   0.743   5.392   9.624 -2.5185  0.3804  0.3814
  127MOL0     H17093   0.787   5.215   9.570  0.0832 -0.0944 -0.4124
  127MOL0     H17094   0.773   5.138   9.780 -0.2151 -0.1345  3.2937
  127MOL0     H17095   0.846   5.304   9.802 -1.0707 -0.1275  1.4051
  127MOL0     H17096   0.639   5.493   9.879  3.6475 -1.4878 -0.3161
  127MOL0     H17097   0.424   5.401  10.187 -2.4059  1.1491  0.6914
  127MOL0     H17098   0.549   5.524  10.151  1.3350  0.3337 -1.2528
  127MOL0     H17099   0.359   5.639  10.129  0.7622  0.5982 -1.1467
  127MOL0     H17100   0.397   5.602   9.958  1.3295 -0.6227 -0.5067
  127MOL0     H17101   0.172   5.486  10.124 -1.8119  0.3617 -1.5816
  127MOL0     H17102   0.261   5.374  10.030  1.0844  0.3362 -1.0008
  127MOL0     H17103   0.161   5.636   9.881 -0.6396 -0.4419 -1.9981
  127MOL0     H17104   0.057   5.494   9.895 -0.1175 -1.3704  0.6096
  127MOL0     H17105   0.338   5.224   9.775  0.8395  0.6004 -3.5384
  127MOL0     H17106   0.231   5.035   9.706 -0.7398 -0.1650  0.3499
  127MOL0     H17107  -0.174   5.152   9.256 -0.7314  0.1965  3.2147
  127MOL0     H17108  -0.263   5.028   9.058 -0.1363 -0.3274  0.3075
  127MOL0     H17109  -0.252   4.571   9.065 -0.5544 -2.5174 -1.1011
  127MOL0     H17110  -0.429   4.628   9.102 -0.1983  3.2439 -0.1880
  127MOL0     H17111  -0.414   4.493   8.914 -0.0903 -0.0830  0.3527
  127MOL0     H17112  -0.463   4.663   8.861  0.5673  0.9362  0.8207
  127MOL0     H17113  -0.211   4.693   8.820  1.1629 -0.3042 -1.7371
  127MOL0     H17114  -0.198   4.529   8.863  0.2193  0.5434  0.2129
  127MOL0     H17115  -0.388   4.523   8.648 -0.6574  4.1129  1.3362
  127MOL0     H17116  -0.229   4.465   8.634  0.3140 -0.4505 -0.0131
  127MOL0     H17117  -0.232   4.626   8.453  3.4129 -0.2113  1.5318
  127MOL0     H17118  -0.148   4.705   8.583  0.4825  0.1683  0.7400
  127MOL0     H17119  -0.450   4.728   8.572 -0.2338  1.6433  2.6723
  127MOL0     H17120  -0.332   4.827   8.656  1.1220 -0.7379  0.8919
  127MOL0     H17121  -0.406   4.939   8.481  2.1190 -0.5330  3.6459
  127MOL0     H17122  -0.355   4.834   8.348 -1.4699  2.4874 -0.8243
  127MOL0     H17123  -0.165   4.996   8.522  2.4735  1.7012 -2.0742
  127MOL0     H17124  -0.116   4.859   8.419 -1.7488 -1.5141 -1.3571
  127MOL0     H17125  -0.249   4.662   9.288  3.0727 -0.3971 -0.6705
  127MOL0     H17126  -0.165   4.787   9.475 -1.1734  0.2259 -0.1673
  127MOL0     H17127  -0.068   5.286   9.518  0.1649 -2.0439 -0.4887
  127MOL0     H17128   0.034   5.481   9.646  1.2224  0.7298 -3.0780
  127MOL0     H17129   0.762   5.148   8.900 -0.1247  1.0946 -0.5244
  127MOL0     H17130   0.911   5.072   8.708 -0.1767 -1.0375 -0.0176
  127MOL0     H17131   1.115   4.824   8.441  1.8048  0.1054 -0.8327
  127MOL0     H17132   1.298   4.964   8.362 -0.4339  0.3329 -1.5309
  127MOL0     H17133   1.439   5.084   8.306 -3.2263 -1.5746  0.2289
  127MOL0     H17134   1.484   5.216   8.208 -1.7293  1.6734  0.1730
  127MOL0     H17135   1.431   5.062   7.990  0.6068 -2.2171 -0.3551
  127MOL0     H17136   1.389   4.950   8.115  0.0883  0.8214  1.7911
  127MOL0     H17137   1.622   4.938   8.191 -2.9743  0.6074  1.6953
  127MOL0     H17138   1.662   5.081   8.087 -0.2603  0.3762 -0.2281
  127MOL0     H17139   1.584   4.802   8.006  0.5315  0.3157 -0.6861
  127MOL0     H17140   1.591   4.934   7.882  3.4877 -4.1195 -2.9024
  127MOL0     H17141   1.988   4.813   7.906 -1.2971 -2.5586 -1.4757
  127MOL0     H17142   1.019   5.245   8.210 -0.7135 -1.0244 -1.5294
  127MOL0     H17143   0.731   5.138   8.406 -2.7668  1.5094 -0.2942
  127MOL0     H17144   0.800   5.254   8.296  4.1036 -0.1369 -0.3800
  127MOL0     H17145   0.741   5.099   8.233  0.4025 -2.2903  1.8224
  128MOL0     O17146   6.376  10.396   6.865  0.3189 -0.0946  0.1930
  128MOL0     C17147   6.279  10.424   6.791  0.4556  0.7716  1.3419
  128MOL0     O17148   6.278  10.534   6.714 -0.4881  0.2606  0.5347
  128MOL0     C17149   6.368  10.632   6.722  0.0461  0.7746 -0.2703
  128MOL0     C17150   6.351  10.743   6.799  0.3938  0.2313  0.0065
  128MOL0     C17151   6.445  10.842   6.815  0.3674 -0.9540  0.3477
  128MOL0     C17152   6.568  10.830   6.737 -1.3101  0.4363 -0.6426
  128MOL0     O17153   6.677  10.915   6.747  0.8406  0.3401  0.6525
  128MOL0     C17154   6.808  10.867   6.751  0.0768  0.9341 -0.1488
  128MOL0     C17155   6.901  10.985   6.769 -0.3989  0.2306  0.1158
  128MOL0     C17156   7.041  10.944   6.818 -0.3283  0.3252 -0.6968
  128MOL0     C17157   7.134  11.071   6.794  0.6297 -0.0894 -0.1672
  128MOL0     C17158   7.265  11.058   6.872  0.4578 -1.2655  0.3022
  128MOL0     C17159   7.361  10.961   6.798  0.0440 -0.6378 -1.2248
  128MOL0     C17160   7.460  10.884   6.894 -0.3446 -1.6225  0.2015
  128MOL0     C17161   7.557  10.978   6.972 -0.4382  0.6863  0.6352
  128MOL0     N17162   7.659  11.043   6.896  0.6849  1.3083  0.7403
  128MOL0     C17163   7.642  11.160   6.836 -0.4577  0.0425  0.6763
  128MOL0     C17164   7.751  11.186   6.768  0.1458 -0.4318  0.6404
  128MOL0     C17165   7.785  11.301   6.674  0.3430  0.4101  0.1221
  128MOL0     C17166   7.861  11.256   6.558 -0.4378  0.0678  0.3018
  128MOL0     C17167   7.861  11.352   6.450  0.5477  0.0071 -0.0354
  128MOL0     C17168   7.996  11.337   6.365 -0.1587  0.4035 -0.7809
  128MOL0     O17169   7.982  11.218   6.290 -1.3135  0.5975 -0.4617
  128MOL0     C17170   8.103  11.160   6.251 -0.4303 -0.0485 -0.2066
  128MOL0     C17171   8.235  11.220   6.253 -0.8290 -0.1179  0.5326
  128MOL0     C17172   8.348  11.158   6.206 -0.4897 -0.7329  0.0578
  128MOL0     C17173   8.344  11.028   6.149 -0.0435 -0.3388  0.5128
  128MOL0     C17174   8.461  10.976   6.084  0.0944  0.3392  0.3747
  128MOL0     O17175   8.451  10.858   6.015  0.2406  0.4002  0.4154
  128MOL0     C17176   8.577  10.793   6.022 -0.1788 -0.2795  0.3101
  128MOL0     C17177   8.594  10.696   6.123 -0.5374 -0.4965 -0.6098
  128MOL0     C17178   8.717  10.626   6.130 -0.2887  0.2675  0.0780
  128MOL0     C17179   8.824  10.653   6.038 -1.0958  0.9892  1.5209
  128MOL0     O17180   8.939  10.575   6.044  1.0243  0.3291  0.5174
  128MOL0     C17181   8.989  10.550   6.177  0.4641 -0.8852  0.4830
  128MOL0     C17182   9.134  10.495   6.153 -0.3811  0.5871  0.3406
  128MOL0     C17183   9.206  10.433   6.267 -0.6238 -0.1883  0.8602
  128MOL0     C17184   9.354  10.489   6.295 -0.1069 -0.1707 -0.9152
  128MOL0     C17185   9.435  10.394   6.392  0.5868 -0.4827 -0.7229
  128MOL0     C17186   9.396  10.388   6.534  0.6890 -0.3138  0.1355
  128MOL0     C17187   9.360  10.512   6.621  1.3109 -0.7965 -0.4741
  128MOL0     C17188   9.476  10.608   6.659 -0.5718  0.2113 -0.6343
  128MOL0    Cl17189   9.563  10.517   6.794  0.1881  0.4700  0.1004
  128MOL0     C17190   8.798  10.752   5.941 -0.1577 -0.0433 -0.2466
  128MOL0     C17191   8.684  10.819   5.934  0.0060  0.6199 -0.0114
  128MOL0     O17192   8.560  11.050   6.083 -0.4322 -0.2607 -0.1727
  128MOL0     C17193   8.222  10.962   6.151 -0.7233  0.5779  1.2730
  128MOL0     C17194   8.109  11.028   6.203  0.1262 -0.2177 -0.5564
  128MOL0     N17195   7.839  11.090   6.806  0.5066  0.1452  0.4160
  128MOL0     N17196   7.787  11.012   6.895  0.7173  1.1342  0.6564
  128MOL0     C17197   6.582  10.716   6.653  0.0043 -0.3295  0.1254
  128MOL0     C17198   6.489  10.617   6.650  0.2875 -0.4741  0.6536
  128MOL0     C17199   6.158  10.347   6.779 -0.8860 -0.1704 -0.3209
  128MOL0     C17200   6.070  10.364   6.670  0.6148 -0.4233  0.4427
  128MOL0     C17201   5.955  10.279   6.651 -0.7311  0.7581 -0.0848
  128MOL0     C17202   5.909  10.190   6.752  0.1505 -0.3873 -0.4259
  128MOL0     O17203   5.797  10.116   6.736 -0.3642 -0.3452 -0.4785
  128MOL0     C17204   5.688  10.143   6.639 -0.2220 -0.2112  0.3818
  128MOL0     C17205   5.604  10.275   6.668 -0.2622 -0.2315  0.5733
  128MOL0     C17206   5.459  10.250   6.622  0.9194  0.4143  0.0469
  128MOL0     C17207   5.379  10.375   6.604  0.5517 -0.3586 -0.3568
  128MOL0     C17208   5.370  10.442   6.739  0.2956 -0.1575  0.8309
  128MOL0     C17209   5.366  10.511   6.839  0.4332 -0.5743 -0.0225
  128MOL0     C17210   5.994  10.194   6.862 -0.1057  0.2596  0.2923
  128MOL0     C17211   6.117  10.265   6.883 -0.5399  0.1881 -0.3111
  128MOL0     C17212   6.186  10.253   7.020 -0.1651  0.5602 -0.1314
  128MOL0     H17213   6.257  10.738   6.853  0.1963  0.6084 -0.2960
  128MOL0     H17214   6.422  10.910   6.897 -0.7010 -1.0707  0.1605
  128MOL0     H17215   6.818  10.796   6.834  1.0255  1.8787  0.5752
  128MOL0     H17216   6.833  10.813   6.659 -3.4511  0.2491 -0.8590
  128MOL0     H17217   6.851  11.058   6.833 -2.6608  0.0661 -1.3433
  128MOL0     H17218   6.913  11.036   6.673 -1.5942 -0.1138 -0.2276
  128MOL0     H17219   7.072  10.852   6.768  0.7257  0.5827 -0.5297
  128MOL0     H17220   7.034  10.927   6.926  0.2459 -0.2720 -0.7461
  128MOL0     H17221   7.161  11.075   6.688  2.6428 -3.4419  0.0472
  128MOL0     H17222   7.081  11.166   6.805 -0.5207 -0.9113  2.1248
  128MOL0     H17223   7.319  11.151   6.892  1.7834 -2.0117  0.2893
  128MOL0     H17224   7.239  11.029   6.974 -1.4588  1.5584  0.7303
  128MOL0     H17225   7.300  10.878   6.760  2.8454 -4.7023  2.1692
  128MOL0     H17226   7.410  11.002   6.709 -0.5741  3.4160  0.1138
  128MOL0     H17227   7.526  10.816   6.839  1.3817  1.3816 -1.7359
  128MOL0     H17228   7.405  10.836   6.976 -3.1757  0.4777 -0.2969
  128MOL0     H17229   7.495  11.051   7.024 -2.3102  1.2841 -2.2294
  128MOL0     H17230   7.606  10.905   7.037  0.0235 -1.3458 -1.8091
  128MOL0     H17231   7.552  11.218   6.816 -1.1958 -1.6175 -1.2736
  128MOL0     H17232   7.696  11.351   6.635  1.3119  2.0698 -0.0780
  128MOL0     H17233   7.844  11.362   6.744 -0.5587  0.6089  0.7253
  128MOL0     H17234   7.962  11.237   6.595 -1.2029 -1.6512  1.6676
  128MOL0     H17235   7.825  11.170   6.501  0.1124  1.2972 -1.9937
  128MOL0     H17236   7.866  11.453   6.494  2.6724  1.6178 -3.5289
  128MOL0     H17237   7.766  11.342   6.398  0.8654 -0.2924 -0.5694
  128MOL0     H17238   8.081  11.333   6.434  1.3663  2.6382 -2.3548
  128MOL0     H17239   8.008  11.425   6.301 -1.5010  0.2689 -1.2282
  128MOL0     H17240   8.241  11.323   6.290  1.4511  0.3192 -0.8897
  128MOL0     H17241   8.437  11.221   6.199 -1.0608 -0.0110 -0.9221
  128MOL0     H17242   8.505  10.675   6.181 -0.4875 -0.6196 -0.5757
  128MOL0     H17243   8.719  10.553   6.209 -3.3754  0.2467  0.2585
  128MOL0     H17244   8.999  10.647   6.226  2.0791  0.4943 -2.3129
  128MOL0     H17245   8.935  10.474   6.234  1.3727 -0.5970  1.7705
  128MOL0     H17246   9.122  10.416   6.078  0.1791  2.0587 -1.3690
  128MOL0     H17247   9.200  10.575   6.119  1.5460  0.2058  2.8839
  128MOL0     H17248   9.144  10.449   6.356 -1.1388  0.8180  0.3396
  128MOL0     H17249   9.217  10.326   6.252  0.9363  0.0891 -0.2245
  128MOL0     H17250   9.352  10.593   6.330 -1.5374 -1.0365  1.8794
  128MOL0     H17251   9.407  10.487   6.200  0.5625  1.3316 -0.6181
  128MOL0     H17252   9.535  10.437   6.398 -0.3753  1.8306  4.8375
  128MOL0     H17253   9.433  10.291   6.354  1.4628  0.1988 -2.7058
  128MOL0     H17254   9.310  10.321   6.543  1.1352 -0.7053  1.9974
  128MOL0     H17255   9.474  10.326   6.580  2.4276  1.7083  0.0401
  128MOL0     H17256   9.294  10.498   6.707 -0.0968  4.2220 -0.3946
  128MOL0     H17257   9.294  10.568   6.555  1.3439  0.8550  0.8092
  128MOL0     H17258   9.541  10.624   6.573 -0.2466  0.1260 -0.4070
  128MOL0     H17259   9.447  10.701   6.707  1.8054  0.8434 -0.2984
  128MOL0     H17260   8.876  10.773   5.869 -0.3172  1.8530  0.0721
  128MOL0     H17261   8.682  10.887   5.850 -0.9298  0.3262 -0.2326
  128MOL0     H17262   8.205  10.861   6.115  1.0821  0.8845 -0.5600
  128MOL0     H17263   8.010  10.987   6.217 -0.9150  2.2417 -0.1225
  128MOL0     H17264   6.669  10.712   6.589  0.4390 -1.4513  0.7520
  128MOL0     H17265   6.491  10.530   6.585 -1.3977 -0.8326  1.0328
  128MOL0     H17266   6.090  10.425   6.582 -3.2195 -1.0592 -1.0641
  128MOL0     H17267   5.901  10.280   6.557 -0.8566  0.4077 -0.0177
  128MOL0     H17268   5.612  10.064   6.638 -0.5077  0.0532 -1.2785
  128MOL0     H17269   5.721  10.161   6.537 -0.2166  2.0715  0.7348
  128MOL0     H17270   5.641  10.369   6.626  0.8860 -1.5689 -1.6106
  128MOL0     H17271   5.615  10.282   6.776  5.0875 -0.2168  0.2731
  128MOL0     H17272   5.403  10.178   6.682  0.0347 -1.7717 -3.0914
  128MOL0     H17273   5.459  10.201   6.524 -3.2048  0.7721 -0.2803
  128MOL0     H17274   5.437  10.440   6.538 -0.3205 -0.1050 -0.8894
  128MOL0     H17275   5.282  10.345   6.562 -0.8548 -0.8725  2.9219
  128MOL0     H17276   5.368  10.561   6.933 -2.6935 -0.6450  0.1864
  128MOL0     H17277   5.968  10.142   6.954  1.4331 -0.1176  0.5378
  128MOL0     H17278   6.261  10.174   7.008 -3.0644 -2.4120 -0.1143
  128MOL0     H17279   6.236  10.346   7.048  0.9081  0.2450 -0.9230
  128MOL0     H17280   6.132  10.219   7.109  2.3069 -1.9966  0.5828
  129MOL0     O17281   6.044   0.792   1.206  0.4462 -0.2865 -0.5502
  129MOL0     C17282   6.118   0.891   1.235  0.4757 -0.2926 -0.8679
  129MOL0     O17283   6.174   0.970   1.149 -0.2080  0.0338  0.3795
  129MOL0     C17284   6.157   0.971   1.013 -1.0289  0.2342 -0.6869
  129MOL0     C17285   6.040   0.951   0.956  0.3841  0.1140 -0.6488
  129MOL0     C17286   6.015   0.951   0.820  0.1005 -0.3227 -0.1607
  129MOL0     C17287   6.116   0.993   0.726 -0.1804 -0.1018 -0.1295
  129MOL0     O17288   6.110   1.002   0.589 -0.5336  0.9405  0.2384
  129MOL0     C17289   6.036   1.107   0.546 -0.3142 -1.3206 -0.5153
  129MOL0     C17290   5.900   1.061   0.488 -0.3859  0.7361 -0.2716
  129MOL0     C17291   5.921   0.933   0.406 -0.3053 -0.6513  0.3711
  129MOL0     C17292   5.802   0.906   0.306 -0.1458  0.1609  0.4190
  129MOL0     C17293   5.805   0.992   0.180 -0.7638 -0.5970 -0.1972
  129MOL0     C17294   5.947   0.995   0.117  0.3280  0.7610 -0.0947
  129MOL0     C17295   5.934   1.037  -0.031  0.3157  0.6159 -0.3229
  129MOL0     C17296   6.062   1.022  -0.119  0.4500  0.5202 -0.6195
  129MOL0     N17297   6.157   1.121  -0.099 -0.2963  0.3463 -0.6407
  129MOL0     C17298   6.270   1.120  -0.023 -1.6883  0.2882 -0.3830
  129MOL0     C17299   6.343   1.238  -0.039  0.2519  0.1200  0.4960
  129MOL0     C17300   6.462   1.276   0.049 -1.1561 -0.4564 -0.3031
  129MOL0     C17301   6.506   1.423   0.022  0.0513 -0.7204  0.4327
  129MOL0     C17302   6.636   1.471   0.093  0.3665 -0.7631 -0.2054
  129MOL0     C17303   6.677   1.608   0.029 -0.3700  0.0172 -0.0815
  129MOL0     O17304   6.754   1.669   0.133 -1.0800 -0.2358 -0.3269
  129MOL0     C17305   6.762   1.801   0.126  1.2499 -0.0979 -0.2681
  129MOL0     C17306   6.864   1.848   0.040  0.6929  1.2652  0.5156
  129MOL0     C17307   6.885   1.983   0.044 -0.0445  0.7737  0.2139
  129MOL0     C17308   6.804   2.070   0.119 -0.8108  0.4933 -0.3987
  129MOL0     C17309   6.833   2.216   0.118  1.7115 -0.0224 -0.2913
  129MOL0     O17310   6.727   2.295   0.142 -0.4142  0.3086 -0.4695
  129MOL0     C17311   6.755   2.424   0.173  0.0912 -0.5450  1.2164
  129MOL0     C17312   6.817   2.525   0.094 -1.1252 -0.1074  0.0547
  129MOL0     C17313   6.829   2.657   0.144 -0.1548 -0.4423  0.4131
  129MOL0     C17314   6.810   2.691   0.286 -0.0073  0.6006  0.7222
  129MOL0     O17315   6.832   2.814   0.355 -0.6513 -0.2145  0.2996
  129MOL0     C17316   6.835   2.932   0.269  0.0156  0.2963 -0.2093
  129MOL0     C17317   6.693   2.961   0.223  0.3697 -0.0311 -0.4095
  129MOL0     C17318   6.590   2.943   0.341  0.8081 -0.5748 -0.2587
  129MOL0     C17319   6.624   3.035   0.467 -0.0021 -0.6386  1.0726
  129MOL0     C17320   6.542   3.006   0.590  0.0276  0.6176 -0.2853
  129MOL0     C17321   6.420   3.093   0.595  0.5834  0.4439  0.0450
  129MOL0     C17322   6.296   3.049   0.670  0.3356  0.4848 -0.6205
  129MOL0     C17323   6.210   3.170   0.694 -0.2300  0.3007  0.2786
  129MOL0    Cl17324   6.278   3.236   0.851 -0.1133  0.2387  0.3973
  129MOL0     C17325   6.755   2.582   0.361 -0.1721  0.6970  0.9688
  129MOL0     C17326   6.716   2.458   0.301 -0.6274 -1.0143 -0.4192
  129MOL0     O17327   6.946   2.254   0.120  0.0716 -0.4129 -0.3016
  129MOL0     C17328   6.710   2.020   0.204 -1.0661  0.8814  0.4587
  129MOL0     C17329   6.689   1.881   0.215  0.3166 -0.0874  0.4573
  129MOL0     N17330   6.271   1.308  -0.139  0.0475 -0.1727 -0.1366
  129MOL0     N17331   6.169   1.236  -0.174 -0.3218  1.1134  0.3193
  129MOL0     C17332   6.231   1.026   0.790 -0.7162 -0.8118  0.5415
  129MOL0     C17333   6.265   1.014   0.929  0.0640  0.6075  0.0247
  129MOL0     C17334   6.141   0.906   1.377  0.4563 -0.6281 -0.2903
  129MOL0     C17335   6.171   0.786   1.444 -0.7488  0.5952  0.5832
  129MOL0     C17336   6.213   0.791   1.572  0.5950  0.4818  0.2845
  129MOL0     C17337   6.224   0.907   1.638  0.5259  0.3735  0.2866
  129MOL0     O17338   6.269   0.896   1.765 -0.1993  1.3276 -0.7057
  129MOL0     C17339   6.327   1.000   1.843  0.3750 -0.4588  0.6188
  129MOL0     C17340   6.382   0.951   1.971  0.0928 -0.1601 -0.1394
  129MOL0     C17341   6.493   1.034   2.024  0.1789  0.2040 -0.9627
  129MOL0     C17342   6.533   0.990   2.165  0.0443 -0.7035 -0.3652
  129MOL0     C17343   6.657   1.060   2.213  0.2670 -0.4325 -0.2296
  129MOL0     C17344   6.762   1.111   2.245  0.5259  0.9161 -0.0232
  129MOL0     C17345   6.198   1.030   1.577 -0.5140 -0.4478  0.0705
  129MOL0     C17346   6.155   1.028   1.444  0.1461  0.3740 -0.1329
  129MOL0     C17347   6.133   1.159   1.368 -0.0531 -0.1188  0.3318
  129MOL0     H17348   5.957   0.937   1.024 -0.9299  1.4111 -1.8997
  129MOL0     H17349   5.919   0.929   0.774 -0.0761  4.6055 -2.7685
  129MOL0     H17350   6.013   1.185   0.620 -0.5523 -2.8723  1.1121
  129MOL0     H17351   6.095   1.161   0.471  0.4225  0.8470  1.5031
  129MOL0     H17352   5.860   1.141   0.425 -0.8342  1.0080  0.3534
  129MOL0     H17353   5.830   1.045   0.570 -1.2447  3.9536 -0.2537
  129MOL0     H17354   5.927   0.852   0.480 -1.1978  1.4520  2.8919
  129MOL0     H17355   6.016   0.948   0.354  0.7711  2.1385  2.9291
  129MOL0     H17356   5.807   0.805   0.266  0.6876  1.1296 -2.1060
  129MOL0     H17357   5.706   0.923   0.355  0.2023 -0.8367  1.4887
  129MOL0     H17358   5.736   0.935   0.117  3.3644 -3.6757 -2.3700
  129MOL0     H17359   5.765   1.091   0.205 -1.4783 -0.5568 -1.4243
  129MOL0     H17360   6.010   1.067   0.168  1.4818 -0.9361  0.9761
  129MOL0     H17361   5.994   0.897   0.124  1.5184  1.3638  0.5821
  129MOL0     H17362   5.896   1.139  -0.032  0.2219  0.7936  3.6380
  129MOL0     H17363   5.857   0.982  -0.085  0.1007  0.4434  0.1468
  129MOL0     H17364   6.100   0.920  -0.105 -4.8781 -2.0228 -2.0949
  129MOL0     H17365   6.029   1.026  -0.223  3.2187  0.2546 -1.6009
  129MOL0     H17366   6.301   1.048   0.052 -1.8274  1.2137  0.5823
  129MOL0     H17367   6.442   1.262   0.155 -1.1345  0.8729 -0.1092
  129MOL0     H17368   6.552   1.217   0.029  0.3632  1.7370 -0.2684
  129MOL0     H17369   6.534   1.440  -0.082 -0.0744  2.0027  0.7678
  129MOL0     H17370   6.419   1.479   0.057  0.0206 -0.6511  0.2442
  129MOL0     H17371   6.711   1.392   0.080  0.1115 -1.0145 -0.1409
  129MOL0     H17372   6.614   1.478   0.200 -0.7303 -0.4302 -0.4397
  129MOL0     H17373   6.594   1.673  -0.001  1.4946  2.7362  0.3068
  129MOL0     H17374   6.736   1.585  -0.060  2.2924  0.8330  1.3635
  129MOL0     H17375   6.910   1.789  -0.039 -1.3173 -1.7416  1.4266
  129MOL0     H17376   6.936   2.036  -0.036 -1.7413  1.5885 -0.3773
  129MOL0     H17377   6.848   2.528  -0.010 -3.1075  0.0906 -0.5823
  129MOL0     H17378   6.867   2.733   0.076 -1.3055  0.0836  0.3262
  129MOL0     H17379   6.867   3.019   0.327 -1.4246  0.1166  0.9240
  129MOL0     H17380   6.900   2.933   0.181 -1.4385 -1.6924 -1.3746
  129MOL0     H17381   6.681   3.063   0.184  2.7724  0.5200  0.1188
  129MOL0     H17382   6.662   2.900   0.138  1.4226 -0.5164 -0.4602
  129MOL0     H17383   6.485   2.961   0.318  1.0028  0.0985 -0.6295
  129MOL0     H17384   6.586   2.843   0.385  3.2930 -0.0074  1.4813
  129MOL0     H17385   6.610   3.141   0.443  3.1696 -0.1816  0.9076
  129MOL0     H17386   6.723   3.014   0.507 -0.3039  0.3907  2.4391
  129MOL0     H17387   6.604   3.026   0.678  0.7902 -1.5107 -0.2795
  129MOL0     H17388   6.511   2.901   0.593 -1.2951  0.9853 -0.6582
  129MOL0     H17389   6.444   3.192   0.634 -1.5556 -0.6050  4.5894
  129MOL0     H17390   6.382   3.095   0.492 -5.2689  0.6684  1.8795
  129MOL0     H17391   6.335   3.001   0.760  1.6497  2.8178  0.1470
  129MOL0     H17392   6.232   2.977   0.619  1.6464 -0.1067 -1.5074
  129MOL0     H17393   6.190   3.236   0.609 -0.1011 -0.4791 -0.3736
  129MOL0     H17394   6.108   3.143   0.720 -0.7642  1.0239 -0.9837
  129MOL0     H17395   6.714   2.589   0.461 -4.8002  2.3008 -0.7402
  129MOL0     H17396   6.666   2.386   0.364 -2.3199 -0.4201 -1.0318
  129MOL0     H17397   6.647   2.082   0.267 -2.2015  0.6000 -0.3694
  129MOL0     H17398   6.615   1.840   0.282 -0.3227 -3.5014 -2.1067
  129MOL0     H17399   6.306   1.065   0.723 -1.4184 -0.6995 -0.1937
  129MOL0     H17400   6.358   1.052   0.971 -0.2275  0.8133  0.4827
  129MOL0     H17401   6.167   0.687   1.401  1.8438  1.9213 -3.2594
  129MOL0     H17402   6.225   0.700   1.631 -2.0915  1.4646  2.5737
  129MOL0     H17403   6.251   1.076   1.860 -0.1587  0.5136 -4.6399
  129MOL0     H17404   6.416   1.043   1.796  0.6993  0.0012  1.6292
  129MOL0     H17405   6.424   0.855   1.940  2.9998  1.4101 -1.5278
  129MOL0     H17406   6.292   0.949   2.033  0.1673  0.4559 -0.0029
  129MOL0     H17407   6.459   1.137   2.039 -2.4062 -0.6305 -0.6510
  129MOL0     H17408   6.579   1.033   1.956  1.0651  0.2633  0.1321
  129MOL0     H17409   6.446   0.995   2.232 -1.0232 -4.0863 -1.2932
  129MOL0     H17410   6.561   0.885   2.159 -1.1116 -0.9614 -1.7188
  129MOL0     H17411   6.851   1.166   2.272 -0.5909  2.3937  0.8359
  129MOL0     H17412   6.203   1.127   1.625 -2.1809  0.2528 -1.1124
  129MOL0     H17413   6.069   1.138   1.282  0.7223 -0.7734 -0.1020
  129MOL0     H17414   6.070   1.213   1.439 -2.4780 -0.7091 -1.2768
  129MOL0     H17415   6.223   1.216   1.342 -0.3714  1.2318  2.0224
  130MOL0     O17416   5.207   3.358   9.140 -0.4096  0.3189 -0.1602
  130MOL0     C17417   5.190   3.354   9.263 -0.5454  1.1412 -0.1346
  130MOL0     O17418   5.264   3.273   9.349  1.4820  0.3111 -0.7591
  130MOL0     C17419   5.344   3.170   9.309 -1.3027  0.2362 -0.0197
  130MOL0     C17420   5.482   3.186   9.332  0.1064 -0.9176  0.3148
  130MOL0     C17421   5.580   3.093   9.280  0.2337  0.3209  1.1811
  130MOL0     C17422   5.532   2.995   9.192  0.0502  0.0225 -0.4609
  130MOL0     O17423   5.635   2.922   9.139  0.2450 -0.3146  0.2063
  130MOL0     C17424   5.645   2.783   9.187  0.2118  0.4379 -0.1551
  130MOL0     C17425   5.700   2.700   9.066  0.0127  0.0603  0.0656
  130MOL0     C17426   5.847   2.705   9.052 -0.2124 -0.1264  0.8960
  130MOL0     C17427   5.890   2.651   8.920 -0.7865  0.5294 -0.3083
  130MOL0     C17428   6.040   2.649   8.886 -0.2802 -0.2459 -0.1195
  130MOL0     C17429   6.127   2.585   8.993 -0.6423 -0.3903 -0.7098
  130MOL0     C17430   6.276   2.617   8.976 -0.1150  1.0914 -0.5472
  130MOL0     C17431   6.366   2.552   9.080 -0.4259  0.4923 -0.0242
  130MOL0     N17432   6.506   2.551   9.050 -0.7085 -0.1403  0.1562
  130MOL0     C17433   6.588   2.443   9.036 -1.0836  0.7477 -0.9268
  130MOL0     C17434   6.713   2.496   9.042 -1.2246 -0.4962 -0.0935
  130MOL0     C17435   6.835   2.416   9.037 -0.3629  0.4717  0.3464
  130MOL0     C17436   6.871   2.310   9.130  0.4332  0.2882  0.2273
  130MOL0     C17437   7.011   2.260   9.130  0.3604  0.5092 -0.0185
  130MOL0     C17438   7.123   2.354   9.166 -1.0685 -0.5071 -1.0540
  130MOL0     O17439   7.117   2.413   9.298  0.4166 -0.1151  0.6789
  130MOL0     C17440   7.227   2.463   9.368 -0.2120  0.5019  0.2417
  130MOL0     C17441   7.344   2.494   9.297 -0.1079  0.5735 -0.6005
  130MOL0     C17442   7.444   2.557   9.365  0.5024  0.0284 -0.3514
  130MOL0     C17443   7.430   2.607   9.501  0.0270  0.1823  0.0392
  130MOL0     C17444   7.539   2.688   9.568 -0.1591 -0.2073  1.2099
  130MOL0     O17445   7.654   2.707   9.493  0.4036  0.3796  0.4442
  130MOL0     C17446   7.756   2.774   9.544  0.1688  0.0235  0.1829
  130MOL0     C17447   7.768   2.916   9.514  0.0127 -0.0198  0.6994
  130MOL0     C17448   7.873   2.989   9.571 -0.0742 -0.3771 -0.0293
  130MOL0     C17449   7.972   2.931   9.642  0.2926 -0.1185  0.3938
  130MOL0     O17450   8.086   3.007   9.653 -0.0316  0.1544  0.0015
  130MOL0     C17451   8.204   2.925   9.649  0.2199  0.1785  0.8164
  130MOL0     C17452   8.345   2.997   9.634  0.0600 -0.5499  0.2077
  130MOL0     C17453   8.369   3.055   9.500  0.4902 -0.0652  0.3269
  130MOL0     C17454   8.475   3.155   9.520 -0.2983 -0.0051 -0.0426
  130MOL0     C17455   8.533   3.205   9.380 -0.1661 -0.2895 -1.0923
  130MOL0     C17456   8.621   3.105   9.305  0.4593  0.3693  0.0370
  130MOL0     C17457   8.666   3.158   9.169  0.1198 -0.3160  0.2347
  130MOL0     C17458   8.711   3.041   9.081  0.0415 -1.0413 -0.3765
  130MOL0    Cl17459   8.863   2.987   9.147  0.1600 -0.8125 -0.0850
  130MOL0     C17460   7.952   2.801   9.688  0.4076 -0.5465 -0.6872
  130MOL0     C17461   7.844   2.723   9.641 -0.6434 -0.1450  0.2499
  130MOL0     O17462   7.525   2.720   9.684 -0.1983  0.6786  0.5540
  130MOL0     C17463   7.310   2.574   9.566  0.1805 -0.1809  0.2704
  130MOL0     C17464   7.209   2.505   9.497 -0.1419  0.6114  0.0598
  130MOL0     N17465   6.705   2.632   9.051 -0.0355  0.4020 -0.0122
  130MOL0     N17466   6.584   2.661   9.057  0.0833 -0.2199 -0.9188
  130MOL0     C17467   5.396   2.976   9.171 -0.5817 -0.8704  0.6243
  130MOL0     C17468   5.308   3.066   9.221 -1.2075  0.7907 -0.0516
  130MOL0     C17469   5.103   3.437   9.350  0.3551  0.3192  0.5839
  130MOL0     C17470   5.109   3.448   9.496 -0.1631  0.1226 -0.3474
  130MOL0     C17471   5.014   3.516   9.573  0.3485  0.5335  0.4910
  130MOL0     C17472   4.908   3.576   9.504  1.0870 -0.4211 -1.1763
  130MOL0     O17473   4.795   3.632   9.566 -0.2202  0.2654 -0.6177
  130MOL0     C17474   4.807   3.654   9.715 -0.1820 -0.3696 -0.7807
  130MOL0     C17475   4.690   3.732   9.776 -0.3504  0.2273 -0.3337
  130MOL0     C17476   4.711   3.883   9.749  0.7651 -0.9959  0.3729
  130MOL0     C17477   4.584   3.966   9.787 -0.1277 -0.2852 -0.3405
  130MOL0     C17478   4.473   3.958   9.690  0.1453  0.3474  0.1237
  130MOL0     C17479   4.388   3.961   9.605 -0.1157  0.1298 -0.7644
  130MOL0     C17480   4.893   3.559   9.368 -0.3061 -0.4609  0.4390
  130MOL0     C17481   4.986   3.492   9.286 -0.1508 -0.0743  0.2377
  130MOL0     C17482   4.941   3.482   9.138  0.2811 -0.1736 -0.1502
  130MOL0     H17483   5.517   3.273   9.388  0.7166  0.5164 -2.1324
  130MOL0     H17484   5.688   3.102   9.291  0.5897 -2.7291  1.1269
  130MOL0     H17485   5.719   2.770   9.267 -0.9191 -0.8796  0.7143
  130MOL0     H17486   5.559   2.740   9.239  0.2966  0.7150  0.2242
  130MOL0     H17487   5.653   2.730   8.972  0.6893 -2.3831 -1.1563
  130MOL0     H17488   5.667   2.597   9.083 -1.8494  1.0944  3.9373
  130MOL0     H17489   5.893   2.649   9.134  1.2182 -2.3973 -1.3344
  130MOL0     H17490   5.866   2.813   9.051 -1.1974  0.1113 -2.2873
  130MOL0     H17491   5.857   2.547   8.908  2.6459 -0.5574 -1.3520
  130MOL0     H17492   5.847   2.708   8.837 -0.9198 -1.8309 -1.9759
  130MOL0     H17493   6.059   2.604   8.788  3.3132 -3.2610  1.6850
  130MOL0     H17494   6.067   2.753   8.871 -0.6157 -0.1911 -0.3605
  130MOL0     H17495   6.100   2.623   9.092  2.7108 -2.4840  1.2047
  130MOL0     H17496   6.113   2.477   8.999 -0.3343 -0.3547  1.1955
  130MOL0     H17497   6.292   2.725   8.987  2.8501  0.7527 -0.7902
  130MOL0     H17498   6.312   2.573   8.883  0.4393 -3.7505  1.6907
  130MOL0     H17499   6.361   2.604   9.176 -1.8635 -2.7939  1.8294
  130MOL0     H17500   6.341   2.447   9.094  2.3966 -0.4952 -1.5553
  130MOL0     H17501   6.555   2.339   9.035 -1.7512  0.9621 -1.6475
  130MOL0     H17502   6.836   2.375   8.935  1.7307 -0.2709  0.6110
  130MOL0     H17503   6.918   2.487   9.036 -1.7520  2.2046 -1.7663
  130MOL0     H17504   6.858   2.341   9.234 -0.5587 -1.5536  0.6934
  130MOL0     H17505   6.805   2.224   9.115  3.0116 -1.8165  0.1360
  130MOL0     H17506   7.028   2.215   9.032  3.9125  1.4324  0.0371
  130MOL0     H17507   7.010   2.181   9.206 -2.5439  0.8817  0.4617
  130MOL0     H17508   7.133   2.434   9.092  0.0734 -1.4393 -1.9453
  130MOL0     H17509   7.215   2.295   9.168 -0.0004  1.0982 -0.3743
  130MOL0     H17510   7.355   2.460   9.194 -1.7575 -3.0280  0.2614
  130MOL0     H17511   7.540   2.586   9.322 -0.6838  2.3140 -1.7016
  130MOL0     H17512   7.712   2.970   9.438  1.9241  0.4621 -0.4685
  130MOL0     H17513   7.888   3.095   9.554  1.2310 -0.4809  0.3555
  130MOL0     H17514   8.212   2.863   9.739  0.9879 -0.4778  0.3183
  130MOL0     H17515   8.187   2.852   9.569  1.2973 -0.2716  0.9801
  130MOL0     H17516   8.348   3.079   9.706  1.9305  0.0913 -0.5410
  130MOL0     H17517   8.426   2.934   9.671  3.3247  2.5321 -1.1242
  130MOL0     H17518   8.389   2.977   9.426 -1.3406  0.7104 -1.0733
  130MOL0     H17519   8.287   3.111   9.455  0.4449  0.1255  0.6444
  130MOL0     H17520   8.554   3.116   9.585 -1.0209 -1.4139  0.0121
  130MOL0     H17521   8.438   3.242   9.576  0.6660  2.5418 -3.0709
  130MOL0     H17522   8.601   3.287   9.406 -0.3917  0.2720 -2.2433
  130MOL0     H17523   8.455   3.237   9.311  0.0761 -2.0808 -2.2812
  130MOL0     H17524   8.706   3.073   9.365 -1.5332  0.6727  3.2820
  130MOL0     H17525   8.565   3.016   9.275 -0.7096  1.3418 -0.7940
  130MOL0     H17526   8.743   3.234   9.185 -1.5514  1.9457 -1.6922
  130MOL0     H17527   8.581   3.204   9.118  0.6113  1.7742  1.1823
  130MOL0     H17528   8.651   2.951   9.065  0.0038 -0.6994 -2.4689
  130MOL0     H17529   8.741   3.082   8.984 -0.0558 -1.1281 -0.4431
  130MOL0     H17530   8.019   2.769   9.767  0.3903  1.4783  0.2042
  130MOL0     H17531   7.835   2.624   9.684  0.2577  0.1342  1.1244
  130MOL0     H17532   7.297   2.609   9.668 -0.1503 -0.7412  0.4244
  130MOL0     H17533   7.117   2.498   9.553 -1.2906 -0.1856 -1.8474
  130MOL0     H17534   5.360   2.903   9.099  0.1906  0.9443 -1.7291
  130MOL0     H17535   5.204   3.066   9.189 -1.1376  0.6437 -0.2778
  130MOL0     H17536   5.191   3.398   9.546 -0.9012  0.7102  1.5673
  130MOL0     H17537   5.014   3.518   9.681 -4.8169  3.1727  0.7521
  130MOL0     H17538   4.900   3.708   9.735 -0.8801  1.8907 -3.1124
  130MOL0     H17539   4.819   3.557   9.765  1.1898 -0.1886 -0.7279
  130MOL0     H17540   4.680   3.712   9.883 -2.9168 -0.6212 -0.6762
  130MOL0     H17541   4.591   3.694   9.749 -0.3121 -0.1903  0.1099
  130MOL0     H17542   4.738   3.899   9.645  0.2193  2.8519  0.6853
  130MOL0     H17543   4.793   3.924   9.809  0.2962 -0.5490  0.7216
  130MOL0     H17544   4.556   3.934   9.887 -0.5593  1.1182  0.0221
  130MOL0     H17545   4.628   4.066   9.793  2.5346 -1.0751 -3.5759
  130MOL0     H17546   4.303   3.955   9.539 -1.7057  1.8015  1.0090
  130MOL0     H17547   4.797   3.596   9.332 -0.1769  0.8515  1.3818
  130MOL0     H17548   4.849   3.536   9.114  1.3892  0.8716 -2.3454
  130MOL0     H17549   5.021   3.533   9.083 -1.2537  1.4321 -0.9995
  130MOL0     H17550   4.952   3.379   9.106  0.5143  0.4447 -2.1876
  131MOL0     O17551   8.190   5.645   8.755  0.2739  0.6183  0.9674
  131MOL0     C17552   8.155   5.691   8.647  0.0624  0.3212  0.3563
  131MOL0     O17553   8.167   5.816   8.605 -0.8843 -0.6285 -0.3533
  131MOL0     C17554   8.236   5.906   8.693 -0.0414  0.3660  0.8073
  131MOL0     C17555   8.366   5.933   8.668 -0.6332 -0.9124 -0.6181
  131MOL0     C17556   8.438   6.012   8.758  0.0203 -0.6507  0.0160
  131MOL0     C17557   8.382   6.068   8.870 -0.4213  0.0688 -0.6304
  131MOL0     O17558   8.459   6.147   8.951  0.4397 -0.2864 -0.6169
  131MOL0     C17559   8.403   6.215   9.061 -0.6824  0.7066 -0.5914
  131MOL0     C17560   8.508   6.290   9.136 -0.4256 -1.0110  0.4001
  131MOL0     C17561   8.624   6.211   9.204  0.2948 -0.6109 -0.4410
  131MOL0     C17562   8.696   6.300   9.307  0.1116  0.4804  0.3864
  131MOL0     C17563   8.814   6.238   9.385  0.5224 -0.1097 -0.2416
  131MOL0     C17564   8.872   6.344   9.484  0.1132  0.9455 -0.7561
  131MOL0     C17565   9.012   6.315   9.528 -0.6205 -0.4585 -0.3331
  131MOL0     C17566   9.023   6.170   9.596  1.0730 -0.1741 -0.9332
  131MOL0     N17567   8.920   6.141   9.698  0.5844 -0.5575  0.2959
  131MOL0     C17568   8.916   6.193   9.830 -0.3220  0.2709  1.6660
  131MOL0     C17569   8.807   6.157   9.889  0.2062  0.5317  0.2739
  131MOL0     C17570   8.753   6.196  10.027 -0.8227  0.0263 -0.0349
  131MOL0     C17571   8.731   6.063  10.105 -0.4086 -0.4381  0.3337
  131MOL0     C17572   8.857   5.984  10.142  0.7578  0.3239 -0.0023
  131MOL0     C17573   8.819   5.850  10.211  0.2502  0.2742  0.3222
  131MOL0     O17574   8.937   5.765  10.240  0.1610 -0.0739 -0.4507
  131MOL0     C17575   9.030   5.806  10.331  0.2458  0.9703 -0.5241
  131MOL0     C17576   9.144   5.730  10.327  0.1838 -0.2983 -0.1128
  131MOL0     C17577   9.251   5.760  10.405  0.5172  0.4748 -1.7564
  131MOL0     C17578   9.248   5.861  10.502  0.2403  0.3177 -0.7406
  131MOL0     C17579   9.374   5.889  10.569 -0.2026  0.2857  0.6417
  131MOL0     O17580   9.461   5.784  10.575  0.4188 -0.0311 -0.7292
  131MOL0     C17581   9.590   5.800  10.614  0.6364 -0.2345  0.1150
  131MOL0     C17582   9.687   5.749  10.527  0.0724  0.1147 -0.9073
  131MOL0     C17583   9.827   5.762  10.560 -0.4436  0.8171 -1.2039
  131MOL0     C17584   9.858   5.804  10.688 -0.1300  0.2226  0.4014
  131MOL0     O17585   9.990   5.816  10.730 -0.5766  0.0281  0.3053
  131MOL0     C17586  10.105   5.750  10.668 -0.0540  0.2333 -0.9452
  131MOL0     C17587  10.237   5.800  10.716 -0.0742  0.1900 -0.8783
  131MOL0     C17588  10.293   5.931  10.667  0.4561  0.9107  0.3270
  131MOL0     C17589  10.224   6.053  10.716  1.0141  0.3492  0.0035
  131MOL0     C17590  10.250   6.087  10.859 -0.1584 -0.1016 -0.1960
  131MOL0     C17591  10.144   6.178  10.916  0.3791 -0.0136  0.1354
  131MOL0     C17592  10.003   6.130  10.936 -0.4325  0.2739 -0.3256
  131MOL0     C17593   9.919   6.235  11.015 -0.0230  0.8838 -0.0533
  131MOL0    Cl17594   9.749   6.173  11.004  0.0196 -0.3761  0.4455
  131MOL0     C17595   9.761   5.860  10.770  0.4068 -0.2477  0.0805
  131MOL0     C17596   9.630   5.859  10.736  0.5869  0.4287 -0.0415
  131MOL0     O17597   9.382   6.003  10.604 -1.4327  0.8913 -0.1234
  131MOL0     C17598   9.133   5.949  10.510  1.2869 -0.0190  0.1983
  131MOL0     C17599   9.026   5.911  10.425 -0.2330  0.1849  0.5284
  131MOL0     N17600   8.740   6.082   9.795  0.7069  0.9101 -0.0017
  131MOL0     N17601   8.805   6.059   9.681  0.2737 -0.3174  0.2078
  131MOL0     C17602   8.240   6.054   8.883 -0.6899 -0.3661 -0.5925
  131MOL0     C17603   8.174   5.955   8.812  0.3663 -0.0715 -0.0015
  131MOL0     C17604   8.094   5.598   8.549  0.3031 -0.6736  0.7547
  131MOL0     C17605   8.027   5.478   8.590  0.4501  0.5257  0.2789
  131MOL0     C17606   7.945   5.398   8.511  0.5366  0.0135  0.7154
  131MOL0     C17607   7.933   5.436   8.374  0.2064  0.4015  0.0480
  131MOL0     O17608   7.860   5.378   8.277 -0.0692  0.1407  0.3329
  131MOL0     C17609   7.811   5.250   8.292  0.4271  0.3344  0.8352
  131MOL0     C17610   7.750   5.194   8.163  0.3526 -0.0171 -0.7082
  131MOL0     C17611   7.859   5.132   8.071  0.6839 -0.6910 -0.2233
  131MOL0     C17612   7.809   5.063   7.941 -0.2398  0.0257 -0.3744
  131MOL0     C17613   7.885   4.952   7.891  0.3284  0.0188 -0.5835
  131MOL0     C17614   7.965   4.866   7.856  0.0487  0.0327  0.1971
  131MOL0     C17615   7.999   5.546   8.325 -0.2626  0.0679 -0.2167
  131MOL0     C17616   8.074   5.629   8.410  0.0175  0.2115  0.1400
  131MOL0     C17617   8.149   5.747   8.340 -0.2217  0.3506 -0.3254
  131MOL0     H17618   8.422   5.902   8.580  2.4241  0.0939  0.8127
  131MOL0     H17619   8.539   6.047   8.738 -0.4970  0.9788  0.1397
  131MOL0     H17620   8.327   6.285   9.024 -1.3860  0.0166 -0.4581
  131MOL0     H17621   8.369   6.142   9.134  2.7424  0.0490  0.5163
  131MOL0     H17622   8.470   6.359   9.212  0.7840  0.8212 -0.5796
  131MOL0     H17623   8.555   6.355   9.062 -1.2339 -0.4687  0.3487
  131MOL0     H17624   8.690   6.168   9.128  0.1206 -3.5541  0.9357
  131MOL0     H17625   8.579   6.122   9.248 -1.4757 -0.1286 -1.1934
  131MOL0     H17626   8.729   6.384   9.245  0.1817 -1.0547 -1.7685
  131MOL0     H17627   8.621   6.324   9.383  0.1936 -0.6730  0.8501
  131MOL0     H17628   8.763   6.152   9.430 -2.8518  0.4580 -2.6210
  131MOL0     H17629   8.894   6.216   9.313  1.3734  1.7216  0.0810
  131MOL0     H17630   8.877   6.444   9.440  0.7240  1.3505  0.2012
  131MOL0     H17631   8.811   6.364   9.572  0.1136  0.2708 -0.5960
  131MOL0     H17632   9.038   6.391   9.602  0.8347 -2.6981  1.5486
  131MOL0     H17633   9.086   6.317   9.447 -0.7020  0.9084 -0.4131
  131MOL0     H17634   9.007   6.092   9.521  0.5611  0.0253 -1.0348
  131MOL0     H17635   9.121   6.152   9.642  1.6464  0.7662 -1.7268
  131MOL0     H17636   8.998   6.241   9.883  0.1733 -0.6791  1.7772
  131MOL0     H17637   8.825   6.258  10.081  2.4163 -1.1610 -2.6371
  131MOL0     H17638   8.656   6.243  10.007 -1.0091  1.1502  2.9877
  131MOL0     H17639   8.678   6.092  10.197  0.6861 -1.3020  1.2774
  131MOL0     H17640   8.645   6.011  10.063 -1.4594 -1.2099  3.2043
  131MOL0     H17641   8.926   6.051  10.195 -0.3215  0.7385  0.8985
  131MOL0     H17642   8.916   5.957  10.053  1.3908  1.4048  0.0680
  131MOL0     H17643   8.746   5.796  10.150 -0.4744 -0.7653  2.0380
  131MOL0     H17644   8.776   5.869  10.310  1.2080 -2.6554  1.4226
  131MOL0     H17645   9.143   5.659  10.245 -2.9883 -1.0161  0.4093
  131MOL0     H17646   9.345   5.709  10.385  0.3897  0.6586 -2.8550
  131MOL0     H17647   9.648   5.698  10.439 -0.0810 -0.8924 -0.2711
  131MOL0     H17648   9.889   5.730  10.477  3.0829  2.0125  0.7778
  131MOL0     H17649  10.105   5.649  10.709  0.3256  0.2889 -0.8084
  131MOL0     H17650  10.095   5.736  10.559 -2.2340 -3.5007 -0.4584
  131MOL0     H17651  10.214   5.804  10.823 -1.9769 -0.9736 -1.1863
  131MOL0     H17652  10.306   5.717  10.700 -0.4250  0.1611 -2.3947
  131MOL0     H17653  10.396   5.940  10.703  0.7569 -0.5115 -0.1390
  131MOL0     H17654  10.295   5.936  10.558 -0.3030 -0.5623  0.2261
  131MOL0     H17655  10.120   6.033  10.691  0.2640  1.5225  1.9072
  131MOL0     H17656  10.268   6.136  10.661  2.9285 -0.0737  0.7977
  131MOL0     H17657  10.346   6.139  10.861 -0.8316  1.1743  0.6421
  131MOL0     H17658  10.249   5.997  10.921 -1.2343  0.6636  0.9687
  131MOL0     H17659  10.166   6.215  11.017 -2.5255  0.9262  0.5038
  131MOL0     H17660  10.151   6.263  10.848  2.8976 -1.9076 -2.1827
  131MOL0     H17661  10.003   6.031  10.982  1.1801  0.3466 -0.0864
  131MOL0     H17662   9.952   6.119  10.840 -0.6946  1.6170 -0.3562
  131MOL0     H17663   9.955   6.251  11.117 -1.9856  4.4730  0.2694
  131MOL0     H17664   9.927   6.334  10.967 -5.0508  0.8286 -1.6110
  131MOL0     H17665   9.794   5.904  10.864  1.4038 -0.4230 -0.1686
  131MOL0     H17666   9.550   5.872  10.809  0.8323 -2.5777  0.8964
  131MOL0     H17667   9.117   6.046  10.556 -1.4672  0.1148 -0.8981
  131MOL0     H17668   8.938   5.973  10.414  0.0600  0.6316  0.6798
  131MOL0     H17669   8.192   6.107   8.964 -1.7801 -0.3925 -1.2033
  131MOL0     H17670   8.072   5.948   8.845  1.1140 -1.1571  2.2253
  131MOL0     H17671   8.036   5.442   8.691 -2.7731  2.0911  1.2338
  131MOL0     H17672   7.897   5.307   8.545  1.5358 -0.3884  1.1084
  131MOL0     H17673   7.733   5.257   8.368  0.6749  6.3018  1.0004
  131MOL0     H17674   7.897   5.194   8.330  1.0608 -0.9101 -2.1289
  131MOL0     H17675   7.706   5.277   8.107  0.1905 -0.0035 -0.5580
  131MOL0     H17676   7.674   5.122   8.194  0.1792  0.6603  0.5041
  131MOL0     H17677   7.912   5.053   8.125  3.8695  0.0697 -1.9426
  131MOL0     H17678   7.938   5.204   8.048  1.8543 -1.6221  0.7178
  131MOL0     H17679   7.713   5.014   7.960  0.4077 -0.9305  0.5749
  131MOL0     H17680   7.793   5.137   7.862  2.4190  1.7943  0.5907
  131MOL0     H17681   8.041   4.793   7.837 -0.6270 -0.9401  1.1171
  131MOL0     H17682   7.998   5.559   8.218  3.0684 -0.8873 -0.4961
  131MOL0     H17683   8.251   5.763   8.377  0.1252 -4.1107  1.3380
  131MOL0     H17684   8.149   5.741   8.231 -3.4609  0.9590 -0.4403
  131MOL0     H17685   8.097   5.842   8.346 -0.6773  0.0786  0.2206
  132MOL0     O17686   6.992   1.971  10.703  0.9249  0.1918 -0.6552
  132MOL0     C17687   7.073   1.895  10.650  0.3488  0.8172 -0.3151
  132MOL0     O17688   7.076   1.757  10.661 -0.8045 -0.2505  0.6926
  132MOL0     C17689   6.960   1.697  10.680 -0.0431  0.8193 -0.3989
  132MOL0     C17690   6.919   1.654  10.805 -0.1735  0.1063 -0.2659
  132MOL0     C17691   6.798   1.583  10.821  0.1666  1.2323  0.0709
  132MOL0     C17692   6.718   1.554  10.707  0.1403  0.8061  0.7421
  132MOL0     O17693   6.604   1.484  10.700  0.2850  0.6169 -0.1213
  132MOL0     C17694   6.531   1.493  10.827 -0.6332 -0.4573 -0.0872
  132MOL0     C17695   6.389   1.418  10.820 -0.2243  0.0071 -0.0924
  132MOL0     C17696   6.410   1.273  10.767  0.3573 -0.4242  0.4518
  132MOL0     C17697   6.284   1.193  10.756 -0.4488 -1.3261  0.3171
  132MOL0     C17698   6.317   1.057  10.702  0.2275  0.1317  0.3512
  132MOL0     C17699   6.209   0.964  10.658  0.4710 -0.2792 -0.3434
  132MOL0     C17700   6.260   0.831  10.648 -0.5681 -0.2598 -0.1203
  132MOL0     C17701   6.152   0.738  10.591  0.2798 -0.0421 -0.0312
  132MOL0     N17702   6.212   0.611  10.576 -0.1113  0.7811 -0.8240
  132MOL0     C17703   6.241   0.543  10.687  0.2195 -0.6226 -0.4877
  132MOL0     C17704   6.287   0.419  10.644  0.9973  0.0544 -0.6631
  132MOL0     C17705   6.343   0.321  10.738 -0.3760 -0.0054 -0.0507
  132MOL0     C17706   6.481   0.357  10.784  0.4496  0.0371  0.4629
  132MOL0     C17707   6.491   0.329  10.937  0.5454 -0.5256 -0.4607
  132MOL0     C17708   6.640   0.295  10.980  0.0918  0.4125 -0.2549
  132MOL0     O17709   6.727   0.405  10.951  0.1391 -0.1682  0.2110
  132MOL0     C17710   6.758   0.496  11.042  1.3103  0.9493 -0.6282
  132MOL0     C17711   6.870   0.573  11.013 -0.8901  0.5687  0.0727
  132MOL0     C17712   6.905   0.684  11.098  0.7031 -0.7951  0.4927
  132MOL0     C17713   6.833   0.716  11.214  0.0261  0.3762 -0.3541
  132MOL0     C17714   6.881   0.823  11.292 -0.7103  1.4834 -0.0047
  132MOL0     O17715   7.010   0.870  11.262  0.7210 -0.1110  0.6459
  132MOL0     C17716   7.082   0.965  11.326  0.1377 -0.3074  1.1138
  132MOL0     C17717   7.213   0.984  11.271  0.7608 -0.8867  0.3535
  132MOL0     C17718   7.296   1.093  11.324  0.2808 -0.5076 -0.6219
  132MOL0     C17719   7.251   1.171  11.429  1.2276 -0.4791 -1.2397
  132MOL0     O17720   7.325   1.281  11.465  0.1299 -0.0236  0.3855
  132MOL0     C17721   7.256   1.381  11.557 -0.2988  1.0382  0.2363
  132MOL0     C17722   7.357   1.487  11.596 -0.2182 -0.4638 -0.1280
  132MOL0     C17723   7.411   1.567  11.475  0.2017  0.6561 -0.4117
  132MOL0     C17724   7.532   1.648  11.522 -0.1051  0.8008 -0.3427
  132MOL0     C17725   7.576   1.747  11.410 -0.5242 -0.4314 -0.2180
  132MOL0     C17726   7.706   1.809  11.454 -0.8261  1.0832  0.7161
  132MOL0     C17727   7.766   1.904  11.345  0.4066  0.2214 -0.2945
  132MOL0     C17728   7.782   1.828  11.212 -0.4126 -0.1637  1.2906
  132MOL0    Cl17729   7.879   1.915  11.091  0.2371 -0.0489 -0.1617
  132MOL0     C17730   7.126   1.131  11.490 -0.6014 -0.3676 -0.5011
  132MOL0     C17731   7.040   1.040  11.434 -0.5873 -0.1534 -0.3639
  132MOL0     O17732   6.811   0.864  11.385  0.2702 -0.5537 -0.0785
  132MOL0     C17733   6.714   0.636  11.235  0.4164 -0.1287  0.0105
  132MOL0     C17734   6.681   0.524  11.157  0.1678 -0.5860  0.7512
  132MOL0     N17735   6.269   0.418  10.504  0.9572 -0.0965 -0.2601
  132MOL0     N17736   6.221   0.531  10.467 -0.0191  0.4057 -0.0660
  132MOL0     C17737   6.765   1.595  10.578 -0.1581 -0.5051  0.2617
  132MOL0     C17738   6.884   1.663  10.565  0.0002 -1.0882  0.0922
  132MOL0     C17739   7.179   1.958  10.568  0.4896  0.4875 -0.3551
  132MOL0     C17740   7.219   1.886  10.460 -0.4411  0.7536 -0.6140
  132MOL0     C17741   7.323   1.938  10.375 -0.5603  0.3930  0.3626
  132MOL0     C17742   7.389   2.047  10.408 -0.2338 -0.0771 -0.5804
  132MOL0     O17743   7.493   2.095  10.332 -0.3126  0.6395  0.0097
  132MOL0     C17744   7.525   2.242  10.322  0.0554  0.1760  0.8435
  132MOL0     C17745   7.642   2.274  10.226 -1.2716 -0.4517 -0.6266
  132MOL0     C17746   7.762   2.193  10.283  0.0566  0.1742 -0.8899
  132MOL0     C17747   7.874   2.171  10.187 -0.4456  0.1644  0.1919
  132MOL0     C17748   7.964   2.290  10.193 -0.5060 -0.5095  0.2242
  132MOL0     C17749   8.031   2.393  10.184  0.6494 -0.0555  0.7047
  132MOL0     C17750   7.337   2.123  10.517 -0.1545  0.2346 -0.9451
  132MOL0     C17751   7.234   2.084  10.599 -1.4739  0.0722 -0.3403
  132MOL0     C17752   7.193   2.166  10.719  1.1168 -0.8016  0.2069
  132MOL0     H17753   6.975   1.693  10.890  1.0793 -2.9706  0.4395
  132MOL0     H17754   6.773   1.549  10.921  2.9100 -1.2864  0.0127
  132MOL0     H17755   6.594   1.448  10.904  3.5470  1.1045 -2.2804
  132MOL0     H17756   6.507   1.598  10.845 -0.8477 -0.2765 -1.2993
  132MOL0     H17757   6.317   1.478  10.763 -1.4901 -1.4664 -0.1237
  132MOL0     H17758   6.339   1.412  10.918  1.6373  1.3674  1.0155
  132MOL0     H17759   6.468   1.213  10.838 -2.5405 -2.4124  1.3485
  132MOL0     H17760   6.460   1.273  10.670 -0.7095  2.8100 -0.2111
  132MOL0     H17761   6.236   1.187  10.855 -3.6081  1.2647 -0.8414
  132MOL0     H17762   6.204   1.241  10.699  0.1709  0.5570  0.9447
  132MOL0     H17763   6.388   1.064  10.619 -0.8818 -2.2612 -0.9269
  132MOL0     H17764   6.366   1.017  10.791 -0.8035 -0.0900  0.8345
  132MOL0     H17765   6.123   0.962  10.726 -1.1936 -2.5190 -2.3313
  132MOL0     H17766   6.166   0.999  10.564  1.9580 -0.1706 -1.0108
  132MOL0     H17767   6.284   0.792  10.748 -0.7744 -0.4195 -0.1317
  132MOL0     H17768   6.352   0.821  10.591  0.3394  0.5379  1.1284
  132MOL0     H17769   6.065   0.728  10.656 -0.8639  0.1824 -1.4748
  132MOL0     H17770   6.108   0.764  10.494 -2.3429 -0.2201  1.0225
  132MOL0     H17771   6.241   0.554  10.795 -1.6212 -2.6620 -0.2320
  132MOL0     H17772   6.271   0.305  10.819  1.3253 -1.6744  1.2299
  132MOL0     H17773   6.357   0.230  10.678 -0.7484 -0.5899  0.7321
  132MOL0     H17774   6.549   0.302  10.718 -0.3153 -0.7829  0.3363
  132MOL0     H17775   6.499   0.464  10.773 -1.1017  0.2498 -0.4248
  132MOL0     H17776   6.422   0.249  10.966 -1.3727  0.4912 -2.0346
  132MOL0     H17777   6.453   0.418  10.988  2.9278 -0.2283  0.9843
  132MOL0     H17778   6.668   0.203  10.929 -1.1075 -0.9938  1.5088
  132MOL0     H17779   6.648   0.261  11.083 -1.8158  0.2669 -0.1170
  132MOL0     H17780   6.931   0.557  10.924  0.5755  1.3103  0.9080
  132MOL0     H17781   6.978   0.755  11.059 -0.4878 -0.2175 -0.7828
  132MOL0     H17782   7.252   0.927  11.188  2.0718  1.8867 -1.0941
  132MOL0     H17783   7.392   1.115  11.279  1.9202 -0.8923  2.3896
  132MOL0     H17784   7.178   1.425  11.494 -0.9571 -2.4277 -1.6127
  132MOL0     H17785   7.216   1.329  11.644 -1.6481 -1.6386 -1.8256
  132MOL0     H17786   7.301   1.558  11.658 -0.0556 -1.4423  1.1676
  132MOL0     H17787   7.438   1.438  11.651 -0.1112  2.9342  3.1137
  132MOL0     H17788   7.438   1.500  11.392  0.1867 -0.3840  0.3958
  132MOL0     H17789   7.332   1.639  11.452 -1.2682 -0.9482 -0.5881
  132MOL0     H17790   7.599   1.567  11.550 -0.5040  0.5314 -0.1651
  132MOL0     H17791   7.508   1.708  11.610 -2.3759  1.4592 -1.3367
  132MOL0     H17792   7.491   1.814  11.399 -0.8673 -0.6437  0.9926
  132MOL0     H17793   7.581   1.687  11.318  0.7299  1.1374 -1.2226
  132MOL0     H17794   7.695   1.867  11.546 -1.6706 -1.0714  2.0464
  132MOL0     H17795   7.776   1.728  11.476 -1.4978  0.3050  0.0463
  132MOL0     H17796   7.869   1.918  11.379  0.6821  0.4835 -1.2058
  132MOL0     H17797   7.720   2.003  11.337 -1.1388 -0.4387  0.1150
  132MOL0     H17798   7.817   1.727  11.236  2.6538  1.0570  2.4722
  132MOL0     H17799   7.685   1.815  11.162  0.7366  0.6367 -1.3305
  132MOL0     H17800   7.091   1.185  11.577  0.1259 -1.0006  0.2000
  132MOL0     H17801   6.948   1.037  11.491  1.4095 -2.4015  3.1591
  132MOL0     H17802   6.646   0.661  11.315  0.1537 -0.7000 -0.0320
  132MOL0     H17803   6.591   0.466  11.178  0.2726 -0.7637  0.7105
  132MOL0     H17804   6.697   1.570  10.498  4.3289 -1.5644 -3.6972
  132MOL0     H17805   6.929   1.686  10.470  3.5239 -1.9218  1.3917
  132MOL0     H17806   7.154   1.804  10.431 -2.0757  1.5493  0.6098
  132MOL0     H17807   7.366   1.878  10.295  0.0980 -1.8241  2.2755
  132MOL0     H17808   7.547   2.285  10.420 -1.8639 -0.0807  1.4217
  132MOL0     H17809   7.433   2.288  10.285  0.1208 -1.2818 -1.3046
  132MOL0     H17810   7.675   2.378  10.239  0.8978 -1.0032 -1.3003
  132MOL0     H17811   7.625   2.260  10.119 -0.3440  2.0692 -1.1722
  132MOL0     H17812   7.726   2.095  10.316 -0.2856  0.1536 -1.3185
  132MOL0     H17813   7.799   2.245  10.372  1.1074  2.1187 -2.3794
  132MOL0     H17814   7.941   2.088  10.210  1.6964  1.3601 -1.3419
  132MOL0     H17815   7.840   2.154  10.084 -0.4577 -0.8447  0.3461
  132MOL0     H17816   8.085   2.483  10.165  2.1776 -1.2328 -0.7615
  132MOL0     H17817   7.384   2.218  10.541  0.9049 -0.4296 -0.3073
  132MOL0     H17818   7.106   2.223  10.686 -0.2815 -1.6506  2.1901
  132MOL0     H17819   7.169   2.098  10.802  1.3120  1.2813  2.0397
  132MOL0     H17820   7.274   2.226  10.760  0.7888 -0.2107  0.0011
  133MOL0     O17821   1.600   2.595   6.504 -0.1361 -0.1793  0.1838
  133MOL0     C17822   1.548   2.679   6.431  0.2177 -0.2313  0.2923
  133MOL0     O17823   1.528   2.672   6.292  0.2127  0.1026  0.1325
  133MOL0     C17824   1.542   2.561   6.217 -0.7873 -0.8025  0.3701
  133MOL0     C17825   1.668   2.497   6.184 -0.3066 -0.1870  1.5521
  133MOL0     C17826   1.665   2.398   6.085  0.1531  0.6903 -0.1627
  133MOL0     C17827   1.539   2.351   6.027  0.2622  0.2339  0.6450
  133MOL0     O17828   1.529   2.265   5.922  0.4524 -0.4296  0.0281
  133MOL0     C17829   1.655   2.207   5.871  1.1962  1.1625 -0.1592
  133MOL0     C17830   1.714   2.093   5.962 -0.2805  0.4139  0.0524
  133MOL0     C17831   1.613   1.986   5.988  0.8001  0.4874  0.0394
  133MOL0     C17832   1.685   1.870   6.052 -0.6542  0.8754  0.0305
  133MOL0     C17833   1.588   1.752   6.082 -0.0588  0.1665 -1.0429
  133MOL0     C17834   1.682   1.624   6.112 -0.1142 -0.5528 -0.0242
  133MOL0     C17835   1.615   1.531   6.217 -0.4306  1.2515 -0.6185
  133MOL0     C17836   1.469   1.497   6.178 -0.1362  0.4862  0.4798
  133MOL0     N17837   1.469   1.416   6.052  0.4161  0.3112 -0.0273
  133MOL0     C17838   1.446   1.454   5.920 -0.2298  0.3310 -0.1871
  133MOL0     C17839   1.489   1.346   5.849 -0.3170  0.7575  0.7943
  133MOL0     C17840   1.511   1.322   5.704  0.0067  0.0740  1.0893
  133MOL0     C17841   1.368   1.336   5.642  0.2388  0.5138  0.7713
  133MOL0     C17842   1.358   1.300   5.492  0.1263 -0.2941 -0.8373
  133MOL0     C17843   1.215   1.308   5.450 -1.0236 -1.1948 -0.5209
  133MOL0     O17844   1.185   1.451   5.448 -0.8974  0.1298 -0.2186
  133MOL0     C17845   1.080   1.489   5.369  0.9375  0.2676  0.3508
  133MOL0     C17846   1.073   1.616   5.304  0.8906 -0.1243 -0.0700
  133MOL0     C17847   0.974   1.652   5.218  0.7264 -0.1010  0.1277
  133MOL0     C17848   0.856   1.570   5.202 -1.0005 -0.2313  1.3470
  133MOL0     C17849   0.750   1.623   5.116 -0.4379 -0.6640  1.1093
  133MOL0     O17850   0.784   1.704   5.015  0.5754 -0.1362 -0.3711
  133MOL0     C17851   0.688   1.753   4.924  0.3013  0.1598  0.3995
  133MOL0     C17852   0.716   1.739   4.780  0.5095 -0.3254 -0.1998
  133MOL0     C17853   0.623   1.792   4.688 -0.3056 -0.2210 -0.0589
  133MOL0     C17854   0.509   1.855   4.740 -0.8382 -0.1844 -0.3381
  133MOL0     O17855   0.415   1.918   4.664 -0.3965  0.7798 -0.1007
  133MOL0     C17856   0.454   2.010   4.567 -0.4460  0.1550  0.0893
  133MOL0     C17857   0.327   2.023   4.480 -0.4753  0.2957 -1.0647
  133MOL0     C17858   0.247   2.147   4.500 -0.2940 -0.3359  0.8040
  133MOL0     C17859   0.149   2.124   4.622 -0.1708 -0.5114  0.4859
  133MOL0     C17860   0.103   2.270   4.655  0.3146 -0.1099  0.1592
  133MOL0     C17861   0.001   2.282   4.776  0.1759 -0.4552 -0.3353
  133MOL0     C17862   0.073   2.264   4.904  0.1102  0.0574  0.5975
  133MOL0     C17863  -0.025   2.290   5.020 -0.8958 -0.4795 -0.4467
  133MOL0    Cl17864  -0.167   2.176   5.034 -0.1879  0.4287 -0.2635
  133MOL0     C17865   0.481   1.858   4.873 -0.4167 -0.8951 -0.9846
  133MOL0     C17866   0.564   1.800   4.962 -0.6261  0.2099 -0.1019
  133MOL0     O17867   0.641   1.575   5.120 -0.4628 -0.0660 -0.4851
  133MOL0     C17868   0.853   1.450   5.267 -0.6146 -0.2114  0.1002
  133MOL0     C17869   0.961   1.404   5.347 -1.1061 -0.1211  0.1942
  133MOL0     N17870   1.546   1.247   5.932  0.1527  0.2380  0.5639
  133MOL0     N17871   1.525   1.286   6.052 -0.1256 -0.1573 -0.0046
  133MOL0     C17872   1.422   2.401   6.070 -0.0668 -0.3651  0.2378
  133MOL0     C17873   1.420   2.510   6.165 -1.9380 -0.3629  0.1083
  133MOL0     C17874   1.524   2.813   6.487  0.3898  0.4307 -0.2232
  133MOL0     C17875   1.559   2.920   6.409  1.1640 -0.5127  0.1350
  133MOL0     C17876   1.528   3.056   6.446  1.4039  0.3406  0.3469
  133MOL0     C17877   1.460   3.079   6.569 -0.4781 -0.0813 -0.8359
  133MOL0     O17878   1.415   3.212   6.581  0.0042 -0.4090 -0.4275
  133MOL0     C17879   1.332   3.242   6.696  0.2530 -1.2750 -0.3569
  133MOL0     C17880   1.297   3.396   6.708  0.2922  0.8596 -0.6817
  133MOL0     C17881   1.185   3.431   6.819  0.1968  0.5003  0.3140
  133MOL0     C17882   1.158   3.582   6.833  0.3664 -0.0098  1.0220
  133MOL0     C17883   1.278   3.655   6.877  0.1407 -0.5246  0.1354
  133MOL0     C17884   1.381   3.714   6.901 -0.7893  0.9983  1.2361
  133MOL0     C17885   1.434   2.966   6.649 -0.1099  0.6000 -0.2920
  133MOL0     C17886   1.460   2.834   6.609  0.0264  0.2698 -0.0759
  133MOL0     C17887   1.413   2.722   6.704 -0.0648 -0.4093 -0.6810
  133MOL0     H17888   1.767   2.533   6.208  0.2060  0.9605 -1.7660
  133MOL0     H17889   1.765   2.365   6.059  0.6848  1.8675  0.3086
  133MOL0     H17890   1.636   2.166   5.771  0.9407  2.7941 -0.8040
  133MOL0     H17891   1.724   2.287   5.843  0.3691  1.3382 -1.8518
  133MOL0     H17892   1.732   2.141   6.058 -0.9888  3.6372 -1.2896
  133MOL0     H17893   1.808   2.058   5.917  0.1140  2.2495 -0.6483
  133MOL0     H17894   1.549   1.962   5.903 -0.8274  1.5111  0.9338
  133MOL0     H17895   1.540   2.028   6.058 -0.5570  0.5013 -1.3316
  133MOL0     H17896   1.768   1.846   5.984 -1.2940 -3.8415  0.5740
  133MOL0     H17897   1.734   1.899   6.144  1.8516 -3.4355  0.3203
  133MOL0     H17898   1.531   1.781   6.171  0.9099 -0.9490 -0.0284
  133MOL0     H17899   1.517   1.734   6.001  1.5137 -0.2287 -2.3723
  133MOL0     H17900   1.700   1.570   6.018  0.4298  0.5488 -0.5719
  133MOL0     H17901   1.778   1.651   6.156  0.5969 -3.1912  0.2516
  133MOL0     H17902   1.610   1.586   6.311 -1.9748  2.1015 -1.1595
  133MOL0     H17903   1.676   1.442   6.230 -0.4313  0.7987 -3.1174
  133MOL0     H17904   1.430   1.436   6.260  2.0482 -2.8746 -0.7530
  133MOL0     H17905   1.407   1.584   6.156 -0.6353  0.2642  0.9854
  133MOL0     H17906   1.431   1.550   5.873 -0.8470 -0.9109 -2.7023
  133MOL0     H17907   1.570   1.395   5.648 -0.5155  1.6173  2.4503
  133MOL0     H17908   1.562   1.228   5.684 -0.0646  0.3587 -0.6593
  133MOL0     H17909   1.291   1.280   5.695 -2.3945  1.3439 -1.9309
  133MOL0     H17910   1.349   1.443   5.652  2.8819  1.2780 -1.1847
  133MOL0     H17911   1.402   1.200   5.489  0.6693 -0.0988  0.0142
  133MOL0     H17912   1.416   1.372   5.434 -0.7141  1.3551  0.2679
  133MOL0     H17913   1.149   1.257   5.522  0.7358 -0.6359  1.5992
  133MOL0     H17914   1.205   1.281   5.344  1.3318 -0.4628 -0.9759
  133MOL0     H17915   1.151   1.691   5.312 -2.1313  3.5576 -1.8547
  133MOL0     H17916   0.970   1.749   5.170 -1.6749  0.5555  1.4983
  133MOL0     H17917   0.804   1.684   4.747 -1.9324 -5.4657  0.7672
  133MOL0     H17918   0.644   1.788   4.581 -0.8347 -0.5159 -0.1575
  133MOL0     H17919   0.474   2.107   4.616 -0.2108 -0.2035  0.7225
  133MOL0     H17920   0.538   1.987   4.501 -0.0642 -1.0259  0.9577
  133MOL0     H17921   0.356   2.017   4.375 -0.3264 -1.9978 -0.9436
  133MOL0     H17922   0.261   1.937   4.492  0.1068  0.1405  1.6030
  133MOL0     H17923   0.323   2.222   4.526 -2.0868  1.5032  1.0171
  133MOL0     H17924   0.193   2.176   4.410  3.0201 -1.7986 -1.8482
  133MOL0     H17925   0.182   2.059   4.703 -3.0192 -0.6233  1.6736
  133MOL0     H17926   0.064   2.064   4.589  0.1246  1.2685 -4.2891
  133MOL0     H17927   0.048   2.298   4.565  2.6488 -0.9878 -1.6742
  133MOL0     H17928   0.196   2.326   4.674  0.1974  0.6710 -1.4015
  133MOL0     H17929  -0.040   2.383   4.776 -0.2466 -0.6090  0.6944
  133MOL0     H17930  -0.085   2.214   4.768  1.9294 -2.9610  0.5219
  133MOL0     H17931   0.149   2.341   4.917 -2.5805  3.3671 -1.4031
  133MOL0     H17932   0.111   2.162   4.905 -0.8188 -0.2906  0.8051
  133MOL0     H17933   0.037   2.292   5.111  0.6848  2.1966 -1.4788
  133MOL0     H17934  -0.072   2.388   5.018 -2.1361 -1.0048  0.9520
  133MOL0     H17935   0.390   1.904   4.911 -1.3927 -2.9601 -0.7038
  133MOL0     H17936   0.536   1.796   5.067  2.9563 -3.0517  0.9603
  133MOL0     H17937   0.760   1.394   5.262 -0.6551 -0.2215  0.8648
  133MOL0     H17938   0.947   1.318   5.412 -1.0779  2.1589  3.4898
  133MOL0     H17939   1.328   2.379   6.021 -2.0355  3.7024  1.6791
  133MOL0     H17940   1.323   2.554   6.187 -0.6505  2.6621  0.1459
  133MOL0     H17941   1.603   2.907   6.311 -0.4485 -0.1375 -0.6735
  133MOL0     H17942   1.554   3.134   6.376 -0.6839  0.2427 -0.6065
  133MOL0     H17943   1.392   3.209   6.781  3.1309  1.5357 -1.1170
  133MOL0     H17944   1.241   3.181   6.699  0.1275 -1.0463  1.8134
  133MOL0     H17945   1.277   3.442   6.611  0.0603  1.5515 -0.3092
  133MOL0     H17946   1.388   3.448   6.737  2.0364 -1.2696 -2.0280
  133MOL0     H17947   1.220   3.389   6.914  1.5791 -0.5314 -0.6107
  133MOL0     H17948   1.094   3.378   6.792  2.6523 -2.4156 -3.1270
  133MOL0     H17949   1.119   3.612   6.736  0.6309 -1.5092  0.4281
  133MOL0     H17950   1.080   3.587   6.910 -1.3885 -2.3476 -0.4514
  133MOL0     H17951   1.476   3.762   6.913 -0.0265 -0.6367  2.2066
  133MOL0     H17952   1.394   2.980   6.749 -0.6237  2.9127 -0.7687
  133MOL0     H17953   1.333   2.763   6.766  0.5503  1.2827 -0.9630
  133MOL0     H17954   1.379   2.633   6.650 -1.0757  0.6833 -1.9195
  133MOL0     H17955   1.494   2.706   6.775  1.0989  0.3598 -1.8070
  134MOL0     O17956   3.941   1.120   7.303  0.4743  0.0594 -0.9459
  134MOL0     C17957   3.851   1.099   7.380  0.4082 -0.0736  1.0149
  134MOL0     O17958   3.849   1.133   7.512 -0.0982 -0.1138 -0.3898
  134MOL0     C17959   3.968   1.146   7.577  0.0994 -0.6695 -0.7073
  134MOL0     C17960   4.027   1.035   7.624 -0.0874  0.6690  0.3369
  134MOL0     C17961   4.154   1.044   7.691 -0.5578  0.7256  1.0067
  134MOL0     C17962   4.209   1.165   7.720 -0.4312  0.6373 -0.6316
  134MOL0     O17963   4.335   1.170   7.778  0.2729  0.0993  0.0208
  134MOL0     C17964   4.388   1.293   7.807  0.4163 -0.6794  0.1619
  134MOL0     C17965   4.523   1.278   7.883 -0.0238  0.4387  0.0865
  134MOL0     C17966   4.540   1.151   7.970 -0.6977 -0.3397  0.4271
  134MOL0     C17967   4.656   1.162   8.064  0.4462 -0.1007 -0.0124
  134MOL0     C17968   4.678   1.041   8.148 -0.2040  0.5118  0.0337
  134MOL0     C17969   4.823   1.047   8.205 -0.3300 -0.2567 -0.2048
  134MOL0     C17970   4.882   0.904   8.235  0.8560 -0.4681 -0.1765
  134MOL0     C17971   5.040   0.913   8.256 -0.9711  0.3480 -0.2148
  134MOL0     N17972   5.089   0.792   8.315  0.2760  0.4464  1.2019
  134MOL0     C17973   5.084   0.747   8.440 -0.2833 -0.8780  0.6540
  134MOL0     C17974   5.147   0.624   8.438 -0.0478 -0.1687  1.1862
  134MOL0     C17975   5.173   0.531   8.558 -0.5627  0.4555  0.3613
  134MOL0     C17976   5.050   0.439   8.579  0.0488 -0.9732  0.6757
  134MOL0     C17977   4.923   0.510   8.621 -0.7113  0.0222  0.1468
  134MOL0     C17978   4.826   0.410   8.656  0.3982 -0.5567 -0.4241
  134MOL0     O17979   4.717   0.468   8.727  0.6760 -0.3164  0.6059
  134MOL0     C17980   4.618   0.382   8.755  0.0263  0.2250 -0.3217
  134MOL0     C17981   4.492   0.433   8.777  0.3790  0.2628 -0.4217
  134MOL0     C17982   4.384   0.349   8.809 -0.0823 -0.2458  0.6686
  134MOL0     C17983   4.406   0.217   8.819 -0.4400  1.1132  0.9467
  134MOL0     C17984   4.288   0.129   8.847 -0.1288 -0.2439  0.4555
  134MOL0     O17985   4.296   0.007   8.783  0.0292 -0.2013  0.2170
  134MOL0     C17986   4.207  -0.092   8.818  0.1686  0.6932 -0.3955
  134MOL0     C17987   4.233  -0.168   8.938  0.0567  0.2464  0.2853
  134MOL0     C17988   4.150  -0.274   8.967  0.4635 -0.0733 -0.9637
  134MOL0     C17989   4.039  -0.306   8.892  1.1712 -0.4331  0.0041
  134MOL0     O17990   3.971  -0.416   8.947  0.1739  0.3181  0.5123
  134MOL0     C17991   3.830  -0.417   8.941  0.6729 -0.3846  0.7538
  134MOL0     C17992   3.778  -0.555   8.973  0.0781  0.6003 -0.1273
  134MOL0     C17993   3.856  -0.663   8.910  0.2318  0.2490  0.3268
  134MOL0     C17994   3.807  -0.800   8.959 -0.3716 -0.3760  0.1877
  134MOL0     C17995   3.896  -0.904   8.888  0.1868  0.1078 -0.4683
  134MOL0     C17996   3.843  -1.045   8.905  0.8126  0.1935  0.0210
  134MOL0     C17997   3.914  -1.142   8.807 -0.3927 -0.3474 -0.7161
  134MOL0     C17998   3.843  -1.269   8.805 -1.1461  0.6677  0.1138
  134MOL0    Cl17999   3.898  -1.382   8.942 -0.0911 -0.7989 -0.4546
  134MOL0     C18000   4.005  -0.242   8.776  0.4603 -0.7814 -0.3722
  134MOL0     C18001   4.092  -0.130   8.737 -0.5148 -0.2847  0.6775
  134MOL0     O18002   4.187   0.175   8.902 -0.3810 -0.0100  0.7985
  134MOL0     C18003   4.528   0.157   8.800 -2.2884 -0.5322  0.1431
  134MOL0     C18004   4.631   0.236   8.745  0.2549 -0.0033 -0.1471
  134MOL0     N18005   5.164   0.588   8.302 -0.5438 -1.1053  0.5195
  134MOL0     N18006   5.131   0.693   8.228 -0.4093  0.3044 -0.7619
  134MOL0     C18007   4.135   1.284   7.687  0.0014  0.1186  0.3247
  134MOL0     C18008   4.018   1.271   7.619  0.5507  0.5798 -0.1197
  134MOL0     C18009   3.732   1.026   7.336 -0.2509  0.5222  0.2354
  134MOL0     C18010   3.644   0.987   7.443  0.6676  0.2415  0.0224
  134MOL0     C18011   3.533   0.905   7.412  0.2922 -0.0491  0.4733
  134MOL0     C18012   3.516   0.861   7.287  0.5031 -0.0913 -0.1488
  134MOL0     O18013   3.412   0.769   7.268 -0.8215  0.0049 -0.8302
  134MOL0     C18014   3.346   0.756   7.138 -0.4677 -0.2871 -0.7747
  134MOL0     C18015   3.362   0.612   7.082  0.7586 -0.3958 -0.2601
  134MOL0     C18016   3.468   0.582   6.980  0.0767  0.1596  0.3362
  134MOL0     C18017   3.417   0.601   6.835  0.3237 -0.4778 -0.9939
  134MOL0     C18018   3.385   0.742   6.809  0.0449 -0.1517  0.0731
  134MOL0     C18019   3.370   0.860   6.793  0.0362 -0.0044  0.6702
  134MOL0     C18020   3.594   0.902   7.177 -0.0137 -0.4119 -0.9946
  134MOL0     C18021   3.714   0.974   7.198 -0.1112 -0.4997  0.3791
  134MOL0     C18022   3.800   0.996   7.080  0.8702 -0.1042  0.6288
  134MOL0     H18023   3.990   0.935   7.606 -0.9241  1.2250 -1.1553
  134MOL0     H18024   4.186   0.954   7.744 -0.8142 -0.9420 -1.5038
  134MOL0     H18025   4.396   1.361   7.722  1.7066  0.3579  1.0587
  134MOL0     H18026   4.329   1.336   7.888  1.7628  2.5633 -0.4500
  134MOL0     H18027   4.538   1.363   7.951 -0.3713 -0.5698  1.4797
  134MOL0     H18028   4.597   1.284   7.804 -1.8017  0.1561 -1.6843
  134MOL0     H18029   4.550   1.062   7.907 -2.1059 -1.8220  2.1900
  134MOL0     H18030   4.445   1.133   8.021 -0.0932  1.0880  2.1583
  134MOL0     H18031   4.746   1.186   8.008 -0.7582  2.5548 -0.9772
  134MOL0     H18032   4.638   1.242   8.137  1.5790  1.1051 -1.0060
  134MOL0     H18033   4.603   1.034   8.227  1.7778 -3.8841  1.8745
  134MOL0     H18034   4.673   0.956   8.079 -4.1735  0.9930 -0.4951
  134MOL0     H18035   4.892   1.093   8.134 -2.4069  0.5269 -1.8255
  134MOL0     H18036   4.837   1.102   8.298 -1.8191 -1.8960  1.0383
  134MOL0     H18037   4.858   0.832   8.156  1.3812 -0.4983 -0.3151
  134MOL0     H18038   4.843   0.861   8.327  1.3593 -0.5040  0.0235
  134MOL0     H18039   5.086   0.937   8.160  0.8961 -4.1178 -0.6580
  134MOL0     H18040   5.066   0.994   8.325  2.7517 -0.9394  0.1466
  134MOL0     H18041   5.045   0.801   8.526 -0.3433 -2.6667  1.7976
  134MOL0     H18042   5.262   0.470   8.541 -0.5284  0.2409  1.2849
  134MOL0     H18043   5.188   0.596   8.645  1.0678 -0.3890  0.7491
  134MOL0     H18044   5.032   0.400   8.478 -1.7850  3.1372 -0.8019
  134MOL0     H18045   5.072   0.363   8.655 -1.9663 -4.8762 -2.2238
  134MOL0     H18046   4.864   0.579   8.559  0.0310  0.8533  0.3451
  134MOL0     H18047   4.939   0.575   8.708 -1.3395  1.3739 -0.7019
  134MOL0     H18048   4.874   0.338   8.724  1.9150  1.4570  0.7373
  134MOL0     H18049   4.794   0.358   8.565  0.4034 -2.5768  0.6481
  134MOL0     H18050   4.480   0.541   8.764  1.1747  0.0978 -3.0997
  134MOL0     H18051   4.297   0.392   8.855  1.3113  1.2038  2.0693
  134MOL0     H18052   4.333  -0.158   8.979  1.2308  0.2101 -2.3228
  134MOL0     H18053   4.160  -0.331   9.058  1.5777  0.7901 -0.5281
  134MOL0     H18054   3.792  -0.342   9.011  0.4674  0.1618  0.0704
  134MOL0     H18055   3.788  -0.400   8.841 -0.1254 -3.3340  0.4908
  134MOL0     H18056   3.792  -0.569   9.081 -2.9611  1.2063  0.4420
  134MOL0     H18057   3.673  -0.555   8.943 -1.4050 -1.3807  4.1445
  134MOL0     H18058   3.862  -0.646   8.802  5.0465  3.1551  0.7635
  134MOL0     H18059   3.962  -0.669   8.938  1.0912 -0.3176 -2.7253
  134MOL0     H18060   3.698  -0.807   8.952 -0.2794 -0.8014 -1.1713
  134MOL0     H18061   3.836  -0.793   9.064  1.2035  0.2594 -0.2545
  134MOL0     H18062   3.997  -0.909   8.931 -0.0126  0.4275  0.0504
  134MOL0     H18063   3.895  -0.863   8.787 -1.7610  1.0871 -0.1033
  134MOL0     H18064   3.844  -1.088   9.006 -3.9800 -1.8194 -0.5172
  134MOL0     H18065   3.738  -1.030   8.877  1.4959  1.3643 -2.1263
  134MOL0     H18066   4.019  -1.142   8.840 -0.2640  1.4348 -1.0182
  134MOL0     H18067   3.914  -1.102   8.705 -1.4299  0.8443 -0.2721
  134MOL0     H18068   3.738  -1.242   8.818 -1.5433 -0.9999  0.6493
  134MOL0     H18069   3.872  -1.320   8.712  2.5587 -2.2380  2.5149
  134MOL0     H18070   3.920  -0.267   8.713  0.9984 -1.7555 -0.7398
  134MOL0     H18071   4.068  -0.079   8.645 -2.1548 -1.6640  0.2913
  134MOL0     H18072   4.568   0.061   8.830  2.9788  0.1682 -3.3245
  134MOL0     H18073   4.727   0.193   8.717  1.0552  1.2815  0.4881
  134MOL0     H18074   4.166   1.384   7.716  0.7305  0.5336 -1.7173
  134MOL0     H18075   3.950   1.352   7.595 -0.2328  0.2325  0.8372
  134MOL0     H18076   3.668   1.001   7.548 -0.0724 -0.6790  0.3305
  134MOL0     H18077   3.464   0.865   7.486  2.1384 -0.4814  2.0570
  134MOL0     H18078   3.382   0.820   7.057  0.6344 -0.0053 -0.0765
  134MOL0     H18079   3.241   0.777   7.161 -0.6602 -2.2347  0.3241
  134MOL0     H18080   3.263   0.596   7.039  0.0628  1.0754  0.6782
  134MOL0     H18081   3.380   0.553   7.173  2.9552 -1.3818 -1.2816
  134MOL0     H18082   3.507   0.481   6.992  0.7047  0.3943  0.2951
  134MOL0     H18083   3.551   0.652   6.992  1.4204 -1.1413 -1.1368
  134MOL0     H18084   3.490   0.565   6.762  2.2777  1.4654 -0.1103
  134MOL0     H18085   3.324   0.547   6.813 -1.8063  1.9643  1.3084
  134MOL0     H18086   3.377   0.967   6.798  3.4849 -0.1706  2.4480
  134MOL0     H18087   3.585   0.848   7.083 -1.0539  0.8704 -1.6568
  134MOL0     H18088   3.756   0.971   6.982 -1.6721 -0.7867  1.8552
  134MOL0     H18089   3.817   1.104   7.081  0.5213 -0.0478  0.6483
  134MOL0     H18090   3.897   0.950   7.102  0.7448  0.5645  2.7433
  135MOL0     O18091   3.069   9.814   8.705  0.2091  0.4767 -0.4064
  135MOL0     C18092   2.953   9.804   8.735 -0.1646  0.3997 -0.1360
  135MOL0     O18093   2.860   9.753   8.650  0.5965  0.4268 -0.6187
  135MOL0     C18094   2.902   9.739   8.524  0.4410 -0.4751 -0.2068
  135MOL0     C18095   2.875   9.841   8.441  0.4592 -0.4638  1.1673
  135MOL0     C18096   2.897   9.834   8.299  0.1719  0.0442  0.4300
  135MOL0     C18097   2.939   9.710   8.245 -0.1285  0.0903  0.1133
  135MOL0     O18098   2.922   9.700   8.108 -0.3228 -0.2288 -0.9358
  135MOL0     C18099   2.963   9.578   8.046 -0.7100  0.2033 -0.3656
  135MOL0     C18100   2.919   9.568   7.902 -1.2524  0.3301 -0.5373
  135MOL0     C18101   2.983   9.441   7.840 -0.5781  0.1244  0.1139
  135MOL0     C18102   3.133   9.469   7.778  0.3182 -0.6887  0.2651
  135MOL0     C18103   3.200   9.344   7.710  1.4375 -0.0004  0.0793
  135MOL0     C18104   3.303   9.383   7.608  0.1056 -0.2610 -0.0647
  135MOL0     C18105   3.381   9.265   7.557  0.0849 -0.0016  0.2551
  135MOL0     C18106   3.467   9.306   7.439  0.6303  1.2692 -0.2087
  135MOL0     N18107   3.564   9.203   7.398  0.6265 -0.9447 -0.0087
  135MOL0     C18108   3.637   9.123   7.486 -1.1612 -0.0610 -0.2928
  135MOL0     C18109   3.728   9.059   7.400 -0.2608  0.9328 -0.1315
  135MOL0     C18110   3.836   8.954   7.439 -0.0468  0.0110 -0.5233
  135MOL0     C18111   3.951   9.034   7.497 -0.9781 -0.2896 -0.0362
  135MOL0     C18112   4.055   8.961   7.580  1.0178  0.4304 -0.3602
  135MOL0     C18113   4.143   8.887   7.477  0.6964  0.9253 -0.0514
  135MOL0     O18114   4.277   8.900   7.538  0.7264  0.2861  0.3172
  135MOL0     C18115   4.347   9.010   7.514 -0.1922 -0.3310 -0.2899
  135MOL0     C18116   4.314   9.128   7.448 -0.2983 -0.4325  0.6306
  135MOL0     C18117   4.401   9.232   7.441  0.0204  0.6326 -0.9082
  135MOL0     C18118   4.536   9.217   7.489  0.5811  0.0149 -0.3921
  135MOL0     C18119   4.631   9.324   7.455  1.1606  0.0451 -0.3663
  135MOL0     O18120   4.765   9.283   7.471 -0.0072  0.3759 -0.4461
  135MOL0     C18121   4.867   9.375   7.473 -0.0601 -0.3204  0.0825
  135MOL0     C18122   4.943   9.391   7.593  0.4226  1.6401  0.7827
  135MOL0     C18123   5.042   9.480   7.599 -0.2189  0.8007  0.7230
  135MOL0     C18124   5.081   9.553   7.488  0.3380  0.8021  0.8179
  135MOL0     O18125   5.191   9.640   7.503 -0.1968  0.0971 -0.7377
  135MOL0     C18126   5.223   9.731   7.397  0.2905  0.5577 -0.3036
  135MOL0     C18127   5.306   9.849   7.428 -0.9517 -0.2222  0.0139
  135MOL0     C18128   5.298   9.908   7.568  0.0843  0.2886 -0.8316
  135MOL0     C18129   5.363  10.043   7.584  0.2750  0.1087 -0.1932
  135MOL0     C18130   5.322  10.114   7.717  0.7667  0.3990  0.6750
  135MOL0     C18131   5.302  10.270   7.714  0.6623  0.2798  0.3290
  135MOL0     C18132   5.440  10.339   7.704  0.0314 -0.2011 -0.0003
  135MOL0     C18133   5.436  10.483   7.726 -0.2014 -0.1027 -0.6361
  135MOL0    Cl18134   5.592  10.545   7.681 -0.2754 -0.0973  0.3457
  135MOL0     C18135   5.017   9.531   7.363  0.5792  1.0633 -0.8228
  135MOL0     C18136   4.903   9.441   7.354 -0.7108  0.5337  0.3630
  135MOL0     O18137   4.599   9.443   7.430  0.0363 -0.6856 -0.0104
  135MOL0     C18138   4.570   9.094   7.554  0.2561  0.5722  0.2644
  135MOL0     C18139   4.468   8.991   7.574 -0.5751 -0.7829  0.9281
  135MOL0     N18140   3.707   9.103   7.272 -0.9423 -0.7220 -0.1692
  135MOL0     N18141   3.605   9.186   7.276 -0.8407  0.1729  1.3857
  135MOL0     C18142   2.971   9.602   8.327 -0.2098  0.1543 -0.0272
  135MOL0     C18143   2.944   9.621   8.469 -0.5180 -0.1800 -0.5777
  135MOL0     C18144   2.907   9.812   8.870  0.2686  0.2196 -0.2926
  135MOL0     C18145   2.768   9.815   8.891 -0.4458  0.0322 -0.3210
  135MOL0     C18146   2.714   9.827   9.023 -0.3041  0.7552 -0.7019
  135MOL0     C18147   2.798   9.845   9.137  0.0206 -0.1388  0.0425
  135MOL0     O18148   2.749   9.886   9.256 -0.1426  0.9040  0.5233
  135MOL0     C18149   2.706  10.024   9.258  0.1757 -0.1194  0.2076
  135MOL0     C18150   2.804  10.101   9.341  0.6859 -0.4228  0.4636
  135MOL0     C18151   2.780  10.247   9.287  0.3214 -0.7394 -1.0114
  135MOL0     C18152   2.856  10.354   9.376 -0.4921  0.1377 -1.2132
  135MOL0     C18153   2.785  10.363   9.503  0.4958  1.2656 -0.0461
  135MOL0     C18154   2.708  10.367   9.600 -0.1783 -0.7077  0.2413
  135MOL0     C18155   2.939   9.843   9.116  0.3676 -0.7673 -0.2557
  135MOL0     C18156   2.995   9.832   8.990 -0.3301  0.7563  0.7574
  135MOL0     C18157   3.146   9.848   8.984 -0.1587 -0.1331 -0.6161
  135MOL0     H18158   2.831   9.933   8.478  0.1835  0.4192 -1.1769
  135MOL0     H18159   2.863   9.913   8.232  0.3114  0.2453  0.5961
  135MOL0     H18160   3.067   9.556   8.070 -1.2526  2.4558  5.7472
  135MOL0     H18161   2.915   9.494   8.098 -2.1046  0.1060 -1.7395
  135MOL0     H18162   2.961   9.656   7.852 -1.5919  0.5450 -0.4492
  135MOL0     H18163   2.811   9.566   7.884 -0.8167  1.6839 -4.3960
  135MOL0     H18164   2.913   9.397   7.767 -1.8054  1.8940  0.1677
  135MOL0     H18165   2.988   9.363   7.917  1.5454 -1.0693 -1.1341
  135MOL0     H18166   3.125   9.544   7.699 -0.4359  3.3367  3.7904
  135MOL0     H18167   3.193   9.504   7.862 -2.6096 -0.2303  2.3405
  135MOL0     H18168   3.247   9.285   7.789  2.2122  0.5894  0.0734
  135MOL0     H18169   3.131   9.285   7.649 -0.8786  5.1714 -3.0042
  135MOL0     H18170   3.239   9.434   7.536  1.5445  0.0113 -1.1999
  135MOL0     H18171   3.372   9.456   7.652 -1.6032  0.3317  1.8144
  135MOL0     H18172   3.304   9.196   7.523 -2.7812  2.4633  1.2878
  135MOL0     H18173   3.456   9.224   7.626  1.1473 -0.4534 -1.1117
  135MOL0     H18174   3.402   9.330   7.354 -0.7288  0.3920  0.5354
  135MOL0     H18175   3.530   9.392   7.460  3.6362 -0.5793 -0.9587
  135MOL0     H18176   3.637   9.104   7.593  2.2079  0.9077  0.0044
  135MOL0     H18177   3.798   8.875   7.504  0.7033  0.3516  0.3613
  135MOL0     H18178   3.871   8.906   7.347  0.6063  0.1715 -0.3626
  135MOL0     H18179   4.002   9.088   7.417 -2.1569 -0.1583 -0.7226
  135MOL0     H18180   3.922   9.109   7.572  1.2897  1.1563 -0.4994
  135MOL0     H18181   3.999   8.891   7.642 -0.4737 -0.1427 -2.2443
  135MOL0     H18182   4.106   9.030   7.648  1.7605 -0.7563  0.3101
  135MOL0     H18183   4.146   8.942   7.382  0.6916 -1.1914 -1.3305
  135MOL0     H18184   4.116   8.784   7.455 -0.0848  1.4542 -1.7627
  135MOL0     H18185   4.219   9.137   7.396  1.1669 -1.3414 -2.4385
  135MOL0     H18186   4.379   9.326   7.392  0.9799  1.5347  0.3060
  135MOL0     H18187   4.902   9.335   7.676  0.3149 -2.8476 -1.9699
  135MOL0     H18188   5.094   9.506   7.691 -0.4878  1.7790  0.6147
  135MOL0     H18189   5.259   9.670   7.315 -1.1649 -2.1330  0.9162
  135MOL0     H18190   5.123   9.766   7.367 -0.2149 -2.6519 -2.7966
  135MOL0     H18191   5.411   9.819   7.417 -0.7457 -0.0485  1.3333
  135MOL0     H18192   5.267   9.928   7.362  1.4215  1.3383  0.3469
  135MOL0     H18193   5.192   9.916   7.593 -0.1947  0.1777 -1.9267
  135MOL0     H18194   5.347   9.840   7.639  0.3904  0.1692 -1.1505
  135MOL0     H18195   5.323  10.110   7.506  0.1741  1.8112  1.2542
  135MOL0     H18196   5.472  10.037   7.584  0.4401  1.8451 -1.7431
  135MOL0     H18197   5.399  10.093   7.792  2.3826  3.9721  0.2356
  135MOL0     H18198   5.224  10.073   7.742  0.1594  0.6348 -1.1615
  135MOL0     H18199   5.242  10.292   7.625  1.7766 -1.5168 -0.9402
  135MOL0     H18200   5.240  10.303   7.798  0.3177  0.5439 -0.0267
  135MOL0     H18201   5.485  10.322   7.606 -0.1852  1.5713 -0.4439
  135MOL0     H18202   5.509  10.288   7.772 -1.9253 -4.1948 -0.7172
  135MOL0     H18203   5.353  10.518   7.664 -0.4110  2.0701  0.7895
  135MOL0     H18204   5.412  10.508   7.829 -1.5978 -1.1519 -0.6765
  135MOL0     H18205   5.059   9.573   7.273 -0.5505  1.5212 -1.1600
  135MOL0     H18206   4.852   9.417   7.261 -0.0673  1.7465 -0.3319
  135MOL0     H18207   4.672   9.079   7.586  0.6626 -1.1342 -1.6139
  135MOL0     H18208   4.480   8.886   7.598 -3.8215 -0.8251  2.8609
  135MOL0     H18209   3.006   9.509   8.285 -1.8589 -0.1339 -0.8761
  135MOL0     H18210   2.957   9.530   8.527 -2.0211 -1.0045 -1.4514
  135MOL0     H18211   2.712   9.802   8.799  2.7505 -1.9436 -2.2009
  135MOL0     H18212   2.606   9.833   9.037 -0.1307  0.9854  0.7301
  135MOL0     H18213   2.601  10.019   9.288 -0.3953 -1.5896 -1.7852
  135MOL0     H18214   2.711  10.064   9.156  0.2912  0.5018  0.4511
  135MOL0     H18215   2.908  10.067   9.335  0.7753 -0.6436  2.4636
  135MOL0     H18216   2.772  10.099   9.446  0.0272 -0.5540  0.2642
  135MOL0     H18217   2.674  10.272   9.277  0.2227 -0.5464  0.3318
  135MOL0     H18218   2.821  10.244   9.185  0.7950  0.0592 -0.8572
  135MOL0     H18219   2.962  10.328   9.384  0.5654  4.0953 -0.3834
  135MOL0     H18220   2.856  10.454   9.332  0.9019  2.1242  2.8269
  135MOL0     H18221   2.650  10.370   9.691 -0.4421  3.7973  0.1216
  135MOL0     H18222   3.005   9.881   9.193  0.9149 -1.3327 -0.4352
  135MOL0     H18223   3.192   9.752   8.957  1.1186  0.9281 -2.4151
  135MOL0     H18224   3.172   9.923   8.909 -2.1630 -0.0437 -1.2691
  135MOL0     H18225   3.199   9.887   9.072  0.0381 -1.0364 -0.3203
  136MOL0     O18226   9.712  10.223   5.901 -0.2867  0.3566  0.0108
  136MOL0     C18227   9.661  10.330   5.927 -0.2577 -0.1698 -0.6641
  136MOL0     O18228   9.562  10.341   6.030  0.1440 -0.2641  0.1155
  136MOL0     C18229   9.510  10.232   6.081 -0.1095  0.2433 -0.4533
  136MOL0     C18230   9.581  10.165   6.185  0.2475  0.1496  0.5051
  136MOL0     C18231   9.529  10.048   6.233 -0.5675 -0.9303 -0.5768
  136MOL0     C18232   9.405  10.001   6.190 -0.2251  0.4685 -0.3231
  136MOL0     O18233   9.327   9.904   6.249 -0.5317  0.0421 -0.1886
  136MOL0     C18234   9.382   9.798   6.330 -0.7814  0.3009 -0.0566
  136MOL0     C18235   9.280   9.717   6.418  0.1301 -0.5396  0.2250
  136MOL0     C18236   9.347   9.605   6.497 -0.1881 -0.3983  0.8394
  136MOL0     C18237   9.237   9.530   6.567  0.0180  0.8152  0.1266
  136MOL0     C18238   9.293   9.392   6.620  0.6664 -0.4234  0.0115
  136MOL0     C18239   9.311   9.278   6.517  0.3872 -0.4154 -0.1279
  136MOL0     C18240   9.192   9.259   6.426 -0.2271  0.3708 -0.3222
  136MOL0     C18241   9.067   9.211   6.499 -0.3575  0.6487 -0.9996
  136MOL0     N18242   8.946   9.221   6.432 -0.5153 -0.1810  0.0799
  136MOL0     C18243   8.924   9.160   6.313 -0.1239  0.2961  0.2116
  136MOL0     C18244   8.803   9.214   6.281  0.2939 -0.5809  0.4094
  136MOL0     C18245   8.732   9.159   6.168  0.8291 -0.5893  0.1351
  136MOL0     C18246   8.743   9.232   6.027 -0.9543  0.5948  0.3934
  136MOL0     C18247   8.887   9.212   5.959 -0.2484  0.0465  0.9675
  136MOL0     C18248   8.902   9.069   5.919  0.3197 -0.1375  1.0547
  136MOL0     O18249   8.977   9.036   5.803  0.3457  0.5088 -0.3723
  136MOL0     C18250   8.934   9.088   5.679  0.2623 -0.0621  0.3850
  136MOL0     C18251   9.035   9.102   5.585  0.0131 -0.6847 -0.7473
  136MOL0     C18252   9.020   9.172   5.457 -0.6105  0.9898 -0.3854
  136MOL0     C18253   8.897   9.231   5.434 -0.2215  0.2422 -0.5078
  136MOL0     C18254   8.869   9.301   5.305 -0.4536 -0.2041 -0.8883
  136MOL0     O18255   8.747   9.360   5.296 -1.0410  0.4244  0.6536
  136MOL0     C18256   8.683   9.383   5.186  0.1276 -0.2666  0.4751
  136MOL0     C18257   8.682   9.504   5.125  0.0059 -0.3267 -0.1350
  136MOL0     C18258   8.617   9.528   5.005  0.0496  0.0582 -0.7941
  136MOL0     C18259   8.544   9.424   4.946  0.4949 -0.7198 -0.5362
  136MOL0     O18260   8.476   9.455   4.827 -0.4414  0.0745  1.2242
  136MOL0     C18261   8.495   9.357   4.726  0.3303  0.4164  0.3528
  136MOL0     C18262   8.631   9.365   4.659 -0.2073 -0.3004  0.1478
  136MOL0     C18263   8.634   9.511   4.619  0.4941 -0.1916  0.3462
  136MOL0     C18264   8.761   9.541   4.543  0.8407 -0.1686 -0.1006
  136MOL0     C18265   8.749   9.693   4.519  0.0552 -0.1747 -0.5103
  136MOL0     C18266   8.870   9.741   4.454  0.0923  0.3815  0.0113
  136MOL0     C18267   8.988   9.739   4.550  0.1894 -0.4721  0.5507
  136MOL0     C18268   9.061   9.861   4.534  0.2021  0.4518  0.6638
  136MOL0    Cl18269   9.185   9.851   4.656  0.4418 -0.3873 -0.1058
  136MOL0     C18270   8.541   9.306   5.002 -0.6652 -0.7300  0.4625
  136MOL0     C18271   8.611   9.283   5.118 -0.1966 -0.0825 -0.6110
  136MOL0     O18272   8.949   9.271   5.210 -0.5861 -0.5472  0.9927
  136MOL0     C18273   8.787   9.204   5.520  0.0622  0.1494 -0.1339
  136MOL0     C18274   8.801   9.138   5.643  0.0735  0.9789 -0.5307
  136MOL0     N18275   8.764   9.304   6.371  0.5452 -0.3950 -1.3753
  136MOL0     N18276   8.846   9.315   6.464  0.2030  0.5422 -0.2830
  136MOL0     C18277   9.335  10.067   6.086  0.5376 -0.3416 -0.3813
  136MOL0     C18278   9.385  10.185   6.035  0.3741 -0.1108  0.0648
  136MOL0     C18279   9.708  10.457   5.854 -0.5420  0.1061 -1.0792
  136MOL0     C18280   9.661  10.582   5.897 -0.6965 -0.1208  0.8488
  136MOL0     C18281   9.702  10.695   5.829 -0.4926 -0.4444  0.1908
  136MOL0     C18282   9.801  10.697   5.731 -0.3267 -0.5711 -0.2675
  136MOL0     O18283   9.838  10.814   5.672 -0.1108  0.8539 -0.6544
  136MOL0     C18284   9.850  10.809   5.531  0.0381  0.4753 -0.8726
  136MOL0     C18285   9.740  10.728   5.461  0.4259  0.2196  0.4909
  136MOL0     C18286   9.750  10.758   5.305 -0.3413  0.2746 -1.5794
  136MOL0     C18287   9.693  10.650   5.225  1.1166 -0.3754 -0.0122
  136MOL0     C18288   9.542  10.633   5.248  0.4605  0.7147  0.0150
  136MOL0     C18289   9.425  10.638   5.245  0.0253 -0.4250  0.6620
  136MOL0     C18290   9.864  10.572   5.706  0.2543 -0.4305 -0.1471
  136MOL0     C18291   9.810  10.449   5.759 -0.6922  0.0803  0.1453
  136MOL0     C18292   9.876  10.325   5.699  0.9953 -0.5580  0.4351
  136MOL0     H18293   9.678  10.195   6.225  1.3764 -2.0161 -0.4589
  136MOL0     H18294   9.592   9.984   6.294  1.4527 -0.6279 -2.2278
  136MOL0     H18295   9.424   9.729   6.257 -0.1827  3.3620 -2.8461
  136MOL0     H18296   9.466   9.835   6.390  0.6107  0.9997 -2.3188
  136MOL0     H18297   9.201   9.678   6.352 -0.6774 -0.1791  0.9531
  136MOL0     H18298   9.239   9.784   6.494  1.5914  3.4949 -2.2203
  136MOL0     H18299   9.414   9.629   6.580 -1.7513 -1.1821  2.4027
  136MOL0     H18300   9.401   9.544   6.425 -0.9305 -0.1610  0.0575
  136MOL0     H18301   9.205   9.580   6.659 -0.2313  1.5067 -0.3289
  136MOL0     H18302   9.152   9.518   6.500  0.8198  0.5439 -0.8772
  136MOL0     H18303   9.386   9.414   6.672 -1.1364  2.2038  2.4898
  136MOL0     H18304   9.222   9.355   6.695  1.1666  0.8982  1.1795
  136MOL0     H18305   9.406   9.306   6.470 -0.0583  1.7309  0.1353
  136MOL0     H18306   9.342   9.185   6.564 -0.8394 -0.9248 -0.3012
  136MOL0     H18307   9.219   9.189   6.346 -0.7919 -0.3538  0.1092
  136MOL0     H18308   9.164   9.354   6.379  0.0682  0.1478 -0.9655
  136MOL0     H18309   9.082   9.107   6.527  1.0137  1.6074  2.4059
  136MOL0     H18310   9.050   9.255   6.598 -3.0151 -2.3130  0.0288
  136MOL0     H18311   8.981   9.076   6.274 -0.0018  0.5053 -0.0631
  136MOL0     H18312   8.763   9.055   6.158 -2.1853 -1.4278 -1.8865
  136MOL0     H18313   8.625   9.148   6.187  0.8243 -1.0034 -0.1187
  136MOL0     H18314   8.662   9.196   5.963 -1.9837 -1.1120  2.5256
  136MOL0     H18315   8.735   9.338   6.050  0.4350  1.2451 -1.8401
  136MOL0     H18316   8.969   9.234   6.028  0.9301 -1.0201 -0.0303
  136MOL0     H18317   8.891   9.268   5.865 -4.8116  2.1656  1.7530
  136MOL0     H18318   8.806   9.018   5.914 -0.1309  0.7152  0.7442
  136MOL0     H18319   8.967   9.019   5.991  3.0885  0.4356 -0.8816
  136MOL0     H18320   9.136   9.063   5.595  0.9244  1.0074 -2.5037
  136MOL0     H18321   9.115   9.168   5.405 -0.2023 -2.9310  0.3194
  136MOL0     H18322   8.753   9.571   5.174  2.1039 -2.0719 -0.6315
  136MOL0     H18323   8.642   9.615   4.945  3.9893 -0.3169  0.0363
  136MOL0     H18324   8.494   9.251   4.753 -0.6494  1.0676  3.1864
  136MOL0     H18325   8.423   9.361   4.643 -0.5141 -1.9304  0.9163
  136MOL0     H18326   8.716   9.335   4.720  0.1063 -1.7573 -0.9408
  136MOL0     H18327   8.632   9.300   4.571 -3.3300 -2.0749  1.2460
  136MOL0     H18328   8.549   9.541   4.558  1.0492  1.9783  0.5478
  136MOL0     H18329   8.632   9.582   4.702  0.9604 -0.0262  0.2213
  136MOL0     H18330   8.748   9.477   4.455 -0.9880  0.5083 -0.3731
  136MOL0     H18331   8.842   9.500   4.603 -0.4325 -3.5372 -0.4454
  136MOL0     H18332   8.737   9.751   4.611 -2.9373 -2.1433  0.4859
  136MOL0     H18333   8.655   9.706   4.463 -0.8869 -2.6186  0.3701
  136MOL0     H18334   8.891   9.674   4.370  3.3507  0.6293  0.5000
  136MOL0     H18335   8.851   9.843   4.421 -3.6748  0.6439  2.4563
  136MOL0     H18336   9.046   9.647   4.538  1.6733  0.6704 -1.5577
  136MOL0     H18337   8.954   9.733   4.654 -0.7308  0.9662  0.3570
  136MOL0     H18338   9.099   9.873   4.432 -0.1756  2.0318  0.6755
  136MOL0     H18339   8.991   9.941   4.560  1.0804  1.1405  0.9179
  136MOL0     H18340   8.494   9.218   4.959  1.4671 -1.1467 -1.1993
  136MOL0     H18341   8.618   9.180   5.153  0.5486 -1.1729 -3.6298
  136MOL0     H18342   8.696   9.258   5.497  0.1807  0.4010 -0.0264
  136MOL0     H18343   8.734   9.116   5.725  2.6447 -2.2527  0.9086
  136MOL0     H18344   9.252  10.016   6.038 -0.0087 -0.9014  1.1003
  136MOL0     H18345   9.335  10.252   5.967 -0.9916 -0.4634  0.6921
  136MOL0     H18346   9.594  10.583   5.983  2.0272 -4.2545  3.3400
  136MOL0     H18347   9.657  10.793   5.838 -2.0158 -0.5831 -3.7202
  136MOL0     H18348   9.945  10.798   5.477  1.1977  0.0133  1.1838
  136MOL0     H18349   9.831  10.912   5.498  2.5177  1.9750  1.8473
  136MOL0     H18350   9.645  10.749   5.511  0.0056  1.8071 -0.9132
  136MOL0     H18351   9.766  10.622   5.472 -1.4642 -0.2758  0.4609
  136MOL0     H18352   9.848  10.787   5.267 -0.6315  1.9034 -1.1621
  136MOL0     H18353   9.682  10.842   5.286 -2.5641 -0.0007  3.5101
  136MOL0     H18354   9.682  10.692   5.124 -0.1522  0.1104  0.2966
  136MOL0     H18355   9.752  10.558   5.227  0.2325 -0.9384  1.9079
  136MOL0     H18356   9.319  10.648   5.240  0.1941  3.4695  1.5424
  136MOL0     H18357   9.935  10.569   5.624  0.5629  3.1012 -0.1624
  136MOL0     H18358   9.931  10.338   5.605  3.1367  0.4136  1.7338
  136MOL0     H18359   9.944  10.279   5.771 -1.9088 -6.2483  0.0255
  136MOL0     H18360   9.810  10.244   5.669  2.4909 -1.9474  0.7411
  137MOL0     O18361   8.319   5.047   1.802  0.0691  0.4212  0.5302
  137MOL0     C18362   8.248   5.145   1.823  0.0765 -0.2495  0.1593
  137MOL0     O18363   8.274   5.275   1.772 -0.1128 -0.0983  0.4258
  137MOL0     C18364   8.385   5.291   1.697 -0.6797 -0.0119 -0.0501
  137MOL0     C18365   8.502   5.351   1.751 -0.7535  0.4602  0.2465
  137MOL0     C18366   8.622   5.352   1.675  0.2566 -0.0821 -0.2012
  137MOL0     C18367   8.636   5.291   1.552  0.4043  0.7285 -0.0318
  137MOL0     O18368   8.756   5.313   1.480 -0.1456 -0.1879 -0.8406
  137MOL0     C18369   8.785   5.220   1.372  0.3888  0.6489 -0.3809
  137MOL0     C18370   8.919   5.230   1.315 -0.5364 -0.3494 -0.1497
  137MOL0     C18371   8.942   5.145   1.185 -0.1142 -0.7227 -0.3255
  137MOL0     C18372   9.076   5.211   1.132 -0.2649  0.0281 -0.8215
  137MOL0     C18373   9.114   5.172   0.995 -0.2378  0.6403  0.3631
  137MOL0     C18374   9.232   5.247   0.946 -0.5921  0.0147 -0.0563
  137MOL0     C18375   9.235   5.247   0.791  0.3513 -0.0977  0.2173
  137MOL0     C18376   9.249   5.107   0.708 -0.1845  0.4239 -0.0973
  137MOL0     N18377   9.388   5.063   0.712 -0.2256  0.1960 -0.2807
  137MOL0     C18378   9.445   4.979   0.802 -0.4136 -0.5617 -1.1760
  137MOL0     C18379   9.570   4.968   0.756 -0.4251  0.0375  0.3221
  137MOL0     C18380   9.679   4.887   0.821 -0.1415  0.4061  0.4965
  137MOL0     C18381   9.738   4.775   0.738  0.3475 -0.0612  0.3984
  137MOL0     C18382   9.637   4.676   0.681 -0.3414  0.3352 -0.5157
  137MOL0     C18383   9.544   4.599   0.783  0.0368 -0.4654  0.2089
  137MOL0     O18384   9.455   4.502   0.717  0.9617  0.5523  0.3797
  137MOL0     C18385   9.394   4.412   0.790  0.6644 -0.0347 -0.1075
  137MOL0     C18386   9.459   4.298   0.831 -0.6413  0.6814  0.6908
  137MOL0     C18387   9.398   4.207   0.907  0.4483  0.8108  0.3755
  137MOL0     C18388   9.253   4.222   0.937  0.0675  0.0057  0.8080
  137MOL0     C18389   9.180   4.124   1.021 -0.0903 -1.0282  0.2548
  137MOL0     O18390   9.039   4.126   1.007  0.2431 -0.2534  0.1939
  137MOL0     C18391   8.966   4.024   1.057 -0.0300 -0.3551 -0.9814
  137MOL0     C18392   9.007   3.896   1.077 -0.3644 -0.0128  0.0032
  137MOL0     C18393   8.915   3.809   1.139  0.0440 -0.2008 -0.1842
  137MOL0     C18394   8.788   3.837   1.182  0.0982 -0.0228 -0.0824
  137MOL0     O18395   8.721   3.742   1.259  0.1114 -0.0235 -0.1558
  137MOL0     C18396   8.592   3.755   1.310  0.3118 -0.2851  0.0298
  137MOL0     C18397   8.561   3.629   1.389  0.7179  0.2707 -0.3149
  137MOL0     C18398   8.421   3.619   1.451 -0.8533  0.0438  0.2505
  137MOL0     C18399   8.360   3.478   1.442 -0.1748  0.6740 -1.1525
  137MOL0     C18400   8.264   3.461   1.567  0.1741  0.9087 -0.6143
  137MOL0     C18401   8.263   3.313   1.606  0.3770 -0.1295  1.2141
  137MOL0     C18402   8.176   3.231   1.515 -0.7728 -0.3132 -0.0567
  137MOL0     C18403   8.146   3.107   1.586 -0.3334  0.3021 -0.1752
  137MOL0    Cl18404   8.038   3.023   1.472 -0.3337 -0.2818  0.4934
  137MOL0     C18405   8.745   3.960   1.135  0.0287 -0.0570  0.2550
  137MOL0     C18406   8.829   4.049   1.076 -0.0152  0.5924 -0.3199
  137MOL0     O18407   9.248   4.072   1.105 -0.1595  0.3657  0.3139
  137MOL0     C18408   9.186   4.327   0.866  0.9113 -0.0913  0.1022
  137MOL0     C18409   9.258   4.425   0.804 -0.2546 -0.6894  0.2619
  137MOL0     N18410   9.580   5.031   0.637 -0.1155 -0.4494  0.0301
  137MOL0     N18411   9.471   5.088   0.603 -0.3123 -0.1916  0.1176
  137MOL0     C18412   8.516   5.238   1.491  0.1657  0.3538  0.0837
  137MOL0     C18413   8.393   5.241   1.566  0.1201 -0.6138 -0.0307
  137MOL0     C18414   8.135   5.121   1.909  0.3636 -0.7934 -0.3152
  137MOL0     C18415   8.063   5.006   1.893 -0.0485  0.1206  1.1410
  137MOL0     C18416   7.950   4.978   1.973 -0.1472 -0.1056  0.2346
  137MOL0     C18417   7.920   5.064   2.077  1.0021  0.9104  0.7293
  137MOL0     O18418   7.816   5.046   2.164 -0.4051  0.3472 -0.5323
  137MOL0     C18419   7.707   5.138   2.173 -0.2153 -0.2482 -0.3779
  137MOL0     C18420   7.582   5.061   2.231  0.6512 -0.2130  0.1533
  137MOL0     C18421   7.534   4.959   2.126 -0.1409 -0.3780 -0.4504
  137MOL0     C18422   7.380   4.974   2.092  0.5737 -0.8434 -0.2789
  137MOL0     C18423   7.307   4.844   2.097 -0.4551 -0.2099  0.1482
  137MOL0     C18424   7.231   4.754   2.108 -0.5399  0.9982 -0.8230
  137MOL0     C18425   7.987   5.177   2.100 -0.2664  0.3613 -0.4910
  137MOL0     C18426   8.093   5.218   2.011  0.3342  0.4021  1.0483
  137MOL0     C18427   8.156   5.353   2.030  0.0284 -0.2184 -0.1947
  137MOL0     H18428   8.487   5.388   1.852  0.4505 -0.1566  0.6678
  137MOL0     H18429   8.714   5.385   1.722 -0.5294  1.3986  0.3697
  137MOL0     H18430   8.764   5.119   1.409 -1.2591  1.2230  0.3279
  137MOL0     H18431   8.718   5.245   1.289 -0.4668 -1.2592 -0.3097
  137MOL0     H18432   9.002   5.206   1.381 -0.2977  4.8453  1.8814
  137MOL0     H18433   8.939   5.336   1.296 -1.3897 -0.0320  0.6813
  137MOL0     H18434   8.872   5.173   1.106 -0.1327 -1.3530 -0.5369
  137MOL0     H18435   8.948   5.037   1.202  1.4548 -0.3893  1.6409
  137MOL0     H18436   9.067   5.319   1.120  0.5729  0.1418 -0.4210
  137MOL0     H18437   9.157   5.177   1.197 -1.2665 -0.7071  0.0813
  137MOL0     H18438   9.130   5.064   0.992 -1.1473  0.5163 -0.6534
  137MOL0     H18439   9.026   5.188   0.932 -0.9185 -1.4198  0.7269
  137MOL0     H18440   9.222   5.349   0.982 -1.7986 -0.4864  1.1060
  137MOL0     H18441   9.330   5.207   0.972 -1.7243 -3.1463 -0.1811
  137MOL0     H18442   9.320   5.314   0.774 -0.0792  0.9293  1.9325
  137MOL0     H18443   9.145   5.291   0.748 -0.4312 -0.1979  1.7110
  137MOL0     H18444   9.194   5.019   0.744  1.4064 -0.2700  0.7532
  137MOL0     H18445   9.222   5.122   0.603  1.0682 -1.4576 -0.7335
  137MOL0     H18446   9.393   4.939   0.889 -0.1084 -1.1509 -1.2633
  137MOL0     H18447   9.759   4.957   0.849  2.2037 -1.7103 -0.5268
  137MOL0     H18448   9.639   4.833   0.907  0.9223 -3.8918 -1.4431
  137MOL0     H18449   9.801   4.802   0.653 -2.7651  1.8232 -1.4696
  137MOL0     H18450   9.804   4.717   0.803  0.8487  0.0470 -0.0049
  137MOL0     H18451   9.707   4.606   0.634  1.7385  1.3051  0.9787
  137MOL0     H18452   9.577   4.720   0.600 -1.9958 -2.0684 -0.7033
  137MOL0     H18453   9.476   4.668   0.833 -0.7647 -0.1896 -1.2150
  137MOL0     H18454   9.601   4.549   0.863  1.4364  0.0130 -0.4504
  137MOL0     H18455   9.566   4.293   0.814 -0.6819  0.3932  0.5265
  137MOL0     H18456   9.457   4.121   0.939  2.8999  0.2307 -4.6683
  137MOL0     H18457   9.112   3.873   1.064 -0.7893 -0.8882 -2.5650
  137MOL0     H18458   8.951   3.708   1.155  1.0642  0.3905  1.5371
  137MOL0     H18459   8.598   3.849   1.365  1.8097 -0.0729 -0.4507
  137MOL0     H18460   8.520   3.774   1.230 -2.6222  0.9033  2.7408
  137MOL0     H18461   8.578   3.544   1.323 -0.3032  0.1105 -0.3827
  137MOL0     H18462   8.621   3.630   1.480 -1.8407 -0.5338  1.4951
  137MOL0     H18463   8.433   3.652   1.555 -0.9982 -0.3654  0.4023
  137MOL0     H18464   8.357   3.687   1.394  2.2116  1.2368 -2.0084
  137MOL0     H18465   8.442   3.407   1.458  0.3551  1.6430  0.6894
  137MOL0     H18466   8.311   3.457   1.347  0.9225 -0.2443 -1.5451
  137MOL0     H18467   8.167   3.506   1.546  0.2385  2.9649  2.6572
  137MOL0     H18468   8.295   3.519   1.655 -0.5556 -1.9847  1.7017
  137MOL0     H18469   8.366   3.276   1.605  0.8858  1.0345 -1.7353
  137MOL0     H18470   8.232   3.314   1.711  3.1260  0.9362  2.1081
  137MOL0     H18471   8.233   3.206   1.425  1.5517  2.1084  0.6176
  137MOL0     H18472   8.082   3.279   1.490  0.8330  2.4025 -1.2806
  137MOL0     H18473   8.239   3.055   1.608 -0.9333 -0.3877  0.8364
  137MOL0     H18474   8.083   3.119   1.675 -0.6919 -2.0569 -0.0445
  137MOL0     H18475   8.644   3.997   1.148  0.3413  1.4775 -1.3105
  137MOL0     H18476   8.801   4.152   1.053 -1.5107  0.2553 -0.1011
  137MOL0     H18477   9.078   4.334   0.872  0.5616 -3.0617 -0.8432
  137MOL0     H18478   9.210   4.506   0.749  2.4149 -0.0150 -1.2656
  137MOL0     H18479   8.515   5.194   1.392 -2.4872 -0.0672  0.2452
  137MOL0     H18480   8.297   5.207   1.527  0.3315  1.8047 -3.0027
  137MOL0     H18481   8.096   4.929   1.824 -0.0794  0.1835  1.0565
  137MOL0     H18482   7.870   4.906   1.963 -0.0203 -0.1570 -0.4670
  137MOL0     H18483   7.698   5.188   2.076  1.9790 -0.9342 -0.9844
  137MOL0     H18484   7.733   5.220   2.239 -1.5685  1.6932 -2.1142
  137MOL0     H18485   7.497   5.122   2.261 -1.0869 -2.4086 -0.0248
  137MOL0     H18486   7.603   5.003   2.321  2.2089  3.8977  2.7127
  137MOL0     H18487   7.551   4.857   2.162  1.0408 -0.3748 -0.9656
  137MOL0     H18488   7.598   4.970   2.038  1.1750  1.1090  0.6371
  137MOL0     H18489   7.327   5.046   2.155  1.1309  0.1570 -0.9261
  137MOL0     H18490   7.379   5.027   1.996 -0.2635  2.1814  1.2681
  137MOL0     H18491   7.154   4.680   2.108 -0.2400  0.6234 -2.8173
  137MOL0     H18492   7.954   5.242   2.181 -1.4256 -0.8765  0.0722
  137MOL0     H18493   8.103   5.401   2.112  1.1482 -1.6148  1.3997
  137MOL0     H18494   8.259   5.342   2.063  0.0925 -1.4128 -0.7456
  137MOL0     H18495   8.142   5.423   1.946 -2.2323 -1.4719 -0.9441
  138MOL0     O18496   0.207   2.055   5.773  1.1169 -0.7907 -0.7475
  138MOL0     C18497   0.252   2.136   5.697 -0.5728 -0.3185 -0.4625
  138MOL0     O18498   0.385   2.157   5.683 -0.4854  0.5607  0.9908
  138MOL0     C18499   0.473   2.135   5.785  0.2895  0.2008 -1.0169
  138MOL0     C18500   0.435   2.156   5.919  0.2822 -0.1856 -0.9698
  138MOL0     C18501   0.524   2.129   6.023 -0.2348  0.5914 -0.7437
  138MOL0     C18502   0.659   2.089   5.991  0.7577 -0.4332 -0.6471
  138MOL0     O18503   0.745   2.049   6.090 -0.9508  1.0259 -0.1277
  138MOL0     C18504   0.887   2.089   6.076 -0.0152  0.4933  0.1747
  138MOL0     C18505   0.953   2.104   6.217  0.1955 -0.1438 -0.3594
  138MOL0     C18506   1.103   2.120   6.214 -0.1587  0.0370  0.2968
  138MOL0     C18507   1.166   2.152   6.352  1.2182  0.4925  0.2577
  138MOL0     C18508   1.310   2.152   6.330 -1.3309  0.0433  1.0375
  138MOL0     C18509   1.415   2.198   6.427  0.4237  0.5772  0.2943
  138MOL0     C18510   1.561   2.170   6.371  0.3747  1.3934 -0.6657
  138MOL0     C18511   1.663   2.215   6.464  0.2312 -0.5615 -0.1539
  138MOL0     N18512   1.799   2.192   6.415 -0.1329  0.2478  0.8649
  138MOL0     C18513   1.900   2.147   6.500 -0.1988  0.3267  0.0979
  138MOL0     C18514   2.009   2.116   6.423  0.4993 -0.6260  0.3846
  138MOL0     C18515   2.131   2.041   6.479  0.5464  0.2129 -0.2484
  138MOL0     C18516   2.262   2.062   6.394  0.2218  0.1883  0.6654
  138MOL0     C18517   2.370   1.959   6.438 -0.1240 -0.1048  0.0306
  138MOL0     C18518   2.403   1.951   6.588 -0.5815 -0.1981 -0.3239
  138MOL0     O18519   2.546   1.921   6.622 -0.0949  0.2945 -0.1246
  138MOL0     C18520   2.634   2.028   6.624  0.2040 -0.2820 -0.8060
  138MOL0     C18521   2.765   1.996   6.615 -0.3924  1.1220 -0.4318
  138MOL0     C18522   2.863   2.095   6.633 -0.5752 -0.8450  0.4088
  138MOL0     C18523   2.828   2.230   6.655  0.1453 -0.1192  0.3506
  138MOL0     C18524   2.919   2.340   6.666 -1.2299  0.3213  0.5528
  138MOL0     O18525   3.048   2.321   6.613 -0.2294 -0.0950 -0.0618
  138MOL0     C18526   3.151   2.413   6.630 -0.6282 -0.3271  0.0589
  138MOL0     C18527   3.226   2.450   6.519  0.5868 -0.0134  0.4226
  138MOL0     C18528   3.336   2.538   6.528  0.4308  0.1516  0.1826
  138MOL0     C18529   3.349   2.609   6.652  0.1774 -0.8777 -0.3660
  138MOL0     O18530   3.437   2.717   6.646 -0.7048  0.4473  0.1971
  138MOL0     C18531   3.471   2.802   6.754  0.1520 -0.4727  0.1985
  138MOL0     C18532   3.566   2.913   6.714 -0.1162  0.9575  0.4756
  138MOL0     C18533   3.582   3.010   6.835  0.1440  0.7642  0.2869
  138MOL0     C18534   3.476   3.116   6.831 -0.5292  0.5607  0.9998
  138MOL0     C18535   3.488   3.221   6.944 -0.3143 -0.4557 -0.8294
  138MOL0     C18536   3.389   3.329   6.925 -0.2112  0.2061 -0.0672
  138MOL0     C18537   3.409   3.447   7.024  0.7786 -0.9579  0.5359
  138MOL0     C18538   3.311   3.566   6.991 -0.1771  0.2763  0.0209
  138MOL0    Cl18539   3.346   3.623   6.828 -0.1308  0.0966  0.3909
  138MOL0     C18540   3.281   2.570   6.764 -0.8135  0.0204 -1.4770
  138MOL0     C18541   3.188   2.462   6.757 -0.1241 -0.4723  0.6694
  138MOL0     O18542   2.880   2.436   6.728 -0.1114  0.1400  0.4823
  138MOL0     C18543   2.686   2.257   6.639 -0.2636  0.3135 -0.0997
  138MOL0     C18544   2.594   2.166   6.630  0.7264  1.3622 -0.3059
  138MOL0     N18545   1.974   2.143   6.292 -0.8057  0.1720 -0.3915
  138MOL0     N18546   1.846   2.197   6.287  0.3282  0.4650 -0.7822
  138MOL0     C18547   0.692   2.081   5.853 -0.9572  1.5059 -1.7410
  138MOL0     C18548   0.598   2.095   5.752 -0.7240  0.4695  0.1877
  138MOL0     C18549   0.154   2.215   5.623 -1.0759 -0.6651  0.4693
  138MOL0     C18550   0.039   2.156   5.569 -0.4346  0.3226 -0.1065
  138MOL0     C18551  -0.054   2.219   5.495  1.5279  0.3187 -0.8900
  138MOL0     C18552  -0.036   2.361   5.463 -0.2201  0.3929 -0.1126
  138MOL0     O18553  -0.127   2.429   5.389 -0.3753  0.8035 -0.3686
  138MOL0     C18554  -0.087   2.538   5.317 -0.4463 -0.1123  0.5579
  138MOL0     C18555  -0.194   2.591   5.218  1.0826  0.0141  0.4683
  138MOL0     C18556  -0.322   2.619   5.291  0.5916  0.4127  0.0687
  138MOL0     C18557  -0.433   2.640   5.187 -0.3770 -0.8787  0.1403
  138MOL0     C18558  -0.562   2.681   5.240  0.7021 -0.0722 -0.1175
  138MOL0     C18559  -0.681   2.713   5.272  0.1326 -0.6877 -0.2670
  138MOL0     C18560   0.075   2.424   5.507 -0.1056  0.1203 -0.4071
  138MOL0     C18561   0.167   2.358   5.594 -0.4222 -0.2909 -0.3536
  138MOL0     C18562   0.286   2.443   5.639  0.6305  0.5577 -0.9559
  138MOL0     H18563   0.335   2.189   5.948 -0.0951 -2.7911  1.0725
  138MOL0     H18564   0.500   2.132   6.129 -1.0984 -4.2292 -0.5683
  138MOL0     H18565   0.943   2.015   6.018 -0.5980 -1.1242  1.5844
  138MOL0     H18566   0.897   2.187   6.029 -1.3821  1.5362  1.9301
  138MOL0     H18567   0.925   2.016   6.276 -1.5838 -0.0116 -0.9494
  138MOL0     H18568   0.896   2.188   6.257  0.8402 -0.2610  0.8357
  138MOL0     H18569   1.123   2.200   6.142 -0.1387 -0.7812 -0.6355
  138MOL0     H18570   1.140   2.025   6.174 -1.4809 -0.2983 -0.1925
  138MOL0     H18571   1.143   2.251   6.390  2.2435  0.2891  1.4704
  138MOL0     H18572   1.128   2.081   6.425  0.3842  0.7816  0.1137
  138MOL0     H18573   1.342   2.052   6.297  2.5589  1.2849  0.4677
  138MOL0     H18574   1.328   2.212   6.240 -0.2483 -0.6676  0.7431
  138MOL0     H18575   1.401   2.305   6.439 -0.4310  0.4587  0.3615
  138MOL0     H18576   1.391   2.150   6.522 -3.3776  0.8741 -0.3573
  138MOL0     H18577   1.576   2.219   6.275  1.3391  3.5490  0.5269
  138MOL0     H18578   1.571   2.063   6.349 -0.1354  1.3818 -0.8617
  138MOL0     H18579   1.647   2.322   6.480 -1.5863 -0.6602 -1.0940
  138MOL0     H18580   1.652   2.152   6.553  1.7812 -1.0233 -0.2623
  138MOL0     H18581   1.877   2.135   6.605 -0.7234 -0.7993 -0.1226
  138MOL0     H18582   2.144   2.064   6.585 -0.5014 -4.4291  1.1006
  138MOL0     H18583   2.112   1.933   6.486 -0.0474  0.0791 -2.7796
  138MOL0     H18584   2.230   2.039   6.292 -1.4795  0.1319  1.1812
  138MOL0     H18585   2.296   2.166   6.399  0.3813  0.4597 -2.9820
  138MOL0     H18586   2.462   1.983   6.384 -0.0525  1.1465  0.6488
  138MOL0     H18587   2.334   1.857   6.422 -3.0278 -0.1716  4.9956
  138MOL0     H18588   2.343   1.872   6.634 -2.3464  0.2304 -1.7497
  138MOL0     H18589   2.371   2.049   6.627 -0.0969  0.3250 -1.1991
  138MOL0     H18590   2.794   1.891   6.625 -2.8497  0.5801  2.3158
  138MOL0     H18591   2.968   2.069   6.647  0.1580  1.9677  0.6764
  138MOL0     H18592   3.192   2.400   6.428  1.9686 -0.3859  0.0883
  138MOL0     H18593   3.411   2.561   6.453  4.8236 -0.5734  3.9033
  138MOL0     H18594   3.384   2.855   6.794 -0.1751 -0.8904  0.0561
  138MOL0     H18595   3.520   2.730   6.820  0.0207  0.3072  1.1639
  138MOL0     H18596   3.668   2.877   6.696  1.0435  3.7991  0.7888
  138MOL0     H18597   3.530   2.948   6.617 -1.8066 -0.8746  0.3888
  138MOL0     H18598   3.584   2.951   6.927  0.6632  1.7713  0.9263
  138MOL0     H18599   3.679   3.060   6.829  1.4126 -1.5228  0.2842
  138MOL0     H18600   3.380   3.065   6.846 -1.3443  0.8137 -2.5043
  138MOL0     H18601   3.467   3.165   6.734  0.1606  0.4564  0.8813
  138MOL0     H18602   3.588   3.265   6.944  0.0966 -1.3154  0.6794
  138MOL0     H18603   3.481   3.166   7.039 -2.1438 -1.9042 -1.7441
  138MOL0     H18604   3.407   3.361   6.822 -0.2087 -0.4180 -0.2644
  138MOL0     H18605   3.289   3.286   6.932  0.4695 -1.3020  0.7568
  138MOL0     H18606   3.509   3.492   7.025  0.2146  1.0866 -4.3823
  138MOL0     H18607   3.381   3.398   7.118  0.1096 -1.8524 -0.1087
  138MOL0     H18608   3.208   3.531   6.991  0.6015 -2.3525  2.1683
  138MOL0     H18609   3.316   3.645   7.067 -0.7106  1.3829 -1.0601
  138MOL0     H18610   3.287   2.615   6.863 -1.1791 -1.6235 -0.6695
  138MOL0     H18611   3.125   2.440   6.843 -0.2520 -0.1622  0.6556
  138MOL0     H18612   2.653   2.360   6.645 -1.8838 -0.2340  1.1849
  138MOL0     H18613   2.490   2.198   6.623  0.7520  1.4071 -0.4915
  138MOL0     H18614   0.781   2.022   5.836 -1.5569 -0.5070  1.2342
  138MOL0     H18615   0.600   2.064   5.648 -1.6774  0.7885  0.0718
  138MOL0     H18616   0.028   2.050   5.590  1.9087  0.5833  3.2048
  138MOL0     H18617  -0.148   2.168   5.475  0.0508  2.7920 -0.6369
  138MOL0     H18618   0.008   2.523   5.265 -1.4108 -0.9201 -1.0603
  138MOL0     H18619  -0.064   2.620   5.385 -0.2233  1.0679 -0.8861
  138MOL0     H18620  -0.223   2.516   5.145 -0.3390  1.7754 -0.8650
  138MOL0     H18621  -0.166   2.682   5.164 -1.0824  0.2064 -0.4474
  138MOL0     H18622  -0.312   2.712   5.348 -1.6589  1.0372 -0.4540
  138MOL0     H18623  -0.357   2.537   5.354  0.8245  1.1185  1.1387
  138MOL0     H18624  -0.397   2.715   5.116  0.3022 -4.4615 -3.6714
  138MOL0     H18625  -0.446   2.544   5.137  2.8314 -0.8182 -1.0733
  138MOL0     H18626  -0.785   2.730   5.289  0.6610  0.3925  2.2489
  138MOL0     H18627   0.095   2.530   5.497  2.6774 -0.3616 -0.6539
  138MOL0     H18628   0.374   2.446   5.574 -0.0265  1.2227 -1.8472
  138MOL0     H18629   0.261   2.548   5.658  0.2738  0.5536 -1.3717
  138MOL0     H18630   0.317   2.400   5.735 -0.8038  2.5993  0.4901
  139MOL0     O18631   3.460   7.207   9.005  0.1723 -0.3253 -0.0820
  139MOL0     C18632   3.430   7.089   8.983 -0.1793  0.9953 -0.1419
  139MOL0     O18633   3.356   7.048   8.875 -0.2316 -0.2717  0.5199
  139MOL0     C18634   3.335   7.129   8.775  0.5706 -0.1400  0.1787
  139MOL0     C18635   3.435   7.200   8.704 -0.3917 -0.3834  0.6454
  139MOL0     C18636   3.406   7.305   8.616  1.2362  0.9930 -0.0764
  139MOL0     C18637   3.270   7.333   8.587 -0.2456  1.1921  0.3357
  139MOL0     O18638   3.247   7.431   8.490 -0.7888  0.4707  0.1635
  139MOL0     C18639   3.140   7.405   8.404 -0.4655  0.6951  0.7847
  139MOL0     C18640   3.183   7.479   8.282  0.1463  0.5844 -0.6093
  139MOL0     C18641   3.297   7.391   8.211  0.3390  0.3007  0.2956
  139MOL0     C18642   3.314   7.435   8.064 -0.0470  0.0883  0.6789
  139MOL0     C18643   3.442   7.364   8.006 -0.1709 -0.3466 -0.7533
  139MOL0     C18644   3.453   7.434   7.872 -0.1691  0.2531  0.2836
  139MOL0     C18645   3.588   7.391   7.802  0.4767 -0.2872 -0.2118
  139MOL0     C18646   3.610   7.461   7.669  0.0261 -0.9485  0.4487
  139MOL0     N18647   3.744   7.440   7.626  0.2150 -0.3858  0.2179
  139MOL0     C18648   3.821   7.540   7.579  0.1706 -0.4543  0.3595
  139MOL0     C18649   3.933   7.468   7.545 -0.1028 -0.2372 -0.1133
  139MOL0     C18650   4.054   7.526   7.470 -0.1587 -0.3296 -0.1851
  139MOL0     C18651   4.160   7.574   7.577  0.4614 -0.2703 -0.6859
  139MOL0     C18652   4.265   7.666   7.521 -0.1742 -0.0812  0.9692
  139MOL0     C18653   4.382   7.687   7.608 -0.3222 -0.4104  0.6702
  139MOL0     O18654   4.454   7.798   7.537 -0.2643  0.0568  0.2716
  139MOL0     C18655   4.588   7.780   7.509  0.4744 -0.1260 -0.3974
  139MOL0     C18656   4.673   7.727   7.606  0.0821 -0.1556  0.9861
  139MOL0     C18657   4.805   7.710   7.573 -0.4583 -0.1574 -0.9386
  139MOL0     C18658   4.862   7.746   7.450 -0.4099 -0.7314  0.2528
  139MOL0     C18659   5.012   7.731   7.420 -0.3578  0.0771 -0.7117
  139MOL0     O18660   5.062   7.740   7.287  0.5506 -0.5135  0.3447
  139MOL0     C18661   5.192   7.731   7.255  0.0713  0.2040  0.1551
  139MOL0     C18662   5.228   7.651   7.142  0.2150  0.8446  0.4454
  139MOL0     C18663   5.356   7.642   7.107 -0.1798  0.5368 -0.6699
  139MOL0     C18664   5.458   7.713   7.173  0.2840 -0.2228  0.3659
  139MOL0     O18665   5.590   7.702   7.137 -0.1572  0.1498  0.4986
  139MOL0     C18666   5.615   7.721   6.997 -0.1900  0.2472  0.5260
  139MOL0     C18667   5.669   7.863   6.987 -0.2201  1.0966  0.6038
  139MOL0     C18668   5.811   7.886   7.048  0.1695  0.2173 -0.1659
  139MOL0     C18669   5.864   8.027   7.024 -0.5332  0.3990 -0.0286
  139MOL0     C18670   6.000   8.046   7.098  0.0365  0.1201  0.5105
  139MOL0     C18671   6.071   8.179   7.095 -0.3882 -1.2630  0.4633
  139MOL0     C18672   6.058   8.249   6.959 -0.9001  0.1824  0.3144
  139MOL0     C18673   6.199   8.316   6.921  0.4330 -0.2792 -0.1033
  139MOL0    Cl18674   6.197   8.406   6.765 -0.4211 -0.0019  0.0374
  139MOL0     C18675   5.424   7.793   7.280 -1.0259  0.4560  0.8951
  139MOL0     C18676   5.292   7.802   7.328 -0.2100 -0.1753 -0.3171
  139MOL0     O18677   5.082   7.698   7.519 -0.1157 -0.0592  0.2927
  139MOL0     C18678   4.774   7.789   7.351 -0.6659 -0.2211  0.1329
  139MOL0     C18679   4.638   7.807   7.385  0.4449  0.3700 -0.0828
  139MOL0     N18680   3.915   7.339   7.552  0.9026  1.3034  0.8519
  139MOL0     N18681   3.790   7.317   7.582 -0.1544 -0.0932  0.2155
  139MOL0     C18682   3.175   7.259   8.643  0.8154  0.3605  0.2575
  139MOL0     C18683   3.209   7.162   8.741  1.0496  0.5304  0.7498
  139MOL0     C18684   3.458   6.982   9.090 -0.1787  0.0057 -0.0738
  139MOL0     C18685   3.505   6.857   9.045 -0.0649  0.2023 -0.1161
  139MOL0     C18686   3.530   6.757   9.142  0.3297 -0.6768  0.2753
  139MOL0     C18687   3.517   6.782   9.279  0.4142  0.3054  0.2385
  139MOL0     O18688   3.547   6.671   9.347  0.1364 -0.0841  0.0241
  139MOL0     C18689   3.525   6.680   9.486 -0.0535  1.0690 -0.0232
  139MOL0     C18690   3.375   6.666   9.521  0.1705  0.1597 -0.2601
  139MOL0     C18691   3.343   6.585   9.653 -0.5975 -0.0771  0.9344
  139MOL0     C18692   3.196   6.567   9.665  0.1338 -0.6026 -1.0007
  139MOL0     C18693   3.122   6.496   9.561  0.0857 -0.2029 -0.8196
  139MOL0     C18694   3.065   6.443   9.471  0.5828  0.2125  0.3411
  139MOL0     C18695   3.477   6.910   9.326 -0.4708  0.6065  0.4413
  139MOL0     C18696   3.451   7.010   9.230 -0.5586 -0.4954  0.0178
  139MOL0     C18697   3.393   7.135   9.282  0.6173 -0.1854 -0.2679
  139MOL0     H18698   3.540   7.175   8.719  0.3513  2.7345  1.2146
  139MOL0     H18699   3.494   7.362   8.585  1.4410  0.4836 -0.4497
  139MOL0     H18700   3.126   7.297   8.392  0.0232  0.1435  4.1774
  139MOL0     H18701   3.054   7.445   8.459 -1.5466  1.1974 -1.1516
  139MOL0     H18702   3.228   7.577   8.299  1.4143  0.0968 -1.0224
  139MOL0     H18703   3.103   7.497   8.210 -2.5678 -4.3093  0.7839
  139MOL0     H18704   3.274   7.284   8.215 -2.0944  0.6998 -1.0965
  139MOL0     H18705   3.386   7.404   8.273 -0.4262  4.0094  0.8484
  139MOL0     H18706   3.230   7.412   7.997  1.1829  2.0744 -1.7162
  139MOL0     H18707   3.328   7.543   8.057 -3.4221  0.6116  0.0572
  139MOL0     H18708   3.530   7.375   8.069 -0.7550 -3.7158  0.8824
  139MOL0     H18709   3.445   7.255   8.004  2.0033 -0.4350  1.7064
  139MOL0     H18710   3.365   7.404   7.815 -1.0865 -0.5390  2.0397
  139MOL0     H18711   3.469   7.541   7.887  2.3075  0.1322 -0.8664
  139MOL0     H18712   3.593   7.286   7.773  0.6602  0.1109 -1.7171
  139MOL0     H18713   3.662   7.417   7.877 -0.1495  1.8630 -0.2700
  139MOL0     H18714   3.546   7.426   7.587  2.1993  1.2421 -2.3426
  139MOL0     H18715   3.595   7.569   7.669 -0.3677 -1.0029  0.2172
  139MOL0     H18716   3.797   7.645   7.568 -2.5546 -1.0104  0.0650
  139MOL0     H18717   4.093   7.444   7.411  0.9089 -1.1908  1.6497
  139MOL0     H18718   4.023   7.612   7.409  1.6838  1.8613  1.7438
  139MOL0     H18719   4.104   7.624   7.657 -0.1276  2.9318 -2.9194
  139MOL0     H18720   4.209   7.488   7.624 -0.3657  0.4152  1.5854
  139MOL0     H18721   4.221   7.765   7.507  0.5526 -0.1035 -2.1264
  139MOL0     H18722   4.295   7.631   7.422 -0.4237 -0.9531  1.1897
  139MOL0     H18723   4.446   7.598   7.601 -1.2653 -1.2245  1.9890
  139MOL0     H18724   4.369   7.704   7.715 -1.0819 -1.7583  0.8128
  139MOL0     H18725   4.628   7.714   7.704 -0.4020 -0.9065  0.6781
  139MOL0     H18726   4.853   7.658   7.656 -3.0287 -0.4230  0.5159
  139MOL0     H18727   5.153   7.591   7.091 -0.2899  1.1781  0.7829
  139MOL0     H18728   5.391   7.583   7.023 -0.7340  3.6337 -3.2856
  139MOL0     H18729   5.688   7.649   6.960 -0.2286  0.5504 -0.1607
  139MOL0     H18730   5.525   7.727   6.935 -0.9392  2.4009  1.6996
  139MOL0     H18731   5.672   7.892   6.882  0.6735  0.1976  0.3625
  139MOL0     H18732   5.591   7.928   7.027 -2.3552 -1.5119  1.0142
  139MOL0     H18733   5.803   7.857   7.153 -0.8495  3.2092  0.7036
  139MOL0     H18734   5.881   7.812   7.009 -0.9356 -0.6959 -0.4691
  139MOL0     H18735   5.799   8.114   7.039 -1.4284  0.0964 -1.8487
  139MOL0     H18736   5.905   8.018   6.923  1.6074 -0.3032  0.8465
  139MOL0     H18737   6.064   7.967   7.058  1.6255  2.3034 -1.5645
  139MOL0     H18738   5.979   8.005   7.197  0.5240 -1.4524 -0.0102
  139MOL0     H18739   6.011   8.232   7.169 -1.1504  0.0961 -1.0704
  139MOL0     H18740   6.175   8.167   7.127 -0.0379 -6.3092 -1.6805
  139MOL0     H18741   5.977   8.322   6.967  0.5177  1.6816  1.8896
  139MOL0     H18742   6.039   8.177   6.880  0.9438  1.0569 -0.9955
  139MOL0     H18743   6.240   8.388   6.993  2.8529 -0.8570 -0.8024
  139MOL0     H18744   6.275   8.237   6.913  0.5533 -0.2321  0.5542
  139MOL0     H18745   5.498   7.853   7.332 -0.1519  0.0659  0.1263
  139MOL0     H18746   5.273   7.856   7.420  0.7327 -0.3136 -0.0235
  139MOL0     H18747   4.813   7.809   7.252  3.1443  0.1411  1.5366
  139MOL0     H18748   4.573   7.850   7.310  1.3581  1.1270 -0.4609
  139MOL0     H18749   3.070   7.273   8.616  0.0250 -0.7146  2.5066
  139MOL0     H18750   3.124   7.104   8.774  0.8353 -0.4288 -1.3141
  139MOL0     H18751   3.521   6.835   8.940 -2.9180  1.4142 -0.9001
  139MOL0     H18752   3.567   6.668   9.093 -3.4400 -1.0868 -2.2412
  139MOL0     H18753   3.576   6.764   9.534 -0.9040  2.5961 -1.6692
  139MOL0     H18754   3.575   6.587   9.514  1.0282  1.1505 -1.5902
  139MOL0     H18755   3.326   6.618   9.436  2.6848 -0.5334 -1.3851
  139MOL0     H18756   3.321   6.760   9.540  0.8385  0.8207 -1.5292
  139MOL0     H18757   3.389   6.630   9.742  0.9691  1.9606 -0.7924
  139MOL0     H18758   3.401   6.492   9.649  1.6364  1.1034  2.8539
  139MOL0     H18759   3.184   6.493   9.745 -0.1349  0.1787 -0.2910
  139MOL0     H18760   3.159   6.668   9.687 -0.2460 -0.9682  0.1555
  139MOL0     H18761   3.033   6.394   9.381  0.1184  2.5614 -0.8604
  139MOL0     H18762   3.466   6.925   9.433 -1.0154  0.0093  0.4763
  139MOL0     H18763   3.359   7.125   9.385  0.9153 -0.7142 -0.2199
  139MOL0     H18764   3.476   7.205   9.277  2.7223 -2.5967 -1.5677
  139MOL0     H18765   3.302   7.159   9.225 -1.7198 -3.9758  1.4253
  140MOL0     O18766   7.901   3.822   1.550 -0.0259  0.4650  0.1890
  140MOL0     C18767   7.821   3.814   1.645 -0.1090  0.7562 -0.1879
  140MOL0     O18768   7.804   3.914   1.742  0.1279  0.2369  0.6676
  140MOL0     C18769   7.873   4.032   1.744  0.6844 -0.4519  0.1663
  140MOL0     C18770   7.940   4.090   1.844 -0.1282 -0.9272  0.5614
  140MOL0     C18771   7.997   4.221   1.828 -0.5563 -1.3679 -0.1935
  140MOL0     C18772   7.983   4.295   1.715  0.6241  0.4863 -0.9983
  140MOL0     O18773   8.049   4.417   1.684 -0.5182  0.6631 -0.5764
  140MOL0     C18774   8.097   4.495   1.794  0.3033  0.6672  0.1594
  140MOL0     C18775   8.135   4.630   1.754 -0.9263  0.0230 -0.6174
  140MOL0     C18776   8.256   4.633   1.652 -0.0799  0.0579  0.4622
  140MOL0     C18777   8.258   4.769   1.579  0.5311 -0.2454 -0.0501
  140MOL0     C18778   8.391   4.786   1.501  0.2598  0.3845  0.2890
  140MOL0     C18779   8.379   4.891   1.396 -0.5704 -0.7081 -0.4217
  140MOL0     C18780   8.522   4.918   1.339  0.0526 -0.0281  0.0899
  140MOL0     C18781   8.570   4.797   1.253 -0.1957 -0.2312 -0.1287
  140MOL0     N18782   8.567   4.841   1.111  0.2182 -0.1989  0.0757
  140MOL0     C18783   8.682   4.889   1.053 -0.1481  0.3550 -0.7799
  140MOL0     C18784   8.639   4.907   0.925 -1.1613 -1.1072 -0.2769
  140MOL0     C18785   8.710   4.957   0.795 -0.0262 -0.4823  0.6533
  140MOL0     C18786   8.715   5.106   0.778 -1.4621 -0.1870 -0.2943
  140MOL0     C18787   8.582   5.179   0.790  0.0796  0.4659 -0.8545
  140MOL0     C18788   8.578   5.319   0.723  0.1408 -0.1530 -0.5394
  140MOL0     O18789   8.659   5.332   0.601  0.3335  0.0312  0.0570
  140MOL0     C18790   8.638   5.448   0.528  0.9690 -0.8810  0.2201
  140MOL0     C18791   8.669   5.452   0.391 -0.3917 -1.0051  0.8014
  140MOL0     C18792   8.662   5.575   0.310  0.4363 -0.1484 -0.2059
  140MOL0     C18793   8.578   5.680   0.362 -0.7613 -1.0449  0.8008
  140MOL0     C18794   8.553   5.807   0.279 -0.6417 -0.2391 -1.2010
  140MOL0     O18795   8.462   5.903   0.325  0.0745  0.4405  0.4475
  140MOL0     C18796   8.393   5.978   0.228 -0.1321 -0.2467 -0.0396
  140MOL0     C18797   8.381   6.112   0.251  0.2914  0.1516  0.3731
  140MOL0     C18798   8.306   6.199   0.162  0.6418  0.8354 -0.4658
  140MOL0     C18799   8.257   6.148   0.042 -0.3657  0.8454 -0.1779
  140MOL0     O18800   8.206   6.224  -0.059  0.1828 -0.1975  0.2797
  140MOL0     C18801   8.199   6.364  -0.036  0.0799  0.9887 -0.1200
  140MOL0     C18802   8.115   6.436  -0.148  0.1449 -0.1022 -0.1526
  140MOL0     C18803   8.040   6.555  -0.081 -0.1317 -1.3298 -1.2395
  140MOL0     C18804   7.959   6.636  -0.182  0.5736 -0.1688 -0.8011
  140MOL0     C18805   7.906   6.769  -0.127 -0.3739  0.5123 -0.4346
  140MOL0     C18806   7.771   6.801  -0.195  1.0341 -0.2959  0.0454
  140MOL0     C18807   7.751   6.955  -0.179 -0.5375 -0.6854  0.3352
  140MOL0     C18808   7.602   6.999  -0.193 -0.5029 -0.6252  0.9482
  140MOL0    Cl18809   7.549   6.966  -0.364  0.0099  0.1445 -0.0901
  140MOL0     C18810   8.277   6.015   0.010  0.2093 -0.1637 -0.4938
  140MOL0     C18811   8.336   5.931   0.108 -0.1564  1.0748  0.1801
  140MOL0     O18812   8.603   5.816   0.170 -0.1529  0.1248 -0.5446
  140MOL0     C18813   8.521   5.665   0.486  0.7737  0.8662 -1.1670
  140MOL0     C18814   8.552   5.557   0.570  0.0920  0.0159 -0.3888
  140MOL0     N18815   8.506   4.871   0.912  0.3089  0.1823 -0.2708
  140MOL0     N18816   8.460   4.837   1.027 -0.4265 -0.1184 -0.6751
  140MOL0     C18817   7.901   4.244   1.617 -0.6822 -0.6442  0.3061
  140MOL0     C18818   7.853   4.113   1.629  0.8943 -0.8996  0.2967
  140MOL0     C18819   7.742   3.684   1.670  0.0563 -0.2076 -0.6076
  140MOL0     C18820   7.643   3.691   1.759  0.2511  0.5811 -0.1401
  140MOL0     C18821   7.540   3.602   1.773  0.4586 -0.3825  0.6326
  140MOL0     C18822   7.543   3.496   1.679  0.2011 -1.2966 -0.8974
  140MOL0     O18823   7.441   3.406   1.671 -0.3434  0.4641  0.2031
  140MOL0     C18824   7.330   3.409   1.765 -0.1663  0.8546 -0.3563
  140MOL0     C18825   7.212   3.490   1.706  0.8116 -1.0849  0.3287
  140MOL0     C18826   7.088   3.445   1.767 -0.1891  0.0976  0.0870
  140MOL0     C18827   6.967   3.473   1.682 -0.3454  0.1461  1.1629
  140MOL0     C18828   6.852   3.431   1.758 -0.6755  0.7900 -0.0705
  140MOL0     C18829   6.756   3.379   1.800 -0.5887 -0.3190 -0.0839
  140MOL0     C18830   7.656   3.480   1.605  0.1669  0.4131 -0.1737
  140MOL0     C18831   7.756   3.575   1.589 -0.8116  0.5754  0.4691
  140MOL0     C18832   7.866   3.545   1.495 -0.4725 -0.3523 -0.1031
  140MOL0     H18833   7.959   4.032   1.934  0.8967 -3.2557 -1.0433
  140MOL0     H18834   8.066   4.248   1.907  0.1293  2.0520 -1.7867
  140MOL0     H18835   8.008   4.496   1.857  0.6341  2.0161  0.6364
  140MOL0     H18836   8.165   4.432   1.853 -0.0119 -2.5879 -2.6008
  140MOL0     H18837   8.166   4.688   1.842  2.0353 -1.6909 -0.3834
  140MOL0     H18838   8.058   4.691   1.707  0.1929  0.0308 -2.5579
  140MOL0     H18839   8.249   4.556   1.574  0.6417 -0.2781  0.7242
  140MOL0     H18840   8.345   4.618   1.713 -0.5367 -0.2673  1.0592
  140MOL0     H18841   8.178   4.766   1.504 -0.7840 -0.5706  1.3301
  140MOL0     H18842   8.257   4.860   1.639  1.8880  1.1732 -2.0125
  140MOL0     H18843   8.478   4.800   1.566 -1.5410 -1.3653  3.2726
  140MOL0     H18844   8.416   4.691   1.454 -0.2117 -0.4106  1.5931
  140MOL0     H18845   8.308   4.866   1.316 -1.8589  0.8681  0.1625
  140MOL0     H18846   8.337   4.983   1.437 -1.0509 -0.7203 -0.8686
  140MOL0     H18847   8.590   4.929   1.423 -1.1384  0.1565  1.0623
  140MOL0     H18848   8.532   5.007   1.277  2.9051 -0.3081  0.0507
  140MOL0     H18849   8.674   4.778   1.282 -0.3993  3.3432  4.0827
  140MOL0     H18850   8.510   4.707   1.267 -0.1700  0.2180  4.7057
  140MOL0     H18851   8.782   4.893   1.095 -0.8105 -1.2350  1.1072
  140MOL0     H18852   8.808   4.910   0.786 -0.4854 -1.0014 -3.1956
  140MOL0     H18853   8.643   4.921   0.717  0.6177 -0.0412 -0.1113
  140MOL0     H18854   8.788   5.154   0.844 -0.1075  1.1494 -2.6077
  140MOL0     H18855   8.753   5.125   0.677  0.3702  0.7227  0.5187
  140MOL0     H18856   8.544   5.176   0.892 -0.6095 -0.8687 -1.1257
  140MOL0     H18857   8.513   5.117   0.731  0.6112 -2.7304  1.6109
  140MOL0     H18858   8.608   5.392   0.799  0.1275 -1.8069  1.1061
  140MOL0     H18859   8.473   5.343   0.705  0.2984  1.9146  0.8574
  140MOL0     H18860   8.715   5.367   0.342  0.7689 -1.2032  2.1587
  140MOL0     H18861   8.715   5.578   0.216  1.2394  2.3176  0.2645
  140MOL0     H18862   8.423   6.148   0.344 -2.8000  2.7478  0.9434
  140MOL0     H18863   8.296   6.304   0.190 -0.4559  0.8693 -0.9356
  140MOL0     H18864   8.142   6.367   0.057 -1.7281  1.7605 -1.1808
  140MOL0     H18865   8.299   6.409  -0.035  0.8870 -0.5640 -2.4977
  140MOL0     H18866   8.175   6.473  -0.231 -0.4468  0.7773 -0.2033
  140MOL0     H18867   8.037   6.366  -0.176 -0.6107  0.0750  1.3717
  140MOL0     H18868   7.978   6.520   0.002  1.5729  0.0297  0.6949
  140MOL0     H18869   8.120   6.622  -0.047 -2.3303  1.0129 -0.4013
  140MOL0     H18870   7.876   6.568  -0.205  0.9717 -0.6935 -0.7003
  140MOL0     H18871   8.010   6.658  -0.277  2.7437 -4.0593 -0.7580
  140MOL0     H18872   7.965   6.856  -0.157 -0.6684  0.5572 -0.8986
  140MOL0     H18873   7.893   6.764  -0.018 -0.8113 -2.7688 -0.5202
  140MOL0     H18874   7.764   6.768  -0.299 -1.1955  2.3614 -0.7743
  140MOL0     H18875   7.688   6.745  -0.149  0.4473 -0.1657 -0.8277
  140MOL0     H18876   7.811   7.004  -0.256  0.4504  1.6313  2.4406
  140MOL0     H18877   7.779   6.994  -0.081 -0.0449  0.2211 -0.1610
  140MOL0     H18878   7.541   6.945  -0.119 -0.4408 -1.5043  0.3776
  140MOL0     H18879   7.590   7.103  -0.163  0.9966 -0.9394  2.8894
  140MOL0     H18880   8.232   5.980  -0.082 -2.3696  4.0176 -1.1155
  140MOL0     H18881   8.338   5.824   0.092  0.1480  0.5054  3.3535
  140MOL0     H18882   8.451   5.740   0.520  0.5671  1.1496 -2.1783
  140MOL0     H18883   8.506   5.544   0.668  1.1055 -2.4463 -0.1667
  140MOL0     H18884   7.882   4.311   1.534  1.4031  1.2274  1.2424
  140MOL0     H18885   7.777   4.085   1.557  0.0855  1.2358  0.2477
  140MOL0     H18886   7.641   3.783   1.817 -2.2016  1.3600 -1.3229
  140MOL0     H18887   7.450   3.623   1.831  0.9793  0.2729  1.2311
  140MOL0     H18888   7.345   3.452   1.865  1.9693  2.0092 -1.1145
  140MOL0     H18889   7.299   3.305   1.779 -5.2634  2.0005 -1.0993
  140MOL0     H18890   7.219   3.485   1.597  1.6446  0.2534  0.2973
  140MOL0     H18891   7.233   3.594   1.733  2.3480 -0.4210 -2.9847
  140MOL0     H18892   7.071   3.479   1.869  0.3566  1.0553 -0.1230
  140MOL0     H18893   7.091   3.336   1.767  0.0529  0.1008  0.7478
  140MOL0     H18894   6.964   3.579   1.655  0.2297  0.3026  1.6968
  140MOL0     H18895   6.953   3.421   1.586 -1.8045  1.2895  0.7228
  140MOL0     H18896   6.666   3.336   1.839  0.7375 -3.5244 -0.2630
  140MOL0     H18897   7.646   3.390   1.546  0.1570  1.4230 -1.7852
  140MOL0     H18898   7.873   3.441   1.463  2.5141 -0.3567  0.3459
  140MOL0     H18899   7.860   3.609   1.407  0.1257 -0.6896 -0.3944
  140MOL0     H18900   7.960   3.566   1.547 -1.3566  0.9167  1.0499
  141MOL0     O18901   1.943   9.818   5.140  0.5843 -0.4782 -0.7617
  141MOL0     C18902   2.031   9.870   5.209  0.1864  0.8495 -0.5943
  141MOL0     O18903   2.007   9.938   5.328  0.3562 -0.5428  0.2165
  141MOL0     C18904   1.885   9.989   5.363 -0.2379 -0.0760  0.3130
  141MOL0     C18905   1.827  10.108   5.310  0.2522 -0.9218  0.0570
  141MOL0     C18906   1.715  10.171   5.365  1.0918  0.1777 -0.7046
  141MOL0     C18907   1.652  10.108   5.477  0.0766  0.5587  0.4567
  141MOL0     O18908   1.533  10.160   5.518 -0.0968 -0.6948  0.4433
  141MOL0     C18909   1.554  10.281   5.595  0.6924 -0.0046 -1.0582
  141MOL0     C18910   1.407  10.342   5.627  0.6648 -0.0704 -0.3112
  141MOL0     C18911   1.336  10.392   5.495 -0.2211 -0.3173  0.4055
  141MOL0     C18912   1.192  10.416   5.545 -1.1318 -0.7807  0.2061
  141MOL0     C18913   1.114  10.468   5.432  0.2155  0.1327  0.7497
  141MOL0     C18914   0.973  10.510   5.471 -0.3326  0.3792  0.6307
  141MOL0     C18915   0.888  10.560   5.357  0.2464 -0.0901  0.9710
  141MOL0     C18916   0.746  10.613   5.398 -0.6509  0.1197  0.1821
  141MOL0     N18917   0.666  10.667   5.292  0.5467  0.1491 -0.1484
  141MOL0     C18918   0.551  10.750   5.302 -0.4716  0.1598  0.7770
  141MOL0     C18919   0.534  10.781   5.171 -0.3847  0.3991  0.8447
  141MOL0     C18920   0.417  10.861   5.109 -0.4293  0.1169  0.3170
  141MOL0     C18921   0.440  10.936   4.973 -0.1051  0.6440  0.0015
  141MOL0     C18922   0.314  11.015   4.930 -0.0945  0.9867  0.2253
  141MOL0     C18923   0.305  11.143   5.007 -0.9289  0.4067 -0.8366
  141MOL0     O18924   0.398  11.237   4.964  0.5306 -0.5252  0.1008
  141MOL0     C18925   0.383  11.373   4.985  0.3051 -0.2627 -0.5770
  141MOL0     C18926   0.472  11.466   4.938  0.6634  0.1408  0.2824
  141MOL0     C18927   0.468  11.597   4.981  0.4393  0.1121 -0.8275
  141MOL0     C18928   0.376  11.645   5.073  0.2792  0.5090  0.5912
  141MOL0     C18929   0.367  11.788   5.116 -0.1906  0.3256  0.3157
  141MOL0     O18930   0.437  11.875   5.036  0.4949 -0.4016  1.1673
  141MOL0     C18931   0.442  12.006   5.067 -0.4847  0.4500 -0.5335
  141MOL0     C18932   0.430  12.102   4.974  0.8727 -1.3476  0.8304
  141MOL0     C18933   0.428  12.238   5.001  0.0404 -0.1795 -0.4786
  141MOL0     C18934   0.448  12.281   5.133  0.4049 -0.5232  0.1173
  141MOL0     O18935   0.442  12.415   5.173  0.1015 -0.7719  0.3178
  141MOL0     C18936   0.440  12.512   5.057  0.3947  0.8156  0.1322
  141MOL0     C18937   0.417  12.650   5.098 -0.3665 -0.5247 -0.4900
  141MOL0     C18938   0.296  12.667   5.185  0.3222 -0.3124 -0.3416
  141MOL0     C18939   0.276  12.813   5.224  0.0318  0.4277 -0.2209
  141MOL0     C18940   0.141  12.833   5.285  0.1494  0.0207 -0.1772
  141MOL0     C18941   0.118  12.987   5.313  1.3572  0.3197  0.3405
  141MOL0     C18942  -0.014  13.027   5.392  0.2033  0.0892  0.9461
  141MOL0     C18943   0.005  13.146   5.480 -0.9276  0.3431  0.6584
  141MOL0    Cl18944   0.041  13.285   5.379  0.6449  0.0712  0.2059
  141MOL0     C18945   0.447  12.177   5.237 -0.6290 -0.2197  0.4442
  141MOL0     C18946   0.452  12.045   5.201 -0.1615 -0.6225 -0.8699
  141MOL0     O18947   0.285  11.824   5.206  0.1306 -0.4074  0.7813
  141MOL0     C18948   0.288  11.551   5.131  0.3191 -0.6467 -0.7905
  141MOL0     C18949   0.291  11.424   5.083  0.1212  0.7015  0.4093
  141MOL0     N18950   0.634  10.723   5.089  0.2722 -0.0162  0.9112
  141MOL0     N18951   0.705  10.643   5.164  0.2856  1.2799 -0.0391
  141MOL0     C18952   1.701   9.985   5.527 -0.2558 -0.0722 -0.4888
  141MOL0     C18953   1.815   9.930   5.475 -0.2072 -0.8394  0.3710
  141MOL0     C18954   2.169   9.880   5.149  0.1977 -0.5899  0.4957
  141MOL0     C18955   2.232   9.998   5.191 -0.7176 -0.0455  0.0821
  141MOL0     C18956   2.368  10.029   5.154  0.0530 -0.0300 -0.4187
  141MOL0     C18957   2.430   9.949   5.057  0.1142 -1.0000 -0.3163
  141MOL0     O18958   2.557   9.986   5.029  0.0830  0.1733  0.1152
  141MOL0     C18959   2.629   9.910   4.931 -0.1042 -0.2559 -0.6814
  141MOL0     C18960   2.768   9.961   4.919 -0.9841  0.3032  0.0095
  141MOL0     C18961   2.864   9.850   4.867  0.1106  0.4598 -0.3428
  141MOL0     C18962   2.976   9.896   4.770  0.8945 -0.9337 -0.4748
  141MOL0     C18963   3.069   9.991   4.830  0.0542  0.2280  0.2218
  141MOL0     C18964   3.146  10.068   4.885  1.1604  0.3726 -0.3577
  141MOL0     C18965   2.357   9.852   4.994  0.6691  1.0728  0.5021
  141MOL0     C18966   2.228   9.810   5.046  0.4866 -0.3030  1.0275
  141MOL0     C18967   2.173   9.691   4.972  0.1377 -0.7571  0.0917
  141MOL0     H18968   1.876  10.150   5.223  0.7937  1.5984  1.4838
  141MOL0     H18969   1.673  10.255   5.310  0.2782 -1.1763 -2.2420
  141MOL0     H18970   1.612  10.251   5.682 -2.1143 -2.7656  0.0725
  141MOL0     H18971   1.598  10.360   5.534 -1.8296  3.1732  0.8546
  141MOL0     H18972   1.413  10.421   5.703  1.2347  1.1895 -1.6158
  141MOL0     H18973   1.344  10.266   5.674 -1.7750  2.0778  0.1019
  141MOL0     H18974   1.334  10.320   5.413  0.3300 -2.0451  1.8375
  141MOL0     H18975   1.387  10.485   5.467 -1.2091  0.3384  0.7331
  141MOL0     H18976   1.157  10.317   5.579 -1.4093 -0.4338  0.9600
  141MOL0     H18977   1.188  10.479   5.634 -1.8609 -0.5923  0.0458
  141MOL0     H18978   1.161  10.549   5.376  0.8622  0.6642  2.0197
  141MOL0     H18979   1.102  10.393   5.353  4.5068  1.2349 -1.2057
  141MOL0     H18980   0.908  10.434   5.517  1.1031 -1.5877 -0.4066
  141MOL0     H18981   0.982  10.600   5.532  4.1445  2.1193 -2.1467
  141MOL0     H18982   0.877  10.492   5.272 -2.0691  2.0145 -0.5942
  141MOL0     H18983   0.948  10.643   5.316 -0.1241 -0.8845 -1.3209
  141MOL0     H18984   0.697  10.520   5.425  0.7890 -1.3448 -1.9316
  141MOL0     H18985   0.749  10.685   5.481 -0.7378 -1.4581  1.6282
  141MOL0     H18986   0.486  10.776   5.384 -1.1991 -0.4374  0.4009
  141MOL0     H18987   0.344  10.780   5.102  2.0779 -2.2410 -0.1049
  141MOL0     H18988   0.372  10.927   5.184 -1.2374  1.0211 -0.9122
  141MOL0     H18989   0.516  11.013   4.988 -0.9245  0.8591  4.0155
  141MOL0     H18990   0.478  10.873   4.891  2.8558  1.9909  0.2168
  141MOL0     H18991   0.223  10.955   4.942  0.4830 -0.6692 -2.7199
  141MOL0     H18992   0.323  11.040   4.824 -0.7597 -0.6873 -0.2645
  141MOL0     H18993   0.324  11.115   5.111  0.6763  0.5817 -1.0443
  141MOL0     H18994   0.201  11.176   5.000 -1.8878 -1.9029  1.3229
  141MOL0     H18995   0.550  11.433   4.870  2.3663  0.1238  2.1689
  141MOL0     H18996   0.544  11.663   4.942  3.1523 -2.8776 -0.9770
  141MOL0     H18997   0.407  12.067   4.873 -0.1071  0.2868  0.4503
  141MOL0     H18998   0.407  12.303   4.917 -0.4145 -0.6748 -0.7558
  141MOL0     H18999   0.529  12.502   4.993 -0.3978  0.5088 -0.9620
  141MOL0     H19000   0.354  12.495   4.991  1.8630 -1.6541 -1.2972
  141MOL0     H19001   0.510  12.676   5.148  0.0125 -1.0215 -0.9227
  141MOL0     H19002   0.413  12.704   5.002 -1.9789  1.8159  0.7897
  141MOL0     H19003   0.218  12.631   5.116  0.4310 -2.0200  0.3771
  141MOL0     H19004   0.308  12.607   5.276  1.5718 -1.9978 -1.5530
  141MOL0     H19005   0.294  12.878   5.138  1.1722 -1.0689 -1.1796
  141MOL0     H19006   0.349  12.836   5.302 -0.2155  1.1117 -0.1840
  141MOL0     H19007   0.143  12.765   5.371  0.3817 -1.9428 -1.6426
  141MOL0     H19008   0.054  12.809   5.224 -2.1610  3.9225  1.2174
  141MOL0     H19009   0.205  13.025   5.368  1.0376 -1.0969  1.9000
  141MOL0     H19010   0.122  13.054   5.226 -2.3529  0.8788  0.4631
  141MOL0     H19011  -0.062  12.940   5.437  0.2871 -0.8232 -0.6591
  141MOL0     H19012  -0.077  13.066   5.311  1.0273 -1.1151 -0.3138
  141MOL0     H19013  -0.081  13.158   5.546 -2.8348 -0.0860 -1.6393
  141MOL0     H19014   0.097  13.130   5.537 -0.1816  1.0691 -0.3041
  141MOL0     H19015   0.465  12.201   5.341  0.1140 -2.8583  1.0154
  141MOL0     H19016   0.484  11.967   5.269  1.9587  2.2773  1.6934
  141MOL0     H19017   0.218  11.578   5.209 -0.5232 -0.9093 -1.4370
  141MOL0     H19018   0.221  11.355   5.129  0.3092 -1.1205 -1.8759
  141MOL0     H19019   1.638   9.931   5.597  0.6408 -1.6779 -0.8766
  141MOL0     H19020   1.859   9.837   5.508  2.1179 -1.0093 -2.7496
  141MOL0     H19021   2.183  10.065   5.261 -3.5333  0.2227 -1.9788
  141MOL0     H19022   2.424  10.114   5.192 -1.2639  0.8586 -0.3838
  141MOL0     H19023   2.574   9.914   4.837 -1.2596 -0.8036 -0.0465
  141MOL0     H19024   2.635   9.806   4.965 -1.0498  0.0298  0.4452
  141MOL0     H19025   2.787  10.002   5.019 -2.3470  0.5393  0.1924
  141MOL0     H19026   2.780  10.052   4.858 -0.9527 -0.5580 -1.3027
  141MOL0     H19027   2.817   9.765   4.817  1.9157 -0.2232 -0.9799
  141MOL0     H19028   2.917   9.815   4.956 -0.5170 -0.3123 -0.2627
  141MOL0     H19029   3.038   9.813   4.733  1.5501  0.4936 -2.7540
  141MOL0     H19030   2.930   9.945   4.684 -2.8936 -1.3114  1.1132
  141MOL0     H19031   3.212  10.143   4.923 -0.2682  1.1496  0.7041
  141MOL0     H19032   2.404   9.788   4.920 -0.4360  1.3780 -0.5007
  141MOL0     H19033   2.245   9.618   4.934  1.1932  1.2755 -2.0470
  141MOL0     H19034   2.107   9.635   5.039  0.5337 -0.5784  0.6420
  141MOL0     H19035   2.123   9.734   4.885  0.0874  0.9547  0.9267
  142MOL0     O19036   3.445   5.275   9.955 -0.0925  0.8035 -0.4852
  142MOL0     C19037   3.349   5.220   9.903 -0.2296  0.2399  0.6073
  142MOL0     O19038   3.331   5.087   9.892 -0.2650  0.1794  0.6104
  142MOL0     C19039   3.408   4.993   9.948 -0.9182  0.8894  0.4025
  142MOL0     C19040   3.352   4.868   9.946  0.5929  0.2682 -0.0241
  142MOL0     C19041   3.409   4.758  10.016  0.1190  0.8788 -0.3808
  142MOL0     C19042   3.540   4.765  10.070 -0.1470 -1.2046  0.6888
  142MOL0     O19043   3.597   4.654  10.117  0.5668  0.8809 -0.6052
  142MOL0     C19044   3.736   4.666  10.163  0.1621  0.0574  0.6692
  142MOL0     C19045   3.776   4.518  10.193 -0.0578  0.1232 -1.0176
  142MOL0     C19046   3.918   4.523  10.237 -0.0650  0.0037  0.5462
  142MOL0     C19047   3.946   4.523  10.386  2.0213 -0.8690 -0.5689
  142MOL0     C19048   4.094   4.546  10.412  0.4716 -0.1597  0.4616
  142MOL0     C19049   4.139   4.688  10.397  0.5751 -0.6389  0.3675
  142MOL0     C19050   4.079   4.776  10.508  0.4254 -0.4143 -0.9128
  142MOL0     C19051   4.082   4.723  10.656  0.1920  0.1987 -0.5928
  142MOL0     N19052   4.027   4.829  10.760 -0.3113 -0.4921  0.0621
  142MOL0     C19053   4.037   4.960  10.752 -0.5883 -0.1547 -0.4156
  142MOL0     C19054   4.050   5.007  10.878  0.4755 -0.2816  0.7182
  142MOL0     C19055   4.071   5.153  10.902 -0.7526  0.2931  0.1686
  142MOL0     C19056   3.959   5.243  10.859  0.3902 -0.3096  0.0216
  142MOL0     C19057   3.970   5.286  10.707 -0.0157  0.4533 -0.2089
  142MOL0     C19058   4.069   5.400  10.683  0.2597  0.5354  0.4316
  142MOL0     O19059   4.021   5.525  10.745  0.3127  0.2318 -0.2443
  142MOL0     C19060   4.101   5.635  10.770  0.2871 -0.1288 -0.3919
  142MOL0     C19061   4.040   5.752  10.807 -0.0929  0.3473 -0.1819
  142MOL0     C19062   4.116   5.873  10.819 -0.4227 -0.2678 -1.4277
  142MOL0     C19063   4.258   5.874  10.790  0.5036  1.2668 -0.4596
  142MOL0     C19064   4.341   5.996  10.780  0.2736 -0.2534 -0.5049
  142MOL0     O19065   4.460   5.989  10.709  0.0775  0.8118 -1.0246
  142MOL0     C19066   4.534   6.107  10.703 -0.9825 -0.2340  0.1198
  142MOL0     C19067   4.551   6.195  10.812  0.2141 -0.6768 -0.3903
  142MOL0     C19068   4.634   6.300  10.807  0.2452  0.4523  0.7452
  142MOL0     C19069   4.701   6.334  10.692  0.0715  0.1418  0.1236
  142MOL0     O19070   4.781   6.452  10.692  0.0446  0.1087 -0.0430
  142MOL0     C19071   4.860   6.476  10.576  0.4816 -0.3454 -0.3385
  142MOL0     C19072   4.954   6.590  10.600  0.1587  0.7093 -0.7026
  142MOL0     C19073   5.028   6.613  10.471 -0.1383 -0.1406 -0.2984
  142MOL0     C19074   5.159   6.686  10.477  0.0177  1.2258 -0.5300
  142MOL0     C19075   5.157   6.822  10.544 -0.4103 -0.3631 -0.6192
  142MOL0     C19076   5.299   6.879  10.554  0.1901 -0.3112  0.0661
  142MOL0     C19077   5.305   7.003  10.640  0.3548 -0.1768  0.2530
  142MOL0     C19078   5.442   7.022  10.701 -0.2648 -0.0367 -0.7823
  142MOL0    Cl19079   5.435   7.162  10.819 -0.3167  0.2228  0.3302
  142MOL0     C19080   4.668   6.259  10.574 -0.5260  0.1118  0.2860
  142MOL0     C19081   4.591   6.146  10.587  0.0460  0.3890  0.2567
  142MOL0     O19082   4.294   6.100  10.825  0.9790 -0.1608  0.4507
  142MOL0     C19083   4.317   5.754  10.750 -0.2101  0.1250  0.0399
  142MOL0     C19084   4.237   5.637  10.741 -0.8954 -0.0218 -0.4287
  142MOL0     N19085   4.038   4.900  10.967  0.5914 -0.0350 -0.5163
  142MOL0     N19086   4.017   4.802  10.887 -0.1564  1.0185 -0.0707
  142MOL0     C19087   3.597   4.891  10.065  0.6194  0.4327 -0.5313
  142MOL0     C19088   3.534   5.005  10.009  0.0253  0.3595 -0.1740
  142MOL0     C19089   3.246   5.313   9.849 -0.4159  1.3291 -0.4216
  142MOL0     C19090   3.159   5.257   9.755  0.2637  0.1901  0.1354
  142MOL0     C19091   3.065   5.325   9.684 -0.7698  0.3505 -1.1945
  142MOL0     C19092   3.028   5.454   9.724 -0.1506 -0.9062  0.7307
  142MOL0     O19093   2.929   5.538   9.673  0.4318 -0.1144  0.5121
  142MOL0     C19094   2.867   5.496   9.554  0.6867  0.4005  0.0921
  142MOL0     C19095   2.746   5.400   9.580 -0.3475  0.1570  0.0015
  142MOL0     C19096   2.634   5.454   9.673 -0.8257  1.1079  0.7034
  142MOL0     C19097   2.563   5.586   9.637  0.4647 -0.6189 -0.2051
  142MOL0     C19098   2.637   5.708   9.660 -0.3019 -0.2641  0.4286
  142MOL0     C19099   2.728   5.793   9.656 -0.3836 -0.3661 -0.3519
  142MOL0     C19100   3.096   5.507   9.827 -0.8761  0.4056 -0.0899
  142MOL0     C19101   3.208   5.440   9.891 -0.4292  0.9970 -0.4452
  142MOL0     C19102   3.281   5.514  10.008 -0.5750  0.4572  0.6078
  142MOL0     H19103   3.253   4.858   9.901  1.5507  0.0762 -2.2205
  142MOL0     H19104   3.369   4.658  10.029 -3.7175  2.5043  2.0974
  142MOL0     H19105   3.789   4.703  10.075 -1.4101  0.8862  0.0137
  142MOL0     H19106   3.746   4.737  10.246  0.6428 -0.8683  1.4322
  142MOL0     H19107   3.771   4.450  10.107 -1.3142 -1.1037 -0.0042
  142MOL0     H19108   3.715   4.466  10.266  1.0950 -2.2156 -1.6134
  142MOL0     H19109   3.963   4.603  10.178 -1.7260 -1.5892 -3.1629
  142MOL0     H19110   3.958   4.428  10.203 -0.5316 -0.4149  1.1504
  142MOL0     H19111   3.880   4.596  10.435 -0.8640 -1.5199 -3.1596
  142MOL0     H19112   3.916   4.426  10.426  1.2932  0.2123  1.7031
  142MOL0     H19113   4.119   4.507  10.511 -1.8755 -0.5872  0.9367
  142MOL0     H19114   4.145   4.489  10.333  3.3844  0.3977  1.8048
  142MOL0     H19115   4.246   4.699  10.414  0.5384  4.4289 -1.0652
  142MOL0     H19116   4.108   4.727  10.299 -2.0541 -0.3570  1.2220
  142MOL0     H19117   3.976   4.801  10.481  0.0307 -1.4089 -0.3806
  142MOL0     H19118   4.131   4.872  10.505  0.3657 -0.3967 -3.0343
  142MOL0     H19119   4.033   4.626  10.655  2.5930 -1.5377 -7.1725
  142MOL0     H19120   4.188   4.707  10.678 -0.1553 -0.6469  0.5461
  142MOL0     H19121   4.056   5.015  10.660  0.0927 -1.3270 -1.0062
  142MOL0     H19122   4.102   5.167  11.005  1.4085 -1.7740 -0.1076
  142MOL0     H19123   4.154   5.174  10.832 -0.2718 -2.6357 -0.2636
  142MOL0     H19124   3.864   5.193  10.883 -0.1468  1.4208  1.8098
  142MOL0     H19125   3.956   5.336  10.917  0.1606  1.4067 -2.6002
  142MOL0     H19126   3.876   5.339  10.685  1.2415  2.3367 -1.3004
  142MOL0     H19127   3.987   5.203  10.638 -1.4228 -0.3965  0.4112
  142MOL0     H19128   4.089   5.410  10.576  0.7043 -2.9429  0.0947
  142MOL0     H19129   4.162   5.376  10.735  1.4165  3.2895 -0.1586
  142MOL0     H19130   3.936   5.739  10.837 -0.6816  2.0259 -1.3468
  142MOL0     H19131   4.070   5.962  10.862 -1.7928 -1.5013 -0.2170
  142MOL0     H19132   4.506   6.178  10.909  2.0505  0.7204  0.7583
  142MOL0     H19133   4.673   6.353  10.893  2.8751  0.8780 -0.5901
  142MOL0     H19134   4.934   6.400  10.549  0.6874  0.1008 -1.0765
  142MOL0     H19135   4.794   6.494  10.490  0.8786  0.2625 -0.5198
  142MOL0     H19136   4.904   6.684  10.626 -1.0180  0.8885 -3.2965
  142MOL0     H19137   5.026   6.548  10.671 -0.3009  0.7135 -0.2347
  142MOL0     H19138   5.054   6.522  10.417 -1.2424 -1.7788  1.7895
  142MOL0     H19139   4.955   6.675  10.418 -0.8889  0.9207  1.8537
  142MOL0     H19140   5.199   6.698  10.376 -0.1013  0.8362 -0.6240
  142MOL0     H19141   5.229   6.621  10.529 -4.3461 -0.6290  3.7909
  142MOL0     H19142   5.121   6.821  10.648  2.4786 -0.1848  0.4869
  142MOL0     H19143   5.089   6.888  10.490 -0.9196 -0.1057  0.3051
  142MOL0     H19144   5.371   6.807  10.594  2.6287  1.3716 -1.0513
  142MOL0     H19145   5.339   6.904  10.455  2.0667  0.3632  0.9571
  142MOL0     H19146   5.236   6.996  10.725 -2.6932 -0.1812 -2.0568
  142MOL0     H19147   5.277   7.082  10.570 -2.7602 -3.2452 -2.3409
  142MOL0     H19148   5.475   6.928  10.745 -0.5770 -1.6791 -3.8092
  142MOL0     H19149   5.507   7.049  10.617  0.3735  0.2223 -0.2192
  142MOL0     H19150   4.714   6.291  10.482 -0.0509  0.6200  0.6929
  142MOL0     H19151   4.578   6.081  10.501  0.6188  2.0457 -1.1443
  142MOL0     H19152   4.418   5.755  10.711 -0.1769 -0.2713  0.1087
  142MOL0     H19153   4.280   5.548  10.696  0.4532 -0.9729  2.4797
  142MOL0     H19154   3.694   4.909  10.110  0.2300  0.0175  0.5215
  142MOL0     H19155   3.601   5.091  10.012  1.7309 -0.8910 -0.5148
  142MOL0     H19156   3.171   5.156   9.715 -2.4177  0.6294 -2.0683
  142MOL0     H19157   3.024   5.281   9.594  1.3426 -0.8424 -1.6286
  142MOL0     H19158   2.944   5.445   9.496  1.0106 -1.5064  2.0383
  142MOL0     H19159   2.824   5.581   9.502 -0.5216  0.5052  1.1956
  142MOL0     H19160   2.781   5.304   9.620 -2.8623  0.2172  2.6678
  142MOL0     H19161   2.708   5.377   9.480  2.6790 -0.0348 -1.2212
  142MOL0     H19162   2.681   5.460   9.771  0.4828 -0.2354  0.1854
  142MOL0     H19163   2.558   5.374   9.678  0.0422  0.1505 -0.6813
  142MOL0     H19164   2.536   5.594   9.531  0.1353  1.5658 -0.0061
  142MOL0     H19165   2.466   5.604   9.684 -1.5195  1.4976 -4.5433
  142MOL0     H19166   2.805   5.866   9.641  1.6178 -2.5246 -1.2354
  142MOL0     H19167   3.047   5.599   9.858 -1.8839 -0.8828  2.4751
  142MOL0     H19168   3.381   5.549   9.980 -0.2765 -0.2803  0.7062
  142MOL0     H19169   3.223   5.602  10.034  0.3464  0.4950  2.7685
  142MOL0     H19170   3.278   5.454  10.100 -0.9872  1.2872  1.1461
  143MOL0     O19171   0.082   7.996   3.478 -0.3632  0.2900  0.3146
  143MOL0     C19172   0.180   7.928   3.459 -0.4739 -1.2777 -0.2781
  143MOL0     O19173   0.284   7.970   3.385  0.1840  0.2361  0.6539
  143MOL0     C19174   0.270   8.089   3.330  0.4397  0.1247  0.7023
  143MOL0     C19175   0.234   8.092   3.197  0.2137 -1.0444  0.8344
  143MOL0     C19176   0.226   8.214   3.126  0.2697  0.2890  0.3421
  143MOL0     C19177   0.249   8.334   3.191 -0.1314  0.3759  0.9443
  143MOL0     O19178   0.262   8.444   3.108 -0.2556 -0.2166  0.3517
  143MOL0     C19179   0.216   8.573   3.151  0.5040 -0.0065  0.1587
  143MOL0     C19180   0.216   8.656   3.023 -0.3332 -0.5964  0.5100
  143MOL0     C19181   0.167   8.801   3.029 -0.2574  0.7659 -0.3178
  143MOL0     C19182   0.196   8.875   2.901  0.1771 -0.0136  0.3431
  143MOL0     C19183   0.203   9.025   2.918  0.3317  0.2700 -0.4896
  143MOL0     C19184   0.243   9.120   2.812  0.1182  0.2627  0.6426
  143MOL0     C19185   0.381   9.089   2.754 -0.2365 -0.4469  0.6461
  143MOL0     C19186   0.494   9.136   2.846  0.5176  0.1932 -0.0655
  143MOL0     N19187   0.530   9.281   2.834  0.6017  0.5177 -0.3081
  143MOL0     C19188   0.601   9.346   2.740 -0.2477  0.1535 -0.7243
  143MOL0     C19189   0.591   9.480   2.763  0.3180 -0.0328 -0.6462
  143MOL0     C19190   0.670   9.588   2.689  0.8759 -0.3475 -0.0023
  143MOL0     C19191   0.581   9.671   2.588 -0.6005 -0.4308 -1.1760
  143MOL0     C19192   0.517   9.583   2.488  0.1165 -0.1320 -0.9248
  143MOL0     C19193   0.398   9.656   2.430 -0.1517 -0.2099 -0.6902
  143MOL0     O19194   0.337   9.575   2.329 -0.0876  0.3221  0.2217
  143MOL0     C19195   0.263   9.458   2.361  1.0030 -1.0897  0.3461
  143MOL0     C19196   0.276   9.338   2.285 -0.0450  0.3871 -0.8620
  143MOL0     C19197   0.210   9.216   2.320  0.6077  0.3789 -0.5972
  143MOL0     C19198   0.120   9.225   2.426 -0.6227  0.0074  0.1320
  143MOL0     C19199   0.044   9.105   2.464 -0.7940 -0.2378  0.0181
  143MOL0     O19200   0.076   8.985   2.406  0.6524  0.0171  0.0631
  143MOL0     C19201   0.013   8.874   2.463  0.0418  0.0769 -0.1643
  143MOL0     C19202  -0.119   8.857   2.502  0.0601  0.2203  0.3700
  143MOL0     C19203  -0.168   8.734   2.567  0.2891  0.6908  1.8261
  143MOL0     C19204  -0.077   8.629   2.587  0.5776 -0.3731 -0.1967
  143MOL0     O19205  -0.129   8.519   2.660 -0.6933  0.0440  0.2822
  143MOL0     C19206  -0.037   8.408   2.678 -0.5104  0.3880  0.2095
  143MOL0     C19207  -0.110   8.293   2.743  0.2341  0.9177  0.1485
  143MOL0     C19208  -0.000   8.174   2.772  0.2424  0.5251 -0.1234
  143MOL0     C19209   0.099   8.137   2.667 -0.4939 -0.2877 -0.0969
  143MOL0     C19210   0.173   8.008   2.700 -0.4935 -0.3112  0.9873
  143MOL0     C19211   0.089   7.886   2.700 -0.4245  0.2059 -0.8512
  143MOL0     C19212   0.162   7.747   2.726 -0.3157  0.5226 -0.1075
  143MOL0     C19213   0.070   7.622   2.749  0.2496 -0.3856  0.0878
  143MOL0    Cl19214   0.160   7.467   2.752  0.2300 -0.6818  0.4767
  143MOL0     C19215   0.061   8.652   2.565  0.0727 -0.1311  0.2456
  143MOL0     C19216   0.103   8.772   2.503 -0.2389  0.2696  0.2987
  143MOL0     O19217  -0.031   9.124   2.561  0.2411  0.4059 -0.0875
  143MOL0     C19218   0.100   9.343   2.497 -0.7155  0.0167  0.7660
  143MOL0     C19219   0.171   9.457   2.467 -0.5668  0.1730 -0.2297
  143MOL0     N19220   0.486   9.490   2.855 -0.0455 -0.6261  0.1887
  143MOL0     N19221   0.452   9.378   2.900 -0.7335  0.2010 -0.6804
  143MOL0     C19222   0.284   8.333   3.326  0.2735  0.3701 -0.3480
  143MOL0     C19223   0.283   8.205   3.396 -0.3445  0.3538  0.3771
  143MOL0     C19224   0.197   7.784   3.506 -0.6620  0.1842 -1.1195
  143MOL0     C19225   0.303   7.703   3.465 -0.7883  0.5688 -0.5015
  143MOL0     C19226   0.318   7.572   3.499 -0.3686  1.0682 -0.2435
  143MOL0     C19227   0.229   7.512   3.592 -0.0325 -1.3921 -0.1029
  143MOL0     O19228   0.229   7.391   3.648 -0.5291  0.3136 -0.1078
  143MOL0     C19229   0.362   7.335   3.646  0.1520  0.2616 -1.1752
  143MOL0     C19230   0.377   7.212   3.750  0.3502 -0.1559 -0.0383
  143MOL0     C19231   0.274   7.112   3.699  0.3286  0.3306 -0.2122
  143MOL0     C19232   0.258   6.993   3.789 -0.5636  0.7902 -0.8680
  143MOL0     C19233   0.192   6.887   3.722 -0.2454  0.7562  0.2204
  143MOL0     C19234   0.140   6.783   3.669  0.0413 -0.4579  0.3499
  143MOL0     C19235   0.125   7.589   3.638 -0.4866 -0.6234  0.4169
  143MOL0     C19236   0.103   7.727   3.596  0.5926  0.1135 -0.2706
  143MOL0     C19237  -0.019   7.798   3.649  0.2244 -0.3917 -0.1661
  143MOL0     H19238   0.213   8.003   3.139 -0.3317 -2.1193  2.5942
  143MOL0     H19239   0.217   8.211   3.018  0.4271 -1.8802  0.3462
  143MOL0     H19240   0.116   8.560   3.195  1.1929 -2.0291  1.2658
  143MOL0     H19241   0.280   8.627   3.221  0.8076 -1.4434  1.0345
  143MOL0     H19242   0.159   8.611   2.942 -0.5863 -1.0439  0.9319
  143MOL0     H19243   0.318   8.654   2.985 -0.5266 -2.2081  0.0401
  143MOL0     H19244   0.216   8.849   3.115 -0.8669 -0.3446  0.6804
  143MOL0     H19245   0.061   8.820   3.048  0.1591  1.3699  1.6773
  143MOL0     H19246   0.293   8.843   2.863 -0.4542  0.0463 -1.3869
  143MOL0     H19247   0.124   8.850   2.823  0.2485 -2.1072  0.8846
  143MOL0     H19248   0.106   9.050   2.964  1.0231 -0.7550  1.6627
  143MOL0     H19249   0.284   9.040   2.990  0.3081  0.5937 -0.5283
  143MOL0     H19250   0.166   9.104   2.736  0.5065  1.3593 -0.0097
  143MOL0     H19251   0.230   9.224   2.844  0.3944  0.2606  0.7707
  143MOL0     H19252   0.397   9.136   2.657 -0.9021 -1.0137  0.2496
  143MOL0     H19253   0.387   8.983   2.729 -0.6535  0.1618 -2.5191
  143MOL0     H19254   0.463   9.119   2.950 -1.0988  1.9751 -0.1986
  143MOL0     H19255   0.577   9.070   2.819 -1.6164 -3.5357  1.6830
  143MOL0     H19256   0.681   9.310   2.675 -1.7114 -2.1236 -1.3672
  143MOL0     H19257   0.710   9.651   2.769 -0.1672  0.3545 -0.0080
  143MOL0     H19258   0.746   9.541   2.626 -2.2695 -0.4729 -4.1853
  143MOL0     H19259   0.507   9.730   2.644 -1.3156 -0.7689 -1.7440
  143MOL0     H19260   0.648   9.737   2.532 -0.5869  1.4529  0.9343
  143MOL0     H19261   0.487   9.488   2.532  0.4243 -0.1302 -0.7045
  143MOL0     H19262   0.596   9.552   2.418  3.0967 -0.7450  2.4191
  143MOL0     H19263   0.440   9.746   2.384  0.3536  1.0889  2.1100
  143MOL0     H19264   0.335   9.697   2.509  1.4004  2.5489 -0.7871
  143MOL0     H19265   0.345   9.340   2.201  0.2489 -2.6096 -0.8235
  143MOL0     H19266   0.235   9.125   2.267  2.7886  1.8064 -2.1810
  143MOL0     H19267  -0.194   8.929   2.472 -2.4947 -1.9263  1.1822
  143MOL0     H19268  -0.269   8.717   2.601 -0.9331  3.4347 -0.0631
  143MOL0     H19269   0.006   8.375   2.583  0.9990 -2.6887  1.7971
  143MOL0     H19270   0.043   8.430   2.748 -1.1607 -1.3091  1.5648
  143MOL0     H19271  -0.154   8.319   2.840  0.6427  0.3383  0.5020
  143MOL0     H19272  -0.194   8.264   2.679 -2.1648 -1.9224  4.1146
  143MOL0     H19273   0.062   8.187   2.860  0.0536 -1.9568  0.4597
  143MOL0     H19274  -0.055   8.082   2.792 -0.2459  0.8291 -0.0536
  143MOL0     H19275   0.167   8.221   2.651 -0.7164 -0.5459 -2.9943
  143MOL0     H19276   0.043   8.120   2.574  0.2920  0.4931 -0.7233
  143MOL0     H19277   0.223   8.021   2.796 -4.2788  1.6284  2.8900
  143MOL0     H19278   0.232   7.985   2.611 -2.0249 -0.1435 -0.1172
  143MOL0     H19279   0.013   7.899   2.777  1.7018  2.2193  1.0618
  143MOL0     H19280   0.041   7.869   2.603  1.5383  0.7361 -1.9618
  143MOL0     H19281   0.226   7.763   2.813  0.6935  3.4688 -1.2430
  143MOL0     H19282   0.229   7.723   2.642  0.2106 -1.6222  0.8682
  143MOL0     H19283   0.031   7.632   2.850  4.2404 -0.2396  1.7809
  143MOL0     H19284  -0.011   7.617   2.676 -0.8543 -0.1222  1.2596
  143MOL0     H19285   0.135   8.573   2.575  0.6328  0.1737 -1.2505
  143MOL0     H19286   0.210   8.769   2.492 -0.1675 -0.5361  1.0880
  143MOL0     H19287   0.028   9.340   2.579  0.3671 -2.3065  1.7437
  143MOL0     H19288   0.178   9.548   2.526  2.2476 -0.7675  1.0952
  143MOL0     H19289   0.291   8.423   3.386 -0.8132  1.0918 -1.2628
  143MOL0     H19290   0.301   8.202   3.503 -2.9346 -2.6706  0.8568
  143MOL0     H19291   0.378   7.756   3.407  2.7592 -1.5436  1.8405
  143MOL0     H19292   0.406   7.523   3.459 -0.2799 -0.0238  1.1817
  143MOL0     H19293   0.436   7.407   3.682 -2.8637  3.5547 -1.0469
  143MOL0     H19294   0.382   7.302   3.544 -1.3929  2.0981 -2.1134
  143MOL0     H19295   0.342   7.247   3.848 -1.0250  1.1280 -0.9414
  143MOL0     H19296   0.480   7.175   3.754  0.7854  0.8978 -0.8448
  143MOL0     H19297   0.309   7.079   3.601  2.2060 -0.7028  0.7438
  143MOL0     H19298   0.175   7.159   3.698  1.3872  2.6685  0.0947
  143MOL0     H19299   0.358   6.960   3.820 -0.0679 -0.6749 -3.7283
  143MOL0     H19300   0.210   7.021   3.884 -1.2630 -0.2280 -0.8972
  143MOL0     H19301   0.099   6.687   3.647 -1.5434  0.3810 -0.6194
  143MOL0     H19302   0.060   7.535   3.706  0.5074 -1.7125  0.5293
  143MOL0     H19303   0.013   7.886   3.705  0.5517 -0.7533  0.2185
  143MOL0     H19304  -0.085   7.829   3.567  0.6938 -0.2195 -0.4858
  143MOL0     H19305  -0.065   7.729   3.721  2.0892  2.6894  4.3924
  144MOL0     O19306   9.728   1.475   3.520 -0.6598 -0.5188  0.7661
  144MOL0     C19307   9.711   1.362   3.483 -1.1457 -0.3217 -0.2799
  144MOL0     O19308   9.712   1.259   3.568 -0.7658 -0.1650  0.0320
  144MOL0     C19309   9.742   1.287   3.703 -0.2032  0.1400  0.0035
  144MOL0     C19310   9.661   1.258   3.809 -0.3416  0.6292 -0.1380
  144MOL0     C19311   9.705   1.283   3.944 -0.3115  0.5159 -0.0040
  144MOL0     C19312   9.826   1.343   3.970 -0.0703 -0.5199  0.3522
  144MOL0     O19313   9.862   1.365   4.102 -0.4988 -0.2729 -0.2586
  144MOL0     C19314   9.867   1.246   4.182 -0.5717 -0.1981  0.7110
  144MOL0     C19315   9.977   1.158   4.131 -0.7203  0.8553 -0.5050
  144MOL0     C19316  10.115   1.210   4.137 -0.5153  0.2023  0.1332
  144MOL0     C19317  10.219   1.111   4.074 -0.6385  0.2824  0.7404
  144MOL0     C19318  10.356   1.172   4.039  0.7095 -0.2938 -0.1615
  144MOL0     C19319  10.362   1.290   3.937  1.1673 -0.3566 -1.1691
  144MOL0     C19320  10.327   1.248   3.792  0.0171  0.5034  0.5780
  144MOL0     C19321  10.313   1.366   3.687  0.3013  0.6014 -0.1947
  144MOL0     N19322  10.443   1.382   3.621  0.7745 -0.2879  0.0094
  144MOL0     C19323  10.548   1.464   3.654  0.3827  1.1319 -0.6609
  144MOL0     C19324  10.632   1.458   3.554 -0.5538  0.1751  0.4937
  144MOL0     C19325  10.753   1.539   3.550  1.3413  0.1093 -0.0927
  144MOL0     C19326  10.864   1.449   3.575 -0.5144  0.4879 -0.0398
  144MOL0     C19327  10.977   1.471   3.467  0.6029  0.3740 -0.0915
  144MOL0     C19328  11.087   1.373   3.487 -1.9007 -0.0614 -0.0518
  144MOL0     O19329  11.214   1.443   3.497  0.3439  0.2731 -0.0003
  144MOL0     C19330  11.299   1.443   3.392 -0.6341  0.5080 -0.2040
  144MOL0     C19331  11.312   1.337   3.299 -0.3021 -0.0941  0.1357
  144MOL0     C19332  11.416   1.330   3.196 -0.9114  0.1729 -0.1133
  144MOL0     C19333  11.517   1.424   3.199  0.3227  0.7170  0.3221
  144MOL0     C19334  11.617   1.439   3.103 -0.5193  1.5369  0.0362
  144MOL0     O19335  11.715   1.529   3.138  0.1483 -0.1714  0.2987
  144MOL0     C19336  11.825   1.556   3.062  0.3966  0.2147  0.7145
  144MOL0     C19337  11.909   1.472   2.989  0.1530 -0.6841 -0.2950
  144MOL0     C19338  12.019   1.526   2.923 -0.4497  0.4922  0.2269
  144MOL0     C19339  12.051   1.669   2.919  1.0717  0.0138  0.0796
  144MOL0     O19340  12.140   1.723   2.828 -0.1655 -0.5099  0.6101
  144MOL0     C19341  12.227   1.828   2.882 -0.2831 -0.3772 -0.3644
  144MOL0     C19342  12.361   1.829   2.801  0.2368 -0.1359 -0.5387
  144MOL0     C19343  12.454   1.937   2.854  0.6388 -0.1061  0.7434
  144MOL0     C19344  12.598   1.913   2.798 -0.1049 -0.4655  0.4019
  144MOL0     C19345  12.699   2.027   2.850  0.1378  0.2400 -0.0825
  144MOL0     C19346  12.647   2.161   2.819  0.7205  0.5585 -0.2234
  144MOL0     C19347  12.757   2.266   2.832 -0.0389  0.4606  0.1162
  144MOL0     C19348  12.813   2.282   2.969  0.4918 -0.3776  0.6519
  144MOL0    Cl19349  12.960   2.376   2.954  0.1445 -0.3278 -0.4482
  144MOL0     C19350  11.963   1.752   2.992 -0.5924  0.4096 -1.0964
  144MOL0     C19351  11.858   1.689   3.072  0.5553  0.6314 -0.5911
  144MOL0     O19352  11.616   1.370   3.001 -0.3019 -0.2349 -0.0470
  144MOL0     C19353  11.502   1.528   3.289 -0.2116 -0.6815 -0.7544
  144MOL0     C19354  11.403   1.526   3.390  0.2739 -0.3183  0.1583
  144MOL0     N19355  10.589   1.364   3.459 -0.0730  0.1084 -0.0323
  144MOL0     N19356  10.470   1.329   3.495 -0.1682 -0.4775  0.7195
  144MOL0     C19357   9.910   1.366   3.857  0.5717  0.2690 -0.4892
  144MOL0     C19358   9.865   1.341   3.728  0.3194 -0.2511  0.2038
  144MOL0     C19359   9.664   1.328   3.347 -0.4630 -0.3762  0.3711
  144MOL0     C19360   9.567   1.232   3.312  0.3838 -0.8023  0.4245
  144MOL0     C19361   9.511   1.214   3.180 -0.6798  0.6460 -0.6108
  144MOL0     C19362   9.571   1.295   3.080  0.1029 -0.0415  0.8633
  144MOL0     O19363   9.535   1.277   2.948 -0.1274  0.3861 -0.7433
  144MOL0     C19364   9.402   1.240   2.917 -0.5120 -0.0089  0.5197
  144MOL0     C19365   9.383   1.100   2.855  0.1263  0.0417 -0.3378
  144MOL0     C19366   9.229   1.077   2.827 -1.1300 -0.1035 -0.0854
  144MOL0     C19367   9.201   0.935   2.774 -0.9962  0.3412  0.5542
  144MOL0     C19368   9.234   0.834   2.873  0.1933  0.4653 -0.0101
  144MOL0     C19369   9.253   0.745   2.962 -0.5103 -0.2253 -0.4902
  144MOL0     C19370   9.680   1.387   3.104 -1.0872 -0.3227 -0.3772
  144MOL0     C19371   9.726   1.403   3.240  0.4115  0.0853 -0.0065
  144MOL0     C19372   9.829   1.510   3.255 -0.6559  0.7108  0.1118
  144MOL0     H19373   9.562   1.221   3.784  0.9583 -3.5970  0.2615
  144MOL0     H19374   9.645   1.260   4.031 -1.6994  0.6006 -0.9228
  144MOL0     H19375   9.899   1.276   4.282 -0.4056  0.9300  0.3370
  144MOL0     H19376   9.769   1.198   4.186 -0.9031  0.5538  2.8337
  144MOL0     H19377   9.943   1.122   4.033 -1.8115 -4.8958  1.5399
  144MOL0     H19378   9.978   1.078   4.207 -2.2479  1.6025  0.3419
  144MOL0     H19379  10.133   1.231   4.243 -3.4175  2.9969  0.2136
  144MOL0     H19380  10.112   1.310   4.092 -0.9718 -0.6068 -1.7329
  144MOL0     H19381  10.229   1.024   4.139 -1.3694  0.5547  1.2457
  144MOL0     H19382  10.183   1.071   3.979  0.3217  0.3292  0.3501
  144MOL0     H19383  10.379   1.215   4.137 -1.2080 -0.9818  0.6544
  144MOL0     H19384  10.423   1.091   4.009 -1.5156 -2.7378  1.0395
  144MOL0     H19385  10.293   1.365   3.979  0.4074 -0.6577 -1.8444
  144MOL0     H19386  10.460   1.338   3.930  0.0141  2.8437  1.9228
  144MOL0     H19387  10.231   1.195   3.795 -1.2898  2.7214  0.1764
  144MOL0     H19388  10.408   1.180   3.766  1.4002  2.2731  0.0426
  144MOL0     H19389  10.252   1.342   3.599  0.5702 -0.4122 -0.1248
  144MOL0     H19390  10.280   1.457   3.737  0.9783  0.4151  0.6193
  144MOL0     H19391  10.559   1.513   3.751  0.4816  0.6022 -0.3999
  144MOL0     H19392  10.755   1.588   3.452 -0.0152 -0.3550 -0.3708
  144MOL0     H19393  10.749   1.625   3.618  0.5803  1.3256 -1.5999
  144MOL0     H19394  10.914   1.488   3.665 -1.2620  1.6936 -0.1274
  144MOL0     H19395  10.844   1.341   3.582  1.1166  0.0924 -1.0053
  144MOL0     H19396  11.021   1.571   3.481 -2.6961  2.3097 -2.1099
  144MOL0     H19397  10.937   1.461   3.366  1.0313  0.3743 -0.2630
  144MOL0     H19398  11.064   1.309   3.401 -4.7784 -0.7106  1.0929
  144MOL0     H19399  11.081   1.317   3.580 -1.6877  0.1457  0.0886
  144MOL0     H19400  11.257   1.244   3.312 -0.8253  0.3801  1.4319
  144MOL0     H19401  11.417   1.242   3.132 -0.6920 -0.8116  1.2048
  144MOL0     H19402  11.881   1.367   2.977  0.6135 -0.7048 -1.2802
  144MOL0     H19403  12.082   1.464   2.860  0.3548 -1.2248  2.5729
  144MOL0     H19404  12.180   1.927   2.879  1.6148  0.5666 -2.9357
  144MOL0     H19405  12.258   1.801   2.983 -0.3176  2.8455  0.6042
  144MOL0     H19406  12.405   1.730   2.811 -3.0475 -2.0762 -3.2888
  144MOL0     H19407  12.350   1.858   2.696  3.1753  2.2175 -0.3443
  144MOL0     H19408  12.421   2.032   2.809 -4.3620 -0.3982  3.0982
  144MOL0     H19409  12.467   1.951   2.962  2.5545  1.7572  0.3370
  144MOL0     H19410  12.601   1.909   2.689  0.0990 -0.3096  0.4004
  144MOL0     H19411  12.641   1.817   2.829  1.3556 -0.6891 -2.0703
  144MOL0     H19412  12.801   2.016   2.811  2.1344  4.5826  3.0471
  144MOL0     H19413  12.707   2.023   2.959 -1.4334  1.7354  0.1315
  144MOL0     H19414  12.611   2.171   2.717 -0.5180 -0.2180  0.1224
  144MOL0     H19415  12.574   2.183   2.898  0.8176 -0.7577  0.2638
  144MOL0     H19416  12.706   2.356   2.798 -1.5680  0.0390  1.1991
  144MOL0     H19417  12.839   2.244   2.763  0.3204 -0.4779  0.8248
  144MOL0     H19418  12.737   2.333   3.029  0.0312 -0.8612  0.4897
  144MOL0     H19419  12.830   2.188   3.022  0.1269  0.8209  3.0353
  144MOL0     H19420  11.985   1.858   3.005  0.0756  0.3981 -2.0277
  144MOL0     H19421  11.800   1.753   3.137  2.1490 -2.2182  4.1500
  144MOL0     H19422  11.578   1.606   3.282  1.3646 -2.2002 -1.4107
  144MOL0     H19423  11.420   1.612   3.454  2.5591  0.2761 -1.1372
  144MOL0     H19424  10.005   1.413   3.881  0.1536  1.6331 -1.3959
  144MOL0     H19425   9.927   1.341   3.639  0.0967 -1.5774  0.0214
  144MOL0     H19426   9.539   1.162   3.390 -0.2369  0.5568  1.4527
  144MOL0     H19427   9.441   1.133   3.159 -0.5787 -0.0606  1.5245
  144MOL0     H19428   9.369   1.313   2.842 -0.5079  1.1234  1.5890
  144MOL0     H19429   9.329   1.254   2.997  0.5578  0.0178  1.5218
  144MOL0     H19430   9.421   1.024   2.925  1.0006 -0.4280 -1.2850
  144MOL0     H19431   9.456   1.087   2.774  0.4820 -2.2787  0.2654
  144MOL0     H19432   9.203   1.151   2.750 -1.2260  0.9945  0.9820
  144MOL0     H19433   9.174   1.097   2.920 -0.3822  1.3449  0.0675
  144MOL0     H19434   9.094   0.917   2.757 -1.0911  1.6988 -0.4880
  144MOL0     H19435   9.261   0.920   2.683 -0.5033 -0.5885  1.0162
  144MOL0     H19436   9.258   0.677   3.045  1.7162  0.6360  0.1538
  144MOL0     H19437   9.725   1.448   3.026 -1.7222 -0.4551 -0.8495
  144MOL0     H19438   9.902   1.468   3.326 -0.2841 -3.3464 -2.3662
  144MOL0     H19439   9.882   1.542   3.164  1.9248 -4.0096 -0.3571
  144MOL0     H19440   9.771   1.593   3.296 -2.0336 -2.0293  4.3663
  145MOL0     O19441   2.826   9.685   9.663  0.1968 -0.0570 -0.4560
  145MOL0     C19442   2.765   9.787   9.646  0.3702 -0.3625  0.1247
  145MOL0     O19443   2.634   9.795   9.628  0.6293 -0.6653 -0.4718
  145MOL0     C19444   2.563   9.680   9.629  0.8583 -0.5107 -0.2949
  145MOL0     C19445   2.472   9.655   9.737  0.2350  0.1941  0.2548
  145MOL0     C19446   2.387   9.536   9.733 -0.6427 -0.4053  0.8530
  145MOL0     C19447   2.378   9.471   9.610  0.3689  0.1440  1.0197
  145MOL0     O19448   2.287   9.372   9.591 -0.2338  0.3039 -0.0024
  145MOL0     C19449   2.153   9.382   9.636  0.2817 -0.0755 -0.2253
  145MOL0     C19450   2.063   9.327   9.521 -0.2130  0.8462 -0.1437
  145MOL0     C19451   1.917   9.346   9.562  0.4844  0.2235  0.7528
  145MOL0     C19452   1.817   9.343   9.449 -0.1537  0.3757  0.3283
  145MOL0     C19453   1.678   9.385   9.479 -0.3976 -1.3692 -0.0765
  145MOL0     C19454   1.589   9.278   9.551 -0.5558 -0.6275 -0.0121
  145MOL0     C19455   1.515   9.330   9.672 -0.3150 -0.7339 -0.2042
  145MOL0     C19456   1.415   9.443   9.630 -0.0642  0.7900  0.2440
  145MOL0     N19457   1.309   9.384   9.547  0.2681  0.9543 -0.2621
  145MOL0     C19458   1.228   9.279   9.580  0.3591  0.4926  0.2130
  145MOL0     C19459   1.141   9.257   9.475  0.0818 -0.5151 -0.7974
  145MOL0     C19460   1.032   9.152   9.463  0.6313 -0.2019 -0.3357
  145MOL0     C19461   1.014   9.114   9.323  0.2939 -0.7887  0.4317
  145MOL0     C19462   1.121   9.019   9.275 -0.0556  0.5091 -0.2498
  145MOL0     C19463   1.163   8.895   9.363 -0.4199 -0.9804  0.2022
  145MOL0     O19464   1.039   8.836   9.404 -0.7796  0.0520  0.1698
  145MOL0     C19465   1.039   8.719   9.480 -0.0844 -0.8113  0.4129
  145MOL0     C19466   1.155   8.659   9.538 -0.3333  0.5395 -0.3101
  145MOL0     C19467   1.146   8.534   9.604 -0.1963  0.1162 -0.7358
  145MOL0     C19468   1.021   8.474   9.621 -0.3946 -0.6525 -0.0146
  145MOL0     C19469   1.006   8.339   9.683 -0.7339 -0.2678  0.3475
  145MOL0     O19470   1.115   8.264   9.687  0.3213 -0.5355  0.6601
  145MOL0     C19471   1.141   8.157   9.782 -0.4654 -0.1019 -0.0199
  145MOL0     C19472   1.057   8.144   9.901 -0.0266  1.1973  0.4417
  145MOL0     C19473   1.080   8.043   9.999 -0.3024  0.0079  0.0334
  145MOL0     C19474   1.177   7.950   9.973 -0.0485  0.3268 -0.9668
  145MOL0     O19475   1.212   7.849  10.057 -0.1423  0.2631 -0.6758
  145MOL0     C19476   1.350   7.796  10.072  0.2910  0.0624  0.7468
  145MOL0     C19477   1.377   7.756  10.212 -0.4924 -0.6574  1.1671
  145MOL0     C19478   1.290   7.645  10.261  0.3572  0.2538 -0.2801
  145MOL0     C19479   1.371   7.553  10.364  0.5237  0.5447 -0.0990
  145MOL0     C19480   1.281   7.448  10.420  0.2693  0.4442  0.9657
  145MOL0     C19481   1.362   7.353  10.506  1.0324 -0.2947  0.0833
  145MOL0     C19482   1.276   7.235  10.551  0.4902 -0.3328 -1.0548
  145MOL0     C19483   1.344   7.106  10.553  0.3097  0.6188 -0.5199
  145MOL0    Cl19484   1.226   6.980  10.605 -0.0635 -0.3666  0.1307
  145MOL0     C19485   1.253   7.965   9.855 -0.2352  0.3233 -0.4060
  145MOL0     C19486   1.244   8.065   9.765 -0.8244  0.2009 -0.0256
  145MOL0     O19487   0.894   8.299   9.714  0.0122 -0.0999 -0.0015
  145MOL0     C19488   0.905   8.530   9.562 -0.0899 -0.7016  0.4104
  145MOL0     C19489   0.916   8.651   9.499 -0.5437  0.6714  1.1895
  145MOL0     N19490   1.168   9.362   9.384  0.1067 -0.0156 -0.1262
  145MOL0     N19491   1.269   9.434   9.428 -0.9963  0.3120 -0.2404
  145MOL0     C19492   2.461   9.497   9.500 -0.1114 -0.1585 -0.1611
  145MOL0     C19493   2.539   9.610   9.507 -0.3718 -0.2018 -0.4295
  145MOL0     C19494   2.850   9.919   9.632  0.7305  0.0370 -0.3469
  145MOL0     C19495   2.820  10.032   9.710 -0.3039 -0.0362 -0.8498
  145MOL0     C19496   2.911  10.138   9.726  0.3122  0.4182 -0.5268
  145MOL0     C19497   3.026  10.136   9.658 -0.8140  0.0647  0.6327
  145MOL0     O19498   3.116  10.231   9.647 -0.6877  0.1554 -0.1585
  145MOL0     C19499   3.113  10.346   9.739  1.0292  0.0919 -0.1507
  145MOL0     C19500   3.245  10.416   9.745  0.3215  0.2764 -0.8584
  145MOL0     C19501   3.294  10.472   9.607  0.5298 -0.2991 -0.4531
  145MOL0     C19502   3.260  10.615   9.567 -0.6705  0.4133  1.0650
  145MOL0     C19503   3.290  10.715   9.668 -0.2216  0.2094 -0.9415
  145MOL0     C19504   3.343  10.775   9.757 -0.7789  0.4240 -0.7480
  145MOL0     C19505   3.059  10.031   9.578  0.8528 -0.0537  0.1329
  145MOL0     C19506   2.977   9.920   9.562 -0.4072  0.9732 -0.4786
  145MOL0     C19507   3.030   9.808   9.484  1.1100 -0.5591 -0.2681
  145MOL0     H19508   2.450   9.717   9.824  0.7661  2.3449 -1.0563
  145MOL0     H19509   2.324   9.501   9.814 -1.1895 -0.6522  0.3261
  145MOL0     H19510   2.150   9.322   9.728  1.0351 -0.4761 -0.4566
  145MOL0     H19511   2.131   9.486   9.661  0.9902 -0.2184  1.0858
  145MOL0     H19512   2.066   9.219   9.503 -2.3541  0.7271 -0.0554
  145MOL0     H19513   2.089   9.372   9.425  1.9237 -0.7714 -0.3782
  145MOL0     H19514   1.912   9.448   9.600  0.2811  0.5289 -0.0720
  145MOL0     H19515   1.897   9.285   9.650 -1.0879  3.2070  2.6159
  145MOL0     H19516   1.855   9.411   9.372  1.8166  0.9693  1.7329
  145MOL0     H19517   1.820   9.246   9.398  1.5320  0.6258 -0.1161
  145MOL0     H19518   1.686   9.476   9.541  1.2328 -0.5600 -1.4071
  145MOL0     H19519   1.638   9.429   9.387  0.7972  0.1563  0.0884
  145MOL0     H19520   1.522   9.235   9.476 -0.5704 -1.2427  0.3426
  145MOL0     H19521   1.656   9.199   9.585  1.5208  0.6002 -1.0488
  145MOL0     H19522   1.590   9.378   9.736  0.1996  1.0329 -2.0531
  145MOL0     H19523   1.466   9.245   9.721 -1.0843 -2.5308 -3.7975
  145MOL0     H19524   1.387   9.478   9.730  0.5095 -1.5923  1.3244
  145MOL0     H19525   1.467   9.525   9.579 -1.9900  2.6153  1.0673
  145MOL0     H19526   1.236   9.214   9.666  1.5384 -0.7979 -0.8268
  145MOL0     H19527   1.041   9.061   9.523  2.3017  1.2252  1.7015
  145MOL0     H19528   0.941   9.200   9.501  0.9328 -0.4289  0.6988
  145MOL0     H19529   0.917   9.065   9.318 -0.4792  0.7730 -0.3301
  145MOL0     H19530   1.007   9.206   9.265  2.2262 -0.0890  1.2221
  145MOL0     H19531   1.212   9.077   9.254  0.7597 -0.5470  0.2754
  145MOL0     H19532   1.084   8.981   9.180  0.9299  2.6674 -1.5852
  145MOL0     H19533   1.234   8.930   9.439 -1.2178 -2.0773  1.5047
  145MOL0     H19534   1.219   8.821   9.304  1.5203 -1.1612  2.1073
  145MOL0     H19535   1.256   8.696   9.522 -0.5461  1.7965  1.0698
  145MOL0     H19536   1.238   8.484   9.632 -0.3583  0.9369  1.3822
  145MOL0     H19537   0.991   8.221   9.938 -2.9339 -0.5589 -0.7240
  145MOL0     H19538   1.028   8.041  10.094 -0.5763  0.4708 -0.1049
  145MOL0     H19539   1.373   7.706  10.014 -0.6155 -0.5456  1.3063
  145MOL0     H19540   1.423   7.864  10.028 -2.4273  1.6064 -1.6878
  145MOL0     H19541   1.483   7.729  10.210  0.4059  1.8008 -4.8089
  145MOL0     H19542   1.368   7.846  10.273 -0.7021  0.9927 -1.1953
  145MOL0     H19543   1.203   7.696  10.302  1.1609  0.6936  0.9473
  145MOL0     H19544   1.265   7.589  10.171  1.2615 -0.9503  0.1856
  145MOL0     H19545   1.402   7.620  10.445  1.7287  1.5874 -1.3576
  145MOL0     H19546   1.464   7.509  10.326  1.2798 -0.1620  2.3695
  145MOL0     H19547   1.256   7.391  10.330  2.6340 -1.5377  1.4637
  145MOL0     H19548   1.190   7.476  10.475  0.3811 -2.6719  2.9834
  145MOL0     H19549   1.448   7.312  10.452  0.5980 -0.5680 -0.4147
  145MOL0     H19550   1.408   7.406  10.589  2.5827  0.2578 -1.0756
  145MOL0     H19551   1.186   7.221  10.490  0.7972 -1.5253 -1.2433
  145MOL0     H19552   1.239   7.253  10.653  1.3605  0.7561 -0.9182
  145MOL0     H19553   1.376   7.082  10.452 -1.8202  0.1653 -1.1513
  145MOL0     H19554   1.436   7.105  10.612 -0.9845  1.1202  1.6301
  145MOL0     H19555   1.330   7.891   9.835 -0.2636 -0.4064  1.8393
  145MOL0     H19556   1.315   8.078   9.685  1.9777 -3.4159  1.5976
  145MOL0     H19557   0.811   8.476   9.554  0.1613 -1.1122  0.2252
  145MOL0     H19558   0.826   8.684   9.448 -0.5367 -3.2460 -1.8029
  145MOL0     H19559   2.460   9.447   9.404 -2.5508  0.3191 -0.4467
  145MOL0     H19560   2.566   9.667   9.419  0.0358  0.8325  0.3402
  145MOL0     H19561   2.726  10.044   9.763  0.3641  1.4107  0.0923
  145MOL0     H19562   2.884  10.220   9.791  2.0452  0.7294 -0.1706
  145MOL0     H19563   3.088  10.315   9.841 -2.6601  1.1898 -0.5939
  145MOL0     H19564   3.036  10.417   9.709  2.8232  1.1050 -2.7298
  145MOL0     H19565   3.307  10.333   9.781 -0.0486  0.0710 -0.6997
  145MOL0     H19566   3.242  10.486   9.829 -1.9627 -1.7761  0.9071
  145MOL0     H19567   3.276  10.402   9.525  2.5857  1.2273 -2.3405
  145MOL0     H19568   3.402  10.476   9.624  0.4913 -3.0081  0.9977
  145MOL0     H19569   3.313  10.637   9.474  2.1349 -3.4484  1.5248
  145MOL0     H19570   3.153  10.628   9.547 -0.6154 -0.1830  0.3831
  145MOL0     H19571   3.394  10.816   9.842 -1.0956  1.7332 -1.1632
  145MOL0     H19572   3.154  10.032   9.526  1.1290 -0.9548  0.5993
  145MOL0     H19573   3.052   9.727   9.554 -0.0930 -0.1024  0.6824
  145MOL0     H19574   2.953   9.770   9.417 -1.0586  2.1190  0.5344
  145MOL0     H19575   3.119   9.841   9.429 -0.0110  0.0889 -1.7547
  146MOL0     O19576   8.473  10.113   4.418 -0.5981  0.0151  0.1028
  146MOL0     C19577   8.433  10.068   4.528 -0.9466 -0.5039  0.0797
  146MOL0     O19578   8.298  10.054   4.565 -0.1163  0.7640 -0.3001
  146MOL0     C19579   8.189  10.075   4.478 -0.8438  1.1553  0.1335
  146MOL0     C19580   8.178  10.188   4.393  0.0501 -0.1818  0.7044
  146MOL0     C19581   8.049  10.228   4.344 -0.1975  0.1426 -0.2494
  146MOL0     C19582   7.943  10.135   4.344  0.4360  0.0419 -0.3648
  146MOL0     O19583   7.823  10.168   4.283 -0.2023  0.0878 -0.0436
  146MOL0     C19584   7.712  10.085   4.286 -0.5944 -0.2323  0.0760
  146MOL0     C19585   7.590  10.133   4.198 -0.3604 -0.1057 -0.0121
  146MOL0     C19586   7.636  10.165   4.058 -0.0785 -0.0883 -1.1080
  146MOL0     C19587   7.692  10.052   3.980 -0.6975 -0.1800 -0.1391
  146MOL0     C19588   7.720  10.099   3.838  0.2793  0.2290  0.5156
  146MOL0     C19589   7.750   9.986   3.749 -0.5161  0.7146 -0.2504
  146MOL0     C19590   7.799  10.023   3.613 -0.7573  0.3400 -0.5599
  146MOL0     C19591   7.814   9.895   3.526  0.3389  0.1609 -0.1122
  146MOL0     N19592   7.848   9.936   3.393  0.2939  1.2135 -0.3931
  146MOL0     C19593   7.974   9.953   3.345  0.3723 -0.5971 -0.0275
  146MOL0     C19594   7.956  10.003   3.223  0.9427 -0.5754 -0.0342
  146MOL0     C19595   8.062  10.049   3.123 -0.4454 -0.4490 -0.1830
  146MOL0     C19596   8.108  10.185   3.160 -1.0850  0.0548  0.2924
  146MOL0     C19597   8.217  10.229   3.070 -0.5263  0.1200  0.6648
  146MOL0     C19598   8.248  10.380   3.083 -0.4678 -0.1462  0.0561
  146MOL0     O19599   8.148  10.452   3.025  0.1928  0.3691  0.5607
  146MOL0     C19600   8.153  10.591   3.033  0.0539  0.3405  0.1401
  146MOL0     C19601   8.055  10.655   2.966 -0.0961  0.2292 -0.3352
  146MOL0     C19602   8.045  10.794   2.960  0.3649 -0.8420  0.4930
  146MOL0     C19603   8.149  10.870   3.006 -0.3090  0.0536 -0.6663
  146MOL0     C19604   8.163  11.017   2.987 -0.3277 -0.1342  0.8103
  146MOL0     O19605   8.238  11.084   3.081 -0.3802 -0.1018  0.4104
  146MOL0     C19606   8.261  11.215   3.069 -0.3071 -0.3435  0.7587
  146MOL0     C19607   8.151  11.296   3.112 -0.0025  0.3306  0.5305
  146MOL0     C19608   8.147  11.436   3.091  1.6035 -0.2669 -0.5915
  146MOL0     C19609   8.246  11.496   3.013  0.5861  1.2625  0.5802
  146MOL0     O19610   8.247  11.634   2.989  0.2687 -0.3439 -0.2161
  146MOL0     C19611   8.373  11.701   2.976 -0.2748 -0.2519  0.3274
  146MOL0     C19612   8.367  11.856   3.008  0.2998  0.6515  0.0378
  146MOL0     C19613   8.292  11.934   2.909  0.1642  0.3668 -0.1005
  146MOL0     C19614   8.151  11.982   2.952 -0.1786  0.5364 -0.3998
  146MOL0     C19615   8.107  12.102   2.866  0.2312  0.3947  0.0256
  146MOL0     C19616   7.971  12.147   2.906  0.6313 -0.4166  0.8600
  146MOL0     C19617   7.947  12.265   2.819 -0.1877  0.4538  0.0180
  146MOL0     C19618   7.804  12.334   2.834 -0.0248 -0.4808  0.3407
  146MOL0    Cl19619   7.748  12.395   2.994  0.2561 -0.0324 -0.2971
  146MOL0     C19620   8.359  11.410   2.964  0.4149 -0.1668  0.5419
  146MOL0     C19621   8.363  11.269   2.994 -0.0893 -0.4575  0.0652
  146MOL0     O19622   8.123  11.067   2.882 -0.4383  0.1730 -0.4411
  146MOL0     C19623   8.260  10.810   3.068  0.6406 -0.8464  1.1785
  146MOL0     C19624   8.262  10.664   3.083 -0.6485 -0.7351  0.4288
  146MOL0     N19625   7.822  10.022   3.202 -0.3820 -1.0607  0.5063
  146MOL0     N19626   7.761   9.977   3.302  0.4104 -0.2249  0.3468
  146MOL0     C19627   7.949  10.022   4.426  0.0942  0.7688  0.6823
  146MOL0     C19628   8.074   9.989   4.490 -0.0149 -0.9264  0.0977
  146MOL0     C19629   8.535  10.014   4.636 -0.5663  1.0203 -0.1849
  146MOL0     C19630   8.487   9.936   4.740  0.2655  0.2159  0.4201
  146MOL0     C19631   8.572   9.874   4.832 -0.0262 -0.3627 -0.3729
  146MOL0     C19632   8.711   9.884   4.827  0.4855  0.3844 -0.4049
  146MOL0     O19633   8.780   9.821   4.922 -0.2832 -0.6361  0.0337
  146MOL0     C19634   8.905   9.879   4.949  1.2940  0.0566 -0.2122
  146MOL0     C19635   8.977   9.787   5.041 -1.9371  0.2265  0.2394
  146MOL0     C19636   9.023   9.662   4.970  0.5710  0.1824  0.5897
  146MOL0     C19637   9.092   9.561   5.061 -1.2145 -0.5027  0.3829
  146MOL0     C19638   9.233   9.540   5.056 -0.4903 -0.1529 -0.1351
  146MOL0     C19639   9.355   9.537   5.054 -0.1947 -0.9352 -0.8426
  146MOL0     C19640   8.761   9.978   4.730  0.9204  0.1458 -0.4465
  146MOL0     C19641   8.678  10.029   4.632  0.5719 -0.7860  0.1832
  146MOL0     C19642   8.758  10.105   4.526 -0.3925 -0.0712  0.3697
  146MOL0     H19643   8.248  10.270   4.403  0.6339 -0.8621  2.6259
  146MOL0     H19644   8.024  10.331   4.320  2.8061  1.6163  2.1546
  146MOL0     H19645   7.753   9.987   4.259 -0.9744 -2.0649  5.1303
  146MOL0     H19646   7.676  10.066   4.388 -3.2666 -1.1979 -0.9468
  146MOL0     H19647   7.541  10.223   4.237  1.2393  1.0959 -0.6535
  146MOL0     H19648   7.516  10.052   4.200  1.2390 -1.6412 -0.8680
  146MOL0     H19649   7.696  10.256   4.050 -2.0141  1.1208 -2.8526
  146MOL0     H19650   7.543  10.201   4.012  0.0545  0.5163 -0.9087
  146MOL0     H19651   7.787  10.012   4.018  0.4155 -1.1240 -3.5570
  146MOL0     H19652   7.612   9.978   3.974 -1.1962  0.2881  0.6230
  146MOL0     H19653   7.635  10.150   3.792  1.4718  0.6422 -1.3379
  146MOL0     H19654   7.804  10.169   3.842 -0.6724  1.3937  0.7291
  146MOL0     H19655   7.825   9.924   3.798 -0.8766  0.4385 -0.0537
  146MOL0     H19656   7.661   9.923   3.743 -0.2400  0.4200 -1.5742
  146MOL0     H19657   7.887  10.087   3.618  0.8029 -1.7671  0.4883
  146MOL0     H19658   7.718  10.083   3.569 -0.9371  0.6477  0.1724
  146MOL0     H19659   7.879   9.816   3.565 -1.2690 -0.9981  0.3610
  146MOL0     H19660   7.723   9.834   3.524 -0.4582  1.2689  1.1212
  146MOL0     H19661   8.065   9.922   3.395 -0.7516 -2.7207  0.8347
  146MOL0     H19662   8.147   9.980   3.131 -0.5320 -0.5914 -0.4856
  146MOL0     H19663   8.030  10.037   3.019  0.6065 -2.6627 -0.3200
  146MOL0     H19664   8.033  10.264   3.162 -0.8944  0.3250 -1.6969
  146MOL0     H19665   8.137  10.188   3.266  0.5754 -1.6944 -0.0560
  146MOL0     H19666   8.187  10.205   2.967 -2.2067 -0.1033  1.1818
  146MOL0     H19667   8.298  10.158   3.090 -1.6616 -2.4368 -2.6733
  146MOL0     H19668   8.346  10.395   3.037 -1.6884 -0.8485 -2.9948
  146MOL0     H19669   8.264  10.403   3.189  2.6542  3.7799 -0.9935
  146MOL0     H19670   7.971  10.597   2.929 -0.0794  0.8472 -1.3741
  146MOL0     H19671   7.965  10.847   2.910 -1.7858 -3.1764  1.2441
  146MOL0     H19672   8.071  11.246   3.165  0.3160 -0.1948  0.5253
  146MOL0     H19673   8.064  11.495   3.130 -0.9126 -3.3749 -0.7578
  146MOL0     H19674   8.454  11.658   3.036  2.4337  4.9428  0.9429
  146MOL0     H19675   8.412  11.695   2.874  2.7331  2.6195  1.1406
  146MOL0     H19676   8.311  11.863   3.102  0.5047 -1.7259  0.3982
  146MOL0     H19677   8.466  11.901   3.019  1.1830 -0.9112 -1.1769
  146MOL0     H19678   8.360  12.018   2.892  1.7989 -1.1295 -1.4042
  146MOL0     H19679   8.286  11.876   2.816  1.4786  0.4170 -0.2415
  146MOL0     H19680   8.165  12.004   3.058 -2.8214 -4.5421  1.3800
  146MOL0     H19681   8.082  11.897   2.945  1.3523 -0.7223 -0.6056
  146MOL0     H19682   8.096  12.072   2.762  1.8574  1.1263 -0.3817
  146MOL0     H19683   8.186  12.177   2.878 -0.3094  0.5915  3.2739
  146MOL0     H19684   7.902  12.070   2.871 -0.8457  1.0564  0.4246
  146MOL0     H19685   7.950  12.176   3.010 -2.6227  0.2009  0.1387
  146MOL0     H19686   7.955  12.239   2.713  2.4297 -2.7033  0.8293
  146MOL0     H19687   8.024  12.341   2.834  0.1030  0.3052 -0.6898
  146MOL0     H19688   7.810  12.415   2.761  3.2592 -0.4699  0.4833
  146MOL0     H19689   7.727  12.267   2.797  1.4265 -1.8904 -0.2203
  146MOL0     H19690   8.441  11.446   2.903 -0.5113  2.7774  0.8822
  146MOL0     H19691   8.447  11.208   2.961  0.7052  1.6063 -2.0204
  146MOL0     H19692   8.353  10.861   3.093  1.2709  0.5157 -3.1313
  146MOL0     H19693   8.349  10.627   3.136 -0.0959 -0.3365 -0.1836
  146MOL0     H19694   7.868   9.952   4.443 -1.0477  1.3704 -1.9633
  146MOL0     H19695   8.071   9.902   4.555 -1.6659 -0.2326  1.0083
  146MOL0     H19696   8.381   9.925   4.763 -0.6442  2.2962 -2.2520
  146MOL0     H19697   8.512   9.821   4.905  0.3845  0.1725  0.3634
  146MOL0     H19698   8.879   9.973   4.999 -1.4894 -1.9014  2.4110
  146MOL0     H19699   8.973   9.878   4.863  0.7588 -1.2707 -0.6393
  146MOL0     H19700   8.917   9.763   5.129 -1.9019  1.5234  0.6379
  146MOL0     H19701   9.067   9.834   5.080 -0.0714 -1.8622 -1.3168
  146MOL0     H19702   9.085   9.679   4.882 -1.5409 -5.1457 -2.3749
  146MOL0     H19703   8.937   9.615   4.921  1.0787  0.1402 -0.2756
  146MOL0     H19704   9.068   9.587   5.165 -0.3929 -0.0287  0.4591
  146MOL0     H19705   9.055   9.461   5.035  1.4413 -2.6092  3.7416
  146MOL0     H19706   9.460   9.554   5.058 -0.7303  3.0366  0.5879
  146MOL0     H19707   8.868   9.993   4.723  1.0413  2.9807  3.9043
  146MOL0     H19708   8.797  10.047   4.441 -1.3795  1.5790 -1.2815
  146MOL0     H19709   8.703  10.194   4.495 -0.7861 -0.9355 -1.6319
  146MOL0     H19710   8.850  10.147   4.568  0.2210 -3.5861  2.9591
  147MOL0     O19711   3.187   2.257   9.123 -0.1542  0.8708 -0.5934
  147MOL0     C19712   3.121   2.361   9.106  0.0134  0.1429 -0.2779
  147MOL0     O19713   2.990   2.358   9.062 -0.2424  0.6453  0.0159
  147MOL0     C19714   2.926   2.233   9.067 -0.4503  0.8587  0.3974
  147MOL0     C19715   2.885   2.169   8.953  0.4539  0.3351 -0.0016
  147MOL0     C19716   2.814   2.047   8.954 -1.0166  1.1054  1.2570
  147MOL0     C19717   2.768   1.992   9.072  0.2164 -0.5419 -0.3252
  147MOL0     O19718   2.702   1.867   9.059  0.2394 -0.3930 -0.1484
  147MOL0     C19719   2.780   1.760   9.021 -0.9057 -0.0245 -0.3393
  147MOL0     C19720   2.716   1.626   9.026 -0.4160 -0.5299  0.1962
  147MOL0     C19721   2.626   1.598   9.139 -0.3197  0.3720 -0.5869
  147MOL0     C19722   2.525   1.499   9.096  0.2442  0.1902  0.7392
  147MOL0     C19723   2.445   1.434   9.217 -0.0381 -0.2454 -0.6111
  147MOL0     C19724   2.354   1.317   9.163 -0.5566 -0.3748  0.4031
  147MOL0     C19725   2.247   1.304   9.263 -0.4109 -0.5733  0.4624
  147MOL0     C19726   2.146   1.194   9.238 -0.0047 -0.3461  0.4575
  147MOL0     N19727   2.215   1.062   9.248  0.3422 -0.3491  0.3280
  147MOL0     C19728   2.299   1.017   9.349 -0.9675  0.1138  0.5433
  147MOL0     C19729   2.304   0.881   9.338 -0.1406  0.1381 -0.2105
  147MOL0     C19730   2.377   0.806   9.441 -0.5352  0.5057  0.6294
  147MOL0     C19731   2.453   0.882   9.552  0.9073 -0.3955  0.6137
  147MOL0     C19732   2.511   0.789   9.650 -0.1459  1.2879 -0.0423
  147MOL0     C19733   2.578   0.857   9.774  0.1516  0.2846 -0.3319
  147MOL0     O19734   2.617   0.990   9.765  0.0401  0.4893  0.0102
  147MOL0     C19735   2.732   1.028   9.695  0.5793 -0.7507 -0.3237
  147MOL0     C19736   2.740   1.167   9.675  0.9768  0.3882  0.5079
  147MOL0     C19737   2.835   1.219   9.590  0.1517  0.3637  0.8575
  147MOL0     C19738   2.925   1.133   9.518 -0.2886  0.9283 -0.6737
  147MOL0     C19739   3.016   1.199   9.410 -0.2115 -0.4032  0.0700
  147MOL0     O19740   3.037   1.338   9.420 -0.1431 -0.3077  0.1401
  147MOL0     C19741   3.106   1.401   9.317  0.3213  0.5246  0.2440
  147MOL0     C19742   3.238   1.367   9.299  0.5045  0.3033 -0.7737
  147MOL0     C19743   3.308   1.435   9.199 -0.4345 -0.2989  0.1473
  147MOL0     C19744   3.246   1.520   9.097  0.4915  0.3963 -0.5897
  147MOL0     O19745   3.330   1.579   9.006 -0.2713  0.3510  0.8822
  147MOL0     C19746   3.300   1.720   8.971  0.0047 -0.7250 -0.6823
  147MOL0     C19747   3.421   1.812   8.989 -0.7915 -0.2359  0.0348
  147MOL0     C19748   3.552   1.746   8.957 -0.5014 -0.0999 -0.0449
  147MOL0     C19749   3.668   1.849   8.946 -0.0561 -0.8975  0.9659
  147MOL0     C19750   3.745   1.855   9.073 -0.3861 -0.8237  0.7833
  147MOL0     C19751   3.843   1.742   9.105 -0.9386 -0.2355 -0.0005
  147MOL0     C19752   3.975   1.781   9.165 -0.1227 -0.0237  0.3082
  147MOL0     C19753   3.971   1.855   9.301 -0.4877  0.5051 -0.4908
  147MOL0    Cl19754   4.140   1.834   9.354  0.5496 -0.5201 -0.4798
  147MOL0     C19755   3.104   1.545   9.117 -0.6011  0.2230 -0.1672
  147MOL0     C19756   3.044   1.489   9.231  0.0066  0.1994 -0.6159
  147MOL0     O19757   3.085   1.131   9.336 -0.6113 -0.1255  0.2748
  147MOL0     C19758   2.910   0.994   9.540 -0.0733  0.8343  0.4231
  147MOL0     C19759   2.823   0.938   9.631  1.3423 -0.2502  0.2369
  147MOL0     N19760   2.230   0.839   9.223  1.2854  0.6275  0.4828
  147MOL0     N19761   2.176   0.947   9.174 -0.3530  0.3962 -0.4185
  147MOL0     C19762   2.800   2.058   9.190 -0.2667  0.8756 -0.6676
  147MOL0     C19763   2.880   2.179   9.188 -0.1633  0.5138 -0.6050
  147MOL0     C19764   3.193   2.491   9.123  0.3707  1.5122  0.9929
  147MOL0     C19765   3.149   2.588   9.036 -0.0129 -0.0409 -0.4347
  147MOL0     C19766   3.220   2.707   9.027  0.5346 -0.1788  0.2401
  147MOL0     C19767   3.331   2.739   9.106 -0.3361 -0.5643  0.3953
  147MOL0     O19768   3.398   2.858   9.107 -0.1858  0.2886 -0.2364
  147MOL0     C19769   3.447   2.916   8.985  0.2337  0.6589  0.1704
  147MOL0     C19770   3.548   3.035   9.015  0.5542  0.2146  0.0019
  147MOL0     C19771   3.495   3.155   9.091  0.7371  0.3345  0.0619
  147MOL0     C19772   3.436   3.261   8.991 -0.2860  0.8259 -0.5657
  147MOL0     C19773   3.544   3.332   8.921 -0.2073  0.3427  0.3494
  147MOL0     C19774   3.629   3.405   8.881 -0.3322 -0.0133 -0.4176
  147MOL0     C19775   3.369   2.641   9.199  0.1698  0.9365  0.5305
  147MOL0     C19776   3.298   2.512   9.209 -0.6492 -0.1355 -0.0935
  147MOL0     C19777   3.328   2.416   9.316 -0.1356  1.1224 -0.2789
  147MOL0     H19778   2.910   2.200   8.852 -3.8365 -1.5748 -1.8950
  147MOL0     H19779   2.801   1.989   8.863 -0.7899 -0.8788  2.4330
  147MOL0     H19780   2.814   1.778   8.919 -3.4843  0.3041 -1.2230
  147MOL0     H19781   2.870   1.771   9.082 -0.9095 -0.4890 -0.2464
  147MOL0     H19782   2.797   1.551   9.024  0.9287  0.8791 -1.2874
  147MOL0     H19783   2.667   1.608   8.930 -1.5469  0.0845  0.6518
  147MOL0     H19784   2.581   1.695   9.162  0.5684  0.6220  0.1768
  147MOL0     H19785   2.681   1.557   9.224 -0.5540  2.2514  0.5356
  147MOL0     H19786   2.450   1.544   9.031  0.7027 -1.8066 -1.3396
  147MOL0     H19787   2.581   1.417   9.050  1.7807  0.7251  1.5726
  147MOL0     H19788   2.505   1.392   9.298 -1.7767 -0.8900  0.4150
  147MOL0     H19789   2.379   1.510   9.259  1.5401  0.6667  0.3232
  147MOL0     H19790   2.307   1.360   9.074 -0.4301  1.4601  1.1669
  147MOL0     H19791   2.409   1.226   9.138  1.9876  0.7309  1.6775
  147MOL0     H19792   2.180   1.391   9.257 -0.9560 -0.8556  1.9588
  147MOL0     H19793   2.276   1.284   9.366 -1.4040 -1.4691  0.5948
  147MOL0     H19794   2.069   1.205   9.316  0.6641  1.1209  0.9371
  147MOL0     H19795   2.095   1.201   9.142  0.6101 -0.2062  0.1364
  147MOL0     H19796   2.352   1.084   9.416  0.0364  0.5485 -0.6483
  147MOL0     H19797   2.302   0.737   9.483 -1.3628  1.8102  1.3516
  147MOL0     H19798   2.454   0.746   9.392  1.4134  2.9178  0.5879
  147MOL0     H19799   2.536   0.924   9.493  1.8078  1.0951  2.8133
  147MOL0     H19800   2.410   0.968   9.605  3.7799  0.7709  1.2641
  147MOL0     H19801   2.599   0.735   9.614  0.3586 -0.0725  2.9466
  147MOL0     H19802   2.430   0.727   9.692  1.6169 -0.1286  1.4384
  147MOL0     H19803   2.665   0.798   9.806 -0.0702  0.0911 -0.0827
  147MOL0     H19804   2.509   0.852   9.858 -0.6285  0.8882 -0.9214
  147MOL0     H19805   2.676   1.234   9.732 -0.2606  2.6412 -3.1819
  147MOL0     H19806   2.830   1.328   9.584 -0.3623  0.2685 -0.6587
  147MOL0     H19807   3.289   1.299   9.366  0.3582  2.2122  1.4122
  147MOL0     H19808   3.414   1.412   9.195 -0.9638 -3.1011  0.3704
  147MOL0     H19809   3.264   1.718   8.867 -2.9917  0.1163  0.2461
  147MOL0     H19810   3.229   1.772   9.035  0.6944  0.1197 -0.5870
  147MOL0     H19811   3.404   1.911   8.946  0.0120  0.5132  1.3418
  147MOL0     H19812   3.427   1.843   9.094 -2.2643 -1.4834  0.5362
  147MOL0     H19813   3.573   1.679   9.041 -2.7197  1.5686  1.9726
  147MOL0     H19814   3.541   1.694   8.861 -0.9250  0.9960 -0.6075
  147MOL0     H19815   3.629   1.949   8.925 -1.3566 -1.7329 -0.7849
  147MOL0     H19816   3.739   1.825   8.867  0.8885  0.0740  1.4944
  147MOL0     H19817   3.676   1.871   9.156  0.0660  1.7367  0.7466
  147MOL0     H19818   3.813   1.941   9.065  1.9983 -2.7928 -1.8275
  147MOL0     H19819   3.795   1.674   9.176 -0.5222 -0.9570 -0.3949
  147MOL0     H19820   3.870   1.684   9.016 -0.4550  2.0403 -1.4025
  147MOL0     H19821   4.027   1.849   9.096  0.2589 -0.4232  0.1994
  147MOL0     H19822   4.039   1.693   9.175  0.5535  0.3355 -0.6387
  147MOL0     H19823   3.949   1.962   9.286  1.6744  1.0195 -0.3602
  147MOL0     H19824   3.906   1.803   9.371 -1.6585  1.3695 -0.8913
  147MOL0     H19825   3.054   1.606   9.042  1.3904  1.4753 -0.5626
  147MOL0     H19826   2.942   1.519   9.252  0.6752  0.9209  1.9412
  147MOL0     H19827   2.967   0.925   9.479 -0.4044  0.9414 -0.0113
  147MOL0     H19828   2.822   0.829   9.627 -0.0759 -0.2607 -3.5635
  147MOL0     H19829   2.773   2.004   9.280  0.5669 -2.1743 -2.1177
  147MOL0     H19830   2.888   2.231   9.284 -1.4860  0.6435 -0.5485
  147MOL0     H19831   3.073   2.553   8.968  1.8348 -2.7018 -1.3031
  147MOL0     H19832   3.183   2.773   8.949 -0.9817 -0.9017  0.3118
  147MOL0     H19833   3.362   2.966   8.937  0.3279  1.6121  0.9751
  147MOL0     H19834   3.465   2.833   8.916 -1.5491  0.4369 -0.0757
  147MOL0     H19835   3.592   3.069   8.921 -1.0360  0.7246 -0.6078
  147MOL0     H19836   3.619   2.982   9.079 -0.5168  0.4469  1.4516
  147MOL0     H19837   3.567   3.218   9.144 -0.3923  2.6526 -0.9832
  147MOL0     H19838   3.424   3.118   9.165 -0.4242  1.4528 -0.4373
  147MOL0     H19839   3.365   3.226   8.915  0.9136  1.8277 -2.2276
  147MOL0     H19840   3.390   3.335   9.057  0.0207  1.0818 -0.6374
  147MOL0     H19841   3.686   3.481   8.833 -2.2681  1.5577 -0.3458
  147MOL0     H19842   3.443   2.674   9.270 -0.0768 -0.7269  1.6048
  147MOL0     H19843   3.381   2.471   9.395  1.4209  0.4130 -0.7949
  147MOL0     H19844   3.244   2.367   9.366  0.5618  2.1950  2.0872
  147MOL0     H19845   3.402   2.341   9.288  0.4536  1.4524  0.3644
  148MOL0     O19846   7.890   6.343   8.096  0.3259  0.0003 -0.1173
  148MOL0     C19847   7.845   6.314   8.202 -0.5206 -0.4693 -0.4394
  148MOL0     O19848   7.798   6.187   8.229  0.2860  0.1171  0.1739
  148MOL0     C19849   7.816   6.076   8.151 -1.1173 -0.0057  0.2516
  148MOL0     C19850   7.946   6.049   8.093 -0.3488 -0.1216 -0.3179
  148MOL0     C19851   7.954   5.931   8.025 -0.3903  0.1159 -0.8151
  148MOL0     C19852   7.852   5.834   8.014  0.1976  0.5335  0.0980
  148MOL0     O19853   7.891   5.710   7.964  0.5903  1.4530 -0.1103
  148MOL0     C19854   7.779   5.623   7.943  0.5079 -0.0694 -0.8296
  148MOL0     C19855   7.806   5.520   7.851 -1.1737 -0.6921  0.2596
  148MOL0     C19856   7.861   5.575   7.714  0.2867 -0.1750  0.3573
  148MOL0     C19857   7.847   5.484   7.591 -0.0646  0.5018  0.2996
  148MOL0     C19858   7.861   5.549   7.451  0.2950  0.5719  0.1118
  148MOL0     C19859   7.869   5.449   7.339  0.2784  0.5819 -0.4329
  148MOL0     C19860   7.888   5.491   7.195 -0.4799 -0.3282  0.1596
  148MOL0     C19861   8.007   5.592   7.182 -0.0587 -0.2287  0.0483
  148MOL0     N19862   8.141   5.550   7.215  0.2563  0.3825 -0.1015
  148MOL0     C19863   8.200   5.507   7.337  0.2611  0.2179 -0.3748
  148MOL0     C19864   8.330   5.476   7.296  0.6528 -0.1367  0.0663
  148MOL0     C19865   8.451   5.455   7.387  0.6107 -0.1699  0.8669
  148MOL0     C19866   8.563   5.561   7.360  0.3894  0.4098 -0.2339
  148MOL0     C19867   8.650   5.528   7.241 -0.0245 -0.0355  0.3889
  148MOL0     C19868   8.779   5.444   7.262  0.2064 -0.7095  0.0706
  148MOL0     O19869   8.869   5.519   7.345  0.2449 -0.3083 -0.5240
  148MOL0     C19870   9.000   5.500   7.338 -0.1563  0.1704 -0.2136
  148MOL0     C19871   9.094   5.597   7.373 -0.3194  0.4797 -0.3237
  148MOL0     C19872   9.233   5.576   7.360  0.5311  0.1959 -0.4376
  148MOL0     C19873   9.289   5.461   7.306  0.5662  0.7587 -0.2935
  148MOL0     C19874   9.438   5.425   7.312 -0.0949  0.5308 -1.1119
  148MOL0     O19875   9.460   5.294   7.304 -0.5427  0.7649 -0.3030
  148MOL0     C19876   9.571   5.239   7.363 -0.6851  0.3996 -1.1565
  148MOL0     C19877   9.636   5.292   7.482  0.2936  1.5553 -0.4371
  148MOL0     C19878   9.756   5.241   7.530  0.6111 -0.0610 -0.0709
  148MOL0     C19879   9.805   5.127   7.465 -0.5349  0.5513 -0.1304
  148MOL0     O19880   9.917   5.062   7.509 -0.1648  0.5089  0.7625
  148MOL0     C19881  10.034   5.139   7.492 -0.3675 -0.9681  0.0707
  148MOL0     C19882  10.146   5.082   7.583 -0.8071 -0.4179 -0.9309
  148MOL0     C19883  10.236   4.970   7.517  0.4998 -0.6126  1.0856
  148MOL0     C19884  10.328   4.897   7.608 -0.6671  0.2102 -0.8639
  148MOL0     C19885  10.396   4.775   7.537  0.0603  1.1081  0.8297
  148MOL0     C19886  10.485   4.698   7.639  0.3622  0.3986 -0.4652
  148MOL0     C19887  10.428   4.628   7.759  1.2749  0.2453  0.5684
  148MOL0     C19888  10.491   4.499   7.794  0.1044 -0.0234 -0.1060
  148MOL0    Cl19889  10.403   4.399   7.919  0.1130  0.5638 -0.0659
  148MOL0     C19890   9.745   5.070   7.348  0.0320  0.4812 -0.6899
  148MOL0     C19891   9.625   5.121   7.304  0.1942 -0.0645 -0.3406
  148MOL0     O19892   9.513   5.520   7.321 -0.0699  0.3162 -0.3166
  148MOL0     C19893   9.194   5.362   7.271  0.3804 -0.4192  0.0041
  148MOL0     C19894   9.057   5.379   7.299  0.8177 -1.2883 -0.3628
  148MOL0     N19895   8.329   5.468   7.160 -1.3265  0.7020  0.3715
  148MOL0     N19896   8.221   5.508   7.111  0.6902 -0.1753 -1.2864
  148MOL0     C19897   7.726   5.863   8.072  0.5122  0.1510 -1.0824
  148MOL0     C19898   7.707   5.991   8.136  0.1009 -0.4004 -0.2013
  148MOL0     C19899   7.842   6.409   8.310 -0.1545  0.5062  0.2115
  148MOL0     C19900   7.728   6.421   8.396  0.2413  0.4044  0.7610
  148MOL0     C19901   7.731   6.493   8.510 -0.6203  0.0597 -0.2236
  148MOL0     C19902   7.844   6.576   8.542  0.1571  0.5165  0.1808
  148MOL0     O19903   7.861   6.654   8.657 -1.6750 -0.6056  0.0534
  148MOL0     C19904   7.741   6.678   8.727  0.6699  0.8717  0.3088
  148MOL0     C19905   7.744   6.806   8.797  0.3307  0.1832  0.6788
  148MOL0     C19906   7.783   6.814   8.951 -0.8002  0.6223  0.2614
  148MOL0     C19907   7.918   6.743   8.969  0.2017  0.6506 -0.1110
  148MOL0     C19908   7.975   6.782   9.097 -0.3460 -0.0144 -0.3332
  148MOL0     C19909   8.042   6.814   9.198 -0.2730 -0.3394  1.0422
  148MOL0     C19910   7.942   6.583   8.444 -0.5643  0.5773 -0.0271
  148MOL0     C19911   7.951   6.507   8.339  0.0741 -0.0831  0.0374
  148MOL0     C19912   8.082   6.520   8.271 -0.5869  0.3070  0.2954
  148MOL0     H19913   8.026   6.118   8.115 -2.7778  3.1202 -0.8515
  148MOL0     H19914   8.049   5.902   7.981 -0.1751  1.3764 -1.2118
  148MOL0     H19915   7.757   5.575   8.039  2.9473 -2.3963 -1.3123
  148MOL0     H19916   7.688   5.673   7.909  0.7231  1.1626  0.2982
  148MOL0     H19917   7.705   5.479   7.836 -1.5116  0.7298 -1.8349
  148MOL0     H19918   7.879   5.450   7.892 -0.4374  0.1032  0.3267
  148MOL0     H19919   7.970   5.583   7.726  0.5845 -3.6722  1.1059
  148MOL0     H19920   7.808   5.669   7.697 -0.0300 -0.7732 -2.3911
  148MOL0     H19921   7.919   5.403   7.602  0.4639  0.6920 -1.4186
  148MOL0     H19922   7.750   5.433   7.600  1.0656 -2.0587 -0.9115
  148MOL0     H19923   7.776   5.613   7.426  0.4899  0.9495  0.4072
  148MOL0     H19924   7.958   5.600   7.441  0.7845 -0.7058 -3.1244
  148MOL0     H19925   7.954   5.386   7.365  1.5084  1.2858 -2.5126
  148MOL0     H19926   7.775   5.393   7.346  1.7340 -1.8346  1.1138
  148MOL0     H19927   7.805   5.540   7.145 -0.1864  2.1082  1.8739
  148MOL0     H19928   7.911   5.398   7.142  1.7228  0.0133  0.4120
  148MOL0     H19929   8.005   5.605   7.073 -4.2887 -1.4702 -0.1989
  148MOL0     H19930   7.986   5.692   7.220 -3.4732 -1.3034  1.2753
  148MOL0     H19931   8.165   5.508   7.440 -0.9287 -0.8663 -0.7410
  148MOL0     H19932   8.416   5.467   7.489 -2.1960 -1.9115  0.2026
  148MOL0     H19933   8.498   5.357   7.374 -0.0830 -0.2569 -1.6107
  148MOL0     H19934   8.515   5.659   7.345 -0.8537 -0.5323 -3.0505
  148MOL0     H19935   8.611   5.568   7.459 -3.2021 -0.2366  1.7149
  148MOL0     H19936   8.691   5.625   7.210  1.7137 -0.4596  1.2423
  148MOL0     H19937   8.590   5.483   7.161  0.5558 -2.0539  1.0557
  148MOL0     H19938   8.825   5.438   7.163 -1.2625  3.0601 -1.0357
  148MOL0     H19939   8.756   5.354   7.319  3.0936 -0.2954  2.1082
  148MOL0     H19940   9.068   5.691   7.421  1.6406  0.3148  1.1748
  148MOL0     H19941   9.300   5.641   7.414 -0.4269 -1.6304  3.2630
  148MOL0     H19942   9.587   5.375   7.533 -1.3181  0.6415 -0.4589
  148MOL0     H19943   9.800   5.283   7.619  0.1830  0.3025 -0.0259
  148MOL0     H19944  10.070   5.134   7.389  0.4654 -2.4826  0.4085
  148MOL0     H19945  10.011   5.243   7.517  0.0148 -1.2112  1.5193
  148MOL0     H19946  10.219   5.161   7.598  0.7298 -1.7144 -1.3476
  148MOL0     H19947  10.114   5.054   7.684  4.5337 -0.6572  1.0055
  148MOL0     H19948  10.162   4.901   7.476  2.5751 -3.1498  1.3308
  148MOL0     H19949  10.281   5.013   7.427 -2.9699  0.5816 -0.2039
  148MOL0     H19950  10.273   4.867   7.698  1.5914 -0.0663  0.5232
  148MOL0     H19951  10.398   4.969   7.652 -0.0681 -1.7987  1.7182
  148MOL0     H19952  10.451   4.820   7.454 -1.8053  0.3961 -0.8612
  148MOL0     H19953  10.320   4.706   7.500  2.5868 -2.0541  1.0729
  148MOL0     H19954  10.530   4.617   7.580 -2.5778 -0.5633 -1.5762
  148MOL0     H19955  10.561   4.765   7.680  3.4579 -2.3853 -1.2306
  148MOL0     H19956  10.323   4.603   7.744  1.2338  0.7512 -0.0412
  148MOL0     H19957  10.440   4.696   7.843  0.1580  1.9644 -0.6001
  148MOL0     H19958  10.497   4.446   7.698  0.3836  2.4112 -1.5155
  148MOL0     H19959  10.594   4.509   7.828  0.5322  3.0118 -1.9499
  148MOL0     H19960   9.797   4.986   7.303 -0.5354 -0.1614 -0.1672
  148MOL0     H19961   9.585   5.079   7.212 -0.0139 -0.2431 -0.1708
  148MOL0     H19962   9.232   5.270   7.227 -0.5646 -0.1760 -1.3890
  148MOL0     H19963   8.976   5.308   7.282 -2.1067  1.9769 -1.4662
  148MOL0     H19964   7.649   5.787   8.081 -0.4701  1.3589  1.9734
  148MOL0     H19965   7.613   6.027   8.175  1.2848  2.1701  0.4954
  148MOL0     H19966   7.640   6.357   8.392 -1.0361  2.0364  1.2447
  148MOL0     H19967   7.651   6.477   8.582  1.1361  0.3110  1.8959
  148MOL0     H19968   7.717   6.589   8.785  2.8106  0.4208  0.5537
  148MOL0     H19969   7.658   6.687   8.655  1.5468  2.2231 -0.5705
  148MOL0     H19970   7.642   6.847   8.794  0.9001  1.5990 -0.9099
  148MOL0     H19971   7.811   6.866   8.735  1.5211 -2.3164 -0.5492
  148MOL0     H19972   7.701   6.767   9.006 -0.5023 -0.1041  0.1028
  148MOL0     H19973   7.781   6.917   8.987 -2.3375  0.3967  0.8991
  148MOL0     H19974   7.915   6.634   8.957  0.2815  0.5402  0.8037
  148MOL0     H19975   7.986   6.764   8.887 -0.8693  1.1076 -0.9109
  148MOL0     H19976   8.097   6.844   9.285  0.4443 -0.2606  0.5692
  148MOL0     H19977   8.020   6.655   8.466 -0.2439  0.2099  0.0451
  148MOL0     H19978   8.062   6.532   8.164  2.0505 -2.0878 -0.6080
  148MOL0     H19979   8.143   6.603   8.308  0.8942 -0.1496 -0.9892
  148MOL0     H19980   8.135   6.425   8.281 -0.5931  0.4969  2.9183
  149MOL0     O19981  10.873  10.328   6.740 -0.1233 -0.0489 -0.4948
  149MOL0     C19982  10.957  10.272   6.806  0.1146 -0.1730  0.0687
  149MOL0     O19983  11.063  10.188   6.755 -0.5689 -0.2611 -0.2908
  149MOL0     C19984  11.053  10.162   6.619  0.1736 -0.0864 -0.6156
  149MOL0     C19985  11.141  10.219   6.531 -0.1679 -0.3272  1.0371
  149MOL0     C19986  11.130  10.198   6.398  0.5747  0.5171 -0.3728
  149MOL0     C19987  11.032  10.121   6.349  0.3248  0.3805  0.5616
  149MOL0     O19988  11.025  10.099   6.214  0.1081 -0.4098 -0.2653
  149MOL0     C19989  10.912  10.029   6.171 -0.0147  0.2342  0.0427
  149MOL0     C19990  10.927  10.034   6.021  0.5141  0.4577  0.1688
  149MOL0     C19991  10.837   9.944   5.932  0.5264  0.6513 -0.1478
  149MOL0     C19992  10.891   9.920   5.796  0.7795 -0.5580  0.0561
  149MOL0     C19993  10.791   9.827   5.723  0.1504  0.2455  0.2532
  149MOL0     C19994  10.810   9.677   5.764  0.4429  0.3108  0.3760
  149MOL0     C19995  10.724   9.584   5.674 -0.3367  0.0460  0.0196
  149MOL0     C19996  10.610   9.513   5.751  1.0766 -0.1278  0.1202
  149MOL0     N19997  10.639   9.383   5.809  0.2590 -0.3838  0.0247
  149MOL0     C19998  10.702   9.369   5.930  0.7485 -0.6293  0.2881
  149MOL0     C19999  10.736   9.239   5.939 -0.1485  0.7515 -0.4450
  149MOL0     C20000  10.813   9.157   6.039 -0.6658 -0.2478  0.2309
  149MOL0     C20001  10.957   9.213   6.062  0.5154 -0.2147 -0.1630
  149MOL0     C20002  11.034   9.137   6.178 -1.0251 -0.2959  0.5716
  149MOL0     C20003  11.182   9.186   6.185 -0.1868 -0.0223 -0.1157
  149MOL0     O20004  11.236   9.146   6.315 -0.6040  0.1026 -0.3403
  149MOL0     C20005  11.378   9.136   6.303  0.0836  0.8099 -0.1482
  149MOL0     C20006  11.465   9.226   6.353 -0.5926 -0.1784  0.5127
  149MOL0     C20007  11.603   9.209   6.335 -0.4523 -0.1360 -0.3396
  149MOL0     C20008  11.657   9.108   6.262 -0.0768 -0.2315  0.6051
  149MOL0     C20009  11.801   9.089   6.240 -0.1200 -0.3959  1.3818
  149MOL0     O20010  11.883   9.196   6.272 -0.2535 -0.5669  0.1937
  149MOL0     C20011  12.017   9.182   6.247  0.1336 -1.1962  0.4049
  149MOL0     C20012  12.083   9.273   6.168 -0.0001  0.5098 -0.1723
  149MOL0     C20013  12.221   9.258   6.159  0.0498  0.8227 -0.0822
  149MOL0     C20014  12.292   9.162   6.232  0.2599 -0.3641  0.4372
  149MOL0     O20015  12.423   9.156   6.217 -0.5817  0.3775  0.7770
  149MOL0     C20016  12.492   9.066   6.316  0.7624 -0.6938  0.2046
  149MOL0     C20017  12.499   9.118   6.453 -1.0347 -0.2275 -0.5217
  149MOL0     C20018  12.516   9.012   6.568 -0.0354  0.5204  0.4537
  149MOL0     C20019  12.653   8.953   6.587  0.3279 -0.0278  0.7762
  149MOL0     C20020  12.652   8.836   6.679 -0.2177  0.1046 -0.8847
  149MOL0     C20021  12.760   8.738   6.648  0.0745 -0.3231  0.3038
  149MOL0     C20022  12.767   8.616   6.735 -0.2607 -0.3160  0.3063
  149MOL0     C20023  12.787   8.636   6.882  0.1213 -0.4849  0.1126
  149MOL0    Cl20024  12.930   8.725   6.913  0.1615 -0.0157 -0.3066
  149MOL0     C20025  12.216   9.077   6.319 -0.3083 -0.2825  1.0149
  149MOL0     C20026  12.076   9.093   6.327  0.1603 -0.2267  0.2002
  149MOL0     O20027  11.841   8.988   6.187  0.0232  0.6513 -0.2243
  149MOL0     C20028  11.567   9.024   6.200  0.1967  0.0476 -1.1341
  149MOL0     C20029  11.423   9.032   6.220  0.0022  0.4440  0.0610
  149MOL0     N20030  10.705   9.189   5.817  0.4266 -0.5240 -0.9270
  149MOL0     N20031  10.641   9.271   5.740 -0.1644 -0.5764  0.0943
  149MOL0     C20032  10.938  10.061   6.439  0.0805 -0.3781  0.2645
  149MOL0     C20033  10.955  10.076   6.576  0.1896 -0.1106  0.1029
  149MOL0     C20034  10.947  10.304   6.953 -0.7146  0.4779  0.2499
  149MOL0     C20035  11.048  10.233   7.031  1.0904  0.5867  0.0464
  149MOL0     C20036  11.055  10.227   7.171 -0.7808 -0.4493  0.0134
  149MOL0     C20037  10.960  10.298   7.235  0.0084 -0.5110 -0.6916
  149MOL0     O20038  10.975  10.302   7.375 -0.1634 -0.7520 -0.1189
  149MOL0     C20039  10.884  10.383   7.449 -0.1094 -0.1315  0.1202
  149MOL0     C20040  10.742  10.334   7.468 -1.1817 -0.4698 -0.2091
  149MOL0     C20041  10.636  10.430   7.538 -0.2854 -0.1007 -0.5196
  149MOL0     C20042  10.679  10.478   7.681  0.2145  0.2090  0.0490
  149MOL0     C20043  10.739  10.375   7.764  0.6265  0.3996  0.2933
  149MOL0     C20044  10.790  10.298   7.841 -1.2888 -0.1779  0.3729
  149MOL0     C20045  10.861  10.374   7.172  0.4418  0.2355  0.1977
  149MOL0     C20046  10.847  10.375   7.027 -0.5371  0.6174 -1.2142
  149MOL0     C20047  10.753  10.461   6.960 -0.7417 -0.4122  0.4615
  149MOL0     H20048  11.224  10.274   6.574 -2.0269  2.9867  0.7354
  149MOL0     H20049  11.204  10.238   6.329  0.7338 -0.3799 -0.7355
  149MOL0     H20050  10.918   9.923   6.200 -0.7626  0.0912 -0.3011
  149MOL0     H20051  10.823  10.083   6.204 -0.2272 -0.4406  0.6038
  149MOL0     H20052  11.028  10.009   5.987  0.0142 -1.0427 -0.2472
  149MOL0     H20053  10.911  10.138   5.989  2.7315  0.2914 -1.7401
  149MOL0     H20054  10.740   9.993   5.938  0.9732  1.3870  1.9304
  149MOL0     H20055  10.825   9.851   5.989 -0.7695 -0.7607 -2.5855
  149MOL0     H20056  10.877  10.018   5.750 -0.4021 -0.2588  0.9938
  149MOL0     H20057  10.993   9.881   5.791  0.2513 -1.8526 -0.9941
  149MOL0     H20058  10.685   9.842   5.746  0.2254 -2.1798  2.7671
  149MOL0     H20059  10.812   9.823   5.616 -4.1856 -0.2103 -0.7558
  149MOL0     H20060  10.909   9.635   5.746 -0.0983 -0.3118 -1.4340
  149MOL0     H20061  10.784   9.664   5.869  1.9661  1.7093  0.9735
  149MOL0     H20062  10.787   9.504   5.633  0.4903  0.2623  0.8453
  149MOL0     H20063  10.693   9.629   5.579 -1.5126 -1.9587 -0.5997
  149MOL0     H20064  10.570   9.580   5.827 -1.0858  0.7823 -1.7036
  149MOL0     H20065  10.532   9.492   5.677  1.3055  0.9412 -0.4517
  149MOL0     H20066  10.714   9.443   6.009 -0.4296 -0.6700  0.5195
  149MOL0     H20067  10.768   9.158   6.138 -0.4324 -0.8254  0.3427
  149MOL0     H20068  10.830   9.055   6.005  2.2200 -0.3695  1.7235
  149MOL0     H20069  11.007   9.225   5.965  1.3867 -1.7521  0.0669
  149MOL0     H20070  10.941   9.314   6.099 -2.0453  0.2323 -2.1463
  149MOL0     H20071  11.030   9.029   6.162 -0.6053 -0.4006  1.1641
  149MOL0     H20072  10.992   9.155   6.277  1.4078  2.4250  1.2382
  149MOL0     H20073  11.188   9.295   6.187  0.8421 -0.0825  1.4732
  149MOL0     H20074  11.239   9.145   6.101  1.5143 -1.1814  1.5505
  149MOL0     H20075  11.424   9.312   6.406  1.5661 -0.4185  2.7302
  149MOL0     H20076  11.666   9.289   6.373 -2.1491  1.0316  0.1418
  149MOL0     H20077  12.021   9.348   6.120 -1.2590 -0.5480 -0.2736
  149MOL0     H20078  12.266   9.318   6.080  1.0700 -0.5883 -0.6142
  149MOL0     H20079  12.440   8.970   6.319 -1.8956  0.4467 -2.8212
  149MOL0     H20080  12.592   9.042   6.279  0.4470  0.8992 -1.8796
  149MOL0     H20081  12.586   9.184   6.448  0.8398 -2.4820 -0.0179
  149MOL0     H20082  12.411   9.179   6.475 -1.0765 -0.8557  1.1829
  149MOL0     H20083  12.498   9.049   6.669  0.5875 -0.0019  0.7622
  149MOL0     H20084  12.445   8.930   6.553 -0.3428  0.8981 -0.1966
  149MOL0     H20085  12.712   9.035   6.630 -0.2669  0.2156  1.1376
  149MOL0     H20086  12.701   8.927   6.492 -0.4052 -2.9421  1.1227
  149MOL0     H20087  12.559   8.778   6.676 -0.6297  0.7583 -3.2381
  149MOL0     H20088  12.658   8.868   6.784  0.8238 -1.1176 -0.5553
  149MOL0     H20089  12.722   8.703   6.552  2.0206  0.9433 -1.0028
  149MOL0     H20090  12.854   8.792   6.634  0.3880 -1.1416 -0.9307
  149MOL0     H20091  12.842   8.547   6.698  0.5638  0.2889  0.8077
  149MOL0     H20092  12.662   8.584   6.730 -1.1084  1.8011  2.2595
  149MOL0     H20093  12.696   8.688   6.913 -0.8655 -0.4389 -2.6052
  149MOL0     H20094  12.783   8.541   6.936 -2.0584  0.7101  2.2526
  149MOL0     H20095  12.255   9.019   6.403 -1.2088 -0.2185  1.4929
  149MOL0     H20096  12.020   9.047   6.408  0.9403  1.5008  1.7955
  149MOL0     H20097  11.612   8.947   6.137 -0.3780 -0.3208 -1.1103
  149MOL0     H20098  11.353   8.957   6.186  0.3026  0.6107 -0.9563
  149MOL0     H20099  10.864   9.989   6.407  0.0551 -0.9497  1.5555
  149MOL0     H20100  10.891  10.033   6.652 -1.2336  2.4319  0.4339
  149MOL0     H20101  11.132  10.174   6.994  0.3597 -0.5102  0.0924
  149MOL0     H20102  11.137  10.177   7.221 -0.4818 -1.1830 -1.1637
  149MOL0     H20103  10.878  10.475   7.390  1.4880 -0.2851 -0.3514
  149MOL0     H20104  10.925  10.409   7.547  0.7974 -2.8818  0.5489
  149MOL0     H20105  10.738  10.236   7.516  0.0637  0.2749  1.5024
  149MOL0     H20106  10.706  10.319   7.365  3.5646  0.0801 -2.2084
  149MOL0     H20107  10.544  10.375   7.556 -0.2745  0.4133  1.2700
  149MOL0     H20108  10.625  10.518   7.474 -0.3662 -0.2883 -0.7645
  149MOL0     H20109  10.758  10.553   7.670  2.8933 -2.4190 -0.1252
  149MOL0     H20110  10.598  10.530   7.732 -1.8575  1.3263 -3.9539
  149MOL0     H20111  10.837  10.232   7.911  0.4825  0.6806  0.0542
  149MOL0     H20112  10.791  10.441   7.221 -2.4954 -2.4552 -0.0365
  149MOL0     H20113  10.683  10.403   6.900  0.3928 -0.6266 -0.7161
  149MOL0     H20114  10.694  10.523   7.027  1.7995  2.5114  0.2448
  149MOL0     H20115  10.811  10.525   6.892 -1.6991 -1.9312 -1.9370
  150MOL0     O20116   0.751   0.129   0.149  0.3959 -0.0807  0.1129
  150MOL0     C20117   0.819   0.048   0.090 -0.4934 -0.1496 -0.8478
  150MOL0     O20118   0.914  -0.027   0.161  0.3074 -0.0864  0.5654
  150MOL0     C20119   0.915  -0.039   0.298 -0.0489 -0.5934 -1.6476
  150MOL0     C20120   1.025  -0.004   0.364 -0.6695  0.5944 -0.3410
  150MOL0     C20121   1.032  -0.026   0.504 -0.0276 -0.0326  1.0086
  150MOL0     C20122   0.921  -0.075   0.570  0.1224  0.5949  0.7119
  150MOL0     O20123   0.944  -0.106   0.700 -0.5032  0.1724  0.5071
  150MOL0     C20124   0.834  -0.104   0.791 -0.5254 -0.1778 -0.4800
  150MOL0     C20125   0.879  -0.075   0.934 -0.8960 -0.7732 -0.3816
  150MOL0     C20126   0.989   0.039   0.942  0.1451 -0.6062  1.0900
  150MOL0     C20127   1.041   0.066   1.080 -0.8225  0.0698 -0.7836
  150MOL0     C20128   1.113   0.194   1.111 -0.3907  1.3125 -0.3865
  150MOL0     C20129   1.257   0.204   1.046 -0.5878 -0.4348  0.4191
  150MOL0     C20130   1.347   0.099   1.119 -0.1882  0.0442  0.1283
  150MOL0     C20131   1.400   0.014   1.010 -0.0654  0.5245 -0.1212
  150MOL0     N20132   1.500  -0.080   1.053 -0.0256 -0.9845  0.1357
  150MOL0     C20133   1.603  -0.070   1.136 -0.1785 -0.3746 -0.8403
  150MOL0     C20134   1.625  -0.196   1.179 -0.2657 -0.9332 -0.0042
  150MOL0     C20135   1.747  -0.238   1.261 -0.1219  0.1596 -0.0173
  150MOL0     C20136   1.874  -0.247   1.181  0.5039  1.2063  0.0946
  150MOL0     C20137   1.986  -0.285   1.266 -0.9310 -0.1346  0.5028
  150MOL0     C20138   2.118  -0.208   1.225  0.1736 -0.4112  1.1804
  150MOL0     O20139   2.244  -0.261   1.281 -0.2868  0.7168  0.0456
  150MOL0     C20140   2.367  -0.208   1.230  0.9071 -0.3481  0.6115
  150MOL0     C20141   2.377  -0.115   1.125 -1.1295 -0.1403 -0.2050
  150MOL0     C20142   2.497  -0.061   1.075 -0.1085 -0.2796 -0.5627
  150MOL0     C20143   2.621  -0.104   1.135 -0.2415  0.3893 -0.3628
  150MOL0     C20144   2.759  -0.055   1.088  0.4100  0.4150  0.2486
  150MOL0     O20145   2.869  -0.121   1.127  0.4083  0.8182  0.4667
  150MOL0     C20146   2.991  -0.115   1.061 -0.1881  0.0638 -0.2294
  150MOL0     C20147   3.000  -0.081   0.924 -0.1375  0.1123 -0.4071
  150MOL0     C20148   3.115  -0.101   0.853  0.0844 -0.5428  0.5293
  150MOL0     C20149   3.233  -0.143   0.919 -0.0748  0.2985  0.5348
  150MOL0     O20150   3.362  -0.167   0.867 -0.7679  0.6744  0.5635
  150MOL0     C20151   3.375  -0.146   0.721  0.2355 -0.3191  0.2792
  150MOL0     C20152   3.381   0.009   0.692  0.2801  0.7683  1.0117
  150MOL0     C20153   3.449   0.096   0.799 -0.0691  0.4916 -0.3849
  150MOL0     C20154   3.431   0.253   0.767 -0.6115  0.1347 -0.4009
  150MOL0     C20155   3.297   0.313   0.818 -0.5325 -0.6161 -0.8214
  150MOL0     C20156   3.300   0.469   0.846  0.3088  0.1592 -0.0114
  150MOL0     C20157   3.342   0.550   0.718 -0.4651  0.6491  0.0944
  150MOL0     C20158   3.369   0.692   0.762 -0.5012  0.2277 -0.1682
  150MOL0    Cl20159   3.540   0.716   0.799  0.2542  0.2686  0.3635
  150MOL0     C20160   3.225  -0.169   1.056  1.5798  0.6153 -0.0920
  150MOL0     C20161   3.104  -0.160   1.127 -0.4167  0.2834  0.4741
  150MOL0     O20162   2.763   0.042   1.017  0.0446 -0.3731 -0.0999
  150MOL0     C20163   2.612  -0.198   1.233  0.8548 -0.3133 -0.0140
  150MOL0     C20164   2.490  -0.238   1.290  0.7460  0.1039  1.2147
  150MOL0     N20165   1.546  -0.282   1.110 -0.1546  0.0127 -0.0972
  150MOL0     N20166   1.479  -0.207   1.030  0.2173  0.0141 -0.5352
  150MOL0     C20167   0.804  -0.096   0.502 -0.1200  0.7747  0.2192
  150MOL0     C20168   0.800  -0.078   0.366  0.2344 -0.0886  0.1941
  150MOL0     C20169   0.823   0.057  -0.053 -0.4124 -0.0281 -0.4295
  150MOL0     C20170   0.701   0.089  -0.106  0.0475 -0.6059  0.3197
  150MOL0     C20171   0.687   0.103  -0.250  0.1282 -0.0831 -0.5022
  150MOL0     C20172   0.786   0.071  -0.343  0.0748  0.5276 -0.1870
  150MOL0     O20173   0.755   0.072  -0.477  0.5769 -0.0971 -0.1742
  150MOL0     C20174   0.826  -0.004  -0.576  1.0812 -0.1214 -0.3803
  150MOL0     C20175   0.756   0.003  -0.707  0.3565 -0.2239  0.0931
  150MOL0     C20176   0.790   0.129  -0.780 -0.1414  0.4863 -0.4674
  150MOL0     C20177   0.932   0.136  -0.842  0.4615  1.1826 -0.4180
  150MOL0     C20178   0.935   0.245  -0.931 -0.5173  0.2437 -0.6124
  150MOL0     C20179   0.943   0.342  -1.007  0.9615 -0.0338 -0.4223
  150MOL0     C20180   0.910   0.049  -0.279  0.4228  0.3759  0.1310
  150MOL0     C20181   0.926   0.035  -0.139  0.2495  0.6050  0.2687
  150MOL0     C20182   1.065  -0.000  -0.099  0.4242  0.0255 -0.2824
  150MOL0     H20183   1.099   0.047   0.304  0.1443  1.3819  1.2613
  150MOL0     H20184   1.130  -0.015   0.549  0.7651  1.5895 -0.9850
  150MOL0     H20185   0.761  -0.029   0.759  0.5286  0.6421 -1.0111
  150MOL0     H20186   0.766  -0.190   0.796 -0.9994  0.2255  0.3915
  150MOL0     H20187   0.925  -0.163   0.979  1.3286 -1.0183 -2.9028
  150MOL0     H20188   0.794  -0.044   0.996 -0.5738  2.4113 -1.3251
  150MOL0     H20189   0.953   0.134   0.900 -0.2134  0.0854  2.8600
  150MOL0     H20190   1.068   0.018   0.869 -0.5728 -2.3961  0.7714
  150MOL0     H20191   0.962   0.077   1.155  0.3037  0.2661  0.3893
  150MOL0     H20192   1.107  -0.014   1.112 -0.1189  1.9416  2.9425
  150MOL0     H20193   1.062   0.287   1.083 -1.1900  2.4073  4.0089
  150MOL0     H20194   1.121   0.196   1.220 -0.4212 -0.9417 -0.2930
  150MOL0     H20195   1.250   0.195   0.938  2.8452  0.8860 -0.0167
  150MOL0     H20196   1.295   0.303   1.070 -0.5474 -0.5761  0.9681
  150MOL0     H20197   1.299   0.032   1.192  2.0713 -0.9795  0.7797
  150MOL0     H20198   1.431   0.152   1.164  1.7641 -1.2551 -1.7986
  150MOL0     H20199   1.311  -0.038   0.974 -0.3598  0.6949  0.3474
  150MOL0     H20200   1.436   0.076   0.928 -1.3635 -0.7296 -1.6965
  150MOL0     H20201   1.661   0.021   1.146 -0.7301  0.1379 -2.0637
  150MOL0     H20202   1.760  -0.166   1.342 -0.8722  0.9333 -0.5681
  150MOL0     H20203   1.732  -0.341   1.295  1.4614  0.3030  1.1972
  150MOL0     H20204   1.853  -0.328   1.110  0.0173 -1.9104  3.5101
  150MOL0     H20205   1.890  -0.157   1.120 -0.0320 -0.8966 -3.4110
  150MOL0     H20206   2.002  -0.393   1.270  2.0658  0.2003  0.1489
  150MOL0     H20207   1.961  -0.251   1.367 -0.1422 -2.0213  1.3973
  150MOL0     H20208   2.114  -0.100   1.242  1.9041  0.5210 -3.0061
  150MOL0     H20209   2.139  -0.220   1.118  2.4116 -0.9153  1.6184
  150MOL0     H20210   2.287  -0.083   1.075 -2.1217 -3.9030 -1.2091
  150MOL0     H20211   2.499   0.014   0.996 -2.1614  2.7607  2.0372
  150MOL0     H20212   2.911  -0.037   0.879  1.0852  2.8631 -0.3532
  150MOL0     H20213   3.117  -0.082   0.746  0.4625  0.1543  0.6532
  150MOL0     H20214   3.467  -0.180   0.673 -0.3103  0.9495 -1.8254
  150MOL0     H20215   3.298  -0.204   0.669  1.4129 -1.2825 -0.4561
  150MOL0     H20216   3.432   0.021   0.596  0.1828 -1.3096  0.6568
  150MOL0     H20217   3.275   0.036   0.686  0.0892 -0.1322  0.0000
  150MOL0     H20218   3.416   0.071   0.900 -1.0567 -3.8767 -1.5535
  150MOL0     H20219   3.555   0.068   0.803 -0.2764 -0.3002  3.3689
  150MOL0     H20220   3.451   0.268   0.660  2.8013 -1.4727 -0.1243
  150MOL0     H20221   3.513   0.313   0.805 -0.7463  0.0231  0.0763
  150MOL0     H20222   3.277   0.260   0.912 -2.2117  1.3105  0.0069
  150MOL0     H20223   3.218   0.283   0.748  0.2766 -0.8147 -1.6643
  150MOL0     H20224   3.204   0.500   0.890  1.0364  2.1711  0.2675
  150MOL0     H20225   3.378   0.496   0.917 -1.3073  0.4782  1.7252
  150MOL0     H20226   3.259   0.532   0.650  1.5111 -1.8877 -1.8165
  150MOL0     H20227   3.429   0.509   0.667 -0.8302  0.4987 -0.4036
  150MOL0     H20228   3.342   0.760   0.680 -3.1168 -1.2345 -0.6320
  150MOL0     H20229   3.308   0.728   0.845  1.6201  1.2220  1.0389
  150MOL0     H20230   3.308  -0.222   1.103  1.1816 -0.0164 -0.0832
  150MOL0     H20231   3.084  -0.195   1.228 -0.3201 -2.6503 -0.4180
  150MOL0     H20232   2.705  -0.233   1.277  0.4446 -1.5392 -0.0852
  150MOL0     H20233   2.484  -0.302   1.378 -2.2800 -1.2008  0.1866
  150MOL0     H20234   0.717  -0.126   0.560 -0.2795 -1.2825 -1.0054
  150MOL0     H20235   0.708  -0.075   0.309  0.2207  1.5534  0.2637
  150MOL0     H20236   0.607   0.111  -0.056 -1.0651 -1.1892 -1.4134
  150MOL0     H20237   0.592   0.147  -0.279 -0.5424 -0.8418  0.4722
  150MOL0     H20238   0.823  -0.108  -0.544  0.4917 -1.2090 -3.6486
  150MOL0     H20239   0.928   0.035  -0.573  0.6731  0.9750  2.3992
  150MOL0     H20240   0.648  -0.004  -0.696  0.4857 -1.0289  1.0462
  150MOL0     H20241   0.784  -0.084  -0.767 -0.3258  0.8670 -1.9011
  150MOL0     H20242   0.783   0.218  -0.717  3.0772  3.4736 -3.8188
  150MOL0     H20243   0.711   0.131  -0.856 -0.2898  1.0652 -0.3020
  150MOL0     H20244   1.006   0.148  -0.762 -0.3120  2.9589  0.0736
  150MOL0     H20245   0.956   0.047  -0.903  0.3402 -1.8226  3.5312
  150MOL0     H20246   0.963   0.431  -1.064 -1.2104  0.9364  0.2264
  150MOL0     H20247   1.001   0.038  -0.337  1.5785 -2.2774  2.2582
  150MOL0     H20248   1.133   0.062  -0.156 -0.1966  1.7345  0.7658
  150MOL0     H20249   1.085   0.018   0.007 -1.4236 -1.3246  0.3697
  150MOL0     H20250   1.095  -0.105  -0.106  0.6493 -0.2133  2.7920
  151MOL0     O20251   3.647   2.474   3.876  0.1729  0.0763  0.1063
  151MOL0     C20252   3.647   2.541   3.770 -0.5536 -0.3713 -0.4480
  151MOL0     O20253   3.756   2.607   3.705 -0.1861 -0.3255 -0.4744
  151MOL0     C20254   3.880   2.582   3.738 -0.0125 -0.0162  0.1725
  151MOL0     C20255   3.975   2.599   3.631 -0.3457  0.4347 -0.5453
  151MOL0     C20256   4.111   2.569   3.654 -0.0739  0.7070 -0.1953
  151MOL0     C20257   4.155   2.535   3.783 -0.7072 -0.7531 -0.2957
  151MOL0     O20258   4.290   2.509   3.793 -1.2359  0.0658 -0.4848
  151MOL0     C20259   4.374   2.602   3.865  0.6376  0.0025 -0.0685
  151MOL0     C20260   4.524   2.577   3.840  1.2795 -0.1270 -0.7159
  151MOL0     C20261   4.602   2.693   3.889 -0.9805 -0.2573 -0.1128
  151MOL0     C20262   4.746   2.681   3.868 -0.1791  0.7466 -1.0142
  151MOL0     C20263   4.834   2.791   3.920 -0.2723  0.7711  0.9035
  151MOL0     C20264   4.967   2.731   3.953 -0.4032 -1.0285 -0.9787
  151MOL0     C20265   5.028   2.651   3.831 -0.1486  0.5061 -0.5059
  151MOL0     C20266   5.181   2.640   3.855  0.1454 -0.2552 -0.0119
  151MOL0     N20267   5.245   2.557   3.754 -0.0260  0.0671 -0.2077
  151MOL0     C20268   5.334   2.598   3.672 -0.2925 -0.2579  0.0551
  151MOL0     C20269   5.375   2.484   3.615  0.1668  0.3582 -1.0225
  151MOL0     C20270   5.496   2.478   3.524  0.5357 -0.4044  0.5726
  151MOL0     C20271   5.455   2.384   3.405  0.3531  0.2377 -0.6369
  151MOL0     C20272   5.565   2.393   3.295 -0.4089  0.7203 -0.2635
  151MOL0     C20273   5.513   2.311   3.169  0.5306 -0.8262 -0.2748
  151MOL0     O20274   5.509   2.169   3.202 -0.1090  0.0160 -0.1772
  151MOL0     C20275   5.480   2.074   3.103  0.9266 -0.3846 -0.2243
  151MOL0     C20276   5.438   2.108   2.973  0.6292 -0.0228 -0.2191
  151MOL0     C20277   5.408   1.999   2.883  0.5125 -0.6071 -0.2572
  151MOL0     C20278   5.414   1.864   2.923  0.1711  0.6115  0.2893
  151MOL0     C20279   5.399   1.753   2.820 -0.3464 -0.3145  0.6417
  151MOL0     O20280   5.380   1.795   2.691 -0.3026  0.8390 -0.0473
  151MOL0     C20281   5.363   1.694   2.599 -0.1370 -0.4712  0.0930
  151MOL0     C20282   5.244   1.695   2.521 -0.0724 -1.6687  0.1339
  151MOL0     C20283   5.222   1.586   2.430  0.2837  0.8286  0.1071
  151MOL0     C20284   5.324   1.500   2.394  0.2824  0.3704 -0.0538
  151MOL0     O20285   5.297   1.392   2.315 -0.7790 -0.1600  0.0828
  151MOL0     C20286   5.312   1.404   2.171  0.7051 -0.8297  0.3752
  151MOL0     C20287   5.163   1.388   2.111 -0.0576 -0.3346 -0.9893
  151MOL0     C20288   5.113   1.242   2.119 -0.4618  0.4298 -0.1325
  151MOL0     C20289   4.971   1.244   2.115  0.7631  0.4086 -0.5342
  151MOL0     C20290   4.914   1.116   2.056 -0.5320  0.9491  0.0594
  151MOL0     C20291   4.936   1.115   1.897  0.5918  0.2857  0.0604
  151MOL0     C20292   4.847   1.004   1.845 -0.1933 -0.4549  0.7319
  151MOL0     C20293   4.885   0.977   1.697  0.3567 -0.0850  0.4606
  151MOL0    Cl20294   4.859   1.128   1.613  0.1042 -0.3361 -0.3593
  151MOL0     C20295   5.446   1.505   2.459  0.5795  0.3009  0.8863
  151MOL0     C20296   5.463   1.601   2.556 -0.8680  0.0240 -0.1901
  151MOL0     O20297   5.412   1.639   2.856  0.0442 -0.8876  0.1238
  151MOL0     C20298   5.445   1.832   3.055  0.3552 -0.1658  0.3481
  151MOL0     C20299   5.483   1.937   3.138 -0.4314 -0.6521  0.2918
  151MOL0     N20300   5.316   2.376   3.668 -0.2780 -0.2652  0.2929
  151MOL0     N20301   5.233   2.421   3.757  0.4125  0.1585  0.3218
  151MOL0     C20302   4.068   2.529   3.889 -0.4377  0.3701 -0.3159
  151MOL0     C20303   3.933   2.542   3.863  0.2509 -0.2678 -0.9876
  151MOL0     C20304   3.515   2.566   3.714 -0.0724 -0.0768 -0.5097
  151MOL0     C20305   3.501   2.677   3.619 -0.2075 -0.2166 -0.5974
  151MOL0     C20306   3.381   2.728   3.565  0.0524 -0.2319 -0.3948
  151MOL0     C20307   3.262   2.668   3.603  0.1800 -0.9726  0.3277
  151MOL0     O20308   3.138   2.709   3.546 -0.3609 -0.3607  0.7860
  151MOL0     C20309   3.019   2.683   3.612  0.3526  0.1657  0.6898
  151MOL0     C20310   2.932   2.601   3.508 -0.5210  0.2505  0.0985
  151MOL0     C20311   2.900   2.683   3.379 -0.3439 -0.3962 -0.9459
  151MOL0     C20312   3.007   2.713   3.277 -0.4627 -0.0046 -0.0352
  151MOL0     C20313   2.954   2.710   3.144 -0.0631  0.7944  0.6234
  151MOL0     C20314   2.925   2.702   3.027 -0.1581  0.0618 -0.3563
  151MOL0     C20315   3.276   2.551   3.689  0.1834 -0.0053  0.2111
  151MOL0     C20316   3.396   2.502   3.747 -0.0720 -0.3946  0.4236
  151MOL0     C20317   3.384   2.374   3.828  0.0055  1.0209  0.2886
  151MOL0     H20318   3.933   2.617   3.532 -2.4670  2.6809  0.6351
  151MOL0     H20319   4.188   2.578   3.579  1.0710  2.5397  1.1144
  151MOL0     H20320   4.357   2.701   3.821 -1.2827 -0.4941 -0.5077
  151MOL0     H20321   4.343   2.607   3.970 -1.9577  0.0611 -0.7736
  151MOL0     H20322   4.539   2.569   3.732 -3.9555 -2.3934 -1.6036
  151MOL0     H20323   4.551   2.484   3.892  0.2456  0.6702  1.3992
  151MOL0     H20324   4.589   2.690   3.998 -1.3867  0.2317 -0.1435
  151MOL0     H20325   4.562   2.781   3.838  2.4648  0.8785 -1.1401
  151MOL0     H20326   4.775   2.586   3.915  0.1057  1.5994  0.6203
  151MOL0     H20327   4.764   2.667   3.761  2.6039  1.1571 -0.6785
  151MOL0     H20328   4.834   2.875   3.849  1.7809 -0.2515 -0.4369
  151MOL0     H20329   4.789   2.830   4.011 -0.6732  0.5837  0.7867
  151MOL0     H20330   5.042   2.802   3.990 -0.5674 -1.9326  1.2171
  151MOL0     H20331   4.960   2.670   4.044  1.9609 -0.6738 -0.4993
  151MOL0     H20332   5.001   2.702   3.738 -3.6279  1.8087  1.0311
  151MOL0     H20333   4.993   2.547   3.829  1.3765 -0.0684  0.7195
  151MOL0     H20334   5.231   2.737   3.854 -1.4362  0.5943  0.5400
  151MOL0     H20335   5.195   2.589   3.950 -2.3379 -0.8315  0.1074
  151MOL0     H20336   5.375   2.698   3.661 -1.3251 -0.0338 -2.0786
  151MOL0     H20337   5.520   2.581   3.495  1.0142 -0.6334  0.1430
  151MOL0     H20338   5.585   2.448   3.582  1.3132  1.9895  0.7440
  151MOL0     H20339   5.442   2.287   3.453 -1.3832  1.5514  1.7947
  151MOL0     H20340   5.358   2.414   3.363  0.6295  2.4041  0.1528
  151MOL0     H20341   5.655   2.354   3.343 -1.6744  2.1513  3.7998
  151MOL0     H20342   5.586   2.496   3.264  4.6653 -1.1556 -4.5037
  151MOL0     H20343   5.570   2.334   3.079  0.5813 -0.2581 -0.1007
  151MOL0     H20344   5.410   2.345   3.160  1.2871  1.9611  0.5467
  151MOL0     H20345   5.415   2.209   2.942  1.5930 -0.1348 -1.3649
  151MOL0     H20346   5.376   2.037   2.787 -0.0140  2.0606  0.8600
  151MOL0     H20347   5.173   1.776   2.533  2.7747  0.8087  1.5265
  151MOL0     H20348   5.125   1.563   2.385  1.8552 -2.0176 -2.1934
  151MOL0     H20349   5.347   1.502   2.137 -0.1370 -0.4574  0.5558
  151MOL0     H20350   5.378   1.324   2.138  1.2797 -0.8135  1.4526
  151MOL0     H20351   5.095   1.443   2.177 -2.6646  0.1088 -3.8273
  151MOL0     H20352   5.165   1.435   2.013  0.5472  0.2876 -0.6865
  151MOL0     H20353   5.158   1.188   2.036  1.3331  1.0699  0.3590
  151MOL0     H20354   5.146   1.187   2.208  0.0513  1.4280  0.3196
  151MOL0     H20355   4.927   1.334   2.071  0.1790  1.6308  2.3219
  151MOL0     H20356   4.929   1.256   2.216  1.0344  1.0527 -0.4901
  151MOL0     H20357   4.807   1.127   2.074 -1.0237  0.3795 -2.1653
  151MOL0     H20358   4.951   1.018   2.090 -2.9397 -0.0787 -0.1236
  151MOL0     H20359   4.900   1.214   1.864  2.2182  1.5901  2.0032
  151MOL0     H20360   5.036   1.100   1.856 -0.7346 -0.4757 -3.2552
  151MOL0     H20361   4.742   1.034   1.852  0.3484  2.5450 -1.7023
  151MOL0     H20362   4.863   0.914   1.904 -2.0020 -1.3167 -0.0150
  151MOL0     H20363   4.986   0.936   1.687  0.5089  0.2418  0.6199
  151MOL0     H20364   4.833   0.890   1.658  1.5040 -1.0083  0.9455
  151MOL0     H20365   5.523   1.439   2.420  1.7765  1.2737  1.5317
  151MOL0     H20366   5.562   1.618   2.597 -1.6650  0.5660  1.5965
  151MOL0     H20367   5.449   1.730   3.091  1.9428  0.1355  1.1247
  151MOL0     H20368   5.527   1.908   3.233  2.1562 -0.1548 -0.6606
  151MOL0     H20369   4.104   2.508   3.989  0.2287  3.9907  0.3658
  151MOL0     H20370   3.860   2.525   3.941 -0.0229  0.8001 -0.9927
  151MOL0     H20371   3.593   2.730   3.598 -0.8571  0.8169 -0.9038
  151MOL0     H20372   3.382   2.822   3.510  2.7041  1.2216  1.9258
  151MOL0     H20373   2.966   2.776   3.639 -2.4207 -1.5911  1.7881
  151MOL0     H20374   3.035   2.626   3.703  1.2540 -0.4200  0.1785
  151MOL0     H20375   2.840   2.555   3.547  0.8461 -2.8593  0.0030
  151MOL0     H20376   2.982   2.508   3.477 -1.7689 -0.3986 -0.0431
  151MOL0     H20377   2.855   2.779   3.405 -1.6675 -0.5119 -2.6458
  151MOL0     H20378   2.820   2.628   3.330  0.2524 -0.8818 -1.4013
  151MOL0     H20379   3.055   2.810   3.294  0.5128 -0.3223 -0.9292
  151MOL0     H20380   3.080   2.632   3.284  3.2933  2.9231 -2.0495
  151MOL0     H20381   2.904   2.691   2.922  0.4042 -0.0477 -0.4589
  151MOL0     H20382   3.185   2.499   3.717  0.6893 -1.7484 -1.2056
  151MOL0     H20383   3.371   2.383   3.936 -0.4869 -0.7555  0.4077
  151MOL0     H20384   3.293   2.317   3.805  0.2268  1.1885 -1.0998
  151MOL0     H20385   3.474   2.313   3.813  0.2687  0.5040  3.3753
  152MOL0     O20386   6.559   0.448   5.470  0.4517  0.4834 -0.7886
  152MOL0     C20387   6.616   0.476   5.567  0.0002 -0.3791  0.3693
  152MOL0     O20388   6.741   0.544   5.574  0.8932 -0.6950 -0.1827
  152MOL0     C20389   6.812   0.569   5.463 -0.1487 -0.1930  0.6454
  152MOL0     C20390   6.832   0.479   5.352 -0.6462 -0.5862  0.0122
  152MOL0     C20391   6.936   0.500   5.258  0.1576 -0.9348 -0.7040
  152MOL0     C20392   7.017   0.616   5.265  0.3790 -1.2140  0.1101
  152MOL0     O20393   7.109   0.641   5.165  0.6799 -0.5611  0.2040
  152MOL0     C20394   7.208   0.746   5.182 -0.0337 -0.0761  0.3127
  152MOL0     C20395   7.305   0.730   5.067 -0.6174 -0.7780 -0.8052
  152MOL0     C20396   7.390   0.595   5.087  0.0042 -0.3260  0.6520
  152MOL0     C20397   7.473   0.577   4.967  0.5231 -0.4133  0.6734
  152MOL0     C20398   7.567   0.454   4.975  0.5803 -0.2999 -0.1698
  152MOL0     C20399   7.666   0.458   4.858 -0.3278 -0.1831 -1.0641
  152MOL0     C20400   7.711   0.321   4.808 -0.0901 -0.4767 -0.9723
  152MOL0     C20401   7.802   0.236   4.914 -0.5538  1.5533  0.1247
  152MOL0     N20402   7.926   0.307   4.942 -0.0109  0.2087  0.6624
  152MOL0     C20403   7.953   0.390   5.044  0.1607 -0.7571  0.4864
  152MOL0     C20404   8.067   0.455   5.012  0.3978 -0.6085  0.4963
  152MOL0     C20405   8.129   0.573   5.098 -0.0537  0.6001 -0.0043
  152MOL0     C20406   8.253   0.491   5.158 -0.1968 -0.4433  0.8898
  152MOL0     C20407   8.362   0.588   5.203  0.1565  0.1279 -0.9705
  152MOL0     C20408   8.416   0.679   5.093  0.0327 -0.1037  0.2228
  152MOL0     O20409   8.557   0.665   5.081  0.1521  0.2215 -0.1040
  152MOL0     C20410   8.640   0.744   5.160  0.6761 -0.3651 -1.3122
  152MOL0     C20411   8.592   0.835   5.265 -0.2665  0.6598  0.1335
  152MOL0     C20412   8.688   0.892   5.345  0.8339  0.2822  0.0770
  152MOL0     C20413   8.817   0.897   5.319 -0.6832  0.6824  0.0632
  152MOL0     C20414   8.896   0.986   5.400  0.0969 -0.2270  0.2847
  152MOL0     O20415   9.024   0.984   5.347 -1.3299  0.0474 -0.2158
  152MOL0     C20416   9.112   1.040   5.428  0.4131  0.1647 -0.5962
  152MOL0     C20417   9.131   1.171   5.422  0.2386 -0.3772 -0.2080
  152MOL0     C20418   9.235   1.231   5.498 -0.3972  0.0668  0.2625
  152MOL0     C20419   9.322   1.142   5.573  0.0489  0.4297 -0.5514
  152MOL0     O20420   9.429   1.203   5.643  0.5132 -0.8515 -0.2699
  152MOL0     C20421   9.473   1.129   5.758 -1.1661  0.5031 -0.5608
  152MOL0     C20422   9.488   1.235   5.873 -0.1588 -0.3236  0.5907
  152MOL0     C20423   9.578   1.365   5.838 -0.0073  0.6855  0.3300
  152MOL0     C20424   9.707   1.329   5.763  0.0069  0.5958 -0.6948
  152MOL0     C20425   9.810   1.445   5.768  0.3218 -0.6097  0.7123
  152MOL0     C20426   9.936   1.433   5.682 -0.3351  0.9892  0.2346
  152MOL0     C20427  10.031   1.317   5.730  0.6761  0.6471 -0.7052
  152MOL0     C20428  10.170   1.327   5.671  0.0086 -0.3094 -0.7160
  152MOL0    Cl20429  10.196   1.421   5.523  0.0172  0.3510 -0.1706
  152MOL0     C20430   9.315   1.006   5.557  0.0810  0.6076  0.1098
  152MOL0     C20431   9.208   0.958   5.488  0.2812 -0.0097  0.2344
  152MOL0     O20432   8.857   1.050   5.495 -0.0061  0.2482  0.2090
  152MOL0     C20433   8.863   0.802   5.221  0.0737 -0.5325 -0.4439
  152MOL0     C20434   8.773   0.725   5.145 -0.1230 -0.0783  0.9915
  152MOL0     N20435   8.099   0.413   4.886  0.5720 -0.5448  0.6640
  152MOL0     N20436   8.024   0.318   4.846 -0.1123 -0.4971  0.7331
  152MOL0     C20437   7.007   0.703   5.374  0.0088  0.4788 -0.7014
  152MOL0     C20438   6.896   0.679   5.469  0.3402  0.1896 -0.6980
  152MOL0     C20439   6.561   0.445   5.701 -0.6839  1.7090  0.7951
  152MOL0     C20440   6.656   0.405   5.796  0.0377 -0.0743  0.6452
  152MOL0     C20441   6.617   0.354   5.921  0.7559 -0.1508  1.0567
  152MOL0     C20442   6.484   0.329   5.950  0.6178  0.4316  0.8359
  152MOL0     O20443   6.459   0.273   6.072 -0.0046  0.3434  0.0763
  152MOL0     C20444   6.331   0.214   6.098  0.2608 -0.5266 -0.5267
  152MOL0     C20445   6.321   0.080   6.011  0.4894  1.4588  0.1027
  152MOL0     C20446   6.178   0.031   6.017  0.4680 -0.5560  0.0449
  152MOL0     C20447   6.153  -0.117   5.991  0.6499  0.4465  0.5379
  152MOL0     C20448   6.210  -0.171   5.863 -0.0248  0.3261 -0.4114
  152MOL0     C20449   6.258  -0.229   5.770 -0.6846  0.0964  0.5071
  152MOL0     C20450   6.387   0.375   5.855 -0.0710  0.2779  0.3978
  152MOL0     C20451   6.424   0.434   5.736 -0.5387  0.4423  1.1034
  152MOL0     C20452   6.311   0.467   5.641  0.4541  0.0645 -0.1648
  152MOL0     H20453   6.769   0.391   5.348 -1.6140  0.0162  1.1865
  152MOL0     H20454   6.942   0.426   5.179  3.1744  2.2161 -3.7792
  152MOL0     H20455   7.166   0.847   5.174 -2.0239 -0.6918  2.0278
  152MOL0     H20456   7.264   0.733   5.275  0.4711  2.2031  0.3953
  152MOL0     H20457   7.376   0.813   5.079 -0.1600 -0.7583 -3.1113
  152MOL0     H20458   7.261   0.734   4.967 -0.7022 -2.3305 -0.8538
  152MOL0     H20459   7.316   0.514   5.091 -0.4005 -0.0924 -1.3214
  152MOL0     H20460   7.446   0.593   5.182  0.7144 -2.6012  0.2649
  152MOL0     H20461   7.403   0.561   4.885 -0.0912  0.4130  1.0245
  152MOL0     H20462   7.537   0.661   4.936 -0.5595 -0.2390 -1.2628
  152MOL0     H20463   7.616   0.440   5.072 -0.0635  1.5262  0.4624
  152MOL0     H20464   7.494   0.375   4.957  0.0944  0.1133 -0.0350
  152MOL0     H20465   7.623   0.508   4.770  0.7013  3.1907  0.2069
  152MOL0     H20466   7.750   0.519   4.889  1.2131 -2.2608 -0.9317
  152MOL0     H20467   7.749   0.333   4.706 -1.5389  0.4579 -1.4473
  152MOL0     H20468   7.620   0.261   4.796 -1.0995  1.4881 -5.6112
  152MOL0     H20469   7.756   0.218   5.012  0.9212 -0.6288  0.4822
  152MOL0     H20470   7.813   0.136   4.873 -2.9970  0.6326  1.4766
  152MOL0     H20471   7.899   0.405   5.137 -0.3056  0.5201  0.0323
  152MOL0     H20472   8.161   0.657   5.036  3.3284 -0.9434 -0.5709
  152MOL0     H20473   8.047   0.607   5.162 -3.2588 -1.0022 -2.9060
  152MOL0     H20474   8.215   0.432   5.242 -2.5795 -0.7542 -0.3497
  152MOL0     H20475   8.303   0.429   5.084  0.7797  3.2930 -1.8664
  152MOL0     H20476   8.433   0.523   5.256 -1.9299 -0.6683  1.0192
  152MOL0     H20477   8.319   0.652   5.280 -0.6746 -1.5526  0.0322
  152MOL0     H20478   8.381   0.783   5.099  0.4463  0.0154  0.5725
  152MOL0     H20479   8.367   0.649   5.000 -0.9632  2.6739 -0.2381
  152MOL0     H20480   8.485   0.842   5.283 -0.1376  0.3519  1.1074
  152MOL0     H20481   8.646   0.925   5.440  1.8667  0.3254  0.5300
  152MOL0     H20482   9.053   1.236   5.383 -1.5497 -2.9782 -1.2895
  152MOL0     H20483   9.260   1.336   5.508 -0.7530 -0.0199  2.6148
  152MOL0     H20484   9.411   1.047   5.796  2.0873 -1.5342  0.8142
  152MOL0     H20485   9.569   1.082   5.737  0.7462  3.9986 -0.3395
  152MOL0     H20486   9.391   1.264   5.914 -0.9963 -1.8470 -0.2165
  152MOL0     H20487   9.535   1.177   5.954 -2.0302  1.0439  2.7666
  152MOL0     H20488   9.520   1.430   5.772 -1.7404  2.2034  3.1766
  152MOL0     H20489   9.600   1.428   5.924 -0.8098  0.6708  0.5564
  152MOL0     H20490   9.691   1.315   5.655 -0.1177  1.0526 -0.7373
  152MOL0     H20491   9.751   1.236   5.801 -0.0131  0.5186 -0.8585
  152MOL0     H20492   9.853   1.448   5.868  1.0945  1.1952  0.3607
  152MOL0     H20493   9.753   1.538   5.758 -0.5631 -1.2209 -0.1583
  152MOL0     H20494   9.893   1.414   5.583 -0.5694  0.8754  0.3577
  152MOL0     H20495   9.994   1.525   5.674  0.9153  0.1663 -0.6563
  152MOL0     H20496   9.985   1.219   5.721  1.8118 -0.0288  0.4769
  152MOL0     H20497  10.044   1.328   5.839  1.7565 -1.6578 -0.5543
  152MOL0     H20498  10.225   1.386   5.745 -1.9391  2.3515 -1.2541
  152MOL0     H20499  10.210   1.225   5.667 -1.5866 -1.3333  3.4773
  152MOL0     H20500   9.381   0.932   5.602 -0.8808  0.0037  0.5733
  152MOL0     H20501   9.193   0.851   5.472 -0.6349 -0.1403  1.7890
  152MOL0     H20502   8.969   0.803   5.201  0.5833 -2.9982  1.7475
  152MOL0     H20503   8.812   0.642   5.087 -0.6746 -0.4075  1.0808
  152MOL0     H20504   7.070   0.792   5.379 -0.4215  0.8321 -1.3594
  152MOL0     H20505   6.891   0.732   5.563 -0.0467 -0.1593 -0.5136
  152MOL0     H20506   6.758   0.434   5.773  0.6857 -1.9442  1.0098
  152MOL0     H20507   6.701   0.327   5.985  3.0751  1.5545 -1.0861
  152MOL0     H20508   6.257   0.288   6.067  1.5893 -0.4575 -3.9606
  152MOL0     H20509   6.331   0.186   6.204  2.1073 -1.9520 -0.8364
  152MOL0     H20510   6.394   0.007   6.047 -0.8420  0.2166  0.3734
  152MOL0     H20511   6.341   0.092   5.904 -0.2819 -5.3080 -1.2043
  152MOL0     H20512   6.115   0.097   5.958  1.8570  1.8661  1.1335
  152MOL0     H20513   6.151   0.046   6.122  3.7476  0.2398  0.9019
  152MOL0     H20514   6.200  -0.179   6.068  1.1269 -0.1656 -0.2282
  152MOL0     H20515   6.046  -0.136   6.002  0.7197 -0.0847  0.3045
  152MOL0     H20516   6.298  -0.286   5.689  3.0292  0.1318  2.1031
  152MOL0     H20517   6.280   0.368   5.871 -0.5868  0.7685 -2.4547
  152MOL0     H20518   6.328   0.556   5.579  0.4029  3.2034  3.8955
  152MOL0     H20519   6.280   0.379   5.584 -2.6004  1.8721 -1.5545
  152MOL0     H20520   6.223   0.504   5.694 -0.0154 -0.6467 -0.4344
  153MOL0     O20521   3.640  10.530   9.384 -0.0066 -0.3364 -0.5211
  153MOL0     C20522   3.712  10.621   9.422 -0.4241 -0.1384  0.3762
  153MOL0     O20523   3.845  10.602   9.462 -0.4227  0.6899  0.6976
  153MOL0     C20524   3.908  10.479   9.434 -0.3579 -0.1284  0.9744
  153MOL0     C20525   3.920  10.430   9.299  0.1136  0.7744 -1.0170
  153MOL0     C20526   3.979  10.302   9.280  0.0336  0.4796 -0.3888
  153MOL0     C20527   4.036  10.233   9.388  0.5546  0.6856 -0.4374
  153MOL0     O20528   4.094  10.107   9.369 -0.0511 -0.5775 -0.3118
  153MOL0     C20529   4.058  10.030   9.252  0.1821  0.5109 -0.1555
  153MOL0     C20530   4.118   9.890   9.265 -0.5094 -0.1626  0.4786
  153MOL0     C20531   4.058   9.822   9.392  0.4906 -0.0168  0.2138
  153MOL0     C20532   4.109   9.685   9.411 -0.4949  0.7697 -0.6192
  153MOL0     C20533   4.061   9.636   9.554 -0.2938  0.0996  0.0840
  153MOL0     C20534   4.059   9.482   9.581  0.1083  0.3999 -0.2844
  153MOL0     C20535   4.037   9.458   9.731 -0.4387 -0.2560 -0.3792
  153MOL0     C20536   3.958   9.327   9.751 -0.5894 -0.3017  0.5251
  153MOL0     N20537   3.886   9.330   9.877 -0.2320  0.9050 -0.6445
  153MOL0     C20538   3.944   9.363  10.000  0.5631 -0.7916  0.4959
  153MOL0     C20539   3.840   9.416  10.073 -0.3085 -0.1026 -0.0624
  153MOL0     C20540   3.837   9.461  10.221 -0.8955  1.1778  0.6246
  153MOL0     C20541   3.970   9.462  10.293  0.0944  0.3431 -0.4459
  153MOL0     C20542   4.061   9.574  10.244  0.2512 -0.7755 -0.1357
  153MOL0     C20543   4.205   9.564  10.303  0.3636  0.0825  0.0031
  153MOL0     O20544   4.274   9.445  10.255  0.4613 -0.0512 -0.6184
  153MOL0     C20545   4.360   9.440  10.152  0.7346 -0.7787 -0.2374
  153MOL0     C20546   4.354   9.535  10.049 -1.1270  0.0009  0.9634
  153MOL0     C20547   4.440   9.533   9.940 -0.5871  0.6643 -0.3998
  153MOL0     C20548   4.541   9.434   9.933 -0.2166  0.0202  0.8113
  153MOL0     C20549   4.620   9.428   9.809  0.2541 -0.4892 -0.4671
  153MOL0     O20550   4.735   9.358   9.802 -0.5981 -0.5033 -0.0934
  153MOL0     C20551   4.802   9.361   9.681 -0.0381 -0.6064 -0.1734
  153MOL0     C20552   4.844   9.234   9.634  0.1065 -0.4257 -1.0824
  153MOL0     C20553   4.902   9.235   9.513  0.9052  0.2473  1.2187
  153MOL0     C20554   4.946   9.346   9.437  0.5870 -0.6718 -0.3000
  153MOL0     O20555   5.017   9.322   9.326  0.7175  0.0500  0.3569
  153MOL0     C20556   5.078   9.427   9.263 -0.4838  0.8050 -0.3687
  153MOL0     C20557   5.120   9.389   9.117  0.4345 -1.0514 -0.4925
  153MOL0     C20558   5.204   9.491   9.049  0.4271 -0.1584 -0.3291
  153MOL0     C20559   5.254   9.431   8.919  0.1025 -0.3756  0.5125
  153MOL0     C20560   5.335   9.535   8.830  0.2083 -0.2652  0.4498
  153MOL0     C20561   5.482   9.537   8.866  0.0607  0.4628 -0.6429
  153MOL0     C20562   5.581   9.609   8.767 -0.0638 -0.1629  0.7843
  153MOL0     C20563   5.576   9.560   8.623 -0.3297 -0.1646 -0.5971
  153MOL0    Cl20564   5.736   9.602   8.547 -0.2490 -0.2191  0.0872
  153MOL0     C20565   4.912   9.472   9.493  0.8293 -0.2329 -1.1941
  153MOL0     C20566   4.833   9.480   9.614 -0.6140 -0.3223  0.9521
  153MOL0     O20567   4.564   9.496   9.720 -0.4879  0.2865 -0.0469
  153MOL0     C20568   4.546   9.335  10.034 -0.1586 -0.3821 -0.0635
  153MOL0     C20569   4.458   9.348  10.142 -0.8360 -0.2795 -0.3200
  153MOL0     N20570   3.721   9.403  10.002  0.2237 -0.3046 -0.1605
  153MOL0     N20571   3.754   9.364   9.886 -0.2139  0.7538 -0.6223
  153MOL0     C20572   4.037  10.295   9.510  0.0215  0.3982  0.3624
  153MOL0     C20573   3.977  10.418   9.535 -1.1226 -0.2723  0.0699
  153MOL0     C20574   3.645  10.748   9.470 -0.8548  0.2668  0.0569
  153MOL0     C20575   3.683  10.796   9.589 -0.4805 -0.4784  0.4186
  153MOL0     C20576   3.625  10.911   9.641  0.0618 -0.4952 -0.0553
  153MOL0     C20577   3.534  10.993   9.566  1.2820  0.3489 -0.0645
  153MOL0     O20578   3.494  11.106   9.632  0.1011 -0.4850 -0.0646
  153MOL0     C20579   3.407  11.194   9.553  0.5627  0.2927 -0.3683
  153MOL0     C20580   3.261  11.164   9.546  1.0582  0.7537  1.2734
  153MOL0     C20581   3.195  11.124   9.678 -0.0636  0.6038  0.7247
  153MOL0     C20582   3.208  11.234   9.793  0.5633 -0.3209  0.9216
  153MOL0     C20583   3.118  11.204   9.901 -0.0613  0.5137 -0.2717
  153MOL0     C20584   3.051  11.192  10.005 -0.1185 -0.3581  0.5741
  153MOL0     C20585   3.491  10.937   9.448  0.0326 -0.4617 -0.0073
  153MOL0     C20586   3.552  10.821   9.393 -1.5306  0.0947 -0.0254
  153MOL0     C20587   3.523  10.780   9.254  0.3857  0.8285  0.1011
  153MOL0     H20588   3.862  10.474   9.218 -4.2440 -3.1679 -0.4569
  153MOL0     H20589   3.983  10.252   9.184 -1.2960 -0.9640  0.2725
  153MOL0     H20590   3.950  10.028   9.232  0.1127  1.0743  0.1197
  153MOL0     H20591   4.110  10.084   9.172  2.2075  0.4181  1.0229
  153MOL0     H20592   4.225   9.902   9.285 -0.0626 -3.3544  0.4760
  153MOL0     H20593   4.105   9.842   9.167  0.5083 -1.3509  0.9055
  153MOL0     H20594   3.950   9.827   9.376  0.3238  0.5554  1.4120
  153MOL0     H20595   4.078   9.871   9.487  1.2752 -1.3268  0.7530
  153MOL0     H20596   4.060   9.614   9.343 -0.4815  1.1001 -0.9794
  153MOL0     H20597   4.216   9.685   9.389 -0.4368  0.1489 -0.3529
  153MOL0     H20598   4.126   9.674   9.633  2.9329 -0.5188 -2.0966
  153MOL0     H20599   3.959   9.671   9.574 -1.0768 -0.7200 -2.1121
  153MOL0     H20600   3.990   9.428   9.517 -0.0224  1.0884 -0.7379
  153MOL0     H20601   4.161   9.459   9.548 -1.2581  1.6574 -6.5005
  153MOL0     H20602   3.977   9.533   9.783 -0.2058 -1.2201  1.3832
  153MOL0     H20603   4.134   9.458   9.782  0.7474  2.3246 -2.4102
  153MOL0     H20604   3.888   9.299   9.672 -0.8821 -0.9839  1.0133
  153MOL0     H20605   4.035   9.250   9.758 -2.7499 -3.7088 -5.8075
  153MOL0     H20606   4.045   9.337  10.030 -0.2101 -1.2482  2.9719
  153MOL0     H20607   3.800   9.564  10.225  0.6592  2.1965 -4.5555
  153MOL0     H20608   3.771   9.391  10.274  1.1202 -0.1311  1.5559
  153MOL0     H20609   3.957   9.471  10.401 -0.5549 -1.9810 -0.2779
  153MOL0     H20610   4.012   9.361  10.281  0.7868  0.1055  2.9051
  153MOL0     H20611   4.024   9.672  10.273  3.3516  0.4659 -0.0397
  153MOL0     H20612   4.067   9.571  10.135 -1.4381  0.0910 -0.2852
  153MOL0     H20613   4.200   9.565  10.412 -2.6624  3.0711  0.0021
  153MOL0     H20614   4.267   9.651  10.280  1.7850 -0.3753  1.8334
  153MOL0     H20615   4.274   9.605  10.026 -1.0582 -0.1676  0.2135
  153MOL0     H20616   4.420   9.616   9.872 -1.2141  0.1444 -0.8695
  153MOL0     H20617   4.826   9.139   9.684 -1.9516  0.3115 -0.3406
  153MOL0     H20618   4.935   9.134   9.491 -0.6900 -0.3558  1.4294
  153MOL0     H20619   5.012   9.513   9.253 -1.0040  0.5880  1.0702
  153MOL0     H20620   5.167   9.449   9.322 -1.3203  2.1748  0.4273
  153MOL0     H20621   5.172   9.295   9.135 -0.4617 -1.1479  1.7976
  153MOL0     H20622   5.029   9.370   9.060 -0.6261 -1.2934  1.2214
  153MOL0     H20623   5.149   9.584   9.029  0.3792 -0.2819 -0.7778
  153MOL0     H20624   5.295   9.519   9.103 -0.7429  0.6403  1.2948
  153MOL0     H20625   5.179   9.392   8.850  2.9437 -0.9834 -2.5174
  153MOL0     H20626   5.314   9.342   8.941 -1.0227 -0.9257  1.4795
  153MOL0     H20627   5.283   9.631   8.826  1.7495  0.5520 -0.8105
  153MOL0     H20628   5.334   9.502   8.726  1.6418  0.6829  0.1017
  153MOL0     H20629   5.495   9.578   8.966 -0.8570  1.1452 -0.7877
  153MOL0     H20630   5.525   9.437   8.870  1.5128  1.0970  2.9730
  153MOL0     H20631   5.684   9.592   8.799  0.4035  1.7643  0.4431
  153MOL0     H20632   5.563   9.717   8.756  2.5858  0.1390 -2.0887
  153MOL0     H20633   5.562   9.452   8.620  1.4337 -0.4157 -1.0577
  153MOL0     H20634   5.487   9.603   8.575 -1.9547 -1.9358  0.6702
  153MOL0     H20635   4.938   9.567   9.448 -1.1571  1.8935  1.7769
  153MOL0     H20636   4.808   9.578   9.652 -0.2895 -0.0058  0.3688
  153MOL0     H20637   4.622   9.257  10.037 -2.0560 -2.3327 -0.1850
  153MOL0     H20638   4.474   9.288  10.231 -3.0007  2.1726  1.8997
  153MOL0     H20639   4.084  10.248   9.596  1.7666  1.3121 -0.0517
  153MOL0     H20640   3.995  10.456   9.635  1.8417 -2.2812  0.4244
  153MOL0     H20641   3.756  10.738   9.644  1.3316 -0.4743 -1.8063
  153MOL0     H20642   3.658  10.961   9.732  0.1103 -1.9624  0.7688
  153MOL0     H20643   3.443  11.201   9.450 -1.4459 -0.2191 -1.1409
  153MOL0     H20644   3.417  11.291   9.603  1.3602 -0.5632  1.2254
  153MOL0     H20645   3.230  11.083   9.479  1.7143  2.4786 -1.2501
  153MOL0     H20646   3.218  11.258   9.510  0.3046  0.5859  1.7217
  153MOL0     H20647   3.237  11.033   9.721  2.3526  0.4225 -1.6828
  153MOL0     H20648   3.089  11.111   9.655  0.5846  0.6818 -2.9020
  153MOL0     H20649   3.311  11.245   9.826  1.0786 -2.3673  0.1132
  153MOL0     H20650   3.179  11.332   9.753  0.5354 -0.5870  0.2855
  153MOL0     H20651   2.982  11.189  10.087  0.4394 -0.0899  1.0637
  153MOL0     H20652   3.425  10.996   9.386  1.4377  0.0766 -1.0550
  153MOL0     H20653   3.444  10.839   9.207  1.9895  2.3126 -0.8528
  153MOL0     H20654   3.612  10.802   9.196 -0.1614 -0.7677 -1.4548
  153MOL0     H20655   3.480  10.679   9.247 -2.9856  2.2190 -2.3406
  154MOL0     O20656   8.070   5.253   5.600 -0.0314  0.5102  0.0479
  154MOL0     C20657   7.999   5.222   5.505 -0.2506 -0.5606 -0.0246
  154MOL0     O20658   8.012   5.280   5.380 -0.4273  1.0099  0.4093
  154MOL0     C20659   8.120   5.368   5.363 -0.1165 -0.6679 -0.2786
  154MOL0     C20660   8.250   5.332   5.324 -0.9829  0.0144  0.6356
  154MOL0     C20661   8.361   5.418   5.311 -0.2150 -0.3987  0.0593
  154MOL0     C20662   8.335   5.554   5.331  0.5538 -0.3077  0.4073
  154MOL0     O20663   8.424   5.656   5.308  0.6806  0.2063  0.0208
  154MOL0     C20664   8.566   5.624   5.307  0.1700 -0.2404  0.2535
  154MOL0     C20665   8.628   5.597   5.165  0.4851  0.8297  0.2808
  154MOL0     C20666   8.632   5.732   5.104 -0.5110 -0.2852 -0.4652
  154MOL0     C20667   8.658   5.715   4.951 -0.3824 -1.0481  0.2829
  154MOL0     C20668   8.799   5.665   4.934 -0.1826  0.3524 -0.8610
  154MOL0     C20669   8.830   5.626   4.790 -0.1149 -0.2318  0.3937
  154MOL0     C20670   8.975   5.577   4.778 -1.6018  0.0519 -0.0538
  154MOL0     C20671   9.000   5.548   4.629 -0.2244  0.0234 -0.1789
  154MOL0     N20672   9.137   5.517   4.602 -1.5710  0.4262 -0.6410
  154MOL0     C20673   9.242   5.598   4.634 -0.7783 -0.0370  0.1048
  154MOL0     C20674   9.353   5.533   4.590  0.1141  0.0160 -0.5008
  154MOL0     C20675   9.496   5.570   4.589 -1.0034 -0.1893 -0.7530
  154MOL0     C20676   9.563   5.520   4.717  0.1527 -0.2882 -0.1921
  154MOL0     C20677   9.614   5.375   4.717 -0.5932 -0.9330 -0.6750
  154MOL0     C20678   9.714   5.359   4.830  1.1253  0.2152  0.2111
  154MOL0     O20679   9.663   5.404   4.953  0.2128 -1.1328 -0.6258
  154MOL0     C20680   9.751   5.417   5.059  0.1336  0.0726 -0.0931
  154MOL0     C20681   9.892   5.433   5.039 -0.4250  0.3375 -0.9345
  154MOL0     C20682   9.964   5.426   5.162  0.9196 -0.2959  0.0470
  154MOL0     C20683   9.912   5.412   5.291  0.4858  0.7242 -0.1340
  154MOL0     C20684  10.000   5.412   5.410  0.5427 -0.6885 -0.8228
  154MOL0     O20685  10.129   5.448   5.393  0.0066 -0.9159  0.6941
  154MOL0     C20686  10.219   5.418   5.486 -1.0977 -0.7720 -0.4959
  154MOL0     C20687  10.346   5.494   5.477  0.3768 -0.2953  0.8004
  154MOL0     C20688  10.450   5.484   5.576  0.6497 -0.4979 -1.2823
  154MOL0     C20689  10.439   5.396   5.684  0.3007  0.1293 -0.1066
  154MOL0     O20690  10.531   5.385   5.785  0.6646 -0.7310 -0.4709
  154MOL0     C20691  10.667   5.399   5.748 -0.0182  0.3138 -0.1034
  154MOL0     C20692  10.737   5.288   5.819 -0.0794 -0.2163  1.1023
  154MOL0     C20693  10.712   5.285   5.970  0.7279 -1.1093  0.6522
  154MOL0     C20694  10.830   5.227   6.043  0.9735  0.5303 -0.2084
  154MOL0     C20695  10.804   5.239   6.188 -0.6738 -0.5917  0.2873
  154MOL0     C20696  10.930   5.192   6.259 -0.5690 -0.7134  0.0286
  154MOL0     C20697  10.899   5.161   6.401  0.3871  0.0544  1.0275
  154MOL0     C20698  11.019   5.168   6.494 -1.0730 -0.3337 -0.7769
  154MOL0    Cl20699  10.978   5.147   6.667  0.4620  0.1997  0.2700
  154MOL0     C20700  10.321   5.324   5.685  0.9593 -0.1069  0.0516
  154MOL0     C20701  10.210   5.329   5.595 -0.0715 -1.8816  0.5778
  154MOL0     O20702   9.956   5.361   5.514  0.3583 -0.5883  0.3378
  154MOL0     C20703   9.777   5.394   5.304  0.0721 -0.0696 -0.1819
  154MOL0     C20704   9.691   5.414   5.187 -0.5195  1.0431 -0.4684
  154MOL0     N20705   9.314   5.424   4.524  0.3547  0.2381 -0.1463
  154MOL0     N20706   9.182   5.414   4.528  0.0445  0.2942  0.2657
  154MOL0     C20707   8.202   5.591   5.369  0.0924 -0.1293  0.3528
  154MOL0     C20708   8.095   5.503   5.378 -0.0158  0.1522 -0.2988
  154MOL0     C20709   7.903   5.109   5.527  0.7833 -0.0330 -0.5475
  154MOL0     C20710   7.897   5.009   5.431 -0.3176 -0.4505  0.6945
  154MOL0     C20711   7.825   4.889   5.452 -0.1433 -0.9483 -1.0564
  154MOL0     C20712   7.768   4.869   5.575  1.0300  0.3011  0.1424
  154MOL0     O20713   7.701   4.743   5.589 -0.0840 -0.6850 -0.5325
  154MOL0     C20714   7.620   4.710   5.703  0.4047  0.2654 -0.6014
  154MOL0     C20715   7.589   4.563   5.719  0.2944 -0.7471 -0.4506
  154MOL0     C20716   7.465   4.527   5.801 -0.5376 -0.1169 -0.4333
  154MOL0     C20717   7.481   4.568   5.953 -0.1486  1.2260  0.8984
  154MOL0     C20718   7.402   4.476   6.032 -0.1187 -0.0396 -0.4945
  154MOL0     C20719   7.338   4.397   6.098  0.0830 -0.0387  0.4023
  154MOL0     C20720   7.758   4.976   5.669 -0.2792 -0.8389 -0.3907
  154MOL0     C20721   7.828   5.100   5.641  0.0129  0.1408 -0.7280
  154MOL0     C20722   7.818   5.210   5.737  0.0997  0.5631 -0.3661
  154MOL0     H20723   8.264   5.225   5.313 -3.2182 -0.2197 -0.5958
  154MOL0     H20724   8.458   5.377   5.285 -1.1673  0.0825 -5.3930
  154MOL0     H20725   8.622   5.705   5.355  0.0728 -2.1991  4.0495
  154MOL0     H20726   8.582   5.536   5.370 -1.8756  1.9527  4.2711
  154MOL0     H20727   8.567   5.535   5.099 -1.1122 -1.4690  3.5880
  154MOL0     H20728   8.724   5.550   5.190 -0.3757  0.3497  3.0717
  154MOL0     H20729   8.716   5.789   5.147 -0.1854 -2.2030  1.5906
  154MOL0     H20730   8.546   5.795   5.126  1.0275  2.0328 -0.6682
  154MOL0     H20731   8.579   5.648   4.916 -0.4926 -1.7396  1.7545
  154MOL0     H20732   8.644   5.807   4.893 -3.5289  0.1018  2.5247
  154MOL0     H20733   8.862   5.749   4.965 -2.4264  1.8191 -0.0335
  154MOL0     H20734   8.822   5.569   4.981  0.2088 -0.0458 -1.8340
  154MOL0     H20735   8.755   5.551   4.764 -1.8997  0.2403  3.6470
  154MOL0     H20736   8.836   5.714   4.725  2.2463 -0.3348  0.3695
  154MOL0     H20737   9.003   5.490   4.838 -1.7374 -0.4916 -0.7680
  154MOL0     H20738   9.040   5.661   4.804  0.4315 -0.4344 -3.0729
  154MOL0     H20739   8.933   5.468   4.596 -1.8367  1.0705  0.4100
  154MOL0     H20740   8.974   5.638   4.573 -1.7984 -0.1332  0.2387
  154MOL0     H20741   9.254   5.696   4.678  1.5933  0.9284 -2.4215
  154MOL0     H20742   9.541   5.543   4.493  0.5254 -0.6367  0.0525
  154MOL0     H20743   9.511   5.679   4.589  3.3092 -0.5038  2.3520
  154MOL0     H20744   9.651   5.581   4.741  0.8068 -0.9238 -0.8959
  154MOL0     H20745   9.499   5.534   4.804 -1.7132 -1.0556 -1.3791
  154MOL0     H20746   9.656   5.352   4.619 -2.5597 -0.8564 -1.5692
  154MOL0     H20747   9.536   5.300   4.730 -2.2203  0.7561 -0.3284
  154MOL0     H20748   9.802   5.418   4.806 -1.5966  3.1927 -3.7586
  154MOL0     H20749   9.746   5.255   4.827  0.0159 -0.1285 -1.4937
  154MOL0     H20750   9.944   5.448   4.945 -3.9383  0.6690 -2.9843
  154MOL0     H20751  10.070   5.449   5.164  0.8345  0.0771  0.2782
  154MOL0     H20752  10.343   5.560   5.391 -0.5664  0.8065  1.6567
  154MOL0     H20753  10.541   5.539   5.558  0.9621 -0.5477  0.0524
  154MOL0     H20754  10.698   5.384   5.644  3.5880 -0.0168  0.8840
  154MOL0     H20755  10.703   5.496   5.784  0.8991 -0.3373  0.7966
  154MOL0     H20756  10.707   5.195   5.771 -1.4694  1.7454 -2.1786
  154MOL0     H20757  10.843   5.306   5.801 -0.7989  2.5588 -0.9831
  154MOL0     H20758  10.692   5.385   6.008  0.4578 -0.3779 -1.3211
  154MOL0     H20759  10.630   5.215   5.986  2.0395 -3.0279 -0.5468
  154MOL0     H20760  10.925   5.276   6.023  1.8714 -1.3174 -0.7073
  154MOL0     H20761  10.850   5.122   6.019  0.2809  0.1796  0.6736
  154MOL0     H20762  10.715   5.189   6.227 -0.0167 -1.3274  0.8792
  154MOL0     H20763  10.789   5.345   6.210 -1.8539 -0.6432 -0.1802
  154MOL0     H20764  10.969   5.098   6.219 -1.3257 -0.8543 -0.3932
  154MOL0     H20765  11.002   5.274   6.252 -0.2708 -0.7299  2.2163
  154MOL0     H20766  10.865   5.058   6.412  0.1144 -0.1725 -1.3976
  154MOL0     H20767  10.822   5.228   6.442  1.0549  1.0013  0.7857
  154MOL0     H20768  11.099   5.095   6.477 -0.8545 -0.6834  1.4884
  154MOL0     H20769  11.054   5.271   6.484 -1.9090 -0.1489 -1.9921
  154MOL0     H20770  10.318   5.262   5.774  0.5772  1.4722  1.1840
  154MOL0     H20771  10.143   5.244   5.597 -1.8235 -0.5576  1.9633
  154MOL0     H20772   9.735   5.383   5.404  2.9375  0.7164  1.2086
  154MOL0     H20773   9.584   5.409   5.201 -0.4634  1.5588  0.1635
  154MOL0     H20774   8.168   5.693   5.380 -3.6390 -1.2773  0.6144
  154MOL0     H20775   7.994   5.535   5.404 -0.2149 -0.0233 -0.8549
  154MOL0     H20776   7.964   5.018   5.346 -0.9815 -1.7076  0.0235
  154MOL0     H20777   7.835   4.803   5.387 -0.0036 -1.4054 -0.4451
  154MOL0     H20778   7.518   4.746   5.687  1.1252  1.7148 -2.4207
  154MOL0     H20779   7.648   4.752   5.799  0.3112 -1.1132  0.0579
  154MOL0     H20780   7.665   4.501   5.768 -1.2751  0.2791  3.6675
  154MOL0     H20781   7.578   4.518   5.620 -1.6351 -0.0943 -0.5810
  154MOL0     H20782   7.454   4.418   5.797  0.5808 -0.3024  0.8058
  154MOL0     H20783   7.369   4.562   5.763  0.0609 -1.7450 -3.8581
  154MOL0     H20784   7.588   4.564   5.976  1.2196  0.1444 -4.2116
  154MOL0     H20785   7.444   4.669   5.971  1.8565  2.2054 -0.1285
  154MOL0     H20786   7.278   4.331   6.158 -1.3096  0.2280 -0.6393
  154MOL0     H20787   7.705   4.967   5.763  0.1592  1.5795  0.1770
  154MOL0     H20788   7.842   5.306   5.691  3.9647  1.1108  2.2778
  154MOL0     H20789   7.715   5.214   5.776  0.2780 -5.5012  1.7962
  154MOL0     H20790   7.882   5.179   5.820 -0.0112 -4.8505 -1.9458
  155MOL0     O20791   8.562   8.172   3.255  0.2353  0.7043 -0.8896
  155MOL0     C20792   8.537   8.137   3.374 -0.1198  0.1180  0.7412
  155MOL0     O20793   8.617   8.144   3.483  0.4009  0.5327  0.3408
  155MOL0     C20794   8.757   8.151   3.479 -0.1272  0.6776  0.9240
  155MOL0     C20795   8.833   8.231   3.389 -0.2564  1.0367 -0.6689
  155MOL0     C20796   8.969   8.214   3.405  0.5765 -0.6860  0.9428
  155MOL0     C20797   9.035   8.155   3.510 -0.4156  0.1949  0.0989
  155MOL0     O20798   9.174   8.174   3.506  0.4652  0.3596  0.3379
  155MOL0     C20799   9.233   8.182   3.640 -0.2425 -0.5557  0.4947
  155MOL0     C20800   9.368   8.242   3.607  0.2089  0.4677 -0.9530
  155MOL0     C20801   9.361   8.394   3.567  0.5330 -0.0021  0.0028
  155MOL0     C20802   9.309   8.485   3.677 -0.4718 -0.8524 -0.5713
  155MOL0     C20803   9.307   8.641   3.649  0.2235  0.1813  0.1008
  155MOL0     C20804   9.426   8.726   3.684 -0.3491  0.1301 -0.5651
  155MOL0     C20805   9.382   8.871   3.681 -0.0332  0.0100 -0.6707
  155MOL0     C20806   9.494   8.965   3.720  0.0128  0.9770  0.7047
  155MOL0     N20807   9.457   9.099   3.680  0.7617 -0.3392  0.2263
  155MOL0     C20808   9.504   9.180   3.585  0.6128 -0.0208 -0.1423
  155MOL0     C20809   9.445   9.298   3.605  0.7723  0.6428  0.2363
  155MOL0     C20810   9.478   9.413   3.520  0.8151  0.5690  0.2503
  155MOL0     C20811   9.586   9.491   3.584  0.1717  0.9467  0.5710
  155MOL0     C20812   9.528   9.567   3.708  0.8248  0.0170  0.7023
  155MOL0     C20813   9.626   9.666   3.771  0.3543 -1.0011  0.8015
  155MOL0     O20814   9.738   9.597   3.822 -0.1015  0.7479 -0.6625
  155MOL0     C20815   9.746   9.602   3.961  0.1103 -1.7686 -0.4864
  155MOL0     C20816   9.646   9.574   4.048 -0.2525 -0.8670  0.5427
  155MOL0     C20817   9.671   9.571   4.183 -0.1955 -0.3013 -0.5470
  155MOL0     C20818   9.793   9.591   4.245  0.7045  0.5916 -0.7650
  155MOL0     C20819   9.800   9.593   4.391 -0.7978  0.6127  0.0183
  155MOL0     O20820   9.685   9.586   4.460  0.4731  0.0330 -0.5948
  155MOL0     C20821   9.693   9.596   4.599  0.4772 -0.4279  0.1796
  155MOL0     C20822   9.736   9.712   4.666  0.0109  1.1022  0.5287
  155MOL0     C20823   9.750   9.709   4.811 -0.3349 -0.7035 -0.1187
  155MOL0     C20824   9.715   9.592   4.881  0.5237 -0.0179 -0.1380
  155MOL0     O20825   9.735   9.580   5.017 -0.4217  0.2674  0.2645
  155MOL0     C20826   9.844   9.648   5.083  0.3639 -0.0017  0.3643
  155MOL0     C20827   9.813   9.636   5.228  0.3615 -0.8447 -0.3373
  155MOL0     C20828   9.674   9.691   5.291  0.4021 -1.3296  0.5483
  155MOL0     C20829   9.638   9.838   5.243 -0.0264  0.2030  0.2975
  155MOL0     C20830   9.490   9.874   5.274  0.3845  0.2509 -1.3060
  155MOL0     C20831   9.459   9.881   5.426  1.1163 -0.4079 -0.0359
  155MOL0     C20832   9.323   9.937   5.452 -0.2343  0.0211 -0.3342
  155MOL0     C20833   9.278   9.922   5.593  0.2428  0.0205  0.1235
  155MOL0    Cl20834   9.327  10.049   5.695  0.2283  0.3908  0.0055
  155MOL0     C20835   9.664   9.478   4.810  0.5162  0.0208 -0.1608
  155MOL0     C20836   9.646   9.487   4.676 -0.1433  0.1891 -0.9414
  155MOL0     O20837   9.914   9.600   4.439  0.1586  0.7685  0.3980
  155MOL0     C20838   9.904   9.607   4.156 -0.1360 -0.0051 -0.3878
  155MOL0     C20839   9.875   9.629   4.021  1.0579 -0.5232  0.4960
  155MOL0     N20840   9.359   9.293   3.709  0.2117 -0.5834  0.0028
  155MOL0     N20841   9.381   9.178   3.761  0.7443  0.4120  0.0410
  155MOL0     C20842   8.956   8.073   3.594 -0.1514  0.8675  0.4905
  155MOL0     C20843   8.819   8.075   3.583 -0.0979 -0.2305  0.2322
  155MOL0     C20844   8.400   8.088   3.391  0.0952 -1.0259 -0.6295
  155MOL0     C20845   8.329   8.034   3.288  0.1472 -0.4799  0.3168
  155MOL0     C20846   8.198   7.995   3.301 -0.2326  0.1594  0.8907
  155MOL0     C20847   8.138   7.996   3.420  0.3692 -0.4709 -0.7289
  155MOL0     O20848   8.007   7.951   3.417 -0.0935  0.1608 -0.2831
  155MOL0     C20849   7.907   7.988   3.516 -0.2755 -0.1031  0.3938
  155MOL0     C20850   7.788   7.897   3.512  0.4740 -0.7631 -0.1797
  155MOL0     C20851   7.704   7.932   3.391 -0.7239  0.2382 -0.5228
  155MOL0     C20852   7.563   7.868   3.418  0.4563  0.4472 -0.4849
  155MOL0     C20853   7.489   7.868   3.297 -0.5867  0.4932 -0.3660
  155MOL0     C20854   7.445   7.861   3.180 -0.8154 -0.7068  1.9665
  155MOL0     C20855   8.207   8.057   3.524  0.3738 -0.7909  0.5276
  155MOL0     C20856   8.330   8.112   3.514 -0.2182 -0.6240 -0.0700
  155MOL0     C20857   8.383   8.204   3.623  0.2191  0.0787  0.5040
  155MOL0     H20858   8.788   8.276   3.301  0.2496 -1.0741 -2.0827
  155MOL0     H20859   9.027   8.255   3.323  0.1060  1.2060  1.5085
  155MOL0     H20860   9.173   8.246   3.706  0.1473  1.0725 -0.6738
  155MOL0     H20861   9.246   8.093   3.704  1.7407  0.2670  1.3438
  155MOL0     H20862   9.418   8.173   3.539 -0.4856 -1.8169  0.7625
  155MOL0     H20863   9.429   8.235   3.697 -0.6497  1.5316 -0.2552
  155MOL0     H20864   9.310   8.406   3.471 -0.8170 -0.3253  0.6531
  155MOL0     H20865   9.461   8.425   3.536  0.6423  1.1981  1.4522
  155MOL0     H20866   9.215   8.448   3.718 -0.0548 -0.6106  0.6619
  155MOL0     H20867   9.371   8.469   3.766  0.1016  1.9440 -0.3526
  155MOL0     H20868   9.289   8.659   3.543 -1.5652  2.4440  0.6831
  155MOL0     H20869   9.212   8.681   3.689  0.3285 -0.0964  0.6379
  155MOL0     H20870   9.469   8.688   3.777 -2.7862 -0.4446  0.3886
  155MOL0     H20871   9.502   8.709   3.607 -0.2576 -2.2404 -0.0244
  155MOL0     H20872   9.294   8.897   3.739  1.2296 -0.2127  1.4547
  155MOL0     H20873   9.359   8.892   3.576 -0.5373  5.0117  0.2295
  155MOL0     H20874   9.503   8.961   3.829 -0.7241  1.0967  0.7805
  155MOL0     H20875   9.592   8.935   3.683  0.2588  1.6575  0.7967
  155MOL0     H20876   9.573   9.151   3.506  0.7877  1.7073 -0.6704
  155MOL0     H20877   9.503   9.377   3.419  0.9809 -0.8597  0.7775
  155MOL0     H20878   9.390   9.478   3.523  0.3150 -0.0143 -0.9796
  155MOL0     H20879   9.667   9.426   3.616 -0.6949 -0.2057  0.4895
  155MOL0     H20880   9.625   9.570   3.519 -3.0331  2.2350 -0.0247
  155MOL0     H20881   9.487   9.506   3.789 -1.8521  1.2112  0.3515
  155MOL0     H20882   9.443   9.632   3.683 -0.2302 -1.8325 -0.8055
  155MOL0     H20883   9.577   9.725   3.850 -1.0356 -3.0200  1.5375
  155MOL0     H20884   9.654   9.735   3.691 -3.3437  1.8238  1.6284
  155MOL0     H20885   9.543   9.553   4.022 -0.3921  0.2231  0.1503
  155MOL0     H20886   9.587   9.541   4.246 -4.1818  2.5217 -3.9133
  155MOL0     H20887   9.764   9.800   4.609 -0.1433  0.5286 -0.4528
  155MOL0     H20888   9.785   9.796   4.866  3.6381 -2.3941  0.4006
  155MOL0     H20889   9.935   9.592   5.058 -0.0289 -0.4601 -0.0382
  155MOL0     H20890   9.842   9.753   5.052  0.3494 -0.1431 -0.1230
  155MOL0     H20891   9.830   9.530   5.250 -0.9385 -1.5419 -2.4978
  155MOL0     H20892   9.897   9.688   5.275  0.9106  0.1642 -2.3165
  155MOL0     H20893   9.595   9.626   5.252  0.1091 -0.5720 -0.1397
  155MOL0     H20894   9.683   9.684   5.400  1.6800 -3.9648  0.3566
  155MOL0     H20895   9.658   9.843   5.136  0.4534  1.5929  0.4305
  155MOL0     H20896   9.702   9.910   5.295  2.2333  0.0252 -2.0166
  155MOL0     H20897   9.418   9.805   5.229  1.4406 -1.1768 -0.8799
  155MOL0     H20898   9.484   9.972   5.225  1.1566  1.5272  0.9713
  155MOL0     H20899   9.459   9.775   5.455 -0.2068 -0.3324  0.2901
  155MOL0     H20900   9.535   9.929   5.488 -0.9090  1.3698  1.1525
  155MOL0     H20901   9.247   9.902   5.382 -1.6193 -0.2317  1.2416
  155MOL0     H20902   9.317  10.044   5.432  1.5035  0.3489  0.6667
  155MOL0     H20903   9.170   9.918   5.607  0.1249  4.5289  2.3444
  155MOL0     H20904   9.305   9.827   5.640 -0.5986 -0.1958  0.1924
  155MOL0     H20905   9.639   9.385   4.860 -0.7823  1.1747  1.4411
  155MOL0     H20906   9.607   9.406   4.616  0.5447 -0.5575 -0.4008
  155MOL0     H20907  10.007   9.611   4.189 -0.5078  0.0581  0.8181
  155MOL0     H20908   9.940   9.644   3.936  0.0085  1.8603  0.0400
  155MOL0     H20909   8.996   8.004   3.667 -0.9189  2.2279  2.2984
  155MOL0     H20910   8.761   8.008   3.646 -0.5100  0.6432  0.8103
  155MOL0     H20911   8.371   8.003   3.192 -1.4058 -0.9012 -0.2552
  155MOL0     H20912   8.157   7.933   3.222  0.5564  1.0012 -0.2221
  155MOL0     H20913   7.888   8.095   3.503  0.7824 -0.0281 -0.6779
  155MOL0     H20914   7.957   7.964   3.611  0.5396 -1.9241 -0.4361
  155MOL0     H20915   7.713   7.916   3.589 -1.7023 -2.5795 -1.7005
  155MOL0     H20916   7.830   7.797   3.517  0.4378 -1.4190 -5.9861
  155MOL0     H20917   7.750   7.893   3.299 -3.1345  0.1866 -1.7862
  155MOL0     H20918   7.689   8.040   3.381 -2.5054 -0.1113 -2.1922
  155MOL0     H20919   7.571   7.762   3.442  2.7589  0.2714 -1.7396
  155MOL0     H20920   7.506   7.922   3.494  0.6735 -2.6597  2.0426
  155MOL0     H20921   7.397   7.879   3.086  1.0982  0.2809  1.1227
  155MOL0     H20922   8.169   8.054   3.626 -0.0725  2.0272  0.5082
  155MOL0     H20923   8.448   8.142   3.684  1.6844 -0.1094 -1.1555
  155MOL0     H20924   8.444   8.283   3.579  2.6952 -2.2463 -0.4971
  155MOL0     H20925   8.298   8.246   3.678 -1.8257 -2.8133 -0.1996
  156MOL0     O20926   4.341   4.613   3.805 -0.0904  0.6024 -0.2620
  156MOL0     C20927   4.434   4.599   3.724  0.7345  0.8887 -1.2414
  156MOL0     O20928   4.421   4.631   3.598  0.3418  0.0724 -0.6339
  156MOL0     C20929   4.298   4.659   3.546  0.4442  0.3410 -0.9101
  156MOL0     C20930   4.239   4.784   3.579 -0.5436 -0.1208 -0.2755
  156MOL0     C20931   4.110   4.811   3.540  0.0576 -0.0298 -0.1072
  156MOL0     C20932   4.029   4.718   3.466 -0.5887 -0.2783  0.2357
  156MOL0     O20933   3.899   4.733   3.435 -0.0166 -0.2912 -0.1878
  156MOL0     C20934   3.862   4.854   3.357  0.3026  0.5991 -0.0853
  156MOL0     C20935   3.709   4.834   3.324 -0.8124 -0.3783 -0.8203
  156MOL0     C20936   3.678   4.947   3.227 -0.3637  0.5155  0.4729
  156MOL0     C20937   3.531   4.952   3.170  0.1728 -0.5119  0.4958
  156MOL0     C20938   3.440   5.001   3.278  0.3456  0.1935  0.0885
  156MOL0     C20939   3.297   5.004   3.233  0.2245  0.0904  0.4010
  156MOL0     C20940   3.205   5.037   3.351 -0.3305 -0.1993 -0.0626
  156MOL0     C20941   3.065   5.011   3.318 -0.2634  0.4578 -0.2056
  156MOL0     N20942   2.979   5.045   3.434 -0.1282  0.0192 -0.0529
  156MOL0     C20943   2.937   4.951   3.526 -0.1843 -0.6755 -0.1486
  156MOL0     C20944   2.872   5.026   3.622 -0.8832  0.9931 -0.0918
  156MOL0     C20945   2.822   4.963   3.752  0.4907  0.5528  0.1381
  156MOL0     C20946   2.896   5.003   3.881 -0.4303 -0.7804 -0.4293
  156MOL0     C20947   2.897   5.164   3.906 -0.0600 -0.2612 -0.2027
  156MOL0     C20948   2.963   5.210   4.035 -0.2949  0.3106  0.2598
  156MOL0     O20949   3.079   5.288   4.015  0.5439  0.4622 -0.2440
  156MOL0     C20950   3.206   5.242   4.045  0.2848 -0.1809  0.7750
  156MOL0     C20951   3.298   5.336   4.102  0.9483 -0.1382  0.0902
  156MOL0     C20952   3.427   5.302   4.130 -0.0326 -1.0317 -0.5038
  156MOL0     C20953   3.474   5.176   4.098  0.0932  0.0177  0.3330
  156MOL0     C20954   3.615   5.134   4.127  0.0109 -0.0967  0.5507
  156MOL0     O20955   3.683   5.227   4.198  0.4370 -0.1755 -0.1744
  156MOL0     C20956   3.816   5.208   4.230  0.4561 -0.1961 -1.2807
  156MOL0     C20957   3.904   5.317   4.240  1.7066  0.5182 -1.0160
  156MOL0     C20958   4.028   5.315   4.298 -0.4144  0.3064  0.2737
  156MOL0     C20959   4.079   5.193   4.355 -0.4140 -0.1782 -0.0037
  156MOL0     O20960   4.198   5.194   4.421  0.3269 -0.2127  0.0432
  156MOL0     C20961   4.173   5.193   4.558  1.5629  0.5418  0.6354
  156MOL0     C20962   4.304   5.175   4.635  0.3653  0.4202  0.0847
  156MOL0     C20963   4.270   5.143   4.780  1.1096  0.4199  0.7925
  156MOL0     C20964   4.383   5.173   4.879  0.4901 -0.2136  0.2781
  156MOL0     C20965   4.338   5.211   5.025  0.5184 -0.7481 -0.0049
  156MOL0     C20966   4.240   5.114   5.085 -0.9036 -0.0240  0.0919
  156MOL0     C20967   4.154   5.191   5.187  0.8829  0.6580 -0.2638
  156MOL0     C20968   4.049   5.090   5.254 -1.4057 -0.2489  0.2707
  156MOL0    Cl20969   3.921   5.039   5.145 -0.0543 -0.1346  0.6052
  156MOL0     C20970   4.000   5.082   4.325  0.8045 -0.5309  0.2576
  156MOL0     C20971   3.880   5.088   4.268 -0.7383 -0.4384 -0.4060
  156MOL0     O20972   3.653   5.027   4.090 -0.2559 -0.3706  0.5349
  156MOL0     C20973   3.384   5.085   4.034  0.1032  0.0507 -0.3439
  156MOL0     C20974   3.252   5.114   4.014  0.0764  0.2670  0.8620
  156MOL0     N20975   2.889   5.157   3.593  0.1097 -1.0365 -0.0364
  156MOL0     N20976   2.959   5.172   3.483 -0.2601 -0.6799 -0.5373
  156MOL0     C20977   4.092   4.593   3.431 -1.4083  0.1987  0.2501
  156MOL0     C20978   4.231   4.571   3.460 -0.3054  0.3389 -0.4384
  156MOL0     C20979   4.572   4.558   3.764 -0.4694  0.4432 -0.1860
  156MOL0     C20980   4.683   4.637   3.717 -0.3947 -0.2268  0.2618
  156MOL0     C20981   4.807   4.618   3.768 -0.3726  0.4893 -0.8117
  156MOL0     C20982   4.829   4.516   3.860 -0.5641 -0.1004  0.7574
  156MOL0     O20983   4.955   4.488   3.914  0.3264  0.0540  0.8623
  156MOL0     C20984   5.080   4.531   3.855 -0.3224  0.1882 -0.0049
  156MOL0     C20985   5.188   4.439   3.911 -0.1315 -0.2610 -1.3900
  156MOL0     C20986   5.332   4.492   3.864 -0.3316  0.0508  0.1026
  156MOL0     C20987   5.427   4.385   3.915  0.6304  0.8047  0.4665
  156MOL0     C20988   5.438   4.386   4.059  0.4184  1.0314 -0.6440
  156MOL0     C20989   5.463   4.383   4.175  0.7933  0.5259 -0.0283
  156MOL0     C20990   4.719   4.437   3.904  1.1622  0.8060  0.3959
  156MOL0     C20991   4.586   4.458   3.865  0.2486 -0.4591  0.4598
  156MOL0     C20992   4.473   4.365   3.927 -1.2213  0.2153  0.3517
  156MOL0     H20993   4.287   4.864   3.633 -2.3398  2.2189 -1.9642
  156MOL0     H20994   4.070   4.909   3.567 -1.1781 -0.2154 -1.1593
  156MOL0     H20995   3.878   4.945   3.415  1.2536  0.2137  0.2751
  156MOL0     H20996   3.922   4.852   3.265  2.3147  0.9201  1.1496
  156MOL0     H20997   3.642   4.853   3.409 -0.1757 -1.0335 -0.1626
  156MOL0     H20998   3.699   4.728   3.302  1.1024 -0.9904  0.9965
  156MOL0     H20999   3.740   4.927   3.139 -0.9949  0.7112 -0.0216
  156MOL0     H21000   3.698   5.048   3.264 -1.4056  0.9470 -0.0892
  156MOL0     H21001   3.517   5.022   3.087  1.4783  1.0332  1.5251
  156MOL0     H21002   3.503   4.856   3.125 -1.3989  0.9812 -1.9909
  156MOL0     H21003   3.447   4.935   3.365 -1.6272 -1.0323 -0.6144
  156MOL0     H21004   3.460   5.104   3.310  1.2131  1.0970 -3.0210
  156MOL0     H21005   3.293   5.080   3.155  2.7923  1.0346  1.1017
  156MOL0     H21006   3.275   4.907   3.188  1.9183  0.6115 -1.7091
  156MOL0     H21007   3.214   5.141   3.382 -1.5818  0.8990 -3.0282
  156MOL0     H21008   3.232   4.981   3.441 -3.2367  0.4205  1.3169
  156MOL0     H21009   3.039   5.061   3.224 -1.7248  0.3330  0.1000
  156MOL0     H21010   3.044   4.907   3.290  2.0489 -0.3039  0.6768
  156MOL0     H21011   2.975   4.850   3.538 -1.4013 -1.0741  0.5317
  156MOL0     H21012   2.715   4.981   3.765 -0.6328 -3.6776 -1.4361
  156MOL0     H21013   2.843   4.857   3.734  3.4306  1.3692 -1.7982
  156MOL0     H21014   2.844   4.955   3.964 -4.4370  0.2572 -2.1080
  156MOL0     H21015   3.004   4.988   3.867  0.8382  3.8221  2.3530
  156MOL0     H21016   2.793   5.199   3.903  0.8219  2.5507 -0.0901
  156MOL0     H21017   2.949   5.211   3.823  1.1434  1.3417  1.3985
  156MOL0     H21018   2.995   5.121   4.091  0.9315 -0.5534 -1.7157
  156MOL0     H21019   2.893   5.269   4.095 -1.4839 -0.5078 -0.2913
  156MOL0     H21020   3.263   5.437   4.122 -1.9703 -1.0027 -0.1155
  156MOL0     H21021   3.488   5.379   4.177 -1.2200 -1.5300  1.9979
  156MOL0     H21022   3.867   5.411   4.200  2.4066  2.1359  1.8371
  156MOL0     H21023   4.089   5.405   4.298  1.2737 -0.6310 -3.4715
  156MOL0     H21024   4.126   5.287   4.588  1.1616  1.1385 -1.6684
  156MOL0     H21025   4.104   5.113   4.587  0.7097  0.8324 -0.5306
  156MOL0     H21026   4.354   5.082   4.608  0.3049  0.8799 -1.7069
  156MOL0     H21027   4.372   5.259   4.619  2.7537 -0.9550  2.3295
  156MOL0     H21028   4.180   5.204   4.796 -1.2553 -0.9158 -4.8031
  156MOL0     H21029   4.241   5.038   4.790 -2.1907  1.1738  0.4174
  156MOL0     H21030   4.451   5.248   4.835 -1.1432  2.3528  1.8348
  156MOL0     H21031   4.450   5.088   4.895  2.0716  0.7204 -0.9809
  156MOL0     H21032   4.286   5.307   5.027 -2.2040 -2.0627 -1.2854
  156MOL0     H21033   4.425   5.221   5.091  2.1627 -2.6965 -1.7334
  156MOL0     H21034   4.177   5.065   5.011 -3.2944  0.9037  1.4233
  156MOL0     H21035   4.298   5.033   5.131  0.2680 -0.5670 -2.2058
  156MOL0     H21036   4.086   5.264   5.144  0.1906  1.8915  2.6985
  156MOL0     H21037   4.214   5.241   5.264 -1.0616  3.7065 -0.5709
  156MOL0     H21038   4.117   5.013   5.292  1.3622  1.4696 -0.9062
  156MOL0     H21039   4.010   5.147   5.339 -0.5661 -1.2184  1.3426
  156MOL0     H21040   4.055   4.989   4.328  2.0731 -0.0798 -3.6514
  156MOL0     H21041   3.826   4.995   4.259 -0.0206 -0.7967 -1.1632
  156MOL0     H21042   3.425   4.987   4.012  0.1753 -0.3042  1.2442
  156MOL0     H21043   3.180   5.050   3.964  0.2858  1.8760 -1.6719
  156MOL0     H21044   4.036   4.522   3.371 -1.6749  2.3390 -2.2253
  156MOL0     H21045   4.262   4.470   3.438 -3.8682 -0.7234 -1.1709
  156MOL0     H21046   4.656   4.711   3.643 -0.8256  0.3414  0.9816
  156MOL0     H21047   4.882   4.691   3.737  0.8653 -1.2690 -2.2082
  156MOL0     H21048   5.107   4.633   3.886 -1.9505 -0.4485  4.1140
  156MOL0     H21049   5.073   4.516   3.747  1.2488 -3.7248  0.2880
  156MOL0     H21050   5.171   4.335   3.883  0.7894 -1.0304  0.6761
  156MOL0     H21051   5.170   4.434   4.019 -1.1792  2.2209 -1.3779
  156MOL0     H21052   5.365   4.585   3.910 -0.1522 -0.3898  0.8793
  156MOL0     H21053   5.337   4.494   3.755  1.9372  1.0357  0.1706
  156MOL0     H21054   5.396   4.285   3.882 -1.7280  0.8554  2.2482
  156MOL0     H21055   5.527   4.395   3.873 -0.0636  1.8376 -1.0522
  156MOL0     H21056   5.493   4.402   4.276 -0.2064 -0.9056  0.5663
  156MOL0     H21057   4.742   4.347   3.959 -0.7850 -0.4207 -0.6894
  156MOL0     H21058   4.424   4.411   4.013  0.1093  0.5269  0.9616
  156MOL0     H21059   4.394   4.348   3.853  2.2301 -1.3858 -3.4014
  156MOL0     H21060   4.513   4.268   3.959  1.1466  0.7567 -0.7564
  157MOL0     O21061   5.299   7.857   9.501  0.1139 -0.8195  0.1820
  157MOL0     C21062   5.334   7.743   9.480 -0.1494 -0.8820 -0.3676
  157MOL0     O21063   5.262   7.642   9.429  0.9639 -0.4114  0.4342
  157MOL0     C21064   5.124   7.644   9.404 -0.4647  0.5536  0.4578
  157MOL0     C21065   5.030   7.734   9.458  0.5881 -0.2834 -0.6862
  157MOL0     C21066   4.895   7.724   9.422  0.2213 -0.7714 -0.6422
  157MOL0     C21067   4.856   7.622   9.338 -0.0208 -0.5482  0.9542
  157MOL0     O21068   4.732   7.614   9.285 -0.2100 -0.2084  0.6374
  157MOL0     C21069   4.661   7.727   9.245  0.9279  0.5091  0.5202
  157MOL0     C21070   4.531   7.695   9.187 -0.4896 -0.1731 -0.5891
  157MOL0     C21071   4.550   7.614   9.055  0.1892  0.2314  0.4452
  157MOL0     C21072   4.543   7.457   9.069 -0.8092  0.5837 -0.9359
  157MOL0     C21073   4.518   7.383   8.938  0.5471 -0.2909 -0.0340
  157MOL0     C21074   4.505   7.238   8.954 -0.9003  0.3246 -0.0383
  157MOL0     C21075   4.375   7.181   9.009 -0.7185  0.3012 -0.3595
  157MOL0     C21076   4.370   7.031   8.998  0.3734 -0.1958 -0.4951
  157MOL0     N21077   4.455   6.978   9.103  0.2492  0.5774 -0.4489
  157MOL0     C21078   4.396   6.913   9.210  0.1856  1.5339  0.9330
  157MOL0     C21079   4.498   6.860   9.275 -0.2504 -0.0955  0.0248
  157MOL0     C21080   4.487   6.781   9.393 -0.0422  0.1175 -0.3423
  157MOL0     C21081   4.391   6.831   9.509 -0.4421 -0.9403 -0.0471
  157MOL0     C21082   4.238   6.827   9.498 -0.6298 -0.1326 -1.0208
  157MOL0     C21083   4.161   6.711   9.575  0.2205  0.0868  0.4082
  157MOL0     O21084   4.058   6.781   9.647  0.6142 -0.2084  0.3420
  157MOL0     C21085   3.954   6.728   9.726 -0.1395  0.7507  0.2308
  157MOL0     C21086   3.847   6.801   9.782  0.1028  0.4252 -0.2574
  157MOL0     C21087   3.739   6.744   9.852 -0.7512 -0.4342 -0.0656
  157MOL0     C21088   3.733   6.601   9.858  0.8938 -0.2753  0.1774
  157MOL0     C21089   3.627   6.535   9.952  0.4634 -0.4994 -0.5578
  157MOL0     O21090   3.611   6.402   9.944 -0.0688  0.6768  1.2576
  157MOL0     C21091   3.528   6.338  10.033  0.4161 -0.1136  0.1225
  157MOL0     C21092   3.387   6.325  10.007 -0.7363 -0.0049  0.7591
  157MOL0     C21093   3.303   6.254  10.101  0.2942  0.4827  0.4015
  157MOL0     C21094   3.350   6.232  10.233  0.1611  0.1690 -0.3085
  157MOL0     O21095   3.250   6.194  10.329 -0.1378 -0.5967 -0.2333
  157MOL0     C21096   3.300   6.156  10.463  0.3972 -0.5449 -0.6075
  157MOL0     C21097   3.177   6.096  10.537 -0.6450 -0.5354  0.7077
  157MOL0     C21098   3.204   6.071  10.687  0.0072 -0.2033 -0.8439
  157MOL0     C21099   3.321   5.972  10.715 -0.1766 -0.5528  0.1943
  157MOL0     C21100   3.350   5.966  10.864  0.1351  0.1324 -0.2675
  157MOL0     C21101   3.468   5.873  10.911  0.1961  0.2389  1.3391
  157MOL0     C21102   3.494   5.904  11.057  0.8134 -0.2634  0.6767
  157MOL0     C21103   3.593   5.800  11.118  0.3115 -0.5880 -0.3140
  157MOL0    Cl21104   3.759   5.799  11.030  0.0493 -0.2690 -0.2469
  157MOL0     C21105   3.484   6.262  10.266 -0.5020  0.1560  0.0745
  157MOL0     C21106   3.568   6.315  10.169 -0.0764  0.6550 -0.0907
  157MOL0     O21107   3.561   6.612  10.026  0.2394 -0.5250  0.4418
  157MOL0     C21108   3.833   6.523   9.793  0.5478 -1.1928 -0.4409
  157MOL0     C21109   3.941   6.580   9.729  1.2828  0.2070  0.2337
  157MOL0     N21110   4.614   6.893   9.211 -0.5385  1.1932 -0.8992
  157MOL0     N21111   4.587   6.955   9.105  0.3351 -0.6079 -0.0873
  157MOL0     C21112   4.947   7.534   9.282  0.7844 -0.5588 -0.1269
  157MOL0     C21113   5.078   7.538   9.317 -0.4178 -0.1741 -0.2151
  157MOL0     C21114   5.477   7.705   9.505  0.0198  0.8986 -0.4221
  157MOL0     C21115   5.537   7.641   9.397  0.1302  0.1499  0.2977
  157MOL0     C21116   5.671   7.613   9.394  0.1813 -0.6316  0.1353
  157MOL0     C21117   5.753   7.662   9.499 -0.7766 -0.7310 -1.2407
  157MOL0     O21118   5.889   7.652   9.516 -0.2703 -0.4401 -0.4266
  157MOL0     C21119   5.971   7.611   9.406  0.7273  0.9958 -0.5440
  157MOL0     C21120   6.118   7.644   9.434 -0.6807 -0.3245  0.1576
  157MOL0     C21121   6.197   7.558   9.338  0.3751  0.2063  1.0406
  157MOL0     C21122   6.335   7.620   9.337  0.3355  0.7809  0.4722
  157MOL0     C21123   6.434   7.540   9.261 -0.2611  0.1748 -0.1645
  157MOL0     C21124   6.506   7.471   9.202 -0.8804  0.1953  0.3044
  157MOL0     C21125   5.693   7.723   9.606 -0.1183 -1.1985 -0.5840
  157MOL0     C21126   5.552   7.750   9.616  0.4665  0.8648 -0.0058
  157MOL0     C21127   5.514   7.832   9.739  0.3393  0.2400  0.2146
  157MOL0     H21128   5.053   7.818   9.523  1.1326  1.1670 -2.6657
  157MOL0     H21129   4.823   7.796   9.459  0.4133 -0.2899 -1.2110
  157MOL0     H21130   4.654   7.790   9.334 -0.0539  0.2168  0.6561
  157MOL0     H21131   4.716   7.771   9.162  2.6953 -3.5490 -0.7432
  157MOL0     H21132   4.486   7.794   9.177 -0.7240  0.0893  2.2143
  157MOL0     H21133   4.466   7.643   9.258 -1.7012 -0.7686 -2.0777
  157MOL0     H21134   4.634   7.638   8.990 -1.1198  1.4160 -0.8869
  157MOL0     H21135   4.465   7.637   8.990  0.0857  2.0971  1.2086
  157MOL0     H21136   4.637   7.431   9.119 -1.2496 -0.2174 -0.5048
  157MOL0     H21137   4.455   7.436   9.129 -1.6615  2.1921 -1.5703
  157MOL0     H21138   4.425   7.418   8.892 -0.4814 -3.3057 -0.4551
  157MOL0     H21139   4.598   7.418   8.872 -2.1588  3.0791 -1.8603
  157MOL0     H21140   4.517   7.194   8.854  2.2555  0.3679  0.2071
  157MOL0     H21141   4.589   7.207   9.018 -0.8280 -0.2475 -0.3961
  157MOL0     H21142   4.290   7.221   8.953 -1.9088 -4.7047 -2.6947
  157MOL0     H21143   4.366   7.209   9.114  0.2463 -3.4971  0.9023
  157MOL0     H21144   4.272   6.993   9.027  1.0817 -2.0416 -0.3245
  157MOL0     H21145   4.400   6.997   8.898 -0.4879 -2.0930 -0.1573
  157MOL0     H21146   4.292   6.894   9.233  0.4708  0.4856  1.4136
  157MOL0     H21147   4.440   6.686   9.366  0.3444 -0.0760 -0.3414
  157MOL0     H21148   4.583   6.776   9.444  0.4584 -0.2206 -1.3111
  157MOL0     H21149   4.425   6.777   9.598  1.5174  1.6758  0.9413
  157MOL0     H21150   4.413   6.933   9.541  1.0090 -1.4878  0.8071
  157MOL0     H21151   4.217   6.818   9.391  0.1879  2.4898 -1.4725
  157MOL0     H21152   4.200   6.925   9.527  3.7039  1.4197  0.0642
  157MOL0     H21153   4.228   6.663   9.646 -1.1489 -1.0282  0.9856
  157MOL0     H21154   4.121   6.645   9.497 -1.3322  0.2000  1.0821
  157MOL0     H21155   3.862   6.908   9.771  0.0760  0.2249 -2.9992
  157MOL0     H21156   3.678   6.815   9.906  5.2134  2.6311  3.6632
  157MOL0     H21157   3.358   6.357   9.908 -1.3069 -2.0152  0.2231
  157MOL0     H21158   3.201   6.226  10.078  0.6291  0.7748 -1.6081
  157MOL0     H21159   3.392   6.097  10.457  0.0899 -0.9529 -1.5685
  157MOL0     H21160   3.318   6.243  10.527  1.0431 -0.1869 -1.2641
  157MOL0     H21161   3.097   6.171  10.533 -0.3988 -0.3201 -0.4299
  157MOL0     H21162   3.150   6.003  10.485 -0.3403 -0.4513  0.3924
  157MOL0     H21163   3.217   6.168  10.735 -2.2652 -1.2864  2.2677
  157MOL0     H21164   3.112   6.032  10.730 -0.5350 -1.6356 -3.1121
  157MOL0     H21165   3.410   6.020  10.673 -0.4530  2.7473  2.9420
  157MOL0     H21166   3.313   5.875  10.665  5.3831 -1.2811  0.0668
  157MOL0     H21167   3.255   5.935  10.909  0.1404  1.0088  0.3782
  157MOL0     H21168   3.361   6.067  10.906  1.3104 -0.7655  1.7281
  157MOL0     H21169   3.437   5.768  10.913  2.2585 -0.4087  2.8204
  157MOL0     H21170   3.555   5.898  10.850  0.2411 -1.6226  0.5507
  157MOL0     H21171   3.404   5.917  11.118 -0.8950  0.8644 -1.8909
  157MOL0     H21172   3.557   5.994  11.056  1.3751 -0.6475 -0.2880
  157MOL0     H21173   3.616   5.836  11.218 -0.1120  1.2881 -0.8497
  157MOL0     H21174   3.548   5.701  11.117  1.7662 -1.2749 -0.8593
  157MOL0     H21175   3.510   6.267  10.371  0.6937 -2.0012 -0.0618
  157MOL0     H21176   3.671   6.338  10.194  0.4162 -2.5611  1.2679
  157MOL0     H21177   3.829   6.417   9.816 -0.9812 -1.5399 -2.0822
  157MOL0     H21178   4.018   6.511   9.695  0.2167 -0.1949 -1.4359
  157MOL0     H21179   4.910   7.459   9.212 -0.4426  0.9187 -1.1277
  157MOL0     H21180   5.143   7.461   9.276  1.6799  1.6121 -0.4707
  157MOL0     H21181   5.474   7.620   9.312  0.3716  0.6952 -0.0213
  157MOL0     H21182   5.703   7.568   9.300 -2.8900 -0.3982 -1.1362
  157MOL0     H21183   5.939   7.660   9.313 -0.5070  1.7645  0.2553
  157MOL0     H21184   5.959   7.502   9.398  2.5897  0.5928  1.3388
  157MOL0     H21185   6.149   7.620   9.537  1.3558  2.0742  0.1933
  157MOL0     H21186   6.151   7.747   9.416  3.3322 -1.6579 -1.2287
  157MOL0     H21187   6.164   7.562   9.234  0.7773 -1.3434  0.8374
  157MOL0     H21188   6.217   7.457   9.373  5.8868  1.1238  1.4187
  157MOL0     H21189   6.322   7.720   9.295  0.5185  0.4977 -0.2830
  157MOL0     H21190   6.374   7.624   9.439  2.4205 -1.8882 -0.0990
  157MOL0     H21191   6.568   7.410   9.140  0.4519  1.4227  0.3870
  157MOL0     H21192   5.766   7.757   9.679 -0.6313  2.6861 -1.6286
  157MOL0     H21193   5.600   7.898   9.755  0.7773 -0.2384 -0.1294
  157MOL0     H21194   5.429   7.897   9.717  1.9940  2.6465  0.5470
  157MOL0     H21195   5.498   7.777   9.831  1.0323  4.6601  3.2988
  158MOL0     O21196  11.137   7.842   6.541  0.1249  0.3117 -0.4984
  158MOL0     C21197  11.043   7.830   6.609  0.5538 -0.6171  0.7463
  158MOL0     O21198  10.925   7.768   6.565 -0.3894 -0.9103  0.9092
  158MOL0     C21199  10.922   7.721   6.431 -0.3314 -0.2527 -0.4520
  158MOL0     C21200  10.986   7.607   6.382  0.5493 -0.9739  0.0335
  158MOL0     C21201  10.955   7.576   6.247  0.1823 -0.7251  0.6076
  158MOL0     C21202  10.874   7.655   6.162 -0.3654  0.3646 -1.0489
  158MOL0     O21203  10.890   7.624   6.034  0.1726  0.2595 -0.1027
  158MOL0     C21204  10.944   7.731   5.953 -0.0584 -0.0922  0.7470
  158MOL0     C21205  10.867   7.739   5.817  0.4612  0.6022 -0.5217
  158MOL0     C21206  10.924   7.838   5.716 -0.2410  0.0036  0.0536
  158MOL0     C21207  10.901   7.983   5.757 -0.0054 -1.2281 -1.9590
  158MOL0     C21208  10.971   8.056   5.636 -0.0200  0.3067 -1.2244
  158MOL0     C21209  10.943   8.205   5.647 -0.7235  0.9777 -0.5337
  158MOL0     C21210  11.012   8.289   5.540 -0.5802 -0.0379  0.9031
  158MOL0     C21211  11.161   8.302   5.533  0.4788 -0.6433 -0.2354
  158MOL0     N21212  11.210   8.421   5.453 -0.1422 -0.6483  0.7412
  158MOL0     C21213  11.196   8.555   5.468  0.3798  0.1379 -0.9313
  158MOL0     C21214  11.282   8.619   5.389 -0.5215 -0.6082  1.5605
  158MOL0     C21215  11.307   8.767   5.395 -0.4919  0.3311  0.5397
  158MOL0     C21216  11.440   8.814   5.347 -0.1572  0.1968  0.3292
  158MOL0     C21217  11.546   8.734   5.429 -0.4243  0.0003 -0.5424
  158MOL0     C21218  11.676   8.731   5.346 -0.3694 -0.0353  0.0362
  158MOL0     O21219  11.790   8.751   5.438 -0.1465 -0.1768 -0.5488
  158MOL0     C21220  11.904   8.685   5.395 -0.2739 -0.4090 -1.0148
  158MOL0     C21221  11.930   8.646   5.268  0.0118  0.6065 -0.1148
  158MOL0     C21222  12.050   8.582   5.242 -0.6103  0.0168  1.1666
  158MOL0     C21223  12.154   8.571   5.336  0.6525  0.2319 -0.1317
  158MOL0     C21224  12.277   8.494   5.314  0.4797 -0.6489  0.2199
  158MOL0     O21225  12.398   8.537   5.372 -0.2349 -0.5223  0.5238
  158MOL0     C21226  12.511   8.467   5.348  0.6222  0.1623 -1.2704
  158MOL0     C21227  12.563   8.461   5.216 -0.3755 -0.0560  0.7270
  158MOL0     C21228  12.681   8.388   5.186  0.2936  0.8176 -0.6422
  158MOL0     C21229  12.744   8.310   5.295  0.3978 -0.8571  0.4335
  158MOL0     O21230  12.858   8.238   5.281  0.6935 -0.5384 -0.2385
  158MOL0     C21231  12.979   8.307   5.237 -0.2233  0.5527  0.2305
  158MOL0     C21232  13.094   8.212   5.273  0.0751  0.4129  0.1976
  158MOL0     C21233  13.104   8.116   5.152 -0.2974  0.8335 -1.3427
  158MOL0     C21234  13.172   7.983   5.189 -0.3682 -0.3395 -0.4260
  158MOL0     C21235  13.328   7.996   5.173  0.3096 -0.4368 -0.5041
  158MOL0     C21236  13.398   7.867   5.223 -0.3839 -0.0312 -0.0036
  158MOL0     C21237  13.549   7.859   5.214 -0.3269 -0.3657  0.9744
  158MOL0     C21238  13.620   7.863   5.077 -0.0585  0.6992  0.1754
  158MOL0    Cl21239  13.777   7.788   5.098 -0.0694 -0.2426  0.1348
  158MOL0     C21240  12.695   8.317   5.428  0.4407 -0.2640 -0.2402
  158MOL0     C21241  12.581   8.401   5.453  0.2124  0.3167 -0.1471
  158MOL0     O21242  12.264   8.398   5.238  0.1134 -0.1276 -0.1154
  158MOL0     C21243  12.126   8.626   5.459  0.2656  0.3157 -0.5880
  158MOL0     C21244  12.001   8.679   5.493  0.1363  0.9387 -0.5697
  158MOL0     N21245  11.345   8.519   5.313 -0.0408  0.3947 -0.4287
  158MOL0     N21246  11.309   8.406   5.354 -0.4176  0.7150  0.2743
  158MOL0     C21247  10.804   7.759   6.219 -0.7150  0.5959 -0.0661
  158MOL0     C21248  10.838   7.790   6.351  1.2151  0.5075  0.3950
  158MOL0     C21249  11.069   7.866   6.750  1.0712  0.0250 -0.1850
  158MOL0     C21250  11.047   7.754   6.830 -0.3194  0.2832  0.5766
  158MOL0     C21251  11.074   7.761   6.964 -0.1254  0.3506 -0.3518
  158MOL0     C21252  11.101   7.885   7.027 -0.3270 -0.3925 -0.1908
  158MOL0     O21253  11.135   7.908   7.157  0.0962  0.8388  0.1315
  158MOL0     C21254  11.065   7.844   7.268  0.5658 -1.3651 -0.3247
  158MOL0     C21255  11.127   7.720   7.325 -0.8106 -0.6571 -0.1028
  158MOL0     C21256  11.276   7.728   7.342 -0.1650  0.3688 -0.4596
  158MOL0     C21257  11.357   7.716   7.212  0.7897  0.7421  1.4452
  158MOL0     C21258  11.500   7.669   7.231 -0.2140 -0.8051  0.5921
  158MOL0     C21259  11.615   7.654   7.257 -0.9600  0.3045 -0.6220
  158MOL0     C21260  11.135   7.996   6.941  1.2774 -0.2856  0.7342
  158MOL0     C21261  11.112   7.989   6.802 -0.0481 -0.1746  0.1292
  158MOL0     C21262  11.142   8.111   6.715 -0.2433  0.4961  0.5984
  158MOL0     H21263  11.056   7.556   6.447  1.0218  0.6387  0.8442
  158MOL0     H21264  11.020   7.498   6.208  1.7821  0.9170 -0.1512
  158MOL0     H21265  10.922   7.826   6.003 -1.8467  0.4776 -0.9802
  158MOL0     H21266  11.049   7.722   5.924 -0.2463 -0.3392  0.1158
  158MOL0     H21267  10.763   7.767   5.836 -0.3982 -4.4898  5.6863
  158MOL0     H21268  10.862   7.636   5.781  0.0943  0.1021  0.8861
  158MOL0     H21269  10.900   7.822   5.610 -0.0456 -1.3409  0.1950
  158MOL0     H21270  11.031   7.820   5.703  0.1655  1.9008  0.4907
  158MOL0     H21271  10.794   8.007   5.759  0.2107 -0.1910 -0.0951
  158MOL0     H21272  10.950   8.012   5.851 -2.1660  0.3601 -1.2448
  158MOL0     H21273  11.078   8.033   5.646 -0.1846 -0.9590 -2.1327
  158MOL0     H21274  10.931   8.035   5.536 -0.9540 -0.8158 -0.6284
  158MOL0     H21275  10.836   8.224   5.630 -0.4318  2.1323 -1.1823
  158MOL0     H21276  10.979   8.238   5.745  4.7105 -1.7057 -1.2722
  158MOL0     H21277  10.980   8.394   5.550  1.5444  0.4537  3.6581
  158MOL0     H21278  10.973   8.237   5.452  2.4249 -0.2029 -0.4290
  158MOL0     H21279  11.204   8.296   5.634  3.3130  2.1944 -1.1176
  158MOL0     H21280  11.216   8.217   5.492  0.6691 -0.7381  0.1994
  158MOL0     H21281  11.125   8.621   5.517  2.9888  2.6517 -0.2396
  158MOL0     H21282  11.229   8.823   5.342  0.8933  1.8034  0.0063
  158MOL0     H21283  11.300   8.799   5.499 -1.9919  3.1468 -0.3208
  158MOL0     H21284  11.459   8.776   5.246 -0.9138  0.9300 -0.0989
  158MOL0     H21285  11.443   8.923   5.354 -2.0173  0.5351 -2.4809
  158MOL0     H21286  11.521   8.630   5.452 -0.5668 -0.2355 -1.6941
  158MOL0     H21287  11.552   8.796   5.519 -2.4094  1.3557 -1.2592
  158MOL0     H21288  11.684   8.809   5.269  3.1360  1.5007  1.7231
  158MOL0     H21289  11.673   8.634   5.295 -4.2502  0.2560 -0.6108
  158MOL0     H21290  11.878   8.659   5.174 -0.3736 -1.8376 -0.3028
  158MOL0     H21291  12.062   8.545   5.140  0.1101  3.3409 -0.0653
  158MOL0     H21292  12.509   8.524   5.145 -1.6806 -0.9438  0.8936
  158MOL0     H21293  12.724   8.380   5.086 -1.6400 -0.6325 -1.4133
  158MOL0     H21294  12.983   8.322   5.129 -0.7959 -0.3612  0.0724
  158MOL0     H21295  12.989   8.403   5.288 -2.0372  3.0002 -3.5358
  158MOL0     H21296  13.179   8.274   5.302  0.2344 -0.3411  1.4386
  158MOL0     H21297  13.075   8.169   5.372  2.9539  0.3447  0.8018
  158MOL0     H21298  13.010   8.074   5.114 -2.2771  2.3854  1.4638
  158MOL0     H21299  13.158   8.158   5.066  2.7382 -0.5471 -0.2668
  158MOL0     H21300  13.138   7.901   5.126  0.6998 -2.3964  1.4984
  158MOL0     H21301  13.147   7.944   5.288 -0.8938  0.3673 -0.2725
  158MOL0     H21302  13.358   8.074   5.243 -1.8621 -1.4859  1.7763
  158MOL0     H21303  13.356   8.026   5.072  0.6451 -0.5939 -0.4596
  158MOL0     H21304  13.373   7.853   5.329 -2.2875 -0.3913 -0.4616
  158MOL0     H21305  13.352   7.790   5.161  1.4639 -0.5195 -0.8333
  158MOL0     H21306  13.581   7.767   5.264  2.3535 -0.0726 -0.0266
  158MOL0     H21307  13.588   7.941   5.274 -3.3729  0.9494  1.3325
  158MOL0     H21308  13.566   7.804   5.003  0.6671  0.6758 -0.3377
  158MOL0     H21309  13.638   7.969   5.057  0.3898  1.0973  2.3759
  158MOL0     H21310  12.726   8.259   5.514 -0.2800  1.4508  1.2388
  158MOL0     H21311  12.538   8.398   5.553  0.1077  0.0079 -0.2015
  158MOL0     H21312  12.199   8.623   5.539 -0.2716  2.4575  0.0291
  158MOL0     H21313  11.995   8.721   5.593  1.8925  1.9337 -0.8505
  158MOL0     H21314  10.734   7.817   6.159 -1.7606 -0.4206  0.1288
  158MOL0     H21315  10.791   7.882   6.385 -1.5373 -0.2417 -1.0093
  158MOL0     H21316  11.011   7.658   6.794  0.1287  0.6186 -0.8230
  158MOL0     H21317  11.060   7.675   7.029 -0.1377  0.6571  0.0544
  158MOL0     H21318  10.963   7.817   7.238 -0.1496  2.0050 -1.3158
  158MOL0     H21319  11.069   7.918   7.348 -0.3831 -3.1274  1.4205
  158MOL0     H21320  11.105   7.638   7.254  2.4485 -1.9304  0.1958
  158MOL0     H21321  11.100   7.695   7.428  3.6408 -0.9978  1.1633
  158MOL0     H21322  11.301   7.661   7.424  1.0866  3.8063  2.2378
  158MOL0     H21323  11.308   7.824   7.385  1.6424 -0.1554 -0.5758
  158MOL0     H21324  11.306   7.630   7.166 -1.4513  1.4054  2.5591
  158MOL0     H21325  11.342   7.804   7.150 -3.7377  0.5294  1.9490
  158MOL0     H21326  11.718   7.646   7.285 -1.1551 -4.0110 -0.3425
  158MOL0     H21327  11.161   8.092   6.986 -1.1225  1.1110 -0.6677
  158MOL0     H21328  11.073   8.116   6.631 -1.2091 -2.1724  1.1247
  158MOL0     H21329  11.120   8.207   6.762 -2.6611  0.6366 -0.6542
  158MOL0     H21330  11.247   8.116   6.686 -0.5343  1.1420 -0.3663
  159MOL0     O21331   6.475   3.729   2.693 -0.2552  0.0205 -0.7497
  159MOL0     C21332   6.467   3.688   2.582 -0.2023 -0.5584 -0.0486
  159MOL0     O21333   6.567   3.696   2.490 -0.9489  0.2892 -0.4758
  159MOL0     C21334   6.687   3.758   2.532  0.2984 -0.0491  1.0527
  159MOL0     C21335   6.752   3.850   2.451 -0.5929  0.0862 -0.2237
  159MOL0     C21336   6.884   3.898   2.471  0.2118  0.2772  0.6189
  159MOL0     C21337   6.960   3.838   2.573  0.4582  0.6381 -0.2828
  159MOL0     O21338   7.090   3.877   2.580  0.2812 -0.9578 -0.4453
  159MOL0     C21339   7.153   3.874   2.705  0.1774 -0.4590  1.2528
  159MOL0     C21340   7.291   3.943   2.698  0.9821 -0.2389  0.1887
  159MOL0     C21341   7.388   3.897   2.801 -0.0160 -0.8404  0.0894
  159MOL0     C21342   7.532   3.929   2.765 -1.1588 -0.0129 -0.0566
  159MOL0     C21343   7.605   3.927   2.899 -0.3270  0.7806 -1.1954
  159MOL0     C21344   7.763   3.948   2.882  0.1968  0.1643 -0.2327
  159MOL0     C21345   7.836   3.852   2.793  0.0379 -0.4960 -0.2088
  159MOL0     C21346   7.809   3.705   2.838 -0.2258  0.3981  0.2213
  159MOL0     N21347   7.907   3.656   2.941  0.2170 -0.3229  0.4397
  159MOL0     C21348   7.880   3.594   3.061 -0.2446  0.0085  0.1463
  159MOL0     C21349   7.998   3.553   3.109 -1.0216 -0.0156 -0.5583
  159MOL0     C21350   8.035   3.453   3.216  0.2231  0.4314 -0.6495
  159MOL0     C21351   7.930   3.450   3.325  0.9676 -0.1376 -0.3174
  159MOL0     C21352   7.808   3.354   3.304  0.1760 -0.5959  0.4148
  159MOL0     C21353   7.713   3.346   3.415 -0.0485 -0.5927  0.6244
  159MOL0     O21354   7.677   3.470   3.489 -0.1515  0.0641  0.5439
  159MOL0     C21355   7.548   3.479   3.535  0.0737 -1.1759 -0.4508
  159MOL0     C21356   7.485   3.605   3.528  0.4420  0.3961 -0.5556
  159MOL0     C21357   7.341   3.615   3.557  0.1970 -0.3789 -0.2402
  159MOL0     C21358   7.278   3.499   3.613 -0.9603 -0.0853  0.1045
  159MOL0     C21359   7.134   3.501   3.654  0.1345 -0.3412 -1.0617
  159MOL0     O21360   7.067   3.621   3.627 -0.3786  0.4798  0.0194
  159MOL0     C21361   6.935   3.637   3.655  0.2806 -0.0566  0.3352
  159MOL0     C21362   6.876   3.590   3.771  0.1092 -0.6215  0.2120
  159MOL0     C21363   6.744   3.618   3.799  0.0351 -0.4188  0.3781
  159MOL0     C21364   6.665   3.681   3.698  0.2969  0.3512  0.8273
  159MOL0     O21365   6.528   3.695   3.687 -0.0672  0.3924  0.2894
  159MOL0     C21366   6.455   3.642   3.801  0.6190 -0.7654  0.3646
  159MOL0     C21367   6.307   3.644   3.784 -0.1199  0.0316  0.2575
  159MOL0     C21368   6.242   3.537   3.698  1.0889  0.1472  0.1423
  159MOL0     C21369   6.092   3.540   3.715  0.2277  0.4794  1.4928
  159MOL0     C21370   6.006   3.492   3.591 -0.9881 -0.3531  0.3104
  159MOL0     C21371   6.039   3.354   3.524  0.1367 -0.7218  0.7697
  159MOL0     C21372   5.901   3.291   3.473  0.0394 -0.5122 -0.4914
  159MOL0     C21373   5.929   3.159   3.391 -0.3300 -0.1161 -0.0672
  159MOL0    Cl21374   5.783   3.097   3.325  0.1277  0.3132  0.7146
  159MOL0     C21375   6.730   3.742   3.594 -0.6418  0.0088  0.4240
  159MOL0     C21376   6.860   3.712   3.570  0.1928  0.0650  0.8060
  159MOL0     O21377   7.085   3.394   3.690 -0.3629  0.3560 -0.0603
  159MOL0     C21378   7.351   3.377   3.633 -0.4622  0.4674  0.2023
  159MOL0     C21379   7.482   3.371   3.596 -1.0779 -0.5589 -0.0224
  159MOL0     N21380   8.092   3.598   3.014  0.6785 -0.1097 -0.0079
  159MOL0     N21381   8.034   3.646   2.905  0.8390 -0.4167 -0.4013
  159MOL0     C21382   6.894   3.743   2.653 -0.1734  0.6187  0.1897
  159MOL0     C21383   6.766   3.696   2.633  0.4950  0.1744 -0.1433
  159MOL0     C21384   6.341   3.635   2.532 -0.5403  0.5023 -0.1293
  159MOL0     C21385   6.320   3.657   2.397  0.5142 -0.7117  0.5569
  159MOL0     C21386   6.199   3.621   2.341 -0.2378 -0.4505 -0.6906
  159MOL0     C21387   6.099   3.554   2.417 -0.6814 -0.1105  0.4848
  159MOL0     O21388   5.985   3.523   2.350 -0.1504 -0.0205 -1.4788
  159MOL0     C21389   5.908   3.423   2.419 -0.0256  0.0249 -0.0635
  159MOL0     C21390   5.830   3.329   2.333 -0.4074 -0.1490 -0.0391
  159MOL0     C21391   5.687   3.391   2.311  0.6241  0.3061  0.0053
  159MOL0     C21392   5.592   3.307   2.228 -0.3060 -0.4361 -0.5496
  159MOL0     C21393   5.477   3.393   2.194 -0.5945  0.3637 -1.1196
  159MOL0     C21394   5.392   3.473   2.162  0.9020 -0.5431 -0.8631
  159MOL0     C21395   6.116   3.545   2.553 -0.4581  1.2501  0.6770
  159MOL0     C21396   6.239   3.582   2.612 -0.5447  0.8914  0.0688
  159MOL0     C21397   6.259   3.553   2.754 -0.0167  0.6597  0.7811
  159MOL0     H21398   6.704   3.895   2.365 -1.0021 -0.8535 -0.4943
  159MOL0     H21399   6.931   3.972   2.407 -3.4712  1.0583 -1.4755
  159MOL0     H21400   7.096   3.929   2.781  1.3499  1.1281  1.0273
  159MOL0     H21401   7.166   3.771   2.739 -1.1204 -0.6113  1.3254
  159MOL0     H21402   7.284   4.052   2.704 -2.1718 -0.2565 -1.0617
  159MOL0     H21403   7.321   3.911   2.598 -1.3418  1.4509 -1.1396
  159MOL0     H21404   7.375   3.789   2.811  0.5020 -1.1390 -2.0329
  159MOL0     H21405   7.361   3.945   2.896 -2.5265 -1.2896 -0.3501
  159MOL0     H21406   7.576   3.846   2.708  1.2108 -0.0800  1.7386
  159MOL0     H21407   7.543   4.022   2.708 -0.7593  0.7546  1.2334
  159MOL0     H21408   7.567   4.008   2.962 -0.9361 -0.1962 -0.2583
  159MOL0     H21409   7.589   3.832   2.951 -0.0188  0.6885 -1.2691
  159MOL0     H21410   7.791   4.046   2.842  0.6809  0.5807  1.0559
  159MOL0     H21411   7.815   3.940   2.978  3.7718  1.3135 -1.8813
  159MOL0     H21412   7.944   3.869   2.795  0.1468 -1.2306  0.5934
  159MOL0     H21413   7.792   3.876   2.696 -3.0004  2.0376  1.5849
  159MOL0     H21414   7.707   3.698   2.878 -0.0397  0.6635  0.7509
  159MOL0     H21415   7.825   3.639   2.752  1.8970  1.7348 -0.5042
  159MOL0     H21416   7.784   3.559   3.095  0.4972 -0.2221  2.1355
  159MOL0     H21417   8.058   3.354   3.174  4.1614  1.2276 -0.7447
  159MOL0     H21418   8.126   3.481   3.270  0.1239  1.7959 -1.1543
  159MOL0     H21419   7.975   3.408   3.416 -0.2943 -1.5912 -0.3341
  159MOL0     H21420   7.900   3.550   3.355  0.8546 -0.7441  1.7452
  159MOL0     H21421   7.847   3.256   3.276 -0.3211  0.0121 -2.9085
  159MOL0     H21422   7.757   3.396   3.217  1.3506 -0.6443 -0.3112
  159MOL0     H21423   7.752   3.282   3.494  1.3597  0.4198  0.7837
  159MOL0     H21424   7.625   3.313   3.358  0.0784 -0.5487  0.4035
  159MOL0     H21425   7.532   3.694   3.488  0.6628 -1.0436 -3.7761
  159MOL0     H21426   7.289   3.710   3.547  2.3340  0.6657 -2.4152
  159MOL0     H21427   6.944   3.536   3.836  0.1874  1.2659  1.7912
  159MOL0     H21428   6.696   3.583   3.890 -0.8025  0.6059  0.3539
  159MOL0     H21429   6.484   3.541   3.832 -1.2124 -0.8569  1.9768
  159MOL0     H21430   6.473   3.705   3.888  0.1297  0.7660 -0.6128
  159MOL0     H21431   6.271   3.639   3.888 -0.8031 -1.6977 -0.0315
  159MOL0     H21432   6.286   3.744   3.745  1.2267  0.3386  0.2614
  159MOL0     H21433   6.267   3.562   3.595  0.9256 -0.3219 -0.0130
  159MOL0     H21434   6.280   3.435   3.712 -0.2794 -0.4501 -0.3322
  159MOL0     H21435   6.054   3.636   3.750 -4.5939 -0.9954  1.0448
  159MOL0     H21436   6.068   3.465   3.791 -1.0849 -1.3899 -0.6464
  159MOL0     H21437   5.996   3.557   3.503 -0.4399 -2.1723 -1.1717
  159MOL0     H21438   5.903   3.490   3.629 -1.7457  1.3890 -1.4880
  159MOL0     H21439   6.117   3.356   3.447  0.3438 -1.5122  0.9447
  159MOL0     H21440   6.079   3.278   3.593  2.3024 -3.1763 -2.8159
  159MOL0     H21441   5.849   3.355   3.402  0.1457  1.1651  0.8659
  159MOL0     H21442   5.835   3.273   3.559 -1.0993 -0.2206 -1.2830
  159MOL0     H21443   5.998   3.168   3.307  1.7707  0.9822  1.6488
  159MOL0     H21444   5.971   3.083   3.458  1.5840  0.3243 -0.7123
  159MOL0     H21445   6.675   3.801   3.521 -1.0244  1.8390  2.0879
  159MOL0     H21446   6.918   3.732   3.480 -1.0605 -4.2656 -1.2130
  159MOL0     H21447   7.301   3.287   3.668  1.4407 -0.2798  1.1451
  159MOL0     H21448   7.538   3.283   3.624  0.6022  0.3329 -0.4437
  159MOL0     H21449   6.946   3.695   2.735 -1.7170  1.5361  1.7650
  159MOL0     H21450   6.724   3.621   2.699 -2.9247  0.9145 -1.2746
  159MOL0     H21451   6.390   3.724   2.347  0.2770 -2.5910 -2.6046
  159MOL0     H21452   6.174   3.656   2.241 -1.2898  1.1871  0.0945
  159MOL0     H21453   5.839   3.471   2.488  0.5742  3.4284 -1.6225
  159MOL0     H21454   5.969   3.353   2.477 -0.6483  0.1494  0.7547
  159MOL0     H21455   5.797   3.241   2.390 -1.3742  0.2631  0.0546
  159MOL0     H21456   5.883   3.315   2.238  0.7117 -1.0322  0.6939
  159MOL0     H21457   5.701   3.488   2.261 -0.4281  0.1257 -0.6726
  159MOL0     H21458   5.654   3.410   2.414  1.3274 -0.0392  0.3038
  159MOL0     H21459   5.638   3.251   2.146 -0.9914 -2.7664  0.6031
  159MOL0     H21460   5.560   3.229   2.298  1.3462 -0.4539  0.2335
  159MOL0     H21461   5.310   3.539   2.145  0.1331 -0.4939  2.3651
  159MOL0     H21462   6.039   3.516   2.623  1.5918  1.1443  2.9980
  159MOL0     H21463   6.259   3.643   2.816  0.2898  1.5534 -0.4667
  159MOL0     H21464   6.174   3.490   2.781 -1.7504  2.1196 -0.9105
  159MOL0     H21465   6.351   3.498   2.776 -0.8653 -1.9107 -1.6129
  160MOL0     O21466  11.338   8.724   1.233 -0.5704 -0.4920  0.8842
  160MOL0     C21467  11.272   8.673   1.136 -0.4194 -0.2257 -0.2746
  160MOL0     O21468  11.317   8.614   1.027 -0.2266 -0.2251 -0.2817
  160MOL0     C21469  11.434   8.543   1.015 -0.5840  0.1216 -0.7151
  160MOL0     C21470  11.536   8.533   1.105  0.2245 -0.2732 -0.3120
  160MOL0     C21471  11.648   8.450   1.078 -0.2580 -0.8662  0.2575
  160MOL0     C21472  11.639   8.375   0.957  0.3614  0.4578  0.5136
  160MOL0     O21473  11.743   8.288   0.935 -0.0449 -0.2468  0.2437
  160MOL0     C21474  11.842   8.311   0.828  0.0260  0.0179  0.2299
  160MOL0     C21475  11.978   8.281   0.895  0.0264  0.0235  0.3846
  160MOL0     C21476  11.995   8.122   0.916  0.0551 -0.8148 -0.4973
  160MOL0     C21477  11.978   8.046   0.782  0.6370  0.1152 -0.3685
  160MOL0     C21478  12.030   7.903   0.794 -0.7971 -0.5590 -0.0299
  160MOL0     C21479  12.182   7.891   0.803  0.8641 -0.3293  0.7599
  160MOL0     C21480  12.255   7.938   0.680 -0.4331 -0.5538 -0.1379
  160MOL0     C21481  12.402   7.908   0.679  0.2021  0.4290 -0.5786
  160MOL0     N21482  12.461   7.955   0.810  0.1611 -0.5107 -0.3063
  160MOL0     C21483  12.443   8.078   0.874 -0.2449  0.5200 -0.1017
  160MOL0     C21484  12.515   8.074   0.990 -1.0026 -0.3861  0.5782
  160MOL0     C21485  12.548   8.183   1.086 -0.4260 -0.4774  0.6142
  160MOL0     C21486  12.415   8.249   1.143  0.2200  0.0257  0.1557
  160MOL0     C21487  12.337   8.159   1.251 -0.1422 -0.0371  0.0485
  160MOL0     C21488  12.372   8.204   1.394 -1.0074 -0.5033  0.5569
  160MOL0     O21489  12.512   8.189   1.423 -0.7695  0.1723 -0.6500
  160MOL0     C21490  12.567   8.069   1.480 -0.0225  0.2136 -0.3524
  160MOL0     C21491  12.702   8.075   1.494 -0.4405 -0.3948 -0.0750
  160MOL0     C21492  12.768   7.975   1.568  0.6061 -0.0515 -0.6388
  160MOL0     C21493  12.702   7.866   1.619  0.2765 -0.0844 -0.4125
  160MOL0     C21494  12.763   7.778   1.719 -0.3407  0.4612  0.4464
  160MOL0     O21495  12.902   7.803   1.748  0.2617 -0.3597  0.2556
  160MOL0     C21496  12.956   7.781   1.866  0.8806 -0.4928 -0.0341
  160MOL0     C21497  12.886   7.776   1.986 -0.5704 -0.9406  0.3010
  160MOL0     C21498  12.951   7.741   2.105 -0.5657  0.2806  0.0355
  160MOL0     C21499  13.088   7.720   2.104  0.2527  0.3425  1.0734
  160MOL0     O21500  13.164   7.691   2.214 -0.3805 -0.2434  0.6255
  160MOL0     C21501  13.106   7.724   2.339  0.8299  0.5588  0.3702
  160MOL0     C21502  13.207   7.698   2.451 -0.5000  0.1604  0.1836
  160MOL0     C21503  13.324   7.803   2.470 -0.8662  0.8165  0.2002
  160MOL0     C21504  13.449   7.736   2.529  0.5316 -0.3332 -0.3160
  160MOL0     C21505  13.561   7.835   2.569  0.1053  0.3791 -1.2605
  160MOL0     C21506  13.681   7.757   2.623  0.6117 -0.4191 -0.6368
  160MOL0     C21507  13.795   7.842   2.682  0.5151 -0.2505  0.1107
  160MOL0     C21508  13.771   7.888   2.827  0.3580  0.0224  1.0253
  160MOL0    Cl21509  13.922   7.970   2.876  0.1616  0.3335  0.3133
  160MOL0     C21510  13.157   7.728   1.978  0.6850  0.5302  0.6367
  160MOL0     C21511  13.092   7.763   1.860  0.5411 -0.2148  0.8842
  160MOL0     O21512  12.688   7.700   1.778  0.1301 -0.2602 -0.8066
  160MOL0     C21513  12.557   7.856   1.603 -0.1338 -0.8324  0.7920
  160MOL0     C21514  12.490   7.960   1.530  0.5938  0.2276  1.0320
  160MOL0     N21515  12.578   7.951   0.998 -0.7822 -0.4226 -0.1092
  160MOL0     N21516  12.547   7.883   0.890 -0.4956  0.0920  0.6927
  160MOL0     C21517  11.531   8.384   0.866  0.0061 -0.4476 -0.3517
  160MOL0     C21518  11.433   8.472   0.892  0.4207 -0.2514 -0.6045
  160MOL0     C21519  11.126   8.717   1.120  0.7264 -0.3979 -0.8213
  160MOL0     C21520  11.037   8.660   1.031 -1.0679  0.2275 -0.8887
  160MOL0     C21521  10.902   8.677   1.018 -0.2628 -0.0879 -0.0818
  160MOL0     C21522  10.846   8.775   1.100  0.0198 -0.3540 -0.2013
  160MOL0     O21523  10.718   8.826   1.088  0.2629  0.1555 -0.8156
  160MOL0     C21524  10.635   8.766   0.986 -0.2583 -0.4760  0.4960
  160MOL0     C21525  10.498   8.822   0.979 -0.1446  0.5783 -0.3639
  160MOL0     C21526  10.403   8.782   1.092 -0.6650  0.3475  0.2439
  160MOL0     C21527  10.272   8.862   1.076 -0.2032  1.4575  0.2197
  160MOL0     C21528  10.196   8.820   0.956 -0.3693 -0.7529 -0.4932
  160MOL0     C21529  10.141   8.797   0.849  0.0527  0.4155 -0.4497
  160MOL0     C21530  10.924   8.840   1.195 -0.1594 -0.5809  0.2818
  160MOL0     C21531  11.064   8.810   1.211 -0.1279 -0.4422 -0.8744
  160MOL0     C21532  11.145   8.906   1.314 -0.0057  0.5052  0.4585
  160MOL0     H21533  11.544   8.581   1.202  2.3023  1.6962 -1.3763
  160MOL0     H21534  11.728   8.434   1.150  0.7525 -1.4440 -0.9679
  160MOL0     H21535  11.820   8.250   0.741 -1.7502  1.3882 -0.3630
  160MOL0     H21536  11.837   8.413   0.788 -0.2808 -0.1011 -0.0435
  160MOL0     H21537  11.978   8.332   0.992 -1.0869  1.1539 -0.1768
  160MOL0     H21538  12.068   8.316   0.842 -1.2988  2.6261 -0.3200
  160MOL0     H21539  11.917   8.101   0.990  0.1297  1.9881  0.4779
  160MOL0     H21540  12.096   8.110   0.956  0.0955  1.0946  0.0488
  160MOL0     H21541  11.872   8.032   0.759  1.1599 -1.5578 -1.9753
  160MOL0     H21542  12.017   8.100   0.695  1.1364  1.1848  0.4845
  160MOL0     H21543  11.992   7.844   0.878  2.6600 -1.6584  0.8865
  160MOL0     H21544  11.992   7.854   0.704 -1.5444  0.8047 -0.4937
  160MOL0     H21545  12.226   7.933   0.895  3.6372 -0.7565 -0.2727
  160MOL0     H21546  12.177   7.783   0.818 -2.0443 -0.2034  1.2350
  160MOL0     H21547  12.235   8.044   0.666 -1.2102 -0.5900  0.5680
  160MOL0     H21548  12.227   7.874   0.595 -0.8451 -2.2226  1.1911
  160MOL0     H21549  12.425   7.802   0.662  3.5037  1.0695 -0.6670
  160MOL0     H21550  12.439   7.966   0.595 -3.6776  3.0041 -0.7705
  160MOL0     H21551  12.376   8.151   0.831  0.0201  1.1200  0.4924
  160MOL0     H21552  12.622   8.138   1.153 -1.0457 -2.1145  0.2407
  160MOL0     H21553  12.607   8.254   1.027  1.0884 -0.9015  1.5437
  160MOL0     H21554  12.428   8.346   1.191  1.4857 -0.8864  1.8125
  160MOL0     H21555  12.339   8.268   1.068 -2.9661 -1.2941  2.7783
  160MOL0     H21556  12.370   8.055   1.244  1.6097  0.4913  0.0014
  160MOL0     H21557  12.228   8.168   1.238 -0.4040  0.7861  2.3485
  160MOL0     H21558  12.309   8.142   1.459 -1.8779  0.0120  0.2300
  160MOL0     H21559  12.354   8.312   1.397  2.2375  0.2209 -1.2060
  160MOL0     H21560  12.767   8.155   1.458  0.2593 -0.7017  0.4717
  160MOL0     H21561  12.873   7.986   1.593 -0.0005 -2.6126  4.3711
  160MOL0     H21562  12.781   7.801   1.982 -0.0265  1.5466 -2.8918
  160MOL0     H21563  12.895   7.740   2.198 -1.4361  0.9096 -0.4641
  160MOL0     H21564  13.080   7.831   2.338  1.4561  0.7460 -2.2048
  160MOL0     H21565  13.024   7.652   2.346  1.9464 -0.8294 -0.2917
  160MOL0     H21566  13.174   7.683   2.554 -0.8935  0.5585  0.1193
  160MOL0     H21567  13.254   7.605   2.418 -0.8369  0.6062 -1.6564
  160MOL0     H21568  13.347   7.836   2.369  0.0046 -2.7163 -0.9108
  160MOL0     H21569  13.285   7.883   2.533  0.2831  1.3484  0.2490
  160MOL0     H21570  13.495   7.681   2.446  0.8038 -2.1722  0.9836
  160MOL0     H21571  13.405   7.675   2.609 -0.6659 -0.1455 -0.8138
  160MOL0     H21572  13.520   7.887   2.656 -1.4926 -0.2393 -1.5920
  160MOL0     H21573  13.587   7.907   2.491  1.2874 -0.5425 -1.7437
  160MOL0     H21574  13.654   7.684   2.700 -1.5425 -0.3700 -1.2797
  160MOL0     H21575  13.720   7.695   2.542  2.3126  0.3441 -0.4526
  160MOL0     H21576  13.797   7.936   2.626  0.9260  0.1864  0.8340
  160MOL0     H21577  13.898   7.804   2.673  1.1056  1.7191 -4.8826
  160MOL0     H21578  13.689   7.961   2.828  0.2880  0.1775 -2.5202
  160MOL0     H21579  13.750   7.809   2.901  1.9014 -1.6141 -0.1990
  160MOL0     H21580  13.263   7.702   1.979  0.6122  0.2021  2.6861
  160MOL0     H21581  13.148   7.770   1.767  0.4073  2.0590  0.9210
  160MOL0     H21582  12.491   7.780   1.644 -1.9581  1.3961  2.2837
  160MOL0     H21583  12.383   7.958   1.513  0.8523  0.1992 -0.9230
  160MOL0     H21584  11.533   8.326   0.774  2.5784  1.2330 -1.4460
  160MOL0     H21585  11.343   8.494   0.836 -1.9034 -1.4498  2.3924
  160MOL0     H21586  11.079   8.586   0.962  2.1171 -1.8868  2.9025
  160MOL0     H21587  10.852   8.622   0.939  0.5545  0.9998 -1.3750
  160MOL0     H21588  10.638   8.659   1.005  1.3256 -0.7501 -1.0572
  160MOL0     H21589  10.681   8.779   0.888  0.3085  0.7217  0.8923
  160MOL0     H21590  10.448   8.786   0.888 -0.6740  1.8664 -0.6031
  160MOL0     H21591  10.499   8.931   0.971  1.6255  0.8174  2.0121
  160MOL0     H21592  10.460   8.786   1.185 -0.0339 -1.0759 -0.0524
  160MOL0     H21593  10.374   8.678   1.079 -1.2854  0.2839  1.9404
  160MOL0     H21594  10.212   8.848   1.166 -2.7318  1.3228 -1.3760
  160MOL0     H21595  10.280   8.971   1.072  1.8717  1.3974  1.3655
  160MOL0     H21596  10.101   8.780   0.751  0.4117 -1.6216 -0.2811
  160MOL0     H21597  10.871   8.917   1.249  0.9296  0.4082 -0.0235
  160MOL0     H21598  11.189   8.850   1.397 -0.0638  1.5281  1.1957
  160MOL0     H21599  11.221   8.962   1.258  0.2580  0.4177  0.7299
  160MOL0     H21600  11.074   8.967   1.371  1.5597  2.7894  0.1138
  161MOL0     O21601   4.777  10.870   6.511 -0.3364 -0.1617  0.1774
  161MOL0     C21602   4.736  10.817   6.408  1.4789  0.4988 -0.2297
  161MOL0     O21603   4.794  10.826   6.284  0.8637 -0.6060  0.0594
  161MOL0     C21604   4.906  10.907   6.281  0.8025 -0.1385  0.8670
  161MOL0     C21605   5.030  10.839   6.250  0.5781  0.0281 -0.4859
  161MOL0     C21606   5.146  10.914   6.239  0.0748  0.6633  0.3084
  161MOL0     C21607   5.131  11.053   6.237 -0.6605  0.3401  0.4577
  161MOL0     O21608   5.226  11.144   6.225 -0.5657  0.1453 -1.3316
  161MOL0     C21609   5.314  11.139   6.113 -1.1581  1.5280 -0.2541
  161MOL0     C21610   5.305  11.277   6.051 -0.4567 -0.1316  0.2435
  161MOL0     C21611   5.183  11.303   5.960 -0.7690  0.4261  0.2187
  161MOL0     C21612   5.196  11.427   5.870 -0.3242  0.7345 -0.0017
  161MOL0     C21613   5.069  11.437   5.792  0.8082  0.0410 -0.1349
  161MOL0     C21614   5.081  11.348   5.663 -0.2810  0.4549 -0.1926
  161MOL0     C21615   5.109  11.428   5.531 -0.6335 -0.0551  0.0199
  161MOL0     C21616   5.180  11.333   5.432  0.1795 -0.8617 -0.1974
  161MOL0     N21617   5.212  11.405   5.312 -0.3542  0.0584  0.5445
  161MOL0     C21618   5.323  11.486   5.293  0.1825 -0.5076  0.7021
  161MOL0     C21619   5.303  11.535   5.172  0.4564  0.2896  0.6071
  161MOL0     C21620   5.382  11.641   5.092 -0.0666  0.1111 -0.1394
  161MOL0     C21621   5.530  11.595   5.076  0.3109  0.1591  0.2588
  161MOL0     C21622   5.553  11.523   4.943 -0.5834 -0.4145 -0.2030
  161MOL0     C21623   5.628  11.391   4.951 -0.2979 -0.0625  0.1963
  161MOL0     O21624   5.679  11.351   4.817  0.4078 -0.9684  0.4017
  161MOL0     C21625   5.814  11.306   4.826 -0.2028 -0.1288 -1.0477
  161MOL0     C21626   5.858  11.205   4.912 -0.2972 -0.5840 -0.6877
  161MOL0     C21627   5.991  11.160   4.899  0.5355 -0.0381 -0.4083
  161MOL0     C21628   6.088  11.244   4.839 -0.4285  0.4700  0.4207
  161MOL0     C21629   6.235  11.215   4.863 -0.7480 -0.0132  0.7028
  161MOL0     O21630   6.325  11.292   4.795  0.0962  0.1701  0.4715
  161MOL0     C21631   6.455  11.266   4.776 -0.5610  0.6331 -0.4810
  161MOL0     C21632   6.517  11.323   4.665  1.4651  0.4302 -0.2417
  161MOL0     C21633   6.652  11.320   4.648 -0.3999 -0.0044  0.8073
  161MOL0     C21634   6.728  11.240   4.735 -1.4643 -0.3533  0.6538
  161MOL0     O21635   6.862  11.236   4.712 -0.4307 -0.1211  1.0971
  161MOL0     C21636   6.958  11.178   4.798  0.1988  0.2494  0.3527
  161MOL0     C21637   7.106  11.168   4.744 -0.6636  0.5267  1.0532
  161MOL0     C21638   7.180  11.301   4.720 -0.1218 -0.1926 -0.2738
  161MOL0     C21639   7.202  11.373   4.855 -0.6387 -0.1756  0.5191
  161MOL0     C21640   7.274  11.508   4.836 -0.4518  0.3982 -1.2289
  161MOL0     C21641   7.183  11.620   4.779 -0.8758 -0.1253  0.8175
  161MOL0     C21642   7.050  11.671   4.846 -1.1401  0.5595  0.7797
  161MOL0     C21643   7.032  11.818   4.821  0.0669 -0.5862  0.6806
  161MOL0    Cl21644   7.049  11.846   4.648 -0.0161  0.1937  0.2200
  161MOL0     C21645   6.667  11.186   4.853  0.0189 -0.0712 -0.2796
  161MOL0     C21646   6.535  11.196   4.867  0.2960  0.3782 -0.9767
  161MOL0     O21647   6.262  11.109   4.922  0.2952 -0.6055 -0.4822
  161MOL0     C21648   6.052  11.356   4.774  0.9659  0.4315  0.2800
  161MOL0     C21649   5.915  11.388   4.761 -0.6063 -0.0716 -0.6164
  161MOL0     N21650   5.197  11.473   5.111 -0.0436  0.3857 -0.1476
  161MOL0     N21651   5.146  11.385   5.192 -0.6922  0.1274  0.1250
  161MOL0     C21652   5.015  11.118   6.272 -0.9403  0.6580 -0.3660
  161MOL0     C21653   4.902  11.046   6.290 -0.6645 -0.2631 -0.8576
  161MOL0     C21654   4.619  10.725   6.422  1.0022 -0.0281 -0.2981
  161MOL0     C21655   4.584  10.661   6.301 -0.6704  0.5398 -0.5519
  161MOL0     C21656   4.481  10.562   6.303 -0.2839  0.0345  0.1829
  161MOL0     C21657   4.412  10.534   6.418  0.1759 -0.0419  0.1275
  161MOL0     O21658   4.299  10.441   6.428  0.2435 -0.6492 -0.3672
  161MOL0     C21659   4.200  10.422   6.320  0.1020  0.0349 -0.2514
  161MOL0     C21660   4.115  10.544   6.298  0.4569 -0.2194  0.6749
  161MOL0     C21661   4.069  10.615   6.427  0.4388  0.1878  0.7910
  161MOL0     C21662   3.958  10.729   6.409  0.0287  0.1634  0.3127
  161MOL0     C21663   4.000  10.850   6.327  1.3381 -0.2340  0.4490
  161MOL0     C21664   4.037  10.962   6.292  0.1810  0.3724  0.4698
  161MOL0     C21665   4.450  10.603   6.543 -0.7676  0.4154 -0.1099
  161MOL0     C21666   4.553  10.695   6.540 -0.2908  0.9558  0.1184
  161MOL0     C21667   4.582  10.757   6.678 -0.5806  0.0684 -0.1628
  161MOL0     H21668   5.021  10.731   6.236  0.3230 -0.0039 -0.0854
  161MOL0     H21669   5.245  10.870   6.224  1.0100  2.5964  0.5967
  161MOL0     H21670   5.412  11.117   6.156 -2.4622 -0.5586  1.9333
  161MOL0     H21671   5.296  11.062   6.037 -0.6292  1.8354 -0.6928
  161MOL0     H21672   5.400  11.292   5.999  0.4620  2.9244  2.5284
  161MOL0     H21673   5.303  11.356   6.127  0.4337  0.4462 -0.3001
  161MOL0     H21674   5.092  11.295   6.020 -0.0984 -0.0669  1.1946
  161MOL0     H21675   5.176  11.218   5.891 -2.4091  1.1798 -0.5935
  161MOL0     H21676   5.213  11.513   5.936  1.0420  0.0040  0.6198
  161MOL0     H21677   5.284  11.406   5.808 -0.5646  0.9019 -0.4058
  161MOL0     H21678   4.988  11.400   5.855  0.1379 -0.1486 -1.0779
  161MOL0     H21679   5.040  11.539   5.764 -1.7295 -0.2416  1.1285
  161MOL0     H21680   5.153  11.269   5.682 -0.9124 -0.2097 -0.5248
  161MOL0     H21681   4.993  11.288   5.639 -1.1169  1.2663  0.7635
  161MOL0     H21682   5.164  11.522   5.532 -0.3838 -0.2015  1.2724
  161MOL0     H21683   5.014  11.436   5.477 -0.7404  1.5641  0.3831
  161MOL0     H21684   5.276  11.308   5.478  1.1335 -1.0584 -2.1860
  161MOL0     H21685   5.116  11.246   5.414 -1.3673 -0.3897  2.4154
  161MOL0     H21686   5.407  11.495   5.361 -0.6738  2.1265  1.5205
  161MOL0     H21687   5.328  11.670   5.001 -0.2639 -1.1281 -0.4303
  161MOL0     H21688   5.387  11.729   5.157 -3.8790  0.8772 -0.6640
  161MOL0     H21689   5.607  11.671   5.090  1.8949 -1.2811 -0.2958
  161MOL0     H21690   5.543  11.515   5.150  0.2499 -0.8770 -0.8233
  161MOL0     H21691   5.610  11.592   4.879 -1.0239 -1.9132 -2.3177
  161MOL0     H21692   5.456  11.506   4.896 -0.9220 -0.4437  0.4952
  161MOL0     H21693   5.567  11.308   4.985 -0.8242  0.1372 -0.2468
  161MOL0     H21694   5.712  11.406   5.020 -1.2325 -0.0832  1.3577
  161MOL0     H21695   5.787  11.148   4.970 -1.2536  0.3461 -0.9207
  161MOL0     H21696   6.008  11.080   4.970 -1.2604 -0.3251 -0.2375
  161MOL0     H21697   6.443  11.371   4.601  1.1313  1.9803  1.2481
  161MOL0     H21698   6.692  11.376   4.564  0.3859  2.6074  2.7936
  161MOL0     H21699   6.969  11.221   4.898 -1.1367 -1.7439  1.4200
  161MOL0     H21700   6.930  11.074   4.815 -2.5953  1.1137  1.6973
  161MOL0     H21701   7.161  11.100   4.810 -1.4432  0.9968  2.2369
  161MOL0     H21702   7.092  11.110   4.653  0.1244  0.2092  1.1265
  161MOL0     H21703   7.281  11.276   4.686  0.6478  0.0356  1.7106
  161MOL0     H21704   7.147  11.366   4.639 -0.7633  1.0602  0.9369
  161MOL0     H21705   7.244  11.311   4.935 -0.1870 -2.5695 -1.4379
  161MOL0     H21706   7.101  11.393   4.890 -0.3808  4.4498 -0.7052
  161MOL0     H21707   7.357  11.484   4.769 -1.0471 -4.3362 -0.6087
  161MOL0     H21708   7.313  11.544   4.932 -2.1248 -0.5321 -0.1446
  161MOL0     H21709   7.252  11.699   4.746 -0.4605 -1.6982 -2.5814
  161MOL0     H21710   7.151  11.584   4.681 -0.4991  0.4529  0.4718
  161MOL0     H21711   7.040  11.653   4.954 -2.3460  0.5204  0.6713
  161MOL0     H21712   6.969  11.609   4.807 -1.2846  1.5496 -0.5705
  161MOL0     H21713   6.949  11.869   4.871  0.4680  1.0582 -0.2468
  161MOL0     H21714   7.119  11.870   4.862 -0.5737 -0.7325  2.3140
  161MOL0     H21715   6.733  11.133   4.920  0.2067  0.4616 -0.0340
  161MOL0     H21716   6.483  11.158   4.955 -3.3393  2.0550 -2.1862
  161MOL0     H21717   6.130  11.420   4.734  2.2516 -0.5184  1.1434
  161MOL0     H21718   5.871  11.478   4.720 -1.7503 -1.1264 -1.7975
  161MOL0     H21719   5.032  11.221   6.301  2.0095 -0.1464  1.1970
  161MOL0     H21720   4.806  11.091   6.316 -0.1265 -0.6788  2.2706
  161MOL0     H21721   4.634  10.679   6.206 -0.2584  1.5769 -0.1492
  161MOL0     H21722   4.457  10.512   6.210  0.2742 -2.7984  1.4597
  161MOL0     H21723   4.126  10.345   6.341 -0.0862  0.6874  1.6683
  161MOL0     H21724   4.245  10.408   6.221 -2.5422 -1.1730 -1.3789
  161MOL0     H21725   4.030  10.520   6.233  0.8416 -4.1800  1.3838
  161MOL0     H21726   4.174  10.618   6.243 -1.1347  1.0688  0.5859
  161MOL0     H21727   4.151  10.637   6.496  1.9979 -2.1238 -0.2031
  161MOL0     H21728   4.019  10.530   6.474  1.2686 -1.3581 -0.9968
  161MOL0     H21729   3.880  10.672   6.359  1.9073 -2.1297 -0.1796
  161MOL0     H21730   3.914  10.761   6.504 -0.2621 -0.2621  0.3217
  161MOL0     H21731   4.050  11.064   6.263 -3.8849  1.1169  0.6477
  161MOL0     H21732   4.390  10.583   6.631 -1.0434  0.3794 -0.3059
  161MOL0     H21733   4.559  10.864   6.681  0.8636  0.3915  1.6480
  161MOL0     H21734   4.525  10.718   6.763  3.1505 -1.0866  2.0334
  161MOL0     H21735   4.685  10.728   6.702 -0.8095  0.3006  1.1651
  162MOL0     O21736   3.443   8.633   2.417  0.1028 -0.5864  1.0105
  162MOL0     C21737   3.351   8.709   2.381  0.1724 -0.8338 -0.9102
  162MOL0     O21738   3.377   8.829   2.326 -0.2574 -1.5670  0.4775
  162MOL0     C21739   3.506   8.871   2.337  1.0804  0.4637 -0.2445
  162MOL0     C21740   3.575   8.935   2.453 -0.0598 -0.1959 -0.1619
  162MOL0     C21741   3.711   8.975   2.439  0.3373  0.2890  0.2193
  162MOL0     C21742   3.781   8.950   2.327  0.6648  0.4719  0.8569
  162MOL0     O21743   3.911   8.977   2.339 -0.4458 -0.2687 -0.0284
  162MOL0     C21744   4.006   8.989   2.231  0.2015  0.2834 -0.5862
  162MOL0     C21745   4.067   9.129   2.223 -0.1501  0.2734 -0.2788
  162MOL0     C21746   4.107   9.197   2.356 -0.4070  0.1714 -0.0380
  162MOL0     C21747   4.223   9.100   2.418 -0.2655 -0.1514 -0.4531
  162MOL0     C21748   4.278   9.179   2.543 -0.6141  0.5491  0.2166
  162MOL0     C21749   4.390   9.272   2.499  0.4355 -0.2905  0.4295
  162MOL0     C21750   4.436   9.350   2.629  0.2608 -0.4020  0.7539
  162MOL0     C21751   4.505   9.280   2.741 -0.2092  0.2898  0.1425
  162MOL0     N21752   4.562   9.361   2.849  0.0751  0.3537 -0.6380
  162MOL0     C21753   4.630   9.481   2.839 -0.4912 -0.3022 -0.1837
  162MOL0     C21754   4.650   9.530   2.966  1.0073  0.2734  1.2416
  162MOL0     C21755   4.708   9.662   3.009 -0.3102  0.6874 -0.9189
  162MOL0     C21756   4.851   9.632   3.051 -1.5441  1.0272 -0.9419
  162MOL0     C21757   4.914   9.774   3.077 -0.7423  0.1079  0.6788
  162MOL0     C21758   5.057   9.767   3.118 -0.5715  0.9613 -0.3642
  162MOL0     O21759   5.134   9.699   3.015 -0.0118 -0.3427 -0.0618
  162MOL0     C21760   5.246   9.758   2.974 -0.4140  0.3178  0.6497
  162MOL0     C21761   5.368   9.708   3.002 -0.7611 -0.1297  0.1743
  162MOL0     C21762   5.488   9.753   2.957 -0.1754 -0.4663  0.1474
  162MOL0     C21763   5.476   9.877   2.880 -0.4305  0.3419 -0.9310
  162MOL0     C21764   5.604   9.947   2.855 -0.4853 -0.4187 -0.8761
  162MOL0     O21765   5.726   9.886   2.890  0.2924 -0.0517 -0.2279
  162MOL0     C21766   5.846   9.944   2.867  0.4341  0.1053  0.0750
  162MOL0     C21767   5.864  10.033   2.757 -0.4489  0.8381 -0.4720
  162MOL0     C21768   5.998  10.085   2.741  0.2436  0.6981 -0.2432
  162MOL0     C21769   6.100  10.076   2.846 -0.6497  0.0538 -0.7449
  162MOL0     O21770   6.224  10.125   2.838  0.0701  1.1492  0.4316
  162MOL0     C21771   6.248  10.219   2.739 -0.6778 -0.5389  1.6745
  162MOL0     C21772   6.387  10.276   2.768 -0.6526 -0.7855  0.3084
  162MOL0     C21773   6.501  10.190   2.718  0.2081  0.7738  0.4161
  162MOL0     C21774   6.621  10.217   2.808 -0.9705 -0.1540  0.6538
  162MOL0     C21775   6.676  10.363   2.803  0.0750  0.6673 -0.7781
  162MOL0     C21776   6.806  10.386   2.888  0.3330  0.7770  0.6725
  162MOL0     C21777   6.802  10.332   3.029  0.5847 -0.4733 -0.8224
  162MOL0     C21778   6.914  10.374   3.126  0.3899  0.4972  0.0613
  162MOL0    Cl21779   6.905  10.265   3.265 -0.0950 -0.1788 -0.0167
  162MOL0     C21780   6.064   9.993   2.957  1.3617  0.0138 -0.9662
  162MOL0     C21781   5.951   9.921   2.957  0.8763 -0.7380 -0.2694
  162MOL0     O21782   5.593  10.066   2.817  0.2114 -0.0781  0.4231
  162MOL0     C21783   5.347   9.925   2.850  1.0416 -0.7179  0.4647
  162MOL0     C21784   5.234   9.865   2.890 -0.0132  1.4057 -0.3089
  162MOL0     N21785   4.590   9.434   3.053 -0.7867 -0.6367  0.3584
  162MOL0     N21786   4.539   9.335   2.981  0.8372  0.6161 -0.2357
  162MOL0     C21787   3.716   8.887   2.223  0.1112 -0.2503  0.6347
  162MOL0     C21788   3.586   8.854   2.224  0.4307 -0.0676 -0.8769
  162MOL0     C21789   3.202   8.671   2.389 -0.0489  1.6981  0.8950
  162MOL0     C21790   3.111   8.768   2.347  0.5221  0.3541 -0.0786
  162MOL0     C21791   2.971   8.752   2.359  0.3149  0.2108  0.4096
  162MOL0     C21792   2.924   8.631   2.415  0.6847  0.4587 -0.7184
  162MOL0     O21793   2.784   8.613   2.427  0.8398  0.5846 -0.2342
  162MOL0     C21794   2.708   8.539   2.330 -0.1809 -0.0311 -0.4383
  162MOL0     C21795   2.571   8.506   2.381 -0.2420  0.2856  0.3917
  162MOL0     C21796   2.502   8.628   2.431 -0.5284 -0.0945 -0.8975
  162MOL0     C21797   2.377   8.578   2.507  0.0631 -0.4642  0.3433
  162MOL0     C21798   2.279   8.690   2.518 -0.0874 -0.0359 -0.3741
  162MOL0     C21799   2.194   8.778   2.520  0.5494  1.0261 -0.7239
  162MOL0     C21800   3.015   8.532   2.454 -0.1189  0.1524  0.3675
  162MOL0     C21801   3.150   8.543   2.434 -0.4317 -0.1670  0.8444
  162MOL0     C21802   3.228   8.428   2.477 -0.2412  0.4504  0.0736
  162MOL0     H21803   3.509   8.957   2.536  0.8447 -1.7308  1.0038
  162MOL0     H21804   3.751   9.033   2.522  1.0355 -1.1285  0.9016
  162MOL0     H21805   4.094   8.925   2.238  0.0686 -0.0561 -1.7538
  162MOL0     H21806   3.960   8.962   2.135 -1.9104  0.1177  0.4322
  162MOL0     H21807   4.002   9.196   2.165  0.5563  0.9044 -0.3577
  162MOL0     H21808   4.165   9.132   2.174  1.3565  0.5530  2.5469
  162MOL0     H21809   4.014   9.199   2.413 -0.9215 -2.1541 -0.6864
  162MOL0     H21810   4.150   9.297   2.345  1.7578 -0.8104 -1.1288
  162MOL0     H21811   4.177   9.004   2.443 -0.5636  0.8584  3.6035
  162MOL0     H21812   4.292   9.090   2.334 -1.0298  1.1479 -1.2711
  162MOL0     H21813   4.202   9.233   2.601 -0.5929 -0.9887  1.7568
  162MOL0     H21814   4.329   9.108   2.609  1.9840  0.4454 -1.7835
  162MOL0     H21815   4.464   9.230   2.431 -2.2031 -2.6687 -1.1828
  162MOL0     H21816   4.339   9.338   2.427  1.8842  0.7148  0.2946
  162MOL0     H21817   4.340   9.382   2.670  0.2812 -0.0253  0.5126
  162MOL0     H21818   4.487   9.444   2.604 -0.1171 -0.1923  0.7524
  162MOL0     H21819   4.430   9.223   2.797 -0.7629  0.8757  0.0048
  162MOL0     H21820   4.573   9.205   2.700 -0.5495 -1.2509  2.2408
  162MOL0     H21821   4.644   9.530   2.743 -1.6983  0.7101  0.1258
  162MOL0     H21822   4.702   9.742   2.935  0.5204  1.7897  0.1683
  162MOL0     H21823   4.655   9.698   3.098  2.3399 -1.0397  1.5518
  162MOL0     H21824   4.855   9.586   3.151 -0.7940  0.4990 -1.2153
  162MOL0     H21825   4.896   9.569   2.975 -1.4317 -1.5052  1.0930
  162MOL0     H21826   4.859   9.811   3.165 -0.7178 -0.5020  0.9581
  162MOL0     H21827   4.897   9.838   2.990  3.8573 -0.1794 -0.6669
  162MOL0     H21828   5.070   9.714   3.213  1.6725 -0.2425 -1.2677
  162MOL0     H21829   5.100   9.867   3.133  2.6037 -0.2482 -0.6125
  162MOL0     H21830   5.372   9.623   3.069 -0.5036 -0.7630 -0.6355
  162MOL0     H21831   5.579   9.698   2.979  0.7410  0.2067 -1.7128
  162MOL0     H21832   5.784  10.056   2.688 -0.2090  1.4756 -0.5505
  162MOL0     H21833   6.018  10.137   2.648  1.9221  0.2534 -0.1704
  162MOL0     H21834   6.231  10.194   2.634 -2.2035  0.6561  1.6011
  162MOL0     H21835   6.183  10.304   2.759  3.7858  4.2480 -1.5935
  162MOL0     H21836   6.392  10.376   2.725 -1.0934 -0.9183 -0.0569
  162MOL0     H21837   6.400  10.294   2.875  3.8849 -1.6370  0.1281
  162MOL0     H21838   6.477  10.085   2.737  0.2663  0.1020 -2.7032
  162MOL0     H21839   6.518  10.195   2.610 -2.2853  0.6316 -0.0346
  162MOL0     H21840   6.708  10.161   2.773  0.9321  3.2080 -0.5270
  162MOL0     H21841   6.599  10.191   2.912  1.0694 -1.0913  0.9090
  162MOL0     H21842   6.602  10.436   2.837 -1.9213  0.2341 -3.7513
  162MOL0     H21843   6.691  10.398   2.701  0.4875  1.9501 -0.2945
  162MOL0     H21844   6.901  10.345   2.852  0.6950  0.4474  1.9559
  162MOL0     H21845   6.824  10.493   2.897  1.5373  0.7657 -1.0121
  162MOL0     H21846   6.790  10.224   3.032 -3.4451 -0.1685  0.5175
  162MOL0     H21847   6.713  10.370   3.080  0.8524  0.6077 -1.1312
  162MOL0     H21848   7.004  10.344   3.071 -0.2950 -0.1748 -0.7379
  162MOL0     H21849   6.906  10.477   3.161 -0.4270 -0.2679  2.2631
  162MOL0     H21850   6.139   9.966   3.031  0.6055 -2.0788 -0.9078
  162MOL0     H21851   5.945   9.841   3.030  1.4903  0.9641  1.7272
  162MOL0     H21852   5.315  10.013   2.796 -1.0161  0.9069  3.9389
  162MOL0     H21853   5.137   9.905   2.865 -1.0888  0.5061  2.0487
  162MOL0     H21854   3.773   8.861   2.135  2.5381  0.6213  1.8547
  162MOL0     H21855   3.550   8.811   2.131  0.0933 -1.1857 -0.2483
  162MOL0     H21856   3.142   8.869   2.323 -1.3383  0.8100 -0.7580
  162MOL0     H21857   2.906   8.837   2.340  2.3915  2.1680  1.4737
  162MOL0     H21858   2.757   8.443   2.309  0.7000 -0.2818  2.3588
  162MOL0     H21859   2.705   8.588   2.232 -1.4375 -0.8765 -0.8442
  162MOL0     H21860   2.577   8.436   2.464  0.2155 -0.0091  0.1138
  162MOL0     H21861   2.506   8.473   2.299  1.3762  0.6911 -1.1184
  162MOL0     H21862   2.481   8.695   2.347  1.0500  1.8570  0.1717
  162MOL0     H21863   2.565   8.674   2.507 -1.5579 -4.3805  3.0183
  162MOL0     H21864   2.339   8.485   2.464  0.3732 -0.3119 -0.2750
  162MOL0     H21865   2.414   8.531   2.598  1.5663 -3.4999 -1.6672
  162MOL0     H21866   2.107   8.842   2.518 -1.6704 -1.7478  0.2447
  162MOL0     H21867   2.963   8.450   2.502 -1.0795  1.6677  2.0412
  162MOL0     H21868   3.167   8.338   2.486  0.0833 -0.0868 -2.2358
  162MOL0     H21869   3.301   8.393   2.403 -1.4334 -0.3281 -0.7850
  162MOL0     H21870   3.277   8.450   2.572 -1.4814  0.9624  0.6122
  163MOL0     O21871   6.224   7.966   3.393 -0.1587 -0.7341 -0.1099
  163MOL0     C21872   6.152   7.894   3.324  0.0072 -0.2975  0.5412
  163MOL0     O21873   6.051   7.939   3.241 -0.1652 -0.7340 -0.0629
  163MOL0     C21874   6.015   8.068   3.231  0.1260 -1.2412 -0.2552
  163MOL0     C21875   5.886   8.100   3.165 -0.8397 -0.1068  0.4423
  163MOL0     C21876   5.848   8.234   3.131  0.8667  0.4159  0.4998
  163MOL0     C21877   5.934   8.338   3.168  0.0075 -0.6567 -0.2738
  163MOL0     O21878   5.904   8.464   3.142 -0.6399  0.9375  0.7495
  163MOL0     C21879   5.788   8.515   3.206 -0.0571 -0.2546  0.6578
  163MOL0     C21880   5.680   8.525   3.093 -0.9893  0.3101 -0.4770
  163MOL0     C21881   5.677   8.672   3.041  0.7246  0.6593  0.1182
  163MOL0     C21882   5.583   8.766   3.118 -0.1366  0.0103  0.3857
  163MOL0     C21883   5.438   8.714   3.124  0.9888 -0.2335 -0.0301
  163MOL0     C21884   5.356   8.804   3.210 -0.0404  0.6500 -0.3797
  163MOL0     C21885   5.218   8.750   3.205  0.0321  0.5293  0.7350
  163MOL0     C21886   5.123   8.813   3.301  1.3180 -0.0968 -0.4595
  163MOL0     N21887   5.003   8.724   3.317  0.3481 -0.3051 -0.0355
  163MOL0     C21888   4.873   8.763   3.279 -0.1793  0.0642 -0.1715
  163MOL0     C21889   4.794   8.674   3.351 -0.0303  0.4994 -0.4536
  163MOL0     C21890   4.646   8.682   3.376  0.3183  0.8556  0.0136
  163MOL0     C21891   4.568   8.706   3.246 -0.6503  0.1634  0.1242
  163MOL0     C21892   4.420   8.742   3.270 -0.3818 -0.1432  0.1623
  163MOL0     C21893   4.371   8.885   3.288 -0.9548 -0.8427 -1.4561
  163MOL0     O21894   4.355   8.952   3.165  0.1169  0.1924  0.0314
  163MOL0     C21895   4.232   8.963   3.100 -0.0545 -0.7878 -0.0794
  163MOL0     C21896   4.227   9.068   3.008 -0.1137 -0.7807 -0.1480
  163MOL0     C21897   4.122   9.071   2.919 -0.5437 -0.0666  0.0988
  163MOL0     C21898   4.013   8.974   2.923  0.6970 -0.9997 -1.1987
  163MOL0     C21899   3.909   8.965   2.828 -0.4790  0.6908  0.7356
  163MOL0     O21900   3.818   8.868   2.844  0.2956 -0.8496  0.3461
  163MOL0     C21901   3.684   8.888   2.826 -0.2227 -0.4164 -0.4494
  163MOL0     C21902   3.617   9.015   2.825  0.0674  0.1774  0.3868
  163MOL0     C21903   3.474   9.017   2.794 -0.3849  0.6889 -0.7941
  163MOL0     C21904   3.403   8.903   2.767  0.2337  0.3879  0.4555
  163MOL0     O21905   3.278   8.919   2.715 -0.1711 -0.5899  0.1184
  163MOL0     C21906   3.180   8.831   2.762 -1.0000  0.1398 -0.2959
  163MOL0     C21907   3.163   8.844   2.907  0.2359  0.6279 -0.1027
  163MOL0     C21908   3.093   8.974   2.947  0.5304  0.5637 -1.0013
  163MOL0     C21909   3.068   8.974   3.101  0.2042  0.8472 -0.2281
  163MOL0     C21910   2.978   9.083   3.147  0.6745  0.4182 -0.9668
  163MOL0     C21911   2.926   9.062   3.296  1.1187  0.2856  0.6137
  163MOL0     C21912   2.816   8.955   3.317  0.0801  0.3458  0.1063
  163MOL0     C21913   2.681   9.012   3.285  0.0232  0.4745  0.1787
  163MOL0    Cl21914   2.644   9.139   3.407  0.1701 -0.2950  0.3817
  163MOL0     C21915   3.471   8.778   2.769 -0.4892  0.7325  0.0311
  163MOL0     C21916   3.605   8.771   2.803  0.0273 -0.2927 -0.0390
  163MOL0     O21917   3.907   9.047   2.738 -0.6945 -0.1068 -0.3660
  163MOL0     C21918   4.026   8.876   3.017  0.2176 -0.0142 -1.2574
  163MOL0     C21919   4.136   8.865   3.101 -0.6216 -0.0107 -1.2676
  163MOL0     N21920   4.881   8.585   3.424  0.2992 -0.0895 -0.2754
  163MOL0     N21921   5.001   8.611   3.392  0.3115  0.0125  0.0202
  163MOL0     C21922   6.054   8.310   3.233 -0.2018 -0.4919  0.2969
  163MOL0     C21923   6.091   8.178   3.257 -0.2140  0.1384  0.4246
  163MOL0     C21924   6.179   7.757   3.332  0.5167  0.6915  0.4104
  163MOL0     C21925   6.206   7.689   3.210  0.2915 -0.2682 -1.4321
  163MOL0     C21926   6.253   7.557   3.220 -0.2126 -0.4947  0.0625
  163MOL0     C21927   6.262   7.488   3.342 -0.7278 -0.0535 -0.2211
  163MOL0     O21928   6.320   7.368   3.374  0.5909  0.9844  0.6220
  163MOL0     C21929   6.349   7.275   3.266  0.1413 -0.3987 -0.3664
  163MOL0     C21930   6.421   7.154   3.323 -0.2444 -0.4312  0.4546
  163MOL0     C21931   6.337   7.053   3.411 -0.3812  0.3505  0.5648
  163MOL0     C21932   6.307   7.112   3.550  0.1676  0.4784  0.1844
  163MOL0     C21933   6.232   7.018   3.633 -0.1732  0.6020 -0.1736
  163MOL0     C21934   6.164   6.964   3.718  0.0450 -0.1207 -0.0470
  163MOL0     C21935   6.238   7.556   3.459 -0.7424  0.5288 -0.6466
  163MOL0     C21936   6.204   7.696   3.452  0.8702 -0.1044  0.3372
  163MOL0     C21937   6.182   7.768   3.586 -0.8874  0.7416  0.1914
  163MOL0     H21938   5.818   8.019   3.140 -1.0003  0.0289  0.4372
  163MOL0     H21939   5.753   8.251   3.080  1.6477  0.6913 -0.9162
  163MOL0     H21940   5.746   8.469   3.296  0.8720  1.8656  2.2845
  163MOL0     H21941   5.811   8.618   3.236  0.2613 -0.2939  0.5477
  163MOL0     H21942   5.592   8.504   3.154  0.3761  2.9411  2.6809
  163MOL0     H21943   5.705   8.448   3.019 -0.5980 -1.8692  1.7736
  163MOL0     H21944   5.646   8.669   2.936 -0.6758  4.1056  0.2984
  163MOL0     H21945   5.776   8.718   3.031  0.6529  1.3802  2.2429
  163MOL0     H21946   5.618   8.769   3.221 -1.3162  2.4871  0.7998
  163MOL0     H21947   5.596   8.870   3.085 -1.8380  0.0916 -0.1478
  163MOL0     H21948   5.394   8.716   3.024  0.8184  2.6828  0.0323
  163MOL0     H21949   5.421   8.611   3.159 -3.1610 -0.4391 -2.0309
  163MOL0     H21950   5.388   8.801   3.315  1.0923  0.6177 -0.7136
  163MOL0     H21951   5.355   8.909   3.182  0.3174  1.8479  3.5225
  163MOL0     H21952   5.214   8.642   3.219  0.1691  0.5513  0.9546
  163MOL0     H21953   5.182   8.774   3.105  0.4339 -1.1964  0.1584
  163MOL0     H21954   5.165   8.824   3.402  1.1924 -0.6088 -0.3520
  163MOL0     H21955   5.086   8.910   3.265  3.1676  0.8107 -0.0809
  163MOL0     H21956   4.839   8.854   3.230  3.6201  1.6998 -0.0997
  163MOL0     H21957   4.621   8.584   3.417 -0.2736  1.0676  0.1613
  163MOL0     H21958   4.623   8.760   3.450 -3.7410 -0.9854  0.9346
  163MOL0     H21959   4.613   8.791   3.194  0.6355  1.3963  3.0066
  163MOL0     H21960   4.567   8.613   3.189 -0.2340  1.3572 -1.9151
  163MOL0     H21961   4.391   8.685   3.359 -3.3095  0.5093 -0.2591
  163MOL0     H21962   4.361   8.696   3.190 -0.0453 -0.8168  0.2938
  163MOL0     H21963   4.457   8.925   3.342 -1.5942 -0.1768 -0.9210
  163MOL0     H21964   4.285   8.904   3.353 -0.5205 -3.0160 -0.1578
  163MOL0     H21965   4.291   9.155   3.002 -2.0216  0.6198 -1.7341
  163MOL0     H21966   4.112   9.142   2.837  1.2336  2.3847  1.8564
  163MOL0     H21967   3.669   9.109   2.837 -0.1040  0.2193  0.8251
  163MOL0     H21968   3.411   9.106   2.788  2.9087  3.2720  0.0009
  163MOL0     H21969   3.088   8.875   2.722 -0.4134  1.6989 -0.0303
  163MOL0     H21970   3.208   8.731   2.727  2.0223  0.4677  0.8206
  163MOL0     H21971   3.101   8.758   2.934 -1.7150  1.9529 -0.1980
  163MOL0     H21972   3.256   8.835   2.964  0.4016 -1.8485 -0.6476
  163MOL0     H21973   3.151   9.062   2.919  0.6570  0.3640 -1.3644
  163MOL0     H21974   2.994   8.979   2.901 -0.6697  0.4397  1.4386
  163MOL0     H21975   3.152   8.996   3.168 -0.3473  2.5319 -0.0539
  163MOL0     H21976   3.040   8.871   3.126  0.3590  0.0385 -3.0038
  163MOL0     H21977   2.889   9.109   3.089 -0.1793  0.5140  0.3603
  163MOL0     H21978   3.032   9.179   3.151 -0.0337  0.7765  2.4588
  163MOL0     H21979   3.006   9.031   3.364  0.8468 -1.9114  0.0246
  163MOL0     H21980   2.889   9.158   3.333 -1.7562 -1.1429  1.7414
  163MOL0     H21981   2.814   8.923   3.422 -1.9157  1.9387  0.6234
  163MOL0     H21982   2.839   8.868   3.255 -0.5225  0.0846  0.2397
  163MOL0     H21983   2.679   9.051   3.183  1.2025  2.0718  0.7385
  163MOL0     H21984   2.604   8.935   3.302  1.4782 -1.5621 -1.8542
  163MOL0     H21985   3.416   8.694   2.728  0.1806  1.1501 -1.8471
  163MOL0     H21986   3.653   8.674   2.793  0.1415 -0.1506 -0.8906
  163MOL0     H21987   3.948   8.801   3.028  1.1915 -1.0367 -1.1367
  163MOL0     H21988   4.146   8.787   3.176 -0.6871 -1.6946 -2.9238
  163MOL0     H21989   6.111   8.393   3.275 -0.2663 -0.4634  0.3293
  163MOL0     H21990   6.191   8.178   3.300 -0.2144  1.5083  0.4850
  163MOL0     H21991   6.199   7.744   3.117  1.6658 -0.4758 -1.6842
  163MOL0     H21992   6.284   7.511   3.127 -0.7311 -1.6100  0.4208
  163MOL0     H21993   6.410   7.330   3.193 -1.6892  1.2118 -0.7709
  163MOL0     H21994   6.248   7.252   3.231 -2.3509  2.9771  3.6346
  163MOL0     H21995   6.511   7.196   3.371 -0.6173  0.0467  0.7444
  163MOL0     H21996   6.458   7.097   3.237  0.6279  2.5785 -1.3221
  163MOL0     H21997   6.395   6.961   3.418  0.2135  0.7930  1.8249
  163MOL0     H21998   6.240   7.035   3.364  0.0237 -1.8155  0.4695
  163MOL0     H21999   6.403   7.125   3.600 -0.2206 -2.0947  1.7708
  163MOL0     H22000   6.246   7.202   3.538 -1.6083 -0.8338 -1.0150
  163MOL0     H22001   6.117   6.899   3.790  0.2955 -2.2346 -1.6702
  163MOL0     H22002   6.260   7.509   3.555  1.4995  0.2675 -1.2344
  163MOL0     H22003   6.277   7.823   3.595 -0.5094  0.1053  0.1603
  163MOL0     H22004   6.096   7.836   3.579 -2.5660 -1.3927 -1.1104
  163MOL0     H22005   6.178   7.691   3.663 -1.3255 -0.6002 -1.1263
  164MOL0     O22006  10.627   8.841   3.951 -0.2693  0.5358  0.1712
  164MOL0     C22007  10.653   8.950   4.003 -0.2443  0.9287 -0.0559
  164MOL0     O22008  10.772   9.011   4.005 -0.8788 -0.5016 -0.1876
  164MOL0     C22009  10.882   8.950   3.965 -0.8691 -0.2992  0.2037
  164MOL0     C22010  10.903   8.902   3.830  0.5508  0.3029  1.2036
  164MOL0     C22011  11.014   8.822   3.805 -0.5674 -0.2250  0.8146
  164MOL0     C22012  11.125   8.817   3.899 -0.6364  0.3202  0.1500
  164MOL0     O22013  11.254   8.784   3.867 -0.1034 -0.2513  0.5826
  164MOL0     C22014  11.280   8.684   3.766 -0.1970 -0.4638 -0.7705
  164MOL0     C22015  11.322   8.742   3.636  0.5291 -0.0607 -0.9531
  164MOL0     C22016  11.449   8.829   3.642 -0.0003 -0.1163  0.3394
  164MOL0     C22017  11.506   8.853   3.504 -0.4406 -0.1665 -0.5181
  164MOL0     C22018  11.635   8.940   3.515  1.2522  0.1727 -0.8591
  164MOL0     C22019  11.758   8.889   3.450  0.5612  0.0256 -0.5221
  164MOL0     C22020  11.876   8.985   3.451 -0.3395  0.1524 -0.3559
  164MOL0     C22021  12.004   8.914   3.388 -0.3772  0.1817 -0.1875
  164MOL0     N22022  12.095   9.011   3.334 -0.0823  0.0035  0.6470
  164MOL0     C22023  12.093   9.102   3.226 -0.2629 -0.6482  0.6601
  164MOL0     C22024  12.192   9.195   3.244 -0.0370  0.2700 -1.0771
  164MOL0     C22025  12.242   9.310   3.164 -0.9045  0.0300  0.0699
  164MOL0     C22026  12.148   9.422   3.167  0.1063 -0.6565  0.2026
  164MOL0     C22027  12.196   9.537   3.073  0.4934 -0.0525 -1.3058
  164MOL0     C22028  12.099   9.665   3.086 -0.9674  0.3848 -0.1836
  164MOL0     O22029  12.126   9.760   2.980  0.6002 -0.4630  0.5820
  164MOL0     C22030  12.079   9.886   2.998  0.0627  0.3410  0.1653
  164MOL0     C22031  11.977   9.918   3.095  0.5729  0.1577 -0.3559
  164MOL0     C22032  11.933  10.052   3.095 -0.4293 -0.6563 -0.0661
  164MOL0     C22033  11.988  10.154   3.015  0.7095 -0.5650 -0.4217
  164MOL0     C22034  11.944  10.296   3.012 -0.2686 -0.1941 -0.6379
  164MOL0     O22035  11.833  10.315   3.093 -0.6062 -0.0746 -0.2517
  164MOL0     C22036  11.760  10.432   3.074  1.1904 -0.1945  0.4276
  164MOL0     C22037  11.735  10.513   3.178 -0.5521  0.0511 -0.2142
  164MOL0     C22038  11.643  10.611   3.177  0.6658 -0.5000 -0.8128
  164MOL0     C22039  11.580  10.643   3.056  0.2927 -0.0786 -0.3623
  164MOL0     O22040  11.483  10.741   3.032 -0.2941  1.1419  0.5152
  164MOL0     C22041  11.481  10.857   3.109 -0.5202 -0.3527 -0.1469
  164MOL0     C22042  11.425  10.970   3.025 -0.2930 -0.0398 -1.3107
  164MOL0     C22043  11.457  11.103   3.093  0.5997  1.6052  0.2654
  164MOL0     C22044  11.419  11.223   2.996  0.1340 -0.1803  0.3202
  164MOL0     C22045  11.465  11.368   3.039  0.2980 -0.4653  0.2171
  164MOL0     C22046  11.392  11.486   2.978  0.2632  0.2733  0.0906
  164MOL0     C22047  11.457  11.624   3.018  0.2538  0.4091 -0.2207
  164MOL0     C22048  11.416  11.661   3.162 -0.2792 -0.5886 -0.6673
  164MOL0    Cl22049  11.242  11.678   3.174 -0.2151 -0.0929 -0.2642
  164MOL0     C22050  11.593  10.555   2.941 -0.8909 -1.0942  0.3573
  164MOL0     C22051  11.679  10.448   2.958  0.7016  0.6545 -0.5761
  164MOL0     O22052  12.002  10.387   2.954 -1.4411 -0.3179  0.7194
  164MOL0     C22053  12.086  10.116   2.917  0.2971 -0.6333  0.6947
  164MOL0     C22054  12.130   9.985   2.912 -0.0953 -0.1202 -0.0705
  164MOL0     N22055  12.258   9.148   3.356 -0.1383 -0.8444 -1.3518
  164MOL0     N22056  12.205   9.041   3.407 -0.7115  0.3707  0.3497
  164MOL0     C22057  11.096   8.866   4.029  0.2782  0.4930  0.4070
  164MOL0     C22058  10.977   8.925   4.064  0.2690  0.2846  0.4142
  164MOL0     C22059  10.547   9.015   4.078  0.5734 -0.0000 -0.8566
  164MOL0     C22060  10.580   9.066   4.212  0.0230  0.4153 -0.2120
  164MOL0     C22061  10.489   9.115   4.304  0.5055  0.5380 -0.3219
  164MOL0     C22062  10.353   9.107   4.268 -0.2190 -0.2012 -0.7659
  164MOL0     O22063  10.255   9.112   4.367 -0.4122  0.2247  0.3516
  164MOL0     C22064  10.260   9.189   4.484 -0.5539 -0.9369  0.3766
  164MOL0     C22065  10.114   9.218   4.541 -0.5002 -0.1933  0.8489
  164MOL0     C22066  10.013   9.215   4.434  0.2849  0.3183  1.5315
  164MOL0     C22067   9.870   9.254   4.472 -0.1533 -0.9435  0.3247
  164MOL0     C22068   9.789   9.162   4.548  0.7075 -0.2897  0.3235
  164MOL0     C22069   9.694   9.107   4.599 -0.0286  0.6812  0.4201
  164MOL0     C22070  10.315   9.067   4.139 -0.4028  0.6843 -0.3639
  164MOL0     C22071  10.412   9.022   4.045  0.2101 -0.2993 -0.1482
  164MOL0     C22072  10.360   8.973   3.914 -0.2650  0.4262 -0.5375
  164MOL0     H22073  10.818   8.919   3.764  0.1133 -0.4476  1.5592
  164MOL0     H22074  11.036   8.763   3.716  1.7014 -0.0366  1.1895
  164MOL0     H22075  11.356   8.620   3.812  0.4044  0.8497  0.1197
  164MOL0     H22076  11.198   8.613   3.748 -2.1817  1.0525  1.5987
  164MOL0     H22077  11.244   8.798   3.583 -1.4705 -1.6163  0.1887
  164MOL0     H22078  11.340   8.658   3.568 -0.4810  0.2099 -1.5882
  164MOL0     H22079  11.518   8.782   3.713 -1.8797  0.5027  2.6899
  164MOL0     H22080  11.425   8.930   3.676  2.2597  0.1156  1.4335
  164MOL0     H22081  11.523   8.754   3.461  0.0435 -1.7830  3.0302
  164MOL0     H22082  11.426   8.911   3.456 -0.5777  1.0132  1.0421
  164MOL0     H22083  11.612   9.042   3.483 -1.8868  0.0808  0.6846
  164MOL0     H22084  11.676   8.957   3.615  2.1751  3.0624 -1.6340
  164MOL0     H22085  11.799   8.800   3.497  1.5920  0.9474  0.3838
  164MOL0     H22086  11.732   8.862   3.347  1.3066  2.6330 -1.4955
  164MOL0     H22087  11.904   9.028   3.548  1.5856 -0.5360 -0.5552
  164MOL0     H22088  11.847   9.072   3.390  0.6740  0.2854 -0.6687
  164MOL0     H22089  12.061   8.849   3.456  1.8290  0.3269 -1.7892
  164MOL0     H22090  11.976   8.848   3.305  0.2317  1.2681 -1.2847
  164MOL0     H22091  12.017   9.108   3.149  1.7723  0.7448 -1.3808
  164MOL0     H22092  12.342   9.339   3.196  0.6856 -2.1374 -2.5487
  164MOL0     H22093  12.264   9.274   3.063  2.2048 -1.8377  1.2796
  164MOL0     H22094  12.046   9.392   3.140  0.0958  0.8700 -1.6801
  164MOL0     H22095  12.136   9.450   3.273  0.7438 -0.5746  0.2590
  164MOL0     H22096  12.188   9.497   2.972  2.3518  0.7674 -1.8150
  164MOL0     H22097  12.300   9.569   3.085  0.4775  0.2494 -1.9687
  164MOL0     H22098  12.121   9.709   3.183  3.1394 -1.9407  0.1783
  164MOL0     H22099  11.995   9.630   3.083 -0.2440 -1.9355 -2.1237
  164MOL0     H22100  11.934   9.857   3.174  1.8837  0.4692  0.6562
  164MOL0     H22101  11.858  10.072   3.171 -0.6584 -1.5160 -0.0547
  164MOL0     H22102  11.768  10.470   3.272 -1.8002  0.4416  0.4196
  164MOL0     H22103  11.613  10.661   3.269  0.4057 -1.4036 -0.4045
  164MOL0     H22104  11.425  10.838   3.201  0.6616  1.9240  1.1477
  164MOL0     H22105  11.576  10.886   3.154 -1.3442  1.8713  0.3000
  164MOL0     H22106  11.477  10.975   2.929  3.6304 -1.2125  0.5546
  164MOL0     H22107  11.321  10.956   2.992 -0.9565 -0.9315  0.9881
  164MOL0     H22108  11.409  11.103   3.191 -1.3365 -2.9867 -0.4311
  164MOL0     H22109  11.563  11.094   3.116  0.8971 -2.8509 -1.7718
  164MOL0     H22110  11.310  11.219   2.988  0.2333 -1.8807 -0.5038
  164MOL0     H22111  11.453  11.204   2.894 -0.8607 -2.2809  0.3321
  164MOL0     H22112  11.574  11.382   3.031  0.3790  1.6048  3.2914
  164MOL0     H22113  11.450  11.364   3.147 -1.4767 -4.4548  0.0149
  164MOL0     H22114  11.383  11.473   2.870 -3.2783  1.7299  0.0811
  164MOL0     H22115  11.296  11.472   3.029  0.9834 -1.1914  1.1265
  164MOL0     H22116  11.427  11.702   2.948 -1.0810 -0.2337 -0.4045
  164MOL0     H22117  11.564  11.606   3.023  0.0015 -1.2526 -0.2036
  164MOL0     H22118  11.462  11.586   3.226  2.3283  1.5324  0.1220
  164MOL0     H22119  11.472  11.749   3.193 -3.3773  1.7819 -1.2063
  164MOL0     H22120  11.547  10.572   2.844  1.5863 -1.3765 -0.9275
  164MOL0     H22121  11.688  10.372   2.882 -1.0635 -0.2302  0.0547
  164MOL0     H22122  12.137  10.196   2.864  2.7552 -2.5711 -0.1028
  164MOL0     H22123  12.202   9.950   2.838 -1.2481 -3.5085  0.2434
  164MOL0     H22124  11.170   8.878   4.108  0.0094  2.2478  0.4308
  164MOL0     H22125  10.989   8.966   4.164  0.7011 -1.9230  1.3210
  164MOL0     H22126  10.684   9.067   4.245  0.0306 -0.3055 -0.1924
  164MOL0     H22127  10.510   9.150   4.404 -1.8894 -0.2431  0.5481
  164MOL0     H22128  10.312   9.284   4.465  0.2700 -1.3779  0.4182
  164MOL0     H22129  10.307   9.128   4.561  0.2792  1.3094  1.7552
  164MOL0     H22130  10.114   9.316   4.590  1.6937  0.9053 -1.1453
  164MOL0     H22131  10.098   9.139   4.615  2.3195 -1.8516 -0.1677
  164MOL0     H22132  10.008   9.113   4.393 -0.1800  1.8979 -2.8863
  164MOL0     H22133  10.043   9.284   4.354 -1.6876 -1.1374 -0.6056
  164MOL0     H22134   9.873   9.353   4.517  2.6707 -0.3905 -0.8264
  164MOL0     H22135   9.827   9.274   4.374  1.6831 -0.7974 -0.4997
  164MOL0     H22136   9.611   9.054   4.641  2.5398 -1.7310  2.8767
  164MOL0     H22137  10.212   9.072   4.106 -0.6172 -1.8034 -0.2579
  164MOL0     H22138  10.438   8.993   3.841  1.2230 -1.2643  0.5102
  164MOL0     H22139  10.332   8.867   3.918  0.3122  0.2772 -0.4244
  164MOL0     H22140  10.259   9.013   3.896  0.9699  3.1612 -2.0399
  165MOL0     O22141   6.003   1.284   2.531  0.4698  0.2516 -0.0100
  165MOL0     C22142   5.974   1.400   2.512 -0.5644 -0.0852  0.2486
  165MOL0     O22143   5.863   1.445   2.444  0.0494  0.4497 -0.3376
  165MOL0     C22144   5.788   1.347   2.378  0.1333 -0.3624 -0.0613
  165MOL0     C22145   5.731   1.234   2.441  0.1332  0.3800 -0.2048
  165MOL0     C22146   5.655   1.139   2.368  0.3201  0.8295 -1.0688
  165MOL0     C22147   5.628   1.164   2.234 -0.8925  0.3168  0.8473
  165MOL0     O22148   5.582   1.059   2.159 -0.2483 -0.2920  0.4398
  165MOL0     C22149   5.452   1.020   2.168  0.3785  1.5244 -0.2239
  165MOL0     C22150   5.428   0.900   2.067  0.0955 -0.0633 -0.4178
  165MOL0     C22151   5.428   0.947   1.924  0.6707  0.2771  0.3065
  165MOL0     C22152   5.455   0.826   1.838  0.0668 -0.6055  0.0386
  165MOL0     C22153   5.472   0.860   1.685  0.0435  0.9289  0.6878
  165MOL0     C22154   5.338   0.895   1.613  0.2611 -0.0335 -0.4941
  165MOL0     C22155   5.359   0.913   1.458 -0.2442  0.9612 -0.3803
  165MOL0     C22156   5.254   1.010   1.394 -0.2871  0.2453 -0.3615
  165MOL0     N22157   5.274   1.029   1.245  0.2398 -0.2663  0.0412
  165MOL0     C22158   5.402   1.021   1.174  0.2222  1.2222  0.5173
  165MOL0     C22159   5.373   1.071   1.053 -0.1168  0.7759 -0.0255
  165MOL0     C22160   5.472   1.077   0.936  0.6474 -0.8464 -0.0993
  165MOL0     C22161   5.449   0.990   0.817 -0.2306  0.0334  0.4252
  165MOL0     C22162   5.579   0.976   0.736  0.0521 -0.4254  0.0088
  165MOL0     C22163   5.533   0.922   0.605 -0.2374  0.2883  0.3532
  165MOL0     O22164   5.484   0.789   0.612  0.3013  0.0483  0.0137
  165MOL0     C22165   5.433   0.726   0.496  0.3824 -0.3980 -0.4837
  165MOL0     C22166   5.379   0.599   0.512  0.7698  0.4074  0.2171
  165MOL0     C22167   5.324   0.539   0.401 -0.5293  0.5359 -0.9982
  165MOL0     C22168   5.308   0.606   0.276 -0.5807 -0.0138  0.7763
  165MOL0     C22169   5.255   0.539   0.153 -0.0068  1.1839  0.7950
  165MOL0     O22170   5.259   0.399   0.156 -0.6768 -0.3730 -0.5736
  165MOL0     C22171   5.196   0.334   0.051 -1.1662 -0.4236 -0.6269
  165MOL0     C22172   5.279   0.247  -0.020  0.1758 -0.1807 -0.1203
  165MOL0     C22173   5.223   0.154  -0.101 -0.1959 -0.4231  0.4442
  165MOL0     C22174   5.088   0.152  -0.127 -0.0649  0.2875 -0.4687
  165MOL0     O22175   5.014   0.069  -0.206 -0.5532  0.4560  0.2081
  165MOL0     C22176   5.070  -0.017  -0.311 -0.8064 -0.4180 -0.1464
  165MOL0     C22177   5.111  -0.147  -0.248  0.1362 -0.9564 -0.1330
  165MOL0     C22178   5.184  -0.249  -0.336 -0.6747  0.5634  0.5331
  165MOL0     C22179   5.224  -0.367  -0.257  0.1366 -0.8208 -0.3472
  165MOL0     C22180   5.330  -0.452  -0.337  0.8388 -0.7427  0.2029
  165MOL0     C22181   5.468  -0.398  -0.307 -0.6529 -0.1890 -1.0890
  165MOL0     C22182   5.570  -0.500  -0.356 -0.4053  0.2901 -1.2419
  165MOL0     C22183   5.710  -0.464  -0.287  0.8553  0.0918  0.0915
  165MOL0    Cl22184   5.843  -0.545  -0.380  0.0021  0.1986  0.5593
  165MOL0     C22185   5.000   0.236  -0.059 -0.7005  0.4988  0.5683
  165MOL0     C22186   5.054   0.329   0.032  0.3020  0.3610 -0.0427
  165MOL0     O22187   5.202   0.609   0.064 -0.3565  0.2969 -0.4893
  165MOL0     C22188   5.356   0.741   0.264 -0.2096 -0.4032  0.1471
  165MOL0     C22189   5.432   0.795   0.367 -0.1370  0.1728 -0.2197
  165MOL0     N22190   5.241   1.111   1.050  0.5278  0.4652 -0.8632
  165MOL0     N22191   5.186   1.085   1.161  0.0000  0.3744  0.1581
  165MOL0     C22192   5.694   1.266   2.173  0.3404 -0.7128 -0.7648
  165MOL0     C22193   5.759   1.369   2.248 -0.3550  1.1384 -0.3109
  165MOL0     C22194   6.058   1.494   2.582  0.2252 -0.0899  0.2980
  165MOL0     C22195   6.092   1.609   2.510 -0.4785  0.3695 -0.0398
  165MOL0     C22196   6.175   1.711   2.563  0.3732 -0.5951  0.0016
  165MOL0     C22197   6.221   1.694   2.689 -0.1294 -0.2203  0.1684
  165MOL0     O22198   6.304   1.787   2.737 -0.6701  0.6479  0.6942
  165MOL0     C22199   6.440   1.781   2.696 -0.3119  0.9161 -0.3180
  165MOL0     C22200   6.536   1.824   2.807  0.0869 -0.0545  1.0840
  165MOL0     C22201   6.550   1.967   2.841  0.6008 -0.8230 -0.5353
  165MOL0     C22202   6.661   2.014   2.931 -0.0611  0.4092 -0.0614
  165MOL0     C22203   6.659   1.938   3.055  0.1941 -0.2143 -0.1794
  165MOL0     C22204   6.627   1.901   3.166  0.0297 -0.3731  0.2016
  165MOL0     C22205   6.193   1.583   2.766 -0.0652  0.5059 -0.3716
  165MOL0     C22206   6.112   1.484   2.716  0.0977  1.2840 -0.1631
  165MOL0     C22207   6.067   1.369   2.807 -0.8420 -0.7218  0.4155
  165MOL0     H22208   5.756   1.211   2.544 -0.8141 -2.5798 -0.5471
  165MOL0     H22209   5.614   1.053   2.420 -1.8473  1.5461 -1.4891
  165MOL0     H22210   5.429   0.997   2.273  0.0071 -1.2846 -0.8404
  165MOL0     H22211   5.386   1.102   2.139  0.1185  2.2792  2.2735
  165MOL0     H22212   5.330   0.853   2.084  0.8195 -1.4939 -0.0712
  165MOL0     H22213   5.510   0.830   2.080  0.2805  0.0738 -0.8323
  165MOL0     H22214   5.501   1.028   1.915  2.1479 -1.2521 -2.9165
  165MOL0     H22215   5.329   0.980   1.890  1.7412  0.8928 -2.4428
  165MOL0     H22216   5.546   0.778   1.874 -0.0310  0.1524  1.3435
  165MOL0     H22217   5.379   0.747   1.845  0.4107 -1.3939 -3.2969
  165MOL0     H22218   5.546   0.940   1.674  1.0065  0.0085  0.2954
  165MOL0     H22219   5.506   0.770   1.634 -0.0025 -0.1327  2.4624
  165MOL0     H22220   5.267   0.815   1.636 -1.2622  1.6286  0.8294
  165MOL0     H22221   5.291   0.985   1.654 -4.0211 -2.4809  0.5593
  165MOL0     H22222   5.348   0.816   1.409 -0.3567  1.8536 -2.1839
  165MOL0     H22223   5.464   0.938   1.440  0.7634  0.6142  3.7851
  165MOL0     H22224   5.152   0.972   1.403 -1.0988  2.2749 -0.2844
  165MOL0     H22225   5.256   1.110   1.438  1.3738  1.2241 -2.4730
  165MOL0     H22226   5.489   0.968   1.209  0.1277  1.3312  0.9150
  165MOL0     H22227   5.462   1.178   0.896 -0.4065  0.2044  2.5880
  165MOL0     H22228   5.568   1.065   0.988  1.3539  0.2701 -1.1050
  165MOL0     H22229   5.407   0.894   0.851 -1.0506  1.1426  2.7542
  165MOL0     H22230   5.374   1.045   0.760 -0.5080  1.2121  1.8758
  165MOL0     H22231   5.647   0.915   0.796 -3.4905 -1.9679  2.8548
  165MOL0     H22232   5.627   1.070   0.710  0.8292 -0.3369  1.6654
  165MOL0     H22233   5.627   0.900   0.553 -2.2430 -1.9906 -2.6426
  165MOL0     H22234   5.475   0.993   0.545  1.8595 -0.2815 -2.5948
  165MOL0     H22235   5.384   0.556   0.612  1.2982  2.1370  0.9854
  165MOL0     H22236   5.283   0.440   0.419  0.4660  0.5607  1.9936
  165MOL0     H22237   5.381   0.255   0.016  0.8455 -2.7930 -1.1465
  165MOL0     H22238   5.288   0.093  -0.163  0.0865 -0.3209  0.6393
  165MOL0     H22239   4.991  -0.045  -0.381 -0.6543 -2.2001  0.3439
  165MOL0     H22240   5.152   0.036  -0.360 -2.3348  1.6156 -0.6309
  165MOL0     H22241   5.169  -0.113  -0.161 -2.5911 -0.5997  1.6440
  165MOL0     H22242   5.032  -0.206  -0.201  1.8877 -1.6056  2.2348
  165MOL0     H22243   5.121  -0.284  -0.419  0.2990 -0.0320  0.0332
  165MOL0     H22244   5.276  -0.213  -0.382  2.8870 -2.6647  4.3601
  165MOL0     H22245   5.133  -0.425  -0.238 -2.1095  1.6164 -2.7671
  165MOL0     H22246   5.267  -0.344  -0.159  1.6726 -1.9352 -0.7373
  165MOL0     H22247   5.306  -0.462  -0.443 -1.7182  2.1048  0.3483
  165MOL0     H22248   5.326  -0.553  -0.297 -1.0998 -1.4552 -1.6209
  165MOL0     H22249   5.471  -0.308  -0.371 -1.5006  2.2105  2.0116
  165MOL0     H22250   5.485  -0.375  -0.202 -0.2825  0.0304 -1.1948
  165MOL0     H22251   5.579  -0.491  -0.464 -1.2531 -2.2743 -1.5794
  165MOL0     H22252   5.543  -0.602  -0.330 -1.6024  1.0840  0.9186
  165MOL0     H22253   5.728  -0.356  -0.279  0.3919  0.2102 -0.3872
  165MOL0     H22254   5.705  -0.499  -0.184  1.6235  1.0763  0.4730
  165MOL0     H22255   4.896   0.248  -0.088 -0.8243  3.4271  1.8299
  165MOL0     H22256   4.981   0.382   0.091  1.2108  0.1412  1.3225
  165MOL0     H22257   5.333   0.788   0.169 -2.0102  1.3532  1.3583
  165MOL0     H22258   5.465   0.898   0.362 -1.1100  0.5538  0.8534
  165MOL0     H22259   5.695   1.274   2.065 -2.1672  0.2072 -0.7788
  165MOL0     H22260   5.787   1.463   2.201 -1.4909  0.5651 -2.2372
  165MOL0     H22261   6.057   1.625   2.408  0.4959 -2.4959 -0.9334
  165MOL0     H22262   6.207   1.789   2.494 -1.2077 -0.5915 -0.7837
  165MOL0     H22263   6.459   1.837   2.604  3.7017  1.3398  0.5703
  165MOL0     H22264   6.468   1.676   2.681 -0.1809  0.9658 -0.4183
  165MOL0     H22265   6.628   1.771   2.781 -0.4683  0.0984 -1.4540
  165MOL0     H22266   6.487   1.770   2.888  1.1315 -0.8608  1.2007
  165MOL0     H22267   6.456   1.995   2.890  0.7501  1.2110 -1.3454
  165MOL0     H22268   6.571   2.023   2.749  2.2546 -2.0484 -0.9528
  165MOL0     H22269   6.757   1.994   2.884 -0.4618 -0.3420 -0.5754
  165MOL0     H22270   6.645   2.121   2.943  2.7064  1.1389 -1.9531
  165MOL0     H22271   6.602   1.858   3.261 -0.1932 -2.4785 -0.7444
  165MOL0     H22272   6.237   1.569   2.864 -0.0870  0.7251 -0.3315
  165MOL0     H22273   6.129   1.289   2.766  0.5209  0.8828 -0.7447
  165MOL0     H22274   6.089   1.405   2.908  0.1512  3.9866 -1.2576
  165MOL0     H22275   5.961   1.341   2.802 -0.8999 -0.4433  0.0411
  166MOL0     O22276   4.431   4.243   2.455  0.0825 -0.4592 -0.3608
  166MOL0     C22277   4.331   4.192   2.497  0.7699 -0.2553  0.2663
  166MOL0     O22278   4.317   4.083   2.587 -0.4311  0.2912 -0.3741
  166MOL0     C22279   4.419   4.058   2.669 -0.6457  0.4156  0.7712
  166MOL0     C22280   4.495   4.153   2.725 -0.1799 -0.2777  0.3827
  166MOL0     C22281   4.592   4.124   2.821  0.0298  1.0292  0.4348
  166MOL0     C22282   4.616   3.991   2.859  0.1219 -1.2561  0.2870
  166MOL0     O22283   4.719   3.962   2.946 -0.7654  0.1177  0.3840
  166MOL0     C22284   4.851   3.948   2.879  0.3454 -0.2014  0.4796
  166MOL0     C22285   4.962   4.006   2.970  0.0077  0.4530 -0.2561
  166MOL0     C22286   4.983   3.906   3.082 -0.1474 -0.5363 -0.1174
  166MOL0     C22287   5.108   3.934   3.169  0.6191 -0.0503 -0.2470
  166MOL0     C22288   5.111   3.873   3.312 -0.2131 -0.0767  1.3666
  166MOL0     C22289   5.106   3.713   3.324 -0.5295  0.1199 -0.2901
  166MOL0     C22290   5.224   3.643   3.258  0.0515 -0.2548 -0.3187
  166MOL0     C22291   5.362   3.700   3.284  0.7306  0.1742 -0.6033
  166MOL0     N22292   5.405   3.672   3.428 -0.2000  0.0343 -0.4695
  166MOL0     C22293   5.386   3.539   3.479  0.2497 -1.4499 -0.4446
  166MOL0     C22294   5.475   3.540   3.579 -0.1994 -0.8664 -0.7117
  166MOL0     C22295   5.534   3.424   3.653  0.2396  0.6597  0.1987
  166MOL0     C22296   5.454   3.405   3.784  0.9193 -0.4898 -0.5748
  166MOL0     C22297   5.331   3.324   3.766 -0.2441  0.4005 -0.0421
  166MOL0     C22298   5.268   3.273   3.896  0.2297 -0.2955  0.4291
  166MOL0     O22299   5.200   3.151   3.866  0.0845 -0.4164  0.2432
  166MOL0     C22300   5.090   3.135   3.785 -0.0783 -0.5730  0.0047
  166MOL0     C22301   5.072   3.014   3.722  0.6246 -0.3233  0.7718
  166MOL0     C22302   4.960   2.995   3.635  0.0858  0.3672  0.7374
  166MOL0     C22303   4.871   3.101   3.615  0.4630 -0.0260 -0.4486
  166MOL0     C22304   4.752   3.097   3.525  0.7352  0.0042 -0.5037
  166MOL0     O22305   4.676   3.211   3.502 -0.4836  0.1815  0.0982
  166MOL0     C22306   4.558   3.207   3.436 -0.7322 -0.6728 -0.6105
  166MOL0     C22307   4.545   3.140   3.316  0.4798 -1.0402  0.1333
  166MOL0     C22308   4.428   3.147   3.246 -0.3225 -0.6217 -0.4092
  166MOL0     C22309   4.310   3.216   3.297 -0.1906  0.2807 -0.3408
  166MOL0     O22310   4.191   3.238   3.231  1.1932 -1.0282  0.3954
  166MOL0     C22311   4.174   3.151   3.110  0.5252  0.3444  0.4816
  166MOL0     C22312   4.029   3.118   3.070  0.0985 -0.3463  0.4125
  166MOL0     C22313   3.926   3.227   3.098 -0.9394 -0.1698 -0.5428
  166MOL0     C22314   3.793   3.223   3.031  1.4717 -0.1441 -0.2783
  166MOL0     C22315   3.722   3.084   3.011  0.1692 -0.7548 -0.3254
  166MOL0     C22316   3.577   3.107   2.966 -0.5708 -0.1109 -0.1409
  166MOL0     C22317   3.467   3.137   3.066  0.1614 -0.8834  0.3623
  166MOL0     C22318   3.330   3.148   3.009 -0.0500 -0.7603  0.5879
  166MOL0    Cl22319   3.223   3.190   3.143 -0.3408  0.1896 -0.5831
  166MOL0     C22320   4.322   3.269   3.424  0.5674  0.5884  0.3535
  166MOL0     C22321   4.441   3.261   3.492  0.3914 -0.4369 -0.3182
  166MOL0     O22322   4.741   2.989   3.457  0.8813 -0.1342 -0.5555
  166MOL0     C22323   4.892   3.219   3.690 -0.0019 -0.4421  0.0948
  166MOL0     C22324   4.999   3.240   3.779  0.2271 -0.2436 -0.4517
  166MOL0     N22325   5.529   3.665   3.601  0.1706  0.5978 -0.3593
  166MOL0     N22326   5.493   3.743   3.505 -0.0598  0.0449  0.4695
  166MOL0     C22327   4.535   3.893   2.805 -0.2943 -0.2389 -0.4267
  166MOL0     C22328   4.441   3.925   2.708 -0.7091  0.0528 -0.5867
  166MOL0     C22329   4.204   4.257   2.435  0.2527  0.4506  0.7457
  166MOL0     C22330   4.204   4.327   2.317  0.2659 -0.5234 -0.0609
  166MOL0     C22331   4.106   4.397   2.265  0.2681 -0.7266 -0.4214
  166MOL0     C22332   3.997   4.429   2.341  0.1749 -0.3113  0.2462
  166MOL0     O22333   3.904   4.521   2.302  0.2494 -0.1795 -0.2985
  166MOL0     C22334   3.900   4.580   2.176  0.1763 -0.7828  0.0512
  166MOL0     C22335   4.008   4.698   2.168 -0.4104  0.3287 -0.0871
  166MOL0     C22336   3.985   4.789   2.038  0.4127 -0.3569  0.7132
  166MOL0     C22337   4.055   4.921   2.066  1.0159  1.0296 -0.3412
  166MOL0     C22338   3.997   5.034   1.988  0.3210 -0.4072 -0.5201
  166MOL0     C22339   3.970   5.125   1.921 -0.3596  0.3821 -1.3786
  166MOL0     C22340   3.979   4.377   2.469  0.4278 -0.5820  0.3704
  166MOL0     C22341   4.076   4.286   2.510 -0.2495  0.0161 -0.0796
  166MOL0     C22342   4.060   4.238   2.655  0.0085  0.0386  0.3979
  166MOL0     H22343   4.476   4.259   2.707 -2.6333 -0.4920  1.4383
  166MOL0     H22344   4.637   4.206   2.875 -0.7686  0.9640  1.2095
  166MOL0     H22345   4.882   3.844   2.867  3.7314  0.6129  1.1824
  166MOL0     H22346   4.859   3.996   2.781  4.4597  2.8921  2.0354
  166MOL0     H22347   4.925   4.093   3.023 -2.8289 -1.3491  0.9810
  166MOL0     H22348   5.052   4.016   2.908  0.0447 -2.1436 -0.7770
  166MOL0     H22349   4.985   3.801   3.054  0.4570 -0.7701  0.7569
  166MOL0     H22350   4.894   3.912   3.146 -1.5440  0.6460 -2.0509
  166MOL0     H22351   5.196   3.904   3.112  0.0772 -1.8099 -0.2140
  166MOL0     H22352   5.116   4.043   3.174  2.9589 -0.2305  1.7768
  166MOL0     H22353   5.193   3.917   3.368 -1.0555 -0.5947  3.0587
  166MOL0     H22354   5.020   3.912   3.358  0.2380 -0.0155  2.2099
  166MOL0     H22355   5.126   3.686   3.428 -0.0342  0.5875 -0.2625
  166MOL0     H22356   5.010   3.668   3.295  0.5794 -1.0268 -2.4868
  166MOL0     H22357   5.209   3.651   3.150 -3.8498 -2.1550 -0.1173
  166MOL0     H22358   5.213   3.537   3.284 -2.7208  0.2236  0.9037
  166MOL0     H22359   5.443   3.674   3.215  1.8260  1.7668  0.0087
  166MOL0     H22360   5.355   3.808   3.271  0.2613  0.4670  1.6032
  166MOL0     H22361   5.321   3.460   3.443 -1.8482  1.0005 -2.4303
  166MOL0     H22362   5.535   3.332   3.593  1.3374 -0.4931  1.8791
  166MOL0     H22363   5.642   3.430   3.671  0.3164 -2.4755  1.4607
  166MOL0     H22364   5.520   3.343   3.846 -0.6123 -1.4009  0.1917
  166MOL0     H22365   5.422   3.496   3.836  0.6237 -0.6595 -0.4596
  166MOL0     H22366   5.367   3.242   3.703 -0.7782  1.0212 -1.1843
  166MOL0     H22367   5.256   3.377   3.708  1.0868  0.3839 -1.8540
  166MOL0     H22368   5.205   3.353   3.935 -0.2522 -1.0766  1.2963
  166MOL0     H22369   5.343   3.252   3.972 -2.6593  0.5516  3.8170
  166MOL0     H22370   5.143   2.933   3.737  0.4086 -0.3037  1.9721
  166MOL0     H22371   4.955   2.900   3.582  1.7019 -0.2921  1.6698
  166MOL0     H22372   4.640   3.106   3.275 -0.0647 -0.8885 -1.3217
  166MOL0     H22373   4.419   3.106   3.146  3.2904 -0.5545 -0.8850
  166MOL0     H22374   4.228   3.190   3.023  0.4835 -3.1510 -1.2981
  166MOL0     H22375   4.209   3.049   3.127  1.0387  0.1797 -1.3024
  166MOL0     H22376   4.028   3.095   2.963  0.0916 -2.0589  0.7557
  166MOL0     H22377   3.998   3.030   3.127 -2.7318  0.3119  0.0251
  166MOL0     H22378   3.920   3.230   3.207  1.8254 -2.2906 -0.1987
  166MOL0     H22379   3.972   3.323   3.071 -1.6750 -0.0386 -1.3664
  166MOL0     H22380   3.815   3.270   2.935  3.4527  2.2598  1.2133
  166MOL0     H22381   3.717   3.285   3.079  0.7159 -1.6557  0.5399
  166MOL0     H22382   3.720   3.033   3.108  2.0849 -0.8368 -0.2966
  166MOL0     H22383   3.785   3.032   2.939  0.1566 -0.9473 -0.1959
  166MOL0     H22384   3.578   3.189   2.893 -1.9152  1.5107  1.5493
  166MOL0     H22385   3.552   3.014   2.914  1.5089  0.4302 -2.2952
  166MOL0     H22386   3.494   3.231   3.116  2.5906 -1.9526  1.2343
  166MOL0     H22387   3.457   3.056   3.138 -1.8895  1.9979  3.6245
  166MOL0     H22388   3.330   3.217   2.925 -0.2029 -0.3018  0.9579
  166MOL0     H22389   3.308   3.050   2.968  1.5775 -1.6776  1.7781
  166MOL0     H22390   4.238   3.323   3.465  2.2396  3.6190  0.1324
  166MOL0     H22391   4.459   3.312   3.586 -2.5918  0.2064  0.0173
  166MOL0     H22392   4.821   3.301   3.683  1.4034  0.7025 -1.7025
  166MOL0     H22393   4.994   3.327   3.844 -2.9514 -3.4394  4.2273
  166MOL0     H22394   4.546   3.792   2.845  2.7302  0.5176  0.8950
  166MOL0     H22395   4.373   3.847   2.676 -3.6148  1.6387  1.2472
  166MOL0     H22396   4.297   4.315   2.261  0.3577  0.6608 -0.2023
  166MOL0     H22397   4.129   4.434   2.166 -0.7692  1.2659  0.0351
  166MOL0     H22398   3.799   4.607   2.141 -0.5794 -2.2566  1.0053
  166MOL0     H22399   3.923   4.506   2.100  2.2704  3.0790 -3.4425
  166MOL0     H22400   4.107   4.651   2.169 -1.7439 -2.7367 -0.4478
  166MOL0     H22401   4.000   4.762   2.256  0.9486  1.1617 -0.5327
  166MOL0     H22402   3.876   4.798   2.035  0.5023  0.7686 -0.8042
  166MOL0     H22403   4.016   4.738   1.946 -0.4601 -3.6588  2.0960
  166MOL0     H22404   4.025   4.947   2.168  0.4274  2.7666 -0.9403
  166MOL0     H22405   4.160   4.901   2.043  0.2989 -2.3604 -1.3000
  166MOL0     H22406   3.961   5.207   1.853  1.2119  2.4404  0.7400
  166MOL0     H22407   3.898   4.401   2.538  0.6890  0.2286  0.4109
  166MOL0     H22408   4.154   4.229   2.712  1.9237  1.3308 -2.3353
  166MOL0     H22409   4.003   4.310   2.714  2.0817  1.0541  1.3022
  166MOL0     H22410   3.992   4.154   2.670  1.1541 -0.3815  4.7376
  167MOL0     O22411   7.651   3.782   2.338  0.4983  0.0161  0.5145
  167MOL0     C22412   7.678   3.887   2.275  1.1302  0.0842 -0.6660
  167MOL0     O22413   7.583   3.953   2.196  0.2199  0.0747 -0.1665
  167MOL0     C22414   7.468   3.886   2.152 -0.8791 -0.2082  0.8894
  167MOL0     C22415   7.365   3.864   2.253 -0.1063 -0.1188  0.2058
  167MOL0     C22416   7.243   3.813   2.225  0.2508  1.0509  0.3818
  167MOL0     C22417   7.215   3.778   2.089 -0.2714 -0.5309  0.0592
  167MOL0     O22418   7.090   3.736   2.051 -0.5322 -0.5235 -0.6562
  167MOL0     C22419   6.986   3.833   2.058 -0.4272  0.5522 -0.9041
  167MOL0     C22420   6.867   3.759   1.991  0.1920  0.3505  0.1105
  167MOL0     C22421   6.736   3.837   2.023 -0.6532  0.0875 -0.2364
  167MOL0     C22422   6.623   3.744   1.983  0.9609 -1.1934  0.4516
  167MOL0     C22423   6.489   3.826   1.980 -1.0830 -0.2259 -0.5718
  167MOL0     C22424   6.383   3.726   1.965 -0.0264  0.0388 -0.4925
  167MOL0     C22425   6.238   3.805   1.967  0.6022 -0.3561  1.2294
  167MOL0     C22426   6.221   3.923   1.863  0.1167 -0.2743  0.2618
  167MOL0     N22427   6.251   3.874   1.724  0.3674  0.4200 -0.8236
  167MOL0     C22428   6.155   3.825   1.642 -0.2894  0.8979  0.7462
  167MOL0     C22429   6.233   3.785   1.538  0.3781 -0.7954 -0.0199
  167MOL0     C22430   6.163   3.739   1.419  0.3772  0.7732 -0.3454
  167MOL0     C22431   6.256   3.628   1.352  0.4979 -0.3118  0.8103
  167MOL0     C22432   6.214   3.608   1.217  0.5082  0.3755  0.2919
  167MOL0     C22433   6.314   3.528   1.134 -0.0509 -0.4280  0.1058
  167MOL0     O22434   6.412   3.622   1.088 -0.0384 -0.2609 -0.2016
  167MOL0     C22435   6.510   3.566   0.994  0.7663 -0.8766 -0.7254
  167MOL0     C22436   6.524   3.437   0.952  0.0460  0.1025 -0.5369
  167MOL0     C22437   6.615   3.404   0.848  1.9980 -0.5934  0.4027
  167MOL0     C22438   6.688   3.506   0.783  0.7002 -0.6967  0.7467
  167MOL0     C22439   6.784   3.467   0.680  0.1074 -0.7042  0.8328
  167MOL0     O22440   6.820   3.334   0.651 -0.2965 -0.6012  0.9956
  167MOL0     C22441   6.889   3.315   0.536  0.4959  0.4753  0.2473
  167MOL0     C22442   6.845   3.349   0.410 -0.0213  0.0098 -0.4454
  167MOL0     C22443   6.915   3.305   0.300  1.0216 -0.6391 -0.4779
  167MOL0     C22444   7.047   3.259   0.307  0.0420 -0.3168  1.0557
  167MOL0     O22445   7.100   3.237   0.187  0.6085 -0.9300 -0.0905
  167MOL0     C22446   7.233   3.177   0.184 -0.2431 -0.2860  0.1385
  167MOL0     C22447   7.307   3.188   0.051  0.2068  0.1873 -0.2121
  167MOL0     C22448   7.444   3.125   0.061 -0.7675 -0.4542 -0.6328
  167MOL0     C22449   7.516   3.141  -0.068 -0.3266  0.2394 -0.8320
  167MOL0     C22450   7.644   3.059  -0.048 -0.1368 -0.4789 -0.2967
  167MOL0     C22451   7.746   3.068  -0.169 -0.7565  0.9406 -0.1124
  167MOL0     C22452   7.690   3.043  -0.312 -0.7443  0.5527 -0.2546
  167MOL0     C22453   7.797   3.067  -0.425 -0.5018 -0.0906 -1.0679
  167MOL0    Cl22454   7.723   3.008  -0.577 -0.2968  0.1689  0.6365
  167MOL0     C22455   7.095   3.218   0.433  0.5732 -0.4503  0.7177
  167MOL0     C22456   7.015   3.243   0.546  0.5020  0.0501  0.6673
  167MOL0     O22457   6.843   3.568   0.633  0.2857  0.3450  0.2713
  167MOL0     C22458   6.676   3.638   0.838  0.0042  0.4414  0.6025
  167MOL0     C22459   6.587   3.669   0.935  0.1158  0.9442 -0.1786
  167MOL0     N22460   6.365   3.818   1.551  1.3594  0.0318 -0.4013
  167MOL0     N22461   6.370   3.876   1.657  0.8859  0.7911  0.3796
  167MOL0     C22462   7.312   3.793   1.987  0.2567 -0.4409  0.3453
  167MOL0     C22463   7.437   3.854   2.020 -0.1202 -0.6724  0.5093
  167MOL0     C22464   7.811   3.946   2.296  0.4227 -0.5269 -0.0444
  167MOL0     C22465   7.839   4.064   2.222  0.4946 -0.1849  0.6773
  167MOL0     C22466   7.961   4.127   2.235  1.0539 -0.2043 -0.1571
  167MOL0     C22467   8.061   4.075   2.318 -0.0483  0.4764 -1.5331
  167MOL0     O22468   8.171   4.151   2.316  0.5826 -0.3887 -0.0898
  167MOL0     C22469   8.280   4.101   2.394 -0.0785  0.1570  0.5661
  167MOL0     C22470   8.405   4.188   2.380  0.3448 -0.0710  0.6233
  167MOL0     C22471   8.405   4.325   2.441 -0.7872 -0.4698  0.4714
  167MOL0     C22472   8.533   4.400   2.410 -0.2295 -0.0778 -0.7097
  167MOL0     C22473   8.651   4.357   2.480 -0.5658  0.6704  0.0089
  167MOL0     C22474   8.739   4.316   2.554  0.3779 -0.2957  0.6262
  167MOL0     C22475   8.034   3.961   2.395 -0.0386 -0.3256  0.0088
  167MOL0     C22476   7.917   3.890   2.377 -0.0678 -0.2642  0.8629
  167MOL0     C22477   7.909   3.754   2.449 -0.2229  1.0423  0.2450
  167MOL0     H22478   7.393   3.889   2.355  2.0390 -2.8433  0.4232
  167MOL0     H22479   7.170   3.806   2.305  0.0855 -0.8444  0.1249
  167MOL0     H22480   6.969   3.854   2.165 -0.1966 -0.0324 -0.7507
  167MOL0     H22481   7.004   3.924   2.001 -1.1355  1.4919  0.3014
  167MOL0     H22482   6.856   3.655   2.023  0.2071 -0.7983 -3.1869
  167MOL0     H22483   6.880   3.764   1.882 -1.4660 -2.9939 -0.3709
  167MOL0     H22484   6.725   3.934   1.973 -2.3788 -2.1982 -4.9453
  167MOL0     H22485   6.717   3.840   2.131  0.1034  3.1732 -0.0996
  167MOL0     H22486   6.645   3.709   1.882 -1.1406  0.1658 -0.5614
  167MOL0     H22487   6.606   3.656   2.046 -2.9442 -0.1267  1.2143
  167MOL0     H22488   6.480   3.881   2.075 -0.8434 -0.8031 -0.2116
  167MOL0     H22489   6.485   3.894   1.894  1.9519 -1.4242 -1.7610
  167MOL0     H22490   6.402   3.655   1.884 -0.0573 -0.7699  0.2003
  167MOL0     H22491   6.379   3.663   2.054 -0.1877 -0.0399 -0.5544
  167MOL0     H22492   6.225   3.837   2.071 -1.0202 -2.5197  1.7584
  167MOL0     H22493   6.160   3.731   1.950  1.1748 -1.6981  3.9349
  167MOL0     H22494   6.117   3.958   1.869 -0.2881 -0.9669 -1.8886
  167MOL0     H22495   6.297   3.999   1.883  2.4064 -1.6036 -2.6329
  167MOL0     H22496   6.052   3.808   1.671  0.3369  0.1373  2.6763
  167MOL0     H22497   6.064   3.702   1.450 -0.4530  0.5566 -3.0594
  167MOL0     H22498   6.144   3.826   1.356 -0.8589 -0.1046 -1.2433
  167MOL0     H22499   6.351   3.677   1.333 -0.1109  0.6655  0.2050
  167MOL0     H22500   6.265   3.533   1.406  4.1878 -1.7588 -1.8626
  167MOL0     H22501   6.204   3.704   1.165 -1.1180 -0.0837 -0.3144
  167MOL0     H22502   6.114   3.565   1.211 -0.1789  2.0702 -3.5716
  167MOL0     H22503   6.260   3.489   1.048  1.0165  1.3343 -1.4392
  167MOL0     H22504   6.359   3.446   1.190  1.0014 -0.3450 -0.5786
  167MOL0     H22505   6.480   3.356   1.009  0.0078  0.4699 -0.0415
  167MOL0     H22506   6.617   3.299   0.820  1.0751 -1.4672  3.2399
  167MOL0     H22507   6.750   3.402   0.409 -1.0629 -1.7385  0.0860
  167MOL0     H22508   6.876   3.338   0.204  2.2210 -0.1091 -0.7979
  167MOL0     H22509   7.304   3.220   0.255  0.3554 -1.9821  0.6069
  167MOL0     H22510   7.227   3.071   0.210  2.8530 -1.2658 -2.4959
  167MOL0     H22511   7.252   3.136  -0.028 -5.1563 -0.7050  3.5330
  167MOL0     H22512   7.332   3.292   0.028 -0.3680  0.6126  0.9939
  167MOL0     H22513   7.504   3.163   0.144  0.8435  2.1795 -2.8303
  167MOL0     H22514   7.424   3.021   0.089  0.5727 -0.2028  1.4097
  167MOL0     H22515   7.524   3.248  -0.089  2.8919 -0.2625 -2.7467
  167MOL0     H22516   7.460   3.102  -0.153 -1.5109  2.2444 -1.0212
  167MOL0     H22517   7.614   2.954  -0.043 -0.0430 -0.4458  2.1074
  167MOL0     H22518   7.691   3.101   0.041 -1.9015  2.0732 -0.4554
  167MOL0     H22519   7.788   3.169  -0.165 -1.7437  1.4668 -2.0066
  167MOL0     H22520   7.830   3.000  -0.150 -1.2517  0.1664 -0.6444
  167MOL0     H22521   7.598   3.093  -0.341 -2.5174 -1.8284  0.9060
  167MOL0     H22522   7.658   2.939  -0.305  0.9955  0.0913  2.3873
  167MOL0     H22523   7.820   3.172  -0.443 -1.1047  0.0029 -1.2971
  167MOL0     H22524   7.889   3.012  -0.402 -0.4379  0.1005 -0.8575
  167MOL0     H22525   7.195   3.177   0.443 -0.3852 -3.0690  0.3846
  167MOL0     H22526   7.061   3.215   0.640 -1.3447 -0.8831  1.3512
  167MOL0     H22527   6.740   3.713   0.792  1.7029 -1.1028  0.3403
  167MOL0     H22528   6.572   3.767   0.979  1.8170 -0.4224  3.9359
  167MOL0     H22529   7.280   3.771   1.885 -1.4250 -3.1445  1.3488
  167MOL0     H22530   7.503   3.871   1.936 -0.5639  0.5175  0.3745
  167MOL0     H22531   7.770   4.097   2.146  1.2405 -0.7809 -0.2810
  167MOL0     H22532   7.976   4.219   2.177 -2.9693  0.1888 -0.8682
  167MOL0     H22533   8.304   4.005   2.348 -3.1448  1.8604 -5.7971
  167MOL0     H22534   8.254   4.102   2.500  1.6076 -1.8929  1.0624
  167MOL0     H22535   8.432   4.196   2.275  0.3858  0.4729  0.6690
  167MOL0     H22536   8.488   4.135   2.429  0.7008 -0.7778 -0.7112
  167MOL0     H22537   8.393   4.322   2.549  2.1836  2.5454  1.0470
  167MOL0     H22538   8.335   4.398   2.399  2.1381  0.9893 -2.2911
  167MOL0     H22539   8.546   4.389   2.302  1.4124 -2.9570 -0.3486
  167MOL0     H22540   8.528   4.507   2.428  1.1332  0.2908 -2.2637
  167MOL0     H22541   8.820   4.292   2.619  0.2433 -0.2817  0.8009
  167MOL0     H22542   8.102   3.926   2.471  0.2887  2.5633  1.1701
  167MOL0     H22543   7.818   3.747   2.509 -0.2404  2.5876  0.4416
  167MOL0     H22544   7.904   3.681   2.368  2.3407  2.4414 -1.3312
  167MOL0     H22545   7.985   3.725   2.523 -0.3144  1.0864  0.3560
  168MOL0     O22546   4.201   7.477  10.938 -0.6499  0.1968 -0.3866
  168MOL0     C22547   4.177   7.587  10.912  0.1888 -1.0468 -0.6844
  168MOL0     O22548   4.067   7.636  10.842 -0.1327  0.6667  0.3023
  168MOL0     C22549   3.985   7.546  10.789  0.3283  0.1833 -0.2403
  168MOL0     C22550   3.972   7.551  10.648  0.1522  0.1462  0.2547
  168MOL0     C22551   3.884   7.465  10.585  0.2591 -0.5474  0.2966
  168MOL0     C22552   3.809   7.372  10.652 -0.3476  0.3148  0.1243
  168MOL0     O22553   3.723   7.279  10.605  0.6697  0.4639 -0.2168
  168MOL0     C22554   3.654   7.299  10.480  0.0432 -0.4309 -0.7879
  168MOL0     C22555   3.549   7.410  10.503  0.1560  0.6470 -0.2852
  168MOL0     C22556   3.446   7.439  10.395 -0.1314 -0.9160 -0.2648
  168MOL0     C22557   3.336   7.528  10.442  0.1625  0.1892  0.6398
  168MOL0     C22558   3.224   7.514  10.335 -1.2514  0.3085 -0.6880
  168MOL0     C22559   3.285   7.577  10.211 -0.0261  0.3972 -0.1121
  168MOL0     C22560   3.177   7.630  10.106 -0.2348  0.3175  0.2635
  168MOL0     C22561   3.245   7.690   9.980  0.5700 -0.3252  0.3038
  168MOL0     N22562   3.319   7.590   9.905  0.4388 -0.4279  0.1963
  168MOL0     C22563   3.403   7.620   9.801  0.6208 -0.4431  1.4808
  168MOL0     C22564   3.424   7.505   9.737 -1.3408  0.2750 -0.3250
  168MOL0     C22565   3.506   7.497   9.607  0.8987 -0.0352  0.4024
  168MOL0     C22566   3.418   7.517   9.478  0.2115  0.1987 -0.6234
  168MOL0     C22567   3.504   7.492   9.359 -0.5588  0.2719 -0.8757
  168MOL0     C22568   3.442   7.498   9.220 -0.2335 -0.8312 -0.2854
  168MOL0     O22569   3.359   7.618   9.207 -0.0832  0.5556 -0.0488
  168MOL0     C22570   3.289   7.649   9.091  0.5664 -0.7645  0.2917
  168MOL0     C22571   3.304   7.582   8.966 -0.5033  0.7947 -0.3620
  168MOL0     C22572   3.226   7.632   8.857 -0.9908  0.2567  0.6671
  168MOL0     C22573   3.139   7.740   8.856 -0.2661 -0.4013 -0.1813
  168MOL0     C22574   3.048   7.794   8.749 -0.3594 -0.0749  0.2883
  168MOL0     O22575   2.976   7.913   8.764 -0.6840 -0.2714  0.1693
  168MOL0     C22576   2.902   7.949   8.659  0.7824 -0.1361 -0.2855
  168MOL0     C22577   2.769   7.966   8.671  0.6788 -0.5377 -0.1276
  168MOL0     C22578   2.680   8.008   8.563  0.6683  0.0786 -0.3988
  168MOL0     C22579   2.731   8.031   8.440  0.0947  0.2616 -0.8621
  168MOL0     O22580   2.643   8.089   8.355 -0.3438  0.5111  0.2287
  168MOL0     C22581   2.687   8.163   8.244 -0.4984  0.8262 -0.3252
  168MOL0     C22582   2.578   8.163   8.147 -0.4067  0.5632  0.3265
  168MOL0     C22583   2.457   8.231   8.217 -0.0208 -0.2109  0.5670
  168MOL0     C22584   2.339   8.225   8.115  0.2135 -0.4486  0.6988
  168MOL0     C22585   2.213   8.296   8.176  0.6174 -0.3906  0.2429
  168MOL0     C22586   2.089   8.246   8.112 -0.5224 -0.1071 -0.2168
  168MOL0     C22587   2.080   8.263   7.958  0.3588  0.5634 -0.7653
  168MOL0     C22588   1.950   8.225   7.892  0.4045  0.1684 -0.2341
  168MOL0    Cl22589   1.798   8.310   7.940  0.1984 -0.0355  0.0277
  168MOL0     C22590   2.871   8.024   8.434  0.7588  0.6420  0.2642
  168MOL0     C22591   2.955   7.988   8.535  0.0364  0.0138  0.0274
  168MOL0     O22592   3.044   7.725   8.645  0.0446 -0.0869 -0.0653
  168MOL0     C22593   3.132   7.814   8.981 -0.0552 -0.4834  0.0698
  168MOL0     C22594   3.204   7.765   9.092 -0.6985 -0.3442  0.3415
  168MOL0     N22595   3.347   7.407   9.790  0.2794 -0.6891  0.6306
  168MOL0     N22596   3.291   7.454   9.897  0.7638  0.7940  0.1154
  168MOL0     C22597   3.822   7.371  10.792  0.3913  0.9989  0.7037
  168MOL0     C22598   3.906   7.451  10.858 -0.3411 -0.3156 -0.4886
  168MOL0     C22599   4.279   7.693  10.943 -0.0553 -0.0167  0.3477
  168MOL0     C22600   4.256   7.824  10.903  0.2282 -0.0181 -0.3211
  168MOL0     C22601   4.340   7.927  10.937  0.3668  0.0847  1.0162
  168MOL0     C22602   4.453   7.901  11.016  0.3845  0.8229  1.0821
  168MOL0     O22603   4.522   8.011  11.054 -0.1602 -0.3709 -0.6090
  168MOL0     C22604   4.626   7.988  11.156 -0.1300  0.5304 -0.2111
  168MOL0     C22605   4.683   8.124  11.203  0.7506 -0.4654 -0.0947
  168MOL0     C22606   4.589   8.223  11.264  0.4419  0.3931  0.4537
  168MOL0     C22607   4.533   8.188  11.395  0.6943 -0.2353 -0.2645
  168MOL0     C22608   4.421   8.273  11.429 -0.8543 -0.2128  0.1644
  168MOL0     C22609   4.320   8.353  11.449  0.1201  0.0635  0.1832
  168MOL0     C22610   4.488   7.770  11.040 -0.8554  0.3243  0.6365
  168MOL0     C22611   4.406   7.666  11.009 -0.1124  0.6465  0.6354
  168MOL0     C22612   4.461   7.530  11.067  0.7213  0.5101  0.5791
  168MOL0     H22613   4.018   7.630  10.589  0.0176 -0.1518 -0.2580
  168MOL0     H22614   3.869   7.460  10.478  0.5353 -0.7666  0.2670
  168MOL0     H22615   3.710   7.309  10.386  1.0115 -1.6830 -0.3821
  168MOL0     H22616   3.605   7.203  10.462 -1.9721  0.0486  1.5746
  168MOL0     H22617   3.597   7.508  10.508 -3.3814  2.6441 -1.4291
  168MOL0     H22618   3.494   7.388  10.595  0.4468 -1.6622 -0.6236
  168MOL0     H22619   3.412   7.347  10.347 -1.3118  0.1116 -1.4593
  168MOL0     H22620   3.501   7.498  10.322  0.5282 -1.4477 -0.2179
  168MOL0     H22621   3.293   7.486  10.534 -1.5574 -0.5210 -0.4340
  168MOL0     H22622   3.371   7.631  10.449 -0.6172  0.6146 -1.0885
  168MOL0     H22623   3.200   7.407  10.326 -0.8667  0.2583 -1.1944
  168MOL0     H22624   3.134   7.556  10.379 -1.4714 -2.5318  1.8829
  168MOL0     H22625   3.364   7.650  10.230  0.5565  0.2118 -1.6900
  168MOL0     H22626   3.335   7.491  10.165  0.9332  0.6840  0.3716
  168MOL0     H22627   3.128   7.714  10.156 -0.7265  1.5393 -2.1218
  168MOL0     H22628   3.112   7.546  10.079  0.6794 -0.5673  0.7444
  168MOL0     H22629   3.162   7.730   9.921 -0.4930 -1.3452  1.0773
  168MOL0     H22630   3.309   7.777   9.999  1.5713 -0.6567 -1.3436
  168MOL0     H22631   3.449   7.715   9.775 -1.1967 -0.2965 -1.6972
  168MOL0     H22632   3.600   7.553   9.599  0.7364  0.1633 -0.1868
  168MOL0     H22633   3.529   7.390   9.601 -2.2088 -0.7255 -0.8192
  168MOL0     H22634   3.343   7.437   9.471 -1.1183  1.5006 -2.2528
  168MOL0     H22635   3.366   7.612   9.490 -1.0691 -0.7404  1.8486
  168MOL0     H22636   3.534   7.387   9.358 -3.3895 -0.6112 -2.0406
  168MOL0     H22637   3.590   7.559   9.371  0.9269 -1.6912 -0.1051
  168MOL0     H22638   3.381   7.408   9.206  0.5988 -2.2185  3.6267
  168MOL0     H22639   3.525   7.503   9.150  1.1208  1.9452  1.3546
  168MOL0     H22640   3.374   7.499   8.962 -1.2438  0.1732 -0.5329
  168MOL0     H22641   3.241   7.574   8.766  1.2131  0.5544  0.7735
  168MOL0     H22642   2.720   7.953   8.766  0.1980  1.9345  0.0295
  168MOL0     H22643   2.574   8.012   8.584  0.9538  0.6438  1.0333
  168MOL0     H22644   2.712   8.264   8.276 -1.6233  0.9039  0.3492
  168MOL0     H22645   2.779   8.125   8.198  1.6889  1.8866  2.8230
  168MOL0     H22646   2.603   8.220   8.057 -1.9067  1.8402  0.6695
  168MOL0     H22647   2.549   8.061   8.121  2.5085  0.2767 -2.3585
  168MOL0     H22648   2.418   8.186   8.309  0.6095 -1.0845  0.4233
  168MOL0     H22649   2.473   8.337   8.237 -1.2756 -0.1531  1.4001
  168MOL0     H22650   2.310   8.119   8.112 -0.0599 -0.3703 -0.9779
  168MOL0     H22651   2.355   8.258   8.012 -3.5363 -1.2961 -0.3267
  168MOL0     H22652   2.211   8.404   8.164 -2.0814 -0.2319  1.3069
  168MOL0     H22653   2.217   8.278   8.284 -0.5678  0.8551  0.5125
  168MOL0     H22654   2.086   8.142   8.146  0.9405  0.2046  0.9662
  168MOL0     H22655   2.003   8.290   8.164 -1.6115 -0.9678 -1.2284
  168MOL0     H22656   2.160   8.220   7.896 -0.7306  0.7198 -2.3490
  168MOL0     H22657   2.090   8.370   7.939 -0.8405  0.6087 -1.2362
  168MOL0     H22658   1.965   8.264   7.791  0.7509  0.5778 -0.0300
  168MOL0     H22659   1.929   8.117   7.892 -1.8629  0.5590 -1.3332
  168MOL0     H22660   2.910   8.044   8.335 -3.4814  3.5571 -1.1183
  168MOL0     H22661   3.063   7.991   8.526 -0.0638 -0.1341 -1.5067
  168MOL0     H22662   3.081   7.910   8.978  1.1134  0.2594  1.8808
  168MOL0     H22663   3.204   7.820   9.186  0.0561  1.7286 -0.7999
  168MOL0     H22664   3.771   7.293  10.848  1.3576  0.1918  0.4778
  168MOL0     H22665   3.921   7.437  10.965  2.9251  1.5969 -0.5543
  168MOL0     H22666   4.169   7.851  10.844  0.6420 -0.5040 -1.1691
  168MOL0     H22667   4.321   8.030  10.911 -1.5240 -0.3113  0.7130
  168MOL0     H22668   4.707   7.929  11.113 -2.0872 -2.3166 -0.2438
  168MOL0     H22669   4.583   7.935  11.242 -0.2907  1.1545  0.1048
  168MOL0     H22670   4.731   8.169  11.116  2.9401 -2.6925 -0.1393
  168MOL0     H22671   4.761   8.103  11.277 -0.6217  0.1191  1.5942
  168MOL0     H22672   4.500   8.238  11.201  2.1619  1.8944 -1.8093
  168MOL0     H22673   4.631   8.324  11.268 -1.3081  1.1255  1.7421
  168MOL0     H22674   4.497   8.086  11.413 -2.2543  0.5079 -1.3235
  168MOL0     H22675   4.607   8.209  11.473 -2.0662 -1.5681  2.9312
  168MOL0     H22676   4.235   8.413  11.470  0.4318  0.1299  1.3088
  168MOL0     H22677   4.587   7.758  11.085  0.2987  3.6654 -0.7152
  168MOL0     H22678   4.442   7.446  10.999  2.6923  0.9295 -0.5781
  168MOL0     H22679   4.570   7.532  11.074  0.9239 -1.2296 -0.9860
  168MOL0     H22680   4.410   7.518  11.163 -0.5797  0.6669 -0.0688
  169MOL0     O22681   0.709   1.917   8.907  0.0388  0.8407 -0.1556
  169MOL0     C22682   0.593   1.893   8.927  0.1313 -0.4427  0.5401
  169MOL0     O22683   0.529   1.903   9.049  0.2264 -0.2318 -0.2650
  169MOL0     C22684   0.586   1.951   9.175 -0.0786  0.5128 -0.1346
  169MOL0     C22685   0.500   1.939   9.289  0.8060  0.2445  1.0377
  169MOL0     C22686   0.534   2.004   9.412 -0.5844 -0.2418  0.0762
  169MOL0     C22687   0.658   2.065   9.426  1.0424 -0.1862 -0.1842
  169MOL0     O22688   0.703   2.129   9.543  0.9263  0.7199  0.4108
  169MOL0     C22689   0.657   2.079   9.666 -0.2234  0.8009 -0.6926
  169MOL0     C22690   0.721   1.936   9.707 -1.0131 -0.0651  0.5635
  169MOL0     C22691   0.882   1.940   9.710  0.3672  0.3623  0.2180
  169MOL0     C22692   0.951   1.896   9.577  0.0713  0.4748  0.0195
  169MOL0     C22693   1.112   1.933   9.574 -0.4962  0.3031  0.3717
  169MOL0     C22694   1.186   1.837   9.478 -0.4433 -0.4160  0.5591
  169MOL0     C22695   1.333   1.884   9.453  0.2014  0.8442  0.6210
  169MOL0     C22696   1.398   1.773   9.358  0.2904  0.1569  0.1125
  169MOL0     N22697   1.538   1.803   9.327 -0.5456 -0.1444 -0.7050
  169MOL0     C22698   1.574   1.881   9.220  0.2571  0.4963 -0.4318
  169MOL0     C22699   1.702   1.865   9.194 -0.4262  0.1080 -0.3961
  169MOL0     C22700   1.768   1.954   9.092  0.1059  0.0393 -0.6003
  169MOL0     C22701   1.784   2.099   9.141  0.7651  0.2827 -1.0411
  169MOL0     C22702   1.837   2.193   9.037  0.6583  0.7031 -1.2313
  169MOL0     C22703   1.935   2.305   9.075 -0.4004 -0.1511  0.1090
  169MOL0     O22704   1.895   2.358   9.201  0.4468  0.4795  0.2154
  169MOL0     C22705   1.963   2.460   9.268  0.2018 -0.5238  0.2355
  169MOL0     C22706   2.088   2.510   9.224  0.0026  1.1103 -0.2107
  169MOL0     C22707   2.170   2.590   9.303 -0.4467  0.1123 -0.2068
  169MOL0     C22708   2.125   2.637   9.435  0.8091  0.3710  0.1600
  169MOL0     C22709   2.199   2.724   9.515 -0.2795  0.1970  0.1731
  169MOL0     O22710   2.135   2.793   9.605 -0.7476  0.1173  0.3207
  169MOL0     C22711   2.196   2.915   9.637 -0.2285  0.3315 -0.7600
  169MOL0     C22712   2.173   3.033   9.573  0.5428 -0.1160  0.1630
  169MOL0     C22713   2.220   3.154   9.631 -0.4317 -0.0582  1.0076
  169MOL0     C22714   2.299   3.156   9.743  0.6455  0.4443  0.2173
  169MOL0     O22715   2.356   3.276   9.783  0.3440 -0.1713 -0.9265
  169MOL0     C22716   2.367   3.284   9.929 -0.1294 -0.4003  0.5991
  169MOL0     C22717   2.399   3.428   9.977 -0.3767 -0.1418 -0.2384
  169MOL0     C22718   2.280   3.510   9.935 -0.4453 -0.8339 -0.0457
  169MOL0     C22719   2.280   3.656   9.991  0.5628  0.2641 -0.4558
  169MOL0     C22720   2.178   3.760   9.919 -0.6684  0.1678 -1.1576
  169MOL0     C22721   2.034   3.720   9.959 -0.5156  0.3125  0.7897
  169MOL0     C22722   1.943   3.838   9.932 -0.0345  0.4821 -0.2186
  169MOL0     C22723   1.818   3.803   9.867 -0.0294 -0.0251  0.6451
  169MOL0    Cl22724   1.857   3.756   9.692  0.1731 -0.0972  0.2132
  169MOL0     C22725   2.323   3.036   9.806 -0.1668  0.6805  0.0318
  169MOL0     C22726   2.276   2.916   9.749 -0.1949 -0.2986 -0.7534
  169MOL0     O22727   2.315   2.742   9.488  0.5457 -0.1055  0.3311
  169MOL0     C22728   2.000   2.586   9.476 -0.4082 -0.1078 -0.1908
  169MOL0     C22729   1.919   2.496   9.401 -0.7225  0.1494  0.0085
  169MOL0     N22730   1.747   1.780   9.296  0.8279  0.6603 -0.9056
  169MOL0     N22731   1.648   1.746   9.374 -0.0621  0.3191 -0.5105
  169MOL0     C22732   0.736   2.078   9.318  0.7674 -0.0299 -0.2890
  169MOL0     C22733   0.710   2.019   9.190 -0.2414  1.0649 -0.2167
  169MOL0     C22734   0.501   1.858   8.815 -0.1158 -0.0152 -0.4291
  169MOL0     C22735   0.359   1.827   8.831  0.3427 -0.6732  0.4112
  169MOL0     C22736   0.266   1.800   8.725  0.0487  0.2806  0.1407
  169MOL0     C22737   0.309   1.811   8.592 -0.0470  0.6555 -0.2178
  169MOL0     O22738   0.210   1.781   8.500 -0.4683  0.0282  0.2174
  169MOL0     C22739   0.226   1.823   8.363  0.3909 -0.4006 -0.4213
  169MOL0     C22740   0.255   1.688   8.299  0.3558 -0.8824  0.2181
  169MOL0     C22741   0.322   1.703   8.158 -0.3932  0.8440 -0.7447
  169MOL0     C22742   0.473   1.744   8.153  0.2563 -0.1900  0.1276
  169MOL0     C22743   0.556   1.683   8.250 -1.0401  0.2635  0.2141
  169MOL0     C22744   0.636   1.649   8.339  0.1667 -0.4511  0.2705
  169MOL0     C22745   0.446   1.835   8.577  0.4792  0.3954 -0.2734
  169MOL0     C22746   0.544   1.853   8.681  0.4151 -0.2792  0.9786
  169MOL0     C22747   0.682   1.870   8.635 -0.9853  0.6732  1.3151
  169MOL0     H22748   0.403   1.893   9.279 -1.6691  5.0879 -0.5118
  169MOL0     H22749   0.470   2.007   9.499 -1.0467  0.3942 -0.2740
  169MOL0     H22750   0.682   2.152   9.744 -4.0180  1.1220  0.4099
  169MOL0     H22751   0.548   2.072   9.671 -0.0980 -1.1251  0.1098
  169MOL0     H22752   0.689   1.852   9.645  3.3065 -1.8322  0.3834
  169MOL0     H22753   0.683   1.931   9.809  0.2285 -0.7415  1.0169
  169MOL0     H22754   0.907   1.866   9.786 -1.8593 -2.2001 -1.3430
  169MOL0     H22755   0.909   2.039   9.748  0.0709 -0.2443  2.1160
  169MOL0     H22756   0.957   1.787   9.580  3.9420  0.5361  2.3734
  169MOL0     H22757   0.902   1.937   9.489  0.6542  3.1856  0.8740
  169MOL0     H22758   1.125   2.039   9.550  0.4280 -0.1680 -1.3487
  169MOL0     H22759   1.158   1.913   9.672  2.5490 -1.6758 -1.3232
  169MOL0     H22760   1.179   1.736   9.519  0.7804 -0.0267  1.7671
  169MOL0     H22761   1.132   1.838   9.382 -2.5038 -3.8783  1.5236
  169MOL0     H22762   1.383   1.883   9.551  0.7918  2.6793  0.3615
  169MOL0     H22763   1.339   1.975   9.393  3.2325 -1.2038 -2.5384
  169MOL0     H22764   1.377   1.678   9.408 -4.0555  0.0707 -1.4492
  169MOL0     H22765   1.337   1.772   9.267  0.9971 -1.8712 -0.3836
  169MOL0     H22766   1.512   1.924   9.142 -0.4228 -2.2046 -1.5056
  169MOL0     H22767   1.864   1.908   9.067 -0.0300 -1.1098  0.8522
  169MOL0     H22768   1.709   1.958   9.000 -0.5444  0.5016 -0.1673
  169MOL0     H22769   1.684   2.135   9.165  0.2835 -1.8476  0.4200
  169MOL0     H22770   1.847   2.095   9.230 -0.0492  1.0152 -0.4198
  169MOL0     H22771   1.750   2.247   8.998  0.1307  0.6111 -0.2248
  169MOL0     H22772   1.873   2.129   8.955 -1.2603 -3.4229  0.8459
  169MOL0     H22773   1.964   2.372   8.994 -0.0136  2.1008  1.9947
  169MOL0     H22774   2.029   2.249   9.089 -1.2551 -1.2830  1.7652
  169MOL0     H22775   2.133   2.472   9.132 -1.1791 -0.0929 -0.3292
  169MOL0     H22776   2.267   2.619   9.263 -1.1205  3.1464  0.0483
  169MOL0     H22777   2.105   3.028   9.489  0.2762  1.4616  0.2564
  169MOL0     H22778   2.206   3.244   9.572 -1.7583 -2.1504 -2.1584
  169MOL0     H22779   2.277   3.260   9.986 -0.7918  0.0331 -0.2610
  169MOL0     H22780   2.443   3.217   9.972 -0.3494 -0.0753  1.5278
  169MOL0     H22781   2.391   3.430  10.086 -1.7284 -0.7665 -0.2986
  169MOL0     H22782   2.493   3.466   9.937 -1.1136 -0.2898 -2.2297
  169MOL0     H22783   2.275   3.534   9.828  2.5158 -0.4711 -0.1865
  169MOL0     H22784   2.189   3.457   9.965  0.5412 -3.2028 -1.0338
  169MOL0     H22785   2.383   3.686   9.971  0.7898 -1.6663 -2.7017
  169MOL0     H22786   2.262   3.647  10.098  2.7996  0.1851 -0.0406
  169MOL0     H22787   2.187   3.769   9.810 -4.7474  2.8991 -1.5307
  169MOL0     H22788   2.207   3.856   9.963  0.4244 -0.9634  0.6905
  169MOL0     H22789   2.014   3.630   9.900  3.1892 -0.8414  1.0255
  169MOL0     H22790   2.017   3.702  10.066  1.4146 -1.1754  0.8946
  169MOL0     H22791   2.002   3.899   9.864  1.1804 -0.6609 -0.2222
  169MOL0     H22792   1.917   3.905  10.015  1.3447  1.3137 -0.4288
  169MOL0     H22793   1.763   3.726   9.921  1.8589 -0.9707  1.2736
  169MOL0     H22794   1.772   3.900   9.848  0.3460 -0.0571 -0.4896
  169MOL0     H22795   2.389   3.025   9.891  1.3055  2.7298 -0.7669
  169MOL0     H22796   2.296   2.821   9.796  0.1047 -1.9964 -4.0110
  169MOL0     H22797   1.960   2.630   9.567  0.0915  3.1818 -1.4428
  169MOL0     H22798   1.829   2.459   9.449  0.2575 -0.5397  1.4003
  169MOL0     H22799   0.822   2.141   9.340 -0.4712  1.5476  0.1800
  169MOL0     H22800   0.775   2.032   9.105 -0.2402  1.4745 -0.1551
  169MOL0     H22801   0.305   1.827   8.925 -2.7496 -0.3126 -1.2390
  169MOL0     H22802   0.170   1.754   8.744  0.9095 -1.6289  0.1255
  169MOL0     H22803   0.310   1.890   8.342  1.6223 -1.5029  0.8168
  169MOL0     H22804   0.136   1.871   8.322  1.3483  0.9386 -1.0222
  169MOL0     H22805   0.169   1.620   8.299 -0.0395 -0.4694 -2.3422
  169MOL0     H22806   0.325   1.636   8.364  0.8389  0.0383  0.4497
  169MOL0     H22807   0.258   1.767   8.096 -4.0187  2.2324  3.8114
  169MOL0     H22808   0.306   1.599   8.127 -0.5114  0.0840  1.7086
  169MOL0     H22809   0.513   1.704   8.059  0.4403 -0.5677  0.3639
  169MOL0     H22810   0.483   1.852   8.165 -1.1808  0.1966 -1.7284
  169MOL0     H22811   0.710   1.616   8.410  0.6974 -2.1634 -1.0274
  169MOL0     H22812   0.473   1.843   8.472 -2.1331 -1.0933 -1.1555
  169MOL0     H22813   0.755   1.817   8.697  2.6841  1.3357 -2.0009
  169MOL0     H22814   0.697   1.833   8.533 -2.3336  1.3473  0.8447
  169MOL0     H22815   0.714   1.975   8.645  1.3521 -0.1787  3.9505
  170MOL0     O22816  11.237   6.095   7.478 -0.1849 -0.7695 -0.0566
  170MOL0     C22817  11.324   6.027   7.530 -0.4743  0.4333 -0.2860
  170MOL0     O22818  11.313   5.930   7.631 -0.0733  0.4345 -0.2713
  170MOL0     C22819  11.195   5.930   7.695  0.3333 -0.2074 -0.6394
  170MOL0     C22820  11.195   5.997   7.818 -0.0120 -0.4957 -0.0572
  170MOL0     C22821  11.077   6.015   7.884  0.7418 -0.5409  0.0741
  170MOL0     C22822  10.947   5.979   7.833 -0.8986  0.2634  0.0638
  170MOL0     O22823  10.837   5.999   7.909  0.6000  0.5155  0.6611
  170MOL0     C22824  10.819   6.123   7.979 -0.2477  0.0131  1.0530
  170MOL0     C22825  10.681   6.183   7.956  0.1225 -0.2016  0.0046
  170MOL0     C22826  10.577   6.109   7.883 -0.0760  0.3862  0.1026
  170MOL0     C22827  10.448   6.186   7.904 -0.6044  0.0212  0.3713
  170MOL0     C22828  10.345   6.136   7.806 -0.9876 -0.2261  0.4944
  170MOL0     C22829  10.227   6.229   7.787  0.3317 -0.4297 -0.7105
  170MOL0     C22830  10.143   6.199   7.666 -0.8197 -0.4089  0.4404
  170MOL0     C22831  10.012   6.283   7.653 -0.7456 -0.8542  0.0990
  170MOL0     N22832   9.911   6.190   7.616  0.5359  0.2978 -0.3150
  170MOL0     C22833   9.871   6.067   7.673  0.4889 -0.3498  0.2834
  170MOL0     C22834   9.746   6.043   7.615 -0.4262  0.2858  0.1633
  170MOL0     C22835   9.652   5.919   7.632 -0.1587 -0.0174  0.0872
  170MOL0     C22836   9.705   5.781   7.646 -1.4552  0.6055  0.7188
  170MOL0     C22837   9.795   5.748   7.530  0.2473 -0.2548 -0.8318
  170MOL0     C22838   9.886   5.622   7.544  0.3993  0.4323 -0.9886
  170MOL0     O22839  10.005   5.651   7.624  0.1658 -0.5394 -0.1719
  170MOL0     C22840  10.070   5.556   7.694 -1.3446  0.0836 -0.3058
  170MOL0     C22841  10.208   5.543   7.695  0.3451  0.9447 -1.2323
  170MOL0     C22842  10.266   5.432   7.770 -0.0714 -0.6789  0.0128
  170MOL0     C22843  10.183   5.349   7.851  0.2861 -0.7510 -0.2989
  170MOL0     C22844  10.232   5.236   7.933 -0.6577 -0.8432  0.7973
  170MOL0     O22845  10.353   5.188   7.879 -0.2710 -0.8350 -0.2972
  170MOL0     C22846  10.435   5.088   7.933  0.0730  0.0650 -0.1919
  170MOL0     C22847  10.374   4.973   7.991  0.3052  0.8143 -0.8426
  170MOL0     C22848  10.461   4.879   8.061  1.5858  0.2281 -0.1046
  170MOL0     C22849  10.600   4.885   8.055 -0.5841 -0.1206  0.9590
  170MOL0     O22850  10.693   4.803   8.120 -1.0637  0.5025  0.3081
  170MOL0     C22851  10.646   4.730   8.240 -0.2679  0.1560  0.4465
  170MOL0     C22852  10.755   4.673   8.327 -0.2053 -0.0658  0.0742
  170MOL0     C22853  10.851   4.584   8.258  0.1160  0.1131  0.4633
  170MOL0     C22854  10.801   4.442   8.216 -0.6526  0.0138 -0.7429
  170MOL0     C22855  10.912   4.393   8.119 -0.2634 -0.4209  1.1186
  170MOL0     C22856  10.898   4.237   8.098  0.0323  0.1120 -0.3929
  170MOL0     C22857  11.024   4.169   8.034  0.6403  0.4101  1.0881
  170MOL0     C22858  11.148   4.143   8.124 -0.2637 -0.1907  0.1053
  170MOL0    Cl22859  11.124   3.998   8.216  0.0946  0.1251  0.3844
  170MOL0     C22860  10.650   4.990   7.979 -0.0071  0.7170  0.0079
  170MOL0     C22861  10.577   5.098   7.925  0.4029  0.4618 -0.2838
  170MOL0     O22862  10.161   5.178   8.007  0.5215 -0.4650 -0.0479
  170MOL0     C22863  10.046   5.375   7.852  0.4580  0.8244  0.2937
  170MOL0     C22864   9.994   5.465   7.763 -0.4721 -0.0157  0.4698
  170MOL0     N22865   9.732   6.144   7.528  1.0511  0.7171  0.3455
  170MOL0     N22866   9.817   6.235   7.535 -0.4397  0.2136 -0.5092
  170MOL0     C22867  10.950   5.912   7.711 -0.7167 -0.1763  0.3484
  170MOL0     C22868  11.072   5.888   7.644  0.6378 -0.3395 -0.8227
  170MOL0     C22869  11.458   6.050   7.469  0.3560  0.7175 -0.4631
  170MOL0     C22870  11.486   6.176   7.418  0.6046  0.7669  0.4807
  170MOL0     C22871  11.619   6.205   7.382  0.8303 -0.5210  0.2915
  170MOL0     C22872  11.720   6.107   7.397  0.2382  0.7905 -0.3202
  170MOL0     O22873  11.849   6.136   7.358  0.2835 -0.6608 -0.8036
  170MOL0     C22874  11.949   6.046   7.392  0.8783 -0.5958 -1.1708
  170MOL0     C22875  12.083   6.091   7.353  0.7566  0.2711 -0.4695
  170MOL0     C22876  12.136   6.209   7.422  0.1973  0.3443  0.7343
  170MOL0     C22877  12.274   6.260   7.366 -0.0843  0.3158 -0.4920
  170MOL0     C22878  12.285   6.265   7.219  0.1516 -0.1870 -0.5488
  170MOL0     C22879  12.301   6.255   7.096  0.2216 -0.6758 -0.1557
  170MOL0     C22880  11.689   5.976   7.449  0.4076 -0.1211 -0.3167
  170MOL0     C22881  11.557   5.953   7.489 -1.4406  0.3551  0.5767
  170MOL0     C22882  11.542   5.804   7.521  0.5539 -0.7134  0.0078
  170MOL0     H22883  11.286   6.027   7.869 -1.5388 -1.2939  3.4426
  170MOL0     H22884  11.083   6.062   7.982  1.0101 -1.6190  0.5922
  170MOL0     H22885  10.826   6.094   8.084  0.7286  0.1999  1.0463
  170MOL0     H22886  10.897   6.198   7.966  1.1122 -1.5302 -0.2056
  170MOL0     H22887  10.697   6.277   7.903  2.0283 -1.5203 -1.8973
  170MOL0     H22888  10.640   6.202   8.056  2.1702 -3.2837  1.5731
  170MOL0     H22889  10.552   6.005   7.906 -2.3996  0.0564 -3.1510
  170MOL0     H22890  10.605   6.099   7.778 -0.0229 -0.1263  0.1595
  170MOL0     H22891  10.420   6.175   8.010  1.4465  1.3199  1.1119
  170MOL0     H22892  10.464   6.290   7.876 -0.6623 -0.1498 -0.3079
  170MOL0     H22893  10.392   6.134   7.707 -0.3751 -0.5717  0.7873
  170MOL0     H22894  10.309   6.039   7.842 -0.8442 -0.3683  0.2591
  170MOL0     H22895  10.163   6.228   7.876  1.1449  2.5528  0.0006
  170MOL0     H22896  10.261   6.333   7.782  0.5739 -0.5508 -3.1413
  170MOL0     H22897  10.119   6.093   7.670  0.0751 -0.6177  3.4326
  170MOL0     H22898  10.198   6.221   7.574 -1.2958  1.0390  0.4804
  170MOL0     H22899   9.977   6.320   7.750 -1.5875 -1.1233 -0.0878
  170MOL0     H22900  10.012   6.376   7.596 -1.9484 -0.9818 -0.1476
  170MOL0     H22901   9.916   6.018   7.759 -3.1144 -1.4797  1.7156
  170MOL0     H22902   9.594   5.946   7.720 -0.6465  0.1732 -0.2883
  170MOL0     H22903   9.593   5.920   7.540 -0.5447 -0.2003  0.3329
  170MOL0     H22904   9.743   5.780   7.749 -6.3210 -1.7988  2.8274
  170MOL0     H22905   9.628   5.704   7.636  1.0955 -1.9614 -0.3187
  170MOL0     H22906   9.870   5.824   7.507  3.5070 -2.4407  1.7106
  170MOL0     H22907   9.723   5.739   7.448 -0.2598  0.0871 -0.4316
  170MOL0     H22908   9.905   5.590   7.441  1.6709  1.6944 -1.1654
  170MOL0     H22909   9.825   5.552   7.602  0.9989  2.6433  2.6373
  170MOL0     H22910  10.272   5.598   7.628  1.3116 -1.6343 -2.5707
  170MOL0     H22911  10.372   5.410   7.758  0.6772  1.8596  1.1314
  170MOL0     H22912  10.269   4.948   7.998 -0.2782  2.8805 -1.4573
  170MOL0     H22913  10.410   4.803   8.119  3.5667 -1.8913 -0.9701
  170MOL0     H22914  10.592   4.799   8.306 -0.4951 -0.6712  1.1519
  170MOL0     H22915  10.583   4.648   8.203  0.3464 -0.0532 -0.1463
  170MOL0     H22916  10.805   4.753   8.383  0.5965 -1.4509  1.4140
  170MOL0     H22917  10.712   4.614   8.408 -0.9472 -1.1499 -1.0829
  170MOL0     H22918  10.880   4.632   8.164 -2.0435 -0.0538 -0.3286
  170MOL0     H22919  10.946   4.573   8.311  1.2580 -0.0514 -1.5383
  170MOL0     H22920  10.699   4.433   8.178 -0.7451  1.0624 -0.7824
  170MOL0     H22921  10.789   4.388   8.310  3.4530 -1.0260 -0.6385
  170MOL0     H22922  11.007   4.399   8.174 -1.4161  1.6835  3.0769
  170MOL0     H22923  10.929   4.451   8.028  3.6500  0.0732  1.9767
  170MOL0     H22924  10.890   4.187   8.195  0.0568  0.2803 -0.3037
  170MOL0     H22925  10.805   4.216   8.045 -1.7787 -0.8788  2.9159
  170MOL0     H22926  11.040   4.217   7.936 -2.3473  2.0234  1.2662
  170MOL0     H22927  10.999   4.070   7.996  0.9528  0.8530 -0.3499
  170MOL0     H22928  11.235   4.147   8.058  1.1757  0.4978  1.9599
  170MOL0     H22929  11.150   4.223   8.198 -0.0726 -1.4393  1.4971
  170MOL0     H22930  10.757   4.994   7.965 -0.1076  1.3844 -0.6985
  170MOL0     H22931  10.623   5.187   7.882  1.3888  0.1016 -0.0044
  170MOL0     H22932   9.978   5.310   7.905  1.5561 -0.7047 -0.0719
  170MOL0     H22933   9.887   5.477   7.779 -0.8578 -3.4480  1.2082
  170MOL0     H22934  10.856   5.877   7.670 -1.5781 -0.5699  2.5010
  170MOL0     H22935  11.079   5.838   7.548  1.0032 -0.1575 -0.8893
  170MOL0     H22936  11.415   6.257   7.400  2.5153  2.1566 -1.3510
  170MOL0     H22937  11.647   6.308   7.363 -0.4481 -0.2152 -0.0372
  170MOL0     H22938  11.924   5.952   7.343  2.3812 -1.2886 -0.6600
  170MOL0     H22939  11.946   6.016   7.497 -0.1050  2.1723 -0.3169
  170MOL0     H22940  12.081   6.110   7.245 -0.3296 -1.7857 -0.8632
  170MOL0     H22941  12.158   6.015   7.376  1.5543  1.2336  0.1550
  170MOL0     H22942  12.135   6.191   7.530  1.1785  1.6499  0.9697
  170MOL0     H22943  12.063   6.287   7.397 -1.4094 -1.3452 -0.1347
  170MOL0     H22944  12.299   6.358   7.406  1.5909  0.7756 -2.4618
  170MOL0     H22945  12.351   6.195   7.408  0.1354  1.4903  0.9938
  170MOL0     H22946  12.328   6.255   6.992  0.5170 -1.4381 -0.0891
  170MOL0     H22947  11.751   5.887   7.455  0.6355  0.0830  0.5411
  170MOL0     H22948  11.631   5.739   7.520  0.1085 -1.4134  2.0403
  170MOL0     H22949  11.519   5.799   7.627  0.9967  2.8397  0.3698
  170MOL0     H22950  11.469   5.763   7.450  0.9925 -0.1454 -0.7890
  171MOL0     O22951  10.162   8.992  10.624 -0.1543  0.0499  0.2378
  171MOL0     C22952  10.048   9.007  10.631 -0.1320  0.4914 -0.5635
  171MOL0     O22953   9.953   8.914  10.653  0.1837  0.1511 -0.0384
  171MOL0     C22954   9.988   8.779  10.627 -0.3230  0.7184 -0.1977
  171MOL0     C22955   9.959   8.686  10.726  0.1725  0.1921  0.0243
  171MOL0     C22956   9.989   8.551  10.721  0.4217  0.2975  0.9971
  171MOL0     C22957  10.041   8.501  10.597 -0.2995 -0.6770 -0.9174
  171MOL0     O22958  10.078   8.368  10.593  0.4509 -0.2051 -0.4095
  171MOL0     C22959  10.078   8.306  10.475 -0.9744 -0.1198 -0.7141
  171MOL0     C22960  10.054   8.159  10.484  0.3105  0.3498 -0.8168
  171MOL0     C22961   9.902   8.123  10.502  0.3912  0.3616 -0.7421
  171MOL0     C22962   9.855   7.987  10.446 -0.1005  0.2945 -0.2587
  171MOL0     C22963   9.941   7.867  10.478 -0.3094 -1.0573 -0.6222
  171MOL0     C22964   9.876   7.736  10.422 -0.5154 -0.0100 -0.2169
  171MOL0     C22965   9.922   7.611  10.497 -0.1571 -0.3543  0.5299
  171MOL0     C22966  10.069   7.595  10.473  0.8586  0.1764 -0.2372
  171MOL0     N22967  10.124   7.470  10.534 -0.7779 -0.2386 -0.0359
  171MOL0     C22968  10.181   7.362  10.470  0.0920 -0.4731 -0.4466
  171MOL0     C22969  10.209   7.271  10.564  0.1659  0.0084  0.5252
  171MOL0     C22970  10.266   7.135  10.561  0.1111 -0.9249  0.5096
  171MOL0     C22971  10.157   7.023  10.537 -0.0085  0.0633 -0.7351
  171MOL0     C22972  10.234   6.890  10.533  0.5002  0.0428  0.5369
  171MOL0     C22973  10.150   6.776  10.471  0.2816 -1.0812  0.7339
  171MOL0     O22974  10.040   6.757  10.560  0.9270  0.2668  0.5126
  171MOL0     C22975   9.927   6.695  10.507  0.2749  0.8160  0.4013
  171MOL0     C22976   9.947   6.593  10.413  0.2280 -0.6067 -0.6719
  171MOL0     C22977   9.842   6.512  10.363  0.5857 -0.8582  0.2382
  171MOL0     C22978   9.705   6.530  10.408  0.4874 -0.6989  0.6262
  171MOL0     C22979   9.594   6.446  10.358 -0.0702  0.1697  1.0940
  171MOL0     O22980   9.631   6.334  10.287  0.0497  0.5681  0.3944
  171MOL0     C22981   9.532   6.267  10.224  0.0892 -0.3229 -0.9508
  171MOL0     C22982   9.529   6.274  10.086 -0.0454  0.1505  0.3060
  171MOL0     C22983   9.448   6.178  10.017 -0.1489 -0.3922  0.2689
  171MOL0     C22984   9.364   6.089  10.078  0.3920  0.2496  0.1327
  171MOL0     O22985   9.281   5.992  10.017  0.1362 -1.1088 -0.1365
  171MOL0     C22986   9.329   5.955   9.882 -0.5284 -0.1577  0.6755
  171MOL0     C22987   9.271   5.826   9.839  0.2894  0.2655  0.7293
  171MOL0     C22988   9.129   5.849   9.777 -0.0829 -1.0019  0.3382
  171MOL0     C22989   9.074   5.737   9.692  0.3430  0.2509  0.0182
  171MOL0     C22990   8.922   5.753   9.660  0.1488  0.0529  0.2011
  171MOL0     C22991   8.873   5.623   9.590  0.3423 -0.5892  0.4997
  171MOL0     C22992   8.721   5.627   9.555 -0.2108  0.4244 -0.1522
  171MOL0     C22993   8.671   5.501   9.493  0.7976 -0.6559  0.3861
  171MOL0    Cl22994   8.515   5.491   9.429  0.0485  0.3159 -0.2308
  171MOL0     C22995   9.357   6.095  10.221 -0.4312  0.0191 -0.1544
  171MOL0     C22996   9.441   6.188  10.295 -0.1300 -0.3807  0.1961
  171MOL0     O22997   9.476   6.480  10.378  0.2313  0.5922  0.0461
  171MOL0     C22998   9.684   6.640  10.496  0.1452  0.1952 -0.0266
  171MOL0     C22999   9.798   6.710  10.557 -1.0155 -0.6784  0.1438
  171MOL0     N23000  10.163   7.324  10.686  0.2582 -0.3215 -0.5026
  171MOL0     N23001  10.119   7.441  10.669 -0.0781 -0.1447  0.0451
  171MOL0     C23002  10.071   8.596  10.494 -1.2646  0.0527  0.3741
  171MOL0     C23003  10.049   8.729  10.513 -1.5580  0.0631 -0.3509
  171MOL0     C23004   9.990   9.142  10.630 -0.4446  0.0851 -0.5712
  171MOL0     C23005  10.064   9.222  10.549  0.8280  0.2362  1.1314
  171MOL0     C23006  10.027   9.355  10.523 -0.3630  0.1465  0.3082
  171MOL0     C23007   9.905   9.402  10.570  0.6792 -0.2943 -1.4623
  171MOL0     O23008   9.869   9.530  10.549  0.0758 -0.3657  0.2368
  171MOL0     C23009   9.733   9.569  10.566 -0.1912 -0.4494 -0.5888
  171MOL0     C23010   9.725   9.721  10.527 -0.5994  0.5413 -0.1605
  171MOL0     C23011   9.752   9.740  10.375  0.6382  0.0323 -0.3059
  171MOL0     C23012   9.719   9.889  10.349  0.6888  0.2293 -0.9707
  171MOL0     C23013   9.705   9.898  10.204  0.2063 -1.1619  0.6128
  171MOL0     C23014   9.701   9.914  10.087  0.6805  0.9986 -0.3658
  171MOL0     C23015   9.822   9.326  10.656  0.1889  0.2356  0.8508
  171MOL0     C23016   9.869   9.197  10.686 -0.2928 -0.0766  0.3099
  171MOL0     C23017   9.778   9.114  10.775 -0.0139  0.5365  1.4171
  171MOL0     H23018   9.908   8.708  10.820  1.8452  0.1926  0.9837
  171MOL0     H23019   9.957   8.483  10.799  3.0041 -2.0876  0.1789
  171MOL0     H23020   9.999   8.351  10.414 -0.7523  2.3052  0.6715
  171MOL0     H23021  10.173   8.330  10.425 -1.2070  1.1191 -0.5958
  171MOL0     H23022  10.099   8.120  10.576  1.8186 -1.0773 -2.1002
  171MOL0     H23023  10.089   8.111  10.392  3.1537 -0.5283  0.6181
  171MOL0     H23024   9.840   8.204  10.463 -0.8688 -0.6050 -0.8039
  171MOL0     H23025   9.880   8.116  10.609  0.7580 -1.1038 -0.7478
  171MOL0     H23026   9.754   7.966  10.484 -0.6805 -1.0835 -2.3984
  171MOL0     H23027   9.856   8.008  10.339 -0.8517  2.4407  0.1089
  171MOL0     H23028  10.038   7.879  10.429 -0.9656  1.4628 -1.4874
  171MOL0     H23029   9.956   7.871  10.586  0.1928  3.1763 -0.6542
  171MOL0     H23030   9.769   7.740  10.443 -0.6055 -2.5007  0.0764
  171MOL0     H23031   9.883   7.725  10.313  0.9077  3.9856 -0.6729
  171MOL0     H23032   9.868   7.519  10.472 -0.7894 -0.1967  1.2867
  171MOL0     H23033   9.906   7.629  10.603 -0.5614 -2.4165  0.8600
  171MOL0     H23034  10.079   7.605  10.364 -0.4374 -0.5852 -0.4498
  171MOL0     H23035  10.112   7.678  10.529 -3.7586  1.5816  1.7015
  171MOL0     H23036  10.191   7.339  10.364  0.7555  1.7445 -0.9218
  171MOL0     H23037  10.335   7.127  10.477  1.6855 -0.2668  1.6944
  171MOL0     H23038  10.328   7.134  10.651  0.4279 -1.2519  0.2873
  171MOL0     H23039  10.090   7.016  10.623 -0.1447 -0.6380 -0.8861
  171MOL0     H23040  10.097   7.035  10.446 -1.5402  0.8892  0.3476
  171MOL0     H23041  10.259   6.864  10.636  0.3586  0.2998  0.6362
  171MOL0     H23042  10.331   6.902  10.483  1.7415 -0.5814  2.6997
  171MOL0     H23043  10.219   6.693  10.456 -0.1931 -1.2060 -0.9334
  171MOL0     H23044  10.117   6.810  10.373  1.2847 -0.2940  0.6571
  171MOL0     H23045  10.048   6.570  10.379  0.2058 -2.2603  0.2845
  171MOL0     H23046   9.870   6.433  10.295 -3.6776 -1.7581 -0.7596
  171MOL0     H23047   9.598   6.330  10.024 -0.9872  0.9557 -0.0546
  171MOL0     H23048   9.459   6.194   9.910  1.0011  1.6103  0.6375
  171MOL0     H23049   9.298   6.034   9.812 -0.2215  0.2004  0.9421
  171MOL0     H23050   9.437   5.943   9.870 -0.6104 -0.8699  0.5961
  171MOL0     H23051   9.342   5.780   9.770 -0.4880 -0.7399  0.5580
  171MOL0     H23052   9.258   5.761   9.927  1.0297 -2.0596 -0.7764
  171MOL0     H23053   9.056   5.855   9.859  0.2865 -1.7124  0.7292
  171MOL0     H23054   9.126   5.940   9.717  0.8069 -0.1953  1.4812
  171MOL0     H23055   9.086   5.639   9.739  4.1931 -1.4572 -3.8398
  171MOL0     H23056   9.128   5.732   9.597 -2.5241 -0.3638 -1.7003
  171MOL0     H23057   8.904   5.823   9.578 -1.9762 -0.7688 -0.0853
  171MOL0     H23058   8.868   5.787   9.749 -0.5980  0.2196 -0.3125
  171MOL0     H23059   8.935   5.607   9.500 -0.0782  0.5398 -0.0059
  171MOL0     H23060   8.886   5.542   9.662 -0.1526  1.6658  3.2766
  171MOL0     H23061   8.711   5.702   9.475 -0.9038  1.3812  0.8120
  171MOL0     H23062   8.666   5.663   9.642 -0.4889 -1.0590  0.3072
  171MOL0     H23063   8.735   5.474   9.409  1.7879  1.2807  0.4822
  171MOL0     H23064   8.680   5.416   9.562  2.0695 -0.6981  0.1968
  171MOL0     H23065   9.286   6.031  10.272 -0.5214  0.4465  0.2554
  171MOL0     H23066   9.436   6.188  10.404 -1.6405 -1.1949  0.1602
  171MOL0     H23067   9.593   6.684  10.536  0.5839 -0.4424  1.7193
  171MOL0     H23068   9.776   6.789  10.627  0.8684  0.0974 -0.0920
  171MOL0     H23069  10.134   8.562  10.413  1.1024  0.7123  1.8388
  171MOL0     H23070  10.074   8.802  10.436  0.0566 -2.3462 -2.2552
  171MOL0     H23071  10.155   9.186  10.502  0.6541  2.0259 -0.7039
  171MOL0     H23072  10.079   9.422  10.456 -0.4267  0.3660  0.4758
  171MOL0     H23073   9.716   9.554  10.673  0.5428  0.1352 -0.3795
  171MOL0     H23074   9.677   9.498  10.505  2.2316 -2.0518 -1.0774
  171MOL0     H23075   9.803   9.768  10.588  0.0664  0.3615 -0.8485
  171MOL0     H23076   9.630   9.766  10.556 -1.1536 -1.6987  1.8513
  171MOL0     H23077   9.678   9.677  10.324  0.2142 -0.0746  0.4287
  171MOL0     H23078   9.847   9.701  10.339 -0.0277 -1.4520 -0.5114
  171MOL0     H23079   9.626   9.919  10.397  1.5494  1.0641  0.2180
  171MOL0     H23080   9.801   9.943  10.396  1.8021 -2.1260 -0.0183
  171MOL0     H23081   9.685   9.916   9.981 -0.2545  0.9886 -0.2343
  171MOL0     H23082   9.724   9.357  10.690 -0.5609  1.2498 -1.9522
  171MOL0     H23083   9.710   9.057  10.711 -0.9870  2.1538  0.9620
  171MOL0     H23084   9.837   9.049  10.841 -0.9180  0.3283  2.0355
  171MOL0     H23085   9.719   9.182  10.837 -0.7060  0.5504  0.7539
  172MOL0     O23086   3.803   7.555   3.461 -0.4123 -0.4728  0.0233
  172MOL0     C23087   3.897   7.641   3.471  0.0798  1.3062  0.1163
  172MOL0     O23088   3.933   7.704   3.578  0.4025 -0.5392 -0.4217
  172MOL0     C23089   3.892   7.685   3.702  0.7670  0.2716  0.2729
  172MOL0     C23090   3.757   7.694   3.738 -0.0899 -0.0382 -0.4361
  172MOL0     C23091   3.722   7.711   3.870 -0.2711  0.3665 -0.6956
  172MOL0     C23092   3.822   7.697   3.971  0.2978  1.1115 -0.6758
  172MOL0     O23093   3.799   7.713   4.105 -0.3654  0.2263  0.6110
  172MOL0     C23094   3.657   7.720   4.155  0.5286 -0.4385  0.1710
  172MOL0     C23095   3.687   7.704   4.307 -0.0742  0.6085  0.1317
  172MOL0     C23096   3.562   7.731   4.391  0.6089 -0.2750 -0.6991
  172MOL0     C23097   3.547   7.632   4.506  0.8265  0.4173 -0.8083
  172MOL0     C23098   3.421   7.663   4.579 -0.1395  0.4284 -0.2377
  172MOL0     C23099   3.376   7.546   4.659  0.3091  0.0190 -0.2482
  172MOL0     C23100   3.253   7.576   4.746 -0.3554  0.3595 -0.5139
  172MOL0     C23101   3.212   7.457   4.838  0.3671  0.2393  0.3859
  172MOL0     N23102   3.323   7.393   4.917  0.0253  0.3073  0.8816
  172MOL0     C23103   3.360   7.259   4.916 -0.0757 -0.3229 -0.5022
  172MOL0     C23104   3.464   7.245   5.009  0.0210  0.3568  0.5966
  172MOL0     C23105   3.532   7.114   5.033  0.1445  0.4854  0.1218
  172MOL0     C23106   3.445   7.020   5.126  0.1358  0.5522  0.5629
  172MOL0     C23107   3.527   6.904   5.162 -0.3616  1.2673  0.3728
  172MOL0     C23108   3.649   6.938   5.253  0.3195  0.5776 -0.7894
  172MOL0     O23109   3.694   6.813   5.316  0.1320  0.7361  0.1003
  172MOL0     C23110   3.772   6.724   5.238 -1.1092 -0.0328  0.4324
  172MOL0     C23111   3.831   6.756   5.111  0.0107 -0.3133 -0.6167
  172MOL0     C23112   3.902   6.651   5.039  0.2467 -1.1919 -0.4120
  172MOL0     C23113   3.926   6.519   5.084 -0.3978 -0.4131 -0.7648
  172MOL0     C23114   3.994   6.417   5.007  0.4038 -0.2031  0.3837
  172MOL0     O23115   4.017   6.432   4.869 -0.2506 -0.5937 -0.4349
  172MOL0     C23116   4.085   6.324   4.813 -0.9439  0.0779 -0.1487
  172MOL0     C23117   4.230   6.329   4.787  0.7948 -0.4705 -0.3925
  172MOL0     C23118   4.292   6.213   4.742 -0.7954 -0.4011  0.3199
  172MOL0     C23119   4.222   6.099   4.701  0.0179  0.7411 -0.1797
  172MOL0     O23120   4.278   5.993   4.646 -0.6909 -0.0154  0.0227
  172MOL0     C23121   4.410   6.001   4.588 -0.1047 -0.1125 -0.3824
  172MOL0     C23122   4.404   6.037   4.433 -0.8915  0.3025  0.5458
  172MOL0     C23123   4.535   5.998   4.361  0.2184 -0.8331  0.2241
  172MOL0     C23124   4.506   6.038   4.221  0.3789 -0.2920  0.6684
  172MOL0     C23125   4.626   5.986   4.131  0.3425  0.5208 -0.0903
  172MOL0     C23126   4.767   6.025   4.186 -0.3245 -0.6348 -0.6874
  172MOL0     C23127   4.791   6.176   4.162  0.0719  0.3490  0.5588
  172MOL0     C23128   4.929   6.213   4.130 -1.0306 -0.9314  0.7448
  172MOL0    Cl23129   4.931   6.265   3.957 -0.9117 -0.1131  0.3393
  172MOL0     C23130   4.086   6.093   4.729  0.2942 -0.0210 -0.2998
  172MOL0     C23131   4.013   6.202   4.785 -0.4550 -0.2718 -0.0757
  172MOL0     O23132   4.018   6.313   5.066 -0.0463  0.1634  0.2650
  172MOL0     C23133   3.877   6.496   5.216  0.8410 -0.8296 -0.3601
  172MOL0     C23134   3.801   6.593   5.283 -0.6856 -1.0346 -0.0122
  172MOL0     N23135   3.480   7.363   5.067 -0.2297 -0.2501  0.7678
  172MOL0     N23136   3.410   7.453   5.011  1.1482 -1.2032  0.1991
  172MOL0     C23137   3.949   7.684   3.932  0.5429 -0.3449 -0.5252
  172MOL0     C23138   3.987   7.684   3.801  0.0899  0.3009 -0.4054
  172MOL0     C23139   3.963   7.649   3.340  0.5478  0.1060 -0.1667
  172MOL0     C23140   4.034   7.535   3.298  0.0601  0.9656 -0.6155
  172MOL0     C23141   4.118   7.539   3.184  0.3794  0.0789  0.0714
  172MOL0     C23142   4.130   7.665   3.117 -0.2680 -0.3656 -0.2217
  172MOL0     O23143   4.212   7.696   3.015 -0.8405  0.2562  0.4606
  172MOL0     C23144   4.353   7.661   3.031  0.2961 -0.5837 -0.2855
  172MOL0     C23145   4.443   7.754   2.945 -0.1193 -0.9541 -0.8204
  172MOL0     C23146   4.446   7.910   2.995  0.1605  0.7715 -0.0399
  172MOL0     C23147   4.577   7.984   2.933  0.2186 -0.5627  0.9822
  172MOL0     C23148   4.553   7.996   2.785  0.0777 -0.1912 -0.0980
  172MOL0     C23149   4.537   8.002   2.660 -0.3253  1.0402  0.3857
  172MOL0     C23150   4.066   7.777   3.156  0.2940 -0.0725  0.3567
  172MOL0     C23151   3.976   7.768   3.266 -0.2278  0.1248  1.3218
  172MOL0     C23152   3.919   7.905   3.316 -0.6079  0.3345 -0.4683
  172MOL0     H23153   3.675   7.703   3.668 -1.4325  2.6671  1.2973
  172MOL0     H23154   3.625   7.749   3.901  1.5195  4.5223  0.6194
  172MOL0     H23155   3.606   7.815   4.137  0.2961 -0.5581  0.2042
  172MOL0     H23156   3.590   7.645   4.114 -4.6517  3.6004  0.2161
  172MOL0     H23157   3.768   7.768   4.343 -0.6215  0.5758  1.4830
  172MOL0     H23158   3.711   7.598   4.321  0.0473  0.3289 -1.9433
  172MOL0     H23159   3.473   7.715   4.329 -1.8773  2.1514  1.9558
  172MOL0     H23160   3.559   7.834   4.427 -0.8181 -0.0295 -1.4332
  172MOL0     H23161   3.545   7.530   4.466 -1.0737 -0.3432  1.0529
  172MOL0     H23162   3.630   7.633   4.576  1.1990 -2.0165 -1.1378
  172MOL0     H23163   3.437   7.751   4.643 -4.2098  0.4227  1.0417
  172MOL0     H23164   3.346   7.695   4.506  0.0709  3.1425  0.6288
  172MOL0     H23165   3.346   7.462   4.595 -0.2490 -0.2335  0.3295
  172MOL0     H23166   3.459   7.515   4.723  0.5988 -0.9811 -1.0708
  172MOL0     H23167   3.168   7.591   4.678 -0.3648 -0.3204 -0.6568
  172MOL0     H23168   3.262   7.662   4.813 -0.2073 -1.2220  1.5996
  172MOL0     H23169   3.137   7.484   4.914 -0.9786 -1.4481 -0.2680
  172MOL0     H23170   3.162   7.384   4.773  2.5841  0.4032 -1.6165
  172MOL0     H23171   3.319   7.187   4.845 -3.6174 -0.6436  1.6544
  172MOL0     H23172   3.565   7.066   4.939  1.4907 -0.2634  0.9379
  172MOL0     H23173   3.623   7.143   5.086  0.3739  0.3781 -0.2084
  172MOL0     H23174   3.408   7.078   5.211 -0.0433  3.0768 -1.1363
  172MOL0     H23175   3.354   6.990   5.074  0.7382 -0.0031 -0.1955
  172MOL0     H23176   3.554   6.842   5.076 -5.4382 -1.8174  0.5765
  172MOL0     H23177   3.466   6.839   5.226  1.4260  0.3042  1.1580
  172MOL0     H23178   3.612   6.999   5.336 -1.6154  1.0500 -1.9396
  172MOL0     H23179   3.724   6.995   5.198 -0.3649  2.0038 -0.2837
  172MOL0     H23180   3.816   6.853   5.064 -1.7000 -0.3339 -0.1916
  172MOL0     H23181   3.932   6.696   4.945 -3.0906  3.7634  0.4906
  172MOL0     H23182   4.277   6.426   4.774 -0.2054 -0.0304 -0.9217
  172MOL0     H23183   4.398   6.229   4.722 -1.0632  1.5923  0.3013
  172MOL0     H23184   4.474   6.072   4.640  0.7054  1.7515 -3.6595
  172MOL0     H23185   4.465   5.908   4.608 -1.4094 -0.9395 -0.4771
  172MOL0     H23186   4.323   5.990   4.377  0.8090 -0.9047 -1.0230
  172MOL0     H23187   4.396   6.145   4.423 -2.3517  0.5969  3.6203
  172MOL0     H23188   4.626   6.041   4.405 -0.7706 -0.9391  2.4686
  172MOL0     H23189   4.558   5.891   4.370 -1.1842 -1.0032  2.3874
  172MOL0     H23190   4.490   6.146   4.211  0.9049 -0.2513  0.1581
  172MOL0     H23191   4.417   5.984   4.187  1.5336 -1.8763  0.0117
  172MOL0     H23192   4.620   6.018   4.027  2.6115  1.8116  0.0971
  172MOL0     H23193   4.621   5.877   4.130 -0.6975  0.5679 -0.7443
  172MOL0     H23194   4.789   6.004   4.292 -0.2956 -0.6050 -0.6874
  172MOL0     H23195   4.835   5.968   4.123  0.8477  0.0548 -0.0813
  172MOL0     H23196   4.753   6.222   4.254  0.4485  2.0137 -0.0796
  172MOL0     H23197   4.734   6.217   4.078  0.7717  1.8054  0.7648
  172MOL0     H23198   4.948   6.307   4.182  0.9482  0.3434 -2.0116
  172MOL0     H23199   5.006   6.143   4.163 -2.0239 -3.1119 -1.2819
  172MOL0     H23200   4.025   6.007   4.703  0.8519 -1.3317  2.4019
  172MOL0     H23201   3.907   6.196   4.810 -0.7557 -0.7374 -1.3803
  172MOL0     H23202   3.909   6.403   5.262  1.0484 -0.4303  0.3127
  172MOL0     H23203   3.759   6.557   5.376  0.1260  0.0970  0.8244
  172MOL0     H23204   4.029   7.670   4.004 -0.7697  3.0166  1.8407
  172MOL0     H23205   4.088   7.668   3.765  0.5088  1.0884  0.3740
  172MOL0     H23206   4.026   7.440   3.350  3.8481  0.2631 -0.9931
  172MOL0     H23207   4.170   7.451   3.149 -3.3502 -3.6533  2.8256
  172MOL0     H23208   4.355   7.556   3.000 -2.9778 -1.7352  2.6600
  172MOL0     H23209   4.384   7.668   3.136 -2.4412  1.2694  0.5246
  172MOL0     H23210   4.417   7.748   2.839  4.8415 -1.2610 -2.2625
  172MOL0     H23211   4.546   7.718   2.949  0.2372  0.1353  0.5331
  172MOL0     H23212   4.450   7.916   3.104 -5.2224  3.5235  0.3267
  172MOL0     H23213   4.358   7.967   2.965  1.0335  1.9492 -0.4711
  172MOL0     H23214   4.588   8.082   2.979 -0.4321 -0.6370  1.3154
  172MOL0     H23215   4.667   7.927   2.957 -0.0033 -1.1748  0.4000
  172MOL0     H23216   4.543   8.010   2.554  0.0730 -1.6122  0.1327
  172MOL0     H23217   4.097   7.870   3.109  0.5343  0.3112  1.2484
  172MOL0     H23218   3.867   7.901   3.412 -0.3337 -0.3577 -0.3394
  172MOL0     H23219   4.003   7.975   3.318  0.8030 -1.2164 -1.7369
  172MOL0     H23220   3.849   7.939   3.240  0.3959 -1.2652 -2.2069
  173MOL0     O23221   9.819   5.422   0.159  0.9651 -0.0143  0.3563
  173MOL0     C23222   9.796   5.536   0.200  0.3379  0.4354  0.1040
  173MOL0     O23223   9.882   5.643   0.205  0.1394 -0.0223  0.1989
  173MOL0     C23224  10.019   5.634   0.159 -0.2481  0.0341 -0.9751
  173MOL0     C23225  10.070   5.536   0.066  0.1530 -0.3661  0.3542
  173MOL0     C23226  10.210   5.527   0.030 -0.0361 -0.8464  0.1563
  173MOL0     C23227  10.298   5.638   0.075  1.1326  0.0007 -0.1936
  173MOL0     O23228  10.433   5.649   0.046  0.2187  0.1990  0.4677
  173MOL0     C23229  10.497   5.518   0.043  0.5953 -0.5901  0.4148
  173MOL0     C23230  10.649   5.532   0.062 -0.2057 -0.0195  0.6090
  173MOL0     C23231  10.689   5.604   0.193  0.2918 -0.3011  0.1727
  173MOL0     C23232  10.841   5.585   0.220  0.3574  0.5978  0.1201
  173MOL0     C23233  10.886   5.669   0.341 -0.0085 -0.2620 -0.0643
  173MOL0     C23234  11.042   5.688   0.349  0.0477 -0.1022  0.2832
  173MOL0     C23235  11.066   5.751   0.494  0.1165  0.4695  0.1298
  173MOL0     C23236  11.211   5.767   0.519  0.4738 -0.6637  0.0980
  173MOL0     N23237  11.254   5.895   0.461  0.4109 -0.0146  0.4292
  173MOL0     C23238  11.371   5.909   0.386  0.7928  0.0623 -0.4208
  173MOL0     C23239  11.379   6.043   0.355 -1.3351 -0.1997  0.8317
  173MOL0     C23240  11.502   6.103   0.299  0.2941 -0.1385  0.5016
  173MOL0     C23241  11.578   6.178   0.410 -1.2802 -1.0228 -0.5769
  173MOL0     C23242  11.714   6.237   0.365 -0.2808 -0.1635  0.4331
  173MOL0     C23243  11.823   6.125   0.331 -0.2367 -0.8721 -0.2916
  173MOL0     O23244  11.947   6.197   0.327  0.3971  0.3513  0.4106
  173MOL0     C23245  12.059   6.116   0.288  0.1684  0.2617 -0.2815
  173MOL0     C23246  12.056   5.977   0.282  0.3172 -0.9569 -0.0077
  173MOL0     C23247  12.171   5.909   0.228  1.0844 -0.5069 -0.4774
  173MOL0     C23248  12.288   5.973   0.184  0.2267  0.5656 -1.0290
  173MOL0     C23249  12.413   5.901   0.138  0.4779 -0.9561  0.2175
  173MOL0     O23250  12.528   5.975   0.131 -0.2483  0.0092 -0.2088
  173MOL0     C23251  12.646   5.921   0.081 -0.4459  0.0387  0.2893
  173MOL0     C23252  12.762   5.954   0.146  0.5250 -0.2695 -0.0408
  173MOL0     C23253  12.888   5.915   0.093  0.1153 -1.1357  0.6482
  173MOL0     C23254  12.900   5.838  -0.023 -0.2965  0.4949 -0.0557
  173MOL0     O23255  13.014   5.783  -0.066  0.6942  0.2292 -0.3178
  173MOL0     C23256  13.071   5.677   0.008 -0.8487  0.2061 -1.2422
  173MOL0     C23257  13.186   5.717   0.094 -0.3998  0.8298  0.0681
  173MOL0     C23258  13.300   5.778   0.009  0.7046 -0.0515  0.3110
  173MOL0     C23259  13.442   5.753   0.073 -0.2081 -0.2442 -0.2854
  173MOL0     C23260  13.562   5.812   0.001 -0.5879 -1.1648 -0.0493
  173MOL0     C23261  13.684   5.801   0.094 -0.6301 -0.2640 -0.0474
  173MOL0     C23262  13.693   5.894   0.219  1.3884  0.2799 -1.2296
  173MOL0     C23263  13.830   5.953   0.242 -0.3092 -0.4112  0.2533
  173MOL0    Cl23264  13.966   5.826   0.229 -0.2171  0.4185  0.3300
  173MOL0     C23265  12.781   5.810  -0.089 -0.4907 -0.2048  0.8482
  173MOL0     C23266  12.657   5.845  -0.039 -0.4580  0.3071 -0.0696
  173MOL0     O23267  12.398   5.779   0.112  0.6393 -0.4720  0.3855
  173MOL0     C23268  12.282   6.114   0.188  0.6516 -0.1846 -0.7756
  173MOL0     C23269  12.170   6.184   0.250 -0.4395 -0.4307 -0.0571
  173MOL0     N23270  11.280   6.113   0.427 -0.1100 -0.6948  0.3312
  173MOL0     N23271  11.207   6.023   0.492  0.3584 -0.4552  0.3821
  173MOL0     C23272  10.251   5.726   0.171 -0.4678 -0.4745 -0.7288
  173MOL0     C23273  10.113   5.727   0.209 -0.8750 -0.4131  0.1421
  173MOL0     C23274   9.660   5.566   0.247  0.1358 -0.1576 -1.4522
  173MOL0     C23275   9.617   5.704   0.215 -0.4951  0.5250  0.1863
  173MOL0     C23276   9.505   5.755   0.262 -0.7678 -0.7661 -0.3535
  173MOL0     C23277   9.421   5.683   0.342 -0.1286  0.2340 -0.6768
  173MOL0     O23278   9.309   5.754   0.390  0.1938 -0.1873 -0.3652
  173MOL0     C23279   9.319   5.832   0.511 -0.1345  0.0042 -0.1075
  173MOL0     C23280   9.324   5.982   0.490 -0.0870  0.3424 -0.2567
  173MOL0     C23281   9.237   6.041   0.378 -0.3276 -0.2106  0.0266
  173MOL0     C23282   9.085   6.017   0.384 -0.3721 -0.0369  0.4687
  173MOL0     C23283   9.022   6.078   0.267  0.6901  0.5036  0.7331
  173MOL0     C23284   8.993   6.132   0.157 -0.5618  0.1677  0.1533
  173MOL0     C23285   9.441   5.542   0.368 -1.5911  0.3492  0.1403
  173MOL0     C23286   9.566   5.485   0.319 -0.0642 -1.0736 -0.3470
  173MOL0     C23287   9.592   5.342   0.373 -0.5207  0.0883 -0.3432
  173MOL0     H23288   9.999   5.462   0.030  0.6773 -1.5468  1.6465
  173MOL0     H23289  10.247   5.454  -0.041 -1.8515  0.9408 -2.8389
  173MOL0     H23290  10.454   5.447   0.114 -1.6894 -2.4421 -2.5796
  173MOL0     H23291  10.482   5.470  -0.054  1.3048 -1.8413  0.8983
  173MOL0     H23292  10.693   5.581  -0.025 -1.1550 -0.1583  0.0375
  173MOL0     H23293  10.689   5.430   0.067 -1.2612 -0.4696  0.0822
  173MOL0     H23294  10.632   5.565   0.278  0.8545 -1.1611  0.1737
  173MOL0     H23295  10.672   5.712   0.184  2.2165 -0.1536 -2.8233
  173MOL0     H23296  10.860   5.480   0.244  1.2219  0.9522  1.0496
  173MOL0     H23297  10.905   5.615   0.137 -0.5586  1.3752 -0.3272
  173MOL0     H23298  10.826   5.760   0.351  2.0919  0.9073  4.2800
  173MOL0     H23299  10.860   5.605   0.426  0.3471 -1.6900 -0.9915
  173MOL0     H23300  11.104   5.598   0.346 -0.5588 -0.5190  0.1385
  173MOL0     H23301  11.088   5.755   0.276 -0.7208 -1.6534 -1.7191
  173MOL0     H23302  11.028   5.674   0.562 -2.9212  1.2223 -0.5542
  173MOL0     H23303  11.008   5.841   0.513 -0.4088 -0.3180  2.6764
  173MOL0     H23304  11.234   5.780   0.625  5.5645  0.2782 -0.8398
  173MOL0     H23305  11.271   5.693   0.464  0.3056 -0.9739  0.3293
  173MOL0     H23306  11.445   5.829   0.379 -1.0102 -1.9117  1.6922
  173MOL0     H23307  11.563   6.033   0.240 -0.8664  1.2923 -2.6304
  173MOL0     H23308  11.464   6.184   0.236  5.8980  1.8698 -0.9296
  173MOL0     H23309  11.508   6.253   0.447 -1.8061  0.1032 -3.5705
  173MOL0     H23310  11.592   6.108   0.493  1.1173  1.7440  1.5491
  173MOL0     H23311  11.761   6.302   0.440  0.5145  1.7103 -1.5658
  173MOL0     H23312  11.692   6.296   0.276  0.2533 -0.3785  0.1525
  173MOL0     H23313  11.788   6.071   0.242 -3.6863  0.5754  0.0273
  173MOL0     H23314  11.819   6.058   0.417 -0.2765  1.9996  2.1007
  173MOL0     H23315  11.965   5.923   0.307  1.8467 -3.1236  1.2333
  173MOL0     H23316  12.167   5.801   0.228 -0.4005 -0.5395  2.2129
  173MOL0     H23317  12.757   6.019   0.233 -2.6283  1.0569 -1.0456
  173MOL0     H23318  12.974   5.962   0.141 -0.5101 -0.0959  0.7949
  173MOL0     H23319  12.995   5.634   0.073 -0.3809 -1.4647 -1.7505
  173MOL0     H23320  13.106   5.596  -0.056  0.4439 -1.6554  1.6460
  173MOL0     H23321  13.154   5.794   0.165 -3.1802 -0.0199 -0.1655
  173MOL0     H23322  13.225   5.627   0.142  1.5995  1.4528 -0.2870
  173MOL0     H23323  13.290   5.729  -0.088 -2.5781 -0.2822  0.6752
  173MOL0     H23324  13.295   5.887  -0.002 -0.2972 -0.0178  0.9796
  173MOL0     H23325  13.441   5.644   0.072 -0.5215 -0.2865 -2.7699
  173MOL0     H23326  13.439   5.777   0.179  2.7945 -2.5231  0.4408
  173MOL0     H23327  13.550   5.914  -0.037  1.8895  1.8830  6.0085
  173MOL0     H23328  13.573   5.752  -0.090  0.0754  1.8130 -2.0530
  173MOL0     H23329  13.682   5.699   0.135 -4.7905 -0.4421 -0.2406
  173MOL0     H23330  13.774   5.807   0.033 -1.2015  0.5190 -0.8274
  173MOL0     H23331  13.658   5.831   0.301  0.9409  2.3901  0.2862
  173MOL0     H23332  13.619   5.975   0.218  0.2725 -0.7125 -1.7006
  173MOL0     H23333  13.857   6.041   0.182 -2.1482 -1.1624 -1.7817
  173MOL0     H23334  13.855   5.984   0.344  4.2560  1.1841 -1.0891
  173MOL0     H23335  12.789   5.762  -0.187  2.0756  0.7761  0.4941
  173MOL0     H23336  12.567   5.803  -0.084 -0.0551 -1.2359  0.4884
  173MOL0     H23337  12.367   6.163   0.142  2.4574 -0.4663  1.9641
  173MOL0     H23338  12.172   6.292   0.239 -0.5824 -0.3706  0.4550
  173MOL0     H23339  10.320   5.778   0.236 -1.1385  0.6891 -0.9191
  173MOL0     H23340  10.082   5.796   0.287 -1.8343  0.3301 -0.8581
  173MOL0     H23341   9.676   5.763   0.145 -1.1899 -1.2496 -2.0235
  173MOL0     H23342   9.491   5.857   0.227  2.1295  0.2474  1.0923
  173MOL0     H23343   9.395   5.795   0.580 -2.9648 -1.5025  2.4421
  173MOL0     H23344   9.227   5.824   0.569  0.3669  0.8358  0.8342
  173MOL0     H23345   9.430   6.000   0.471  1.4707 -0.9715  5.3374
  173MOL0     H23346   9.291   6.036   0.580  0.2709  0.3187 -0.1099
  173MOL0     H23347   9.269   6.014   0.277  0.1684  3.2040 -0.8374
  173MOL0     H23348   9.253   6.149   0.383  0.8194 -0.1509 -2.8235
  173MOL0     H23349   9.079   5.907   0.389 -0.0243 -0.0896 -0.1343
  173MOL0     H23350   9.041   6.073   0.467 -3.2121 -0.8763 -0.3658
  173MOL0     H23351   8.957   6.170   0.064 -1.2678 -1.3430 -0.2306
  173MOL0     H23352   9.363   5.495   0.428 -1.7826 -0.1607 -0.5076
  173MOL0     H23353   9.599   5.350   0.482  1.1275 -1.9341 -0.2319
  173MOL0     H23354   9.505   5.284   0.342 -1.9724  1.1240  1.6185
  173MOL0     H23355   9.686   5.304   0.332  2.0973 -0.0232  4.9478
  174MOL0     O23356   7.343   1.565  10.354  0.9206  0.6675 -0.0708
  174MOL0     C23357   7.448   1.549  10.416  1.5114  0.3737 -0.4535
  174MOL0     O23358   7.456   1.458  10.519  0.0800  0.2669  0.0752
  174MOL0     C23359   7.354   1.394  10.575  0.7435 -0.6923  0.1014
  174MOL0     C23360   7.325   1.259  10.543  0.4468 -0.3628  0.2259
  174MOL0     C23361   7.218   1.193  10.612 -0.7631  0.9406  0.7154
  174MOL0     C23362   7.125   1.256  10.695 -0.0662 -0.7603 -0.7932
  174MOL0     O23363   7.029   1.178  10.755  0.1109 -0.2054  0.0314
  174MOL0     C23364   6.904   1.236  10.761  0.2315  0.1067  0.3659
  174MOL0     C23365   6.815   1.118  10.815 -0.3605 -0.9217  0.1256
  174MOL0     C23366   6.813   0.987  10.724  0.8507 -0.2464  0.4093
  174MOL0     C23367   6.729   0.874  10.794  0.8245  0.1880  0.8006
  174MOL0     C23368   6.719   0.731  10.720 -0.4923 -0.4946 -0.0010
  174MOL0     C23369   6.642   0.735  10.589  0.4450 -0.1605  0.0632
  174MOL0     C23370   6.657   0.606  10.512  0.0625  0.5193 -0.3929
  174MOL0     C23371   6.565   0.598  10.386  0.3494  0.1603  0.4101
  174MOL0     N23372   6.601   0.665  10.264 -0.4573 -0.3759 -0.2703
  174MOL0     C23373   6.633   0.799  10.268  0.3451  0.1332 -0.1415
  174MOL0     C23374   6.689   0.826  10.148  0.9236 -0.6247  0.1397
  174MOL0     C23375   6.749   0.962  10.106 -0.2806  0.3265  0.1633
  174MOL0     C23376   6.664   1.018   9.990  0.3822 -0.0656  0.7204
  174MOL0     C23377   6.686   1.166   9.953 -0.7892 -0.6811 -0.0966
  174MOL0     C23378   6.622   1.218   9.823 -0.4661 -0.2100 -0.3165
  174MOL0     O23379   6.491   1.164   9.825 -0.1902 -0.3574  0.5660
  174MOL0     C23380   6.384   1.226   9.766 -0.3225 -0.6035  0.5626
  174MOL0     C23381   6.261   1.167   9.788 -0.9230 -0.1161 -0.6188
  174MOL0     C23382   6.148   1.215   9.729  0.7460 -1.2020 -0.4618
  174MOL0     C23383   6.144   1.321   9.636 -0.8540  0.0470 -1.4362
  174MOL0     C23384   6.027   1.356   9.567  0.9088 -0.2305  0.1274
  174MOL0     O23385   5.910   1.294   9.604 -0.2054  0.1808  0.0968
  174MOL0     C23386   5.793   1.299   9.526  0.5804  0.3280  0.0091
  174MOL0     C23387   5.684   1.388   9.556 -0.4780  0.2305  0.2336
  174MOL0     C23388   5.570   1.396   9.477  0.9058  0.9290 -0.4680
  174MOL0     C23389   5.552   1.306   9.365  1.3748  0.5739 -0.2681
  174MOL0     O23390   5.436   1.302   9.288 -0.0339 -0.2049  0.0259
  174MOL0     C23391   5.302   1.303   9.351 -0.2511  0.2158  0.6693
  174MOL0     C23392   5.198   1.270   9.244  0.8543  0.1701  0.1091
  174MOL0     C23393   5.187   1.363   9.129  0.1517 -0.4836  0.4232
  174MOL0     C23394   5.151   1.286   9.004  0.7205  0.6043 -0.2326
  174MOL0     C23395   5.102   1.385   8.889  0.3933 -0.5471  0.6892
  174MOL0     C23396   4.995   1.321   8.785 -0.0304  0.3291 -0.4741
  174MOL0     C23397   5.053   1.192   8.719  0.0333 -0.5893 -0.0058
  174MOL0     C23398   4.957   1.118   8.630  0.2161 -0.6069  0.5270
  174MOL0    Cl23399   4.885   1.223   8.503 -0.4625  0.3734  0.6179
  174MOL0     C23400   5.648   1.212   9.342  0.9752 -0.2780  0.5654
  174MOL0     C23401   5.768   1.208   9.421  0.4595  0.2502  0.5565
  174MOL0     O23402   6.045   1.418   9.465  0.2005  0.1274  0.4260
  174MOL0     C23403   6.266   1.381   9.607  0.8804 -0.1223 -0.1716
  174MOL0     C23404   6.384   1.332   9.672  0.8448  0.4132 -0.1318
  174MOL0     N23405   6.682   0.716  10.067  0.3218 -0.5018 -0.2188
  174MOL0     N23406   6.636   0.616  10.142  0.7208  0.1239  1.0209
  174MOL0     C23407   7.152   1.398  10.713  0.0862  1.0236 -0.0265
  174MOL0     C23408   7.264   1.460  10.658 -0.5043  0.4419  0.0167
  174MOL0     C23409   7.565   1.638  10.399 -0.2383 -0.3612 -0.1201
  174MOL0     C23410   7.633   1.672  10.512 -0.7358  0.0672  0.0422
  174MOL0     C23411   7.757   1.723  10.502 -0.4925  0.8850  0.1738
  174MOL0     C23412   7.798   1.782  10.387 -0.0107 -0.3642  0.4057
  174MOL0     O23413   7.913   1.860  10.377  0.4223  0.0022  0.1333
  174MOL0     C23414   7.943   1.943  10.493 -0.1345  0.6671 -0.0778
  174MOL0     C23415   8.055   1.893  10.576  0.7492  0.0964 -0.2444
  174MOL0     C23416   8.031   1.964  10.721 -0.1568 -0.3154  0.0002
  174MOL0     C23417   8.119   1.907  10.825  0.3711 -0.8703 -0.7411
  174MOL0     C23418   8.260   1.927  10.799  0.9635  0.7861  0.2971
  174MOL0     C23419   8.381   1.928  10.788 -0.3611  0.0346  0.3165
  174MOL0     C23420   7.732   1.758  10.272  0.4156 -0.1405  0.0767
  174MOL0     C23421   7.612   1.683  10.272 -0.1999 -0.6780 -0.0636
  174MOL0     C23422   7.542   1.672  10.138 -0.1871  0.4755 -1.0343
  174MOL0     H23423   7.384   1.203  10.471 -3.5121 -1.9343 -2.0796
  174MOL0     H23424   7.196   1.088  10.595  1.3068  0.2356  1.8956
  174MOL0     H23425   6.894   1.309  10.841  1.6156  1.2819 -0.4915
  174MOL0     H23426   6.873   1.284  10.668 -2.1108 -1.3336  0.2973
  174MOL0     H23427   6.718   1.166  10.831  0.5812  0.7840  0.9447
  174MOL0     H23428   6.835   1.093  10.919  1.5930  0.3155  0.0986
  174MOL0     H23429   6.911   0.944  10.702  0.2075 -0.7038 -1.7987
  174MOL0     H23430   6.775   1.024  10.628  2.4293 -0.7609 -0.4556
  174MOL0     H23431   6.771   0.849  10.892  2.6250  0.2241  0.0748
  174MOL0     H23432   6.627   0.904  10.820 -0.5352 -2.2713 -1.1746
  174MOL0     H23433   6.819   0.707  10.683 -0.2096 -1.0289  1.0770
  174MOL0     H23434   6.676   0.658  10.789 -1.6666  0.4057  0.2635
  174MOL0     H23435   6.539   0.752  10.621  0.1840 -1.8475  0.2358
  174MOL0     H23436   6.690   0.819  10.539 -0.0617  0.8972  1.2929
  174MOL0     H23437   6.620   0.525  10.575 -3.7393  2.6018  0.3387
  174MOL0     H23438   6.757   0.579  10.475 -1.2120 -4.3299 -0.9443
  174MOL0     H23439   6.562   0.489  10.377 -0.0673  0.1337  0.8332
  174MOL0     H23440   6.466   0.624  10.425  0.7636  0.7398  1.1108
  174MOL0     H23441   6.618   0.863  10.355 -3.5362  0.0542 -0.5855
  174MOL0     H23442   6.738   1.016  10.200  0.2842  0.9375 -0.1106
  174MOL0     H23443   6.850   0.950  10.066 -0.4365 -1.9663  0.3171
  174MOL0     H23444   6.693   0.963   9.900 -1.7902 -0.4189  0.1965
  174MOL0     H23445   6.558   1.012  10.014 -0.0799  0.1192 -1.0926
  174MOL0     H23446   6.790   1.199   9.948 -1.7623  3.2826  1.9180
  174MOL0     H23447   6.647   1.228  10.034  0.4303  5.0252 -3.2754
  174MOL0     H23448   6.671   1.172   9.737  1.2369  1.1887 -0.1456
  174MOL0     H23449   6.622   1.328   9.821 -1.0223 -0.1147  2.1128
  174MOL0     H23450   6.252   1.073   9.842  0.8973  0.7743  1.3849
  174MOL0     H23451   6.056   1.162   9.752 -1.4614  1.9360 -1.4024
  174MOL0     H23452   5.678   1.457   9.640 -0.6423  3.6907 -2.4093
  174MOL0     H23453   5.487   1.449   9.522  3.2553  2.6098  2.1846
  174MOL0     H23454   5.302   1.224   9.426 -1.3075 -0.1006  0.3513
  174MOL0     H23455   5.281   1.402   9.392 -3.5915  0.7191 -1.7798
  174MOL0     H23456   5.223   1.173   9.199  1.3081  0.5182 -0.4104
  174MOL0     H23457   5.107   1.270   9.304 -0.1516  0.5870 -1.3791
  174MOL0     H23458   5.110   1.440   9.137  0.0059 -0.4205 -1.2185
  174MOL0     H23459   5.285   1.409   9.113  0.4168 -1.1116  0.2171
  174MOL0     H23460   5.066   1.223   9.031  1.0481  0.8011  1.3501
  174MOL0     H23461   5.232   1.225   8.963  0.4549 -0.1877  0.4106
  174MOL0     H23462   5.188   1.422   8.832 -0.7530  2.0153  0.4966
  174MOL0     H23463   5.051   1.470   8.934  2.3013 -0.2138  2.3508
  174MOL0     H23464   4.896   1.303   8.829  0.7444 -0.3701  1.0531
  174MOL0     H23465   4.982   1.394   8.704 -2.1869 -0.3277 -0.8014
  174MOL0     H23466   5.077   1.121   8.798  0.3861  2.0489  2.4526
  174MOL0     H23467   5.147   1.228   8.676  1.3659  1.7976  4.3611
  174MOL0     H23468   5.017   1.038   8.586  1.1773 -0.6192  1.8030
  174MOL0     H23469   4.877   1.080   8.695  1.5274 -1.1632  1.8848
  174MOL0     H23470   5.626   1.136   9.267  5.0328 -2.0268  0.8691
  174MOL0     H23471   5.841   1.137   9.383 -2.1611 -2.3575  0.0146
  174MOL0     H23472   6.262   1.470   9.544 -0.7757  0.8186  1.1868
  174MOL0     H23473   6.477   1.384   9.650  2.1943 -1.8893 -0.1651
  174MOL0     H23474   7.101   1.451  10.793  6.1783  1.8752  3.9221
  174MOL0     H23475   7.285   1.563  10.685  1.9705 -0.0930  0.3664
  174MOL0     H23476   7.595   1.654  10.612 -0.3975  1.5248  0.4635
  174MOL0     H23477   7.817   1.737  10.592  2.4835  1.2460 -1.7312
  174MOL0     H23478   7.853   1.956  10.554 -0.8851 -1.0333 -0.7393
  174MOL0     H23479   7.966   2.040  10.449  3.7696 -0.4137 -0.8129
  174MOL0     H23480   8.157   1.921  10.545  0.5897  2.9172  1.4624
  174MOL0     H23481   8.043   1.785  10.587 -1.6610  0.1730 -1.5534
  174MOL0     H23482   7.930   1.939  10.755  0.3777 -1.9428  0.5027
  174MOL0     H23483   8.044   2.072  10.724 -0.9501 -0.2355  1.2449
  174MOL0     H23484   8.092   1.950  10.922  0.8153 -1.1151 -0.5051
  174MOL0     H23485   8.096   1.801  10.842  0.7449 -0.6794  1.1255
  174MOL0     H23486   8.487   1.937  10.803 -0.3212 -1.6223  1.2550
  174MOL0     H23487   7.768   1.790  10.175 -1.4178  0.2063 -0.5380
  174MOL0     H23488   7.468   1.591  10.137 -1.8652  1.9410 -0.5715
  174MOL0     H23489   7.491   1.765  10.111 -0.4243  0.4780 -0.5895
  174MOL0     H23490   7.624   1.658  10.067  0.6009  0.6997 -0.1998
  175MOL0     O23491  10.210   8.498   2.327 -0.7940 -0.1277 -0.0031
  175MOL0     C23492  10.120   8.558   2.270  0.2810  0.1437 -0.4987
  175MOL0     O23493  10.132   8.626   2.155 -0.7841 -0.1649 -0.2333
  175MOL0     C23494  10.256   8.647   2.101 -0.3869  0.3848 -0.5640
  175MOL0     C23495  10.329   8.756   2.140  0.8411  0.2587  0.7666
  175MOL0     C23496  10.442   8.789   2.064 -1.2555 -0.4482 -0.1407
  175MOL0     C23497  10.491   8.703   1.963 -0.1635  1.2886 -0.4170
  175MOL0     O23498  10.612   8.726   1.902  0.5513  0.0734  0.0219
  175MOL0     C23499  10.662   8.642   1.794 -1.1721  0.0595  0.7848
  175MOL0     C23500  10.792   8.692   1.745 -0.2736  0.8642  0.7963
  175MOL0     C23501  10.845   8.604   1.627  0.5522  0.0625  0.2684
  175MOL0     C23502  10.992   8.629   1.586  0.8120 -0.1598  0.4559
  175MOL0     C23503  11.029   8.542   1.469  1.1863 -0.7346 -0.7132
  175MOL0     C23504  11.073   8.406   1.528 -0.8976 -0.3003  0.2009
  175MOL0     C23505  11.165   8.333   1.436  0.5041 -0.3000  0.3157
  175MOL0     C23506  11.113   8.327   1.299  0.7031 -0.0082  0.2176
  175MOL0     N23507  11.182   8.223   1.219  0.0840 -0.4339 -0.4247
  175MOL0     C23508  11.321   8.215   1.196  0.5027 -0.3814 -0.5755
  175MOL0     C23509  11.339   8.115   1.109  0.0263 -0.1745 -0.2972
  175MOL0     C23510  11.461   8.059   1.049  0.0856  0.0437 -0.2030
  175MOL0     C23511  11.566   7.989   1.152  0.9199 -0.3762 -0.1278
  175MOL0     C23512  11.504   7.877   1.243 -0.7796 -0.5138 -0.0635
  175MOL0     C23513  11.420   7.922   1.367  0.2963 -0.1321 -0.0897
  175MOL0     O23514  11.468   8.035   1.440  0.7906 -0.0185  0.2218
  175MOL0     C23515  11.546   8.022   1.556  0.1047  0.8156  0.9387
  175MOL0     C23516  11.558   8.132   1.635 -0.2209 -0.6044  0.1119
  175MOL0     C23517  11.641   8.127   1.745  0.1690 -0.0323  0.1724
  175MOL0     C23518  11.712   8.004   1.787  0.6655 -0.5236  0.2492
  175MOL0     C23519  11.776   7.992   1.921  0.6450 -0.0959  0.1260
  175MOL0     O23520  11.794   7.865   1.966 -0.6705 -0.2947  0.1353
  175MOL0     C23521  11.830   7.835   2.091 -0.0176  0.4318  0.7528
  175MOL0     C23522  11.957   7.816   2.128 -0.2478 -0.0878 -1.1062
  175MOL0     C23523  11.985   7.772   2.266 -0.1699 -0.5550  0.3432
  175MOL0     C23524  11.883   7.764   2.360  0.3512 -0.2244 -0.1793
  175MOL0     O23525  11.896   7.741   2.498  0.6160 -0.4394  0.5798
  175MOL0     C23526  11.990   7.644   2.548  0.2151 -0.7550  0.2160
  175MOL0     C23527  12.002   7.671   2.699 -1.0201  0.1441 -0.0448
  175MOL0     C23528  12.053   7.813   2.730  0.0095  0.7194 -0.1466
  175MOL0     C23529  12.181   7.865   2.655 -0.2591 -0.4986  0.0091
  175MOL0     C23530  12.222   8.006   2.685  0.5918  0.1208  0.6445
  175MOL0     C23531  12.360   8.032   2.618  0.0006 -0.1351  0.3261
  175MOL0     C23532  12.440   8.146   2.690  0.1243 -0.6422  0.8516
  175MOL0     C23533  12.567   8.187   2.609 -0.5713 -0.5553 -0.4003
  175MOL0    Cl23534  12.672   8.290   2.719  0.0937 -0.1786 -0.1228
  175MOL0     C23535  11.757   7.798   2.317  0.0046  0.4153 -0.5251
  175MOL0     C23536  11.726   7.834   2.186  0.4161 -0.2078  0.7328
  175MOL0     O23537  11.787   8.096   1.990 -0.7081 -0.1773 -0.4636
  175MOL0     C23538  11.700   7.891   1.706 -0.4795 -0.9125  0.6803
  175MOL0     C23539  11.608   7.898   1.589  0.1459  0.6740  0.1605
  175MOL0     N23540  11.213   8.060   1.075 -0.4308 -0.5165  0.0230
  175MOL0     N23541  11.131   8.119   1.147 -0.4404 -1.4172 -0.0909
  175MOL0     C23542  10.417   8.591   1.936  0.7021  0.3676 -0.8725
  175MOL0     C23543  10.304   8.557   2.004  0.2410  0.4221 -0.0001
  175MOL0     C23544   9.989   8.547   2.326  0.2618 -0.0381  0.1917
  175MOL0     C23545   9.899   8.440   2.291 -0.2086  0.4687  0.1026
  175MOL0     C23546   9.768   8.438   2.342  0.5131  0.1038 -0.2198
  175MOL0     C23547   9.723   8.530   2.439  0.6668 -0.1258 -0.5999
  175MOL0     O23548   9.599   8.510   2.491  1.3290 -0.6417  0.2444
  175MOL0     C23549   9.580   8.451   2.611 -0.0447  0.8611 -0.7647
  175MOL0     C23550   9.457   8.360   2.618 -1.2431  0.2708  0.4134
  175MOL0     C23551   9.325   8.436   2.595 -1.1502 -0.2756 -1.3058
  175MOL0     C23552   9.202   8.342   2.580  0.0527 -0.4544  0.1107
  175MOL0     C23553   9.162   8.274   2.705  0.2555 -0.1981  1.3384
  175MOL0     C23554   9.142   8.213   2.806  0.0656  0.2451  0.4384
  175MOL0     C23555   9.805   8.634   2.476 -0.3303 -0.9852  0.5207
  175MOL0     C23556   9.935   8.643   2.418 -1.0842 -0.3460 -0.2868
  175MOL0     C23557  10.024   8.754   2.467  0.6148 -0.1216 -0.0314
  175MOL0     H23558  10.289   8.833   2.205  1.7331  0.5015  1.0511
  175MOL0     H23559  10.507   8.874   2.079 -0.8558 -0.5797 -1.0115
  175MOL0     H23560  10.667   8.538   1.830  1.5876  0.2660  1.2011
  175MOL0     H23561  10.595   8.650   1.708  2.2107 -1.0505 -2.2032
  175MOL0     H23562  10.862   8.689   1.829 -0.0852 -0.0644  0.6110
  175MOL0     H23563  10.797   8.797   1.716  2.0448  0.8065  0.7974
  175MOL0     H23564  10.781   8.621   1.540 -1.2042 -2.8156  0.8424
  175MOL0     H23565  10.826   8.501   1.659  0.8718 -0.8329 -2.2386
  175MOL0     H23566  11.012   8.731   1.552 -1.0261 -0.7442 -2.8354
  175MOL0     H23567  11.053   8.616   1.676 -0.1004  2.0564  1.4619
  175MOL0     H23568  10.953   8.549   1.391  0.2381  0.6546  0.2798
  175MOL0     H23569  11.127   8.580   1.439  3.6895 -4.9738  1.1555
  175MOL0     H23570  11.113   8.409   1.630 -2.3617  0.1304  0.7944
  175MOL0     H23571  10.977   8.354   1.520 -0.6801 -0.5859 -0.5998
  175MOL0     H23572  11.175   8.234   1.482  0.5737 -0.8546 -0.8558
  175MOL0     H23573  11.261   8.383   1.424 -0.4861  1.1780 -2.2951
  175MOL0     H23574  11.012   8.284   1.297  0.4050  0.6292  1.0498
  175MOL0     H23575  11.108   8.426   1.254 -1.2145  0.6609  1.7847
  175MOL0     H23576  11.395   8.281   1.241  0.9067 -0.7936 -0.6335
  175MOL0     H23577  11.433   7.979   0.980  4.0134  0.2551 -2.2772
  175MOL0     H23578  11.511   8.142   0.999  0.1154 -0.3135 -0.7804
  175MOL0     H23579  11.649   7.954   1.090  2.7957  1.2920  1.3098
  175MOL0     H23580  11.599   8.077   1.208  1.5241 -0.0603 -0.9460
  175MOL0     H23581  11.592   7.821   1.275  0.5951  2.4444  1.6996
  175MOL0     H23582  11.450   7.818   1.167 -1.1252  1.8695 -1.7902
  175MOL0     H23583  11.399   7.845   1.442  1.1704  0.0455  0.3531
  175MOL0     H23584  11.327   7.957   1.321 -1.5635 -1.2431  2.5517
  175MOL0     H23585  11.504   8.220   1.601  0.4651 -0.7593 -1.4408
  175MOL0     H23586  11.639   8.224   1.795 -1.9534 -0.1875  0.4904
  175MOL0     H23587  12.030   7.827   2.049 -0.2394 -1.2581 -1.2823
  175MOL0     H23588  12.083   7.740   2.301  0.0138 -1.5623 -0.9787
  175MOL0     H23589  11.943   7.546   2.538 -1.9678 -0.0838  2.8934
  175MOL0     H23590  12.082   7.658   2.490  1.1024  2.5192  2.1697
  175MOL0     H23591  11.905   7.652   2.745 -1.2789 -0.8719 -0.9867
  175MOL0     H23592  12.066   7.598   2.749  0.1405 -0.9003 -2.8444
  175MOL0     H23593  11.973   7.886   2.716 -0.3080  0.4896  0.4327
  175MOL0     H23594  12.079   7.815   2.836 -1.3312 -0.4375  0.2477
  175MOL0     H23595  12.168   7.856   2.546 -1.3384 -2.7445  0.2532
  175MOL0     H23596  12.262   7.797   2.683  2.8693  3.7870  2.4345
  175MOL0     H23597  12.223   8.019   2.793  0.9228 -0.7302  0.7524
  175MOL0     H23598  12.149   8.079   2.650 -0.1549 -1.2461 -0.8264
  175MOL0     H23599  12.419   7.940   2.624 -0.6127 -0.4415  2.9937
  175MOL0     H23600  12.348   8.054   2.512  2.8113  2.2016  0.3521
  175MOL0     H23601  12.467   8.108   2.789 -0.8964 -1.1216  0.9636
  175MOL0     H23602  12.376   8.235   2.695  0.4005 -0.4310  0.6306
  175MOL0     H23603  12.616   8.094   2.582 -1.7705 -0.5392 -2.9261
  175MOL0     H23604  12.545   8.239   2.515 -0.7904 -0.8169 -0.4965
  175MOL0     H23605  11.677   7.798   2.390  1.7451 -0.3506  1.4739
  175MOL0     H23606  11.623   7.847   2.155  0.9393  1.1232 -0.5846
  175MOL0     H23607  11.761   7.803   1.727 -0.3639 -0.7057  1.2271
  175MOL0     H23608  11.612   7.815   1.519  2.0859  0.3687  0.5625
  175MOL0     H23609  10.449   8.530   1.852  0.9844  1.1999 -1.3870
  175MOL0     H23610  10.247   8.471   1.972  0.5802 -0.2661  1.2208
  175MOL0     H23611   9.928   8.376   2.208  1.2011 -0.0837  0.9793
  175MOL0     H23612   9.701   8.361   2.304  1.7586 -1.3148  0.3708
  175MOL0     H23613   9.563   8.531   2.684 -1.1670 -0.6926  0.7298
  175MOL0     H23614   9.672   8.397   2.636  0.6221  3.2954  2.6402
  175MOL0     H23615   9.464   8.313   2.717  3.2868 -0.2862  0.0706
  175MOL0     H23616   9.485   8.286   2.542  1.0611  0.4967  0.9506
  175MOL0     H23617   9.339   8.506   2.512  3.6330 -2.2543 -2.4826
  175MOL0     H23618   9.305   8.504   2.679  0.1466  0.0402 -1.2301
  175MOL0     H23619   9.116   8.400   2.544  0.9019  0.6214 -0.2335
  175MOL0     H23620   9.236   8.272   2.502 -0.1227 -1.7440  1.1573
  175MOL0     H23621   9.120   8.156   2.894 -0.1183  0.8673  0.7955
  175MOL0     H23622   9.763   8.709   2.542 -2.5801 -0.9364 -0.8994
  175MOL0     H23623   9.958   8.840   2.481  0.4334 -0.2377 -0.1505
  175MOL0     H23624  10.071   8.721   2.560  0.0084 -1.4802 -0.1769
  175MOL0     H23625  10.097   8.777   2.390 -0.2814 -1.7019 -1.4272
  176MOL0     O23626   3.041   6.924   9.732  0.4966 -0.5901  0.3417
  176MOL0     C23627   2.936   6.961   9.785  0.2767 -0.5385 -0.0590
  176MOL0     O23628   2.896   7.088   9.797  0.4661  0.1734  0.1481
  176MOL0     C23629   2.945   7.195   9.718 -0.8409  0.4912  0.6360
  176MOL0     C23630   2.950   7.181   9.572  0.2368 -0.0017  0.1467
  176MOL0     C23631   2.983   7.294   9.498 -0.1447 -1.1453  0.2700
  176MOL0     C23632   3.012   7.418   9.558 -0.0298 -0.2691 -0.3825
  176MOL0     O23633   3.068   7.529   9.498 -0.8003  0.6044 -0.1440
  176MOL0     C23634   3.017   7.548   9.361  0.1211  0.7825 -0.9199
  176MOL0     C23635   2.971   7.687   9.338 -0.5077 -0.2542  0.1526
  176MOL0     C23636   2.863   7.737   9.426  0.0841 -0.6327 -0.3202
  176MOL0     C23637   2.857   7.887   9.390  0.3513 -0.1397 -0.5998
  176MOL0     C23638   2.751   7.966   9.470  0.4525 -0.6950 -0.7219
  176MOL0     C23639   2.792   7.991   9.617 -0.5869 -1.3116  0.1659
  176MOL0     C23640   2.908   8.092   9.632 -0.0723 -0.0418 -0.5803
  176MOL0     C23641   2.872   8.242   9.593 -0.3116  0.9160  0.7508
  176MOL0     N23642   2.782   8.313   9.685 -0.0054  0.6389 -0.7931
  176MOL0     C23643   2.669   8.375   9.641 -0.0828 -0.1133  1.6178
  176MOL0     C23644   2.618   8.445   9.747 -1.0919  0.6063 -0.0338
  176MOL0     C23645   2.510   8.537   9.768  0.8714 -0.3454  0.1914
  176MOL0     C23646   2.412   8.471   9.859  0.0426  0.9803  0.2144
  176MOL0     C23647   2.292   8.558   9.886 -0.1301  0.2724 -0.0505
  176MOL0     C23648   2.178   8.502   9.969 -0.4643  0.1773 -0.2904
  176MOL0     O23649   2.207   8.531  10.106  0.0721  0.2512 -0.5815
  176MOL0     C23650   2.104   8.511  10.199  0.1930 -0.7215  0.2404
  176MOL0     C23651   1.986   8.447  10.172 -0.9723  0.2486 -0.5764
  176MOL0     C23652   1.881   8.450  10.258  1.0495  0.5773  0.1635
  176MOL0     C23653   1.894   8.491  10.389  0.0806 -0.0095  0.4838
  176MOL0     C23654   1.779   8.494  10.488 -0.9971  0.3465 -0.0731
  176MOL0     O23655   1.660   8.443  10.455  0.2852 -0.0973 -0.4095
  176MOL0     C23656   1.552   8.460  10.550 -0.0839  0.1233  0.7596
  176MOL0     C23657   1.494   8.348  10.605 -0.2328 -0.3903 -0.6826
  176MOL0     C23658   1.381   8.363  10.692 -0.9979  0.1457 -0.3713
  176MOL0     C23659   1.313   8.486  10.705 -0.3235  0.3501 -0.0931
  176MOL0     O23660   1.219   8.492  10.809  0.1825 -0.2834 -0.1201
  176MOL0     C23661   1.116   8.595  10.810  0.6827  1.1716 -0.4023
  176MOL0     C23662   1.123   8.677  10.938 -0.2089  0.4351 -0.8213
  176MOL0     C23663   1.105   8.586  11.068  0.3513 -0.1614  0.2628
  176MOL0     C23664   0.965   8.552  11.093  0.5322  0.2566  0.4875
  176MOL0     C23665   0.957   8.459  11.220 -0.3460 -1.3079 -0.4414
  176MOL0     C23666   0.813   8.402  11.236 -0.4049 -0.3121  0.0174
  176MOL0     C23667   0.808   8.270  11.301  0.7468 -0.1346  0.0932
  176MOL0     C23668   0.865   8.267  11.435  0.4378 -0.3775 -0.8461
  176MOL0    Cl23669   0.858   8.097  11.510  0.0216  0.1024  0.1311
  176MOL0     C23670   1.360   8.594  10.634  0.4655 -0.0862  0.0475
  176MOL0     C23671   1.488   8.589  10.576 -0.2478  0.0319  0.1972
  176MOL0     O23672   1.812   8.535  10.598  0.0703 -0.1124 -0.1369
  176MOL0     C23673   2.025   8.541  10.426  0.5780 -0.1169  0.1086
  176MOL0     C23674   2.121   8.561  10.333 -0.7982  0.1543  0.3616
  176MOL0     N23675   2.711   8.412   9.851  0.5643  0.5347 -0.1794
  176MOL0     N23676   2.813   8.337   9.813  0.9429 -0.7319  0.3931
  176MOL0     C23677   3.004   7.428   9.696  0.5074 -0.2619 -0.1347
  176MOL0     C23678   2.965   7.321   9.777  0.4611  0.1515  0.5914
  176MOL0     C23679   2.850   6.874   9.865  0.7800  0.3065  0.3903
  176MOL0     C23680   2.818   6.918   9.991  0.2254 -0.2153  0.4821
  176MOL0     C23681   2.746   6.843  10.081 -0.0544 -0.1322  0.2465
  176MOL0     C23682   2.714   6.709  10.053  0.4240  0.2694 -0.8175
  176MOL0     O23683   2.633   6.644  10.147  0.1874 -0.5010  0.2858
  176MOL0     C23684   2.560   6.529  10.112  0.9375  0.8666 -0.1430
  176MOL0     C23685   2.469   6.489  10.230 -0.2121  0.0206  0.0117
  176MOL0     C23686   2.345   6.577  10.247  0.0409  1.1758  0.3445
  176MOL0     C23687   2.268   6.536  10.378 -0.1081 -0.5266 -0.6741
  176MOL0     C23688   2.204   6.409  10.363 -0.4784 -0.0876 -0.7546
  176MOL0     C23689   2.143   6.304  10.347  0.0715 -0.1219  0.0176
  176MOL0     C23690   2.742   6.664   9.917 -0.5552  0.4134 -0.6936
  176MOL0     C23691   2.816   6.738   9.826  1.3000  0.0279  0.2229
  176MOL0     C23692   2.842   6.676   9.694  1.2573 -0.0837 -0.5272
  176MOL0     H23693   2.942   7.083   9.524  0.1391 -0.3498  0.8681
  176MOL0     H23694   2.991   7.299   9.390  1.6516  1.1950  0.4145
  176MOL0     H23695   3.097   7.531   9.287  0.6458  0.3744 -0.2694
  176MOL0     H23696   2.931   7.486   9.335 -0.7163  0.6976  1.8358
  176MOL0     H23697   2.937   7.697   9.235 -1.6440  1.5863  0.6505
  176MOL0     H23698   3.060   7.751   9.345 -0.4878 -0.2881  0.2070
  176MOL0     H23699   2.880   7.718   9.532 -0.7554  0.0816 -0.0473
  176MOL0     H23700   2.765   7.695   9.401 -0.2819  0.3237 -0.5455
  176MOL0     H23701   2.954   7.936   9.405 -0.0573 -0.0977  2.5342
  176MOL0     H23702   2.832   7.902   9.284 -4.7088 -0.7120  0.2730
  176MOL0     H23703   2.730   8.065   9.426 -0.8490  0.6088  2.4896
  176MOL0     H23704   2.656   7.913   9.483 -0.3432  1.2375  2.5623
  176MOL0     H23705   2.706   8.010   9.682 -1.7448 -0.1673 -1.6054
  176MOL0     H23706   2.828   7.893   9.650 -1.5091 -1.3262  1.1815
  176MOL0     H23707   3.003   8.058   9.588  2.3773  0.0347  4.0411
  176MOL0     H23708   2.921   8.093   9.741 -3.5591 -1.5589 -0.0119
  176MOL0     H23709   2.961   8.303   9.575  0.3553 -0.9775 -3.6560
  176MOL0     H23710   2.833   8.247   9.490  1.5323  2.7253  0.0755
  176MOL0     H23711   2.627   8.353   9.543 -0.0056  1.1473  1.2921
  176MOL0     H23712   2.538   8.637   9.804 -1.0728  0.2136  0.2817
  176MOL0     H23713   2.468   8.551   9.668  1.2736 -0.6594 -0.0232
  176MOL0     H23714   2.382   8.374   9.817  3.8328 -0.9047  1.4392
  176MOL0     H23715   2.470   8.453   9.950  0.2653 -0.2807 -0.1582
  176MOL0     H23716   2.249   8.575   9.788  2.5734 -1.3579 -1.6420
  176MOL0     H23717   2.329   8.650   9.933 -1.3999 -1.0246  3.9422
  176MOL0     H23718   2.160   8.395   9.956  2.6959 -0.6289  0.9115
  176MOL0     H23719   2.087   8.559   9.950  1.1296  1.9175 -3.4962
  176MOL0     H23720   1.972   8.400  10.075  0.4581 -0.8346 -0.2857
  176MOL0     H23721   1.789   8.397  10.235 -0.7729  3.1272  1.1755
  176MOL0     H23722   1.536   8.252  10.574  0.5543  0.0196 -0.9167
  176MOL0     H23723   1.336   8.276  10.738 -0.8067  0.9928  1.5046
  176MOL0     H23724   1.114   8.649  10.715  1.1317  0.5720 -0.7557
  176MOL0     H23725   1.021   8.540  10.811 -0.1590  2.2612  4.6828
  176MOL0     H23726   1.220   8.728  10.941  0.3162 -0.3920 -2.8257
  176MOL0     H23727   1.052   8.760  10.943 -0.8429 -0.0496 -1.6338
  176MOL0     H23728   1.163   8.494  11.063 -0.5895 -0.7181 -0.5772
  176MOL0     H23729   1.148   8.648  11.147 -0.6420 -0.1649  0.8163
  176MOL0     H23730   0.927   8.499  11.006  1.1215  2.2200 -1.0273
  176MOL0     H23731   0.906   8.643  11.111 -1.3483 -0.9291  0.6088
  176MOL0     H23732   0.986   8.507  11.314 -0.3329 -1.0111 -0.5947
  176MOL0     H23733   1.023   8.373  11.212  1.3017 -0.2731  1.1026
  176MOL0     H23734   0.758   8.480  11.291 -2.1208  1.3452 -3.6728
  176MOL0     H23735   0.779   8.400  11.132  1.2601 -2.4683 -0.5424
  176MOL0     H23736   0.857   8.198  11.235 -0.8304 -0.7860 -0.4151
  176MOL0     H23737   0.703   8.238  11.304  1.1050 -1.3583  0.2379
  176MOL0     H23738   0.967   8.304  11.422 -0.2707  1.7650 -0.7428
  176MOL0     H23739   0.811   8.330  11.506 -2.4311 -2.5364 -0.9183
  176MOL0     H23740   1.306   8.687  10.638  0.7091  0.0558  0.0866
  176MOL0     H23741   1.521   8.681  10.529 -0.1901 -0.9160 -1.7043
  176MOL0     H23742   2.047   8.566  10.530 -0.9016 -3.0497  1.2360
  176MOL0     H23743   2.217   8.597  10.369 -0.7969  0.4064  0.1109
  176MOL0     H23744   3.029   7.512   9.759 -1.1667 -1.2612  2.0098
  176MOL0     H23745   2.956   7.331   9.885  1.6144  2.1634  0.5376
  176MOL0     H23746   2.849   7.017  10.022  0.4580 -0.2839  0.4664
  176MOL0     H23747   2.727   6.887  10.178  0.1323 -3.9828  2.2214
  176MOL0     H23748   2.625   6.447  10.080 -1.4674 -0.8494 -0.9363
  176MOL0     H23749   2.495   6.545  10.026  0.4538 -0.4908 -0.0511
  176MOL0     H23750   2.520   6.485  10.327 -0.9332  4.4535  0.7802
  176MOL0     H23751   2.449   6.389  10.191  3.8293 -0.1084 -2.3775
  176MOL0     H23752   2.278   6.553  10.164 -1.0837 -1.9776  1.9891
  176MOL0     H23753   2.373   6.683  10.255  4.7607  0.0887  0.7993
  176MOL0     H23754   2.331   6.537  10.467 -1.7299 -1.2318  0.5375
  176MOL0     H23755   2.191   6.611  10.394 -1.2410 -1.4195 -1.6625
  176MOL0     H23756   2.103   6.205  10.350  0.8641 -0.5404  4.6715
  176MOL0     H23757   2.736   6.564   9.876  1.4096 -0.3687  0.7412
  176MOL0     H23758   2.882   6.575   9.706 -1.7030 -1.7290 -3.0118
  176MOL0     H23759   2.751   6.659   9.636  1.6506 -0.1798 -1.1313
  176MOL0     H23760   2.913   6.733   9.632  1.2414 -1.1958 -1.6088
  177MOL0     O23761   3.854   1.828   0.274  0.4482  0.6537 -0.4459
  177MOL0     C23762   3.845   1.773   0.382 -0.5303 -0.3716  0.6656
  177MOL0     O23763   3.923   1.804   0.483 -0.6426  0.2636  0.0969
  177MOL0     C23764   4.029   1.893   0.468  0.0543 -0.1999  0.1472
  177MOL0     C23765   4.166   1.856   0.466  0.0862  0.3534  0.0882
  177MOL0     C23766   4.265   1.953   0.457 -0.6819  0.1804 -0.0411
  177MOL0     C23767   4.234   2.089   0.436  0.0888  0.0407 -0.3150
  177MOL0     O23768   4.321   2.184   0.396 -0.7355  0.0080  0.3817
  177MOL0     C23769   4.465   2.169   0.401 -0.7083  0.4727 -0.1221
  177MOL0     C23770   4.525   2.298   0.344  0.0206  0.0737 -0.3874
  177MOL0     C23771   4.490   2.323   0.191  0.1370  0.8464 -0.2543
  177MOL0     C23772   4.504   2.466   0.149 -0.2676 -0.0715 -1.2361
  177MOL0     C23773   4.500   2.488  -0.008 -0.5408  0.1598  0.7334
  177MOL0     C23774   4.602   2.593  -0.068 -0.6117  0.4201 -0.6142
  177MOL0     C23775   4.605   2.731  -0.001 -0.2306 -0.1136  0.0434
  177MOL0     C23776   4.475   2.811   0.013  0.3185 -0.4059 -0.4906
  177MOL0     N23777   4.525   2.930   0.077 -0.1711  0.2964  0.0772
  177MOL0     C23778   4.560   2.939   0.211 -0.6768  1.0762 -0.4741
  177MOL0     C23779   4.615   3.061   0.226  0.0130 -0.3032  0.6519
  177MOL0     C23780   4.658   3.133   0.348 -0.8003  0.0033 -0.0012
  177MOL0     C23781   4.582   3.098   0.474  0.3068 -0.6457 -0.1715
  177MOL0     C23782   4.619   3.180   0.600  0.4934 -0.2352 -0.8769
  177MOL0     C23783   4.575   3.122   0.737  0.3191  1.0136  0.4163
  177MOL0     O23784   4.643   2.992   0.761  0.0716 -0.5560 -0.4738
  177MOL0     C23785   4.779   2.982   0.759 -0.6842 -0.6206 -0.7708
  177MOL0     C23786   4.859   3.094   0.788 -0.1168 -0.4236 -0.4314
  177MOL0     C23787   4.990   3.066   0.833  0.1548 -0.1545  0.1004
  177MOL0     C23788   5.048   2.939   0.833 -0.1287  0.3460 -0.2874
  177MOL0     C23789   5.197   2.920   0.856  0.8522  0.0958 -0.0414
  177MOL0     O23790   5.242   2.789   0.845  0.4490  0.5589 -0.3227
  177MOL0     C23791   5.379   2.784   0.850  0.4098  0.0764 -0.4878
  177MOL0     C23792   5.450   2.776   0.972  0.1239 -0.3110 -0.0667
  177MOL0     C23793   5.588   2.789   0.974 -0.3986 -0.7135 -0.6713
  177MOL0     C23794   5.658   2.804   0.846  0.5749  0.9785 -1.7332
  177MOL0     O23795   5.794   2.812   0.841  0.7175 -0.5863 -0.3937
  177MOL0     C23796   5.874   2.807   0.956  0.1746  0.0869 -0.1615
  177MOL0     C23797   6.014   2.825   0.914  0.2264  0.7414  0.0919
  177MOL0     C23798   6.061   2.688   0.851 -0.5619  0.2683 -0.5256
  177MOL0     C23799   6.202   2.705   0.798  0.4111 -0.2808  0.3749
  177MOL0     C23800   6.273   2.589   0.730  0.3003  0.4599  0.3387
  177MOL0     C23801   6.413   2.636   0.682 -0.5535  1.1430 -0.6431
  177MOL0     C23802   6.519   2.632   0.790  0.1320 -0.9472 -0.1083
  177MOL0     C23803   6.664   2.675   0.748  0.3003 -0.1164  0.2906
  177MOL0    Cl23804   6.750   2.681   0.912  0.2214 -0.3541  0.5323
  177MOL0     C23805   5.586   2.793   0.734 -0.1410 -0.6390  0.1955
  177MOL0     C23806   5.446   2.791   0.733  0.0355  0.7952 -0.4107
  177MOL0     O23807   5.271   3.019   0.859  0.3498  0.3778  0.2131
  177MOL0     C23808   4.963   2.829   0.801 -0.1305  0.3229 -0.7399
  177MOL0     C23809   4.833   2.846   0.762  0.8027  0.3298 -1.3459
  177MOL0     N23810   4.620   3.124   0.101 -0.0505  0.0388 -0.3705
  177MOL0     N23811   4.565   3.043   0.018 -0.4733 -0.0227 -0.2043
  177MOL0     C23812   4.100   2.122   0.419  0.4521 -1.3254 -0.0896
  177MOL0     C23813   4.002   2.029   0.432 -0.0527  0.1264 -0.0238
  177MOL0     C23814   3.745   1.659   0.391 -0.1478  0.4687  0.2630
  177MOL0     C23815   3.639   1.692   0.477  0.0313 -0.3266 -0.3545
  177MOL0     C23816   3.538   1.604   0.493 -0.5985 -0.2590  0.3414
  177MOL0     C23817   3.536   1.480   0.425  0.5433  0.7452  0.8870
  177MOL0     O23818   3.439   1.378   0.432 -0.1747 -0.0757  0.0952
  177MOL0     C23819   3.325   1.391   0.524 -0.5090 -0.6633 -0.4613
  177MOL0     C23820   3.253   1.267   0.552  0.7984  0.0798 -0.3273
  177MOL0     C23821   3.341   1.174   0.642 -0.1773 -0.5773 -0.6158
  177MOL0     C23822   3.272   1.043   0.674  0.4235  0.0866  0.0849
  177MOL0     C23823   3.222   0.968   0.568  1.0228 -0.3482  0.2713
  177MOL0     C23824   3.161   0.893   0.492  0.9918 -0.5031 -1.0067
  177MOL0     C23825   3.635   1.458   0.330 -0.6229  0.4208 -0.7603
  177MOL0     C23826   3.733   1.555   0.303 -0.4119  0.4779 -0.3279
  177MOL0     C23827   3.829   1.531   0.183  0.3313 -0.3468 -0.8431
  177MOL0     H23828   4.189   1.752   0.485  0.0420 -0.0173 -1.7076
  177MOL0     H23829   4.358   1.897   0.458 -1.5243 -1.2623  0.0501
  177MOL0     H23830   4.484   2.160   0.508 -1.5329  2.5103  0.2482
  177MOL0     H23831   4.484   2.072   0.355 -2.2590 -1.0626  2.2480
  177MOL0     H23832   4.634   2.295   0.355  0.1648 -0.9252 -1.8208
  177MOL0     H23833   4.484   2.381   0.403 -1.9440 -1.0675 -0.0650
  177MOL0     H23834   4.384   2.306   0.168  0.2250  0.8601 -0.6658
  177MOL0     H23835   4.559   2.266   0.129  1.5545  1.2039  0.9354
  177MOL0     H23836   4.423   2.530   0.186  0.4701  0.1572  0.0181
  177MOL0     H23837   4.598   2.502   0.192 -1.4542  0.0462  1.4574
  177MOL0     H23838   4.521   2.391  -0.054 -2.9479 -0.8346  1.5448
  177MOL0     H23839   4.402   2.524  -0.041 -1.3764 -0.6113  2.2604
  177MOL0     H23840   4.704   2.552  -0.070  0.2382  2.4651 -1.3869
  177MOL0     H23841   4.578   2.621  -0.172  0.0882  2.4141 -0.2808
  177MOL0     H23842   4.680   2.797  -0.044 -1.2599  2.1204  1.4311
  177MOL0     H23843   4.637   2.701   0.099  2.2535  0.6418 -0.4623
  177MOL0     H23844   4.426   2.835  -0.082  1.2745  0.9619 -0.6620
  177MOL0     H23845   4.396   2.759   0.067  0.1994 -2.3916 -2.4069
  177MOL0     H23846   4.537   2.876   0.296 -0.9110  3.1468  1.0906
  177MOL0     H23847   4.761   3.102   0.366  0.0281  2.4445 -0.2016
  177MOL0     H23848   4.663   3.241   0.332  2.8833  0.2643  1.9152
  177MOL0     H23849   4.480   3.121   0.444  0.5303 -0.7111 -0.9921
  177MOL0     H23850   4.588   2.990   0.493  2.9572 -0.6725 -0.7898
  177MOL0     H23851   4.574   3.280   0.598  2.1877  0.5549 -1.0012
  177MOL0     H23852   4.728   3.190   0.600  0.4911  2.4375 -4.9005
  177MOL0     H23853   4.469   3.094   0.741  0.4686  0.3616 -0.0945
  177MOL0     H23854   4.599   3.194   0.816 -0.6613 -0.7072  2.3953
  177MOL0     H23855   4.829   3.198   0.779  2.8236  0.4075 -2.0545
  177MOL0     H23856   5.053   3.149   0.864  0.2088  0.2211 -0.9764
  177MOL0     H23857   5.395   2.775   1.065 -3.3930  1.4673 -1.9116
  177MOL0     H23858   5.648   2.792   1.064 -0.3140 -0.2761 -0.7367
  177MOL0     H23859   5.838   2.881   1.029 -0.0712  0.3836 -0.5806
  177MOL0     H23860   5.851   2.706   0.990 -0.8896 -0.1759 -1.5850
  177MOL0     H23861   6.033   2.902   0.838  1.4672  0.0109 -0.3638
  177MOL0     H23862   6.074   2.838   1.005 -0.0708 -2.5834  0.8736
  177MOL0     H23863   6.073   2.616   0.933  2.6231 -0.7124 -1.7303
  177MOL0     H23864   5.989   2.645   0.781  0.6352  1.0777 -2.3344
  177MOL0     H23865   6.272   2.734   0.878  2.5565  0.4104 -1.6348
  177MOL0     H23866   6.207   2.781   0.720  2.2715  0.2886  0.9782
  177MOL0     H23867   6.214   2.564   0.641  0.1954  1.1659  0.2020
  177MOL0     H23868   6.282   2.510   0.805  0.3668  0.9337  0.8361
  177MOL0     H23869   6.452   2.564   0.610 -1.0418  0.9364 -0.7052
  177MOL0     H23870   6.403   2.732   0.630  3.4605  1.2246 -1.6069
  177MOL0     H23871   6.533   2.529   0.824 -2.0822 -1.6585 -1.1677
  177MOL0     H23872   6.508   2.699   0.876  3.6935 -0.6610  0.2737
  177MOL0     H23873   6.705   2.601   0.678  1.4170  0.8714 -0.1250
  177MOL0     H23874   6.665   2.774   0.702  4.8548  0.0074  0.2130
  177MOL0     H23875   5.631   2.816   0.639  1.4662  0.0571  1.0911
  177MOL0     H23876   5.386   2.793   0.643  0.0598 -4.4197 -0.8548
  177MOL0     H23877   5.010   2.732   0.790  2.1044  0.9367  2.1995
  177MOL0     H23878   4.765   2.765   0.739  0.5559  0.8166 -2.4052
  177MOL0     H23879   4.069   2.221   0.385  0.8889 -1.2467 -0.2705
  177MOL0     H23880   3.900   2.066   0.423 -0.1631 -0.4990 -1.5954
  177MOL0     H23881   3.642   1.789   0.526  0.0586 -0.6048  0.2045
  177MOL0     H23882   3.454   1.638   0.553 -1.1481 -1.9984  0.5999
  177MOL0     H23883   3.251   1.458   0.478  0.8780  1.2522 -0.0134
  177MOL0     H23884   3.353   1.438   0.618 -2.0644  3.4621 -1.8146
  177MOL0     H23885   3.225   1.236   0.451 -1.4561  2.7025 -0.6258
  177MOL0     H23886   3.163   1.299   0.605  1.5689  1.3865  0.2321
  177MOL0     H23887   3.377   1.220   0.735 -0.3449 -2.5331  0.4785
  177MOL0     H23888   3.437   1.147   0.596  1.2692 -2.9309  3.2683
  177MOL0     H23889   3.333   0.971   0.729 -0.8276 -1.7770 -0.8673
  177MOL0     H23890   3.190   1.062   0.744  0.7246 -4.3215  1.9494
  177MOL0     H23891   3.095   0.824   0.445 -2.0841  1.6998 -0.2703
  177MOL0     H23892   3.622   1.367   0.274  0.6627 -0.4759  0.3336
  177MOL0     H23893   3.908   1.606   0.188  0.9102 -0.8897 -1.6600
  177MOL0     H23894   3.877   1.432   0.192 -0.7963 -0.8196  0.3126
  177MOL0     H23895   3.777   1.538   0.087 -2.5031  0.6189  0.6446
  178MOL0     O23896   0.555  10.112   9.272 -0.3476 -0.0952 -0.3866
  178MOL0     C23897   0.603  10.120   9.391  0.4316 -0.3876  0.6094
  178MOL0     O23898   0.710  10.200   9.428  0.3922  0.0610  0.6444
  178MOL0     C23899   0.760  10.270   9.320  0.4752 -0.3891 -0.4017
  178MOL0     C23900   0.740  10.408   9.319 -0.2182  0.4115  0.5997
  178MOL0     C23901   0.785  10.485   9.221 -0.5615  0.4932 -0.3871
  178MOL0     C23902   0.857  10.426   9.116 -0.9135 -0.4087 -0.4320
  178MOL0     O23903   0.914  10.513   9.026 -0.0055  0.0171  0.5278
  178MOL0     C23904   0.899  10.654   9.022  0.1214  0.3729 -0.0218
  178MOL0     C23905   0.969  10.697   8.890  0.4267  0.0312  0.5164
  178MOL0     C23906   0.920  10.635   8.762  0.9069 -0.0814  0.8630
  178MOL0     C23907   1.030  10.644   8.652  0.4693  0.1737  0.0422
  178MOL0     C23908   0.966  10.682   8.522 -0.2551 -0.9280  1.0418
  178MOL0     C23909   1.063  10.717   8.405  0.1310 -0.0566 -0.0407
  178MOL0     C23910   1.010  10.687   8.265 -0.1784  0.5679  0.3459
  178MOL0     C23911   1.133  10.714   8.159  1.1395 -0.3122 -0.1626
  178MOL0     N23912   1.245  10.620   8.175 -0.0714  0.2549  0.4454
  178MOL0     C23913   1.259  10.487   8.131  0.8320  1.3087 -1.1355
  178MOL0     C23914   1.389  10.459   8.138 -0.9156  0.2454  0.2010
  178MOL0     C23915   1.443  10.327   8.091 -0.4049 -0.0381 -0.4698
  178MOL0     C23916   1.406  10.213   8.181 -0.1247 -0.1102  0.7633
  178MOL0     C23917   1.480  10.086   8.124 -0.0849 -0.5848 -0.4685
  178MOL0     C23918   1.624  10.087   8.145 -0.3967  0.2383  0.3369
  178MOL0     O23919   1.647  10.106   8.278 -0.3638 -0.6022  0.7603
  178MOL0     C23920   1.775  10.116   8.324  0.5521  0.6956  0.0256
  178MOL0     C23921   1.782  10.116   8.462 -0.4279  0.0788 -0.4580
  178MOL0     C23922   1.909  10.141   8.530  0.3744  0.5472 -0.4700
  178MOL0     C23923   2.029  10.151   8.452 -0.1531  0.6290 -0.7581
  178MOL0     C23924   2.163  10.164   8.520 -0.4976 -1.3302  0.3946
  178MOL0     O23925   2.178  10.134   8.651  0.7774 -0.2281 -0.0111
  178MOL0     C23926   2.295  10.150   8.722  0.2106 -0.6012  0.0283
  178MOL0     C23927   2.363  10.044   8.781  0.5242 -0.5109 -0.0987
  178MOL0     C23928   2.488  10.055   8.845 -0.0100 -0.0150  0.3318
  178MOL0     C23929   2.549  10.184   8.852 -0.6983  0.4886 -0.1457
  178MOL0     O23930   2.671  10.211   8.914 -0.5165  0.0039  0.8169
  178MOL0     C23931   2.755  10.325   8.863  0.4775 -0.0127  0.3614
  178MOL0     C23932   2.892  10.357   8.932  0.1070  0.0344 -0.7103
  178MOL0     C23933   2.987  10.233   8.922  0.6468 -0.1760  0.0530
  178MOL0     C23934   3.130  10.273   8.901  0.3735  0.1875  0.3858
  178MOL0     C23935   3.166  10.323   8.760 -0.7779  0.1099  0.5480
  178MOL0     C23936   3.131  10.243   8.633 -0.2108  0.2648 -0.3788
  178MOL0     C23937   3.207  10.105   8.625 -0.6645 -0.0233 -0.1087
  178MOL0     C23938   3.179  10.033   8.495  0.5859 -0.2488 -0.2055
  178MOL0    Cl23939   3.230  10.122   8.348 -0.1411 -0.7960 -0.0015
  178MOL0     C23940   2.472  10.287   8.794 -0.0957 -0.7933  0.0113
  178MOL0     C23941   2.342  10.272   8.742  0.3168  0.0800  0.3385
  178MOL0     O23942   2.257  10.190   8.447 -0.0285  0.2945 -0.5613
  178MOL0     C23943   2.015  10.154   8.316  0.3355  0.2550  0.4298
  178MOL0     C23944   1.898  10.137   8.244  0.3516  0.2695 -0.4773
  178MOL0     N23945   1.458  10.572   8.180  0.3936  0.5139 -0.0772
  178MOL0     N23946   1.367  10.667   8.206 -0.6464  0.5473 -0.4653
  178MOL0     C23947   0.884  10.285   9.114 -0.0624 -0.1628 -0.2146
  178MOL0     C23948   0.834  10.212   9.214  0.0950 -0.3932  0.5277
  178MOL0     C23949   0.541  10.036   9.492 -0.1917  0.1954 -0.0679
  178MOL0     C23950   0.540   9.899   9.478  0.5054 -0.6273  0.1046
  178MOL0     C23951   0.478   9.810   9.578  0.7745  0.2093 -0.6645
  178MOL0     C23952   0.410   9.867   9.686 -0.4345  0.9132  0.5564
  178MOL0     O23953   0.341   9.786   9.766 -0.0265  0.3551 -0.2575
  178MOL0     C23954   0.408   9.667   9.818  0.9136  0.2157  0.6233
  178MOL0     C23955   0.373   9.656   9.963 -0.2806 -0.7489 -0.3726
  178MOL0     C23956   0.439   9.537  10.026  0.2591  0.2647 -0.2338
  178MOL0     C23957   0.367   9.407   9.996  0.1780  0.4214  0.1545
  178MOL0     C23958   0.433   9.298  10.058  0.1100  0.5558  0.5954
  178MOL0     C23959   0.477   9.207  10.124 -0.2479  0.4986 -0.4287
  178MOL0     C23960   0.416  10.001   9.700 -0.1715 -0.6895 -0.1002
  178MOL0     C23961   0.484  10.088   9.613 -0.2668 -0.5888  0.1136
  178MOL0     C23962   0.489  10.236   9.641  0.6884 -1.1814  0.0821
  178MOL0     H23963   0.684  10.450   9.402 -1.7857 -0.2926 -0.0797
  178MOL0     H23964   0.770  10.592   9.224  1.0074  0.7166  0.7795
  178MOL0     H23965   0.796  10.690   9.026 -0.1667 -0.4693  0.2697
  178MOL0     H23966   0.947  10.695   9.112  2.2717 -1.9102 -0.0069
  178MOL0     H23967   1.075  10.671   8.893  0.2072 -0.9107  0.4319
  178MOL0     H23968   0.954  10.803   8.871 -2.2308 -0.5905 -1.4151
  178MOL0     H23969   0.831  10.689   8.728  1.3796  0.0742 -0.1507
  178MOL0     H23970   0.892  10.530   8.769  0.2046  0.1905  3.0261
  178MOL0     H23971   1.113  10.705   8.689  0.2814 -0.3816  1.4689
  178MOL0     H23972   1.082  10.548   8.648  2.9202  1.4454 -0.2427
  178MOL0     H23973   0.901  10.599   8.496 -0.8098 -0.5355  1.1527
  178MOL0     H23974   0.897  10.765   8.541  2.4095  0.6674  5.1092
  178MOL0     H23975   1.075  10.825   8.421 -3.2339  0.4090  0.0630
  178MOL0     H23976   1.158  10.663   8.411 -0.4389 -1.1597 -0.7106
  178MOL0     H23977   0.927  10.750   8.231  0.1473  0.6439 -0.3337
  178MOL0     H23978   0.968  10.587   8.257  0.0535  0.3550  1.6307
  178MOL0     H23979   1.097  10.694   8.058 -0.4285  2.1796 -0.1694
  178MOL0     H23980   1.151  10.822   8.164 -1.5281  0.1389  1.9125
  178MOL0     H23981   1.179  10.424   8.093 -0.5468  2.3813 -0.1647
  178MOL0     H23982   1.408  10.307   7.989  0.2750 -2.7891 -0.2373
  178MOL0     H23983   1.552  10.334   8.094 -0.4362  0.7525  2.8097
  178MOL0     H23984   1.443  10.235   8.282  0.6260  1.5542  0.1592
  178MOL0     H23985   1.297  10.213   8.176 -0.0868  0.4301 -0.1688
  178MOL0     H23986   1.456  10.076   8.018  1.5303  0.9195 -1.0139
  178MOL0     H23987   1.433   9.996   8.166 -2.2338  1.0766  0.9150
  178MOL0     H23988   1.661  10.166   8.079 -1.4858  2.1089  1.8514
  178MOL0     H23989   1.687  10.001   8.119 -0.2543  0.4403  0.0049
  178MOL0     H23990   1.693  10.124   8.523 -1.0418  3.1508 -1.5826
  178MOL0     H23991   1.911  10.160   8.637 -2.6922 -2.0268  0.2074
  178MOL0     H23992   2.318   9.945   8.775  1.0254 -0.9486  2.2488
  178MOL0     H23993   2.539   9.971   8.891  0.1316  0.9721  2.0736
  178MOL0     H23994   2.760  10.312   8.755  0.8246 -1.4893  0.5391
  178MOL0     H23995   2.689  10.411   8.882  3.4526  2.5381 -0.0673
  178MOL0     H23996   2.924  10.437   8.865 -0.9902  1.1107  0.0050
  178MOL0     H23997   2.885  10.402   9.032  3.1421 -0.2012 -0.3004
  178MOL0     H23998   2.968  10.174   9.012  1.3770  1.2288  1.1796
  178MOL0     H23999   2.958  10.180   8.831  2.7998  2.7131 -2.5408
  178MOL0     H24000   3.205  10.195   8.917  0.6406  0.2409 -0.5369
  178MOL0     H24001   3.152  10.349   8.975  1.6327  2.6675 -2.3494
  178MOL0     H24002   3.270  10.357   8.764 -1.4007  3.3781 -3.6480
  178MOL0     H24003   3.107  10.415   8.751 -2.0091 -0.4988  1.9537
  178MOL0     H24004   3.023  10.227   8.623 -0.3834  1.5388 -0.7309
  178MOL0     H24005   3.168  10.310   8.555 -0.6884  1.0342  0.0462
  178MOL0     H24006   3.183  10.038   8.708 -1.4505 -0.0647 -0.3643
  178MOL0     H24007   3.313  10.120   8.645 -0.0118 -0.6939 -2.7375
  178MOL0     H24008   3.240   9.943   8.509 -1.0849 -1.0341  2.8603
  178MOL0     H24009   3.072  10.011   8.487  0.1550  0.8575  1.7500
  178MOL0     H24010   2.518  10.385   8.793 -0.0263 -0.7918  1.2567
  178MOL0     H24011   2.286  10.359   8.710  1.7615  0.2003 -2.1440
  178MOL0     H24012   2.103  10.170   8.255  1.1421  1.5033  1.8470
  178MOL0     H24013   1.913  10.165   8.141  0.4081  2.2191  0.0311
  178MOL0     H24014   0.927  10.248   9.021  0.2181  1.5567 -0.8026
  178MOL0     H24015   0.849  10.106   9.196  0.2315 -0.3604  0.4468
  178MOL0     H24016   0.578   9.858   9.385 -3.2511  0.7779 -2.2647
  178MOL0     H24017   0.468   9.703   9.573 -0.1876  0.2271  0.6319
  178MOL0     H24018   0.518   9.667   9.814  0.9000 -0.1356 -0.0577
  178MOL0     H24019   0.369   9.580   9.764 -0.6460 -0.1907  2.3097
  178MOL0     H24020   0.264   9.646   9.961 -0.1827 -3.5669 -5.3693
  178MOL0     H24021   0.400   9.751  10.011  1.8225 -1.3632 -0.2872
  178MOL0     H24022   0.441   9.554  10.134  3.4351  1.1740 -0.3237
  178MOL0     H24023   0.541   9.528   9.987  0.1462 -1.8221 -0.1525
  178MOL0     H24024   0.268   9.406  10.042  0.0436  3.1127  0.1173
  178MOL0     H24025   0.350   9.394   9.888 -0.8478  1.7811  0.1292
  178MOL0     H24026   0.534   9.133  10.176  1.6833  1.4531 -1.0665
  178MOL0     H24027   0.350  10.025   9.782 -0.4918 -0.8020 -0.3252
  178MOL0     H24028   0.420  10.298   9.583 -0.6028 -0.2192  2.4722
  178MOL0     H24029   0.460  10.266   9.742 -0.6637 -0.0674 -0.5962
  178MOL0     H24030   0.584  10.284   9.619  1.2608 -3.6907 -3.7859
  179MOL0     O24031   0.461   7.891  11.125 -0.0532  0.0359 -0.4064
  179MOL0     C24032   0.353   7.932  11.167  0.4847 -0.2656  0.3254
  179MOL0     O24033   0.316   7.943  11.298  0.1279  0.9390  0.1487
  179MOL0     C24034   0.406   7.906  11.392  0.2333  0.3351 -0.1465
  179MOL0     C24035   0.475   8.010  11.451  0.8657  0.2066  0.1448
  179MOL0     C24036   0.568   7.979  11.552  0.4191 -0.4875 -0.8340
  179MOL0     C24037   0.596   7.853  11.585 -0.6102  0.0902 -0.1008
  179MOL0     O24038   0.684   7.829  11.691 -0.2955 -0.1367  1.0254
  179MOL0     C24039   0.799   7.748  11.643 -0.2373  1.3518  0.0805
  179MOL0     C24040   0.899   7.717  11.759  0.3532  1.2864  0.3791
  179MOL0     C24041   1.024   7.645  11.699 -0.7530 -0.1923 -0.3981
  179MOL0     C24042   1.138   7.734  11.652  0.8114 -0.0427 -0.1969
  179MOL0     C24043   1.195   7.826  11.759 -0.6854 -0.2498 -0.5599
  179MOL0     C24044   1.322   7.893  11.719  0.2775 -0.5806  1.0317
  179MOL0     C24045   1.407   7.926  11.845  0.0875  1.3786 -1.1781
  179MOL0     C24046   1.344   8.021  11.942 -0.0444  0.8117  0.1811
  179MOL0     N24047   1.436   8.034  12.057  0.1437  0.0636 -0.1326
  179MOL0     C24048   1.400   8.010  12.189 -0.2186 -0.0760  1.0375
  179MOL0     C24049   1.508   8.033  12.251  0.2712 -0.1463 -0.0347
  179MOL0     C24050   1.515   7.996  12.391 -0.8578  0.8101 -0.2333
  179MOL0     C24051   1.541   8.125  12.470 -0.5009 -0.5491 -1.0064
  179MOL0     C24052   1.548   8.087  12.617  0.2362 -0.3997  0.0585
  179MOL0     C24053   1.545   8.215  12.708 -0.1916  0.0394  0.0199
  179MOL0     O24054   1.448   8.309  12.658 -0.6119 -0.1255  0.2498
  179MOL0     C24055   1.403   8.403  12.755  0.5491  0.3118 -1.2201
  179MOL0     C24056   1.281   8.463  12.746 -0.5270  0.0645  0.0837
  179MOL0     C24057   1.233   8.557  12.838 -0.2248 -0.1364 -0.5516
  179MOL0     C24058   1.321   8.609  12.932  0.1509 -0.5214 -0.2837
  179MOL0     C24059   1.292   8.707  13.035  0.1330  0.5160 -0.0615
  179MOL0     O24060   1.385   8.733  13.139 -0.3335 -0.6060 -0.6103
  179MOL0     C24061   1.389   8.861  13.202  0.5011 -0.1621 -0.6429
  179MOL0     C24062   1.368   8.988  13.148 -0.6804  0.4767 -1.0125
  179MOL0     C24063   1.366   9.097  13.229  0.1824  0.7486  0.0124
  179MOL0     C24064   1.377   9.087  13.370 -0.3316  0.4237  0.9907
  179MOL0     O24065   1.357   9.196  13.457 -0.4139 -0.0719  0.2382
  179MOL0     C24066   1.258   9.288  13.419 -0.4479  0.4783  0.8224
  179MOL0     C24067   1.227   9.355  13.549 -0.7049 -0.3806 -0.4223
  179MOL0     C24068   1.337   9.456  13.591 -0.0291 -0.1893 -0.8153
  179MOL0     C24069   1.281   9.550  13.702 -0.9585  0.3186  0.1066
  179MOL0     C24070   1.400   9.652  13.727  0.1303 -0.1062  0.0400
  179MOL0     C24071   1.376   9.764  13.835 -0.1069 -0.2139  0.4354
  179MOL0     C24072   1.493   9.861  13.811  0.7311 -0.3256 -0.8256
  179MOL0     C24073   1.544   9.901  13.951 -0.3051 -0.4731 -0.1868
  179MOL0    Cl24074   1.426  10.021  14.019 -0.1261  0.2605  0.2709
  179MOL0     C24075   1.406   8.963  13.427 -0.0442 -0.1052  0.7704
  179MOL0     C24076   1.407   8.850  13.342  0.1657 -0.0844  0.2428
  179MOL0     O24077   1.195   8.779  13.010  0.4068  0.1348  1.0892
  179MOL0     C24078   1.452   8.552  12.943 -0.0969  0.0123  0.1520
  179MOL0     C24079   1.482   8.446  12.862  0.4272 -0.0905 -0.0422
  179MOL0     N24080   1.608   8.080  12.171 -0.0327 -0.2438  0.4468
  179MOL0     N24081   1.560   8.085  12.056  0.4490 -0.2163  0.6054
  179MOL0     C24082   0.529   7.751  11.526 -0.1693  0.3024  0.0215
  179MOL0     C24083   0.427   7.777  11.433 -0.0689 -0.0715  0.2639
  179MOL0     C24084   0.244   7.974  11.073  0.4597  0.2233 -0.7787
  179MOL0     C24085   0.263   7.946  10.935  0.9068 -0.0013 -0.3058
  179MOL0     C24086   0.166   7.968  10.834 -0.6427  0.1017  0.0462
  179MOL0     C24087   0.049   8.032  10.870 -0.1729  0.3191 -0.0317
  179MOL0     O24088  -0.052   8.074  10.789 -0.0810  0.2042 -0.1701
  179MOL0     C24089  -0.099   7.994  10.684 -0.4530 -0.8340  0.0343
  179MOL0     C24090  -0.221   8.062  10.631  0.2915 -0.0957  0.5268
  179MOL0     C24091  -0.343   8.055  10.733  0.4772  0.6342  0.5494
  179MOL0     C24092  -0.405   7.918  10.742  0.4085  0.0694 -0.6314
  179MOL0     C24093  -0.532   7.921  10.824  0.7750 -0.4028 -0.0461
  179MOL0     C24094  -0.632   7.933  10.893  0.9693  0.2065 -0.7194
  179MOL0     C24095   0.029   8.068  11.004 -0.5202 -0.7306  0.9004
  179MOL0     C24096   0.119   8.043  11.105  0.1943  0.4099 -0.5500
  179MOL0     C24097   0.071   8.084  11.235  0.4605  0.5538 -0.4581
  179MOL0     H24098   0.457   8.116  11.436  3.0251  0.5918 -0.0355
  179MOL0     H24099   0.626   8.057  11.601 -1.7786 -0.2447  1.6594
  179MOL0     H24100   0.748   7.658  11.607 -1.5483  1.8341  0.6330
  179MOL0     H24101   0.858   7.793  11.563 -3.0361  1.3249 -2.1646
  179MOL0     H24102   0.850   7.663  11.841  0.3803  0.3433 -0.2032
  179MOL0     H24103   0.923   7.817  11.795  2.5185  1.6088 -1.7478
  179MOL0     H24104   0.998   7.575  11.619 -0.9933  0.8275 -1.2391
  179MOL0     H24105   1.068   7.588  11.781  0.2611  1.7153  0.4395
  179MOL0     H24106   1.219   7.668  11.620  2.5195  1.1872  1.4030
  179MOL0     H24107   1.097   7.792  11.568  0.3705 -3.0030 -2.2117
  179MOL0     H24108   1.125   7.909  11.769  0.0110  0.3932 -0.9230
  179MOL0     H24109   1.207   7.786  11.860 -3.1828  0.4422  0.0859
  179MOL0     H24110   1.370   7.810  11.667  3.5330  2.2238 -0.8578
  179MOL0     H24111   1.295   7.976  11.653 -2.0734 -2.5087 -0.5917
  179MOL0     H24112   1.509   7.954  11.820  1.6546 -1.8477  0.9358
  179MOL0     H24113   1.422   7.833  11.901 -5.2987  0.6643 -0.3928
  179MOL0     H24114   1.327   8.117  11.892 -0.6012 -0.0513 -1.3436
  179MOL0     H24115   1.254   7.969  11.977 -1.0084  1.8906 -0.6093
  179MOL0     H24116   1.308   7.964  12.224  1.4505 -1.9941  3.2301
  179MOL0     H24117   1.426   7.942  12.424  0.9194 -1.2603  1.4730
  179MOL0     H24118   1.598   7.927  12.409 -1.0156  0.9136  0.9968
  179MOL0     H24119   1.638   8.170  12.446  0.0217 -0.0636  1.6434
  179MOL0     H24120   1.463   8.195  12.440 -1.4803 -0.5403  1.3223
  179MOL0     H24121   1.642   8.038  12.646  0.1427  0.6210  2.2621
  179MOL0     H24122   1.464   8.026  12.651  1.7528 -0.6227  3.8853
  179MOL0     H24123   1.650   8.247  12.716 -0.8308  1.8870  2.0476
  179MOL0     H24124   1.527   8.183  12.811  0.7430 -2.6651 -0.5697
  179MOL0     H24125   1.214   8.437  12.665 -0.5949  0.1701  0.1061
  179MOL0     H24126   1.129   8.586  12.841 -0.0947  0.2707  1.5846
  179MOL0     H24127   1.350   8.982  13.041  0.5496  0.8182 -1.2550
  179MOL0     H24128   1.358   9.192  13.178  2.7450  2.5392  2.6512
  179MOL0     H24129   1.291   9.361  13.344 -1.6151 -0.4894 -0.6902
  179MOL0     H24130   1.162   9.243  13.391 -0.1301  0.4306 -0.2494
  179MOL0     H24131   1.130   9.404  13.537  0.0065  1.4721  0.9828
  179MOL0     H24132   1.208   9.283  13.629 -3.7028  0.6644 -0.0598
  179MOL0     H24133   1.421   9.400  13.635 -0.6796 -0.5709 -0.0466
  179MOL0     H24134   1.360   9.501  13.494 -0.3614 -1.2865 -1.4239
  179MOL0     H24135   1.261   9.489  13.790 -0.6722  0.0991  0.0198
  179MOL0     H24136   1.188   9.596  13.668 -2.7558 -2.7749  0.5004
  179MOL0     H24137   1.416   9.702  13.632  0.2399  0.5967  0.4223
  179MOL0     H24138   1.487   9.592  13.753 -0.8096 -0.3633  3.0681
  179MOL0     H24139   1.289   9.817  13.794  2.9598  2.7890 -2.9367
  179MOL0     H24140   1.358   9.725  13.936  2.6746 -0.4893  0.9059
  179MOL0     H24141   1.475   9.951  13.751  3.2261  0.7445 -0.1200
  179MOL0     H24142   1.575   9.808  13.763  0.2275  0.8404 -3.1282
  179MOL0     H24143   1.555   9.816  14.020 -0.3200  1.3551  2.2140
  179MOL0     H24144   1.648   9.934  13.941  0.1743 -1.6572  0.5763
  179MOL0     H24145   1.392   8.945  13.533 -3.1580 -0.6681  0.3511
  179MOL0     H24146   1.440   8.751  13.373 -1.3631 -1.9786 -3.5324
  179MOL0     H24147   1.519   8.580  13.024  0.3261  0.6888 -0.4236
  179MOL0     H24148   1.582   8.407  12.878  0.9430  0.8904 -0.7946
  179MOL0     H24149   0.542   7.650  11.564  0.0514  0.4541  0.3484
  179MOL0     H24150   0.394   7.695  11.369  2.9694  0.6740 -2.5772
  179MOL0     H24151   0.361   7.908  10.906  0.9379  0.1006 -0.3381
  179MOL0     H24152   0.197   7.941  10.733  0.1812 -0.4777  0.4381
  179MOL0     H24153  -0.121   7.896  10.727 -2.0600 -0.4577  0.1415
  179MOL0     H24154  -0.016   7.987  10.613 -0.0390 -1.0721  0.5346
  179MOL0     H24155  -0.255   8.018  10.536 -0.2882 -2.8734  1.9170
  179MOL0     H24156  -0.195   8.165  10.606 -2.5729  0.6828  0.3873
  179MOL0     H24157  -0.420   8.124  10.697  2.3417  1.9331 -1.1596
  179MOL0     H24158  -0.314   8.096  10.831  0.5663  1.0006  0.3694
  179MOL0     H24159  -0.442   7.886  10.644 -2.3416 -1.1964  0.7122
  179MOL0     H24160  -0.333   7.845  10.781  0.9817 -0.0141 -1.8114
  179MOL0     H24161  -0.713   7.932  10.963  2.3862 -1.6980  1.0680
  179MOL0     H24162  -0.058   8.128  11.030 -1.0719 -0.6930 -0.8928
  179MOL0     H24163   0.152   8.093  11.309  1.3540 -0.0586 -1.3271
  179MOL0     H24164   0.028   8.184  11.225  1.6291  1.2251  0.7406
  179MOL0     H24165  -0.005   8.021  11.282  2.4795 -0.4748  1.6946
  180MOL0     O24166  10.154   3.880   7.040  0.8234  0.0442 -0.4632
  180MOL0     C24167  10.222   3.835   6.945  1.1263  0.7613 -0.5498
  180MOL0     O24168  10.166   3.785   6.828  0.0445  0.7533 -0.4991
  180MOL0     C24169  10.023   3.787   6.830  0.5148 -0.2107 -0.6438
  180MOL0     C24170   9.958   3.684   6.889  0.4152  0.2143  0.1792
  180MOL0     C24171   9.814   3.681   6.890 -0.1140  0.5044 -0.2591
  180MOL0     C24172   9.743   3.784   6.824  1.2814  0.7707  0.2735
  180MOL0     O24173   9.605   3.786   6.829  0.0771 -0.3772 -0.3070
  180MOL0     C24174   9.542   3.786   6.702 -0.7291 -0.2329 -0.3047
  180MOL0     C24175   9.451   3.664   6.682  0.1807  0.6018  0.3912
  180MOL0     C24176   9.532   3.532   6.679 -0.3692  0.3714  0.4390
  180MOL0     C24177   9.658   3.527   6.584  0.2498 -0.5341 -0.8152
  180MOL0     C24178   9.689   3.380   6.562  0.3269 -0.3341 -0.1502
  180MOL0     C24179   9.814   3.359   6.480  0.6400 -0.0554  1.2712
  180MOL0     C24180   9.874   3.221   6.488  0.0908  0.1030 -0.5512
  180MOL0     C24181   9.997   3.220   6.396 -0.0508  1.0396 -0.2709
  180MOL0     N24182  10.067   3.089   6.375  0.3796  0.2786 -0.2624
  180MOL0     C24183  10.002   2.969   6.370  0.0264  0.4692 -0.2411
  180MOL0     C24184  10.105   2.888   6.341 -0.7470  1.3048  0.0984
  180MOL0     C24185  10.072   2.746   6.291 -0.5932  0.4665  0.1265
  180MOL0     C24186  10.180   2.637   6.331 -0.3865  0.5422 -0.2162
  180MOL0     C24187  10.124   2.499   6.303 -1.4542 -0.1699  0.0613
  180MOL0     C24188  10.234   2.393   6.333 -0.1434  0.1202 -0.6570
  180MOL0     O24189  10.242   2.379   6.477 -0.5848  0.5184 -0.0574
  180MOL0     C24190  10.183   2.273   6.538  0.4255  0.8696  0.2404
  180MOL0     C24191  10.071   2.209   6.492  0.0324  0.0272 -0.3572
  180MOL0     C24192  10.019   2.101   6.555 -0.7166  0.3084 -0.0697
  180MOL0     C24193  10.084   2.051   6.674 -0.4257 -0.2362 -0.6822
  180MOL0     C24194  10.031   1.929   6.740 -0.3983  0.5954  0.2305
  180MOL0     O24195   9.945   1.854   6.667 -0.1833  0.5643  0.2361
  180MOL0     C24196   9.911   1.726   6.709 -0.7554 -0.6098 -0.4833
  180MOL0     C24197   9.794   1.680   6.643 -1.4525  0.4836  0.5025
  180MOL0     C24198   9.734   1.561   6.675  0.5220  0.8684 -0.3739
  180MOL0     C24199   9.779   1.485   6.781 -0.2963 -0.8614  0.3568
  180MOL0     O24200   9.707   1.375   6.817  0.6367 -0.0691  0.1814
  180MOL0     C24201   9.620   1.402   6.919  0.3995 -0.1353  0.8654
  180MOL0     C24202   9.528   1.288   6.960 -0.4020  0.1558  1.0536
  180MOL0     C24203   9.477   1.206   6.837  0.1918 -0.6157 -0.2270
  180MOL0     C24204   9.390   1.087   6.890 -0.8624 -0.5230 -0.1616
  180MOL0     C24205   9.248   1.121   6.936  0.2443  0.9082  0.0239
  180MOL0     C24206   9.173   1.004   6.984  0.1128 -0.4148  0.4182
  180MOL0     C24207   9.200   0.954   7.128  0.0547 -0.3392  0.1045
  180MOL0     C24208   9.118   0.829   7.160 -0.5708 -0.5058  0.3849
  180MOL0    Cl24209   8.959   0.901   7.223  0.1955  0.2902 -0.2910
  180MOL0     C24210   9.898   1.521   6.842 -0.4842  0.3503 -0.4071
  180MOL0     C24211   9.978   1.640   6.805 -0.0995 -0.4315 -0.8433
  180MOL0     O24212  10.076   1.903   6.850 -0.3360 -0.1616  0.1319
  180MOL0     C24213  10.197   2.123   6.728  0.6552  0.3500  0.0940
  180MOL0     C24214  10.244   2.225   6.656 -0.0641 -0.1451  0.3792
  180MOL0     N24215  10.223   2.949   6.344 -0.4595 -0.0086  0.0425
  180MOL0     N24216  10.200   3.069   6.377  0.9059 -0.1170 -0.0978
  180MOL0     C24217   9.817   3.898   6.768 -0.5110 -0.4785 -0.1863
  180MOL0     C24218   9.958   3.898   6.774 -0.6027  0.5865 -0.4716
  180MOL0     C24219  10.366   3.813   6.961 -0.5047  0.0393  0.7891
  180MOL0     C24220  10.428   3.720   6.877  0.1926 -0.4080 -0.7303
  180MOL0     C24221  10.564   3.696   6.884 -1.2427 -0.4883  0.2175
  180MOL0     C24222  10.648   3.755   6.975  0.5705  0.6680  0.8365
  180MOL0     O24223  10.783   3.740   6.991  0.4364  0.1983 -0.1174
  180MOL0     C24224  10.853   3.667   6.891 -0.7177 -0.4939  0.6507
  180MOL0     C24225  10.882   3.742   6.755  0.4286 -0.8955  0.0979
  180MOL0     C24226  10.900   3.643   6.646 -0.2363 -0.5536 -0.4975
  180MOL0     C24227  10.901   3.716   6.514  0.8588 -1.4189 -0.4406
  180MOL0     C24228  11.035   3.780   6.487 -0.1337  0.0976 -0.4300
  180MOL0     C24229  11.143   3.819   6.460 -0.2461  0.0899 -1.2264
  180MOL0     C24230  10.585   3.837   7.067 -0.0584  0.1927 -0.2050
  180MOL0     C24231  10.452   3.875   7.057  0.3167  0.3639 -0.8440
  180MOL0     C24232  10.401   3.965   7.167 -0.3042 -1.2077  0.4598
  180MOL0     H24233  10.012   3.604   6.938  1.0537 -0.2511 -1.2503
  180MOL0     H24234   9.780   3.605   6.960  3.6752  0.9588  2.4307
  180MOL0     H24235   9.474   3.871   6.700 -0.7014 -0.0123  3.0689
  180MOL0     H24236   9.617   3.805   6.624 -0.2814  2.2792  0.6544
  180MOL0     H24237   9.396   3.663   6.588 -0.8968 -1.2805  0.9988
  180MOL0     H24238   9.385   3.669   6.769  1.3968 -0.5482  1.4311
  180MOL0     H24239   9.457   3.461   6.644 -0.5638 -0.8300  3.1134
  180MOL0     H24240   9.569   3.492   6.773  3.5205 -1.9361 -1.7763
  180MOL0     H24241   9.648   3.590   6.495  0.8560  0.0225 -0.4917
  180MOL0     H24242   9.742   3.577   6.632 -0.8439  0.1226  0.4718
  180MOL0     H24243   9.679   3.330   6.659  1.3053  2.2284  1.3631
  180MOL0     H24244   9.610   3.337   6.500  0.1047 -1.9765  1.2038
  180MOL0     H24245   9.782   3.381   6.377 -2.1427 -1.0943  1.8291
  180MOL0     H24246   9.894   3.429   6.506  2.1693 -1.6246  1.0014
  180MOL0     H24247   9.802   3.147   6.453  1.7726 -1.7710 -0.2501
  180MOL0     H24248   9.895   3.213   6.595  5.1457  0.8628 -1.2149
  180MOL0     H24249   9.966   3.243   6.294  2.9611  1.9519 -1.0906
  180MOL0     H24250  10.066   3.299   6.428  1.2416  0.2058 -0.9472
  180MOL0     H24251   9.897   2.941   6.370  0.4182 -1.1128  0.9218
  180MOL0     H24252   9.978   2.713   6.336  0.8160 -0.7095  2.3769
  180MOL0     H24253  10.055   2.755   6.184 -1.0828  1.0578  0.2465
  180MOL0     H24254  10.276   2.663   6.285  0.0168  1.1499  0.9278
  180MOL0     H24255  10.205   2.642   6.438  2.6560  1.4479 -0.8833
  180MOL0     H24256  10.113   2.490   6.195  3.1196 -0.7786 -0.5415
  180MOL0     H24257  10.039   2.483   6.369 -2.5973  0.8994 -1.1030
  180MOL0     H24258  10.332   2.423   6.295  0.3835  2.4996  2.2704
  180MOL0     H24259  10.211   2.298   6.283  1.4189 -0.3724 -0.4757
  180MOL0     H24260  10.020   2.249   6.405 -0.2754 -0.5569 -0.4570
  180MOL0     H24261   9.931   2.050   6.517 -0.2853 -0.2934 -0.2810
  180MOL0     H24262   9.756   1.739   6.560 -1.6503  1.3781  1.2171
  180MOL0     H24263   9.643   1.536   6.621  1.5564 -1.2958 -1.2371
  180MOL0     H24264   9.687   1.409   7.006 -0.5703 -0.9714  1.7107
  180MOL0     H24265   9.569   1.496   6.895 -1.6038 -1.4149 -0.1603
  180MOL0     H24266   9.577   1.234   7.041 -0.3050  3.8846  3.7477
  180MOL0     H24267   9.452   1.345   7.014  0.2638 -0.6041  2.8655
  180MOL0     H24268   9.411   1.267   6.774 -0.2546 -1.4449 -0.5849
  180MOL0     H24269   9.558   1.173   6.772  0.3900  1.2819 -1.0138
  180MOL0     H24270   9.448   1.037   6.969 -1.1196 -2.5503 -1.1885
  180MOL0     H24271   9.377   1.015   6.809  0.3598 -0.9262 -0.0223
  180MOL0     H24272   9.184   1.167   6.860 -0.6462  3.4342  2.1334
  180MOL0     H24273   9.250   1.200   7.011 -0.3851  1.9221 -0.9977
  180MOL0     H24274   9.067   1.029   6.983  0.5969  1.8569 -0.2936
  180MOL0     H24275   9.190   0.919   6.917 -2.5312 -0.5603 -0.1450
  180MOL0     H24276   9.163   1.036   7.191 -1.8140 -1.5638  0.7191
  180MOL0     H24277   9.302   0.927   7.156 -0.4430  0.8108  3.5120
  180MOL0     H24278   9.104   0.764   7.073 -1.7415 -2.3669  1.8882
  180MOL0     H24279   9.163   0.767   7.239 -0.0491 -1.9880 -1.0169
  180MOL0     H24280   9.924   1.465   6.931  0.2270  0.7453 -0.3528
  180MOL0     H24281  10.070   1.668   6.856 -0.5764  1.0522 -0.7373
  180MOL0     H24282  10.254   2.083   6.811  0.2856  1.2924  0.8175
  180MOL0     H24283  10.335   2.277   6.684  0.2806  0.3302 -1.5143
  180MOL0     H24284   9.759   3.986   6.745  0.8195  0.9112  1.5155
  180MOL0     H24285  10.026   3.980   6.755  2.3347 -0.9463  2.4521
  180MOL0     H24286  10.382   3.650   6.807  3.8332 -1.9167 -1.8415
  180MOL0     H24287  10.606   3.622   6.817  2.6116 -0.2355  2.0823
  180MOL0     H24288  10.802   3.574   6.866 -1.6546  0.3629 -0.7445
  180MOL0     H24289  10.951   3.635   6.929 -2.2508 -2.5161  3.1589
  180MOL0     H24290  10.962   3.814   6.772  1.6557 -2.6395  2.2288
  180MOL0     H24291  10.784   3.787   6.737  0.3236 -1.1783 -0.0390
  180MOL0     H24292  10.820   3.568   6.646 -0.0804 -0.8567  2.7333
  180MOL0     H24293  10.995   3.592   6.665 -0.9798 -1.0512  2.3520
  180MOL0     H24294  10.879   3.649   6.431 -1.0538 -3.1004  1.3073
  180MOL0     H24295  10.835   3.803   6.520  0.2373 -1.9100  0.0237
  180MOL0     H24296  11.244   3.838   6.431 -0.2838  1.6422 -0.4348
  180MOL0     H24297  10.650   3.886   7.139 -2.6791  0.4609  2.1755
  180MOL0     H24298  10.469   3.976   7.252 -1.9231 -2.0859  1.9343
  180MOL0     H24299  10.379   4.059   7.117  0.4506 -1.2654 -0.0000
  180MOL0     H24300  10.309   3.917   7.200 -0.1917 -1.5278  0.3049
  181MOL0     O24301   8.472  10.763   3.783  0.4006  0.5161  0.0989
  181MOL0     C24302   8.563  10.725   3.705  0.4646 -1.1420  0.5009
  181MOL0     O24303   8.537  10.700   3.567  0.4165 -0.5530 -0.7430
  181MOL0     C24304   8.407  10.725   3.531  0.1084 -0.3276 -0.7952
  181MOL0     C24305   8.358  10.823   3.444 -0.1717  0.9617  0.4084
  181MOL0     C24306   8.222  10.829   3.410 -0.0362 -0.6385 -0.8636
  181MOL0     C24307   8.129  10.748   3.460 -0.4511  0.0011  0.9714
  181MOL0     O24308   7.997  10.773   3.418 -0.2513  0.0933 -0.2052
  181MOL0     C24309   7.896  10.717   3.502 -0.1844  1.0001 -0.4812
  181MOL0     C24310   7.827  10.612   3.418 -0.3058  0.1969 -0.0980
  181MOL0     C24311   7.784  10.658   3.274 -0.2175  0.0226 -0.5707
  181MOL0     C24312   7.673  10.587   3.201  0.1842  0.5480  0.9022
  181MOL0     C24313   7.701  10.584   3.053 -1.1709  0.0771  0.3325
  181MOL0     C24314   7.579  10.544   2.961  0.4421  0.0013 -0.5126
  181MOL0     C24315   7.625  10.539   2.817  0.3535  0.1249 -0.3533
  181MOL0     C24316   7.492  10.510   2.736 -0.2993  0.1444  0.1345
  181MOL0     N24317   7.511  10.490   2.590  0.0724  0.4247  0.1347
  181MOL0     C24318   7.586  10.389   2.529 -0.6930  0.1882 -0.0031
  181MOL0     C24319   7.602  10.428   2.396 -0.4593  0.3418 -0.0001
  181MOL0     C24320   7.682  10.347   2.298 -0.0398  0.5917  0.3125
  181MOL0     C24321   7.609  10.336   2.162 -0.9892  0.0945  0.3145
  181MOL0     C24322   7.714  10.275   2.056 -0.0574 -1.1590  0.3047
  181MOL0     C24323   7.639  10.215   1.929  0.3946  0.1101 -0.4911
  181MOL0     O24324   7.607  10.321   1.842 -0.4632  0.2676 -0.2389
  181MOL0     C24325   7.522  10.293   1.732 -0.1087  0.0833  0.0602
  181MOL0     C24326   7.463  10.166   1.700 -0.6325 -0.5480  0.2189
  181MOL0     C24327   7.381  10.158   1.586 -0.8228  0.9006 -0.0994
  181MOL0     C24328   7.347  10.265   1.496 -0.3711  0.3297 -1.1493
  181MOL0     C24329   7.271  10.245   1.377  0.4368 -0.0022  0.1219
  181MOL0     O24330   7.245  10.112   1.337  0.1979  0.1308 -0.1398
  181MOL0     C24331   7.181  10.111   1.215  0.0923  0.0055  0.7638
  181MOL0     C24332   7.042  10.132   1.220  0.0751  0.5895 -1.2267
  181MOL0     C24333   6.953  10.109   1.111  0.0331  0.3939 -0.2663
  181MOL0     C24334   7.015  10.080   0.987 -0.3526 -0.2246  0.0288
  181MOL0     O24335   6.927  10.063   0.891 -0.0727  0.6340 -0.5038
  181MOL0     C24336   6.965  10.112   0.764 -0.0678 -0.3297  0.2286
  181MOL0     C24337   6.831  10.156   0.694  0.9409 -0.4988 -0.3764
  181MOL0     C24338   6.743  10.260   0.764  0.2714 -0.2188  0.1336
  181MOL0     C24339   6.828  10.363   0.820  1.0560 -0.4444 -0.6834
  181MOL0     C24340   6.745  10.490   0.841  0.7590 -0.2074 -0.0436
  181MOL0     C24341   6.811  10.598   0.924  0.1797  1.0756  0.0477
  181MOL0     C24342   6.848  10.565   1.068  0.3700  0.4600  1.1295
  181MOL0     C24343   7.000  10.576   1.090 -0.2503  0.4185 -0.4680
  181MOL0    Cl24344   7.032  10.752   1.088  0.0455 -0.5161 -0.1233
  181MOL0     C24345   7.156  10.072   0.975  0.1672 -0.6142  0.3993
  181MOL0     C24346   7.238  10.079   1.092 -0.3754 -0.7380  0.5629
  181MOL0     O24347   7.249  10.352   1.308 -0.1124 -0.2140  0.2488
  181MOL0     C24348   7.405  10.390   1.524  0.5173 -0.3851 -0.4943
  181MOL0     C24349   7.495  10.394   1.636  0.0072  0.1585 -0.5852
  181MOL0     N24350   7.539  10.548   2.383  0.1979  0.0503  0.6713
  181MOL0     N24351   7.483  10.582   2.492  0.0363 -0.5499  0.8955
  181MOL0     C24352   8.178  10.643   3.541 -0.3794  0.7051 -0.7942
  181MOL0     C24353   8.309  10.632   3.573 -0.2303 -0.5023  0.5167
  181MOL0     C24354   8.690  10.703   3.769  0.2327 -0.3390 -0.6031
  181MOL0     C24355   8.699  10.704   3.905 -0.2681 -0.4799 -0.4712
  181MOL0     C24356   8.809  10.668   3.980  0.7102 -0.4614  0.2655
  181MOL0     C24357   8.925  10.639   3.902  0.2879 -0.1653 -0.1911
  181MOL0     O24358   9.041  10.595   3.966 -0.3549  0.3842  0.0680
  181MOL0     C24359   9.090  10.646   4.093 -0.1185  0.3156  0.3785
  181MOL0     C24360   9.068  10.526   4.187 -0.1715  0.7815 -0.5338
  181MOL0     C24361   9.180  10.417   4.199  0.2993 -1.3406  0.0012
  181MOL0     C24362   9.147  10.301   4.293  0.5033  0.2815 -0.0066
  181MOL0     C24363   9.022  10.236   4.235 -0.8145  0.4823  0.0652
  181MOL0     C24364   8.924  10.164   4.196 -0.2085 -0.1055  0.1288
  181MOL0     C24365   8.921  10.633   3.762 -0.2850  0.6324  0.4622
  181MOL0     C24366   8.806  10.678   3.693 -0.7060  0.2290 -0.0767
  181MOL0     C24367   8.812  10.674   3.543  1.1713  0.0695  0.3719
  181MOL0     H24368   8.408  10.910   3.404 -0.6624  1.1973  0.3084
  181MOL0     H24369   8.191  10.912   3.347 -0.8386  3.2777  4.0359
  181MOL0     H24370   7.929  10.688   3.602 -1.0239  1.7553  0.0330
  181MOL0     H24371   7.809  10.778   3.529 -1.9766 -1.2956 -0.7435
  181MOL0     H24372   7.747  10.562   3.474  1.0536 -0.4928  1.2966
  181MOL0     H24373   7.907  10.540   3.403  1.4712  1.4474  2.5736
  181MOL0     H24374   7.869  10.654   3.206 -0.9372  0.6280 -1.5201
  181MOL0     H24375   7.753  10.762   3.286 -0.3881 -0.3093  3.2060
  181MOL0     H24376   7.646  10.485   3.230 -2.3799  0.7438 -0.4889
  181MOL0     H24377   7.580  10.641   3.221  1.2121  3.2808 -1.0251
  181MOL0     H24378   7.730  10.683   3.018 -0.8012 -0.4410 -0.9115
  181MOL0     H24379   7.785  10.516   3.035 -1.7066 -1.5743  3.4552
  181MOL0     H24380   7.536  10.452   2.999  1.0376  0.6918  2.0516
  181MOL0     H24381   7.506  10.626   2.964  2.4242  1.8075  1.2235
  181MOL0     H24382   7.700  10.461   2.801 -0.9139 -1.3692  0.6007
  181MOL0     H24383   7.669  10.636   2.795  0.6240  0.3154  0.9117
  181MOL0     H24384   7.441  10.424   2.781  1.0137 -0.7341  0.0201
  181MOL0     H24385   7.420  10.591   2.749  1.2955  1.3880  1.6430
  181MOL0     H24386   7.629  10.305   2.583  0.6671 -1.4769 -3.3717
  181MOL0     H24387   7.765  10.416   2.279 -0.9213  1.4150 -0.7313
  181MOL0     H24388   7.697  10.248   2.341  0.4664  0.2614 -0.5911
  181MOL0     H24389   7.537  10.253   2.170  0.2157 -1.0558 -0.3050
  181MOL0     H24390   7.551  10.422   2.128 -2.2032 -1.4653 -1.8486
  181MOL0     H24391   7.777  10.201   2.106  1.7231 -0.3974 -0.7083
  181MOL0     H24392   7.779  10.360   2.035 -1.1636  0.2439  2.2504
  181MOL0     H24393   7.555  10.159   1.972  1.2862 -0.0029  1.1735
  181MOL0     H24394   7.699  10.142   1.873 -0.2175  0.9824 -2.3665
  181MOL0     H24395   7.481  10.076   1.757  2.6344  0.2151  0.5574
  181MOL0     H24396   7.348  10.057   1.566 -1.0877  1.4109 -2.4534
  181MOL0     H24397   6.990  10.142   1.315 -3.8980 -2.3529 -2.8264
  181MOL0     H24398   6.849  10.108   1.140  0.3678  1.9373  1.1326
  181MOL0     H24399   7.029  10.200   0.772  1.0897 -1.1336  0.1230
  181MOL0     H24400   7.018  10.038   0.704  0.7201  0.3054  0.1265
  181MOL0     H24401   6.858  10.198   0.597 -1.6815  0.0671 -0.9435
  181MOL0     H24402   6.766  10.070   0.673 -0.6769  0.7748 -0.7901
  181MOL0     H24403   6.690  10.312   0.684  2.1646  3.5631  1.1135
  181MOL0     H24404   6.674  10.216   0.836  0.2894 -1.1147 -0.3734
  181MOL0     H24405   6.918  10.378   0.761  0.4778 -0.9032 -1.7068
  181MOL0     H24406   6.853  10.320   0.918  0.2701 -0.3555 -0.4344
  181MOL0     H24407   6.654  10.458   0.894  1.1643 -2.0587 -0.3927
  181MOL0     H24408   6.722  10.539   0.746 -0.5904 -0.4002  0.1587
  181MOL0     H24409   6.895  10.647   0.873 -0.2590  0.9154 -0.8439
  181MOL0     H24410   6.735  10.677   0.930 -0.2693  0.5706  1.7643
  181MOL0     H24411   6.810  10.464   1.085 -1.0199  0.8505  0.4348
  181MOL0     H24412   6.795  10.640   1.128  1.0723  0.9420  1.1694
  181MOL0     H24413   7.032  10.521   1.179  0.2322 -1.0776 -1.5194
  181MOL0     H24414   7.056  10.522   1.013  0.0643 -1.4109  0.9571
  181MOL0     H24415   7.210  10.043   0.885  1.2099 -1.4114  1.2503
  181MOL0     H24416   7.347  10.073   1.085 -0.4292 -0.5323 -0.7943
  181MOL0     H24417   7.406  10.476   1.459  2.2401  1.0553  1.3261
  181MOL0     H24418   7.552  10.481   1.669 -2.0011  1.6328 -0.8529
  181MOL0     H24419   8.121  10.559   3.580  2.4697 -1.3803 -0.7617
  181MOL0     H24420   8.353  10.550   3.628  1.3324 -0.9437 -1.2731
  181MOL0     H24421   8.613  10.734   3.964 -0.2855 -0.7725 -0.3419
  181MOL0     H24422   8.824  10.676   4.087  0.8668 -0.1571  0.2199
  181MOL0     H24423   9.035  10.728   4.139 -1.0228 -0.6664  1.1250
  181MOL0     H24424   9.193  10.677   4.079  0.7199 -2.5621 -0.5900
  181MOL0     H24425   8.974  10.474   4.166  0.0914  0.3520 -0.6496
  181MOL0     H24426   9.057  10.575   4.284 -0.2571 -1.1499  0.4711
  181MOL0     H24427   9.270  10.465   4.238  0.5347 -0.8871 -1.0611
  181MOL0     H24428   9.205  10.378   4.100  0.5131 -0.6736 -0.2165
  181MOL0     H24429   9.235  10.236   4.286  1.2003  1.2207 -0.3347
  181MOL0     H24430   9.135  10.338   4.395 -0.3250  1.1340 -0.3885
  181MOL0     H24431   8.848  10.098   4.160  0.5841 -1.5260  0.9604
  181MOL0     H24432   9.011  10.600   3.712 -0.2798  0.8604  0.3172
  181MOL0     H24433   8.916  10.670   3.508  0.3185 -1.0853 -2.2874
  181MOL0     H24434   8.759  10.583   3.512 -1.0186  0.3897  2.8428
  181MOL0     H24435   8.764  10.753   3.485  0.0857 -2.6256 -2.6815
  182MOL0     O24436   6.811   8.752   7.338 -0.0171  0.8952 -0.1653
  182MOL0     C24437   6.737   8.657   7.307  0.4215 -0.4581 -0.0359
  182MOL0     O24438   6.757   8.580   7.197  0.5749  0.8456  1.1239
  182MOL0     C24439   6.878   8.580   7.126 -0.6383  0.0666  0.0697
  182MOL0     C24440   6.865   8.541   6.992 -0.0512 -0.4699  0.5600
  182MOL0     C24441   6.974   8.554   6.907  0.6310 -0.4939  0.0785
  182MOL0     C24442   7.090   8.611   6.955 -0.6101  0.0068  0.2536
  182MOL0     O24443   7.190   8.596   6.855 -0.1337 -0.7366 -0.9422
  182MOL0     C24444   7.327   8.633   6.888  0.3468  0.0434 -0.6581
  182MOL0     C24445   7.415   8.584   6.761 -0.3438 -0.2223 -0.3792
  182MOL0     C24446   7.513   8.697   6.715 -0.3185 -0.5160  0.1615
  182MOL0     C24447   7.574   8.661   6.571 -0.1888 -0.8801  0.3707
  182MOL0     C24448   7.650   8.531   6.562  0.4979  0.3033 -0.1079
  182MOL0     C24449   7.776   8.525   6.658  0.6666  0.2554 -0.7510
  182MOL0     C24450   7.903   8.433   6.610  0.3665 -0.5759 -0.8765
  182MOL0     C24451   7.863   8.305   6.554  0.5424 -0.3880 -0.3503
  182MOL0     N24452   7.951   8.188   6.556 -0.2080 -0.6511 -0.6384
  182MOL0     C24453   7.991   8.126   6.676 -0.3918 -0.5653 -0.2251
  182MOL0     C24454   8.085   8.038   6.627  0.5561 -0.0395 -0.2821
  182MOL0     C24455   8.171   7.943   6.704 -0.0868 -0.3179  0.1713
  182MOL0     C24456   8.275   8.019   6.792  0.1004  0.6125  1.1949
  182MOL0     C24457   8.383   8.091   6.697 -0.0156  0.1843 -0.6838
  182MOL0     C24458   8.472   7.985   6.628 -0.2637  0.7304  0.0078
  182MOL0     O24459   8.493   8.006   6.484  0.4939  0.1952  0.1122
  182MOL0     C24460   8.570   8.110   6.439  0.1481  0.7550 -0.4636
  182MOL0     C24461   8.651   8.192   6.517 -1.2148 -0.5000 -0.1693
  182MOL0     C24462   8.734   8.287   6.459  0.5515  0.3905 -0.4038
  182MOL0     C24463   8.719   8.315   6.323 -0.3847  0.3938  0.5371
  182MOL0     C24464   8.803   8.419   6.268 -0.3860  0.0060  0.5727
  182MOL0     O24465   8.849   8.516   6.348  0.0406 -0.4140 -0.2704
  182MOL0     C24466   8.937   8.617   6.306  0.2136  0.3063  0.1142
  182MOL0     C24467   9.016   8.675   6.403  0.4478 -0.4304 -0.0664
  182MOL0     C24468   9.106   8.778   6.366  0.2308 -0.2303  0.0859
  182MOL0     C24469   9.113   8.831   6.244  1.0257 -0.1822  0.0909
  182MOL0     O24470   9.189   8.945   6.233  0.5285 -0.7320  0.5202
  182MOL0     C24471   9.304   8.927   6.140  0.4354  0.1890 -0.1625
  182MOL0     C24472   9.437   8.889   6.213 -0.8430 -0.2467  1.0936
  182MOL0     C24473   9.489   8.978   6.334  0.4405 -0.0303  0.1548
  182MOL0     C24474   9.641   8.951   6.354  0.7981 -0.4637  0.4378
  182MOL0     C24475   9.712   9.042   6.460  0.7574  0.6883  0.8644
  182MOL0     C24476   9.835   8.978   6.528 -0.4186 -0.4957  0.1493
  182MOL0     C24477   9.933   8.926   6.430 -0.1099  0.4366  0.3924
  182MOL0     C24478  10.056   8.856   6.493 -0.4699  0.7754 -0.0441
  182MOL0    Cl24479  10.001   8.700   6.585 -0.6190  0.1392  0.2019
  182MOL0     C24480   9.040   8.770   6.140 -0.6208  0.3615 -0.2914
  182MOL0     C24481   8.951   8.668   6.171 -0.7835 -0.0623  0.0126
  182MOL0     O24482   8.828   8.406   6.144  0.6654 -0.6511 -0.1247
  182MOL0     C24483   8.641   8.230   6.242 -0.0223  0.2905 -0.1412
  182MOL0     C24484   8.572   8.131   6.297  1.0375  0.9704 -0.5599
  182MOL0     N24485   8.098   8.047   6.492  0.2794  0.4238 -0.4779
  182MOL0     N24486   8.018   8.143   6.447 -0.9851  0.3809  0.0097
  182MOL0     C24487   7.108   8.640   7.082  0.3198  0.4710  0.1778
  182MOL0     C24488   7.007   8.619   7.177 -0.3218  0.6062  0.2579
  182MOL0     C24489   6.603   8.628   7.381  0.2065 -0.1102  0.3147
  182MOL0     C24490   6.582   8.722   7.485  0.8277  0.4435 -0.6862
  182MOL0     C24491   6.458   8.719   7.556 -0.8326  0.2333  0.5860
  182MOL0     C24492   6.362   8.628   7.520 -0.5774  0.0827  0.2779
  182MOL0     O24493   6.252   8.592   7.593 -0.1585  0.1620 -0.0262
  182MOL0     C24494   6.193   8.695   7.676 -0.7571  0.5278 -0.9879
  182MOL0     C24495   6.132   8.815   7.606  0.1083  0.3678  0.4812
  182MOL0     C24496   6.041   8.893   7.703  0.4133  0.4878  0.6058
  182MOL0     C24497   5.987   9.024   7.658  0.3856  0.3345  0.2749
  182MOL0     C24498   5.925   9.098   7.768  0.2617 -0.0103  0.4911
  182MOL0     C24499   5.898   9.162   7.869  0.0387 -0.2016 -0.8360
  182MOL0     C24500   6.378   8.549   7.405 -0.4594 -0.1795  0.4779
  182MOL0     C24501   6.499   8.547   7.332  0.9846 -0.3141  0.3726
  182MOL0     C24502   6.530   8.434   7.225 -1.0860  0.0778  0.1376
  182MOL0     H24503   6.769   8.502   6.958 -1.0014  2.5875 -0.5668
  182MOL0     H24504   6.980   8.514   6.806  1.2126  1.4664 -0.7134
  182MOL0     H24505   7.309   8.741   6.895 -0.6745 -0.0907 -1.0727
  182MOL0     H24506   7.358   8.589   6.983  0.2460  2.7145  0.7195
  182MOL0     H24507   7.346   8.550   6.683 -0.0971 -1.4557 -0.0821
  182MOL0     H24508   7.472   8.497   6.797  3.5899  2.4469  0.5532
  182MOL0     H24509   7.584   8.713   6.796  0.9790 -2.0174 -0.6089
  182MOL0     H24510   7.454   8.789   6.707 -0.9285 -0.6040  2.8403
  182MOL0     H24511   7.485   8.644   6.510 -1.1408 -1.1786  1.7864
  182MOL0     H24512   7.640   8.737   6.529 -2.1872 -0.2185 -1.7914
  182MOL0     H24513   7.582   8.447   6.577  2.3005 -1.5000 -1.4609
  182MOL0     H24514   7.693   8.531   6.462  1.6145  0.3686  0.3591
  182MOL0     H24515   7.798   8.629   6.679 -1.4199  1.1226 -2.4482
  182MOL0     H24516   7.741   8.480   6.751 -0.6507 -0.4285 -1.5404
  182MOL0     H24517   7.971   8.407   6.692  1.1735  0.6170 -1.1258
  182MOL0     H24518   7.972   8.478   6.538  0.8907  1.8589  1.0164
  182MOL0     H24519   7.771   8.272   6.604 -0.1425  0.4032 -1.0334
  182MOL0     H24520   7.829   8.338   6.455  1.4747 -0.2680 -0.6403
  182MOL0     H24521   7.962   8.139   6.780  0.9147 -1.1305  0.2274
  182MOL0     H24522   8.096   7.902   6.773  0.1236  0.6216  0.9762
  182MOL0     H24523   8.216   7.860   6.649 -0.2083 -1.3826  1.6080
  182MOL0     H24524   8.220   8.086   6.858 -0.0503  1.1443  0.5479
  182MOL0     H24525   8.326   7.944   6.853 -0.4397  1.0467  2.1980
  182MOL0     H24526   8.451   8.148   6.760 -0.9666 -1.1860  1.6941
  182MOL0     H24527   8.337   8.157   6.622 -0.4560  1.4770  0.6872
  182MOL0     H24528   8.437   7.883   6.642  1.8265 -0.0166  0.2046
  182MOL0     H24529   8.565   7.994   6.686 -0.8767 -0.3257  1.1884
  182MOL0     H24530   8.647   8.190   6.625 -3.3373  0.6841 -0.1718
  182MOL0     H24531   8.812   8.338   6.514 -1.2677  3.5982 -0.6098
  182MOL0     H24532   9.011   8.647   6.508 -1.6987  0.5499  0.1472
  182MOL0     H24533   9.158   8.826   6.449 -2.3946  1.2143  1.0149
  182MOL0     H24534   9.300   8.852   6.060 -0.1718  0.8777 -0.7908
  182MOL0     H24535   9.322   9.024   6.093 -1.1544 -0.0187 -1.2478
  182MOL0     H24536   9.438   8.783   6.243 -0.0259 -0.5710 -0.0026
  182MOL0     H24537   9.517   8.911   6.141 -0.5996 -0.8737  1.1681
  182MOL0     H24538   9.470   9.085   6.316  1.2586  0.2021  0.6530
  182MOL0     H24539   9.431   8.941   6.420  0.6827  1.6265  1.0825
  182MOL0     H24540   9.689   8.981   6.260  0.0424 -2.5894 -0.7142
  182MOL0     H24541   9.663   8.844   6.353  1.4991 -0.3199  0.1656
  182MOL0     H24542   9.640   9.062   6.540 -1.0267  0.4848 -0.6267
  182MOL0     H24543   9.751   9.129   6.406  0.0030 -0.4564 -1.7038
  182MOL0     H24544   9.879   9.051   6.596 -0.7486 -0.9176  0.8362
  182MOL0     H24545   9.811   8.896   6.596  0.4262  1.2568  2.6920
  182MOL0     H24546   9.961   9.011   6.367 -0.9137 -1.8041 -3.2697
  182MOL0     H24547   9.887   8.847   6.369  2.3816 -0.1517 -0.8477
  182MOL0     H24548  10.113   8.808   6.412 -0.6670 -1.6866  1.1745
  182MOL0     H24549  10.125   8.920   6.547  3.9801 -1.1917 -2.7362
  182MOL0     H24550   9.060   8.802   6.038  2.6243 -0.9452 -0.1874
  182MOL0     H24551   8.894   8.628   6.087 -1.8518  1.9180 -0.2649
  182MOL0     H24552   8.637   8.238   6.134  1.6595 -2.3600 -0.4947
  182MOL0     H24553   8.506   8.069   6.237 -1.0279  2.0442  0.4874
  182MOL0     H24554   7.206   8.669   7.119  0.6071 -1.2891  0.9002
  182MOL0     H24555   7.022   8.645   7.281  2.0426 -1.0288  0.4068
  182MOL0     H24556   6.648   8.802   7.515 -3.7940  4.3647  0.1806
  182MOL0     H24557   6.454   8.769   7.652  2.0295 -1.3734  1.6902
  182MOL0     H24558   6.255   8.736   7.756 -3.2367  1.6757  0.4903
  182MOL0     H24559   6.120   8.644   7.739  0.5350  1.5404  1.4565
  182MOL0     H24560   6.074   8.789   7.517 -0.2211 -0.2347  0.8659
  182MOL0     H24561   6.210   8.885   7.574 -0.7084 -0.1943 -3.1727
  182MOL0     H24562   6.103   8.912   7.791 -0.8826  3.4600  0.9730
  182MOL0     H24563   5.953   8.833   7.727 -0.3202  0.9172 -0.8973
  182MOL0     H24564   6.059   9.081   7.598  0.7411 -1.1642 -0.7749
  182MOL0     H24565   5.913   8.997   7.581 -0.2733  0.6157  0.7976
  182MOL0     H24566   5.875   9.220   7.957 -1.2438 -0.1285 -1.1963
  182MOL0     H24567   6.294   8.486   7.377 -0.3783  1.0649 -2.9548
  182MOL0     H24568   6.611   8.369   7.258 -0.2689  1.4417  0.9117
  182MOL0     H24569   6.448   8.373   7.186 -0.8050 -1.1275  1.3699
  182MOL0     H24570   6.559   8.482   7.131 -3.8170  1.3002 -0.1948
  183MOL0     O24571   7.392   8.827  10.808  0.0785 -0.4541  1.3882
  183MOL0     C24572   7.380   8.888  10.701 -1.0951  0.6543  0.5093
  183MOL0     O24573   7.438   8.846  10.596  0.2811  0.4725  0.1108
  183MOL0     C24574   7.531   8.742  10.598  0.2592 -0.0659  0.4402
  183MOL0     C24575   7.662   8.760  10.537  0.7512 -0.1259  0.2963
  183MOL0     C24576   7.752   8.656  10.536 -0.8818  0.5461 -0.1577
  183MOL0     C24577   7.727   8.537  10.599  0.2890  1.2875  0.0363
  183MOL0     O24578   7.825   8.435  10.585 -0.1026  0.0438 -0.7318
  183MOL0     C24579   7.885   8.396  10.709  0.8077  0.3162  0.1561
  183MOL0     C24580   7.973   8.505  10.766 -0.7335 -1.2086  0.6593
  183MOL0     C24581   8.019   8.470  10.912  0.4076 -0.6378  0.3572
  183MOL0     C24582   8.152   8.381  10.915  0.2235 -0.7437 -0.6299
  183MOL0     C24583   8.193   8.358  11.059 -0.3077 -0.5812  0.4529
  183MOL0     C24584   8.338   8.300  11.074  0.1413 -0.7126 -0.3841
  183MOL0     C24585   8.338   8.154  11.036  0.3866  0.4375 -0.4206
  183MOL0     C24586   8.282   8.068  11.154  0.1575  1.0921  0.7767
  183MOL0     N24587   8.267   7.924  11.121  0.2082 -0.1334 -0.3616
  183MOL0     C24588   8.160   7.867  11.055 -0.0747  0.0494  0.1011
  183MOL0     C24589   8.211   7.758  10.996 -0.7513 -0.9319  0.0766
  183MOL0     C24590   8.115   7.665  10.916 -0.4350 -0.6651  0.4196
  183MOL0     C24591   8.086   7.730  10.774  0.0789  0.0197  1.1399
  183MOL0     C24592   8.214   7.771  10.708  0.1553  1.7074  1.4013
  183MOL0     C24593   8.197   7.784  10.557 -0.1929 -0.4748 -0.4495
  183MOL0     O24594   8.097   7.885  10.532  0.1025 -0.0928  0.1568
  183MOL0     C24595   8.053   7.907  10.403  0.8653  0.0677 -0.3468
  183MOL0     C24596   7.939   7.991  10.381 -0.0431  1.1018 -0.2889
  183MOL0     C24597   7.891   8.013  10.254  0.3940  0.1336  0.1158
  183MOL0     C24598   7.924   7.943  10.141 -0.0302  0.1150  0.5979
  183MOL0     C24599   7.877   7.966  10.006  0.3229 -1.0566  0.5910
  183MOL0     O24600   7.889   7.873   9.908  0.1424  0.4889 -0.1626
  183MOL0     C24601   7.880   7.899   9.776  0.1208 -0.9496 -0.4756
  183MOL0     C24602   7.762   7.889   9.704 -0.6758  0.3653 -0.7597
  183MOL0     C24603   7.750   7.921   9.566 -0.5682 -0.4621 -0.5604
  183MOL0     C24604   7.864   7.941   9.491 -0.8583  0.0256 -0.7000
  183MOL0     O24605   7.864   7.971   9.364  0.5337  0.2051  0.1938
  183MOL0     C24606   7.733   7.954   9.293 -0.0407 -0.3796 -0.1605
  183MOL0     C24607   7.629   8.080   9.299  0.5302  0.3360 -1.0529
  183MOL0     C24608   7.515   8.067   9.199  0.5391  0.4240 -0.5190
  183MOL0     C24609   7.414   8.176   9.221 -0.0140 -0.5629 -0.3074
  183MOL0     C24610   7.456   8.302   9.133 -0.4742  1.1905 -0.7789
  183MOL0     C24611   7.367   8.414   9.178  0.2554 -0.6511  0.2769
  183MOL0     C24612   7.408   8.549   9.110 -0.1505  0.1884  0.4534
  183MOL0     C24613   7.330   8.542   8.976 -0.2637 -0.3923 -0.1118
  183MOL0    Cl24614   7.165   8.607   8.988  0.0904  0.0843  0.2131
  183MOL0     C24615   7.986   7.957   9.561 -1.1022  0.0769  0.2209
  183MOL0     C24616   7.993   7.948   9.703 -0.3453 -0.1691 -0.1034
  183MOL0     O24617   7.835   8.086   9.987  0.1518  1.3711 -0.0435
  183MOL0     C24618   8.040   7.862  10.161  0.4874  0.2009 -0.1886
  183MOL0     C24619   8.111   7.856  10.289  0.3158  0.1694  0.2979
  183MOL0     N24620   8.340   7.740  11.036 -0.1825  0.6537  0.5696
  183MOL0     N24621   8.367   7.838  11.118  0.1072  0.0630 -0.6897
  183MOL0     C24622   7.599   8.512  10.655 -0.7224 -1.3288 -0.0042
  183MOL0     C24623   7.504   8.616  10.655  0.2404  0.4855 -0.3561
  183MOL0     C24624   7.292   9.009  10.690  0.2651 -0.2193 -0.6151
  183MOL0     C24625   7.185   9.010  10.770  0.1776  1.0565  0.5662
  183MOL0     C24626   7.091   9.114  10.762  0.0675  0.0433  0.8564
  183MOL0     C24627   7.099   9.221  10.669 -0.5026  0.8963  0.0110
  183MOL0     O24628   7.003   9.312  10.647  0.1918 -0.2939  0.3369
  183MOL0     C24629   6.867   9.291  10.702 -1.4670 -0.2555  0.2097
  183MOL0     C24630   6.799   9.170  10.641 -0.3494 -0.1769  0.6752
  183MOL0     C24631   6.675   9.121  10.720 -0.5457 -0.3923  0.1890
  183MOL0     C24632   6.713   9.079  10.859 -0.1018  0.1946  0.2894
  183MOL0     C24633   6.597   9.061  10.946  0.7910  0.4826 -0.2241
  183MOL0     C24634   6.496   9.046  11.022 -0.2609  0.0345 -0.4393
  183MOL0     C24635   7.202   9.216  10.585  0.0415 -0.8403  0.1942
  183MOL0     C24636   7.307   9.109  10.589 -0.1959 -0.0677  0.3799
  183MOL0     C24637   7.398   9.096  10.477 -0.3531  0.1755  0.1053
  183MOL0     H24638   7.676   8.854  10.483 -0.2613  1.2009  2.2233
  183MOL0     H24639   7.850   8.658  10.489 -0.5948 -0.9379  0.3271
  183MOL0     H24640   7.804   8.368  10.777 -1.7268  0.7026 -2.5079
  183MOL0     H24641   7.939   8.301  10.697 -0.0330 -0.5421  2.6389
  183MOL0     H24642   7.914   8.597  10.777  1.3402 -0.0071  2.4859
  183MOL0     H24643   8.056   8.526  10.698 -1.0420  1.1762  0.9347
  183MOL0     H24644   7.933   8.440  10.972  0.6662 -0.3235  0.8974
  183MOL0     H24645   8.042   8.564  10.963  0.0156 -1.1656  1.5690
  183MOL0     H24646   8.123   8.289  10.863 -3.3515 -0.0234 -0.1687
  183MOL0     H24647   8.228   8.428  10.853  0.0696  0.6603  0.2102
  183MOL0     H24648   8.185   8.451  11.114  0.6926  0.3096 -0.8435
  183MOL0     H24649   8.118   8.288  11.097 -0.4192 -1.4472 -1.2345
  183MOL0     H24650   8.402   8.364  11.012  3.1839 -2.2583  0.9178
  183MOL0     H24651   8.368   8.315  11.178  0.7602  1.4572 -0.8191
  183MOL0     H24652   8.440   8.120  11.015  0.4343 -0.8775  1.7076
  183MOL0     H24653   8.278   8.133  10.946 -0.1801 -3.0136  0.6404
  183MOL0     H24654   8.361   8.064  11.229  0.4790 -1.7687  0.4172
  183MOL0     H24655   8.186   8.106  11.189  0.6804  4.0303 -0.6837
  183MOL0     H24656   8.059   7.906  11.056  0.1313  0.6825 -1.3074
  183MOL0     H24657   8.158   7.566  10.900  0.4544 -0.0469 -1.3347
  183MOL0     H24658   8.018   7.654  10.965 -1.4206 -0.5503 -1.4084
  183MOL0     H24659   8.023   7.654  10.728  0.5751  1.3832 -2.1613
  183MOL0     H24660   8.022   7.817  10.792 -0.1814 -0.0930  0.7648
  183MOL0     H24661   8.298   7.703  10.725 -0.3144  0.1358 -1.7712
  183MOL0     H24662   8.230   7.871  10.748 -1.5364  3.7112 -2.4569
  183MOL0     H24663   8.159   7.693  10.510 -0.5769  0.3201 -1.7471
  183MOL0     H24664   8.293   7.819  10.520  0.3875  0.0174  1.4540
  183MOL0     H24665   7.882   8.034  10.462 -4.3743 -1.0194 -1.8851
  183MOL0     H24666   7.815   8.090  10.252  1.8958  1.6790 -0.1494
  183MOL0     H24667   7.671   7.860   9.755 -1.1392 -0.1862 -1.8810
  183MOL0     H24668   7.652   7.926   9.520 -0.3534  0.7941 -0.9061
  183MOL0     H24669   7.761   7.942   9.188  2.1620  1.4872  0.1389
  183MOL0     H24670   7.690   7.858   9.325  3.9749 -2.5586 -0.6488
  183MOL0     H24671   7.588   8.084   9.401  1.6392 -1.4013 -0.4939
  183MOL0     H24672   7.680   8.175   9.285  1.9458 -0.4158 -1.1112
  183MOL0     H24673   7.550   8.064   9.095 -3.2156  0.0967 -1.9244
  183MOL0     H24674   7.462   7.973   9.217  1.2902  0.2091  0.7237
  183MOL0     H24675   7.417   8.201   9.327  0.9969 -1.8907  0.0020
  183MOL0     H24676   7.311   8.154   9.190 -0.6916 -0.8571  1.9546
  183MOL0     H24677   7.447   8.275   9.028 -0.4687  0.3394 -0.5746
  183MOL0     H24678   7.560   8.334   9.147 -0.1269 -0.5380  1.1977
  183MOL0     H24679   7.259   8.399   9.166  0.2025  0.0944 -0.2917
  183MOL0     H24680   7.369   8.419   9.287  0.2981 -2.6462  0.3947
  183MOL0     H24681   7.514   8.552   9.082 -0.9133  2.6574 -2.7881
  183MOL0     H24682   7.383   8.630   9.180 -3.0153 -2.6123  2.9962
  183MOL0     H24683   7.385   8.601   8.902  1.3505 -0.2446  1.1561
  183MOL0     H24684   7.328   8.444   8.927  2.7002  1.1143 -3.7442
  183MOL0     H24685   8.074   7.997   9.512 -2.5918  3.1239 -0.2039
  183MOL0     H24686   8.087   7.979   9.747 -0.8568  2.6911 -0.7721
  183MOL0     H24687   8.077   7.815  10.070 -1.7895 -1.2204 -0.4776
  183MOL0     H24688   8.207   7.805  10.291  0.1113 -0.2084  1.0020
  183MOL0     H24689   7.568   8.415  10.691 -1.1169 -2.1879 -2.4962
  183MOL0     H24690   7.410   8.593  10.706  0.0862  0.8554 -0.4737
  183MOL0     H24691   7.161   8.944  10.852 -2.6919  1.1148 -0.1088
  183MOL0     H24692   7.003   9.114  10.826 -1.2404  0.8564 -0.8462
  183MOL0     H24693   6.800   9.376  10.683 -1.4202 -0.2923 -0.1078
  183MOL0     H24694   6.887   9.287  10.810 -0.3969  0.4562  0.0552
  183MOL0     H24695   6.866   9.084  10.634 -1.0508 -0.6115 -1.1373
  183MOL0     H24696   6.775   9.195  10.538  0.5055  0.7901  0.6923
  183MOL0     H24697   6.620   9.039  10.674  3.0336 -1.0828 -3.5128
  183MOL0     H24698   6.598   9.198  10.731  2.6807  3.0619  0.7408
  183MOL0     H24699   6.773   8.987  10.862  0.5993  0.6398  0.0738
  183MOL0     H24700   6.773   9.148  10.919 -2.6558  3.0126 -0.1624
  183MOL0     H24701   6.412   9.016  11.082 -0.5982 -0.2631 -1.0455
  183MOL0     H24702   7.198   9.287  10.503 -2.0402 -2.3314 -1.0957
  183MOL0     H24703   7.372   9.013  10.410  1.3805 -0.0130 -0.3682
  183MOL0     H24704   7.399   9.189  10.421 -2.7856 -0.3152 -0.9082
  183MOL0     H24705   7.499   9.072  10.512  0.3606  1.4819 -0.9531
  184MOL0     O24706   9.332   4.281   2.388 -0.7429  0.0006 -0.6426
  184MOL0     C24707   9.452   4.271   2.410  0.2813  0.5507 -0.2707
  184MOL0     O24708   9.545   4.366   2.420  0.1916 -0.2659  1.0503
  184MOL0     C24709   9.507   4.495   2.379  0.1113  0.2634 -0.9183
  184MOL0     C24710   9.608   4.570   2.314  0.2678  0.3028 -0.7565
  184MOL0     C24711   9.590   4.699   2.267 -0.6180  0.6709 -1.0001
  184MOL0     C24712   9.466   4.758   2.288 -0.4481 -0.0559 -1.0483
  184MOL0     O24713   9.437   4.886   2.229  1.1166  0.7070  0.0583
  184MOL0     C24714   9.305   4.940   2.218  0.7097 -0.2496 -0.5416
  184MOL0     C24715   9.293   5.039   2.104 -0.5202  0.0132  0.4685
  184MOL0     C24716   9.167   5.123   2.115 -0.3355 -0.4485 -0.1614
  184MOL0     C24717   9.043   5.059   2.050  0.3162 -0.3309  1.0780
  184MOL0     C24718   8.917   5.131   2.104  0.0676  0.2549  0.1499
  184MOL0     C24719   8.876   5.272   2.078  0.0387 -0.6421  0.5116
  184MOL0     C24720   8.930   5.334   1.949  0.8042 -0.0349  0.5505
  184MOL0     C24721   8.888   5.478   1.929  0.1533  0.0520  0.9844
  184MOL0     N24722   8.967   5.551   1.837 -0.9012 -0.1333  0.0989
  184MOL0     C24723   8.943   5.564   1.705  0.1282 -0.3498  0.6471
  184MOL0     C24724   9.051   5.609   1.641 -0.1327 -0.2292  0.3180
  184MOL0     C24725   9.058   5.638   1.490 -0.0474 -1.0807 -0.0511
  184MOL0     C24726   9.199   5.609   1.434 -0.0239  0.0432 -0.4918
  184MOL0     C24727   9.195   5.651   1.284 -0.3019 -0.5320 -0.0764
  184MOL0     C24728   9.317   5.612   1.206  0.1033 -0.5927  0.3091
  184MOL0     O24729   9.295   5.613   1.062  0.3714  0.5992  0.4059
  184MOL0     C24730   9.398   5.582   0.977 -0.4215 -0.2572  0.1215
  184MOL0     C24731   9.516   5.544   1.028  0.9259  0.5498 -0.1279
  184MOL0     C24732   9.615   5.516   0.942 -0.0175 -0.2842  0.1899
  184MOL0     C24733   9.603   5.537   0.801  0.1690  0.4350 -0.6758
  184MOL0     C24734   9.712   5.521   0.709 -0.8084 -0.2562  0.0661
  184MOL0     O24735   9.819   5.459   0.759  0.1766  0.9410 -0.6006
  184MOL0     C24736   9.940   5.452   0.689  0.8821 -0.5366 -1.1249
  184MOL0     C24737   9.982   5.330   0.661  0.3745 -0.7779 -0.0330
  184MOL0     C24738  10.100   5.315   0.584  0.3045 -0.7228  0.0546
  184MOL0     C24739  10.165   5.421   0.536  0.2220 -0.6534  0.6419
  184MOL0     O24740  10.275   5.394   0.461  0.1793 -1.3735  0.0141
  184MOL0     C24741  10.361   5.503   0.428  0.9898  0.1953 -0.5050
  184MOL0     C24742  10.433   5.562   0.559  0.1024  0.7184  0.2937
  184MOL0     C24743  10.535   5.468   0.635  0.6916  0.1500 -0.0325
  184MOL0     C24744  10.481   5.334   0.677  0.8014 -0.0188 -0.5130
  184MOL0     C24745  10.578   5.253   0.766  0.6665  0.4646  0.2048
  184MOL0     C24746  10.505   5.158   0.855 -0.2754  0.4959  0.0741
  184MOL0     C24747  10.392   5.081   0.780  0.2942  0.0648  0.0737
  184MOL0     C24748  10.322   4.976   0.866  0.4218 -0.1134 -1.2362
  184MOL0    Cl24749  10.196   4.887   0.779 -0.2003  0.1852 -0.2649
  184MOL0     C24750  10.119   5.553   0.562  0.7114 -0.0638  0.9557
  184MOL0     C24751  10.012   5.567   0.644 -0.5957  0.3534  0.0015
  184MOL0     O24752   9.710   5.593   0.615  0.0377  0.2306 -0.8408
  184MOL0     C24753   9.478   5.567   0.753  0.7360  0.2298 -0.1404
  184MOL0     C24754   9.374   5.593   0.844  0.2681  1.1325  0.6729
  184MOL0     N24755   9.151   5.616   1.737 -0.2360  0.5672 -0.7817
  184MOL0     N24756   9.095   5.576   1.848 -0.9758 -0.3422  0.6634
  184MOL0     C24757   9.366   4.694   2.364 -0.4929  0.6175 -0.3959
  184MOL0     C24758   9.389   4.566   2.405 -0.0890 -0.4078  0.5833
  184MOL0     C24759   9.493   4.141   2.457  1.0797 -0.1780  0.4670
  184MOL0     C24760   9.595   4.085   2.385 -0.2823  0.0837 -0.3621
  184MOL0     C24761   9.634   3.954   2.416 -0.8258  0.8064  0.0094
  184MOL0     C24762   9.585   3.885   2.528  0.4602  0.9532  0.0376
  184MOL0     O24763   9.622   3.766   2.576 -0.2843 -0.2503  0.0583
  184MOL0     C24764   9.672   3.674   2.478  0.2876  0.1349 -0.0265
  184MOL0     C24765   9.705   3.546   2.534  1.1023  0.4025 -0.6701
  184MOL0     C24766   9.785   3.462   2.430  0.0419  0.0134  0.3779
  184MOL0     C24767   9.792   3.319   2.476 -0.3202 -0.0924  0.4077
  184MOL0     C24768   9.860   3.310   2.606 -0.3640 -0.2428  0.3374
  184MOL0     C24769   9.909   3.302   2.713 -0.4992 -0.1156  0.0058
  184MOL0     C24770   9.474   3.939   2.592  0.0339  0.3508 -0.3026
  184MOL0     C24771   9.425   4.070   2.567  0.9448  1.2853 -0.4925
  184MOL0     C24772   9.290   4.115   2.629  0.1120 -0.8335 -0.6809
  184MOL0     H24773   9.700   4.515   2.295  0.4831  0.5510 -0.4515
  184MOL0     H24774   9.661   4.757   2.208 -0.0758  2.3902  1.1860
  184MOL0     H24775   9.231   4.859   2.221  1.3437 -1.0442  5.4613
  184MOL0     H24776   9.301   5.001   2.308  3.8230  0.4389 -0.7764
  184MOL0     H24777   9.315   4.994   2.006  2.0942  0.6822  0.6794
  184MOL0     H24778   9.384   5.101   2.107  1.9563 -3.2690 -0.7078
  184MOL0     H24779   9.170   5.219   2.061  0.8019 -0.7344 -0.6286
  184MOL0     H24780   9.159   5.151   2.220 -1.9823  0.7908 -0.5564
  184MOL0     H24781   9.042   5.057   1.941  1.9446 -0.7650  1.0517
  184MOL0     H24782   9.035   4.956   2.084 -2.9984 -1.2275 -1.7995
  184MOL0     H24783   8.825   5.075   2.083  0.3975 -0.7270  1.2233
  184MOL0     H24784   8.931   5.135   2.213  1.7493 -0.6845  0.0017
  184MOL0     H24785   8.768   5.285   2.089 -0.0510 -2.5713  3.2995
  184MOL0     H24786   8.918   5.333   2.159 -1.4717  0.3059  0.6087
  184MOL0     H24787   8.885   5.280   1.865  0.3077 -1.8588  1.9243
  184MOL0     H24788   9.039   5.327   1.939  1.1611 -0.6120  3.8142
  184MOL0     H24789   8.781   5.484   1.907  0.1726 -0.3005  0.7842
  184MOL0     H24790   8.913   5.536   2.018  2.1704  1.8883 -0.6952
  184MOL0     H24791   8.846   5.537   1.666  0.7025 -1.3778 -0.1128
  184MOL0     H24792   8.993   5.563   1.444 -1.1626  0.3835 -0.9351
  184MOL0     H24793   9.016   5.734   1.459 -1.8121 -2.0546 -0.8331
  184MOL0     H24794   9.278   5.668   1.480 -0.6734  1.6833 -1.3940
  184MOL0     H24795   9.222   5.503   1.445 -2.2698 -0.2967  2.1189
  184MOL0     H24796   9.167   5.755   1.265 -0.0290 -1.0307 -4.0858
  184MOL0     H24797   9.122   5.591   1.228  1.4822 -3.2483  0.3136
  184MOL0     H24798   9.344   5.517   1.253  2.5551  0.6800  1.6798
  184MOL0     H24799   9.400   5.682   1.223  0.7052 -0.7045 -1.9517
  184MOL0     H24800   9.528   5.521   1.133 -2.0917  0.5505  0.3032
  184MOL0     H24801   9.707   5.474   0.983  1.4990  0.0203 -2.6425
  184MOL0     H24802   9.925   5.249   0.706  0.5680 -0.4962  0.7206
  184MOL0     H24803  10.138   5.216   0.560  1.3830 -0.4004  0.3639
  184MOL0     H24804  10.442   5.470   0.362  3.0776 -0.8105  2.3495
  184MOL0     H24805  10.303   5.582   0.379  0.5211  0.3936  0.3533
  184MOL0     H24806  10.495   5.649   0.534  1.4523 -0.3548 -0.2759
  184MOL0     H24807  10.352   5.581   0.629  0.3139  0.1699  0.6919
  184MOL0     H24808  10.622   5.450   0.572 -0.3573 -1.6362 -1.0755
  184MOL0     H24809  10.566   5.532   0.718  0.7518  1.2797 -0.9079
  184MOL0     H24810  10.464   5.275   0.586 -0.2947  1.7616 -1.5030
  184MOL0     H24811  10.390   5.346   0.736  1.0940 -3.2313  0.8113
  184MOL0     H24812  10.629   5.327   0.829  0.8226 -0.4938  1.2392
  184MOL0     H24813  10.655   5.196   0.714 -0.6491 -0.1521 -1.1507
  184MOL0     H24814  10.575   5.085   0.897 -1.0128  0.0764  0.5962
  184MOL0     H24815  10.470   5.212   0.944 -1.7943  0.4308 -0.4587
  184MOL0     H24816  10.456   5.029   0.708 -1.0898 -1.3528 -0.2031
  184MOL0     H24817  10.319   5.153   0.742  3.0811  2.7854 -0.5566
  184MOL0     H24818  10.393   4.901   0.901 -0.8052  0.2867  2.5840
  184MOL0     H24819  10.268   5.022   0.950 -2.6801 -5.2880  0.0512
  184MOL0     H24820  10.154   5.640   0.508 -1.5334  0.2329 -0.1397
  184MOL0     H24821   9.981   5.667   0.673 -0.8995  0.3847 -0.4212
  184MOL0     H24822   9.460   5.587   0.648 -0.1074  2.8546  0.4148
  184MOL0     H24823   9.286   5.626   0.790 -0.6197 -3.9207 -1.6115
  184MOL0     H24824   9.279   4.751   2.393  1.2065  3.0288  0.2347
  184MOL0     H24825   9.308   4.510   2.452 -0.9225  1.0300  0.8967
  184MOL0     H24826   9.625   4.130   2.291  2.8806 -1.7700 -0.3643
  184MOL0     H24827   9.714   3.926   2.349 -0.3314  2.9785 -0.3698
  184MOL0     H24828   9.758   3.713   2.422  0.9052 -2.4571 -1.0040
  184MOL0     H24829   9.593   3.654   2.406  0.1321 -1.8394  0.6507
  184MOL0     H24830   9.613   3.493   2.559  0.8654  0.4970 -1.3164
  184MOL0     H24831   9.763   3.551   2.627 -0.2126 -2.1962  0.3781
  184MOL0     H24832   9.883   3.509   2.417  0.3024 -0.6513 -0.0931
  184MOL0     H24833   9.733   3.468   2.333  0.6941  2.0834  0.0909
  184MOL0     H24834   9.695   3.268   2.482 -0.6998  0.6249  0.3861
  184MOL0     H24835   9.850   3.261   2.403  0.3866 -0.0957  0.9637
  184MOL0     H24836   9.967   3.305   2.803 -1.0042  5.3237  0.4734
  184MOL0     H24837   9.448   3.896   2.688  2.9255  1.8675  1.3195
  184MOL0     H24838   9.205   4.076   2.573 -1.0653  1.7767 -0.8875
  184MOL0     H24839   9.271   4.073   2.728 -2.3495  0.7944 -0.3583
  184MOL0     H24840   9.291   4.224   2.638  2.6856 -0.8234 -0.5056
  185MOL0     O24841   8.139   7.230   9.440  0.0428 -0.1638  0.3321
  185MOL0     C24842   8.044   7.154   9.467 -0.2845  0.0125 -0.6072
  185MOL0     O24843   8.048   7.079   9.576  0.1771 -0.5569 -0.1463
  185MOL0     C24844   8.164   7.086   9.655  0.4131 -0.6786 -0.3058
  185MOL0     C24845   8.167   7.177   9.766 -0.8795 -1.2259  0.7402
  185MOL0     C24846   8.271   7.188   9.850 -1.1224  0.1273 -0.7758
  185MOL0     C24847   8.388   7.110   9.828  0.4821  0.0942  0.0202
  185MOL0     O24848   8.493   7.131   9.907 -0.1847 -0.5687 -0.2382
  185MOL0     C24849   8.553   7.024   9.963 -0.8015  1.5034  1.0306
  185MOL0     C24850   8.609   7.058  10.103  0.8717  0.2686 -0.4114
  185MOL0     C24851   8.491   7.071  10.202  0.6371 -0.4768 -0.8404
  185MOL0     C24852   8.433   6.936  10.250  0.7177  0.0487  0.2011
  185MOL0     C24853   8.306   6.951  10.340 -0.6077  0.3227 -0.3265
  185MOL0     C24854   8.180   6.961  10.252 -0.3756 -0.0420  0.9125
  185MOL0     C24855   8.061   6.967  10.334 -0.6090  0.1173 -0.7519
  185MOL0     C24856   7.994   7.099  10.312 -0.9313 -0.0326  0.4650
  185MOL0     N24857   7.926   7.108  10.183 -0.6540  0.1606 -0.1514
  185MOL0     C24858   7.885   7.009  10.105  0.6706 -0.7530 -0.5002
  185MOL0     C24859   7.789   7.072  10.018 -0.4200  0.5867  0.0456
  185MOL0     C24860   7.711   7.008   9.911 -0.1357 -0.7944 -0.6559
  185MOL0     C24861   7.571   6.974   9.968 -0.5553 -0.6450  0.0038
  185MOL0     C24862   7.499   6.878   9.871  0.1161 -0.6393  0.1540
  185MOL0     C24863   7.453   6.940   9.735 -0.7835  0.5318  1.2289
  185MOL0     O24864   7.417   7.075   9.731  1.0617  0.4737  0.3636
  185MOL0     C24865   7.357   7.133   9.619  0.2794  0.2292 -0.0195
  185MOL0     C24866   7.327   7.069   9.496  0.9049  0.2796 -0.1294
  185MOL0     C24867   7.262   7.143   9.395 -0.0009  0.4697 -0.4887
  185MOL0     C24868   7.229   7.277   9.405  0.1301 -0.3108  0.0710
  185MOL0     C24869   7.166   7.363   9.292 -1.5235  0.1184 -0.3195
  185MOL0     O24870   7.177   7.499   9.294 -0.0642  0.1185  0.3933
  185MOL0     C24871   7.072   7.578   9.261 -0.4248 -0.5777  0.5326
  185MOL0     C24872   7.086   7.717   9.249 -0.1972 -0.1841  0.2526
  185MOL0     C24873   6.985   7.812   9.229 -0.4810 -0.3827 -0.2107
  185MOL0     C24874   6.853   7.764   9.196 -0.0576 -0.3213  0.1651
  185MOL0     O24875   6.757   7.843   9.137  0.0043  0.2660 -0.2615
  185MOL0     C24876   6.787   7.898   9.008  0.0776  0.1320  0.3808
  185MOL0     C24877   6.665   7.972   8.934  0.0605  0.5042  0.7684
  185MOL0     C24878   6.635   7.931   8.790  0.7440 -0.5289 -0.2247
  185MOL0     C24879   6.758   7.969   8.706  0.7876  0.1772 -1.0240
  185MOL0     C24880   6.722   7.949   8.558 -0.5751  0.1576 -0.3061
  185MOL0     C24881   6.840   7.967   8.476  1.0730 -0.1889 -0.3720
  185MOL0     C24882   6.797   7.966   8.318  0.4627  0.3893 -0.6933
  185MOL0     C24883   6.768   7.829   8.248 -0.5213 -0.3824  0.7351
  185MOL0    Cl24884   6.599   7.778   8.266 -0.3252 -0.0888  0.0865
  185MOL0     C24885   6.841   7.623   9.199  0.7714  0.6524 -0.1483
  185MOL0     C24886   6.938   7.535   9.239 -0.0706  0.5741 -0.0699
  185MOL0     O24887   7.109   7.300   9.211 -0.0112  0.7588  0.2681
  185MOL0     C24888   7.259   7.340   9.532  0.2689 -0.6602 -0.0038
  185MOL0     C24889   7.323   7.267   9.634 -0.7924 -0.1927  0.4951
  185MOL0     N24890   7.777   7.203  10.054  0.1874 -0.2172 -0.1563
  185MOL0     N24891   7.863   7.224  10.148 -0.8648  0.0035  0.4159
  185MOL0     C24892   8.391   7.036   9.707  0.0400 -0.5598  0.4172
  185MOL0     C24893   8.277   7.020   9.629 -0.4218 -0.0873 -0.6445
  185MOL0     C24894   7.929   7.145   9.378 -0.5675 -0.6670 -0.1695
  185MOL0     C24895   7.952   7.168   9.238  0.1930 -0.1451 -0.0743
  185MOL0     C24896   7.853   7.176   9.149  0.0319  1.1730 -0.2669
  185MOL0     C24897   7.719   7.135   9.190 -0.6619 -0.2443  0.0347
  185MOL0     O24898   7.627   7.116   9.088  0.5235  0.1698 -0.3702
  185MOL0     C24899   7.493   7.083   9.124 -0.5879 -0.1382 -0.0179
  185MOL0     C24900   7.409   7.105   9.004  0.9488  0.4130  0.4308
  185MOL0     C24901   7.412   7.242   8.959  0.8131  0.3818 -0.5796
  185MOL0     C24902   7.333   7.270   8.827  0.5331  0.2002 -0.1266
  185MOL0     C24903   7.415   7.219   8.712  0.0420 -0.6824  0.0553
  185MOL0     C24904   7.483   7.181   8.617 -0.0198 -0.0068 -0.1730
  185MOL0     C24905   7.700   7.115   9.325 -0.3989  0.4562 -0.1253
  185MOL0     C24906   7.798   7.114   9.422 -0.3114  0.0444 -0.4129
  185MOL0     C24907   7.763   7.092   9.564  0.2580 -0.8070  0.2890
  185MOL0     H24908   8.089   7.252   9.766  0.8479  0.6411  1.1899
  185MOL0     H24909   8.281   7.256   9.935  0.9759 -0.4520 -0.4868
  185MOL0     H24910   8.480   6.942   9.969  2.1319 -1.3366  0.5550
  185MOL0     H24911   8.631   6.983   9.898 -1.7295 -1.4803  1.6262
  185MOL0     H24912   8.669   7.149  10.111  3.3398 -1.3442  0.6786
  185MOL0     H24913   8.672   6.972  10.129  1.3332 -0.0755 -2.4804
  185MOL0     H24914   8.421   7.142  10.157 -1.3305 -0.6446  1.7518
  185MOL0     H24915   8.516   7.128  10.292 -3.3992  0.8653 -0.3296
  185MOL0     H24916   8.412   6.880  10.159  3.4446  0.2971 -0.6646
  185MOL0     H24917   8.508   6.889  10.314 -0.2758 -1.0865  0.5804
  185MOL0     H24918   8.305   6.867  10.410  3.1594  1.5525  1.4934
  185MOL0     H24919   8.309   7.048  10.389 -0.7066  1.0637 -1.7400
  185MOL0     H24920   8.183   7.040  10.177  2.5334  1.1718  2.1711
  185MOL0     H24921   8.184   6.867  10.195  0.4093  2.2081 -3.1807
  185MOL0     H24922   8.077   6.955  10.442  0.0016 -1.4093 -0.9866
  185MOL0     H24923   7.987   6.893  10.305  2.2493 -3.2017 -0.2456
  185MOL0     H24924   7.934   7.117  10.401 -0.9441  0.1159  0.4267
  185MOL0     H24925   8.065   7.181  10.320 -2.4958  1.8084 -2.3150
  185MOL0     H24926   7.918   6.907  10.091 -0.6703 -0.9825 -2.3595
  185MOL0     H24927   7.703   7.083   9.831 -2.6160  1.3653  1.4421
  185MOL0     H24928   7.768   6.918   9.884 -1.5757 -2.8066  2.4375
  185MOL0     H24929   7.588   6.919  10.061  2.4640  1.2474  0.7065
  185MOL0     H24930   7.511   7.065   9.981  1.8553  1.1440 -0.6745
  185MOL0     H24931   7.406   6.848   9.922 -1.1681  0.6426 -1.3365
  185MOL0     H24932   7.566   6.794   9.851  0.8788  0.4572 -2.1466
  185MOL0     H24933   7.364   6.890   9.696  0.1458 -0.3467  0.1648
  185MOL0     H24934   7.534   6.915   9.666 -0.4616  0.9171  1.4563
  185MOL0     H24935   7.357   6.965   9.483  1.7633  0.4407  0.4953
  185MOL0     H24936   7.238   7.090   9.304  1.5738 -1.4536  0.1488
  185MOL0     H24937   7.186   7.752   9.270  0.3536 -2.2302  1.2636
  185MOL0     H24938   6.995   7.919   9.214 -0.2829  0.3387  3.9231
  185MOL0     H24939   6.859   7.980   9.016 -1.9264  2.6014 -3.3514
  185MOL0     H24940   6.811   7.811   8.947  0.5211 -1.2771  2.4861
  185MOL0     H24941   6.578   7.942   8.994 -0.4673 -2.2234 -1.1576
  185MOL0     H24942   6.689   8.077   8.954  0.9400 -0.2676  4.7903
  185MOL0     H24943   6.618   7.824   8.784  0.5393 -0.4121 -2.1618
  185MOL0     H24944   6.554   7.999   8.759 -0.4344 -1.5411  0.5497
  185MOL0     H24945   6.837   7.900   8.734  0.2758 -1.1891 -2.7551
  185MOL0     H24946   6.785   8.074   8.717 -0.6345  0.3578  1.5387
  185MOL0     H24947   6.644   8.021   8.532 -2.1870 -2.4095 -3.1049
  185MOL0     H24948   6.675   7.851   8.551 -0.0395 -0.1895  0.7036
  185MOL0     H24949   6.883   8.066   8.494 -1.1671  0.9071 -0.6619
  185MOL0     H24950   6.914   7.891   8.502  0.8203  1.1744  5.9986
  185MOL0     H24951   6.890   8.006   8.276  1.1325 -0.2262  0.1549
  185MOL0     H24952   6.724   8.042   8.288 -0.4032  0.4495  1.3959
  185MOL0     H24953   6.800   7.846   8.145  0.7492 -1.7220  0.8757
  185MOL0     H24954   6.829   7.748   8.289  0.1899 -1.4310 -2.1717
  185MOL0     H24955   6.748   7.586   9.156  0.9876  1.9880 -1.8667
  185MOL0     H24956   6.918   7.429   9.255  1.3125  0.5659  2.0459
  185MOL0     H24957   7.233   7.445   9.528 -3.4176 -1.4502 -2.3855
  185MOL0     H24958   7.356   7.304   9.731  2.1077 -0.7634 -0.1806
  185MOL0     H24959   8.483   6.980   9.694  1.2875  1.5593 -0.6317
  185MOL0     H24960   8.284   6.952   9.544 -4.5685 -0.9200 -0.5243
  185MOL0     H24961   8.046   7.198   9.194  0.0478 -1.3401 -1.2694
  185MOL0     H24962   7.873   7.199   9.045 -1.2386 -3.6804 -1.8481
  185MOL0     H24963   7.449   7.150   9.198 -1.1577  1.2204 -1.5271
  185MOL0     H24964   7.488   6.976   9.147 -1.5922 -0.0994 -0.0094
  185MOL0     H24965   7.305   7.095   9.036  1.0696 -0.9434  0.4481
  185MOL0     H24966   7.437   7.042   8.919  0.3956 -2.1940  2.0754
  185MOL0     H24967   7.516   7.262   8.930  0.4426  1.1208 -1.4666
  185MOL0     H24968   7.377   7.304   9.042  2.6861  1.7363 -0.7197
  185MOL0     H24969   7.238   7.215   8.836  0.8014 -0.4198 -0.9469
  185MOL0     H24970   7.312   7.377   8.826 -0.6377  0.0641  2.1720
  185MOL0     H24971   7.558   7.136   8.556  0.6911 -0.8300  1.2409
  185MOL0     H24972   7.599   7.104   9.363  0.7363  1.4918  3.5419
  185MOL0     H24973   7.657   7.113   9.578 -0.5809 -1.7328 -3.4222
  185MOL0     H24974   7.770   6.983   9.565 -3.5248 -1.2245 -1.5140
  185MOL0     H24975   7.833   7.134   9.637 -3.0761  2.1812  2.0255
  186MOL0     O24976   7.926   0.100   8.595  0.7402 -0.2862  0.0404
  186MOL0     C24977   7.924  -0.026   8.616  0.0286 -0.1119  0.1957
  186MOL0     O24978   7.818  -0.110   8.607 -0.4348 -0.1550 -0.1344
  186MOL0     C24979   7.704  -0.051   8.566  0.7222  0.0648 -0.3383
  186MOL0     C24980   7.611  -0.147   8.509 -0.3525 -0.5495  0.8691
  186MOL0     C24981   7.480  -0.109   8.485  0.3631  0.1672  0.2765
  186MOL0     C24982   7.433   0.022   8.481 -0.5306 -0.2253 -0.0956
  186MOL0     O24983   7.297   0.044   8.467  0.7156  0.1996  0.0019
  186MOL0     C24984   7.240   0.182   8.489  0.6621 -0.0241  1.0839
  186MOL0     C24985   7.207   0.191   8.639  0.0374  0.4507 -1.3542
  186MOL0     C24986   7.094   0.283   8.676  0.1634  0.0047 -0.1851
  186MOL0     C24987   6.952   0.238   8.614  0.3579 -0.6219  0.6203
  186MOL0     C24988   6.823   0.332   8.642 -0.1012 -0.3948 -0.0955
  186MOL0     C24989   6.828   0.464   8.558 -0.1421 -0.0117 -0.3811
  186MOL0     C24990   6.692   0.549   8.563 -0.2873 -1.3659  0.1134
  186MOL0     C24991   6.704   0.678   8.486  0.1288  0.2774  0.1365
  186MOL0     N24992   6.572   0.740   8.487  0.8926  0.3974 -0.2390
  186MOL0     C24993   6.496   0.777   8.602 -0.0940  0.4371 -1.2106
  186MOL0     C24994   6.382   0.836   8.547  0.0869 -0.0359  0.2559
  186MOL0     C24995   6.269   0.918   8.613 -0.1039  0.9810 -0.2190
  186MOL0     C24996   6.134   0.917   8.550  0.8985  0.4774 -0.0579
  186MOL0     C24997   6.044   0.783   8.562 -0.0769 -0.1720  0.2504
  186MOL0     C24998   5.890   0.794   8.534 -0.4468  0.7399  0.2222
  186MOL0     O24999   5.886   0.847   8.407 -0.0419  0.0788  0.5351
  186MOL0     C25000   5.769   0.854   8.345  0.7675 -0.3198  0.0206
  186MOL0     C25001   5.781   0.906   8.211 -0.8732 -0.1075  0.7699
  186MOL0     C25002   5.666   0.944   8.147 -1.0163  0.3841 -0.2861
  186MOL0     C25003   5.539   0.931   8.210  0.9524  0.7829  0.0894
  186MOL0     C25004   5.414   0.989   8.158  0.3704 -1.3230  1.1295
  186MOL0     O25005   5.393   1.011   8.023  0.6581 -0.4295 -0.3551
  186MOL0     C25006   5.262   1.047   7.983 -0.9577  0.1027  0.2107
  186MOL0     C25007   5.186   0.962   7.903 -0.7483  0.6608 -0.4626
  186MOL0     C25008   5.071   1.017   7.848  0.9911 -0.1807 -0.3697
  186MOL0     C25009   5.023   1.149   7.869  0.8559  1.3232  0.3746
  186MOL0     O25010   4.909   1.197   7.812  0.0287  0.6284  0.0168
  186MOL0     C25011   4.892   1.169   7.671 -0.5937  0.7474  0.0997
  186MOL0     C25012   4.829   1.277   7.582  0.7236 -0.2171 -0.0462
  186MOL0     C25013   4.840   1.232   7.431 -0.3940 -0.1754  0.8425
  186MOL0     C25014   4.810   1.334   7.316  1.2619  0.3234  1.1216
  186MOL0     C25015   4.804   1.272   7.178  0.4109 -0.3504 -0.1213
  186MOL0     C25016   4.942   1.232   7.132 -0.6397 -0.4004  0.0531
  186MOL0     C25017   4.941   1.196   6.978 -0.1531  0.0919 -0.0097
  186MOL0     C25018   5.064   1.118   6.926  0.3209 -0.3921 -0.7069
  186MOL0    Cl25019   5.084   0.972   7.014 -0.4086  0.0882 -0.0114
  186MOL0     C25020   5.102   1.231   7.947  0.3324 -0.1574 -0.1069
  186MOL0     C25021   5.222   1.186   7.992 -0.0920 -0.0832 -0.2037
  186MOL0     O25022   5.341   1.030   8.247 -0.7231  0.3879  0.2520
  186MOL0     C25023   5.534   0.875   8.339  0.3405  0.2679  0.3313
  186MOL0     C25024   5.647   0.834   8.402 -0.0867  0.8035  0.3869
  186MOL0     N25025   6.406   0.846   8.412  0.3772 -0.5769  0.3642
  186MOL0     N25026   6.514   0.791   8.380  1.2128 -0.2012  0.5083
  186MOL0     C25027   7.520   0.124   8.528 -0.5485  0.0250  0.5922
  186MOL0     C25028   7.647   0.090   8.577 -0.3009 -0.8284  0.8191
  186MOL0     C25029   8.061  -0.077   8.654 -0.2709 -0.3254 -0.0655
  186MOL0     C25030   8.178  -0.005   8.621 -0.6509  0.3294 -0.2182
  186MOL0     C25031   8.308  -0.036   8.662  0.0700 -0.2198  0.1002
  186MOL0     C25032   8.329  -0.145   8.753  0.3250 -1.0958 -0.0609
  186MOL0     O25033   8.453  -0.187   8.793 -0.3782 -0.0097 -0.3137
  186MOL0     C25034   8.546  -0.081   8.823 -0.0811  0.1474 -0.3309
  186MOL0     C25035   8.679  -0.131   8.893  0.3929  0.2855 -0.4939
  186MOL0     C25036   8.776  -0.027   8.936 -0.0065 -0.2154  0.2543
  186MOL0     C25037   8.817   0.058   8.812 -0.1283  0.3560 -0.5287
  186MOL0     C25038   8.905   0.161   8.862 -0.0631 -0.7302  0.4640
  186MOL0     C25039   8.956   0.252   8.923  0.7826  0.5297  0.2020
  186MOL0     C25040   8.215  -0.223   8.776 -0.0895  0.7205  0.9102
  186MOL0     C25041   8.084  -0.192   8.730  0.1898  0.5534  0.0082
  186MOL0     C25042   7.977  -0.291   8.753 -1.1868  0.4669 -1.2340
  186MOL0     H25043   7.647  -0.246   8.484 -0.5074 -0.3270 -0.2957
  186MOL0     H25044   7.414  -0.190   8.458  0.4558  0.3755 -0.6066
  186MOL0     H25045   7.301   0.268   8.460 -0.2239 -0.7605 -3.9446
  186MOL0     H25046   7.145   0.195   8.437  0.7823  0.4291  0.9705
  186MOL0     H25047   7.298   0.204   8.699 -1.4315  1.6955  0.7348
  186MOL0     H25048   7.186   0.089   8.673  0.9048  0.7768  0.2510
  186MOL0     H25049   7.125   0.383   8.643  0.8265  0.1860  0.9177
  186MOL0     H25050   7.083   0.286   8.785  0.4261  2.4306 -0.1716
  186MOL0     H25051   6.960   0.245   8.505 -1.8337  3.1923  0.5370
  186MOL0     H25052   6.931   0.134   8.639  2.1740 -1.9275 -2.5694
  186MOL0     H25053   6.741   0.267   8.609 -1.2106  1.7541 -1.8131
  186MOL0     H25054   6.808   0.354   8.748  2.9513  1.1674  0.1119
  186MOL0     H25055   6.919   0.513   8.595 -0.6573 -1.7255  3.5912
  186MOL0     H25056   6.858   0.440   8.455  0.2356  3.1742 -1.1494
  186MOL0     H25057   6.672   0.584   8.665 -2.1290 -1.4323 -0.1877
  186MOL0     H25058   6.606   0.488   8.535  0.0305 -1.7596 -0.0220
  186MOL0     H25059   6.783   0.729   8.542  0.0226 -0.4982  1.0055
  186MOL0     H25060   6.734   0.672   8.381  1.0295  2.7357  0.1902
  186MOL0     H25061   6.517   0.763   8.707 -1.1245 -2.1514 -1.2778
  186MOL0     H25062   6.261   0.890   8.719 -0.0834  0.9164 -0.2344
  186MOL0     H25063   6.297   1.023   8.600 -2.0165  1.4828 -0.6191
  186MOL0     H25064   6.068   0.994   8.590 -0.0541 -0.8217  1.0098
  186MOL0     H25065   6.142   0.931   8.442  2.1972 -4.4536 -0.8616
  186MOL0     H25066   6.049   0.752   8.667  3.1488 -0.1960  0.1983
  186MOL0     H25067   6.086   0.713   8.489 -0.7797  2.1458 -2.5082
  186MOL0     H25068   5.844   0.870   8.597 -0.5259  0.3089  0.6850
  186MOL0     H25069   5.848   0.694   8.546  4.2893 -1.2827  2.7242
  186MOL0     H25070   5.882   0.920   8.173 -0.2590 -0.7641  2.0651
  186MOL0     H25071   5.661   0.999   8.054  0.0745  1.5500  0.3266
  186MOL0     H25072   5.210   0.859   7.880 -0.8505  0.3555  0.7507
  186MOL0     H25073   5.008   0.944   7.798  0.9535  1.2116 -2.5183
  186MOL0     H25074   4.986   1.132   7.629 -0.4925 -2.2094  2.5231
  186MOL0     H25075   4.833   1.077   7.665  1.8949 -1.2530  3.0289
  186MOL0     H25076   4.722   1.277   7.606  0.7863 -0.9720  0.2622
  186MOL0     H25077   4.875   1.375   7.598 -1.5374  0.4011  3.8899
  186MOL0     H25078   4.946   1.208   7.419 -0.6935 -1.0813 -0.0527
  186MOL0     H25079   4.781   1.141   7.416 -0.5904 -0.5234  3.2530
  186MOL0     H25080   4.893   1.404   7.326  2.4443 -0.7804 -0.3754
  186MOL0     H25081   4.716   1.389   7.327 -0.1549 -1.8449  0.6717
  186MOL0     H25082   4.754   1.338   7.107  1.7933  1.4018  0.4547
  186MOL0     H25083   4.740   1.183   7.183 -0.2650 -0.0526 -2.3387
  186MOL0     H25084   5.009   1.317   7.145 -2.6591  1.6674 -1.9988
  186MOL0     H25085   4.980   1.143   7.183 -0.0794  0.5137  1.2665
  186MOL0     H25086   4.928   1.290   6.923 -0.3611 -0.1637 -0.4067
  186MOL0     H25087   4.853   1.132   6.969 -0.6751  0.8323 -0.3389
  186MOL0     H25088   5.062   1.091   6.820 -0.8985  0.0492 -0.8076
  186MOL0     H25089   5.155   1.177   6.943  2.2928 -3.2820 -0.2969
  186MOL0     H25090   5.066   1.333   7.953 -0.2706 -0.4289  1.1430
  186MOL0     H25091   5.291   1.254   8.042 -1.8427  0.2439  1.9093
  186MOL0     H25092   5.440   0.856   8.389  0.5118  0.2362  0.6474
  186MOL0     H25093   5.642   0.805   8.506 -0.3148 -1.4576 -0.2066
  186MOL0     H25094   7.495   0.228   8.543  2.6488  0.4729  4.5888
  186MOL0     H25095   7.704   0.163   8.633 -2.3417 -0.2939  2.3295
  186MOL0     H25096   8.164   0.076   8.551 -0.7180 -1.0082 -1.8128
  186MOL0     H25097   8.385   0.038   8.643 -0.2415  0.0935  0.0585
  186MOL0     H25098   8.505   0.004   8.880 -1.5906 -0.5766 -0.2850
  186MOL0     H25099   8.569  -0.022   8.734  3.4474  2.8987  2.1084
  186MOL0     H25100   8.728  -0.187   8.813 -1.0202  1.1503 -2.0251
  186MOL0     H25101   8.662  -0.199   8.978  2.3913 -1.1708 -1.1801
  186MOL0     H25102   8.863  -0.073   8.983 -0.3982  1.1981  2.4754
  186MOL0     H25103   8.723   0.032   9.011 -1.1269 -0.1138 -0.5886
  186MOL0     H25104   8.867  -0.016   8.749 -2.4540 -2.4084  0.6395
  186MOL0     H25105   8.730   0.101   8.763 -0.0715 -0.8107 -1.6892
  186MOL0     H25106   9.002   0.329   8.981 -0.2880  1.5714 -0.2970
  186MOL0     H25107   8.229  -0.318   8.826 -0.5021  0.1183 -0.0879
  186MOL0     H25108   8.009  -0.341   8.846 -1.8556  1.0924 -0.6532
  186MOL0     H25109   7.881  -0.252   8.789 -1.2998 -0.4695 -0.4795
  186MOL0     H25110   7.969  -0.372   8.680 -2.1469 -0.8653  0.2805
  187MOL0     O25111  10.417   4.330   1.128  0.1648 -0.5627  0.2404
  187MOL0     C25112  10.436   4.222   1.178  0.8195  0.4469  0.6567
  187MOL0     O25113  10.431   4.102   1.119 -0.3355 -0.0444 -0.2274
  187MOL0     C25114  10.406   4.104   0.988 -0.6924  0.3283  1.0570
  187MOL0     C25115  10.286   4.151   0.940 -0.3271 -0.1144  0.4726
  187MOL0     C25116  10.251   4.154   0.804  0.1923  0.1105  0.5951
  187MOL0     C25117  10.350   4.119   0.711  0.5380  0.4729 -0.0895
  187MOL0     O25118  10.320   4.118   0.578  0.1816  0.2194 -0.0107
  187MOL0     C25119  10.294   4.255   0.524 -0.2994  0.1907 -0.4511
  187MOL0     C25120  10.423   4.321   0.481 -0.4181  0.2254  0.4718
  187MOL0     C25121  10.502   4.239   0.378  0.3086  0.1019 -0.4210
  187MOL0     C25122  10.634   4.307   0.342  0.4462 -0.2668  0.2849
  187MOL0     C25123  10.702   4.236   0.225 -0.4903  0.0258  1.1767
  187MOL0     C25124  10.814   4.324   0.174 -0.6089  0.6397  0.0050
  187MOL0     C25125  10.940   4.315   0.261 -0.0515 -0.6759  0.0316
  187MOL0     C25126  11.038   4.421   0.233 -0.1414 -0.3132 -0.0760
  187MOL0     N25127  11.161   4.388   0.294 -0.1763 -0.0206 -0.0308
  187MOL0     C25128  11.262   4.316   0.233 -0.1560 -0.1871 -0.2327
  187MOL0     C25129  11.360   4.313   0.330  0.4878 -0.7138  0.6440
  187MOL0     C25130  11.488   4.249   0.316 -0.1496 -0.5559  0.6647
  187MOL0     C25131  11.586   4.356   0.264  0.3912  0.1408 -0.3490
  187MOL0     C25132  11.721   4.285   0.268  0.4254 -0.6125 -0.1227
  187MOL0     C25133  11.833   4.364   0.216 -0.3590 -0.2471  0.2539
  187MOL0     O25134  11.848   4.488   0.295  0.4627 -0.0417  0.0015
  187MOL0     C25135  11.963   4.498   0.357 -0.6822 -0.4205 -1.0314
  187MOL0     C25136  11.966   4.559   0.486  0.0638  0.2629 -0.1307
  187MOL0     C25137  12.077   4.562   0.571  0.2008 -0.0881  0.0828
  187MOL0     C25138  12.194   4.514   0.510  0.6471  0.4458  0.4811
  187MOL0     C25139  12.311   4.509   0.594  0.0113  0.8293  0.1424
  187MOL0     O25140  12.308   4.453   0.716  0.5719 -0.0850  0.4175
  187MOL0     C25141  12.425   4.429   0.775 -0.3324 -0.0573  0.1440
  187MOL0     C25142  12.431   4.440   0.919 -0.8450 -0.3324 -0.2343
  187MOL0     C25143  12.546   4.400   0.994  0.4366 -0.0832  0.4134
  187MOL0     C25144  12.660   4.363   0.920  0.5539 -0.2271  0.0598
  187MOL0     O25145  12.768   4.323   0.999  1.0980 -0.3313 -0.5242
  187MOL0     C25146  12.852   4.222   0.943  0.2708  0.4240 -0.0451
  187MOL0     C25147  12.908   4.126   1.048  0.4643 -0.6738  1.0878
  187MOL0     C25148  12.806   4.008   1.054  0.9433  0.5370 -0.6621
  187MOL0     C25149  12.860   3.904   1.149 -0.1462 -0.3970  0.1859
  187MOL0     C25150  12.756   3.830   1.231 -0.3441  0.1687 -0.0344
  187MOL0     C25151  12.828   3.737   1.323  0.4837 -0.4461  1.0403
  187MOL0     C25152  12.878   3.606   1.248  0.4376 -0.4568 -0.8595
  187MOL0     C25153  12.974   3.527   1.331 -0.1666  0.0404  0.0469
  187MOL0    Cl25154  12.993   3.352   1.267 -0.4953  0.1081 -0.2781
  187MOL0     C25155  12.657   4.353   0.784 -0.7398  0.6883  0.3981
  187MOL0     C25156  12.540   4.378   0.718  0.3758 -0.4012  0.3591
  187MOL0     O25157  12.406   4.560   0.544  0.2402 -0.4199  0.1128
  187MOL0     C25158  12.202   4.479   0.380  0.4711  0.5013 -0.0418
  187MOL0     C25159  12.087   4.470   0.304 -0.2905  0.1334  0.9156
  187MOL0     N25160  11.307   4.377   0.441  0.1713  0.2154 -0.2064
  187MOL0     N25161  11.194   4.422   0.419 -0.4957 -0.7265  0.4586
  187MOL0     C25162  10.472   4.057   0.753  0.7000 -0.4125  0.2219
  187MOL0     C25163  10.501   4.059   0.888 -0.3520 -0.3329 -0.0408
  187MOL0     C25164  10.492   4.202   1.319 -0.4026  0.0988 -0.1202
  187MOL0     C25165  10.580   4.088   1.342  0.3046  0.0854 -0.4021
  187MOL0     C25166  10.635   4.066   1.468  0.3540  0.7779  0.6465
  187MOL0     C25167  10.611   4.151   1.575 -1.3533  0.6931 -0.9685
  187MOL0     O25168  10.668   4.144   1.698 -0.6928 -0.3419  0.4757
  187MOL0     C25169  10.761   4.036   1.726 -0.4245  0.5282  0.1156
  187MOL0     C25170  10.803   4.044   1.871  0.5993  0.1283 -0.9061
  187MOL0     C25171  10.905   4.152   1.903 -0.3460 -0.3943 -0.2532
  187MOL0     C25172  10.862   4.306   1.890  1.3679 -0.2795  0.6502
  187MOL0     C25173  10.773   4.364   1.989 -0.1699  0.0126 -0.2268
  187MOL0     C25174  10.718   4.417   2.085 -0.6401 -0.1417  0.3315
  187MOL0     C25175  10.521   4.253   1.559  0.6620 -0.4358 -0.0462
  187MOL0     C25176  10.469   4.286   1.432 -0.4974 -0.7526  0.0836
  187MOL0     C25177  10.369   4.400   1.444  0.4226  0.7445 -0.6521
  187MOL0     H25178  10.211   4.178   1.013  0.2549 -0.5203  1.2296
  187MOL0     H25179  10.158   4.182   0.757  1.6726  1.8797 -1.4760
  187MOL0     H25180  10.236   4.256   0.431 -0.8410 -0.7849 -0.1326
  187MOL0     H25181  10.237   4.319   0.592 -0.0413 -1.9182  1.8886
  187MOL0     H25182  10.481   4.337   0.573 -0.7692 -0.3204  0.7921
  187MOL0     H25183  10.404   4.419   0.435  0.0366  0.1207  0.0581
  187MOL0     H25184  10.436   4.231   0.291 -1.1438  1.4441  0.4926
  187MOL0     H25185  10.518   4.135   0.408  0.7359 -0.2262 -1.7095
  187MOL0     H25186  10.609   4.411   0.320  0.0554  0.3856  3.3190
  187MOL0     H25187  10.693   4.313   0.434  0.0211  2.0298  0.4472
  187MOL0     H25188  10.737   4.134   0.241 -0.6608 -0.6203 -1.9451
  187MOL0     H25189  10.647   4.217   0.133  1.9008  4.1272 -1.4346
  187MOL0     H25190  10.857   4.296   0.077  2.0142 -0.9073  1.5284
  187MOL0     H25191  10.773   4.425   0.163 -2.8075 -0.1892 -0.0377
  187MOL0     H25192  10.992   4.222   0.238 -1.2444 -1.6503  1.0834
  187MOL0     H25193  10.917   4.316   0.368  0.2885 -0.4219  0.1027
  187MOL0     H25194  11.059   4.433   0.127 -1.2054  0.7351 -0.1957
  187MOL0     H25195  11.011   4.520   0.274  0.5091 -0.4042  0.6031
  187MOL0     H25196  11.279   4.276   0.133  3.0623 -1.2980  0.6327
  187MOL0     H25197  11.527   4.206   0.409 -0.3523  0.9075  1.4677
  187MOL0     H25198  11.480   4.175   0.236 -0.5379  0.5939 -0.3975
  187MOL0     H25199  11.552   4.390   0.166  0.1492 -0.2778 -0.4113
  187MOL0     H25200  11.591   4.440   0.334 -1.6664 -0.2173  0.2938
  187MOL0     H25201  11.720   4.198   0.202 -3.3113  0.2112 -1.4118
  187MOL0     H25202  11.747   4.249   0.368  1.3088  0.4428  0.0575
  187MOL0     H25203  11.806   4.394   0.115 -1.0316 -0.2445  0.4254
  187MOL0     H25204  11.916   4.295   0.204  0.7574  1.2621 -1.0647
  187MOL0     H25205  11.864   4.591   0.506 -0.7628 -1.6867 -0.9500
  187MOL0     H25206  12.066   4.593   0.674 -0.6962  0.6617 -0.2218
  187MOL0     H25207  12.347   4.493   0.963 -0.4217 -0.1689  0.3942
  187MOL0     H25208  12.550   4.408   1.103  1.9863 -3.9892  0.7988
  187MOL0     H25209  12.803   4.168   0.862 -3.4495  4.2654 -0.6808
  187MOL0     H25210  12.935   4.270   0.891 -0.7642  2.2125 -0.1209
  187MOL0     H25211  13.000   4.080   1.009 -0.7977 -1.1005 -1.5765
  187MOL0     H25212  12.936   4.171   1.144  1.9603 -1.3346  0.9963
  187MOL0     H25213  12.710   4.047   1.088 -0.0681 -1.6175 -0.9389
  187MOL0     H25214  12.795   3.963   0.955  1.8797 -1.3030  0.0163
  187MOL0     H25215  12.932   3.961   1.209 -1.2750  2.3231 -0.9302
  187MOL0     H25216  12.922   3.834   1.092  1.8943 -0.5757  2.4463
  187MOL0     H25217  12.698   3.760   1.169  1.1537 -2.7964  1.7033
  187MOL0     H25218  12.692   3.899   1.286 -1.7393 -1.0542 -0.0410
  187MOL0     H25219  12.907   3.795   1.371  1.2386 -2.0714  1.8124
  187MOL0     H25220  12.752   3.711   1.397 -1.9879 -0.6484 -1.3613
  187MOL0     H25221  12.902   3.626   1.143 -6.4955  7.0688 -2.0268
  187MOL0     H25222  12.789   3.544   1.239  1.1648 -1.5397 -0.7789
  187MOL0     H25223  13.070   3.579   1.343 -0.7392  1.1896 -0.1668
  187MOL0     H25224  12.939   3.526   1.435  3.1914 -0.1129  1.3030
  187MOL0     H25225  12.744   4.329   0.724  0.0984  0.7639  1.5556
  187MOL0     H25226  12.545   4.375   0.609 -1.5866  2.2818  0.0911
  187MOL0     H25227  12.301   4.457   0.342 -0.2010 -1.2519 -0.8612
  187MOL0     H25228  12.090   4.430   0.203 -0.4722  3.9843 -0.7931
  187MOL0     H25229  10.539   4.036   0.671 -0.0759  3.0564 -1.4866
  187MOL0     H25230  10.605   4.036   0.912  0.2013  1.3559 -0.6855
  187MOL0     H25231  10.603   4.013   1.267  1.5034 -0.8040  0.8133
  187MOL0     H25232  10.705   3.983   1.468  0.4785  0.8547  2.1420
  187MOL0     H25233  10.846   4.039   1.658  0.2967  0.1052  0.9848
  187MOL0     H25234  10.710   3.940   1.715  0.5553 -0.2915  2.1278
  187MOL0     H25235  10.837   3.941   1.887  0.4102  0.1835 -0.1001
  187MOL0     H25236  10.714   4.055   1.934 -0.4824  3.5916 -2.7601
  187MOL0     H25237  10.981   4.146   1.825  1.7413  2.5756  1.3720
  187MOL0     H25238  10.959   4.132   1.996  3.3538  3.3875 -1.2633
  187MOL0     H25239  10.957   4.360   1.886  1.3561 -0.3144 -0.6216
  187MOL0     H25240  10.814   4.315   1.792  2.2732  4.1932  0.4029
  187MOL0     H25241  10.674   4.474   2.165 -0.6768 -2.8393  2.3609
  187MOL0     H25242  10.488   4.307   1.648 -0.9530 -1.0418 -0.2417
  187MOL0     H25243  10.292   4.405   1.366 -1.9654  0.7055  1.5523
  187MOL0     H25244  10.309   4.409   1.535 -1.0125 -1.1612 -1.3430
  187MOL0     H25245  10.431   4.490   1.439  0.2812  0.7993 -1.8581
  188MOL0     O25246   5.917   4.500   6.945  0.0912 -0.5911  0.2947
  188MOL0     C25247   5.849   4.483   6.843  0.1737 -0.1105  0.1234
  188MOL0     O25248   5.895   4.435   6.726  0.4914 -0.2106 -0.5843
  188MOL0     C25249   6.028   4.416   6.727  1.4632 -0.4062 -0.6054
  188MOL0     C25250   6.076   4.286   6.744 -0.2462 -0.3754 -0.9690
  188MOL0     C25251   6.214   4.258   6.736  0.1256 -1.1837  0.0905
  188MOL0     C25252   6.310   4.356   6.713 -0.2943 -0.3024  0.8558
  188MOL0     O25253   6.449   4.355   6.735  0.0330  0.9990  0.0309
  188MOL0     C25254   6.502   4.222   6.749 -0.6507  0.1700  1.1660
  188MOL0     C25255   6.652   4.245   6.763 -0.2849  0.1301  0.3048
  188MOL0     C25256   6.721   4.121   6.823 -0.8287  0.1270 -0.0747
  188MOL0     C25257   6.871   4.116   6.783 -0.0210  0.4247  0.4565
  188MOL0     C25258   6.970   4.040   6.880 -1.5473  0.2147  0.6050
  188MOL0     C25259   6.954   3.889   6.892  0.2202 -0.4954 -0.4348
  188MOL0     C25260   7.055   3.820   6.971 -0.0379  0.0191  0.2593
  188MOL0     C25261   7.165   3.753   6.891 -0.0344 -0.3973 -0.2080
  188MOL0     N25262   7.271   3.701   6.974  0.0624 -0.5062 -0.7445
  188MOL0     C25263   7.387   3.764   7.009 -0.2553  0.3210  0.6030
  188MOL0     C25264   7.471   3.671   7.057 -0.0063  0.3407  0.1679
  188MOL0     C25265   7.603   3.696   7.127 -0.0357  0.0462 -0.0941
  188MOL0     C25266   7.599   3.685   7.274 -0.8345 -0.0919  0.0818
  188MOL0     C25267   7.490   3.764   7.347  0.0530 -0.0765 -0.5680
  188MOL0     C25268   7.500   3.734   7.508 -0.4308 -0.1163 -0.5599
  188MOL0     O25269   7.381   3.774   7.581  0.2674  0.7079  0.4151
  188MOL0     C25270   7.354   3.896   7.630  0.4341 -0.1689  0.5957
  188MOL0     C25271   7.231   3.906   7.697  0.8530  0.7653 -0.6698
  188MOL0     C25272   7.203   4.026   7.766 -0.3223 -0.2547 -0.1435
  188MOL0     C25273   7.292   4.135   7.752  0.3868  0.0815  0.6204
  188MOL0     C25274   7.235   4.272   7.799 -0.0852  0.6186 -0.4207
  188MOL0     O25275   7.107   4.290   7.819 -0.0058  0.5157 -0.2555
  188MOL0     C25276   7.057   4.420   7.811  0.0352  0.7668 -0.3571
  188MOL0     C25277   7.050   4.498   7.920 -0.8571 -0.4606  1.2948
  188MOL0     C25278   6.985   4.622   7.916  0.2825  0.3452 -0.7760
  188MOL0     C25279   6.934   4.672   7.789 -0.5256  0.4335  0.8060
  188MOL0     O25280   6.886   4.800   7.774 -0.8240  0.3843 -0.8409
  188MOL0     C25281   6.792   4.829   7.675  1.0201 -0.0394 -0.2030
  188MOL0     C25282   6.736   4.964   7.710  1.0547  1.1854  0.3029
  188MOL0     C25283   6.643   4.952   7.831  0.5177 -0.4479  0.9967
  188MOL0     C25284   6.673   5.039   7.948 -0.2612  1.1220  0.2958
  188MOL0     C25285   6.550   5.047   8.033  0.7037 -1.1089  1.0116
  188MOL0     C25286   6.574   5.127   8.155  0.8199  0.7650 -0.2969
  188MOL0     C25287   6.447   5.129   8.241 -0.2978 -0.9798  0.1324
  188MOL0     C25288   6.479   5.225   8.359 -0.3968  0.3365  0.6544
  188MOL0    Cl25289   6.618   5.174   8.457  0.3239  0.0524 -0.2195
  188MOL0     C25290   6.956   4.587   7.673  0.9962  0.2325 -1.1479
  188MOL0     C25291   7.005   4.458   7.690  0.3984 -0.3949  0.5379
  188MOL0     O25292   7.322   4.361   7.793 -0.1227 -0.3394  0.1735
  188MOL0     C25293   7.413   4.121   7.676 -1.1342 -0.0520 -0.7903
  188MOL0     C25294   7.449   4.003   7.621 -0.4808 -0.9028  1.0302
  188MOL0     N25295   7.407   3.549   7.058 -0.4967 -0.4547  0.0930
  188MOL0     N25296   7.291   3.571   7.006 -0.0248 -0.7347 -0.7175
  188MOL0     C25297   6.257   4.483   6.684 -0.3498  0.0156 -0.4285
  188MOL0     C25298   6.116   4.517   6.686  0.2246  0.5120 -0.2649
  188MOL0     C25299   5.704   4.530   6.855 -1.0428 -0.1639  0.7343
  188MOL0     C25300   5.670   4.617   6.953  0.1166 -0.8285 -0.3446
  188MOL0     C25301   5.538   4.657   6.977 -0.1939  0.5828  0.2124
  188MOL0     C25302   5.430   4.604   6.900 -0.3352  0.2704 -0.4146
  188MOL0     O25303   5.300   4.641   6.914 -0.6775  0.7687 -0.3659
  188MOL0     C25304   5.233   4.708   6.808  0.3801  0.3226  0.6014
  188MOL0     C25305   5.088   4.741   6.856 -0.1785  0.6174  0.5068
  188MOL0     C25306   5.071   4.771   7.003 -0.1369 -1.2257 -0.6460
  188MOL0     C25307   4.928   4.829   7.043 -0.9776 -0.1011  0.1696
  188MOL0     C25308   4.808   4.751   7.003  0.3841  0.8697 -0.3737
  188MOL0     C25309   4.706   4.688   6.968 -0.0697  0.4554  0.9055
  188MOL0     C25310   5.469   4.522   6.804  0.2360 -0.5667  1.2397
  188MOL0     C25311   5.604   4.484   6.772 -0.9045 -0.0477  0.3542
  188MOL0     C25312   5.618   4.375   6.657  1.0442  0.3712 -1.4168
  188MOL0     H25313   5.998   4.218   6.776  0.9935 -1.9078 -1.1043
  188MOL0     H25314   6.236   4.155   6.763 -1.5086 -1.0001  2.4302
  188MOL0     H25315   6.461   4.186   6.844  0.7440  0.0584  1.7418
  188MOL0     H25316   6.472   4.167   6.659 -2.1637  1.9115  0.5446
  188MOL0     H25317   6.663   4.329   6.833  2.9888 -0.3335  0.4929
  188MOL0     H25318   6.696   4.284   6.671 -0.2454 -2.3333 -0.7874
  188MOL0     H25319   6.677   4.027   6.786  2.6525 -1.1132 -1.4394
  188MOL0     H25320   6.707   4.124   6.931 -1.7543 -1.1102 -0.1304
  188MOL0     H25321   6.889   4.091   6.678 -2.2588 -1.7103  0.4887
  188MOL0     H25322   6.900   4.221   6.777  0.2308  0.2799 -3.9332
  188MOL0     H25323   7.065   4.061   6.829 -2.4965  1.1564 -0.8858
  188MOL0     H25324   6.983   4.092   6.975  4.7872  1.6167 -0.5693
  188MOL0     H25325   6.861   3.879   6.950  0.2100 -0.1543 -0.3929
  188MOL0     H25326   6.936   3.835   6.799  2.2702 -4.1799  1.0635
  188MOL0     H25327   7.010   3.738   7.027  0.9460 -0.1716  0.7870
  188MOL0     H25328   7.100   3.894   7.038  4.1449 -0.2853 -1.8861
  188MOL0     H25329   7.129   3.660   6.846  0.7888  0.2964 -2.4725
  188MOL0     H25330   7.215   3.816   6.816 -2.4259  0.9945 -0.7723
  188MOL0     H25331   7.403   3.871   7.003  3.9377 -0.1184  1.3945
  188MOL0     H25332   7.661   3.610   7.095  0.0127 -0.9390  2.4149
  188MOL0     H25333   7.654   3.787   7.093  0.8772 -0.9705 -1.5452
  188MOL0     H25334   7.586   3.581   7.304 -1.1040  0.7505  3.3326
  188MOL0     H25335   7.695   3.724   7.311 -0.8502  0.0945 -0.0735
  188MOL0     H25336   7.388   3.733   7.324  0.1610  0.8117 -2.4696
  188MOL0     H25337   7.498   3.872   7.333 -0.2325  0.3694  2.1485
  188MOL0     H25338   7.592   3.786   7.536 -0.3096  0.3343 -1.7406
  188MOL0     H25339   7.527   3.629   7.526 -0.8572  0.0893  1.4567
  188MOL0     H25340   7.168   3.819   7.713  0.0608  2.0502  6.4120
  188MOL0     H25341   7.111   4.031   7.823 -1.0425 -1.0007 -1.1859
  188MOL0     H25342   7.096   4.457   8.010 -0.3562 -1.4658  0.5963
  188MOL0     H25343   6.961   4.689   7.998 -1.4422  0.7941 -1.6115
  188MOL0     H25344   6.852   4.825   7.583  0.3834  1.8678 -0.7405
  188MOL0     H25345   6.713   4.754   7.665  1.0639 -0.1186  0.0492
  188MOL0     H25346   6.821   5.030   7.728  0.1399  2.4689  0.0015
  188MOL0     H25347   6.683   4.995   7.620 -2.9474 -2.3501  1.1438
  188MOL0     H25348   6.542   4.973   7.794  0.7473  2.4829  1.7224
  188MOL0     H25349   6.642   4.849   7.866 -2.2728 -0.5875  0.6693
  188MOL0     H25350   6.712   5.136   7.916  1.1138 -0.1686 -2.2130
  188MOL0     H25351   6.750   4.979   7.998  0.4580  0.6254 -1.3378
  188MOL0     H25352   6.505   4.949   8.050  0.3815 -1.5227 -1.7374
  188MOL0     H25353   6.488   5.110   7.967  1.0129 -1.4957  0.3405
  188MOL0     H25354   6.651   5.073   8.211 -0.8967 -0.0962  1.3427
  188MOL0     H25355   6.611   5.226   8.125  1.2066 -0.0247 -2.6538
  188MOL0     H25356   6.407   5.034   8.279 -0.1720 -1.6535 -1.3214
  188MOL0     H25357   6.372   5.185   8.185  2.5099  2.8867 -0.1496
  188MOL0     H25358   6.512   5.320   8.317  3.1152 -0.9854  0.0377
  188MOL0     H25359   6.390   5.221   8.423 -0.7977 -1.5748  0.0512
  188MOL0     H25360   6.926   4.610   7.572 -1.2511 -3.6635 -1.5638
  188MOL0     H25361   7.019   4.387   7.609 -0.5623  0.8999 -0.8165
  188MOL0     H25362   7.497   4.190   7.683  2.3476 -3.7950 -1.8287
  188MOL0     H25363   7.540   4.010   7.563  0.2342  0.5802  2.2644
  188MOL0     H25364   6.320   4.567   6.658 -1.4367  0.8447 -0.4455
  188MOL0     H25365   6.069   4.611   6.661 -0.6069 -0.4002 -2.3736
  188MOL0     H25366   5.738   4.660   7.026  0.3312  3.2599 -2.6398
  188MOL0     H25367   5.513   4.724   7.058  1.7007  2.7326 -0.8703
  188MOL0     H25368   5.218   4.640   6.723 -0.6615  0.0284  1.0070
  188MOL0     H25369   5.279   4.803   6.777  1.7371 -0.3552  0.4607
  188MOL0     H25370   5.012   4.667   6.830  0.3592  0.5634 -1.0155
  188MOL0     H25371   5.047   4.824   6.799 -0.6095 -0.8301 -1.3951
  188MOL0     H25372   5.147   4.849   7.020  0.4810 -1.2902 -2.7946
  188MOL0     H25373   5.100   4.687   7.068  0.0051 -1.7483 -1.3726
  188MOL0     H25374   4.935   4.854   7.149 -2.4162 -0.5867  0.3987
  188MOL0     H25375   4.923   4.921   6.984 -1.7551 -1.4747 -2.0363
  188MOL0     H25376   4.623   4.622   6.956  0.5991 -0.1183 -0.7717
  188MOL0     H25377   5.386   4.510   6.736 -1.3765  1.4219  2.7336
  188MOL0     H25378   5.709   4.314   6.665  0.1262 -1.3491 -3.0520
  188MOL0     H25379   5.534   4.307   6.640  1.5889 -0.2961 -1.4912
  188MOL0     H25380   5.630   4.427   6.561  0.9164  2.9949 -0.0892
  189MOL0     O25381   5.857   3.026   0.367  0.8972 -0.1161 -0.1603
  189MOL0     C25382   5.885   3.040   0.485  0.6755 -0.3955 -0.3303
  189MOL0     O25383   5.969   2.962   0.558  0.1328  0.1622  0.5365
  189MOL0     C25384   5.998   2.840   0.498  0.3977  0.1927 -0.0547
  189MOL0     C25385   6.115   2.831   0.416 -0.9324 -0.4112 -0.2140
  189MOL0     C25386   6.158   2.700   0.366 -0.8002 -0.8795  0.2580
  189MOL0     C25387   6.084   2.592   0.384  0.2559  0.0797 -0.2825
  189MOL0     O25388   6.122   2.473   0.329 -0.3648  0.4646 -0.6657
  189MOL0     C25389   6.151   2.370   0.422 -0.0482  0.5295 -0.4384
  189MOL0     C25390   6.290   2.315   0.400 -0.8320  0.2060  0.4849
  189MOL0     C25391   6.326   2.240   0.529 -0.2141 -0.3117  0.2532
  189MOL0     C25392   6.467   2.192   0.531 -1.0292 -0.1221 -0.7278
  189MOL0     C25393   6.507   2.116   0.658  0.4688  0.7160 -1.1398
  189MOL0     C25394   6.634   2.028   0.632 -1.1021 -0.0978  0.4777
  189MOL0     C25395   6.661   1.923   0.744  0.3509  0.2551 -0.7385
  189MOL0     C25396   6.690   1.992   0.873  0.6227 -0.6814 -0.1641
  189MOL0     N25397   6.742   1.890   0.964 -1.2335 -0.5365  0.7403
  189MOL0     C25398   6.854   1.903   1.041  0.4537  0.1298  0.1369
  189MOL0     C25399   6.853   1.787   1.107 -0.8015 -0.0158 -0.6093
  189MOL0     C25400   6.969   1.742   1.196  0.2047  0.6735  0.2804
  189MOL0     C25401   7.102   1.785   1.132 -0.1231 -0.3501 -0.5373
  189MOL0     C25402   7.227   1.733   1.211  0.2279 -0.5511  0.2041
  189MOL0     C25403   7.341   1.766   1.125 -0.2105 -0.6398  0.0041
  189MOL0     O25404   7.341   1.673   1.010  1.2249 -0.4031 -0.3736
  189MOL0     C25405   7.464   1.648   0.951 -0.0748 -0.3589 -0.4620
  189MOL0     C25406   7.479   1.533   0.868  0.3091 -1.5249  0.0717
  189MOL0     C25407   7.596   1.490   0.814 -0.1999  0.3125  0.5375
  189MOL0     C25408   7.715   1.575   0.840  1.6344 -0.4113 -1.3729
  189MOL0     C25409   7.836   1.523   0.786 -0.2654 -0.3828 -0.3266
  189MOL0     O25410   7.829   1.403   0.720  0.1035  0.4531  0.3324
  189MOL0     C25411   7.954   1.354   0.682 -0.2918 -0.4314  0.2970
  189MOL0     C25412   8.022   1.384   0.565 -0.1065  0.5192 -0.5487
  189MOL0     C25413   8.144   1.336   0.530  0.5041  0.4441  0.5452
  189MOL0     C25414   8.210   1.242   0.611  0.3577  0.2453  0.8153
  189MOL0     O25415   8.333   1.190   0.585  0.1595  0.0724  0.0437
  189MOL0     C25416   8.337   1.056   0.533 -0.2676  0.0628 -0.5921
  189MOL0     C25417   8.481   1.007   0.498  0.1660 -0.0774  0.8917
  189MOL0     C25418   8.572   1.056   0.611  0.0526  0.1266  0.3379
  189MOL0     C25419   8.703   0.969   0.617  0.0255  0.5599 -0.3076
  189MOL0     C25420   8.803   1.024   0.710  0.1207 -0.2587 -0.8052
  189MOL0     C25421   8.937   0.950   0.711  0.1224  0.0044  0.6192
  189MOL0     C25422   9.030   0.970   0.591  0.3604 -1.2887 -0.8622
  189MOL0     C25423   9.117   0.843   0.556 -0.9896  1.2538  0.3247
  189MOL0    Cl25424   9.211   0.778   0.702 -0.2155 -0.3508 -0.0755
  189MOL0     C25425   8.147   1.212   0.731  0.1216  1.1197  0.1820
  189MOL0     C25426   8.021   1.264   0.765  0.2308 -0.9438  0.4955
  189MOL0     O25427   7.941   1.593   0.806  0.2637  0.0793 -0.0760
  189MOL0     C25428   7.704   1.696   0.914 -0.1185 -0.4813  0.0538
  189MOL0     C25429   7.583   1.719   0.981 -0.3829 -0.0365  0.2648
  189MOL0     N25430   6.754   1.705   1.077  0.8214  0.2445  0.0203
  189MOL0     N25431   6.686   1.764   0.984  0.3696 -0.5661 -0.6465
  189MOL0     C25432   5.964   2.601   0.450 -0.4640 -0.6319 -0.7203
  189MOL0     C25433   5.921   2.722   0.518  0.3468  0.5140  0.7836
  189MOL0     C25434   5.820   3.152   0.557  0.3477  0.1424 -1.0726
  189MOL0     C25435   5.758   3.125   0.676  0.0553  0.0533 -0.1079
  189MOL0     C25436   5.683   3.228   0.731  0.5819 -0.3690  0.1694
  189MOL0     C25437   5.671   3.355   0.676 -0.8966 -1.2661  0.0849
  189MOL0     O25438   5.613   3.469   0.734  0.6032 -0.8129 -0.6905
  189MOL0     C25439   5.570   3.466   0.872  0.6337  0.5354 -0.1849
  189MOL0     C25440   5.682   3.495   0.971  0.2311 -0.4507  0.0885
  189MOL0     C25441   5.752   3.637   0.960  0.1844  0.8483  0.2895
  189MOL0     C25442   5.869   3.675   1.057 -1.2435  0.0072 -0.6999
  189MOL0     C25443   5.820   3.658   1.193  0.4187 -0.7585 -0.4968
  189MOL0     C25444   5.769   3.650   1.302 -0.6453  0.3112 -0.3420
  189MOL0     C25445   5.735   3.378   0.554 -0.7435  0.0586  0.0596
  189MOL0     C25446   5.807   3.277   0.493 -0.2961 -1.0820  1.0301
  189MOL0     C25447   5.891   3.319   0.371 -0.3788 -0.6967  0.3569
  189MOL0     H25448   6.191   2.907   0.405 -1.0472 -0.3531 -0.6428
  189MOL0     H25449   6.252   2.691   0.313  1.2752  3.3267  2.6726
  189MOL0     H25450   6.145   2.411   0.523  0.2166 -1.8584  0.6361
  189MOL0     H25451   6.081   2.286   0.419  0.6090 -0.1860  2.1231
  189MOL0     H25452   6.356   2.402   0.385  0.2643 -0.6852 -0.0608
  189MOL0     H25453   6.287   2.249   0.313 -1.8745  0.2667  0.4703
  189MOL0     H25454   6.252   2.161   0.538 -0.3953 -0.7312 -3.2286
  189MOL0     H25455   6.309   2.316   0.606  0.4397  0.2215 -0.1136
  189MOL0     H25456   6.480   2.124   0.447  2.1356 -1.0253  0.3724
  189MOL0     H25457   6.532   2.279   0.517  3.5825 -3.4878 -2.4380
  189MOL0     H25458   6.516   2.191   0.737 -1.0560  2.5022 -2.5523
  189MOL0     H25459   6.423   2.051   0.686  0.8197 -0.2839 -2.3123
  189MOL0     H25460   6.622   1.975   0.537 -0.7585  3.7725 -1.9808
  189MOL0     H25461   6.711   2.101   0.604 -1.6937  0.5919  0.5967
  189MOL0     H25462   6.751   1.863   0.726  0.9807  0.6649  0.8665
  189MOL0     H25463   6.575   1.859   0.762 -2.5368  4.3777  1.6660
  189MOL0     H25464   6.766   2.069   0.855 -1.5849  1.9657  1.0296
  189MOL0     H25465   6.601   2.033   0.922 -2.5226 -3.6433 -2.8644
  189MOL0     H25466   6.928   1.982   1.051  0.2467  0.1893  1.2411
  189MOL0     H25467   6.946   1.796   1.289 -0.8345  2.8135 -1.1427
  189MOL0     H25468   6.972   1.634   1.214 -0.3023  0.9471  2.3224
  189MOL0     H25469   7.114   1.755   1.027  1.7591  1.4179 -0.8841
  189MOL0     H25470   7.097   1.894   1.135 -1.0602 -0.3838 -0.5136
  189MOL0     H25471   7.220   1.624   1.222  0.9258 -0.5803  0.4264
  189MOL0     H25472   7.241   1.778   1.310  1.8807  1.3874 -0.8444
  189MOL0     H25473   7.424   1.741   1.192 -0.5019  0.2156  0.7076
  189MOL0     H25474   7.344   1.870   1.092  0.3071 -0.4999  0.4820
  189MOL0     H25475   7.385   1.478   0.860 -1.8094  1.6363  0.9868
  189MOL0     H25476   7.601   1.396   0.760  1.7860  1.7612 -2.0467
  189MOL0     H25477   7.974   1.450   0.493  1.2147 -0.1431 -2.0957
  189MOL0     H25478   8.199   1.368   0.442 -0.7296  1.7282  0.2031
  189MOL0     H25479   8.291   0.990   0.608 -0.5616  1.5569  0.5956
  189MOL0     H25480   8.270   1.043   0.448 -1.1676  1.4442 -0.1249
  189MOL0     H25481   8.488   0.898   0.494  2.0908 -0.0279  1.7264
  189MOL0     H25482   8.505   1.051   0.400 -1.4639  1.1754  1.0199
  189MOL0     H25483   8.593   1.163   0.600  0.2850 -0.0059 -0.5731
  189MOL0     H25484   8.512   1.039   0.701 -0.6234 -0.6920 -0.2510
  189MOL0     H25485   8.752   0.961   0.519  1.2186 -2.4957  0.4548
  189MOL0     H25486   8.681   0.864   0.638  1.1416 -0.1812 -2.5026
  189MOL0     H25487   8.771   1.018   0.814  2.2070 -0.3420 -0.1349
  189MOL0     H25488   8.817   1.131   0.691  0.4953  0.3345  2.3357
  189MOL0     H25489   8.993   0.978   0.801  1.7377 -0.6922 -0.1275
  189MOL0     H25490   8.922   0.843   0.722 -4.9025  0.4661  0.2965
  189MOL0     H25491   9.099   1.052   0.615 -0.6474 -1.0367  1.4852
  189MOL0     H25492   8.965   0.993   0.506 -0.8094  2.4458  0.8153
  189MOL0     H25493   9.049   0.770   0.510  0.7725  0.9932 -2.1149
  189MOL0     H25494   9.187   0.871   0.477  1.3227 -0.6284  1.5633
  189MOL0     H25495   8.200   1.146   0.799  4.3666  0.7973 -2.9813
  189MOL0     H25496   7.984   1.249   0.866  0.1452 -0.3576  0.5554
  189MOL0     H25497   7.787   1.765   0.930  1.9255 -3.2234  2.3572
  189MOL0     H25498   7.585   1.811   1.039  2.8910 -0.7394  1.4416
  189MOL0     H25499   5.891   2.522   0.463 -1.9990  0.9606  1.1227
  189MOL0     H25500   5.836   2.708   0.584 -0.8942 -1.7327 -1.1080
  189MOL0     H25501   5.769   3.023   0.713  0.2663  0.4502  0.9761
  189MOL0     H25502   5.614   3.192   0.807 -0.5928  1.6655  0.1662
  189MOL0     H25503   5.547   3.366   0.912  2.2532  0.3833  0.4084
  189MOL0     H25504   5.485   3.534   0.877  1.8179  1.9680  2.0710
  189MOL0     H25505   5.761   3.423   0.947  0.9812  1.6867 -5.4271
  189MOL0     H25506   5.649   3.478   1.074 -1.4984 -2.3689 -0.7055
  189MOL0     H25507   5.675   3.715   0.967 -0.1271  0.4362  1.7423
  189MOL0     H25508   5.789   3.648   0.858  0.1022 -1.0337  0.0234
  189MOL0     H25509   5.956   3.610   1.043  0.8895  2.0603  1.7417
  189MOL0     H25510   5.909   3.775   1.036 -0.5932 -0.6251 -2.7482
  189MOL0     H25511   5.739   3.650   1.405  0.6060  0.8759  0.0474
  189MOL0     H25512   5.741   3.485   0.535  0.4110  0.5520  2.6785
  189MOL0     H25513   5.988   3.361   0.397  0.2883 -1.5309 -0.7128
  189MOL0     H25514   5.901   3.238   0.299  2.0711 -1.1876  1.1562
  189MOL0     H25515   5.845   3.406   0.323  1.5637 -0.7862 -1.8439
  190MOL0     O25516   3.486   2.362   4.998 -0.3805  0.8921  0.6629
  190MOL0     C25517   3.502   2.465   4.934 -0.2846 -0.7404  0.0854
  190MOL0     O25518   3.601   2.486   4.842 -1.2760  0.7142  0.8196
  190MOL0     C25519   3.702   2.392   4.830  0.1764  0.6743 -0.7023
  190MOL0     C25520   3.793   2.368   4.923  0.3341  0.4190 -0.0430
  190MOL0     C25521   3.898   2.280   4.910 -0.0581  0.3377  0.4979
  190MOL0     C25522   3.913   2.214   4.789 -0.0548  0.2086  0.0623
  190MOL0     O25523   4.026   2.153   4.756  0.1565  1.0066  0.1441
  190MOL0     C25524   4.141   2.221   4.792 -0.4528 -0.9591  1.1106
  190MOL0     C25525   4.254   2.172   4.703  0.8460 -0.5320  0.4298
  190MOL0     C25526   4.393   2.208   4.752 -0.2026  0.2774 -1.4395
  190MOL0     C25527   4.502   2.174   4.641  0.1365  0.3921 -0.3999
  190MOL0     C25528   4.648   2.190   4.701  0.7609  0.2455  1.2291
  190MOL0     C25529   4.697   2.089   4.809  1.0750  0.3780 -0.0821
  190MOL0     C25530   4.815   2.154   4.885  0.1865 -0.6406 -0.1453
  190MOL0     C25531   4.872   2.114   5.019 -0.1451 -0.0944  0.6938
  190MOL0     N25532   4.759   2.082   5.111 -0.2983 -0.6083 -0.3733
  190MOL0     C25533   4.695   2.180   5.181 -1.0796  0.1765 -0.4180
  190MOL0     C25534   4.583   2.126   5.239 -0.5277 -0.7922  0.4856
  190MOL0     C25535   4.471   2.200   5.306  0.3492  0.1180  0.2641
  190MOL0     C25536   4.355   2.234   5.194  0.1717  0.2425 -0.7711
  190MOL0     C25537   4.410   2.338   5.093 -0.1735 -1.5392 -0.6256
  190MOL0     C25538   4.442   2.479   5.152 -0.1624 -0.5828  0.0406
  190MOL0     O25539   4.322   2.539   5.197  0.6853  0.0100  1.1409
  190MOL0     C25540   4.291   2.589   5.317 -0.2944  0.0822 -0.0850
  190MOL0     C25541   4.377   2.597   5.432  0.1645 -0.6644  0.2052
  190MOL0     C25542   4.325   2.645   5.553 -0.3867 -0.8465 -0.1261
  190MOL0     C25543   4.188   2.683   5.567  0.2547 -0.6941  0.8181
  190MOL0     C25544   4.133   2.722   5.701  0.8455  0.2199 -0.5706
  190MOL0     O25545   4.225   2.726   5.807  0.3485  0.5666  0.1745
  190MOL0     C25546   4.178   2.782   5.924  0.6984  0.6020 -0.2554
  190MOL0     C25547   4.159   2.919   5.942 -0.7812 -0.7205  0.8464
  190MOL0     C25548   4.117   2.972   6.065 -0.4706  0.7234 -0.8941
  190MOL0     C25549   4.069   2.885   6.170  0.0589  0.5982 -0.4906
  190MOL0     O25550   4.041   2.937   6.296 -0.5896  0.3491  0.6805
  190MOL0     C25551   3.937   2.869   6.363 -0.0145 -0.8600 -0.8386
  190MOL0     C25552   3.886   2.954   6.488 -0.0636 -0.7124  0.5088
  190MOL0     C25553   3.809   3.078   6.428  0.1538  0.5545 -0.0281
  190MOL0     C25554   3.763   3.163   6.539  0.1892 -0.5715 -0.8892
  190MOL0     C25555   3.874   3.261   6.575 -0.9212  0.3166  1.2772
  190MOL0     C25556   3.841   3.344   6.690  0.2004 -0.9633 -0.5851
  190MOL0     C25557   3.709   3.418   6.674 -0.1460  0.0450 -0.9256
  190MOL0     C25558   3.697   3.532   6.767 -0.2562  0.2567  0.0530
  190MOL0    Cl25559   3.817   3.660   6.734 -0.0695 -0.1530  0.4615
  190MOL0     C25560   4.069   2.748   6.138 -0.1337  1.1448 -0.0271
  190MOL0     C25561   4.124   2.696   6.020 -0.4403 -0.3304 -0.1945
  190MOL0     O25562   4.011   2.746   5.715  0.0522  0.0901 -0.5458
  190MOL0     C25563   4.108   2.671   5.457 -0.0592  0.3026 -0.0623
  190MOL0     C25564   4.158   2.629   5.333 -0.3720 -0.0695 -0.3498
  190MOL0     N25565   4.587   1.989   5.213  0.3334 -0.0412  0.9022
  190MOL0     N25566   4.692   1.971   5.140 -0.1280 -0.3365 -0.2232
  190MOL0     C25567   3.815   2.231   4.688  0.2088  1.3996 -0.6120
  190MOL0     C25568   3.712   2.319   4.706 -0.6104  0.5785 -0.4654
  190MOL0     C25569   3.407   2.581   4.961  0.2303  0.3359 -0.2200
  190MOL0     C25570   3.412   2.688   4.864  0.0011  0.3444 -0.4529
  190MOL0     C25571   3.325   2.797   4.870 -0.1606 -0.8790 -0.0398
  190MOL0     C25572   3.225   2.797   4.974 -0.1098  0.2218  0.2960
  190MOL0     O25573   3.148   2.908   4.980 -0.8304 -0.0404 -0.4783
  190MOL0     C25574   3.143   2.977   5.106 -0.4444 -0.0411  0.1287
  190MOL0     C25575   3.193   3.129   5.090  0.1272  0.3728 -1.5487
  190MOL0     C25576   3.217   3.188   5.240  0.0232  0.2589  0.6878
  190MOL0     C25577   3.238   3.339   5.245 -0.5887  0.6764 -0.4689
  190MOL0     C25578   3.364   3.368   5.185  0.5640 -0.4223 -0.4457
  190MOL0     C25579   3.467   3.387   5.129  0.5342  0.6435 -0.4199
  190MOL0     C25580   3.221   2.700   5.075 -0.3311  0.0065  0.2995
  190MOL0     C25581   3.303   2.586   5.070 -0.7568  0.0974  0.5331
  190MOL0     C25582   3.297   2.492   5.177  0.2050  0.0133 -0.5945
  190MOL0     H25583   3.782   2.416   5.020 -0.5872  3.7698 -1.6690
  190MOL0     H25584   3.969   2.264   4.990  0.9651  1.4957 -0.1503
  190MOL0     H25585   4.134   2.330   4.783 -1.7844 -1.1480 -0.4744
  190MOL0     H25586   4.166   2.218   4.899  0.3448  1.6898  1.0612
  190MOL0     H25587   4.256   2.220   4.605  0.7143 -2.2119 -0.4460
  190MOL0     H25588   4.252   2.063   4.691  1.0294 -0.7315  2.0443
  190MOL0     H25589   4.420   2.157   4.845  3.3322  2.8721 -0.8173
  190MOL0     H25590   4.385   2.314   4.777  2.8283  0.2982 -0.1496
  190MOL0     H25591   4.486   2.076   4.595 -0.0276  0.7354 -1.0778
  190MOL0     H25592   4.486   2.240   4.556  0.1580 -0.1530 -0.8367
  190MOL0     H25593   4.709   2.192   4.610  1.2807  0.3701  1.5706
  190MOL0     H25594   4.660   2.293   4.736  1.6280 -0.2991  2.6299
  190MOL0     H25595   4.614   2.076   4.879  0.2529  3.5614 -0.3079
  190MOL0     H25596   4.730   1.992   4.770  2.6173 -0.6552  3.4495
  190MOL0     H25597   4.775   2.254   4.903 -2.2567 -1.6725  0.5536
  190MOL0     H25598   4.905   2.153   4.823 -1.3541 -3.8744 -2.6456
  190MOL0     H25599   4.939   2.028   5.006  2.9338  1.8153  2.6659
  190MOL0     H25600   4.925   2.195   5.070  0.1208 -1.1455  2.1844
  190MOL0     H25601   4.717   2.286   5.187 -3.3153  0.6156  0.7404
  190MOL0     H25602   4.424   2.128   5.374  1.7669 -1.6351 -0.5316
  190MOL0     H25603   4.503   2.282   5.370  2.0694  0.6154 -1.1437
  190MOL0     H25604   4.333   2.140   5.142  0.2661  0.7000 -1.6563
  190MOL0     H25605   4.264   2.265   5.246  0.6318  0.1136  0.1262
  190MOL0     H25606   4.333   2.350   5.016 -1.5055  1.6973  1.0395
  190MOL0     H25607   4.495   2.288   5.047 -0.7173 -2.5168 -0.5981
  190MOL0     H25608   4.497   2.547   5.086 -2.2869 -0.6793 -1.9707
  190MOL0     H25609   4.507   2.454   5.236  0.9238 -0.3959 -0.7319
  190MOL0     H25610   4.481   2.572   5.418  0.7648  2.3043 -1.3036
  190MOL0     H25611   4.395   2.664   5.633 -1.6602  2.1816  0.4253
  190MOL0     H25612   4.198   2.983   5.863 -0.5281 -0.1284  1.4425
  190MOL0     H25613   4.127   3.077   6.089  1.4477  0.4132 -0.1121
  190MOL0     H25614   3.851   2.849   6.298 -0.9030 -0.9917  0.3572
  190MOL0     H25615   3.974   2.772   6.395 -0.2129 -1.2374 -1.7165
  190MOL0     H25616   3.815   2.906   6.557 -0.5154 -0.7528  0.0235
  190MOL0     H25617   3.976   2.990   6.538 -0.5998 -1.1572  1.8486
  190MOL0     H25618   3.877   3.133   6.362  2.3042 -2.6062 -0.7221
  190MOL0     H25619   3.724   3.038   6.373  1.1718  1.8768 -2.7553
  190MOL0     H25620   3.744   3.112   6.633 -0.5800 -0.2397 -0.8534
  190MOL0     H25621   3.670   3.217   6.518 -0.5437 -1.4018  0.1146
  190MOL0     H25622   3.892   3.325   6.489  2.2204 -0.8253  0.9458
  190MOL0     H25623   3.967   3.204   6.589 -1.2725 -1.8442 -3.3532
  190MOL0     H25624   3.836   3.280   6.778  3.5713  0.3164  0.7170
  190MOL0     H25625   3.922   3.414   6.715 -0.6109 -0.2895  0.2028
  190MOL0     H25626   3.625   3.349   6.688 -1.9733  2.2000 -0.7703
  190MOL0     H25627   3.700   3.450   6.570  1.0467  2.3500 -0.3867
  190MOL0     H25628   3.594   3.568   6.761 -1.8354 -3.6775  0.4057
  190MOL0     H25629   3.709   3.488   6.866 -1.3232  2.0798  1.0432
  190MOL0     H25630   4.033   2.672   6.207 -0.4715  2.0164  0.7702
  190MOL0     H25631   4.135   2.588   6.009  2.6005 -0.3325  1.7157
  190MOL0     H25632   4.004   2.701   5.471 -0.4280 -1.4296  1.3020
  190MOL0     H25633   4.088   2.619   5.250  1.0090 -1.2258 -1.4204
  190MOL0     H25634   3.823   2.179   4.593 -1.3294  0.7127 -0.3994
  190MOL0     H25635   3.641   2.341   4.626 -1.1661  1.9786  0.3929
  190MOL0     H25636   3.486   2.682   4.784  1.7299 -1.4496  1.1752
  190MOL0     H25637   3.331   2.882   4.802 -1.7965  2.5789  3.7324
  190MOL0     H25638   3.204   2.919   5.176 -1.4532 -1.0441  0.2101
  190MOL0     H25639   3.039   2.973   5.140 -0.5128  0.6330  0.0091
  190MOL0     H25640   3.138   3.197   5.025 -2.3650  0.9802  1.0216
  190MOL0     H25641   3.292   3.116   5.044  0.0637 -1.9303 -1.1762
  190MOL0     H25642   3.305   3.142   5.285 -0.3745 -0.2171  0.9860
  190MOL0     H25643   3.130   3.159   5.299 -1.6446  2.8849 -0.3047
  190MOL0     H25644   3.151   3.393   5.207 -0.0167  1.7984 -0.2237
  190MOL0     H25645   3.249   3.368   5.350  0.1766 -0.0228 -0.3373
  190MOL0     H25646   3.571   3.407   5.114  1.2354  0.9524  3.7312
  190MOL0     H25647   3.159   2.707   5.164 -1.1780  1.9163 -0.3860
  190MOL0     H25648   3.397   2.480   5.220  0.0321  2.3233  0.5908
  190MOL0     H25649   3.237   2.531   5.259  3.1178  0.8015  1.3251
  190MOL0     H25650   3.255   2.397   5.142  0.9981 -0.1095 -1.2612
  191MOL0     O25651   8.395   0.588   6.162 -0.5072 -0.1876 -0.7475
  191MOL0     C25652   8.455   0.693   6.184 -0.4290 -0.0976 -0.5715
  191MOL0     O25653   8.394   0.810   6.216 -0.7708 -0.7612 -0.7045
  191MOL0     C25654   8.263   0.812   6.241 -0.2342 -0.8219 -0.5283
  191MOL0     C25655   8.208   0.755   6.352 -0.1820  0.4301 -0.6050
  191MOL0     C25656   8.075   0.758   6.377  0.2630  0.0688  1.0538
  191MOL0     C25657   7.984   0.814   6.278  0.4583  0.5971 -0.2413
  191MOL0     O25658   7.848   0.813   6.295 -0.4102  0.5087  1.4022
  191MOL0     C25659   7.782   0.778   6.415  0.3584 -0.0356 -0.3482
  191MOL0     C25660   7.634   0.827   6.430 -0.5867  0.1274  0.3896
  191MOL0     C25661   7.631   0.980   6.421 -0.5056 -0.6509  0.1939
  191MOL0     C25662   7.487   1.021   6.430 -0.2160  0.8482 -0.1441
  191MOL0     C25663   7.475   1.178   6.438  1.2226 -0.4546  0.3856
  191MOL0     C25664   7.337   1.233   6.384 -0.7194 -0.1919 -0.2562
  191MOL0     C25665   7.217   1.202   6.473  0.1321  1.0597 -0.0780
  191MOL0     C25666   7.204   1.270   6.608 -0.7676  0.3314 -0.3582
  191MOL0     N25667   7.082   1.236   6.678 -0.2907  0.3766  0.1385
  191MOL0     C25668   6.957   1.272   6.627  0.0749 -0.5299 -0.7594
  191MOL0     C25669   6.864   1.228   6.722 -0.1783 -0.4042 -0.1028
  191MOL0     C25670   6.712   1.256   6.724 -0.6998  0.1714 -0.4815
  191MOL0     C25671   6.669   1.401   6.703 -0.0843  0.0740  0.6317
  191MOL0     C25672   6.514   1.406   6.669 -0.0701 -0.6418 -0.1177
  191MOL0     C25673   6.431   1.322   6.763  1.0852 -0.5568 -0.4882
  191MOL0     O25674   6.286   1.348   6.758 -0.7010 -0.7303  0.3227
  191MOL0     C25675   6.218   1.321   6.642  0.5482  0.4027 -0.0582
  191MOL0     C25676   6.262   1.229   6.547  0.2502 -0.8547  0.3401
  191MOL0     C25677   6.205   1.223   6.417  0.2311 -0.4728  0.7273
  191MOL0     C25678   6.085   1.287   6.383  0.1097 -0.3102 -0.2129
  191MOL0     C25679   6.028   1.300   6.246 -0.0114 -0.1756 -0.9463
  191MOL0     O25680   6.066   1.205   6.154 -0.1371  0.5829  0.0027
  191MOL0     C25681   6.005   1.225   6.037 -0.8996  0.4432 -0.1037
  191MOL0     C25682   6.087   1.260   5.932 -0.8765  0.6681  0.6318
  191MOL0     C25683   6.028   1.296   5.811  0.6079 -0.3161  0.0687
  191MOL0     C25684   5.879   1.294   5.791  0.4766  0.4156  0.3316
  191MOL0     O25685   5.823   1.316   5.666 -0.1329  0.8548 -0.5753
  191MOL0     C25686   5.732   1.211   5.608  0.3756  0.2613  1.2490
  191MOL0     C25687   5.697   1.258   5.463 -0.8378 -0.0482 -1.5128
  191MOL0     C25688   5.795   1.241   5.351  0.3603  0.1051  1.1599
  191MOL0     C25689   5.887   1.118   5.362 -0.0665  0.4059 -0.0974
  191MOL0     C25690   5.993   1.107   5.255  0.0950 -0.2269  0.3664
  191MOL0     C25691   6.067   1.238   5.245  0.2722  0.2492  0.2666
  191MOL0     C25692   6.193   1.206   5.166 -0.5378 -0.3210 -1.2713
  191MOL0     C25693   6.304   1.305   5.190 -0.1381 -0.5152  0.3411
  191MOL0    Cl25694   6.370   1.307   5.362  0.1544  0.3501 -0.1302
  191MOL0     C25695   5.799   1.257   5.900 -0.4845  0.7824  0.5462
  191MOL0     C25696   5.868   1.225   6.020 -0.1193  0.0755  0.8814
  191MOL0     O25697   5.948   1.393   6.225  0.3285 -0.6309 -0.3135
  191MOL0     C25698   6.032   1.365   6.488 -0.4235 -0.1737 -0.1053
  191MOL0     C25699   6.089   1.381   6.611  0.1485 -0.0049  1.0916
  191MOL0     N25700   6.939   1.152   6.810  1.0640  0.6070  0.5633
  191MOL0     N25701   7.065   1.157   6.793  0.6069  0.8022  1.1232
  191MOL0     C25702   8.035   0.867   6.162 -0.1949 -0.9727 -1.1218
  191MOL0     C25703   8.175   0.865   6.150 -0.3495  0.4151 -0.1739
  191MOL0     C25704   8.598   0.706   6.141  0.3722 -0.8598  0.3724
  191MOL0     C25705   8.664   0.829   6.179 -0.5689  0.3945 -0.2029
  191MOL0     C25706   8.793   0.857   6.142  0.2853 -0.0049 -0.5256
  191MOL0     C25707   8.859   0.772   6.057  0.7561 -0.4151  0.2191
  191MOL0     O25708   8.991   0.787   6.009  0.1829  0.3172 -0.6179
  191MOL0     C25709   9.057   0.908   6.027 -0.2233 -0.1984 -0.8721
  191MOL0     C25710   9.070   0.983   5.888 -0.5022  0.2206 -0.6293
  191MOL0     C25711   9.129   1.123   5.910  0.6906  0.6014  0.7005
  191MOL0     C25712   9.025   1.244   5.907  0.8261 -1.0043 -0.8327
  191MOL0     C25713   8.915   1.239   6.004  0.7602 -0.2080  0.3409
  191MOL0     C25714   8.819   1.240   6.081  0.1514 -0.8931  0.6958
  191MOL0     C25715   8.799   0.647   6.021  0.8487  1.1329 -0.2959
  191MOL0     C25716   8.668   0.618   6.059  0.4605  0.4658  0.1322
  191MOL0     C25717   8.602   0.485   6.004 -0.1442 -0.3675  0.7783
  191MOL0     H25718   8.282   0.709   6.417 -1.2972 -1.9557 -0.9004
  191MOL0     H25719   8.035   0.709   6.465 -1.7440  2.3485  1.5183
  191MOL0     H25720   7.796   0.669   6.422  0.9086  0.1533  4.0003
  191MOL0     H25721   7.838   0.829   6.494 -2.0626  1.1956  0.6791
  191MOL0     H25722   7.608   0.794   6.531 -1.8352 -0.8645 -0.2206
  191MOL0     H25723   7.565   0.776   6.361 -0.6139 -1.3272  1.4478
  191MOL0     H25724   7.668   1.016   6.325  0.3824 -0.9611  0.4110
  191MOL0     H25725   7.687   1.035   6.498 -3.1208  0.6244  1.3164
  191MOL0     H25726   7.430   0.986   6.344 -1.0632  3.7717 -0.8856
  191MOL0     H25727   7.438   0.969   6.513 -0.5856 -2.0435 -2.0429
  191MOL0     H25728   7.490   1.214   6.540 -2.3383  0.8226  0.5874
  191MOL0     H25729   7.555   1.223   6.379 -1.5829  1.1196 -2.5517
  191MOL0     H25730   7.344   1.342   6.393  0.7127 -0.3125  0.3973
  191MOL0     H25731   7.323   1.214   6.278  1.2583 -0.1839 -0.5548
  191MOL0     H25732   7.208   1.098   6.507 -2.1954  0.3184 -2.5861
  191MOL0     H25733   7.130   1.231   6.414  0.4319  1.4909 -0.3139
  191MOL0     H25734   7.284   1.226   6.666  0.3813  1.1864 -1.2414
  191MOL0     H25735   7.213   1.378   6.591  1.0571  0.1458 -0.7124
  191MOL0     H25736   6.921   1.338   6.549 -2.4516  1.0745  1.5878
  191MOL0     H25737   6.679   1.194   6.641  2.6741 -1.4139 -0.7986
  191MOL0     H25738   6.676   1.214   6.819 -0.7564 -0.7133 -0.8860
  191MOL0     H25739   6.679   1.459   6.795  1.5838 -1.4219  1.4724
  191MOL0     H25740   6.724   1.438   6.617 -2.8119  0.5110 -1.0467
  191MOL0     H25741   6.490   1.378   6.566 -3.1118 -0.5752  0.4626
  191MOL0     H25742   6.470   1.504   6.689  0.0141 -0.7508  0.6326
  191MOL0     H25743   6.460   1.324   6.868 -1.9832  0.2412  0.4315
  191MOL0     H25744   6.462   1.219   6.748  0.8342 -1.3193  3.3980
  191MOL0     H25745   6.359   1.185   6.568  0.5422 -0.5790 -0.4029
  191MOL0     H25746   6.263   1.177   6.338  3.8422  0.5450  2.5519
  191MOL0     H25747   6.196   1.262   5.937 -0.6417 -2.0510 -1.1393
  191MOL0     H25748   6.082   1.318   5.719 -0.2556 -2.5238 -1.0450
  191MOL0     H25749   5.777   1.111   5.614  1.0858  0.5822  1.3984
  191MOL0     H25750   5.635   1.191   5.654 -1.1100  0.9234 -1.4111
  191MOL0     H25751   5.610   1.199   5.431 -1.5164  1.1638 -1.9528
  191MOL0     H25752   5.668   1.362   5.474  1.7542  0.4544  2.4673
  191MOL0     H25753   5.737   1.228   5.259  0.1652  0.0961  1.2815
  191MOL0     H25754   5.848   1.335   5.337  0.3591  0.0992  1.1161
  191MOL0     H25755   5.823   1.029   5.354 -0.0469  0.5116 -1.6869
  191MOL0     H25756   5.948   1.120   5.454  2.6705 -1.2563 -1.7107
  191MOL0     H25757   5.938   1.088   5.162 -1.2473  0.8419  0.9144
  191MOL0     H25758   6.063   1.023   5.267  0.1452 -0.2137  0.1723
  191MOL0     H25759   6.014   1.326   5.208 -2.7172 -1.2685  0.6149
  191MOL0     H25760   6.096   1.269   5.347  1.5393  2.3594 -0.6576
  191MOL0     H25761   6.166   1.204   5.060  0.1188  3.3903 -1.6291
  191MOL0     H25762   6.233   1.111   5.204 -1.8471 -0.5274 -0.3211
  191MOL0     H25763   6.382   1.289   5.115 -2.6830  2.7455 -3.4146
  191MOL0     H25764   6.266   1.404   5.163 -0.0507  0.0367  2.0774
  191MOL0     H25765   5.691   1.247   5.892 -0.6173 -0.8265  3.1971
  191MOL0     H25766   5.818   1.202   6.114  2.7732 -3.8191  1.7328
  191MOL0     H25767   5.938   1.418   6.475 -0.4041  0.6081  2.4004
  191MOL0     H25768   6.037   1.420   6.698 -1.1376 -2.3182  1.4447
  191MOL0     H25769   7.968   0.906   6.086  0.9178 -0.0720 -1.6658
  191MOL0     H25770   8.223   0.896   6.057  1.1494 -0.0594  0.4183
  191MOL0     H25771   8.606   0.910   6.222 -2.7440 -1.2492  0.1301
  191MOL0     H25772   8.839   0.945   6.185  2.6630 -2.0423  1.3743
  191MOL0     H25773   9.162   0.903   6.054  0.4347  4.6335 -1.7067
  191MOL0     H25774   9.005   0.977   6.094  0.5111 -0.0126 -0.4846
  191MOL0     H25775   8.969   0.983   5.845 -0.1182 -0.4644 -1.5485
  191MOL0     H25776   9.129   0.927   5.815 -0.9473 -2.7383  1.1329
  191MOL0     H25777   9.187   1.144   5.820 -2.1551  1.5171 -1.0796
  191MOL0     H25778   9.197   1.131   5.996  1.7165 -3.2628  0.4378
  191MOL0     H25779   9.087   1.333   5.912  1.8128 -1.5334  6.0009
  191MOL0     H25780   8.977   1.235   5.809  0.6302  0.3806 -0.8845
  191MOL0     H25781   8.734   1.232   6.145 -1.7554 -1.5149 -1.7383
  191MOL0     H25782   8.854   0.579   5.957  1.2750  0.2977  0.9316
  191MOL0     H25783   8.659   0.447   5.918 -0.4686  0.6057  0.1218
  191MOL0     H25784   8.602   0.399   6.072 -3.8168  0.5131  2.1200
  191MOL0     H25785   8.501   0.505   5.969 -0.7881  0.2760  2.8812
  192MOL0     O25786  10.013   4.630   2.554  0.4141 -0.4350 -0.3837
  192MOL0     C25787   9.959   4.618   2.446 -1.1504  0.0863 -0.1351
  192MOL0     O25788   9.912   4.721   2.365 -0.6839 -0.8021  0.5205
  192MOL0     C25789   9.896   4.836   2.435  0.5432  0.0378  0.2620
  192MOL0     C25790   9.951   4.952   2.384  0.1606  0.0475 -0.8912
  192MOL0     C25791   9.934   5.080   2.441 -0.1120  0.4730  0.0615
  192MOL0     C25792   9.836   5.089   2.541  0.1987 -0.4691 -0.0730
  192MOL0     O25793   9.792   5.204   2.601  0.1604 -0.5723 -0.0516
  192MOL0     C25794   9.821   5.337   2.552 -0.3738 -0.2277  0.3926
  192MOL0     C25795   9.745   5.368   2.419  0.0846  0.9277 -0.0007
  192MOL0     C25796   9.595   5.376   2.432  0.6918  0.1334 -0.2767
  192MOL0     C25797   9.506   5.400   2.305 -0.9122  0.2596 -1.2310
  192MOL0     C25798   9.535   5.537   2.244 -0.2682 -0.3236  0.2925
  192MOL0     C25799   9.474   5.554   2.100  0.0982  0.3629 -0.5596
  192MOL0     C25800   9.489   5.699   2.045 -0.3763 -1.0050  0.1690
  192MOL0     C25801   9.487   5.701   1.889  0.4043 -0.9705 -0.6446
  192MOL0     N25802   9.488   5.835   1.842 -0.3205  0.9605 -0.1763
  192MOL0     C25803   9.371   5.907   1.837 -0.0182  0.2517 -0.0210
  192MOL0     C25804   9.384   5.977   1.722 -0.1117 -0.1622 -0.0294
  192MOL0     C25805   9.289   6.065   1.643 -0.8617 -0.1829 -0.0409
  192MOL0     C25806   9.184   6.136   1.727  0.1406 -0.5162 -0.4820
  192MOL0     C25807   9.243   6.234   1.823  0.3689 -0.2463 -0.1310
  192MOL0     C25808   9.133   6.314   1.901 -0.6334  0.1194  0.2103
  192MOL0     O25809   9.024   6.234   1.943  0.7604  1.0011  0.8186
  192MOL0     C25810   9.034   6.116   2.012  0.5775  0.2505  0.6274
  192MOL0     C25811   9.142   6.094   2.099  1.1438 -0.0012  0.0853
  192MOL0     C25812   9.137   5.986   2.188  0.0727  0.1965  0.1497
  192MOL0     C25813   9.041   5.880   2.159  0.3422 -0.8150  0.8338
  192MOL0     C25814   9.050   5.756   2.245 -0.0826 -0.4135 -0.1760
  192MOL0     O25815   9.153   5.755   2.344  0.0247  0.5527 -0.1289
  192MOL0     C25816   9.178   5.648   2.427 -0.5813 -0.2056 -0.2964
  192MOL0     C25817   9.123   5.516   2.421 -0.2556  0.3119 -0.6107
  192MOL0     C25818   9.168   5.431   2.520 -0.3263 -0.0994 -0.4069
  192MOL0     C25819   9.269   5.470   2.618 -0.0001  0.3281 -0.7881
  192MOL0     O25820   9.315   5.383   2.711 -0.0477  0.2289 -0.5651
  192MOL0     C25821   9.330   5.247   2.670 -0.0310 -0.5751 -0.8123
  192MOL0     C25822   9.451   5.191   2.755 -0.4111  0.0038 -0.7666
  192MOL0     C25823   9.418   5.044   2.794  0.7844  0.1093 -0.8246
  192MOL0     C25824   9.498   4.993   2.925  0.5533  0.1933 -0.7140
  192MOL0     C25825   9.485   4.843   2.938  0.4643  0.3649 -0.5334
  192MOL0     C25826   9.582   4.765   2.848  0.3462 -0.6101 -0.5080
  192MOL0     C25827   9.556   4.611   2.866 -0.8761 -0.1177  0.2339
  192MOL0     C25828   9.566   4.543   2.735 -0.1283  0.7612  0.4548
  192MOL0    Cl25829   9.582   4.364   2.783 -0.2376 -0.0115 -0.4044
  192MOL0     C25830   9.309   5.599   2.623 -0.8249  0.6477  0.1421
  192MOL0     C25831   9.277   5.688   2.522  0.4121  0.4759  0.5244
  192MOL0     O25832   8.968   5.665   2.230  0.3270  0.0167 -0.3717
  192MOL0     C25833   8.949   5.893   2.058  0.2093  0.1251  0.1844
  192MOL0     C25834   8.934   6.013   1.990 -0.3475  0.5136 -1.4398
  192MOL0     N25835   9.513   5.958   1.666  0.5098 -0.6350 -0.5584
  192MOL0     N25836   9.569   5.863   1.737 -0.7016 -0.5830  0.2122
  192MOL0     C25837   9.761   4.974   2.578  0.3263  0.6668 -0.2569
  192MOL0     C25838   9.798   4.844   2.529 -0.6402 -0.6664 -0.7779
  192MOL0     C25839   9.957   4.492   2.368  0.4577 -0.4324 -0.3643
  192MOL0     C25840   9.989   4.494   2.227 -0.0731  0.5405  0.5016
  192MOL0     C25841   9.968   4.381   2.152  0.3317  1.0372 -0.1035
  192MOL0     C25842   9.924   4.258   2.205 -0.7668 -0.2858 -0.1169
  192MOL0     O25843   9.916   4.148   2.119  0.0644  0.2636  0.2831
  192MOL0     C25844   9.782   4.128   2.067  0.0081  0.5114  0.7821
  192MOL0     C25845   9.776   4.106   1.914 -0.1605 -0.3087 -0.5290
  192MOL0     C25846   9.825   3.964   1.875 -0.5104 -0.3485  0.8061
  192MOL0     C25847   9.801   3.940   1.725  0.6835 -0.5546  0.3418
  192MOL0     C25848   9.869   3.823   1.672  0.1899 -0.1222  0.1091
  192MOL0     C25849   9.933   3.732   1.622 -0.0609  0.2126 -0.2720
  192MOL0     C25850   9.908   4.250   2.340  0.5539  0.3461  0.1991
  192MOL0     C25851   9.934   4.361   2.423  0.3134  0.7433  0.9164
  192MOL0     C25852   9.919   4.337   2.572 -0.6067 -0.2711 -0.5289
  192MOL0     H25853  10.040   4.942   2.322  3.2223  2.4983  2.6422
  192MOL0     H25854   9.992   5.162   2.402 -1.4117  1.3928 -0.0063
  192MOL0     H25855   9.787   5.412   2.623 -3.4191 -2.3474  1.3888
  192MOL0     H25856   9.928   5.352   2.534 -0.0235 -1.2448  1.4941
  192MOL0     H25857   9.780   5.294   2.346 -0.1009 -1.6972  2.3770
  192MOL0     H25858   9.787   5.464   2.391  2.1738  0.0566 -0.0546
  192MOL0     H25859   9.564   5.451   2.505  3.5557  0.1913  1.0028
  192MOL0     H25860   9.573   5.277   2.472  0.0483 -0.1862 -1.3560
  192MOL0     H25861   9.521   5.316   2.238  4.4664 -1.6440  1.7682
  192MOL0     H25862   9.399   5.405   2.328 -0.0407  1.9399  3.6710
  192MOL0     H25863   9.489   5.612   2.310  0.7679  1.9705 -1.4314
  192MOL0     H25864   9.639   5.570   2.236 -0.4711 -0.1533 -2.6616
  192MOL0     H25865   9.533   5.490   2.034  0.1815  0.5501 -0.6672
  192MOL0     H25866   9.369   5.524   2.096 -0.1119  0.4667  2.1775
  192MOL0     H25867   9.583   5.749   2.072 -0.3487 -1.9593  1.9898
  192MOL0     H25868   9.405   5.757   2.083  2.1976  4.8983 -1.9294
  192MOL0     H25869   9.576   5.646   1.858 -0.4058 -2.1558 -0.9419
  192MOL0     H25870   9.402   5.650   1.844  0.5341 -2.0290  0.2667
  192MOL0     H25871   9.278   5.895   1.890  0.4537 -2.8092  0.3016
  192MOL0     H25872   9.346   6.144   1.593  0.2081 -1.3018 -0.6458
  192MOL0     H25873   9.245   6.010   1.559 -3.3315  1.9466 -0.2757
  192MOL0     H25874   9.113   6.190   1.663  0.2916  1.7893  1.1856
  192MOL0     H25875   9.131   6.055   1.779  1.0697 -0.4806  0.5479
  192MOL0     H25876   9.296   6.308   1.762  0.1427 -0.7412 -0.9390
  192MOL0     H25877   9.312   6.179   1.889  0.3570  0.9090  0.8714
  192MOL0     H25878   9.093   6.387   1.830 -2.3050 -2.0438 -1.1781
  192MOL0     H25879   9.177   6.363   1.989 -0.4020  1.5515 -0.6797
  192MOL0     H25880   9.223   6.166   2.099 -0.2857  1.9444  4.1097
  192MOL0     H25881   9.214   5.967   2.261  0.1904 -0.3931 -0.1190
  192MOL0     H25882   9.056   5.474   2.347 -1.0247  0.5632 -0.0579
  192MOL0     H25883   9.133   5.328   2.522  0.5232 -0.3999 -0.2232
  192MOL0     H25884   9.233   5.200   2.691 -1.6336  2.2554 -1.4843
  192MOL0     H25885   9.362   5.242   2.566  3.0562  3.7102 -0.3256
  192MOL0     H25886   9.547   5.219   2.711 -0.2344  2.2124  0.8554
  192MOL0     H25887   9.459   5.249   2.847  2.2263 -0.8760 -0.3512
  192MOL0     H25888   9.316   5.034   2.832  0.5397  1.0749 -1.2099
  192MOL0     H25889   9.426   4.983   2.703  1.5724  0.8904 -1.3016
  192MOL0     H25890   9.458   5.039   3.016  0.1838 -0.7230 -0.4082
  192MOL0     H25891   9.603   5.024   2.924  0.7517 -0.3815  0.4347
  192MOL0     H25892   9.381   4.814   2.921  1.2384 -2.7353 -0.5970
  192MOL0     H25893   9.521   4.819   3.039  2.2343 -2.3928 -1.6964
  192MOL0     H25894   9.552   4.800   2.749 -1.7144  1.8497  0.8310
  192MOL0     H25895   9.684   4.798   2.870 -0.9401  2.8101  1.0236
  192MOL0     H25896   9.454   4.589   2.900 -0.3999 -2.6204  0.2289
  192MOL0     H25897   9.626   4.566   2.936 -1.4418 -1.5126 -0.0588
  192MOL0     H25898   9.482   4.557   2.666 -2.2780 -0.3424  2.7023
  192MOL0     H25899   9.660   4.570   2.686  1.2488 -0.6464  2.1670
  192MOL0     H25900   9.374   5.615   2.708 -0.3830  0.4751 -0.1540
  192MOL0     H25901   9.308   5.792   2.524 -0.8176  0.9209 -1.2711
  192MOL0     H25902   8.882   5.810   2.037 -0.7686  1.0083 -0.2448
  192MOL0     H25903   8.847   6.020   1.925 -2.2266 -3.6313  0.2398
  192MOL0     H25904   9.686   4.986   2.656 -0.2325  2.6608 -1.0118
  192MOL0     H25905   9.768   4.749   2.573  3.6342 -1.3568  1.1430
  192MOL0     H25906  10.020   4.574   2.161 -1.6709  1.9810  1.4179
  192MOL0     H25907   9.993   4.377   2.046 -4.4658 -1.2525 -1.4421
  192MOL0     H25908   9.724   4.215   2.100 -0.5405  0.9588 -1.2257
  192MOL0     H25909   9.744   4.040   2.119  0.2211 -0.5498 -0.7953
  192MOL0     H25910   9.834   4.189   1.872  2.7571 -2.7771 -1.7868
  192MOL0     H25911   9.675   4.114   1.872  0.6280  0.0226 -2.4685
  192MOL0     H25912   9.777   3.890   1.939  0.0518  0.1986  1.8981
  192MOL0     H25913   9.931   3.959   1.904 -0.3222 -0.0506  0.1813
  192MOL0     H25914   9.694   3.935   1.701  0.4028  2.5457  0.4677
  192MOL0     H25915   9.830   4.026   1.664 -1.6523 -0.8959 -1.3529
  192MOL0     H25916   9.982   3.655   1.566  1.0367 -0.8563  2.0461
  192MOL0     H25917   9.891   4.153   2.385  1.6279 -0.3699 -0.8474
  192MOL0     H25918  10.000   4.392   2.621  0.6510 -0.0523 -2.7063
  192MOL0     H25919   9.820   4.368   2.606 -1.5095 -3.3465 -0.0730
  192MOL0     H25920   9.934   4.234   2.606 -4.4228 -0.2000  2.0310
  193MOL0     O25921   5.271   9.067   3.496  1.1250 -0.7945 -0.3633
  193MOL0     C25922   5.185   9.029   3.582 -0.4328 -0.3956  0.6321
  193MOL0     O25923   5.206   8.946   3.684 -0.2484 -0.0274  0.7497
  193MOL0     C25924   5.332   8.899   3.696  0.2920  0.5179 -0.7727
  193MOL0     C25925   5.427   8.953   3.792  1.2204  1.0061 -0.4471
  193MOL0     C25926   5.550   8.889   3.800 -0.8684 -0.0705 -0.4450
  193MOL0     C25927   5.585   8.785   3.726 -0.0776  0.6307  0.1297
  193MOL0     O25928   5.713   8.726   3.750 -0.4537 -0.5490  0.7636
  193MOL0     C25929   5.819   8.809   3.696  0.0318  0.1787  0.7465
  193MOL0     C25930   5.863   8.761   3.559 -1.1140  0.5833  0.5533
  193MOL0     C25931   6.018   8.781   3.530 -0.4238  0.0034  0.8107
  193MOL0     C25932   6.067   8.753   3.383  0.2180  0.4692  0.4514
  193MOL0     C25933   6.169   8.840   3.324 -0.1717  0.1478 -0.3720
  193MOL0     C25934   6.303   8.843   3.405 -0.2664 -0.1169 -0.8354
  193MOL0     C25935   6.406   8.929   3.341  0.5033 -0.5953 -0.4711
  193MOL0     C25936   6.505   8.869   3.221 -0.6047 -1.0599  0.4519
  193MOL0     N25937   6.426   8.831   3.103  0.1842 -0.4224  0.4486
  193MOL0     C25938   6.380   8.705   3.072  0.0036 -1.0878 -0.2829
  193MOL0     C25939   6.376   8.703   2.938 -0.1495 -0.5470 -0.2677
  193MOL0     C25940   6.354   8.580   2.857 -0.3025  0.4761  0.5823
  193MOL0     C25941   6.419   8.460   2.924 -0.1354  0.1572 -0.2373
  193MOL0     C25942   6.567   8.473   2.954 -0.2822  1.0453  0.3203
  193MOL0     C25943   6.626   8.339   3.017  0.2917 -0.0361  1.4414
  193MOL0     O25944   6.555   8.285   3.134  0.2754 -0.0162 -0.5935
  193MOL0     C25945   6.568   8.350   3.255 -0.9872 -0.1714 -0.0336
  193MOL0     C25946   6.465   8.374   3.341 -0.3597 -0.2865 -0.3526
  193MOL0     C25947   6.489   8.460   3.455  0.4125  0.4708  0.0270
  193MOL0     C25948   6.612   8.520   3.486 -0.2401  0.2147  0.0764
  193MOL0     C25949   6.631   8.609   3.603 -0.8110  0.0436 -0.1136
  193MOL0     O25950   6.525   8.689   3.627  0.1909 -0.5568  0.1794
  193MOL0     C25951   6.526   8.773   3.737  0.7125 -0.1622  0.0764
  193MOL0     C25952   6.600   8.897   3.746  0.0551  0.4218 -0.6767
  193MOL0     C25953   6.598   8.976   3.857  0.8307 -0.2795 -1.0833
  193MOL0     C25954   6.523   8.940   3.964 -0.2628 -0.0212 -0.1040
  193MOL0     O25955   6.525   9.031   4.064  0.3800  0.6677  0.3441
  193MOL0     C25956   6.388   9.071   4.098 -0.5978  0.2487 -0.0027
  193MOL0     C25957   6.397   9.180   4.201  0.5093 -1.2198  0.8490
  193MOL0     C25958   6.406   9.319   4.139  0.3732 -0.1139  0.4597
  193MOL0     C25959   6.424   9.432   4.241 -0.0203  0.3332 -0.2322
  193MOL0     C25960   6.425   9.575   4.179 -0.4105  0.8659  0.0740
  193MOL0     C25961   6.407   9.681   4.289 -1.1104  0.2037  0.1276
  193MOL0     C25962   6.269   9.707   4.337 -0.1079 -0.1339 -0.0948
  193MOL0     C25963   6.270   9.800   4.455 -0.0367 -0.1736 -1.1824
  193MOL0    Cl25964   6.110   9.856   4.518  0.2702  0.0494  0.1904
  193MOL0     C25965   6.456   8.814   3.964  0.8189 -0.3600  0.2231
  193MOL0     C25966   6.450   8.736   3.845 -1.2003  0.0621  0.1961
  193MOL0     O25967   6.736   8.607   3.663  0.6441 -0.9492 -0.0796
  193MOL0     C25968   6.718   8.483   3.402  0.9046 -1.1073 -0.1823
  193MOL0     C25969   6.691   8.403   3.296  0.1720  0.0048 -0.1676
  193MOL0     N25970   6.397   8.830   2.891  0.0437  0.2478 -0.5822
  193MOL0     N25971   6.439   8.906   2.988  0.0090 -0.0636  0.2848
  193MOL0     C25972   5.500   8.729   3.638  0.3957  0.3202 -0.2962
  193MOL0     C25973   5.367   8.780   3.630  0.3574 -0.3710  0.9737
  193MOL0     C25974   5.047   9.064   3.535  0.6031 -0.2723 -1.0716
  193MOL0     C25975   4.949   8.968   3.554 -0.6568 -0.3115 -0.5542
  193MOL0     C25976   4.823   8.983   3.513  0.0384  1.1804 -0.6842
  193MOL0     C25977   4.781   9.091   3.444  0.5772 -0.6619 -0.0678
  193MOL0     O25978   4.654   9.090   3.399 -0.8219 -0.3467 -0.0313
  193MOL0     C25979   4.595   9.217   3.385  0.0536  0.1914 -0.3041
  193MOL0     C25980   4.462   9.202   3.465  0.8580  0.7528  0.2030
  193MOL0     C25981   4.369   9.318   3.435  0.0266 -0.3378  0.5913
  193MOL0     C25982   4.407   9.454   3.505  0.7341  0.0605 -1.0501
  193MOL0     C25983   4.306   9.553   3.477 -0.2452 -0.3628  0.1383
  193MOL0     C25984   4.216   9.626   3.445 -0.2245 -0.1648  0.6408
  193MOL0     C25985   4.877   9.191   3.424  0.2390  0.7221 -0.5888
  193MOL0     C25986   5.008   9.186   3.480 -0.5509  0.1088  0.2827
  193MOL0     C25987   5.091   9.313   3.470 -0.0986  0.4697  0.2829
  193MOL0     H25988   5.421   9.039   3.858 -0.9844  0.4681  0.1464
  193MOL0     H25989   5.620   8.910   3.880  0.5228 -1.1194 -1.3307
  193MOL0     H25990   5.784   8.912   3.689 -2.1354 -0.4838  0.9185
  193MOL0     H25991   5.905   8.797   3.764  1.1352 -0.9573 -0.7702
  193MOL0     H25992   5.811   8.819   3.483 -0.1007  0.1232 -0.5261
  193MOL0     H25993   5.856   8.652   3.550  0.7854  0.4964 -0.2983
  193MOL0     H25994   6.077   8.726   3.604  0.0508 -2.0296 -0.9960
  193MOL0     H25995   6.036   8.888   3.546 -1.8809  0.2179  1.1600
  193MOL0     H25996   6.099   8.648   3.378 -2.6410 -0.4595 -0.7412
  193MOL0     H25997   5.976   8.753   3.322  1.2129  0.6948 -1.0898
  193MOL0     H25998   6.190   8.812   3.220  2.7247  0.5343  0.0135
  193MOL0     H25999   6.126   8.940   3.328  1.3459  0.7948  2.3700
  193MOL0     H26000   6.285   8.893   3.501 -1.8853  1.4694 -1.9187
  193MOL0     H26001   6.343   8.743   3.425 -1.9370 -0.2066  3.0081
  193MOL0     H26002   6.475   8.961   3.419  0.2361  1.6042 -1.0716
  193MOL0     H26003   6.352   9.012   3.295 -0.4811  0.4716  2.4267
  193MOL0     H26004   6.579   8.940   3.186  1.3421 -2.9772  0.4947
  193MOL0     H26005   6.569   8.784   3.247  1.8635  0.9636  1.3361
  193MOL0     H26006   6.371   8.614   3.130 -0.0076 -2.5949 -2.5603
  193MOL0     H26007   6.246   8.561   2.852 -0.3141  0.7491 -0.4047
  193MOL0     H26008   6.391   8.591   2.755  0.4536  2.3560  1.0264
  193MOL0     H26009   6.363   8.437   3.015 -1.0343  0.3806 -0.7322
  193MOL0     H26010   6.415   8.381   2.848 -0.4693  0.4443 -0.5226
  193MOL0     H26011   6.588   8.543   3.035  3.3768  0.6216 -0.0966
  193MOL0     H26012   6.623   8.503   2.865  3.2964 -1.5780  1.4288
  193MOL0     H26013   6.734   8.338   3.031  0.9381 -2.5444 -2.3819
  193MOL0     H26014   6.611   8.265   2.937  0.4278 -0.5281  1.8698
  193MOL0     H26015   6.367   8.334   3.316 -0.0026 -1.5042  0.1681
  193MOL0     H26016   6.410   8.484   3.526 -0.0367  1.1940 -0.6990
  193MOL0     H26017   6.678   8.915   3.672  0.9919  2.6674  0.7804
  193MOL0     H26018   6.663   9.062   3.873 -0.1096  0.3776 -0.7200
  193MOL0     H26019   6.322   9.103   4.017 -1.7424 -1.5034  0.1923
  193MOL0     H26020   6.347   8.985   4.151  2.0574 -2.3243 -1.7978
  193MOL0     H26021   6.311   9.169   4.268 -3.5140  1.2030 -3.3135
  193MOL0     H26022   6.492   9.164   4.252  2.0001 -2.0106 -1.9921
  193MOL0     H26023   6.489   9.314   4.067  1.1412  1.6337  1.1659
  193MOL0     H26024   6.316   9.340   4.081 -0.9751 -0.0045  2.5329
  193MOL0     H26025   6.523   9.419   4.286 -0.2647  0.2310  0.2818
  193MOL0     H26026   6.343   9.435   4.314 -0.7265  0.9223 -1.0224
  193MOL0     H26027   6.359   9.586   4.092  1.9043 -0.5579 -1.9926
  193MOL0     H26028   6.523   9.587   4.133 -0.4169 -0.3666 -0.3016
  193MOL0     H26029   6.464   9.645   4.375  1.3536 -0.5178 -1.6821
  193MOL0     H26030   6.443   9.772   4.242  1.1530 -0.8167 -0.2544
  193MOL0     H26031   6.221   9.612   4.364  0.6369 -0.8375 -1.1249
  193MOL0     H26032   6.209   9.752   4.258 -1.4748 -0.4497  0.7343
  193MOL0     H26033   6.330   9.765   4.540 -1.3024  1.2301  0.3679
  193MOL0     H26034   6.325   9.889   4.425 -1.7642  0.6240 -2.0856
  193MOL0     H26035   6.416   8.773   4.056  0.6073  0.4145  0.4847
  193MOL0     H26036   6.395   8.643   3.846 -0.2198 -0.5982 -1.9730
  193MOL0     H26037   6.816   8.527   3.419 -0.0093  2.4154 -2.8557
  193MOL0     H26038   6.777   8.378   3.235  1.0441 -0.6263  1.2635
  193MOL0     H26039   5.530   8.638   3.587  0.8832  0.8293 -0.9353
  193MOL0     H26040   5.288   8.719   3.586 -0.2189  2.9484 -3.2245
  193MOL0     H26041   4.973   8.869   3.592  3.6880  0.9475  0.5499
  193MOL0     H26042   4.750   8.910   3.546  0.6013  0.1754 -1.5906
  193MOL0     H26043   4.565   9.236   3.282  0.3286  2.6126  0.0176
  193MOL0     H26044   4.658   9.300   3.419  1.5069 -1.8781  2.4916
  193MOL0     H26045   4.489   9.197   3.571  2.4809  1.3309 -0.1427
  193MOL0     H26046   4.404   9.111   3.449 -0.2893  1.4205  0.5077
  193MOL0     H26047   4.273   9.294   3.480 -0.7677  0.7628 -0.4588
  193MOL0     H26048   4.355   9.337   3.328  1.3471  0.9247  0.5996
  193MOL0     H26049   4.409   9.433   3.613  1.2462  1.4483 -0.7698
  193MOL0     H26050   4.511   9.476   3.479  3.0522 -3.0464  3.8799
  193MOL0     H26051   4.146   9.699   3.409 -0.5466 -0.1718  1.2493
  193MOL0     H26052   4.854   9.267   3.349 -1.3390 -0.5224 -1.4369
  193MOL0     H26053   5.033   9.385   3.529 -1.9535 -0.7723  0.0681
  193MOL0     H26054   5.186   9.294   3.520 -1.0317 -0.2607  1.8688
  193MOL0     H26055   5.094   9.338   3.364  0.7421  4.1109  1.0255
  194MOL0     O26056   1.718   3.218   9.451  0.1271 -0.3746 -0.2298
  194MOL0     C26057   1.827   3.205   9.396 -0.4668 -1.2357 -0.5560
  194MOL0     O26058   1.863   3.102   9.315 -0.3964 -0.3075 -0.2550
  194MOL0     C26059   1.784   2.990   9.328  0.3959  0.2080 -0.5893
  194MOL0     C26060   1.810   2.884   9.421 -0.1422 -0.1522 -0.5153
  194MOL0     C26061   1.714   2.784   9.442 -0.5113 -0.0139 -0.8311
  194MOL0     C26062   1.595   2.781   9.366  0.1050 -0.3701  0.4243
  194MOL0     O26063   1.502   2.681   9.381  0.0378 -0.3072  0.6191
  194MOL0     C26064   1.511   2.577   9.274  0.4803 -0.3458  0.3014
  194MOL0     C26065   1.413   2.465   9.299  0.3256 -0.3046 -0.0721
  194MOL0     C26066   1.442   2.390   9.429 -0.8929  0.5394  0.4494
  194MOL0     C26067   1.323   2.315   9.496 -0.4659  1.3214  0.0563
  194MOL0     C26068   1.270   2.402   9.609 -0.7222  0.1012 -1.0756
  194MOL0     C26069   1.163   2.320   9.675 -0.6069 -0.0647  0.3390
  194MOL0     C26070   1.061   2.388   9.758  0.3097 -0.5500 -0.7178
  194MOL0     C26071   0.955   2.283   9.798  0.1156  0.0087  0.5113
  194MOL0     N26072   0.857   2.351   9.897 -0.2926  1.3692  0.4741
  194MOL0     C26073   0.876   2.378  10.033  0.1285 -0.5006 -0.0399
  194MOL0     C26074   0.753   2.421  10.083  0.2736  0.7840 -0.5693
  194MOL0     C26075   0.723   2.463  10.224 -1.0360  0.4190  0.3408
  194MOL0     C26076   0.817   2.568  10.271 -0.8680 -0.4244  0.1532
  194MOL0     C26077   0.794   2.585  10.421 -0.3088  0.5026  0.9439
  194MOL0     C26078   0.925   2.646  10.471  0.5734 -0.2592  0.2950
  194MOL0     O26079   0.901   2.701  10.595 -0.6674 -0.2106 -0.4481
  194MOL0     C26080   0.990   2.797  10.642  0.5368  1.5415 -0.5077
  194MOL0     C26081   1.031   2.907  10.570 -0.0365  0.6725  0.1788
  194MOL0     C26082   1.125   2.989  10.618 -0.4469  0.3333 -0.5889
  194MOL0     C26083   1.174   2.973  10.754 -0.0629 -0.4277 -1.7592
  194MOL0     C26084   1.272   3.067  10.808 -0.3729 -0.3559  0.0611
  194MOL0     O26085   1.288   3.189  10.742 -0.2159 -0.3005 -0.5070
  194MOL0     C26086   1.379   3.278  10.802 -0.0715 -0.0642  0.1595
  194MOL0     C26087   1.334   3.359  10.902 -0.3235 -0.4369  0.2645
  194MOL0     C26088   1.428   3.428  10.975  0.4381 -0.2017 -0.1097
  194MOL0     C26089   1.573   3.410  10.950  0.5074  0.3865 -0.6470
  194MOL0     O26090   1.667   3.470  11.039 -0.3508  0.5729  0.1679
  194MOL0     C26091   1.631   3.524  11.164  0.1880  0.3304 -0.1296
  194MOL0     C26092   1.750   3.553  11.245  1.2483  0.2701  0.9081
  194MOL0     C26093   1.827   3.671  11.186 -0.0839 -0.7459 -0.7961
  194MOL0     C26094   1.931   3.725  11.281 -0.1890 -0.7207 -0.0474
  194MOL0     C26095   1.981   3.857  11.223  0.3922  0.5709  0.5058
  194MOL0     C26096   2.101   3.908  11.294 -0.0497 -0.1583  0.6891
  194MOL0     C26097   2.232   3.850  11.233 -0.4721  0.6372  0.1034
  194MOL0     C26098   2.342   3.959  11.217 -0.4379  0.1909 -0.3260
  194MOL0    Cl26099   2.483   3.888  11.144 -0.3100  0.4475 -0.4856
  194MOL0     C26100   1.610   3.326  10.847 -0.2299 -0.2206 -0.7181
  194MOL0     C26101   1.515   3.262  10.767  1.1555 -0.0784 -0.5531
  194MOL0     O26102   1.333   3.034  10.909  0.5534  0.1078 -1.0934
  194MOL0     C26103   1.123   2.874  10.835  0.0424  0.5969  0.0459
  194MOL0     C26104   1.028   2.785  10.779 -0.6391  0.2295  0.3987
  194MOL0     N26105   0.658   2.408   9.975  0.3244 -0.0383 -0.5371
  194MOL0     N26106   0.731   2.372   9.870  1.1721  0.4275 -1.0211
  194MOL0     C26107   1.582   2.874   9.253  0.8807 -0.0942 -0.4895
  194MOL0     C26108   1.676   2.972   9.236  0.1525 -0.5938  0.3748
  194MOL0     C26109   1.932   3.312   9.400 -0.6511  0.0387 -1.1416
  194MOL0     C26110   2.010   3.321   9.283 -0.3876 -0.3070  0.4255
  194MOL0     C26111   2.101   3.430   9.281  0.4470 -0.3382 -0.6254
  194MOL0     C26112   2.119   3.525   9.379  1.1743  0.0983 -0.3997
  194MOL0     O26113   2.196   3.635   9.361  0.0678  0.1591 -0.1660
  194MOL0     C26114   2.210   3.738   9.462 -0.9759  0.8583 -0.5417
  194MOL0     C26115   2.318   3.705   9.571 -0.9207 -0.1589 -0.4640
  194MOL0     C26116   2.458   3.660   9.516 -0.5061 -0.3112  1.0800
  194MOL0     C26117   2.544   3.593   9.617  0.3379 -0.7030  0.7672
  194MOL0     C26118   2.583   3.687   9.720 -0.7652 -0.5321 -0.2628
  194MOL0     C26119   2.638   3.752   9.813  0.4083  0.3459 -0.4562
  194MOL0     C26120   2.045   3.502   9.490  0.6028 -0.2433  0.3331
  194MOL0     C26121   1.957   3.397   9.508 -0.5957  0.3511 -0.6144
  194MOL0     C26122   1.885   3.383   9.641 -0.2518 -0.2223 -0.2759
  194MOL0     H26123   1.888   2.874   9.495 -1.2515 -2.4821  0.4537
  194MOL0     H26124   1.730   2.705   9.515 -2.7137 -0.0339 -0.2940
  194MOL0     H26125   1.480   2.622   9.178  0.5486 -0.2050  0.3449
  194MOL0     H26126   1.615   2.546   9.271 -0.0823 -2.5893  1.9838
  194MOL0     H26127   1.409   2.401   9.211  0.3179  1.9421 -1.7935
  194MOL0     H26128   1.313   2.506   9.320 -0.6277 -2.0806 -0.9243
  194MOL0     H26129   1.496   2.450   9.503 -0.6398 -0.9588  1.5301
  194MOL0     H26130   1.510   2.309   9.402 -2.7030 -0.5721 -1.0232
  194MOL0     H26131   1.244   2.286   9.427  1.2490 -0.4030 -1.3043
  194MOL0     H26132   1.369   2.226   9.539 -0.1439  1.2794 -0.3641
  194MOL0     H26133   1.353   2.411   9.680 -1.2708  0.1406 -0.4353
  194MOL0     H26134   1.231   2.501   9.584 -2.8270 -0.4062 -0.0339
  194MOL0     H26135   1.111   2.278   9.589  2.7343 -1.3349 -1.2518
  194MOL0     H26136   1.211   2.236   9.728 -0.6949 -1.8336 -2.2138
  194MOL0     H26137   1.012   2.455   9.687  0.9278  2.1905  1.2706
  194MOL0     H26138   1.099   2.445   9.843  1.0146 -2.2315  0.1495
  194MOL0     H26139   0.904   2.260   9.704  0.0321  2.2964 -0.0667
  194MOL0     H26140   0.996   2.192   9.842  0.0301 -0.1076  0.3514
  194MOL0     H26141   0.970   2.370  10.086 -2.1467 -2.5509  4.2888
  194MOL0     H26142   0.620   2.497  10.235 -1.0946  0.4979 -0.3974
  194MOL0     H26143   0.732   2.368  10.279 -0.5241 -0.4378 -1.1614
  194MOL0     H26144   0.922   2.551  10.242 -0.6933 -1.9228  1.5537
  194MOL0     H26145   0.787   2.659  10.218 -0.1227  1.3314  2.5745
  194MOL0     H26146   0.766   2.492  10.471 -1.2755 -0.9323 -1.9782
  194MOL0     H26147   0.712   2.652  10.445 -0.1520  1.4243 -0.9204
  194MOL0     H26148   0.963   2.724  10.404  3.0697 -1.7679 -0.1994
  194MOL0     H26149   1.002   2.569  10.485 -1.8442 -2.4866  2.3668
  194MOL0     H26150   0.999   2.923  10.468  1.2652 -0.8775 -0.5162
  194MOL0     H26151   1.169   3.068  10.558 -0.4947 -0.1154 -1.2191
  194MOL0     H26152   1.229   3.365  10.928 -0.0701  1.9308  1.0319
  194MOL0     H26153   1.390   3.492  11.054  0.9704 -1.7423  1.4528
  194MOL0     H26154   1.574   3.615  11.143 -0.8773 -0.5735 -1.2974
  194MOL0     H26155   1.574   3.446  11.216  1.6996 -1.3025 -0.8386
  194MOL0     H26156   1.709   3.566  11.346 -2.7187 -2.4673 -0.1102
  194MOL0     H26157   1.815   3.466  11.249  0.4850 -0.4661 -1.1502
  194MOL0     H26158   1.874   3.636  11.094  0.0408 -2.0366 -0.2600
  194MOL0     H26159   1.763   3.755  11.158  2.8509  1.9379 -0.0697
  194MOL0     H26160   2.016   3.656  11.278  0.3555 -0.0279 -2.3930
  194MOL0     H26161   1.893   3.737  11.383  0.1913 -0.3710  0.0540
  194MOL0     H26162   1.896   3.925  11.227  1.1725  1.6307 -0.2203
  194MOL0     H26163   2.003   3.828  11.119  0.0820 -0.1488  0.6359
  194MOL0     H26164   2.102   4.017  11.284 -1.0979  0.0651  2.4709
  194MOL0     H26165   2.095   3.889  11.402 -0.6395  0.8433  0.8475
  194MOL0     H26166   2.218   3.815  11.130  2.3280 -0.4715 -0.0078
  194MOL0     H26167   2.263   3.771  11.303  0.6372  1.9458  1.1613
  194MOL0     H26168   2.295   4.034  11.152 -0.6576  2.7869  2.5794
  194MOL0     H26169   2.372   4.001  11.314  1.2788 -1.5498 -0.0565
  194MOL0     H26170   1.713   3.298  10.826 -0.0809 -0.9455  0.8558
  194MOL0     H26171   1.537   3.182  10.697 -0.9163 -1.7359  0.5756
  194MOL0     H26172   1.153   2.862  10.938 -1.9856 -2.8250  0.3806
  194MOL0     H26173   0.991   2.702  10.838  1.2264 -1.5607 -0.7779
  194MOL0     H26174   1.504   2.860   9.178  0.0658  3.7109 -0.5487
  194MOL0     H26175   1.645   3.044   9.161 -0.7836  0.0058  1.3229
  194MOL0     H26176   1.992   3.266   9.191  1.4503  2.9022 -2.0844
  194MOL0     H26177   2.160   3.434   9.190  0.2949  1.6669 -0.6727
  194MOL0     H26178   2.120   3.764   9.519 -2.1090 -1.4239 -1.1400
  194MOL0     H26179   2.232   3.831   9.409  0.2350  1.2106  0.5355
  194MOL0     H26180   2.274   3.624   9.630 -0.0944 -1.7407 -1.9198
  194MOL0     H26181   2.324   3.791   9.638  0.0413 -1.0359  0.6093
  194MOL0     H26182   2.514   3.739   9.465  1.6233 -2.5587 -0.2622
  194MOL0     H26183   2.448   3.577   9.445 -0.4678 -0.3089  1.0725
  194MOL0     H26184   2.487   3.508   9.655 -0.7756 -1.9176 -3.0842
  194MOL0     H26185   2.634   3.558   9.564  1.1541  2.0803  0.1360
  194MOL0     H26186   2.699   3.791   9.892  1.1561 -1.4009 -0.1326
  194MOL0     H26187   2.059   3.572   9.572 -1.5973  1.0070 -0.2961
  194MOL0     H26188   1.953   3.423   9.717  1.0771 -0.7361 -1.1601
  194MOL0     H26189   1.796   3.446   9.639  0.4913  0.8965  0.3546
  194MOL0     H26190   1.860   3.282   9.675 -1.9776  0.2781  0.0606
  195MOL0     O26191   2.474  11.167   6.694 -0.0882  0.3016 -0.2963
  195MOL0     C26192   2.409  11.103   6.613  0.7129  0.4920 -0.6934
  195MOL0     O26193   2.445  11.077   6.480 -0.3540 -0.0670 -0.2008
  195MOL0     C26194   2.556  11.139   6.444 -0.2607 -0.2432  0.4975
  195MOL0     C26195   2.688  11.088   6.432  0.5013  0.1714  0.0263
  195MOL0     C26196   2.797  11.177   6.417  0.2698  0.2812  1.0217
  195MOL0     C26197   2.775  11.311   6.386  0.4269  0.1729  0.6651
  195MOL0     O26198   2.881  11.388   6.353 -0.2627  0.3400  0.4881
  195MOL0     C26199   2.924  11.386   6.220  0.5427 -0.2053 -0.3709
  195MOL0     C26200   2.920  11.536   6.157 -0.3383  0.4360  0.2389
  195MOL0     C26201   2.988  11.524   6.021 -0.1837 -0.2877 -0.2761
  195MOL0     C26202   3.046  11.649   5.975  0.5374 -1.5696  0.5985
  195MOL0     C26203   3.091  11.666   5.828 -0.3826  1.1354 -0.1433
  195MOL0     C26204   2.976  11.642   5.727  0.4115 -0.5051  0.4462
  195MOL0     C26205   3.019  11.692   5.585  0.3166 -0.1934 -0.7722
  195MOL0     C26206   2.960  11.828   5.563 -0.0851  0.5737  0.3660
  195MOL0     N26207   2.965  11.866   5.421  0.2908  0.0266  0.2844
  195MOL0     C26208   2.993  11.783   5.316 -0.7411 -0.4961  0.3112
  195MOL0     C26209   2.965  11.856   5.208 -0.4388  0.1786 -0.6961
  195MOL0     C26210   2.968  11.799   5.065  0.3011  0.3995 -0.8421
  195MOL0     C26211   3.105  11.841   5.016  0.2750 -0.0345  0.2063
  195MOL0     C26212   3.119  11.769   4.872 -0.3566 -0.9202 -0.5073
  195MOL0     C26213   3.021  11.814   4.766 -0.5505  0.4121 -0.3006
  195MOL0     O26214   3.024  11.958   4.768  0.6397  0.6018 -0.4077
  195MOL0     C26215   2.912  12.026   4.735 -0.6793  0.2643 -0.2119
  195MOL0     C26216   2.850  12.094   4.845  0.0033 -0.4506 -0.4472
  195MOL0     C26217   2.732  12.166   4.810 -0.6600  0.0618  0.1783
  195MOL0     C26218   2.674  12.163   4.682 -0.2731  0.3766  0.4595
  195MOL0     C26219   2.545  12.227   4.654  0.1402 -1.2772 -0.3790
  195MOL0     O26220   2.468  12.195   4.546  0.1545  0.1637  0.0850
  195MOL0     C26221   2.349  12.259   4.550  0.1210 -0.4335 -0.9297
  195MOL0     C26222   2.253  12.209   4.632  0.2482 -0.3888  0.4794
  195MOL0     C26223   2.129  12.271   4.640 -0.0506  0.1816 -0.4021
  195MOL0     C26224   2.092  12.382   4.566 -0.0105 -1.0557  0.4837
  195MOL0     O26225   1.969  12.431   4.567 -0.2195 -0.2613  0.6619
  195MOL0     C26226   1.932  12.548   4.488 -0.3772  0.7010 -0.6949
  195MOL0     C26227   1.821  12.634   4.558  0.4117  0.0081  0.4535
  195MOL0     C26228   1.728  12.562   4.657 -0.1317  0.7377  0.0815
  195MOL0     C26229   1.611  12.490   4.587  0.0209  0.1992 -0.7503
  195MOL0     C26230   1.546  12.390   4.695  1.1822  0.7277  0.6452
  195MOL0     C26231   1.444  12.299   4.613 -0.2507  0.2829 -0.7891
  195MOL0     C26232   1.368  12.201   4.719 -0.1682  0.2523  0.2920
  195MOL0     C26233   1.227  12.248   4.757  0.9572  0.6139  0.1991
  195MOL0    Cl26234   1.127  12.223   4.624  0.1568 -0.0555 -0.4415
  195MOL0     C26235   2.204  12.439   4.488 -0.2450 -0.8814 -0.8385
  195MOL0     C26236   2.327  12.376   4.485  0.1212  0.8370 -0.0760
  195MOL0     O26237   2.524  12.309   4.740  0.0735 -0.5255  0.9231
  195MOL0     C26238   2.740  12.079   4.583  0.9413 -0.9609  0.7466
  195MOL0     C26239   2.863  12.012   4.613  0.2913 -0.1178 -0.4478
  195MOL0     N26240   2.943  11.988   5.243 -0.1273  0.3757 -0.4542
  195MOL0     N26241   2.931  11.986   5.370  0.0406 -0.3439 -0.3562
  195MOL0     C26242   2.645  11.363   6.375 -0.1823  0.1768  0.2004
  195MOL0     C26243   2.537  11.277   6.411  0.4754  0.1813 -0.6885
  195MOL0     C26244   2.276  11.048   6.642  0.8508  0.6562 -0.6887
  195MOL0     C26245   2.234  10.925   6.592  0.8050 -0.2147 -0.3082
  195MOL0     C26246   2.107  10.875   6.622 -0.0548 -0.5083 -0.6158
  195MOL0     C26247   2.018  10.940   6.714  0.1522  0.0299  0.2417
  195MOL0     O26248   1.887  10.898   6.752  0.4231 -0.6391 -0.2386
  195MOL0     C26249   1.855  10.761   6.721  0.3808  0.0743 -0.3336
  195MOL0     C26250   1.941  10.667   6.805 -0.0495  0.7797  0.1441
  195MOL0     C26251   1.962  10.699   6.954  0.3788  0.4031  0.1843
  195MOL0     C26252   2.083  10.629   7.001  0.7400 -0.5126 -0.1889
  195MOL0     C26253   2.078  10.604   7.142  0.5100  0.4129  0.1405
  195MOL0     C26254   2.060  10.574   7.260  0.7265 -0.4864  0.5958
  195MOL0     C26255   2.061  11.058   6.766  1.1499  0.5064 -0.0927
  195MOL0     C26256   2.188  11.116   6.724 -0.5394 -0.3931 -0.8500
  195MOL0     C26257   2.215  11.246   6.792  0.2154  1.1201 -0.4864
  195MOL0     H26258   2.716  10.988   6.464 -3.6313 -1.9220 -2.1859
  195MOL0     H26259   2.897  11.140   6.437  1.5906  1.2202 -2.8875
  195MOL0     H26260   3.028  11.351   6.212  0.2468 -0.5982 -5.2116
  195MOL0     H26261   2.864  11.327   6.151 -0.3297 -0.2402  0.3974
  195MOL0     H26262   2.976  11.603   6.223 -1.5534  2.4150 -0.6378
  195MOL0     H26263   2.821  11.579   6.138 -0.0739 -0.3721 -3.9062
  195MOL0     H26264   2.915  11.489   5.947  2.3458 -1.2485 -2.4824
  195MOL0     H26265   3.066  11.447   6.020  0.9799  0.8452  0.7928
  195MOL0     H26266   2.972  11.729   5.989  0.8424 -0.3289 -3.4956
  195MOL0     H26267   3.123  11.665   6.050  0.2638  1.4988  0.3737
  195MOL0     H26268   3.122  11.770   5.820 -0.3946  1.1119 -0.4835
  195MOL0     H26269   3.167  11.590   5.805 -1.0651 -0.5006  2.5364
  195MOL0     H26270   2.937  11.540   5.718 -0.2009 -0.1032 -2.7092
  195MOL0     H26271   2.890  11.697   5.765 -0.0399 -0.6959 -0.2874
  195MOL0     H26272   2.970  11.624   5.514  1.4985 -0.8619 -0.9818
  195MOL0     H26273   3.126  11.670   5.572  1.9682  2.8352  4.4343
  195MOL0     H26274   2.860  11.826   5.610 -0.3536 -1.4772 -0.1958
  195MOL0     H26275   3.008  11.912   5.615  2.0903  0.3711 -1.2019
  195MOL0     H26276   3.002  11.675   5.326  1.6830 -0.2963  0.9096
  195MOL0     H26277   2.951  11.691   5.058 -1.9592  0.7847 -2.5485
  195MOL0     H26278   2.889  11.841   5.002 -0.7794 -0.8783 -0.3826
  195MOL0     H26279   3.110  11.949   4.998  1.0211 -0.0757  0.1374
  195MOL0     H26280   3.191  11.806   5.074 -0.4036 -4.5404 -1.1137
  195MOL0     H26281   3.098  11.663   4.889 -0.1505 -0.9847 -0.6573
  195MOL0     H26282   3.222  11.765   4.835  0.8062 -1.7462  2.4624
  195MOL0     H26283   2.920  11.780   4.791 -0.9895  1.7561 -0.2092
  195MOL0     H26284   3.049  11.786   4.664 -0.1595 -0.1585 -0.0464
  195MOL0     H26285   2.891  12.102   4.945  2.2218 -0.1743 -1.3227
  195MOL0     H26286   2.679  12.216   4.890 -0.2640 -1.6733  1.5684
  195MOL0     H26287   2.280  12.122   4.690 -1.2435 -0.6140  0.8733
  195MOL0     H26288   2.048  12.226   4.698 -0.9901  0.7713 -1.2198
  195MOL0     H26289   2.018  12.615   4.471  3.6986 -3.2319  2.0994
  195MOL0     H26290   1.891  12.511   4.394 -1.5619  2.0038 -0.7195
  195MOL0     H26291   1.865  12.716   4.616 -2.4842  1.8459  0.3000
  195MOL0     H26292   1.766  12.674   4.472  2.3222 -0.9093 -1.2774
  195MOL0     H26293   1.782  12.486   4.714  2.0261  2.8894  1.0742
  195MOL0     H26294   1.670  12.632   4.718 -1.6492  1.4230 -2.0336
  195MOL0     H26295   1.653  12.435   4.502  0.8568  3.6006 -2.7311
  195MOL0     H26296   1.535  12.562   4.554 -1.3236 -0.3058  1.0983
  195MOL0     H26297   1.492  12.447   4.771 -1.0624 -3.9121  2.9195
  195MOL0     H26298   1.613  12.317   4.741 -1.6651 -0.8623  2.5851
  195MOL0     H26299   1.376  12.366   4.561  1.3490  1.0938 -1.9085
  195MOL0     H26300   1.500  12.239   4.540  2.6624 -1.7803  2.8176
  195MOL0     H26301   1.436  12.186   4.803  0.8199 -0.3646 -0.5899
  195MOL0     H26302   1.358  12.105   4.668  3.5475 -0.9179  1.4236
  195MOL0     H26303   1.184  12.176   4.828 -0.6294 -0.1974 -1.5246
  195MOL0     H26304   1.230  12.349   4.798  1.4611 -0.6190  3.6111
  195MOL0     H26305   2.195  12.529   4.428 -0.5559 -0.3466 -0.0168
  195MOL0     H26306   2.408  12.424   4.432  2.4519 -1.8539  0.7873
  195MOL0     H26307   2.688  12.085   4.488  0.5945  3.2977  1.0351
  195MOL0     H26308   2.909  11.963   4.528  0.6757 -0.2445 -0.1723
  195MOL0     H26309   2.626  11.467   6.348  1.3993  0.3698 -0.2188
  195MOL0     H26310   2.434  11.309   6.419 -0.3636 -2.3913 -0.0579
  195MOL0     H26311   2.291  10.884   6.509  0.3028 -0.9773 -0.2834
  195MOL0     H26312   2.073  10.787   6.568 -0.4739  1.4669 -3.8447
  195MOL0     H26313   1.870  10.730   6.617  1.6584  0.4091 -0.2711
  195MOL0     H26314   1.750  10.741   6.741  0.3254  1.9708  1.6421
  195MOL0     H26315   2.037  10.660   6.754 -0.4532 -0.3620 -0.4864
  195MOL0     H26316   1.888  10.572   6.793 -0.0213  0.8578 -0.6237
  195MOL0     H26317   1.876  10.656   7.008  1.7325 -2.7394  0.0361
  195MOL0     H26318   1.967  10.808   6.962  2.8608  0.5557 -2.0942
  195MOL0     H26319   2.103  10.539   6.942  4.1640  2.7670 -4.6014
  195MOL0     H26320   2.169  10.692   6.981 -0.6364  1.8678  0.9279
  195MOL0     H26321   2.060  10.546   7.363  3.6205 -4.3329 -0.2233
  195MOL0     H26322   2.005  11.119   6.837  1.3144 -0.5999  1.0113
  195MOL0     H26323   2.119  11.296   6.809 -1.6418 -1.1419 -3.3278
  195MOL0     H26324   2.248  11.215   6.891 -1.1902  2.1191  0.3413
  195MOL0     H26325   2.290  11.313   6.749 -0.5659 -0.7351 -5.5261
  196MOL0     O26326   2.645   6.257  11.007  0.0444  0.5162  0.2951
  196MOL0     C26327   2.710   6.324  10.929  0.7503  0.7550 -0.2951
  196MOL0     O26328   2.665   6.419  10.847  0.3364 -0.8864 -0.0893
  196MOL0     C26329   2.537   6.478  10.869 -0.4772 -0.4861  0.0310
  196MOL0     C26330   2.502   6.545  10.990  0.2363 -0.1887 -0.9043
  196MOL0     C26331   2.372   6.601  10.994  1.2361  0.3949 -0.1468
  196MOL0     C26332   2.266   6.582  10.898 -0.6890 -0.4911 -0.6665
  196MOL0     O26333   2.136   6.630  10.915  1.4230  0.4144 -0.0232
  196MOL0     C26334   2.043   6.556  10.843  0.3385 -0.1043  0.4362
  196MOL0     C26335   1.911   6.564  10.919 -0.4120  0.6039  0.1847
  196MOL0     C26336   1.797   6.464  10.868 -0.3084  0.7834 -0.1325
  196MOL0     C26337   1.659   6.478  10.932  0.3876 -0.0610  0.4027
  196MOL0     C26338   1.554   6.381  10.869 -0.0898 -0.0919  0.4581
  196MOL0     C26339   1.425   6.399  10.942  0.4846  0.2390 -0.0579
  196MOL0     C26340   1.362   6.543  10.959 -0.2700 -0.1690  0.0556
  196MOL0     C26341   1.211   6.545  10.992  0.6390 -0.0722  0.0751
  196MOL0     N26342   1.126   6.512  10.872 -0.2347 -0.2777  0.2552
  196MOL0     C26343   1.068   6.602  10.791  0.4556  0.4646 -0.0155
  196MOL0     C26344   0.980   6.531  10.716  0.0241  0.1304  0.1747
  196MOL0     C26345   0.893   6.590  10.612 -0.0554  0.6994  2.1579
  196MOL0     C26346   0.970   6.644  10.495  0.2885 -0.0242 -0.0329
  196MOL0     C26347   0.868   6.683  10.380 -0.1421  0.1877  0.3571
  196MOL0     C26348   0.941   6.697  10.244 -0.1136  0.6602 -0.0104
  196MOL0     O26349   1.008   6.826  10.248 -0.6298  0.4983 -0.1133
  196MOL0     C26350   0.950   6.946  10.229  0.5800 -0.9014  0.2500
  196MOL0     C26351   1.038   7.055  10.246  0.4481 -0.0330  0.1279
  196MOL0     C26352   0.983   7.179  10.205  0.3636  0.1594 -0.1686
  196MOL0     C26353   0.849   7.199  10.175 -0.3088 -0.3598 -0.6825
  196MOL0     C26354   0.805   7.342  10.162 -0.3288 -0.2442 -0.5297
  196MOL0     O26355   0.898   7.438  10.180  0.1836 -0.8597 -0.6946
  196MOL0     C26356   0.869   7.571  10.154 -0.3096  0.6213 -0.1846
  196MOL0     C26357   0.820   7.606  10.025 -0.4776  0.3611  0.1701
  196MOL0     C26358   0.778   7.747  10.002 -0.4983  0.5625  0.3640
  196MOL0     C26359   0.801   7.842  10.095  0.1514  1.0240 -0.4349
  196MOL0     O26360   0.761   7.968  10.063 -0.6034 -0.3571 -0.1768
  196MOL0     C26361   0.765   8.073  10.169 -0.3320  0.0847 -0.0616
  196MOL0     C26362   0.729   8.210  10.108  0.1289  0.4538 -0.4675
  196MOL0     C26363   0.770   8.323  10.201 -0.2545 -0.4356  1.0954
  196MOL0     C26364   0.727   8.299  10.346 -0.9410 -1.1778 -0.5722
  196MOL0     C26365   0.731   8.419  10.431 -0.6457 -0.6210  0.6494
  196MOL0     C26366   0.708   8.398  10.580  0.1478  0.5396  0.3373
  196MOL0     C26367   0.696   8.544  10.650  0.9555 -0.2807  0.4892
  196MOL0     C26368   0.671   8.528  10.810  0.6000 -0.6559  0.3038
  196MOL0    Cl26369   0.671   8.682  10.892 -0.6178  0.2324 -0.6093
  196MOL0     C26370   0.850   7.802  10.218  0.9119  0.9690 -0.9795
  196MOL0     C26371   0.882   7.673  10.250  0.6389 -0.8546 -0.9509
  196MOL0     O26372   0.690   7.357  10.142  0.1284  0.3922  0.0474
  196MOL0     C26373   0.766   7.091  10.160 -0.5948 -0.3044 -0.4476
  196MOL0     C26374   0.817   6.964  10.185  0.5471  0.3544 -1.5403
  196MOL0     N26375   0.993   6.399  10.761  0.1333  0.4311 -0.4585
  196MOL0     N26376   1.061   6.392  10.869 -0.1182 -0.4803  0.7388
  196MOL0     C26377   2.312   6.534  10.779 -0.8456  0.4180  1.0780
  196MOL0     C26378   2.445   6.482  10.764 -0.1147 -0.3923  0.8624
  196MOL0     C26379   2.857   6.300  10.934  0.7727 -0.1759  0.6037
  196MOL0     C26380   2.933   6.414  10.930 -0.4184  1.1611 -0.3399
  196MOL0     C26381   3.073   6.412  10.955  0.3804  0.2266 -0.2197
  196MOL0     C26382   3.135   6.301  11.002 -0.3640 -0.2245 -0.0866
  196MOL0     O26383   3.269   6.274  11.033  0.4725  0.6851  0.3057
  196MOL0     C26384   3.361   6.377  11.030 -0.4747  0.7632 -0.4617
  196MOL0     C26385   3.388   6.432  11.169 -0.1032  0.1029 -0.6507
  196MOL0     C26386   3.482   6.349  11.254 -0.1157  1.1175  0.4130
  196MOL0     C26387   3.493   6.363  11.402 -0.5199 -0.2419  0.1252
  196MOL0     C26388   3.618   6.325  11.473 -0.4539 -0.2112 -0.0671
  196MOL0     C26389   3.713   6.283  11.532  0.3304  0.0579  0.0090
  196MOL0     C26390   3.058   6.184  11.009  0.5190  0.2394  0.0562
  196MOL0     C26391   2.918   6.175  10.966 -0.1239  0.0355  1.0975
  196MOL0     C26392   2.838   6.050  10.952  0.1385 -0.2467  0.5442
  196MOL0     H26393   2.566   6.564  11.076 -1.6275  1.0378  0.2623
  196MOL0     H26394   2.352   6.654  11.087 -1.1692  0.0114 -0.3718
  196MOL0     H26395   2.039   6.597  10.741 -0.7377  0.7406  0.7914
  196MOL0     H26396   2.069   6.450  10.847 -1.1733 -0.4918  0.7357
  196MOL0     H26397   1.874   6.667  10.920  1.5850  1.5275 -3.4916
  196MOL0     H26398   1.928   6.544  11.025  1.0822  1.9592  0.2444
  196MOL0     H26399   1.822   6.359  10.883  0.7703  0.7946 -1.6145
  196MOL0     H26400   1.781   6.488  10.762 -1.1557  1.1959  0.0782
  196MOL0     H26401   1.671   6.454  11.038 -1.4585 -1.6167  0.3082
  196MOL0     H26402   1.617   6.579  10.925  0.8551  0.1758  0.9458
  196MOL0     H26403   1.549   6.402  10.762 -2.5581  0.1584  0.5770
  196MOL0     H26404   1.594   6.280  10.873 -0.2901 -0.2415 -0.7786
  196MOL0     H26405   1.352   6.333  10.894  3.8022 -3.9134  0.1076
  196MOL0     H26406   1.438   6.355  11.041  0.6897 -0.3310 -0.3368
  196MOL0     H26407   1.377   6.609  10.873  1.6431  0.2904  0.7029
  196MOL0     H26408   1.419   6.596  11.036  0.3096  1.7300 -1.5861
  196MOL0     H26409   1.193   6.471  11.070  2.6333  0.6859  1.3218
  196MOL0     H26410   1.170   6.638  11.033 -1.1076 -1.8580  2.6643
  196MOL0     H26411   1.082   6.709  10.772 -2.7610  1.3385  1.9353
  196MOL0     H26412   0.820   6.517  10.576  0.0160  1.8979 -0.6490
  196MOL0     H26413   0.836   6.676  10.647 -0.4579  0.8379  1.1727
  196MOL0     H26414   1.022   6.734  10.528 -0.1124  0.0336  0.4525
  196MOL0     H26415   1.042   6.565  10.471  2.0581  1.4262  0.2895
  196MOL0     H26416   0.811   6.775  10.395  0.2347  0.4742  0.0562
  196MOL0     H26417   0.799   6.599  10.380  1.6454 -1.3668  1.5559
  196MOL0     H26418   0.871   6.689  10.160  0.0041 -0.4563 -0.0138
  196MOL0     H26419   1.007   6.610  10.245  0.3489  0.9992  1.4196
  196MOL0     H26420   1.137   7.037  10.287  0.2907  2.6841  1.9533
  196MOL0     H26421   1.059   7.257  10.204  2.0840 -1.4385 -0.1608
  196MOL0     H26422   0.793   7.525   9.957 -0.0741 -2.2218  2.8648
  196MOL0     H26423   0.731   7.772   9.907 -2.6929 -5.3291 -0.5417
  196MOL0     H26424   0.692   8.043  10.245  0.1776  0.0578  0.4228
  196MOL0     H26425   0.861   8.076  10.221 -0.9228 -1.0851  1.1832
  196MOL0     H26426   0.780   8.208  10.012 -0.5950 -2.6101 -0.8932
  196MOL0     H26427   0.622   8.211  10.087 -0.2308 -2.0258  0.8386
  196MOL0     H26428   0.880   8.329  10.201 -0.2431 -0.2166  2.3226
  196MOL0     H26429   0.715   8.413  10.170  0.6139 -1.1603 -3.0942
  196MOL0     H26430   0.788   8.218  10.388  0.2309  0.4458  0.9916
  196MOL0     H26431   0.623   8.266  10.355 -0.3474 -2.5601  3.7982
  196MOL0     H26432   0.666   8.498  10.392  0.8662  0.4767  0.2855
  196MOL0     H26433   0.833   8.457  10.419 -1.4748  2.1483  1.6394
  196MOL0     H26434   0.613   8.345  10.595 -0.9515  2.3349 -0.0047
  196MOL0     H26435   0.792   8.338  10.616  0.6826  1.0404 -0.0678
  196MOL0     H26436   0.616   8.608  10.610  0.7451  0.1678  1.6111
  196MOL0     H26437   0.787   8.602  10.636 -0.2424  2.1987  2.1777
  196MOL0     H26438   0.571   8.485  10.816 -2.4427  5.1543 -0.8686
  196MOL0     H26439   0.748   8.472  10.863  2.5584  2.1792  0.7087
  196MOL0     H26440   0.856   7.854  10.314 -1.1932 -2.6689  1.3712
  196MOL0     H26441   0.926   7.650  10.346 -0.4724 -0.2978 -0.2909
  196MOL0     H26442   0.669   7.112  10.115 -0.3911 -2.6409 -2.2283
  196MOL0     H26443   0.750   6.879  10.170 -0.0147  0.5169 -0.1351
  196MOL0     H26444   2.260   6.542  10.685  1.0156  0.1639 -0.0287
  196MOL0     H26445   2.487   6.453  10.669  1.4395  0.8729  1.1137
  196MOL0     H26446   2.886   6.512  10.926 -2.5761  0.1584 -1.4106
  196MOL0     H26447   3.131   6.503  10.946 -0.2782  0.6790  0.0765
  196MOL0     H26448   3.332   6.465  10.971  0.3887  1.7208  0.4803
  196MOL0     H26449   3.454   6.334  10.993  1.3792  2.0006  2.3912
  196MOL0     H26450   3.289   6.425  11.214  0.4143 -2.9131  0.2216
  196MOL0     H26451   3.435   6.529  11.153 -0.2796  0.5702  1.4031
  196MOL0     H26452   3.580   6.378  11.215  0.1907  1.8722  1.6827
  196MOL0     H26453   3.461   6.243  11.238  1.0417  1.3007 -3.0167
  196MOL0     H26454   3.480   6.470  11.425  0.6436 -0.0483 -0.0465
  196MOL0     H26455   3.412   6.311  11.454 -1.6804  0.5204 -0.8568
  196MOL0     H26456   3.796   6.247  11.590 -1.7266 -3.5127  1.0168
  196MOL0     H26457   3.107   6.092  11.037 -1.3343 -0.4457  1.2485
  196MOL0     H26458   2.782   6.023  11.042 -2.3688  2.1793 -0.1411
  196MOL0     H26459   2.775   6.065  10.864  0.9051 -0.9709 -0.1493
  196MOL0     H26460   2.906   5.973  10.913  1.5699  1.0103  0.4605
  197MOL0     O26461   6.252   7.832   0.353 -0.2016  0.3461 -0.0628
  197MOL0     C26462   6.149   7.801   0.409 -0.3696  0.6255 -0.0835
  197MOL0     O26463   6.136   7.695   0.488 -0.0130 -0.2323  0.0384
  197MOL0     C26464   6.255   7.632   0.519  0.5115 -1.6119  0.5189
  197MOL0     C26465   6.327   7.687   0.634  0.3522  0.2373  0.8896
  197MOL0     C26466   6.433   7.612   0.679  0.2470  0.7045  0.7163
  197MOL0     C26467   6.475   7.491   0.618 -0.5608 -0.8890 -0.4696
  197MOL0     O26468   6.590   7.425   0.657  0.2479  0.4423 -0.3488
  197MOL0     C26469   6.670   7.475   0.769 -0.8456  0.1345  0.3310
  197MOL0     C26470   6.635   7.410   0.901 -0.8215  0.3417 -0.2073
  197MOL0     C26471   6.744   7.437   1.010  0.8956  0.2814 -0.4603
  197MOL0     C26472   6.834   7.305   1.019  0.2559 -0.7735  0.5600
  197MOL0     C26473   6.945   7.304   1.130 -0.1193  0.2214 -0.9918
  197MOL0     C26474   6.873   7.306   1.277 -0.7037 -1.1902  0.1274
  197MOL0     C26475   6.978   7.288   1.391 -0.4999  0.0251 -0.2927
  197MOL0     C26476   6.913   7.318   1.521 -0.4165  1.0924  0.3386
  197MOL0     N26477   7.011   7.315   1.629  0.4216  0.1446 -0.2198
  197MOL0     C26478   7.060   7.206   1.695  0.2092 -0.1753 -0.0639
  197MOL0     C26479   7.122   7.261   1.802 -0.1596 -0.0305 -0.7054
  197MOL0     C26480   7.191   7.172   1.911  0.1172 -0.7794 -1.2260
  197MOL0     C26481   7.341   7.149   1.903  0.3740 -0.9067 -0.4561
  197MOL0     C26482   7.384   7.114   1.761 -0.3067 -0.7059  0.5110
  197MOL0     C26483   7.536   7.090   1.741 -0.4300  0.9797  1.1009
  197MOL0     O26484   7.620   7.184   1.796 -0.2890  0.0135 -0.6395
  197MOL0     C26485   7.740   7.220   1.734  0.0558 -0.5704 -0.0261
  197MOL0     C26486   7.808   7.138   1.654 -0.3975  0.1178 -0.7011
  197MOL0     C26487   7.935   7.178   1.603  0.5187  0.6898  0.2206
  197MOL0     C26488   7.988   7.301   1.633 -0.6689 -0.7996 -0.4993
  197MOL0     C26489   8.098   7.361   1.555  0.1195  0.0449  0.4302
  197MOL0     O26490   8.118   7.498   1.549 -0.5872  0.5653 -0.4209
  197MOL0     C26491   8.240   7.562   1.530 -0.9082  0.0638  0.9776
  197MOL0     C26492   8.236   7.702   1.516 -0.5649  0.9530  0.6442
  197MOL0     C26493   8.362   7.776   1.495 -0.9535 -0.0895 -0.6756
  197MOL0     C26494   8.484   7.706   1.483 -1.1495  0.7196  0.0900
  197MOL0     O26495   8.614   7.756   1.461  0.0036 -0.4384  0.8741
  197MOL0     C26496   8.615   7.873   1.380  0.4662 -0.8411  0.2749
  197MOL0     C26497   8.767   7.904   1.374  0.6302 -1.0291 -0.5427
  197MOL0     C26498   8.853   7.793   1.300  0.3857  0.0491 -0.5567
  197MOL0     C26499   8.986   7.855   1.274  0.5930  0.3135  1.0796
  197MOL0     C26500   9.080   7.775   1.180 -0.6782  0.1856  0.8940
  197MOL0     C26501   9.113   7.633   1.207 -0.1348 -0.2799  0.1309
  197MOL0     C26502   9.237   7.614   1.307  0.0560  0.4130  0.8942
  197MOL0     C26503   9.248   7.470   1.364 -0.2855 -0.7202  0.1660
  197MOL0    Cl26504   9.409   7.446   1.431 -0.1351 -0.0806 -0.2165
  197MOL0     C26505   8.472   7.564   1.496  0.0644  0.0035  0.1281
  197MOL0     C26506   8.364   7.504   1.529 -0.3630  0.2470  0.8137
  197MOL0     O26507   8.161   7.273   1.492  0.4511 -0.8586 -0.1479
  197MOL0     C26508   7.914   7.379   1.726  0.3261 -0.2285 -0.2338
  197MOL0     C26509   7.794   7.339   1.773 -0.7518  0.4161 -0.1279
  197MOL0     N26510   7.094   7.392   1.823  1.7192 -0.1545  0.7717
  197MOL0     N26511   7.040   7.425   1.707  0.9968 -0.6845  0.1925
  197MOL0     C26512   6.409   7.445   0.510 -0.8043  0.2461  0.2672
  197MOL0     C26513   6.291   7.511   0.469 -0.6011 -0.7676 -0.4785
  197MOL0     C26514   6.035   7.886   0.369 -0.5855  0.5615 -0.1239
  197MOL0     C26515   6.026   7.940   0.235  0.3274  0.1901  0.5505
  197MOL0     C26516   5.914   8.013   0.195  0.4305 -0.2053  0.4704
  197MOL0     C26517   5.816   8.040   0.290  0.1208 -0.5510  0.6134
  197MOL0     O26518   5.724   8.135   0.271  0.1934 -0.7061  0.0368
  197MOL0     C26519   5.711   8.234   0.161 -0.1244  0.6397 -0.3358
  197MOL0     C26520   5.813   8.342   0.163 -0.7351 -0.2235 -0.5109
  197MOL0     C26521   5.803   8.433   0.034 -0.6404  0.2126  0.1504
  197MOL0     C26522   5.932   8.437  -0.047  0.5362 -0.3582 -0.3559
  197MOL0     C26523   5.974   8.305  -0.099  0.6729  0.6822 -0.4375
  197MOL0     C26524   6.001   8.188  -0.147  0.8570 -0.0224 -0.5840
  197MOL0     C26525   5.820   7.987   0.416  0.3970 -0.6576 -0.1682
  197MOL0     C26526   5.929   7.913   0.462 -0.3478  0.8609  0.6522
  197MOL0     C26527   5.946   7.882   0.607 -0.1321 -0.3909  0.1369
  197MOL0     H26528   6.301   7.778   0.687 -2.7339  0.0541 -0.1190
  197MOL0     H26529   6.476   7.649   0.771  2.5840  2.1326 -0.8401
  197MOL0     H26530   6.773   7.447   0.746 -0.2703  0.0170  2.8663
  197MOL0     H26531   6.674   7.584   0.775  0.7619  0.0502  1.0742
  197MOL0     H26532   6.608   7.304   0.894 -0.3368 -0.0100  2.3820
  197MOL0     H26533   6.542   7.457   0.935 -0.4614 -0.5371  2.1861
  197MOL0     H26534   6.683   7.466   1.096 -3.0427  2.8735 -3.7435
  197MOL0     H26535   6.796   7.532   0.993 -2.1967  2.6356  2.0256
  197MOL0     H26536   6.773   7.215   1.026 -0.0133 -0.7084 -0.6008
  197MOL0     H26537   6.886   7.297   0.923 -1.8718 -3.0636 -0.5222
  197MOL0     H26538   7.014   7.221   1.117 -0.0936  0.2398 -0.9782
  197MOL0     H26539   6.997   7.400   1.118 -2.4714  1.6125 -0.6987
  197MOL0     H26540   6.833   7.406   1.297 -1.2349 -1.2417 -0.6100
  197MOL0     H26541   6.788   7.237   1.274 -1.5784 -0.1371 -0.9363
  197MOL0     H26542   7.057   7.363   1.377 -1.3466  0.8422 -0.8404
  197MOL0     H26543   7.021   7.188   1.390  0.5975  0.3554  2.9088
  197MOL0     H26544   6.865   7.417   1.522  2.4075  2.5868 -0.5508
  197MOL0     H26545   6.833   7.243   1.523  1.9130 -1.7721 -2.7169
  197MOL0     H26546   7.062   7.101   1.668 -0.7986  0.2195 -1.8066
  197MOL0     H26547   7.159   7.213   2.008  1.1090 -1.8655 -0.4140
  197MOL0     H26548   7.144   7.073   1.912 -0.4536 -0.5214  0.1228
  197MOL0     H26549   7.395   7.238   1.937 -2.1594  2.2265 -3.7665
  197MOL0     H26550   7.367   7.058   1.958  0.9572  0.5393  1.7896
  197MOL0     H26551   7.367   7.192   1.686  2.4023 -0.9559 -0.4723
  197MOL0     H26552   7.323   7.025   1.745 -3.1889  1.4039 -1.0569
  197MOL0     H26553   7.565   7.080   1.636  0.1106 -0.3504  1.3499
  197MOL0     H26554   7.570   6.994   1.782  1.6269  1.1334 -0.0786
  197MOL0     H26555   7.774   7.040   1.623  1.4968 -0.3026 -1.5698
  197MOL0     H26556   7.990   7.110   1.539  0.2541  0.1122  0.6012
  197MOL0     H26557   8.152   7.771   1.515  0.3460  2.0955  1.3765
  197MOL0     H26558   8.349   7.883   1.498  1.3737  0.2218  1.6212
  197MOL0     H26559   8.572   7.851   1.282 -1.9680  1.7067  0.6362
  197MOL0     H26560   8.551   7.948   1.428  2.5760  1.0512  0.2682
  197MOL0     H26561   8.773   7.994   1.311 -2.9191 -1.0554 -1.0925
  197MOL0     H26562   8.806   7.940   1.470 -0.0629  1.2055 -1.0422
  197MOL0     H26563   8.866   7.707   1.365  1.9083  1.8473  1.6895
  197MOL0     H26564   8.807   7.766   1.204  1.5698  0.9830 -1.4363
  197MOL0     H26565   9.035   7.866   1.371  2.4392 -0.9433  0.3643
  197MOL0     H26566   8.966   7.951   1.227 -0.9439 -0.1020  0.8183
  197MOL0     H26567   9.172   7.832   1.161  0.0173 -1.2645 -0.3356
  197MOL0     H26568   9.031   7.791   1.084 -4.0287  4.1158  2.9451
  197MOL0     H26569   9.024   7.589   1.252 -1.7828  4.1603  1.7849
  197MOL0     H26570   9.137   7.585   1.112 -0.8687 -2.1657  0.8535
  197MOL0     H26571   9.239   7.675   1.398 -0.8072  2.1156 -0.1933
  197MOL0     H26572   9.329   7.635   1.252  1.2908 -2.8078  1.4908
  197MOL0     H26573   9.162   7.461   1.430 -1.6583  1.6947 -1.1732
  197MOL0     H26574   9.238   7.400   1.280  0.1882 -1.3670  0.6384
  197MOL0     H26575   8.564   7.507   1.481 -0.4919 -1.0346  0.5437
  197MOL0     H26576   8.379   7.397   1.544  2.3570 -0.0359 -2.5865
  197MOL0     H26577   7.951   7.468   1.776 -1.9419 -1.1801  3.5825
  197MOL0     H26578   7.730   7.403   1.834 -1.8953 -0.6329 -0.1843
  197MOL0     H26579   6.451   7.363   0.454  0.6479  0.8517  0.4418
  197MOL0     H26580   6.232   7.458   0.394 -2.4919 -0.4653  0.7270
  197MOL0     H26581   6.095   7.914   0.156  0.6688  2.8699 -0.1317
  197MOL0     H26582   5.920   8.060   0.097  2.3927  0.2339  0.7553
  197MOL0     H26583   5.616   8.286   0.170 -0.1490  1.1839 -2.8206
  197MOL0     H26584   5.695   8.183   0.065 -0.0897  2.8397 -1.6049
  197MOL0     H26585   5.915   8.302   0.167  0.5402  2.8130  0.3456
  197MOL0     H26586   5.790   8.403   0.251  0.3239 -0.8650  0.2390
  197MOL0     H26587   5.792   8.535   0.072  1.1500 -1.0700  4.8540
  197MOL0     H26588   5.727   8.396  -0.034  1.1627 -2.6366 -0.4972
  197MOL0     H26589   5.900   8.514  -0.117 -1.0845  2.1768  2.9257
  197MOL0     H26590   6.016   8.483   0.006  0.5192 -0.6489 -0.0697
  197MOL0     H26591   6.006   8.090  -0.190 -2.2090 -1.3487  1.6680
  197MOL0     H26592   5.726   8.006   0.467  0.0891  1.1665 -1.3080
  197MOL0     H26593   5.870   7.928   0.671 -2.1207 -1.6777 -1.1595
  197MOL0     H26594   5.930   7.779   0.641  0.2006  1.0968  5.9270
  197MOL0     H26595   6.048   7.907   0.636 -0.8120  2.8500  0.0388
  198MOL0     O26596   2.099   3.254   7.468  0.6935 -0.4066 -0.5492
  198MOL0     C26597   2.140   3.363   7.426  0.0183  0.3413  0.3987
  198MOL0     O26598   2.073   3.479   7.403 -0.2211 -0.2547  0.5504
  198MOL0     C26599   1.946   3.485   7.448 -0.6562 -0.5034 -0.3782
  198MOL0     C26600   1.837   3.491   7.363  0.8583  1.0075 -0.1414
  198MOL0     C26601   1.705   3.519   7.415  0.0803 -0.4212  0.4758
  198MOL0     C26602   1.683   3.521   7.557 -0.4171  0.3761  0.3287
  198MOL0     O26603   1.558   3.524   7.617  0.1318 -0.2777  0.4350
  198MOL0     C26604   1.446   3.463   7.552 -0.1513 -0.0362  0.2576
  198MOL0     C26605   1.318   3.495   7.636 -0.3264  0.2437 -0.5421
  198MOL0     C26606   1.194   3.414   7.601  0.7555 -0.7293  0.4117
  198MOL0     C26607   1.102   3.400   7.728 -0.2828 -0.2301  0.3070
  198MOL0     C26608   0.983   3.305   7.693  0.0526  1.1274  0.1242
  198MOL0     C26609   0.901   3.273   7.809 -0.4153 -0.9131  0.2078
  198MOL0     C26610   0.791   3.174   7.779 -0.3117 -0.5232  0.2773
  198MOL0     C26611   0.696   3.216   7.667 -0.7127  0.1270  0.7661
  198MOL0     N26612   0.610   3.101   7.636  0.0741 -0.4990  0.0961
  198MOL0     C26613   0.646   2.981   7.578  0.5203 -0.4862 -0.7383
  198MOL0     C26614   0.532   2.911   7.564 -0.6995  0.0360 -0.3262
  198MOL0     C26615   0.507   2.775   7.495 -0.1316 -0.2656  0.0753
  198MOL0     C26616   0.605   2.766   7.372 -1.0532  0.1912  0.5157
  198MOL0     C26617   0.558   2.640   7.291  0.0147 -0.6548  0.7333
  198MOL0     C26618   0.636   2.631   7.163 -0.1410  0.5640 -0.4770
  198MOL0     O26619   0.593   2.738   7.072  0.4314  0.4908  0.7286
  198MOL0     C26620   0.502   2.714   6.974 -1.6063  0.1157 -0.8384
  198MOL0     C26621   0.456   2.590   6.936 -0.0846 -0.3709  0.6832
  198MOL0     C26622   0.356   2.578   6.837 -0.0518  0.7456  0.4624
  198MOL0     C26623   0.287   2.676   6.780 -0.3997 -0.1619  1.1880
  198MOL0     C26624   0.182   2.651   6.683 -0.6624 -0.1535 -0.1450
  198MOL0     O26625   0.094   2.748   6.664 -0.1415 -0.2795 -0.0221
  198MOL0     C26626  -0.007   2.715   6.574  1.1752  0.0673  0.3277
  198MOL0     C26627  -0.007   2.759   6.447 -0.1795  0.6294 -0.1234
  198MOL0     C26628  -0.113   2.732   6.354 -0.6098  0.7312 -0.9517
  198MOL0     C26629  -0.233   2.669   6.389 -1.0104  0.8744 -0.8648
  198MOL0     O26630  -0.340   2.640   6.319 -0.5010  1.0436 -0.0564
  198MOL0     C26631  -0.376   2.747   6.220 -0.5678  0.8070 -0.9548
  198MOL0     C26632  -0.521   2.762   6.195 -0.0183 -0.2150  0.3610
  198MOL0     C26633  -0.603   2.693   6.309 -0.2241 -0.4604 -0.1133
  198MOL0     C26634  -0.746   2.715   6.287 -0.3746 -0.5029 -1.0424
  198MOL0     C26635  -0.828   2.654   6.400 -0.4156 -0.9442 -0.2159
  198MOL0     C26636  -0.837   2.754   6.525 -1.4694 -0.6052  1.3071
  198MOL0     C26637  -0.955   2.711   6.615  0.2748 -0.1372  0.3754
  198MOL0     C26638  -0.932   2.579   6.680 -0.3064  0.1683  0.5464
  198MOL0    Cl26639  -1.036   2.537   6.819  0.0304  0.2285  0.2103
  198MOL0     C26640  -0.232   2.628   6.522  0.2369 -0.5767 -0.0423
  198MOL0     C26641  -0.126   2.648   6.620  0.9785  0.3118  1.2667
  198MOL0     O26642   0.184   2.546   6.619 -0.3056 -0.3349  0.8912
  198MOL0     C26643   0.336   2.806   6.810  0.5259 -0.0690 -0.1383
  198MOL0     C26644   0.441   2.822   6.908  0.7421 -0.1762 -1.0773
  198MOL0     N26645   0.426   2.975   7.619 -0.3422  0.1241 -0.7194
  198MOL0     N26646   0.479   3.085   7.675  0.0683 -1.4178 -0.4096
  198MOL0     C26647   1.792   3.494   7.639  0.5740  0.3131 -0.1313
  198MOL0     C26648   1.915   3.473   7.583 -0.2598 -1.1525 -0.1502
  198MOL0     C26649   2.281   3.390   7.394 -0.2201  0.0538  0.1311
  198MOL0     C26650   2.327   3.351   7.266  0.1585  1.0899  0.0118
  198MOL0     C26651   2.458   3.380   7.225 -0.2805 -0.1831 -0.0447
  198MOL0     C26652   2.542   3.442   7.321 -0.4464 -0.1954  0.3298
  198MOL0     O26653   2.668   3.474   7.263 -0.7875  0.9264 -0.7334
  198MOL0     C26654   2.693   3.621   7.269  0.0255  0.0058  0.1846
  198MOL0     C26655   2.846   3.637   7.236  0.3620  0.3122 -0.4541
  198MOL0     C26656   2.931   3.594   7.348 -0.3228  0.0963 -0.3829
  198MOL0     C26657   3.082   3.614   7.299 -0.0036 -0.7847 -0.0197
  198MOL0     C26658   3.180   3.530   7.361 -0.8494  0.4674  0.2716
  198MOL0     C26659   3.263   3.454   7.408 -0.1632 -0.1568  0.4047
  198MOL0     C26660   2.501   3.462   7.451 -0.3341 -1.0234  0.0131
  198MOL0     C26661   2.375   3.436   7.493  0.3103 -0.6513  0.7684
  198MOL0     C26662   2.339   3.463   7.633 -0.1974 -0.2437  0.3023
  198MOL0     H26663   1.848   3.496   7.256  0.6371 -0.8947 -0.2938
  198MOL0     H26664   1.626   3.535   7.342 -1.8674 -2.1213  2.0975
  198MOL0     H26665   1.444   3.520   7.459  1.5152  1.2899  0.9931
  198MOL0     H26666   1.471   3.357   7.542 -1.3264 -0.2795 -0.2772
  198MOL0     H26667   1.305   3.603   7.636  0.9513  0.4129 -0.2169
  198MOL0     H26668   1.351   3.462   7.736  0.1394  0.9419 -0.4612
  198MOL0     H26669   1.229   3.321   7.557  2.9505  0.0552  0.3763
  198MOL0     H26670   1.137   3.464   7.521  2.2867  0.4056 -0.0182
  198MOL0     H26671   1.160   3.360   7.812 -0.4432  2.2012  1.6558
  198MOL0     H26672   1.061   3.498   7.753  0.1275  0.2486 -0.8599
  198MOL0     H26673   0.918   3.347   7.616  0.0063 -0.1052 -0.5385
  198MOL0     H26674   1.024   3.216   7.645  0.4299  1.3852 -0.0404
  198MOL0     H26675   0.972   3.236   7.884  1.4431 -1.0630 -1.5353
  198MOL0     H26676   0.853   3.360   7.854 -1.6305 -1.8976  0.8939
  198MOL0     H26677   0.734   3.151   7.869 -0.4181 -0.2116  0.2887
  198MOL0     H26678   0.827   3.077   7.741 -2.0186 -1.1472  0.1654
  198MOL0     H26679   0.657   3.316   7.691  2.6363  2.0626 -1.0101
  198MOL0     H26680   0.738   3.235   7.568  0.7204  2.0513  1.6567
  198MOL0     H26681   0.743   2.957   7.535  2.3426  0.7953  2.3003
  198MOL0     H26682   0.517   2.697   7.572  0.9359 -0.4892 -0.2758
  198MOL0     H26683   0.401   2.780   7.470  0.2730 -0.9704 -1.9382
  198MOL0     H26684   0.600   2.855   7.309  0.6319  0.6017  0.9093
  198MOL0     H26685   0.705   2.764   7.415 -1.1627 -1.1571  0.7403
  198MOL0     H26686   0.453   2.659   7.267 -0.5788  0.2576  3.6632
  198MOL0     H26687   0.574   2.551   7.352  0.6834 -0.4625  0.8403
  198MOL0     H26688   0.645   2.534   7.113  1.5029  1.6679 -2.5077
  198MOL0     H26689   0.740   2.658   7.186  1.0540 -1.4961 -2.9770
  198MOL0     H26690   0.477   2.497   6.989  0.8263 -0.1654  0.7046
  198MOL0     H26691   0.330   2.477   6.808 -0.4204  1.0519 -0.3045
  198MOL0     H26692   0.085   2.814   6.428 -1.8713  3.0161 -1.9618
  198MOL0     H26693  -0.099   2.775   6.255 -1.6083  1.3960 -0.8257
  198MOL0     H26694  -0.352   2.844   6.264  0.7331  0.7196 -1.4324
  198MOL0     H26695  -0.325   2.713   6.129 -0.4758 -2.1406  0.0962
  198MOL0     H26696  -0.548   2.867   6.179 -0.6760 -0.3009  0.8739
  198MOL0     H26697  -0.545   2.708   6.103 -0.9863 -1.1640  1.1451
  198MOL0     H26698  -0.570   2.590   6.326 -0.7928 -0.5146  0.7146
  198MOL0     H26699  -0.578   2.763   6.389 -0.4084  1.6516 -1.7800
  198MOL0     H26700  -0.766   2.668   6.190  1.2941 -0.2225 -1.5533
  198MOL0     H26701  -0.777   2.820   6.288  2.4268  0.4015  0.9159
  198MOL0     H26702  -0.785   2.554   6.410  0.5614 -0.6951 -1.5963
  198MOL0     H26703  -0.934   2.649   6.373 -0.3939 -2.6165 -0.0667
  198MOL0     H26704  -0.735   2.748   6.563 -0.5135 -1.0357 -1.1816
  198MOL0     H26705  -0.848   2.858   6.494 -1.0102 -1.1452 -0.7886
  198MOL0     H26706  -1.050   2.705   6.561  1.6827  1.6456 -2.5761
  198MOL0     H26707  -0.960   2.799   6.680 -1.1933  0.3240 -0.3137
  198MOL0     H26708  -0.944   2.514   6.593  2.2377  0.9489 -0.4931
  198MOL0     H26709  -0.825   2.578   6.704 -0.1717  1.6740  0.1467
  198MOL0     H26710  -0.318   2.579   6.568  1.2592 -2.6660 -0.2385
  198MOL0     H26711  -0.141   2.615   6.722  0.2882  1.0555  1.4133
  198MOL0     H26712   0.288   2.899   6.780 -2.2690 -1.1616  0.6398
  198MOL0     H26713   0.473   2.921   6.939  1.0158  0.4049 -3.0974
  198MOL0     H26714   1.763   3.480   7.743 -1.8484 -3.0713 -1.1012
  198MOL0     H26715   1.998   3.451   7.649 -0.2132  1.0167  0.6130
  198MOL0     H26716   2.259   3.310   7.192 -1.0199  4.7257 -1.1420
  198MOL0     H26717   2.489   3.358   7.124  1.1839  2.5435 -0.2787
  198MOL0     H26718   2.654   3.679   7.353 -1.2855 -0.1029 -0.3197
  198MOL0     H26719   2.629   3.667   7.193 -0.2425  0.2855  0.5721
  198MOL0     H26720   2.858   3.743   7.211  1.7674 -0.2353 -2.3056
  198MOL0     H26721   2.875   3.573   7.152 -1.1116 -1.0119 -0.0135
  198MOL0     H26722   2.908   3.491   7.374  2.1030 -0.5244 -0.4284
  198MOL0     H26723   2.917   3.657   7.436  1.1192  0.9420 -0.7208
  198MOL0     H26724   3.096   3.598   7.192 -0.9339 -1.3531 -0.0648
  198MOL0     H26725   3.116   3.715   7.324  1.9065 -1.0561 -1.2978
  198MOL0     H26726   3.319   3.368   7.440  3.2619  1.7447  0.1017
  198MOL0     H26727   2.568   3.514   7.518 -1.9668  0.9902  0.1648
  198MOL0     H26728   2.333   3.571   7.648  0.2601  0.1656 -2.1220
  198MOL0     H26729   2.250   3.413   7.671  0.0234  0.1801  1.4130
  198MOL0     H26730   2.415   3.416   7.698  0.4568  1.9166  1.1872
  199MOL0     O26731   7.499  11.026   3.241 -0.0620 -0.2339  0.7771
  199MOL0     C26732   7.460  10.968   3.346  0.3848  0.2385 -0.2905
  199MOL0     O26733   7.378  10.864   3.351  0.2923  0.3500 -0.3262
  199MOL0     C26734   7.324  10.826   3.231 -0.0500  0.2635  0.1670
  199MOL0     C26735   7.247  10.923   3.154 -0.3773  0.5385  0.5198
  199MOL0     C26736   7.177  10.868   3.032  0.6894  0.3625 -0.5669
  199MOL0     C26737   7.167  10.730   3.005 -0.1925 -0.1283  0.0362
  199MOL0     O26738   7.097  10.673   2.899  0.6158  0.9432  0.5106
  199MOL0     C26739   7.016  10.758   2.813 -0.7320 -0.4861  0.0809
  199MOL0     C26740   6.957  10.696   2.690 -0.4291 -0.1275 -0.2987
  199MOL0     C26741   7.062  10.613   2.607  0.4386 -0.1272 -1.1465
  199MOL0     C26742   6.997  10.545   2.485  0.1666  0.5499 -0.1472
  199MOL0     C26743   7.104  10.450   2.419  0.2834 -0.3693  0.3773
  199MOL0     C26744   7.093  10.311   2.475  0.6355 -1.1170 -1.5323
  199MOL0     C26745   7.205  10.240   2.408  0.8836  0.2679  0.2396
  199MOL0     C26746   7.263  10.137   2.506 -0.2877 -1.1479  0.3017
  199MOL0     N26747   7.363  10.056   2.432 -0.7270 -0.9626  0.1316
  199MOL0     C26748   7.336   9.941   2.371  0.1783  0.5172  0.0923
  199MOL0     C26749   7.447   9.895   2.314 -0.2143  0.2415 -0.7773
  199MOL0     C26750   7.462   9.755   2.261 -0.0890 -0.3608  0.4124
  199MOL0     C26751   7.501   9.740   2.106  0.4180  0.1073 -0.7755
  199MOL0     C26752   7.644   9.793   2.071 -0.0795 -0.0145 -0.9946
  199MOL0     C26753   7.686   9.762   1.931 -0.3521  0.3177  1.0268
  199MOL0     O26754   7.592   9.799   1.824 -0.4844 -0.5795 -0.4412
  199MOL0     C26755   7.593   9.721   1.706  0.9318 -0.0297  0.3265
  199MOL0     C26756   7.478   9.723   1.624 -0.6929  0.3358 -0.8579
  199MOL0     C26757   7.447   9.633   1.523  0.4347  0.3695  0.7541
  199MOL0     C26758   7.545   9.538   1.491  1.2842 -0.6182 -0.0209
  199MOL0     C26759   7.529   9.440   1.377  0.4221  0.4978  0.9250
  199MOL0     O26760   7.397   9.414   1.338 -0.1503  0.7308 -0.2437
  199MOL0     C26761   7.344   9.321   1.243 -0.3021 -0.6478 -0.3398
  199MOL0     C26762   7.205   9.340   1.217  0.7166 -0.2356  0.7835
  199MOL0     C26763   7.140   9.272   1.112 -0.3621 -0.0514 -0.6422
  199MOL0     C26764   7.218   9.169   1.051  0.3805 -1.4050 -0.7428
  199MOL0     O26765   7.149   9.117   0.938  0.3276  0.0781 -0.0587
  199MOL0     C26766   7.226   9.040   0.846  0.1696 -0.7863 -0.2178
  199MOL0     C26767   7.137   9.024   0.722  0.2614  0.3777  0.3180
  199MOL0     C26768   7.213   8.958   0.606 -0.0559  0.0133 -0.0316
  199MOL0     C26769   7.136   8.953   0.480 -0.2674 -1.2229  0.3566
  199MOL0     C26770   7.158   9.082   0.396 -0.5815 -0.5497 -0.5080
  199MOL0     C26771   7.055   9.071   0.280  0.8037 -0.6412  0.4736
  199MOL0     C26772   7.086   9.188   0.185  0.8357  0.2443  0.3668
  199MOL0     C26773   7.016   9.161   0.053  0.7170  0.4289  0.5811
  199MOL0    Cl26774   6.846   9.116   0.078  0.0778  0.1175 -0.7978
  199MOL0     C26775   7.354   9.147   1.082  0.3201  1.1541 -0.2148
  199MOL0     C26776   7.420   9.228   1.179 -0.7788  1.4124  0.4168
  199MOL0     O26777   7.629   9.382   1.331  0.2852 -0.9450 -0.3808
  199MOL0     C26778   7.662   9.533   1.570 -0.0564 -0.7569  0.8258
  199MOL0     C26779   7.692   9.627   1.668  0.2172 -0.3100 -0.4270
  199MOL0     N26780   7.548   9.992   2.340 -0.0637 -0.0310  0.3904
  199MOL0     N26781   7.499  10.089   2.408  0.1655  0.0157  0.1570
  199MOL0     C26782   7.222  10.645   3.093  0.3656 -0.0297 -1.0962
  199MOL0     C26783   7.302  10.693   3.198 -0.6710 -0.6668 -0.3107
  199MOL0     C26784   7.505  11.022   3.473  0.5818 -0.3334 -1.0533
  199MOL0     C26785   7.546  11.153   3.477  0.5730 -0.3046 -0.0645
  199MOL0     C26786   7.594  11.205   3.600 -0.6436  0.3926  0.1333
  199MOL0     C26787   7.600  11.135   3.715 -0.6337  0.5571  0.0991
  199MOL0     O26788   7.643  11.186   3.840  0.2979  1.1464  0.2122
  199MOL0     C26789   7.721  11.303   3.857 -0.0436 -0.7980 -0.6840
  199MOL0     C26790   7.868  11.266   3.876  0.1548  0.0376 -0.6224
  199MOL0     C26791   7.889  11.196   4.019  0.0631 -0.6947 -0.4583
  199MOL0     C26792   8.025  11.262   4.084  0.2166  0.5956  0.6902
  199MOL0     C26793   8.014  11.407   4.098 -0.1077 -1.0924 -0.7937
  199MOL0     C26794   8.009  11.532   4.103  0.2564  0.2116  1.2526
  199MOL0     C26795   7.551  11.004   3.706  0.4062  0.7130  0.1876
  199MOL0     C26796   7.503  10.941   3.590 -0.4168  0.1890  0.6462
  199MOL0     C26797   7.467  10.796   3.604  1.1074  0.9789 -0.0970
  199MOL0     H26798   7.235  11.029   3.172  0.9645  0.8086 -0.0088
  199MOL0     H26799   7.125  10.942   2.972 -0.2333  1.3095  1.3005
  199MOL0     H26800   6.946  10.805   2.883  0.2230 -0.9452  1.3828
  199MOL0     H26801   7.086  10.836   2.782  1.9793 -3.9123 -3.4276
  199MOL0     H26802   6.925  10.779   2.626 -1.2316  1.3454  1.8822
  199MOL0     H26803   6.865  10.637   2.702 -0.9673  1.1000  2.2410
  199MOL0     H26804   7.106  10.538   2.673  1.6017  0.5465 -1.1265
  199MOL0     H26805   7.146  10.670   2.566  0.8094  0.3238  0.1675
  199MOL0     H26806   6.916  10.485   2.527  1.4741  0.2071  2.0731
  199MOL0     H26807   6.960  10.617   2.412 -0.2556  0.3467 -0.1321
  199MOL0     H26808   7.070  10.452   2.315  0.5695  2.7454  0.2632
  199MOL0     H26809   7.205  10.492   2.423  0.6507 -1.2997  1.3330
  199MOL0     H26810   7.113  10.320   2.582 -2.3248 -0.1352 -0.9473
  199MOL0     H26811   7.003  10.251   2.462  0.9361 -2.7115  2.5037
  199MOL0     H26812   7.281  10.315   2.383  0.6614  0.3480 -0.2087
  199MOL0     H26813   7.160  10.189   2.322  2.3694 -0.9153  0.1328
  199MOL0     H26814   7.324  10.183   2.585  0.8139 -1.3660 -0.3937
  199MOL0     H26815   7.186  10.079   2.556 -3.7788  2.7614 -0.0471
  199MOL0     H26816   7.246   9.879   2.367  0.0680  0.6958 -0.2423
  199MOL0     H26817   7.545   9.714   2.319 -0.8634  2.4141  3.7922
  199MOL0     H26818   7.373   9.692   2.279  0.3999 -1.5277 -1.0336
  199MOL0     H26819   7.504   9.634   2.080 -2.9549 -0.6238  1.1189
  199MOL0     H26820   7.427   9.789   2.041  0.3621  0.9927 -0.0637
  199MOL0     H26821   7.718   9.758   2.144 -1.9457  0.3989  1.2154
  199MOL0     H26822   7.635   9.900   2.090 -4.4083 -0.1498 -1.2205
  199MOL0     H26823   7.703   9.654   1.928 -1.5729  0.1370 -0.8877
  199MOL0     H26824   7.780   9.815   1.912  0.3826 -1.8933 -2.4555
  199MOL0     H26825   7.403   9.800   1.636 -2.0316 -0.7896 -1.7268
  199MOL0     H26826   7.350   9.640   1.475  0.1130 -2.7639  0.6870
  199MOL0     H26827   7.144   9.421   1.256 -0.7723 -1.8118  1.8614
  199MOL0     H26828   7.040   9.300   1.078 -1.3254 -3.4744 -1.1016
  199MOL0     H26829   7.319   9.093   0.824  0.8236 -1.1571  1.5280
  199MOL0     H26830   7.263   8.945   0.884  0.8678 -0.3986  0.0869
  199MOL0     H26831   7.055   8.963   0.761 -0.4200  0.6923 -0.5982
  199MOL0     H26832   7.114   9.128   0.696  0.7764  1.6967  4.3780
  199MOL0     H26833   7.309   9.007   0.588  0.1808 -0.9855 -1.6692
  199MOL0     H26834   7.233   8.854   0.634 -2.0563  0.1231  2.2008
  199MOL0     H26835   7.029   8.944   0.504 -1.2110  3.1905 -1.2428
  199MOL0     H26836   7.177   8.870   0.422  3.3041 -1.7290  3.2371
  199MOL0     H26837   7.261   9.082   0.360 -1.0879  0.0778 -2.0658
  199MOL0     H26838   7.137   9.177   0.445  0.4486  0.9750 -2.8881
  199MOL0     H26839   7.066   8.972   0.235  3.2600 -1.3879  2.4950
  199MOL0     H26840   6.954   9.085   0.321  0.9863 -0.9020  1.0250
  199MOL0     H26841   7.193   9.175   0.166  0.4798  0.0628 -1.7272
  199MOL0     H26842   7.071   9.291   0.219 -1.1769  0.1079 -0.0124
  199MOL0     H26843   7.022   9.251  -0.009  3.1055 -0.0608  0.0052
  199MOL0     H26844   7.061   9.079  -0.003 -1.3478 -0.0782 -0.4233
  199MOL0     H26845   7.424   9.077   1.037  0.9842  0.1918  2.1486
  199MOL0     H26846   7.524   9.205   1.200 -1.7276 -1.8518  2.2531
  199MOL0     H26847   7.739   9.465   1.536  0.1950 -0.1193  0.0855
  199MOL0     H26848   7.783   9.614   1.726  0.2558 -3.3287 -0.9923
  199MOL0     H26849   7.198  10.540   3.086 -1.2601  0.2426 -0.2705
  199MOL0     H26850   7.345  10.615   3.259  0.9963 -4.1684 -5.3042
  199MOL0     H26851   7.569  11.213   3.390  1.1264 -0.1234  0.2036
  199MOL0     H26852   7.614  11.311   3.588 -3.6207  1.0940  0.7035
  199MOL0     H26853   7.686  11.351   3.949 -0.8794  0.5423 -1.6654
  199MOL0     H26854   7.703  11.364   3.768  0.3740 -1.0372 -0.9334
  199MOL0     H26855   7.935  11.351   3.862  2.4744 -1.7306 -0.9973
  199MOL0     H26856   7.896  11.191   3.801 -0.1939 -0.6968 -0.0415
  199MOL0     H26857   7.907  11.089   4.007 -0.3640 -0.6343 -1.7714
  199MOL0     H26858   7.797  11.201   4.077 -1.4190  1.9052 -2.7703
  199MOL0     H26859   8.041  11.214   4.181  1.7164  1.0876  0.7111
  199MOL0     H26860   8.106  11.234   4.017  0.2848  1.0463  0.5832
  199MOL0     H26861   8.000  11.638   4.113  1.1399  0.2836  1.3557
  199MOL0     H26862   7.525  10.951   3.798  0.0804  0.1720 -0.2112
  199MOL0     H26863   7.495  10.768   3.706  0.1401 -0.8064 -0.2798
  199MOL0     H26864   7.358  10.789   3.594  1.0819  1.9239 -0.6066
  199MOL0     H26865   7.509  10.724   3.533 -1.5431 -0.6468 -0.1723
  200MOL0     O26866   1.629   9.280   8.878  0.8454 -0.1108 -1.3725
  200MOL0     C26867   1.649   9.323   8.988 -0.5424 -0.3951 -0.0913
  200MOL0     O26868   1.556   9.390   9.063 -0.2195 -0.1079 -0.5254
  200MOL0     C26869   1.433   9.406   9.006  0.8314  0.1161 -0.1910
  200MOL0     C26870   1.397   9.454   8.873 -0.1751  0.4025 -0.4548
  200MOL0     C26871   1.266   9.467   8.834  0.5900 -0.1934  0.8576
  200MOL0     C26872   1.157   9.430   8.914 -0.5969 -0.2734  0.8797
  200MOL0     O26873   1.035   9.457   8.853  0.4121  0.4000  0.4326
  200MOL0     C26874   0.946   9.347   8.856 -0.2204 -0.5677  0.3874
  200MOL0     C26875   0.871   9.318   8.719  0.4831 -0.8667  0.1149
  200MOL0     C26876   0.768   9.210   8.740 -0.5459 -0.1813  0.0045
  200MOL0     C26877   0.647   9.236   8.643  1.1738  0.9729 -0.6446
  200MOL0     C26878   0.542   9.130   8.673 -0.0228 -0.5817  0.1143
  200MOL0     C26879   0.438   9.176   8.779 -0.2477  0.4597 -0.2754
  200MOL0     C26880   0.320   9.077   8.768  0.4768 -0.3452 -0.4294
  200MOL0     C26881   0.199   9.148   8.852  0.0380 -0.4820 -0.9679
  200MOL0     N26882   0.224   9.175   8.994 -0.1161  0.0933  0.1979
  200MOL0     C26883   0.246   9.072   9.077 -0.0862  0.0050 -0.3306
  200MOL0     C26884   0.282   9.134   9.194 -0.3170  0.0163 -0.6540
  200MOL0     C26885   0.325   9.052   9.317  0.5060 -0.2607  0.4223
  200MOL0     C26886   0.200   9.010   9.384  0.4388  0.2289 -0.1511
  200MOL0     C26887   0.207   8.940   9.524 -0.6075  0.1554 -0.6023
  200MOL0     C26888   0.067   8.901   9.576  0.4220  0.2769 -0.3060
  200MOL0     O26889   0.076   8.872   9.720  0.7093  0.1930  0.2870
  200MOL0     C26890  -0.039   8.831   9.784  0.1381 -0.4423 -0.2468
  200MOL0     C26891  -0.171   8.871   9.759  0.2106 -0.8730 -0.6288
  200MOL0     C26892  -0.274   8.826   9.846  0.9188  0.6739 -0.1224
  200MOL0     C26893  -0.245   8.756   9.965 -0.7072 -0.1769 -0.2608
  200MOL0     C26894  -0.341   8.728  10.068  0.4691  0.0065 -0.5648
  200MOL0     O26895  -0.296   8.647  10.166 -0.0439 -0.0488 -0.2699
  200MOL0     C26896  -0.376   8.614  10.286 -0.5065 -0.0270 -0.0315
  200MOL0     C26897  -0.455   8.711  10.345 -0.7952  0.6297 -0.3558
  200MOL0     C26898  -0.540   8.673  10.449  0.2637  0.0566 -1.0680
  200MOL0     C26899  -0.546   8.532  10.488 -0.1502  0.2839  0.3637
  200MOL0     O26900  -0.620   8.471  10.593  0.1208  0.2499 -0.3107
  200MOL0     C26901  -0.715   8.549  10.656 -0.7813 -0.8197  0.5396
  200MOL0     C26902  -0.807   8.450  10.721  0.3344  0.0097  0.6701
  200MOL0     C26903  -0.944   8.518  10.744  0.7906  0.3970 -0.6926
  200MOL0     C26904  -0.954   8.641  10.844  0.4717  0.2130 -0.1250
  200MOL0     C26905  -1.106   8.676  10.855  0.1773 -0.2157 -0.0476
  200MOL0     C26906  -1.126   8.812  10.902  0.1580  0.3388 -0.6206
  200MOL0     C26907  -1.260   8.817  10.980 -0.3447  0.3954 -0.3761
  200MOL0     C26908  -1.312   8.955  11.013 -0.3944 -0.4134  0.2881
  200MOL0    Cl26909  -1.477   8.951  11.085 -0.2420 -0.0068  0.2143
  200MOL0     C26910  -0.458   8.437  10.431 -0.6668  0.2956 -0.2561
  200MOL0     C26911  -0.372   8.481  10.337 -1.0955 -0.0176  0.4562
  200MOL0     O26912  -0.452   8.776  10.058 -0.7703 -0.1427 -0.4269
  200MOL0     C26913  -0.109   8.710   9.983  0.1651  0.0162 -0.9606
  200MOL0     C26914  -0.008   8.759   9.895  0.3346 -0.2610 -0.3466
  200MOL0     N26915   0.290   9.270   9.181 -0.3802 -0.4021 -0.0810
  200MOL0     N26916   0.253   9.293   9.058 -0.1378  0.2646  0.0543
  200MOL0     C26917   1.185   9.386   9.045 -0.2949 -0.1930 -0.3547
  200MOL0     C26918   1.323   9.384   9.086  0.3066 -0.1889  0.1766
  200MOL0     C26919   1.764   9.275   9.066 -0.7911 -0.3045  0.5937
  200MOL0     C26920   1.870   9.372   9.096 -0.3761 -0.6639 -0.2090
  200MOL0     C26921   1.986   9.329   9.147  0.3731  0.3885  0.0594
  200MOL0     C26922   2.006   9.189   9.174 -0.3885 -0.9232 -0.2388
  200MOL0     O26923   2.124   9.132   9.197 -0.2705 -0.2102 -0.8643
  200MOL0     C26924   2.247   9.211   9.179  1.2481 -0.4494  0.3365
  200MOL0     C26925   2.372   9.125   9.213  0.3921 -0.3150  0.5293
  200MOL0     C26926   2.496   9.194   9.164  0.6240 -0.4687  0.3153
  200MOL0     C26927   2.556   9.104   9.059 -0.4977  0.7311  0.2504
  200MOL0     C26928   2.674   9.164   8.997  0.6389  0.2689  0.5208
  200MOL0     C26929   2.769   9.225   8.959 -0.1895 -0.1458  0.5491
  200MOL0     C26930   1.888   9.105   9.163 -0.5856 -0.7927  0.7636
  200MOL0     C26931   1.769   9.141   9.105 -0.1027 -0.6403 -1.0147
  200MOL0     C26932   1.658   9.032   9.088  0.4000 -0.5502  0.1268
  200MOL0     H26933   1.484   9.472   8.810 -0.0877 -0.8641 -0.7370
  200MOL0     H26934   1.246   9.481   8.728  1.9996 -4.5799 -0.2114
  200MOL0     H26935   0.985   9.247   8.876  0.0027 -0.5420  0.0890
  200MOL0     H26936   0.867   9.355   8.932 -0.8677  2.8119 -0.5014
  200MOL0     H26937   0.951   9.283   8.653  0.9500  1.3033 -0.5558
  200MOL0     H26938   0.826   9.410   8.679  0.5504 -0.9942 -0.2539
  200MOL0     H26939   0.736   9.206   8.845 -0.0388 -2.7801  0.1306
  200MOL0     H26940   0.816   9.119   8.705  5.2327  1.7782  1.6401
  200MOL0     H26941   0.600   9.334   8.659 -0.2197  0.0494  1.2334
  200MOL0     H26942   0.675   9.237   8.537 -1.0588  0.1721 -1.2987
  200MOL0     H26943   0.503   9.103   8.575  0.7827 -1.2951 -0.0220
  200MOL0     H26944   0.591   9.038   8.706  0.9275  0.2030  0.9447
  200MOL0     H26945   0.490   9.178   8.875  0.8744 -0.1335 -0.8544
  200MOL0     H26946   0.409   9.280   8.762 -0.7479  0.4017  0.1752
  200MOL0     H26947   0.346   8.989   8.828 -1.0075  0.3503  1.3550
  200MOL0     H26948   0.289   9.051   8.666 -1.6108  0.7868 -0.1428
  200MOL0     H26949   0.177   9.247   8.810  1.3572 -0.0578 -0.6986
  200MOL0     H26950   0.111   9.084   8.841  0.5106 -1.2272 -0.5011
  200MOL0     H26951   0.246   8.965   9.058 -4.2586 -0.4857  1.2020
  200MOL0     H26952   0.383   8.965   9.283  0.2534  0.1017 -1.0398
  200MOL0     H26953   0.385   9.102   9.392 -1.7798  1.8184  0.9935
  200MOL0     H26954   0.146   9.101   9.411  0.4586  0.0727  0.4258
  200MOL0     H26955   0.145   8.950   9.310 -0.4415  0.8555 -0.0154
  200MOL0     H26956   0.254   9.018   9.585 -2.7766  1.6956 -0.7854
  200MOL0     H26957   0.261   8.844   9.520 -0.2390  0.1331  2.6128
  200MOL0     H26958   0.024   8.819   9.518 -2.1617  2.8909 -2.3699
  200MOL0     H26959   0.005   8.988   9.554  0.3404  0.1998 -0.3808
  200MOL0     H26960  -0.184   8.938   9.675  1.4421  2.4361  1.5894
  200MOL0     H26961  -0.378   8.856   9.845  0.2375 -1.3127  2.1690
  200MOL0     H26962  -0.448   8.813  10.308 -1.2186 -0.5270 -4.0525
  200MOL0     H26963  -0.592   8.745  10.512  1.7033  1.9792 -1.9559
  200MOL0     H26964  -0.683   8.626  10.726 -3.0166  1.8241 -1.1238
  200MOL0     H26965  -0.757   8.606  10.572  2.9606 -1.5835 -2.1107
  200MOL0     H26966  -0.813   8.369  10.647 -0.0667  2.6889 -2.4456
  200MOL0     H26967  -0.771   8.403  10.813  0.0185 -0.3896  0.5931
  200MOL0     H26968  -0.979   8.540  10.643  1.6869  0.4429 -1.0108
  200MOL0     H26969  -1.016   8.439  10.767  0.2872  1.4842  1.7746
  200MOL0     H26970  -0.914   8.730  10.795 -1.7922  0.4585 -1.6964
  200MOL0     H26971  -0.908   8.620  10.940  2.2550  2.1334 -0.4847
  200MOL0     H26972  -1.163   8.607  10.919 -0.8489 -0.2539 -0.9599
  200MOL0     H26973  -1.160   8.667  10.760 -0.9181  1.1967  0.4147
  200MOL0     H26974  -1.052   8.844  10.976 -0.7990  0.2156  0.4206
  200MOL0     H26975  -1.121   8.881  10.818  0.9109  2.5322  1.1280
  200MOL0     H26976  -1.245   8.760  11.072  2.8180  2.4468  0.5438
  200MOL0     H26977  -1.329   8.761  10.917  1.0670 -3.0597  0.8845
  200MOL0     H26978  -1.242   9.003  11.081 -2.1031  2.8104 -0.0466
  200MOL0     H26979  -1.320   9.015  10.921  0.1073  1.4452  1.4008
  200MOL0     H26980  -0.464   8.333  10.460 -2.6153 -0.3669 -2.6706
  200MOL0     H26981  -0.297   8.418  10.291 -0.3542  0.4141  1.0413
  200MOL0     H26982  -0.072   8.656  10.069  0.0339  1.2742 -0.0847
  200MOL0     H26983   0.095   8.739   9.920  0.0685  0.2485  1.2558
  200MOL0     H26984   1.104   9.352   9.108  1.0349 -1.7229  0.5987
  200MOL0     H26985   1.338   9.349   9.187  0.7584  1.6833  0.8029
  200MOL0     H26986   1.874   9.470   9.050  0.1200 -0.1889  0.8268
  200MOL0     H26987   2.070   9.398   9.143  1.3852 -0.6815  1.9167
  200MOL0     H26988   2.237   9.298   9.245 -2.4158  0.5190 -1.2694
  200MOL0     H26989   2.250   9.247   9.076 -0.9847  0.5946  0.5828
  200MOL0     H26990   2.363   9.030   9.160 -1.2596 -1.0438  2.0286
  200MOL0     H26991   2.388   9.112   9.320 -0.7933  0.0060  0.7544
  200MOL0     H26992   2.551   9.220   9.254 -2.2180 -1.6998  2.5806
  200MOL0     H26993   2.474   9.286   9.110  1.0275 -0.3981  0.2744
  200MOL0     H26994   2.587   9.012   9.110  1.0450  0.1626 -1.5850
  200MOL0     H26995   2.485   9.079   8.980  0.5263 -2.6742  0.2380
  200MOL0     H26996   2.863   9.253   8.916  0.6096 -0.4251  2.0570
  200MOL0     H26997   1.913   9.003   9.191  1.5883 -1.1297 -1.9535
  200MOL0     H26998   1.590   9.044   9.002  1.1182 -1.3800 -0.5784
  200MOL0     H26999   1.710   8.936   9.082  3.6449  1.1476 -2.1190
  200MOL0     H27000   1.597   9.022   9.178 -1.0153 -0.5683 -0.7976
  201MOL0     O27001   8.399   1.524   3.784 -0.1682 -0.4996 -0.6608
  201MOL0     C27002   8.352   1.456   3.692  0.7839 -0.2029  0.5821
  201MOL0     O27003   8.267   1.501   3.592 -0.0970 -0.5329  0.1714
  201MOL0     C27004   8.219   1.624   3.613  0.0588  0.8393  0.5498
  201MOL0     C27005   8.295   1.739   3.583 -0.2633 -0.0170 -0.2786
  201MOL0     C27006   8.247   1.868   3.608  0.5753 -0.4500  0.1601
  201MOL0     C27007   8.114   1.887   3.659  0.3560 -0.2204  0.8486
  201MOL0     O27008   8.064   2.017   3.654  0.2008  0.1350  0.4699
  201MOL0     C27009   7.950   2.049   3.737 -0.4997 -0.6207  0.3454
  201MOL0     C27010   7.814   2.027   3.674 -0.0654  0.1166  0.8267
  201MOL0     C27011   7.761   2.153   3.601 -0.7584  0.1760  0.1922
  201MOL0     C27012   7.811   2.164   3.455  0.3944 -0.3167 -0.6233
  201MOL0     C27013   7.763   2.298   3.395  0.1456  0.5601  0.1921
  201MOL0     C27014   7.605   2.309   3.387 -0.5118  0.5777 -0.1708
  201MOL0     C27015   7.550   2.432   3.309 -0.6026 -0.2896  0.6374
  201MOL0     C27016   7.401   2.479   3.329 -0.6005  0.1247  0.1096
  201MOL0     N27017   7.306   2.374   3.290 -0.1481 -0.3890 -0.2468
  201MOL0     C27018   7.192   2.349   3.368  0.0691  0.6065 -0.2116
  201MOL0     C27019   7.096   2.297   3.281 -0.3816  0.2922  0.7225
  201MOL0     C27020   6.951   2.273   3.323 -0.3765 -0.1092 -0.8770
  201MOL0     C27021   6.879   2.143   3.273 -0.5066 -0.5685 -0.3700
  201MOL0     C27022   6.897   2.027   3.365  0.7086  0.3979  0.3522
  201MOL0     C27023   7.033   1.956   3.373  0.0189  0.1108 -0.4363
  201MOL0     O27024   7.117   2.035   3.466  0.7357 -0.4724  0.2832
  201MOL0     C27025   7.237   1.968   3.469 -0.4587 -0.1605 -0.4242
  201MOL0     C27026   7.353   2.005   3.399  1.0136 -0.7650  0.0023
  201MOL0     C27027   7.473   1.947   3.404 -0.6678  0.1435 -0.4582
  201MOL0     C27028   7.489   1.843   3.494 -0.9751 -0.8820 -0.3202
  201MOL0     C27029   7.627   1.778   3.503  0.8735 -0.1904 -0.8746
  201MOL0     O27030   7.691   1.800   3.390  0.0600  0.5496 -1.1115
  201MOL0     C27031   7.794   1.721   3.357 -0.7334  1.6829 -0.0275
  201MOL0     C27032   7.920   1.773   3.373 -1.2505  0.8007  0.5389
  201MOL0     C27033   8.026   1.691   3.331  0.2716 -0.4626  0.2505
  201MOL0     C27034   8.011   1.556   3.287 -0.0752 -0.0718 -0.5585
  201MOL0     O27035   8.114   1.482   3.232  0.9523 -0.2366  0.1699
  201MOL0     C27036   8.226   1.563   3.190 -0.4134  0.6479 -0.3712
  201MOL0     C27037   8.311   1.479   3.096 -0.6531 -0.0729 -0.0429
  201MOL0     C27038   8.438   1.559   3.058 -0.1227 -0.6552  0.3302
  201MOL0     C27039   8.536   1.458   3.005  0.4471 -0.0323  0.5079
  201MOL0     C27040   8.673   1.519   2.956 -0.8171  0.6685 -1.0130
  201MOL0     C27041   8.692   1.663   2.976 -0.4735  0.2387  0.4372
  201MOL0     C27042   8.831   1.714   2.923 -0.4347 -0.1851  0.6381
  201MOL0     C27043   8.833   1.868   2.926  0.1224 -0.0831 -0.2783
  201MOL0    Cl27044   8.849   1.918   3.099 -0.5152 -0.0678  0.1233
  201MOL0     C27045   7.879   1.510   3.284  0.0606 -0.9024  0.5837
  201MOL0     C27046   7.774   1.587   3.315  0.1895  0.3157  0.5216
  201MOL0     O27047   7.662   1.714   3.608  0.7242 -0.6968  0.4733
  201MOL0     C27048   7.379   1.801   3.577 -0.3778 -0.2305 -0.3985
  201MOL0     C27049   7.255   1.864   3.563  0.6473 -0.5494 -0.1806
  201MOL0     N27050   7.154   2.295   3.153  0.1508 -0.1792 -1.1302
  201MOL0     N27051   7.279   2.332   3.163 -0.4775  0.0352 -0.5580
  201MOL0     C27052   8.042   1.772   3.684 -0.6974  0.0243 -0.2925
  201MOL0     C27053   8.098   1.643   3.668 -0.2537 -0.4115 -0.1129
  201MOL0     C27054   8.406   1.319   3.680  0.0520 -0.8614 -0.2679
  201MOL0     C27055   8.454   1.269   3.798 -0.7073  0.3150 -0.5685
  201MOL0     C27056   8.512   1.135   3.803  1.0471  0.2887 -0.9045
  201MOL0     C27057   8.508   1.052   3.696 -0.2871  0.8048 -0.4231
  201MOL0     O27058   8.554   0.921   3.692  0.0057  0.4275  0.4281
  201MOL0     C27059   8.586   0.850   3.811  0.2938  0.1093  0.7227
  201MOL0     C27060   8.571   0.695   3.795 -0.5216 -0.0154 -0.7031
  201MOL0     C27061   8.685   0.641   3.704  1.0326 -0.7506  0.3141
  201MOL0     C27062   8.636   0.505   3.645 -0.5544 -0.0624 -1.1463
  201MOL0     C27063   8.646   0.408   3.748 -0.5003  0.1608 -0.1643
  201MOL0     C27064   8.665   0.336   3.836 -0.3604 -0.3298  0.2429
  201MOL0     C27065   8.455   1.103   3.580  0.2722  0.4552  0.1208
  201MOL0     C27066   8.408   1.231   3.565 -0.0256 -0.0935 -0.1525
  201MOL0     C27067   8.366   1.282   3.427  0.5852  0.1414 -0.3245
  201MOL0     H27068   8.392   1.734   3.535 -0.3174  1.1479 -0.5318
  201MOL0     H27069   8.319   1.948   3.593  0.6581 -0.3922  0.8435
  201MOL0     H27070   7.962   2.000   3.834 -0.3943 -1.6220 -0.1552
  201MOL0     H27071   7.941   2.157   3.752  1.5349 -0.2999 -0.3519
  201MOL0     H27072   7.750   1.991   3.756  0.9463 -4.2713 -0.0846
  201MOL0     H27073   7.813   1.956   3.592  2.8272  1.7131 -0.7442
  201MOL0     H27074   7.781   2.244   3.658  2.4348 -0.4707  0.2762
  201MOL0     H27075   7.652   2.142   3.601 -0.7528  0.1181  0.3440
  201MOL0     H27076   7.921   2.163   3.452  0.4043 -0.9477 -0.3423
  201MOL0     H27077   7.776   2.075   3.401 -1.6427  0.0785 -0.0299
  201MOL0     H27078   7.796   2.391   3.441 -2.1642  2.3121 -1.4932
  201MOL0     H27079   7.808   2.297   3.296  0.4060  0.2663  0.3094
  201MOL0     H27080   7.571   2.216   3.340 -0.8809  1.4236 -1.6247
  201MOL0     H27081   7.553   2.312   3.484 -1.9061 -1.3182 -0.7766
  201MOL0     H27082   7.555   2.415   3.201 -1.7759 -2.3161  0.8452
  201MOL0     H27083   7.595   2.520   3.356  3.4612 -1.5012 -0.5702
  201MOL0     H27084   7.395   2.503   3.435 -1.1739  0.5181 -0.0116
  201MOL0     H27085   7.376   2.565   3.267 -0.3953 -1.3648 -2.1912
  201MOL0     H27086   7.182   2.379   3.471 -0.6322  1.1189 -0.4244
  201MOL0     H27087   6.936   2.285   3.431 -0.8931 -1.9743 -0.7156
  201MOL0     H27088   6.903   2.365   3.286 -0.8396  0.5174  1.1664
  201MOL0     H27089   6.775   2.164   3.246 -0.0192  1.7378 -0.6439
  201MOL0     H27090   6.922   2.115   3.177 -1.3936 -1.1164 -0.6112
  201MOL0     H27091   6.822   1.949   3.343  0.1011  1.4567 -1.6060
  201MOL0     H27092   6.878   2.053   3.469  0.3134  1.1486  0.1030
  201MOL0     H27093   7.083   1.953   3.276  1.2462  2.3444  0.0385
  201MOL0     H27094   7.015   1.856   3.413 -2.8683  0.8435  0.3949
  201MOL0     H27095   7.339   2.092   3.335  0.8862  0.8282  2.1097
  201MOL0     H27096   7.558   1.981   3.347  0.9876  0.1087  1.8528
  201MOL0     H27097   7.943   1.874   3.406  2.3969  0.9262 -1.9113
  201MOL0     H27098   8.121   1.739   3.348 -0.9334  1.2271  2.8511
  201MOL0     H27099   8.197   1.642   3.119  1.0693  1.3070 -0.2888
  201MOL0     H27100   8.273   1.605   3.279  0.5187 -0.6021 -0.2553
  201MOL0     H27101   8.337   1.401   3.168 -1.3467 -0.3982 -0.1371
  201MOL0     H27102   8.264   1.441   3.005  1.3119 -0.9857 -0.7148
  201MOL0     H27103   8.407   1.632   2.982 -1.7958 -1.7043 -0.0317
  201MOL0     H27104   8.473   1.621   3.141 -1.1897  2.1206 -1.1260
  201MOL0     H27105   8.495   1.405   2.919 -2.3131 -3.4245  3.5346
  201MOL0     H27106   8.549   1.383   3.085  0.3578 -1.7969 -1.0650
  201MOL0     H27107   8.682   1.501   2.848 -1.4755  1.9963 -1.3151
  201MOL0     H27108   8.749   1.463   3.010 -0.4920  1.8586 -0.2042
  201MOL0     H27109   8.617   1.720   2.920  1.7626  0.9351 -2.0503
  201MOL0     H27110   8.687   1.687   3.083  1.3256  0.5049  0.5013
  201MOL0     H27111   8.839   1.684   2.818 -1.1437 -0.5828  0.6930
  201MOL0     H27112   8.907   1.667   2.986  0.4638 -1.3819 -1.2667
  201MOL0     H27113   8.924   1.914   2.885  1.0275  0.4563  2.1672
  201MOL0     H27114   8.746   1.909   2.874 -0.8480 -0.4445  1.0267
  201MOL0     H27115   7.863   1.415   3.235  3.6629 -0.2402 -2.3981
  201MOL0     H27116   7.672   1.552   3.301  0.7437 -0.9660 -0.4224
  201MOL0     H27117   7.404   1.733   3.658  5.3200 -1.8967 -3.0249
  201MOL0     H27118   7.164   1.839   3.617  0.0248  1.5665 -0.1477
  201MOL0     H27119   7.937   1.785   3.708 -0.9945 -2.9535  0.4656
  201MOL0     H27120   8.042   1.555   3.696  2.3993 -2.6246 -1.3883
  201MOL0     H27121   8.472   1.329   3.887  3.4010  0.1892 -1.1142
  201MOL0     H27122   8.559   1.114   3.899 -1.7267  2.0510  0.9934
  201MOL0     H27123   8.518   0.886   3.889  0.8588  3.3150 -0.1324
  201MOL0     H27124   8.683   0.876   3.854  0.8200 -2.9618  1.6464
  201MOL0     H27125   8.469   0.673   3.760 -0.7330 -0.2322  0.0185
  201MOL0     H27126   8.590   0.655   3.895  0.0310 -1.2492 -1.2836
  201MOL0     H27127   8.781   0.633   3.756  1.7169 -3.0526 -1.1625
  201MOL0     H27128   8.692   0.707   3.617 -1.3306  0.8363  1.2401
  201MOL0     H27129   8.530   0.505   3.619 -0.5505  1.0214 -1.1883
  201MOL0     H27130   8.691   0.480   3.553 -0.4627  3.1672 -2.0948
  201MOL0     H27131   8.689   0.278   3.923  0.7092 -1.4017 -0.7375
  201MOL0     H27132   8.455   1.028   3.502 -1.2588  0.2900  0.2418
  201MOL0     H27133   8.453   1.328   3.380  0.0915 -0.1685 -1.5767
  201MOL0     H27134   8.332   1.191   3.375 -0.3389 -0.4275  1.1980
  201MOL0     H27135   8.278   1.346   3.432 -0.7151 -1.4256 -1.7382
  202MOL0     O27136   9.842  11.402   7.292  0.2320  0.0563  0.4248
  202MOL0     C27137   9.931  11.363   7.368  0.7609  0.2891 -0.8561
  202MOL0     O27138   9.906  11.338   7.495  0.0229 -0.1715  0.5846
  202MOL0     C27139   9.782  11.354   7.555 -0.7111 -0.2604  0.1878
  202MOL0     C27140   9.759  11.468   7.626  0.2367 -0.1018  0.2685
  202MOL0     C27141   9.635  11.501   7.684  0.1921  0.0729 -0.7782
  202MOL0     C27142   9.539  11.400   7.681 -0.2587  1.2232 -0.3472
  202MOL0     O27143   9.419  11.426   7.744 -0.1524  0.4030  0.3774
  202MOL0     C27144   9.325  11.467   7.640  0.1917  0.1504 -0.3706
  202MOL0     C27145   9.195  11.525   7.691 -0.3763 -0.0261 -0.0439
  202MOL0     C27146   9.212  11.669   7.746 -1.2828 -0.1292  1.1358
  202MOL0     C27147   9.089  11.719   7.813  0.0048 -0.0842  0.9983
  202MOL0     C27148   9.105  11.841   7.903 -0.0717 -0.5683  0.0118
  202MOL0     C27149   9.144  11.960   7.820  0.4591  0.0766 -0.4345
  202MOL0     C27150   9.124  12.098   7.885  0.0723 -1.1142 -0.1068
  202MOL0     C27151   9.207  12.202   7.806  0.4970  0.4537 -0.0423
  202MOL0     N27152   9.145  12.330   7.789  0.9190  0.0171 -0.5304
  202MOL0     C27153   9.152  12.407   7.677  0.4525  0.8501 -0.4687
  202MOL0     C27154   9.105  12.524   7.727  0.6546 -0.2334 -1.0408
  202MOL0     C27155   9.081  12.663   7.665  0.0352  0.0479 -0.5496
  202MOL0     C27156   8.949  12.747   7.704 -0.6924 -0.4143 -1.5624
  202MOL0     C27157   8.933  12.882   7.634 -0.0821 -0.6485  1.0094
  202MOL0     C27158   8.838  12.982   7.690 -0.5350 -0.6887  0.2750
  202MOL0     O27159   8.702  12.941   7.658  0.1194  0.0619 -0.2142
  202MOL0     C27160   8.603  13.036   7.686  0.2491 -0.6220 -0.1774
  202MOL0     C27161   8.606  13.176   7.705 -0.6143  0.1625 -0.4539
  202MOL0     C27162   8.499  13.257   7.688 -0.0318 -0.2084  0.0917
  202MOL0     C27163   8.375  13.204   7.683  0.0455  0.5871 -1.0437
  202MOL0     C27164   8.256  13.295   7.691  0.3571 -0.1318 -0.3098
  202MOL0     O27165   8.135  13.233   7.698 -0.0798  0.1136  0.0512
  202MOL0     C27166   8.019  13.306   7.692 -0.1574 -0.0710 -0.2442
  202MOL0     C27167   7.905  13.275   7.772 -0.0352  0.4451  0.9855
  202MOL0     C27168   7.787  13.340   7.751  0.7710  0.3391  0.5105
  202MOL0     C27169   7.772  13.448   7.665  0.3160  0.2968  0.3390
  202MOL0     O27170   7.653  13.516   7.629  0.3720 -0.7340  1.3038
  202MOL0     C27171   7.542  13.431   7.635  0.2100 -0.8839  0.3998
  202MOL0     C27172   7.429  13.515   7.595 -0.6689 -0.0909 -0.2006
  202MOL0     C27173   7.421  13.561   7.450  0.2597  0.1156 -0.0659
  202MOL0     C27174   7.300  13.642   7.418  0.3566  0.0340 -0.1421
  202MOL0     C27175   7.298  13.685   7.273 -0.7986  0.9817  0.3035
  202MOL0     C27176   7.193  13.793   7.254 -0.4577  0.4832  0.1256
  202MOL0     C27177   7.172  13.832   7.112 -0.3920  0.0608  0.3431
  202MOL0     C27178   7.299  13.870   7.047 -0.0645 -1.0653  0.6989
  202MOL0    Cl27179   7.265  13.920   6.875  0.3041  0.1631 -0.2507
  202MOL0     C27180   7.885  13.485   7.594 -0.0603 -0.2823 -0.6233
  202MOL0     C27181   8.006  13.419   7.608  0.3016  0.9632 -0.6162
  202MOL0     O27182   8.268  13.421   7.694 -0.2693 -0.2192  0.3245
  202MOL0     C27183   8.351  13.068   7.670 -0.0863 -0.3226 -0.5966
  202MOL0     C27184   8.476  12.992   7.670 -0.4236  1.1378  0.3067
  202MOL0     N27185   9.094  12.516   7.867  0.2873  0.0304  0.0957
  202MOL0     N27186   9.118  12.399   7.906  0.2267  0.3120 -0.3109
  202MOL0     C27187   9.569  11.285   7.593  0.6651 -0.4948 -0.1430
  202MOL0     C27188   9.679  11.258   7.524 -0.8740 -0.1115 -0.8676
  202MOL0     C27189  10.069  11.388   7.330 -0.4070  0.8142 -0.4618
  202MOL0     C27190  10.176  11.342   7.418  0.4613 -0.1679  0.1305
  202MOL0     C27191  10.311  11.356   7.375  0.9473 -0.5115 -0.4036
  202MOL0     C27192  10.347  11.416   7.257  0.2759 -0.3136 -0.8446
  202MOL0     O27193  10.471  11.435   7.204 -0.1224 -0.2945 -0.1150
  202MOL0     C27194  10.584  11.408   7.293 -0.0392 -0.0261 -0.5271
  202MOL0     C27195  10.714  11.449   7.224 -0.8728 -0.0077 -0.2839
  202MOL0     C27196  10.780  11.324   7.159  0.7585  0.6510 -1.0558
  202MOL0     C27197  10.900  11.359   7.063  0.4334 -1.0147 -0.2581
  202MOL0     C27198  10.963  11.244   7.010 -0.1912  0.3224 -0.3608
  202MOL0     C27199  11.034  11.147   6.967 -0.3936  0.0833  0.2402
  202MOL0     C27200  10.242  11.454   7.172 -0.3802 -0.5842  0.1366
  202MOL0     C27201  10.100  11.443   7.204 -0.9231  0.8090  0.1690
  202MOL0     C27202  10.006  11.484   7.089 -0.0273  0.3226 -1.1113
  202MOL0     H27203   9.841  11.536   7.645  0.2961 -0.8175  3.1748
  202MOL0     H27204   9.628  11.595   7.738  1.8775  0.2372 -0.7870
  202MOL0     H27205   9.371  11.535   7.568  1.9335 -0.2321  0.3215
  202MOL0     H27206   9.300  11.372   7.592  3.3595 -1.0665  0.0973
  202MOL0     H27207   9.144  11.460   7.762  0.5683 -2.9419 -1.8609
  202MOL0     H27208   9.133  11.537   7.601  0.6956 -0.1487 -0.8252
  202MOL0     H27209   9.247  11.736   7.666 -0.6328  0.3290  1.7880
  202MOL0     H27210   9.295  11.668   7.817 -0.1201 -0.6628 -0.1682
  202MOL0     H27211   9.018  11.727   7.730  1.7993 -0.7547 -0.6838
  202MOL0     H27212   9.055  11.637   7.878  0.3101 -2.2065 -1.3398
  202MOL0     H27213   9.008  11.860   7.951  0.2211  0.6889  0.1357
  202MOL0     H27214   9.182  11.836   7.981  0.7167  4.0120 -0.1886
  202MOL0     H27215   9.250  11.958   7.793  0.6720  0.8426  0.2834
  202MOL0     H27216   9.086  11.959   7.727 -1.3962 -2.6466  0.6358
  202MOL0     H27217   9.151  12.089   7.991  0.4368 -2.5244 -0.2923
  202MOL0     H27218   9.018  12.126   7.875  0.7196  2.0802  0.9602
  202MOL0     H27219   9.305  12.218   7.852  0.5174  2.0132 -0.5968
  202MOL0     H27220   9.218  12.166   7.703 -0.6438  0.9914 -0.3611
  202MOL0     H27221   9.175  12.372   7.577  0.4359 -2.6450  0.6268
  202MOL0     H27222   9.167  12.729   7.679 -0.6384  0.9891 -0.7448
  202MOL0     H27223   9.087  12.647   7.557  1.5270 -0.6476 -0.3854
  202MOL0     H27224   8.869  12.683   7.666 -2.4231  1.9630 -2.1255
  202MOL0     H27225   8.939  12.751   7.813 -2.6034  1.4649 -1.7391
  202MOL0     H27226   8.903  12.859   7.532  0.8555  0.8322  0.3756
  202MOL0     H27227   9.033  12.927   7.631 -2.0922  4.3463 -0.0867
  202MOL0     H27228   8.861  13.086   7.662  2.5917 -1.1543  0.7331
  202MOL0     H27229   8.848  12.985   7.799  1.3345  0.9631  0.1147
  202MOL0     H27230   8.708  13.205   7.725 -0.2566 -1.2951 -0.0698
  202MOL0     H27231   8.507  13.365   7.702 -0.9889  0.1860 -2.0705
  202MOL0     H27232   7.910  13.187   7.836 -1.2185 -0.5578 -0.2215
  202MOL0     H27233   7.701  13.306   7.808 -0.7545  1.1121 -1.2232
  202MOL0     H27234   7.563  13.343   7.574 -1.3408 -0.8700 -0.1958
  202MOL0     H27235   7.526  13.404   7.740 -2.5885  1.6253  0.7536
  202MOL0     H27236   7.342  13.453   7.617 -1.6172  1.4012  0.3848
  202MOL0     H27237   7.425  13.609   7.651  1.8716  1.1423 -1.8902
  202MOL0     H27238   7.510  13.617   7.420 -1.8661  3.5472 -0.5374
  202MOL0     H27239   7.427  13.469   7.391 -0.8845  0.8425 -1.3642
  202MOL0     H27240   7.283  13.733   7.477 -2.6856 -0.9505  0.6837
  202MOL0     H27241   7.209  13.583   7.435 -1.0304  1.8962 -0.6849
  202MOL0     H27242   7.276  13.599   7.209  0.9460  1.7339 -1.4109
  202MOL0     H27243   7.398  13.721   7.246  0.2156 -0.3169  2.1082
  202MOL0     H27244   7.096  13.758   7.292 -0.2851  0.3856  0.4850
  202MOL0     H27245   7.217  13.873   7.324  3.0109 -1.6207  1.5971
  202MOL0     H27246   7.096  13.910   7.121 -2.1897 -1.8747  3.4924
  202MOL0     H27247   7.114  13.759   7.054 -0.6866 -0.2177  0.9858
  202MOL0     H27248   7.347  13.948   7.107 -1.1836  2.8095 -2.9609
  202MOL0     H27249   7.365  13.784   7.033  0.9041 -0.3434  0.7210
  202MOL0     H27250   7.875  13.572   7.531 -0.1661 -1.6259 -2.5255
  202MOL0     H27251   8.087  13.469   7.555  1.5791 -1.0709 -0.6971
  202MOL0     H27252   8.258  13.012   7.669 -0.5521  0.4593 -1.1234
  202MOL0     H27253   8.484  12.885   7.656 -0.9357  0.9405  1.4406
  202MOL0     H27254   9.484  11.223   7.564  0.4123 -0.4095  0.4076
  202MOL0     H27255   9.699  11.179   7.452  1.4343 -0.4457  0.0484
  202MOL0     H27256  10.137  11.273   7.492  1.0919 -0.0728  0.5548
  202MOL0     H27257  10.390  11.300   7.425  0.4995  0.8941  2.0477
  202MOL0     H27258  10.590  11.301   7.315 -0.9507 -0.0824 -0.4965
  202MOL0     H27259  10.575  11.460   7.388  3.0251 -2.1002  1.0625
  202MOL0     H27260  10.789  11.479   7.298 -0.8213 -1.9380  0.4793
  202MOL0     H27261  10.690  11.534   7.159 -1.2404  2.1038  2.3955
  202MOL0     H27262  10.704  11.265   7.107  0.4678  0.8019 -0.7993
  202MOL0     H27263  10.814  11.257   7.239 -1.4020  1.3906  0.5577
  202MOL0     H27264  10.842  11.413   6.988 -0.8598 -1.4367  0.4011
  202MOL0     H27265  10.965  11.433   7.110  0.0219  0.1776 -1.5017
  202MOL0     H27266  11.112  11.084   6.929  0.0269  0.4255  0.5212
  202MOL0     H27267  10.269  11.485   7.072 -3.3818  0.5792 -0.4033
  202MOL0     H27268   9.926  11.413   7.066 -0.8208  0.6220  0.5504
  202MOL0     H27269   9.955  11.574   7.125  1.8564  0.6255  0.9957
  202MOL0     H27270  10.069  11.515   7.005  0.4879  0.4661 -0.6806
  203MOL0     O27271   3.621   3.022   9.627  0.5710  0.2856 -0.7146
  203MOL0     C27272   3.534   3.121   9.620  0.0457  0.6317 -0.5555
  203MOL0     O27273   3.564   3.254   9.646 -0.3471 -0.6501 -0.3529
  203MOL0     C27274   3.690   3.294   9.655 -0.0130 -0.9195 -0.7901
  203MOL0     C27275   3.781   3.308   9.547  0.6310 -1.3658  0.2816
  203MOL0     C27276   3.913   3.346   9.568 -1.1296 -0.1289 -0.0356
  203MOL0     C27277   3.952   3.383   9.699 -1.0655  0.0694 -0.4566
  203MOL0     O27278   4.080   3.440   9.728 -0.3484  0.4278  0.2782
  203MOL0     C27279   4.168   3.456   9.613  0.4934 -0.0995  0.0731
  203MOL0     C27280   4.297   3.518   9.667  0.3967  0.3523  0.2764
  203MOL0     C27281   4.385   3.548   9.542  0.3371  0.3519  0.1603
  203MOL0     C27282   4.438   3.423   9.464 -0.4623 -0.6288 -0.2470
  203MOL0     C27283   4.586   3.427   9.436 -0.4029 -0.7671  0.0957
  203MOL0     C27284   4.627   3.321   9.334  0.6944  0.0310 -0.4822
  203MOL0     C27285   4.554   3.319   9.209 -0.6503  1.6206  0.5362
  203MOL0     C27286   4.629   3.220   9.116  0.6761 -0.5676  0.3012
  203MOL0     N27287   4.557   3.215   8.985 -0.0431 -0.1871 -0.9227
  203MOL0     C27288   4.586   3.303   8.886  0.1058  0.7984 -0.0154
  203MOL0     C27289   4.501   3.257   8.790  0.3333  0.1434  0.4975
  203MOL0     C27290   4.486   3.327   8.657  0.0156  0.4583  0.2601
  203MOL0     C27291   4.624   3.296   8.576  0.4635 -0.0681 -0.6490
  203MOL0     C27292   4.614   3.350   8.435 -0.5445  0.0363 -0.3971
  203MOL0     C27293   4.752   3.309   8.376  0.8776 -1.2087  0.1278
  203MOL0     O27294   4.774   3.368   8.242 -0.0875 -0.5166  0.1558
  203MOL0     C27295   4.899   3.374   8.194 -0.9982 -0.6464 -0.9945
  203MOL0     C27296   4.998   3.283   8.241  0.2207 -0.6372 -0.1930
  203MOL0     C27297   5.120   3.279   8.179 -0.7035  0.8991  0.0650
  203MOL0     C27298   5.148   3.368   8.066  0.3213  0.3417  0.8207
  203MOL0     C27299   5.273   3.347   7.987 -0.6588 -0.9041 -0.2393
  203MOL0     O27300   5.297   3.430   7.878  0.1452  0.3826  0.2489
  203MOL0     C27301   5.409   3.409   7.812 -0.1652  0.2103  0.8950
  203MOL0     C27302   5.525   3.482   7.837 -0.5710 -0.6984  0.8963
  203MOL0     C27303   5.643   3.448   7.769 -0.0495 -0.2286 -0.7651
  203MOL0     C27304   5.651   3.336   7.686  0.1451 -0.5296  0.0370
  203MOL0     O27305   5.772   3.313   7.639 -0.3070  1.0244  0.9538
  203MOL0     C27306   5.791   3.189   7.567  0.0026  0.8212  1.1249
  203MOL0     C27307   5.936   3.162   7.523  0.0949  0.4171  0.6751
  203MOL0     C27308   5.977   3.054   7.423  0.3172  0.0049  0.9096
  203MOL0     C27309   5.942   2.917   7.482  0.5722 -0.0328  1.0561
  203MOL0     C27310   5.999   2.794   7.407  0.0554 -0.2147 -0.2711
  203MOL0     C27311   5.989   2.786   7.253  0.7177 -0.5285 -0.0930
  203MOL0     C27312   6.018   2.635   7.216  0.5563  0.2898  0.2027
  203MOL0     C27313   6.018   2.605   7.071 -0.2142 -0.3933 -0.4859
  203MOL0    Cl27314   6.120   2.463   7.064 -0.3303 -0.0200  0.1132
  203MOL0     C27315   5.532   3.287   7.644 -0.2007 -0.1848 -0.0962
  203MOL0     C27316   5.411   3.319   7.705 -0.5462  0.8386 -1.5489
  203MOL0     O27317   5.342   3.246   8.020 -0.1763 -0.9269 -0.1314
  203MOL0     C27318   5.049   3.457   8.030  0.3474 -0.9913  0.4082
  203MOL0     C27319   4.921   3.460   8.086  0.6480  0.2616  0.5529
  203MOL0     N27320   4.420   3.149   8.836  0.1766 -0.6763  0.5234
  203MOL0     N27321   4.456   3.124   8.956  0.4822 -0.0558 -0.7660
  203MOL0     C27322   3.865   3.377   9.804 -0.7141  0.2690 -0.4454
  203MOL0     C27323   3.739   3.321   9.780 -0.6717  0.3196  0.2798
  203MOL0     C27324   3.405   3.089   9.558 -0.4753 -0.5969 -0.1131
  203MOL0     C27325   3.409   2.990   9.457  0.7102  0.6093  0.0993
  203MOL0     C27326   3.290   2.953   9.398 -0.2325  1.2089 -0.6686
  203MOL0     C27327   3.171   3.014   9.427 -0.2858 -0.7021 -0.5423
  203MOL0     O27328   3.073   2.960   9.352 -0.2201 -1.0041  0.3880
  203MOL0     C27329   2.938   3.016   9.370 -0.1424  0.1483  0.3588
  203MOL0     C27330   2.861   2.976   9.244 -0.5613  0.2324 -0.1143
  203MOL0     C27331   2.821   2.826   9.256 -0.0934 -0.0694 -0.0629
  203MOL0     C27332   2.773   2.772   9.126 -0.5735  0.1364  0.4667
  203MOL0     C27333   2.781   2.630   9.151 -0.2421  0.7331 -0.4156
  203MOL0     C27334   2.772   2.516   9.183  0.3173 -0.3755  0.4724
  203MOL0     C27335   3.171   3.118   9.532  0.4080  0.0236 -0.1287
  203MOL0     C27336   3.285   3.156   9.588 -0.1630 -0.2886 -0.0067
  203MOL0     C27337   3.265   3.272   9.679  0.2508  0.0211 -0.2061
  203MOL0     H27338   3.749   3.286   9.445  0.2336  0.4975 -0.0413
  203MOL0     H27339   3.981   3.358   9.484  0.4333  1.2563  1.3666
  203MOL0     H27340   4.192   3.358   9.572  3.0623  0.7808 -0.6916
  203MOL0     H27341   4.113   3.517   9.541 -1.0172 -1.4767  0.0109
  203MOL0     H27342   4.364   3.452   9.722 -0.1698 -1.4997 -1.1718
  203MOL0     H27343   4.274   3.613   9.717 -2.8379 -0.7774  1.1754
  203MOL0     H27344   4.468   3.612   9.573  0.3880 -0.4069  1.7021
  203MOL0     H27345   4.329   3.607   9.469  2.4820  0.6055 -1.3563
  203MOL0     H27346   4.427   3.332   9.524  1.5432 -0.2810  0.7258
  203MOL0     H27347   4.377   3.415   9.374 -1.4296  2.9363 -0.0721
  203MOL0     H27348   4.598   3.525   9.389 -1.1291 -1.4538 -1.6108
  203MOL0     H27349   4.643   3.410   9.528  1.3111 -0.2663 -0.8221
  203MOL0     H27350   4.727   3.342   9.294 -0.4957  3.0329 -2.1929
  203MOL0     H27351   4.607   3.223   9.379 -1.3293  0.2786 -0.7660
  203MOL0     H27352   4.544   3.421   9.170 -2.4772  1.5858  0.8183
  203MOL0     H27353   4.454   3.275   9.219 -0.7216  0.7715 -2.7940
  203MOL0     H27354   4.729   3.255   9.089 -0.5799  2.6353 -0.6824
  203MOL0     H27355   4.628   3.123   9.167  0.6157  0.0278  1.4896
  203MOL0     H27356   4.644   3.394   8.871  1.5805  0.1447  1.3925
  203MOL0     H27357   4.398   3.289   8.605 -1.2146  0.2045  2.4318
  203MOL0     H27358   4.480   3.434   8.674 -1.9216  0.3637  0.3334
  203MOL0     H27359   4.709   3.335   8.632  0.1954  0.2252 -0.4421
  203MOL0     H27360   4.639   3.188   8.572 -0.4241 -0.1867 -0.9330
  203MOL0     H27361   4.604   3.458   8.448 -1.1107 -0.0464 -0.1255
  203MOL0     H27362   4.535   3.310   8.371  1.0083  0.9028 -2.9703
  203MOL0     H27363   4.740   3.201   8.357 -0.4943 -0.9100 -0.8230
  203MOL0     H27364   4.842   3.326   8.436 -0.2841 -2.2611  2.3248
  203MOL0     H27365   4.972   3.205   8.313 -1.9234  0.7135  0.5735
  203MOL0     H27366   5.205   3.217   8.205  1.6871  3.4545 -1.1972
  203MOL0     H27367   5.527   3.570   7.901  2.1844  1.4903 -1.8566
  203MOL0     H27368   5.736   3.501   7.789 -1.9217  2.3213  2.0945
  203MOL0     H27369   5.761   3.104   7.630  1.5487  0.5385  1.5102
  203MOL0     H27370   5.730   3.196   7.477 -0.8997  2.7780  1.8357
  203MOL0     H27371   5.973   3.258   7.487  2.3042 -0.6314 -0.0244
  203MOL0     H27372   5.996   3.165   7.615  3.4796  0.1121 -1.3470
  203MOL0     H27373   5.937   3.066   7.321  2.6121  0.8908  0.0376
  203MOL0     H27374   6.085   3.050   7.407  0.5897  1.2934  2.2343
  203MOL0     H27375   5.835   2.912   7.499  0.7977  1.1326  3.2288
  203MOL0     H27376   5.986   2.910   7.582 -1.5712  0.5144  2.0967
  203MOL0     H27377   5.965   2.707   7.464  3.9522 -1.0802  1.0803
  203MOL0     H27378   6.108   2.794   7.422  0.0086  0.7486  0.1464
  203MOL0     H27379   5.892   2.828   7.224  0.7451 -0.1477  0.3535
  203MOL0     H27380   6.056   2.858   7.206 -2.2744  2.0937 -0.7328
  203MOL0     H27381   5.946   2.566   7.261  1.0660 -0.7369 -0.5175
  203MOL0     H27382   6.115   2.604   7.256  1.0231 -2.9546 -2.8998
  203MOL0     H27383   5.925   2.586   7.018 -0.0744 -3.4815  0.1916
  203MOL0     H27384   6.059   2.694   7.021  2.2615 -1.2395 -0.1162
  203MOL0     H27385   5.514   3.212   7.568 -3.1048  2.4242 -2.1988
  203MOL0     H27386   5.319   3.262   7.694 -0.8847  0.4635  2.0130
  203MOL0     H27387   5.077   3.520   7.946  0.9258 -1.9976 -0.1685
  203MOL0     H27388   4.838   3.522   8.054  0.7249  1.1837  2.0250
  203MOL0     H27389   3.900   3.408   9.902  1.6211 -2.8713 -0.1396
  203MOL0     H27390   3.687   3.318   9.876  0.5712 -0.4068  0.9581
  203MOL0     H27391   3.495   2.931   9.427  1.4216  1.5149  0.2922
  203MOL0     H27392   3.293   2.878   9.319 -0.9427  1.9743 -1.4500
  203MOL0     H27393   2.953   3.124   9.380  1.2971  0.1434 -1.2816
  203MOL0     H27394   2.890   2.964   9.453  1.6716 -0.1446  1.2850
  203MOL0     H27395   2.927   2.987   9.158  2.2167 -0.7902  1.7597
  203MOL0     H27396   2.771   3.038   9.233 -0.6338 -0.0071 -0.9376
  203MOL0     H27397   2.739   2.814   9.327 -2.1250 -2.4791 -2.5542
  203MOL0     H27398   2.906   2.771   9.296  0.3018  1.0164  0.6234
  203MOL0     H27399   2.669   2.806   9.121 -1.3815 -1.6839  2.9243
  203MOL0     H27400   2.832   2.806   9.041 -1.5405  2.5413  0.6577
  203MOL0     H27401   2.764   2.411   9.203 -1.3613 -0.0879  1.4489
  203MOL0     H27402   3.079   3.171   9.557  0.5491  0.0796  0.2655
  203MOL0     H27403   3.324   3.362   9.656 -0.8708  0.0091 -3.7187
  203MOL0     H27404   3.164   3.311   9.668  0.3265  0.5623  0.8346
  203MOL0     H27405   3.278   3.246   9.785 -1.4805 -0.7218 -0.1426
  204MOL0     O27406   8.913  10.217   7.583  0.1746  0.1048 -0.3578
  204MOL0     C27407   8.919  10.142   7.677  1.2241  0.0581 -0.0670
  204MOL0     O27408   9.031  10.097   7.743  0.0641 -0.6407  0.0479
  204MOL0     C27409   9.155  10.139   7.705  0.0771 -0.4733  0.2604
  204MOL0     C27410   9.196  10.152   7.570 -0.3217  0.1113 -1.0779
  204MOL0     C27411   9.330  10.185   7.534  0.5099 -0.9219 -0.2395
  204MOL0     C27412   9.426  10.208   7.637  0.4504 -0.2102 -0.9665
  204MOL0     O27413   9.553  10.227   7.602 -0.3588 -0.0897  0.4824
  204MOL0     C27414   9.641  10.309   7.686 -0.2977  0.5379 -0.7350
  204MOL0     C27415   9.775  10.322   7.615  0.3920 -1.2029  0.2232
  204MOL0     C27416   9.876  10.206   7.608 -0.1093 -0.4346 -0.6139
  204MOL0     C27417   9.820  10.073   7.565  1.0861 -0.2645 -0.2608
  204MOL0     C27418   9.929   9.964   7.558  0.3458 -0.1366  0.1542
  204MOL0     C27419   9.961   9.909   7.706 -0.3142 -0.4164  0.6168
  204MOL0     C27420  10.037   9.766   7.693  0.4254  0.3323 -0.4231
  204MOL0     C27421  10.049   9.702   7.836  0.2962 -0.6740  0.0374
  204MOL0     N27422  10.088   9.557   7.838 -0.6714 -0.2462 -0.4141
  204MOL0     C27423  10.040   9.456   7.764  0.1848  0.8317  0.1708
  204MOL0     C27424  10.130   9.352   7.780 -0.1467  0.3453  0.3465
  204MOL0     C27425  10.108   9.214   7.715 -1.0245  0.2395  0.6628
  204MOL0     C27426  10.226   9.168   7.628 -0.0920 -1.0874  0.0261
  204MOL0     C27427  10.319   9.094   7.729  0.0449  0.0147 -0.2922
  204MOL0     C27428  10.447   9.067   7.662 -0.8071 -0.4270  0.1242
  204MOL0     O27429  10.445   8.941   7.597 -0.4092  0.3953 -0.1461
  204MOL0     C27430  10.550   8.931   7.504  0.1018 -1.0298 -0.3255
  204MOL0     C27431  10.683   8.927   7.548 -0.8142  0.0832 -0.2001
  204MOL0     C27432  10.782   8.919   7.461 -0.1044 -0.6318 -0.4818
  204MOL0     C27433  10.752   8.918   7.323 -1.1336  0.1692 -0.8722
  204MOL0     C27434  10.870   8.908   7.230 -0.3749  0.3889  0.1069
  204MOL0     O27435  10.994   8.941   7.281  0.2990 -1.4176  0.3679
  204MOL0     C27436  11.112   8.897   7.234 -0.9051 -0.0785 -0.0231
  204MOL0     C27437  11.229   8.978   7.243 -0.0003  0.4261 -1.0559
  204MOL0     C27438  11.347   8.944   7.185  0.4399 -0.5397 -0.8631
  204MOL0     C27439  11.359   8.817   7.132 -0.3283 -0.4972  0.5230
  204MOL0     O27440  11.480   8.755   7.107 -0.4512 -0.0829 -0.8623
  204MOL0     C27441  11.599   8.840   7.099  0.6340 -0.5561  0.5476
  204MOL0     C27442  11.723   8.767   7.058 -0.2780  0.5582 -0.6722
  204MOL0     C27443  11.784   8.680   7.170 -0.3793 -0.2206 -0.4691
  204MOL0     C27444  11.917   8.605   7.118  0.4782 -0.5619  0.3708
  204MOL0     C27445  11.991   8.532   7.227 -0.5647 -0.2441  0.3213
  204MOL0     C27446  11.908   8.411   7.278  0.1073  0.1857 -0.5262
  204MOL0     C27447  11.993   8.320   7.364  0.8512  0.2299  0.1654
  204MOL0     C27448  11.963   8.165   7.367  0.4660  0.2720 -0.1470
  204MOL0    Cl27449  11.812   8.130   7.444  0.3061 -0.0280 -0.0011
  204MOL0     C27450  11.252   8.732   7.120  0.8167 -0.2188 -0.7817
  204MOL0     C27451  11.124   8.777   7.165 -0.4137 -0.3047 -0.1165
  204MOL0     O27452  10.848   8.868   7.120  0.2437 -0.0811 -0.0780
  204MOL0     C27453  10.619   8.910   7.276  0.1823  0.5405 -0.2308
  204MOL0     C27454  10.518   8.928   7.369 -0.3453  0.2562  0.6684
  204MOL0     N27455  10.231   9.403   7.866 -0.3782 -0.0640 -0.2326
  204MOL0     N27456  10.206   9.520   7.894 -0.4416 -0.4666  0.3238
  204MOL0     C27457   9.384  10.197   7.773  0.4787 -0.4348 -0.0471
  204MOL0     C27458   9.252  10.161   7.808 -0.0689  0.4631 -0.0836
  204MOL0     C27459   8.783  10.091   7.732 -0.2533  0.0259  0.2479
  204MOL0     C27460   8.790  10.020   7.847  0.2701  0.6560  0.7129
  204MOL0     C27461   8.684   9.959   7.905  0.9594 -0.6246 -0.0771
  204MOL0     C27462   8.552   9.960   7.853 -0.5137 -0.2504  0.6164
  204MOL0     O27463   8.463   9.891   7.933 -0.1497 -0.0315 -0.1024
  204MOL0     C27464   8.340   9.859   7.865  0.6181  0.8960  0.3503
  204MOL0     C27465   8.255   9.774   7.957 -0.2063 -0.1591 -0.4021
  204MOL0     C27466   8.141   9.711   7.882  0.4926  0.4108  0.1784
  204MOL0     C27467   8.191   9.603   7.774 -0.4793 -0.9733 -0.1073
  204MOL0     C27468   8.100   9.594   7.656 -0.8464  0.1390 -0.0832
  204MOL0     C27469   8.011   9.603   7.572 -0.6760  0.0340  1.2511
  204MOL0     C27470   8.532  10.040   7.737  0.3475 -1.3026 -0.0140
  204MOL0     C27471   8.652  10.101   7.669  1.1795 -0.1907  0.4373
  204MOL0     C27472   8.617  10.199   7.558  0.2294  0.1097 -0.5543
  204MOL0     H27473   9.115  10.132   7.500  0.5951 -1.5780 -1.7315
  204MOL0     H27474   9.364  10.199   7.431 -0.8438 -2.7364 -0.9854
  204MOL0     H27475   9.598  10.407   7.709 -0.9952  0.1719 -0.4535
  204MOL0     H27476   9.662  10.257   7.780 -0.5908  1.3407 -0.2143
  204MOL0     H27477   9.815  10.398   7.683 -2.4798 -0.4161  1.1761
  204MOL0     H27478   9.761  10.348   7.510  0.0623  0.9722  0.7529
  204MOL0     H27479   9.921  10.191   7.706 -1.7701 -1.1247  0.0676
  204MOL0     H27480   9.964  10.241   7.552 -0.7766  1.5856 -0.4884
  204MOL0     H27481   9.727  10.042   7.613  0.8094 -1.0423 -1.2591
  204MOL0     H27482   9.777  10.076   7.465 -0.9860  3.0964  0.5971
  204MOL0     H27483   9.896   9.885   7.489  2.0673 -0.6410 -0.1343
  204MOL0     H27484  10.016  10.002   7.504 -0.8386  0.4607 -1.4235
  204MOL0     H27485  10.028   9.987   7.744 -1.6203  1.2772 -0.4178
  204MOL0     H27486   9.875   9.903   7.772 -0.9215  0.0442 -0.1115
  204MOL0     H27487  10.132   9.768   7.639 -0.0720  0.1119 -1.3170
  204MOL0     H27488   9.975   9.699   7.634  1.9190 -0.9745 -0.5678
  204MOL0     H27489  10.132   9.759   7.880 -0.3430  0.7697 -0.5698
  204MOL0     H27490   9.957   9.714   7.895 -1.2250 -1.8933 -1.9894
  204MOL0     H27491   9.956   9.455   7.695  1.4768 -1.8631 -1.5265
  204MOL0     H27492  10.075   9.147   7.795 -1.0959  2.3476  2.4915
  204MOL0     H27493  10.028   9.227   7.641 -1.2846  0.4178  0.9775
  204MOL0     H27494  10.193   9.097   7.553 -1.9995  0.6582 -0.8778
  204MOL0     H27495  10.271   9.254   7.577 -1.5815  0.5744  1.3499
  204MOL0     H27496  10.274   9.001   7.762  1.5177 -0.0668  1.6363
  204MOL0     H27497  10.334   9.169   7.807  2.1075  2.0296 -2.4607
  204MOL0     H27498  10.532   9.060   7.730  1.1890  1.7428 -1.9659
  204MOL0     H27499  10.471   9.142   7.586  3.2246  0.4477  2.0133
  204MOL0     H27500  10.715   8.944   7.651  1.4014 -0.9112 -0.6658
  204MOL0     H27501  10.883   8.899   7.493 -0.5497 -2.1504  0.0574
  204MOL0     H27502  11.218   9.076   7.289 -0.3541  1.6073 -3.5189
  204MOL0     H27503  11.427   9.017   7.189 -0.3205  0.2728  0.4429
  204MOL0     H27504  11.575   8.926   7.036 -2.7087 -0.4570  1.7461
  204MOL0     H27505  11.616   8.881   7.200  2.4906 -2.6090  1.1480
  204MOL0     H27506  11.703   8.696   6.977  2.7941 -0.2859 -0.8355
  204MOL0     H27507  11.799   8.839   7.027  0.0009 -0.5131 -2.6713
  204MOL0     H27508  11.795   8.738   7.262  0.4126  0.1097 -0.7624
  204MOL0     H27509  11.717   8.596   7.189  1.7592 -1.8686  0.1935
  204MOL0     H27510  11.974   8.688   7.075  2.5075 -1.3437  1.4308
  204MOL0     H27511  11.896   8.532   7.040  2.8396 -1.7118  0.7177
  204MOL0     H27512  12.024   8.604   7.303 -0.6788  1.7790 -1.4316
  204MOL0     H27513  12.089   8.488   7.204 -0.0643 -0.9373  3.3882
  204MOL0     H27514  11.816   8.448   7.325 -0.6462 -3.0461  0.7879
  204MOL0     H27515  11.881   8.356   7.187 -0.1655  1.0432 -0.9745
  204MOL0     H27516  11.993   8.367   7.463 -0.8656  0.3356  0.1535
  204MOL0     H27517  12.097   8.330   7.333 -0.1500  1.0496 -3.3699
  204MOL0     H27518  11.966   8.125   7.265 -0.8348  0.9880 -0.4930
  204MOL0     H27519  12.031   8.111   7.434 -1.8821 -0.7956  1.5373
  204MOL0     H27520  11.262   8.630   7.082 -0.2731 -0.1048 -1.3940
  204MOL0     H27521  11.035   8.716   7.156 -1.6334  0.6954  3.5022
  204MOL0     H27522  10.600   8.879   7.175 -0.1090  0.0459 -0.0256
  204MOL0     H27523  10.422   8.908   7.323  0.2433  0.2607 -0.6243
  204MOL0     H27524   9.466  10.201   7.844 -0.9611 -1.9566  1.8140
  204MOL0     H27525   9.228  10.146   7.913 -0.9212  0.7727 -0.2284
  204MOL0     H27526   8.880  10.023   7.908 -0.1856 -0.6835  1.5000
  204MOL0     H27527   8.697   9.919   8.005  0.9549  1.7305  0.9255
  204MOL0     H27528   8.360   9.816   7.766 -0.8878  3.2792 -1.0963
  204MOL0     H27529   8.276   9.943   7.835 -0.3905 -0.3897 -1.2758
  204MOL0     H27530   8.216   9.844   8.031 -2.9256 -0.5870 -1.3300
  204MOL0     H27531   8.313   9.697   8.010  0.5645  1.2551  0.8803
  204MOL0     H27532   8.085   9.790   7.831  0.7613  1.7036  1.8056
  204MOL0     H27533   8.066   9.670   7.950 -1.0289  0.9975 -1.0755
  204MOL0     H27534   8.289   9.617   7.729 -0.9431  1.2264 -0.5898
  204MOL0     H27535   8.217   9.508   7.821  2.1885 -1.2989 -2.0270
  204MOL0     H27536   7.934   9.628   7.501  3.2527  2.0169 -2.8119
  204MOL0     H27537   8.432  10.063   7.702  0.2340 -2.5592 -0.5929
  204MOL0     H27538   8.528  10.155   7.510 -0.8974 -0.0616  1.5748
  204MOL0     H27539   8.589  10.295   7.601 -1.4068 -0.1492 -0.9663
  204MOL0     H27540   8.700  10.224   7.492 -0.8350  3.0029 -0.9576
  205MOL0     O27541   5.788   6.270   8.971 -0.3168 -0.8199  0.3803
  205MOL0     C27542   5.880   6.320   9.036 -0.0871 -0.0965  0.5172
  205MOL0     O27543   5.859   6.414   9.130 -0.8404  0.2788 -0.5714
  205MOL0     C27544   5.735   6.445   9.177 -0.4037  0.3670  0.4687
  205MOL0     C27545   5.674   6.358   9.266 -0.4095 -0.0239 -0.2475
  205MOL0     C27546   5.557   6.399   9.332 -0.2886  0.3467  0.1061
  205MOL0     C27547   5.507   6.525   9.318  0.7768 -0.0283 -0.6705
  205MOL0     O27548   5.408   6.576   9.395  0.4494 -0.2087 -0.5646
  205MOL0     C27549   5.346   6.490   9.496 -0.2180  0.7287 -0.3867
  205MOL0     C27550   5.239   6.568   9.567  0.8682  0.3991  0.2794
  205MOL0     C27551   5.125   6.599   9.464 -0.4412 -0.0959 -0.5660
  205MOL0     C27552   5.020   6.679   9.531 -0.8423 -0.5039  0.3955
  205MOL0     C27553   4.883   6.674   9.462  0.1374  0.0286  0.7441
  205MOL0     C27554   4.783   6.576   9.525 -0.6116  0.2027 -0.2448
  205MOL0     C27555   4.732   6.621   9.666  1.0475 -0.5541 -0.1329
  205MOL0     C27556   4.691   6.496   9.741  0.5045 -0.2167  0.6023
  205MOL0     N27557   4.570   6.428   9.682 -1.1715 -0.5152 -0.0538
  205MOL0     C27558   4.539   6.295   9.685 -1.0179 -0.2453 -0.2844
  205MOL0     C27559   4.411   6.288   9.634 -0.8823  0.2118 -0.5488
  205MOL0     C27560   4.322   6.175   9.668 -0.9781 -0.5533  0.6547
  205MOL0     C27561   4.229   6.148   9.539  0.6386 -0.4454 -0.3054
  205MOL0     C27562   4.091   6.225   9.557 -0.0698 -0.4334 -0.3361
  205MOL0     C27563   3.996   6.192   9.450  0.1776 -0.0388  0.3305
  205MOL0     O27564   3.883   6.273   9.459  0.4312 -0.1640 -0.0647
  205MOL0     C27565   3.769   6.226   9.520 -0.4880 -0.1217  0.4551
  205MOL0     C27566   3.651   6.302   9.500  0.2971  0.2037 -0.8085
  205MOL0     C27567   3.529   6.261   9.559 -1.3783 -0.3287 -0.0822
  205MOL0     C27568   3.536   6.155   9.644  0.0042 -0.4218 -0.1948
  205MOL0     C27569   3.415   6.115   9.718  0.5170  0.5670  0.2057
  205MOL0     O27570   3.418   5.995   9.789  0.0499 -1.0037  0.7507
  205MOL0     C27571   3.304   5.955   9.857  0.4764 -0.1867  0.6328
  205MOL0     C27572   3.182   5.925   9.792  0.0886 -0.6204 -0.8565
  205MOL0     C27573   3.073   5.881   9.875 -0.0376  0.8629  0.3976
  205MOL0     C27574   3.069   5.879  10.009 -0.5724  0.1802  0.4360
  205MOL0     O27575   2.956   5.848  10.080 -0.2651 -0.0676  0.1175
  205MOL0     C27576   2.951   5.859  10.220  0.4095  0.5744 -0.6633
  205MOL0     C27577   3.009   5.734  10.305 -0.2844  0.0894  0.1381
  205MOL0     C27578   2.897   5.629  10.291 -0.4826  0.5993 -0.5747
  205MOL0     C27579   2.912   5.525  10.407 -0.5386  0.2937  0.0977
  205MOL0     C27580   2.809   5.414  10.390 -0.4900  0.3479 -0.0700
  205MOL0     C27581   2.826   5.307  10.497 -0.0948  0.1405  0.0593
  205MOL0     C27582   2.708   5.210  10.506 -0.2975 -0.4082  0.3873
  205MOL0     C27583   2.758   5.089  10.584  0.2189 -0.1494  0.0093
  205MOL0    Cl27584   2.619   4.988  10.604 -0.1154 -0.4420  0.4306
  205MOL0     C27585   3.194   5.910  10.077  0.6083 -0.6848 -0.1648
  205MOL0     C27586   3.310   5.935  10.004 -0.2570 -0.3920 -0.6753
  205MOL0     O27587   3.315   6.177   9.694  0.4111  0.6399  0.1635
  205MOL0     C27588   3.657   6.084   9.675 -0.0349 -0.6407  0.1114
  205MOL0     C27589   3.771   6.123   9.613  0.5143  0.2811 -0.2760
  205MOL0     N27590   4.375   6.415   9.599  0.1600 -0.2519  1.3116
  205MOL0     N27591   4.467   6.494   9.633 -1.0027  0.0340  0.2873
  205MOL0     C27592   5.570   6.612   9.236  0.2340  0.2308 -0.4409
  205MOL0     C27593   5.685   6.578   9.163  0.4702  0.6719 -0.1811
  205MOL0     C27594   6.017   6.255   9.007  0.1739 -0.5149  0.7579
  205MOL0     C27595   6.043   6.207   8.871  0.9100 -0.7295  0.4377
  205MOL0     C27596   6.165   6.153   8.840 -0.2928 -0.0525  0.1157
  205MOL0     C27597   6.274   6.159   8.919  0.3359 -0.3345 -0.2745
  205MOL0     O27598   6.387   6.112   8.863  0.0551  0.0321  0.4076
  205MOL0     C27599   6.502   6.087   8.945 -0.1614 -0.8674  0.5411
  205MOL0     C27600   6.589   6.216   8.993  0.0819  0.9448 -0.2613
  205MOL0     C27601   6.635   6.325   8.881  0.2582  0.2827  0.1245
  205MOL0     C27602   6.722   6.262   8.780  0.5037  0.1521  0.6207
  205MOL0     C27603   6.859   6.253   8.814 -0.0164 -0.7410  0.1922
  205MOL0     C27604   6.975   6.254   8.845 -0.4667  0.4765  0.1130
  205MOL0     C27605   6.247   6.204   9.051 -0.2723 -0.4329 -0.3023
  205MOL0     C27606   6.122   6.253   9.094 -0.1338  0.4520  0.8511
  205MOL0     C27607   6.107   6.275   9.237  0.4733 -0.2999  0.2068
  205MOL0     H27608   5.713   6.257   9.273  0.6824  0.4705  1.1549
  205MOL0     H27609   5.517   6.324   9.400 -0.8524 -1.0106 -1.6338
  205MOL0     H27610   5.301   6.407   9.442 -3.2331  0.9165  1.5877
  205MOL0     H27611   5.413   6.452   9.574 -3.4855 -6.2902 -0.3186
  205MOL0     H27612   5.279   6.660   9.610  0.1346  0.3523  1.0961
  205MOL0     H27613   5.193   6.502   9.641  1.1429  0.4033  0.4520
  205MOL0     H27614   5.097   6.500   9.427 -2.3790  1.3529 -3.3043
  205MOL0     H27615   5.170   6.662   9.386  1.6916  4.6392  3.8861
  205MOL0     H27616   4.999   6.637   9.630  2.4131 -0.1495  1.3537
  205MOL0     H27617   5.065   6.779   9.528  0.9176 -1.2687 -2.0285
  205MOL0     H27618   4.833   6.771   9.461 -2.7397 -1.3309  1.6092
  205MOL0     H27619   4.909   6.643   9.360 -2.0366 -2.6879  0.8775
  205MOL0     H27620   4.694   6.566   9.463 -2.3123 -0.0756  2.1219
  205MOL0     H27621   4.827   6.476   9.538 -3.6366 -1.1372  0.4000
  205MOL0     H27622   4.650   6.693   9.663 -0.5573 -2.3247 -0.9889
  205MOL0     H27623   4.816   6.666   9.720  0.5028  0.6129 -0.2249
  205MOL0     H27624   4.775   6.427   9.750 -0.3664 -1.1511  1.9811
  205MOL0     H27625   4.673   6.520   9.846  2.6404  1.5974  0.6214
  205MOL0     H27626   4.612   6.222   9.718 -0.1162 -0.9448 -3.4359
  205MOL0     H27627   4.382   6.086   9.692  0.9870  1.5259  4.4771
  205MOL0     H27628   4.271   6.184   9.764  0.1357 -1.4504  1.3626
  205MOL0     H27629   4.272   6.177   9.442 -1.9983 -1.8218 -1.9885
  205MOL0     H27630   4.228   6.041   9.558 -0.7009 -0.0154  2.5972
  205MOL0     H27631   4.108   6.333   9.549  0.4322 -0.6473 -3.6515
  205MOL0     H27632   4.058   6.206   9.659  3.9692 -2.9729  0.7243
  205MOL0     H27633   3.978   6.084   9.441 -0.7951 -0.0664  2.1040
  205MOL0     H27634   4.039   6.222   9.354  4.8104 -0.8784  1.8773
  205MOL0     H27635   3.651   6.391   9.438  2.2934  1.8629  1.4124
  205MOL0     H27636   3.435   6.312   9.540 -0.5544  1.6169  0.7420
  205MOL0     H27637   3.183   5.940   9.685  1.6658  0.6114 -0.7081
  205MOL0     H27638   2.986   5.860   9.813 -0.5151 -0.0667  1.3459
  205MOL0     H27639   2.998   5.953  10.247 -1.1262  1.0352  0.5415
  205MOL0     H27640   2.843   5.862  10.236  0.0828 -1.1751 -2.1084
  205MOL0     H27641   3.101   5.686  10.270  0.2799 -0.0115  1.6991
  205MOL0     H27642   3.023   5.769  10.408 -0.9214  2.3247 -0.4629
  205MOL0     H27643   2.803   5.680  10.309 -0.5358 -0.0963  1.3417
  205MOL0     H27644   2.901   5.575  10.196 -1.3858 -3.6185  1.5480
  205MOL0     H27645   2.894   5.583  10.498 -0.1076  0.7707 -0.1170
  205MOL0     H27646   3.015   5.489  10.402  0.5479  2.8465  2.2280
  205MOL0     H27647   2.821   5.363  10.294  0.6951 -2.7895  1.6017
  205MOL0     H27648   2.708   5.454  10.395 -0.9508 -0.8976  1.8135
  205MOL0     H27649   2.918   5.249  10.483 -0.7983 -0.5131 -2.2098
  205MOL0     H27650   2.828   5.363  10.591  0.4186 -0.3127  0.3268
  205MOL0     H27651   2.682   5.189  10.402  1.3249  1.8091 -0.5441
  205MOL0     H27652   2.620   5.251  10.558 -0.8390 -0.2538 -0.6232
  205MOL0     H27653   2.829   5.033  10.522  0.8704  0.5825  0.0839
  205MOL0     H27654   2.794   5.112  10.685 -1.9343  2.7502  0.2418
  205MOL0     H27655   3.206   5.910  10.185  0.3782  0.1173 -0.1345
  205MOL0     H27656   3.407   5.942  10.054 -0.9127 -2.0951  0.9579
  205MOL0     H27657   3.662   6.018   9.760  0.9008 -0.2599  0.3737
  205MOL0     H27658   3.866   6.082   9.644  0.3701  0.9816  1.1453
  205MOL0     H27659   5.539   6.716   9.239  0.2014  0.3681  5.0695
  205MOL0     H27660   5.745   6.654   9.115  1.6394  2.6480  3.9845
  205MOL0     H27661   5.960   6.227   8.803 -1.3540 -0.4006  3.1251
  205MOL0     H27662   6.158   6.109   8.741 -1.4266 -2.2594  1.1044
  205MOL0     H27663   6.576   6.023   8.896  0.0783 -0.9446  1.0053
  205MOL0     H27664   6.469   6.034   9.034 -1.9061  1.2834  1.2771
  205MOL0     H27665   6.680   6.173   9.036 -1.1391 -1.2787  0.2639
  205MOL0     H27666   6.538   6.261   9.078  0.4736  0.0303  0.4669
  205MOL0     H27667   6.690   6.402   8.936  1.8212  0.1343 -1.1729
  205MOL0     H27668   6.542   6.370   8.843 -1.0269 -1.8235  0.6370
  205MOL0     H27669   6.684   6.161   8.761  2.6646 -0.0394 -4.4265
  205MOL0     H27670   6.712   6.310   8.682 -2.3111 -1.4683  0.0068
  205MOL0     H27671   7.069   6.259   8.897 -1.2403  0.2327  1.5865
  205MOL0     H27672   6.328   6.202   9.123  0.8586  1.6385 -1.4191
  205MOL0     H27673   6.192   6.224   9.284  1.6215  2.8788  1.8149
  205MOL0     H27674   6.113   6.382   9.258 -0.4439 -0.4910  1.5377
  205MOL0     H27675   6.021   6.221   9.276  2.2559 -2.4333  1.4397
  206MOL0     O27676   9.368   8.858   4.483  0.0450  0.7257 -0.7658
  206MOL0     C27677   9.338   8.930   4.382  0.4385 -0.1517 -0.2895
  206MOL0     O27678   9.214   8.990   4.356  0.4651  0.3536  0.0806
  206MOL0     C27679   9.106   8.986   4.439  0.6417  0.1417 -0.4585
  206MOL0     C27680   9.018   9.095   4.431  0.2619  0.4864  0.2506
  206MOL0     C27681   8.914   9.111   4.511  0.3988 -0.6342 -1.7365
  206MOL0     C27682   8.875   9.005   4.597 -0.2568 -0.0156  0.0420
  206MOL0     O27683   8.759   9.016   4.677 -0.3269  0.8971 -0.2991
  206MOL0     C27684   8.733   8.913   4.783 -0.2021  0.1371 -0.2711
  206MOL0     C27685   8.836   8.927   4.902 -0.1799  0.2644  0.5270
  206MOL0     C27686   8.815   8.840   5.027  0.1114  0.4000 -0.3016
  206MOL0     C27687   8.928   8.859   5.125 -0.4021 -0.1850  0.3260
  206MOL0     C27688   8.911   8.781   5.256 -0.1967  0.1521 -0.0198
  206MOL0     C27689   8.887   8.626   5.236 -0.8657  0.4357 -0.8587
  206MOL0     C27690   8.892   8.544   5.368  0.9225  0.8137  0.2989
  206MOL0     C27691   8.866   8.391   5.346  0.1251 -0.5611  0.6014
  206MOL0     N27692   8.879   8.315   5.469  0.3885  1.2417 -0.3072
  206MOL0     C27693   8.901   8.356   5.598  0.1826  0.3352 -0.2591
  206MOL0     C27694   8.902   8.252   5.682  0.6879 -0.2693  0.3635
  206MOL0     C27695   8.908   8.253   5.829 -0.9323  0.8606 -0.3283
  206MOL0     C27696   9.027   8.164   5.880 -0.8857  0.8786  0.4783
  206MOL0     C27697   9.026   8.145   6.035 -0.3043 -0.3526  0.2459
  206MOL0     C27698   9.122   8.246   6.101 -0.3950  1.4907 -0.3797
  206MOL0     O27699   9.108   8.233   6.243 -0.5672  0.2619 -0.3218
  206MOL0     C27700   9.176   8.312   6.325 -0.9429  0.2812  0.3945
  206MOL0     C27701   9.146   8.313   6.460 -0.6503 -0.1754  0.5793
  206MOL0     C27702   9.195   8.410   6.548 -0.2585 -0.3055  0.0668
  206MOL0     C27703   9.290   8.505   6.510 -0.7975  0.1523 -0.3995
  206MOL0     C27704   9.337   8.611   6.609 -0.7387 -0.2826  0.5768
  206MOL0     O27705   9.437   8.690   6.560  0.2684  0.3656 -0.0241
  206MOL0     C27706   9.474   8.784   6.649  0.7283 -0.1374 -0.1572
  206MOL0     C27707   9.395   8.897   6.671  0.3493 -0.2622  0.0385
  206MOL0     C27708   9.431   8.989   6.766 -0.1129 -0.4405 -0.0313
  206MOL0     C27709   9.555   8.977   6.833 -0.2319 -0.1344  0.8366
  206MOL0     O27710   9.584   9.069   6.924  0.0130  0.5057 -0.1582
  206MOL0     C27711   9.682   9.165   6.880  0.4831 -0.0410 -0.4869
  206MOL0     C27712   9.604   9.279   6.811  0.3668  0.5143 -0.9018
  206MOL0     C27713   9.703   9.372   6.749 -0.7486  0.4226 -1.0187
  206MOL0     C27714   9.674   9.414   6.606  0.3126  1.1124 -0.4439
  206MOL0     C27715   9.782   9.501   6.544  0.7733  1.4474 -0.0930
  206MOL0     C27716   9.823   9.621   6.639 -0.6223  0.0783  0.7961
  206MOL0     C27717   9.952   9.692   6.591  0.7049  0.3727 -0.6709
  206MOL0     C27718   9.972   9.739   6.443 -0.4069  0.5830 -0.2092
  206MOL0    Cl27719   9.884   9.894   6.430  0.4342  0.0187  0.0769
  206MOL0     C27720   9.631   8.862   6.812 -0.6896  0.5294 -0.1075
  206MOL0     C27721   9.594   8.759   6.718 -0.0445 -0.5555  0.1753
  206MOL0     O27722   9.295   8.615   6.721 -0.0412 -0.5785 -0.3364
  206MOL0     C27723   9.345   8.485   6.380 -0.7460  1.0020 -1.1525
  206MOL0     C27724   9.276   8.402   6.290  0.9459 -0.6296 -0.7184
  206MOL0     N27725   8.894   8.146   5.597  0.5678 -0.2687  0.5596
  206MOL0     N27726   8.872   8.177   5.476  0.1778 -0.5656  0.1058
  206MOL0     C27727   8.960   8.897   4.601 -0.6133 -0.4566 -0.1666
  206MOL0     C27728   9.077   8.882   4.528  0.5875 -0.4907 -0.2929
  206MOL0     C27729   9.436   8.973   4.284  0.4835  0.2677  0.3620
  206MOL0     C27730   9.410   9.078   4.187  0.6937 -0.5081  0.0897
  206MOL0     C27731   9.506   9.122   4.100 -0.8433 -0.7257 -0.5953
  206MOL0     C27732   9.635   9.077   4.097 -0.0658  0.6892 -0.6017
  206MOL0     O27733   9.742   9.116   4.012 -0.9233 -0.2851 -0.0192
  206MOL0     C27734   9.716   9.233   3.932 -0.0971  0.4084  0.0595
  206MOL0     C27735   9.846   9.262   3.857  0.7379  0.7445  0.7310
  206MOL0     C27736   9.914   9.137   3.808 -1.1290 -0.3216  0.0861
  206MOL0     C27737  10.016   9.166   3.700 -0.4632  0.0539 -0.2391
  206MOL0     C27738  10.066   9.037   3.644  0.6625  0.6045  0.0209
  206MOL0     C27739  10.091   8.923   3.596  0.5544  0.4185 -1.0032
  206MOL0     C27740   9.661   8.965   4.185  0.7584  0.2935  0.4599
  206MOL0     C27741   9.575   8.920   4.281  0.8755 -0.2143 -0.8949
  206MOL0     C27742   9.629   8.823   4.384 -0.9294  0.1084  0.8770
  206MOL0     H27743   9.043   9.173   4.360  0.6752 -0.6884 -0.9497
  206MOL0     H27744   8.848   9.197   4.517 -1.8293 -2.3338  0.8819
  206MOL0     H27745   8.631   8.924   4.819 -0.2445 -2.5680  0.6906
  206MOL0     H27746   8.726   8.813   4.738 -1.5822 -1.1062  2.4497
  206MOL0     H27747   8.840   9.032   4.933 -1.7597  0.6472 -0.4551
  206MOL0     H27748   8.936   8.894   4.870 -0.6920 -2.2519  1.3188
  206MOL0     H27749   8.809   8.736   4.995 -3.2848  0.4473 -0.1354
  206MOL0     H27750   8.721   8.868   5.076  0.2048  1.0040 -0.4649
  206MOL0     H27751   9.025   8.824   5.088  1.4384  1.4460  3.2611
  206MOL0     H27752   8.944   8.963   5.155 -0.1485 -0.0760 -0.1721
  206MOL0     H27753   9.003   8.793   5.313 -2.1601  3.0428  2.8638
  206MOL0     H27754   8.843   8.838   5.319  1.6719 -0.1779  2.4491
  206MOL0     H27755   8.792   8.614   5.184 -0.7171  1.9423 -1.5412
  206MOL0     H27756   8.969   8.589   5.173 -0.2679 -3.9744  2.0879
  206MOL0     H27757   8.804   8.569   5.428 -0.1425 -1.3535 -0.2325
  206MOL0     H27758   8.988   8.571   5.413  0.2502  0.5101  1.9823
  206MOL0     H27759   8.769   8.380   5.298  1.2839  0.3811 -2.2006
  206MOL0     H27760   8.938   8.356   5.271 -2.7139 -0.1016 -2.5509
  206MOL0     H27761   8.905   8.460   5.630  1.3005  0.6627 -1.3499
  206MOL0     H27762   8.919   8.355   5.867  1.8329  0.6604 -0.3462
  206MOL0     H27763   8.816   8.210   5.869 -0.7622  1.7131  1.0426
  206MOL0     H27764   9.018   8.061   5.844  1.9896  0.6634  0.1860
  206MOL0     H27765   9.125   8.198   5.846 -0.4255 -3.3068 -3.1463
  206MOL0     H27766   9.051   8.041   6.058  0.6150 -0.5361 -1.4101
  206MOL0     H27767   8.928   8.165   6.078 -0.5409 -0.3936 -0.2614
  206MOL0     H27768   9.099   8.350   6.075 -0.6520  1.7979  0.9848
  206MOL0     H27769   9.227   8.223   6.083 -0.3965 -2.3500  2.9644
  206MOL0     H27770   9.074   8.236   6.486  0.7413 -1.2865  1.3062
  206MOL0     H27771   9.141   8.407   6.643  1.2238  0.9099  0.9915
  206MOL0     H27772   9.300   8.897   6.618  1.0503 -0.2441 -1.2467
  206MOL0     H27773   9.358   9.065   6.789  2.3688  3.5666 -3.9048
  206MOL0     H27774   9.745   9.194   6.964  0.5745 -2.1986  0.2447
  206MOL0     H27775   9.746   9.122   6.803 -0.2640 -1.3228 -0.4251
  206MOL0     H27776   9.536   9.238   6.735 -0.6949 -2.5970  1.4932
  206MOL0     H27777   9.540   9.345   6.871 -0.1166  0.5225 -1.4155
  206MOL0     H27778   9.707   9.456   6.819 -2.1701  1.8166 -2.5124
  206MOL0     H27779   9.804   9.330   6.756 -1.4252 -1.1725 -0.3006
  206MOL0     H27780   9.580   9.470   6.617 -3.2407 -4.4963  2.4340
  206MOL0     H27781   9.656   9.324   6.547  1.3978 -0.4187  1.4341
  206MOL0     H27782   9.717   9.535   6.463  0.2340 -0.1961 -0.3970
  206MOL0     H27783   9.861   9.435   6.505 -1.3045  0.7651 -3.5381
  206MOL0     H27784   9.741   9.694   6.638  0.8851  1.8437  0.0951
  206MOL0     H27785   9.813   9.597   6.745 -3.3344  1.1016  0.8384
  206MOL0     H27786  10.032   9.620   6.611  2.1503  2.1099  0.1501
  206MOL0     H27787   9.973   9.783   6.649  1.8683 -1.0615  1.2984
  206MOL0     H27788  10.079   9.754   6.431 -0.4576  0.4660 -0.8248
  206MOL0     H27789   9.931   9.664   6.375  0.2603 -1.0718  1.1446
  206MOL0     H27790   9.725   8.837   6.860 -0.7383 -1.6440 -1.0424
  206MOL0     H27791   9.662   8.681   6.685 -1.6013 -2.1780  0.6631
  206MOL0     H27792   9.427   8.550   6.351  1.4049 -1.5220 -1.1398
  206MOL0     H27793   9.312   8.414   6.188  1.1190 -0.1762 -0.6071
  206MOL0     H27794   8.956   8.806   4.659 -0.0731 -2.7294 -3.4188
  206MOL0     H27795   9.140   8.794   4.539  1.0833 -0.2824 -1.3150
  206MOL0     H27796   9.311   9.123   4.190  0.3993 -1.1699  0.7447
  206MOL0     H27797   9.477   9.201   4.031 -0.3215 -0.5621 -0.6294
  206MOL0     H27798   9.696   9.316   4.000 -0.1414 -0.3116  0.9475
  206MOL0     H27799   9.636   9.222   3.858  0.6918  1.8542 -1.0658
  206MOL0     H27800   9.898   9.315   3.937  0.1626 -2.0709  3.1092
  206MOL0     H27801   9.823   9.335   3.778 -0.1956  0.8009  1.0324
  206MOL0     H27802   9.843   9.076   3.752 -0.1090 -0.6193 -0.9191
  206MOL0     H27803   9.957   9.076   3.889  0.2827  1.3509  0.6739
  206MOL0     H27804   9.964   9.215   3.617  3.0361  0.6903 -2.2699
  206MOL0     H27805  10.102   9.219   3.742 -0.8296  0.5956 -0.1517
  206MOL0     H27806  10.127   8.831   3.554  1.1583  0.9642 -1.7039
  206MOL0     H27807   9.759   8.917   4.189  0.0488 -1.6144 -2.0644
  206MOL0     H27808   9.595   8.843   4.485 -1.5286 -0.4622  0.7959
  206MOL0     H27809   9.599   8.724   4.349  0.8983  0.8521 -3.5248
  206MOL0     H27810   9.738   8.820   4.381 -0.7586  1.5378  3.1682
  207MOL0     O27811   5.340   2.680   0.117 -0.0326  0.3657 -0.2625
  207MOL0     C27812   5.454   2.664   0.174 -0.0213 -0.1384  0.2247
  207MOL0     O27813   5.500   2.727   0.288  0.6958  0.5100  0.0770
  207MOL0     C27814   5.439   2.835   0.346  0.6883 -0.2984 -0.4036
  207MOL0     C27815   5.519   2.939   0.398  0.1686 -0.7720  0.1501
  207MOL0     C27816   5.460   3.040   0.471  0.5100  0.0403  0.5155
  207MOL0     C27817   5.318   3.043   0.492 -1.3381 -0.0481 -0.4158
  207MOL0     O27818   5.250   3.142   0.554  0.7986 -0.9687  0.0122
  207MOL0     C27819   5.328   3.242   0.621  0.7985 -0.6259  0.0180
  207MOL0     C27820   5.236   3.342   0.698 -0.1481 -0.0740  0.2489
  207MOL0     C27821   5.193   3.464   0.612 -0.3419 -0.6663  0.0110
  207MOL0     C27822   5.142   3.427   0.474 -0.3077 -0.8151 -0.1591
  207MOL0     C27823   5.059   3.542   0.410 -0.9012  0.0261 -0.1155
  207MOL0     C27824   4.907   3.501   0.412  0.5724 -0.5744  0.6232
  207MOL0     C27825   4.848   3.511   0.546 -0.1790  0.1759 -0.4772
  207MOL0     C27826   4.715   3.581   0.566  0.0309 -0.1688  0.0779
  207MOL0     N27827   4.667   3.575   0.702  0.3799  0.6215  0.7584
  207MOL0     C27828   4.707   3.651   0.816  0.0690 -0.1697  0.2234
  207MOL0     C27829   4.617   3.636   0.904 -0.6331 -0.5091 -0.6876
  207MOL0     C27830   4.608   3.697   1.045  0.3106  0.4862  0.9403
  207MOL0     C27831   4.501   3.802   1.047  0.3332  0.2546  0.0904
  207MOL0     C27832   4.361   3.757   1.012  0.5473 -0.4217  0.2908
  207MOL0     C27833   4.303   3.673   1.131 -0.8194 -0.2658  0.1659
  207MOL0     O27834   4.171   3.634   1.107 -0.3641  0.1007  1.2874
  207MOL0     C27835   4.107   3.589   1.223 -0.2832 -0.0590 -0.2113
  207MOL0     C27836   4.008   3.498   1.196 -0.0669  0.0872  0.0748
  207MOL0     C27837   3.920   3.444   1.298 -0.0781 -0.3010 -0.1743
  207MOL0     C27838   3.927   3.496   1.428  0.3771  0.2306 -0.5489
  207MOL0     C27839   3.829   3.447   1.537 -0.2223  1.7766  0.8279
  207MOL0     O27840   3.723   3.359   1.506 -0.7544 -0.2178 -0.0477
  207MOL0     C27841   3.630   3.338   1.613 -0.9000 -0.5156  0.5217
  207MOL0     C27842   3.670   3.251   1.716 -0.1320  0.3187  0.3525
  207MOL0     C27843   3.576   3.227   1.823 -0.1839 -0.5795  0.0078
  207MOL0     C27844   3.445   3.274   1.813  0.0604  0.0155  0.0773
  207MOL0     O27845   3.366   3.230   1.918 -0.5658 -0.0890  0.4397
  207MOL0     C27846   3.221   3.234   1.909  0.0066 -0.6425  0.2132
  207MOL0     C27847   3.144   3.272   2.036  0.7414 -1.1146 -0.6858
  207MOL0     C27848   3.007   3.205   2.058 -0.9129  0.3181  0.5243
  207MOL0     C27849   2.944   3.258   2.194  0.7493 -0.5224 -1.1381
  207MOL0     C27850   2.796   3.238   2.193 -1.0343 -0.3653 -0.1600
  207MOL0     C27851   2.738   3.291   2.322 -0.8533  0.6154  0.0150
  207MOL0     C27852   2.590   3.235   2.336 -0.2950  0.1771  0.3712
  207MOL0     C27853   2.489   3.328   2.268  0.4215  1.0278 -0.0340
  207MOL0    Cl27854   2.442   3.268   2.104 -0.5753  0.0762 -0.0568
  207MOL0     C27855   3.402   3.333   1.696  0.2414  0.4742  0.8983
  207MOL0     C27856   3.489   3.363   1.593  0.1956 -0.4027 -0.7684
  207MOL0     O27857   3.845   3.499   1.646  0.5415 -0.3564  0.8916
  207MOL0     C27858   4.035   3.586   1.458 -0.3111 -0.8360 -0.8287
  207MOL0     C27859   4.123   3.624   1.357  0.0621  0.4556 -0.3895
  207MOL0     N27860   4.531   3.536   0.872  0.7926 -0.5071  0.1932
  207MOL0     N27861   4.562   3.506   0.752  0.1542 -0.9608  0.6243
  207MOL0     C27862   5.236   2.938   0.437 -0.4727 -0.6935  0.0135
  207MOL0     C27863   5.298   2.837   0.366 -0.4393 -0.7211 -0.2408
  207MOL0     C27864   5.566   2.578   0.111 -0.6502 -0.9128  0.6433
  207MOL0     C27865   5.695   2.576   0.172 -0.5592 -0.4070  1.2862
  207MOL0     C27866   5.804   2.511   0.107  0.2914  0.7991 -0.0676
  207MOL0     C27867   5.793   2.427  -0.003 -0.0241  0.2144 -0.1002
  207MOL0     O27868   5.895   2.350  -0.050 -0.2666  0.7486 -0.2228
  207MOL0     C27869   6.037   2.367   0.006  0.0647  0.9749  0.2833
  207MOL0     C27870   6.128   2.253  -0.045  0.3093  0.4936  0.2768
  207MOL0     C27871   6.274   2.300  -0.051  0.8758  0.1650 -0.2026
  207MOL0     C27872   6.368   2.206  -0.127 -0.3253 -0.2535  1.1458
  207MOL0     C27873   6.363   2.223  -0.274  0.6046  0.3986  0.5344
  207MOL0     C27874   6.357   2.232  -0.392 -0.0992 -0.7245  0.1955
  207MOL0     C27875   5.658   2.404  -0.047  0.1987 -0.3832  0.2478
  207MOL0     C27876   5.550   2.474   0.009  0.6157 -0.5425  0.4237
  207MOL0     C27877   5.423   2.415  -0.026  0.5442  0.5354  0.0582
  207MOL0     H27878   5.626   2.938   0.382 -0.1358 -1.0375 -2.1892
  207MOL0     H27879   5.520   3.122   0.508 -0.6320  2.3303 -2.2654
  207MOL0     H27880   5.395   3.204   0.698  0.0362 -2.1854 -0.0238
  207MOL0     H27881   5.381   3.312   0.557  2.8169  0.6072  2.8674
  207MOL0     H27882   5.282   3.375   0.791 -1.4812  1.1628  0.5064
  207MOL0     H27883   5.155   3.286   0.745  1.7758 -2.8234  0.5537
  207MOL0     H27884   5.276   3.536   0.611  0.9663 -2.0966  1.4963
  207MOL0     H27885   5.115   3.518   0.666  0.8571  0.6673  0.4981
  207MOL0     H27886   5.234   3.423   0.414 -0.7762  1.9175 -1.2048
  207MOL0     H27887   5.084   3.335   0.478 -1.7504 -0.0156 -1.6122
  207MOL0     H27888   5.065   3.641   0.455 -0.1093  0.4555 -1.1140
  207MOL0     H27889   5.087   3.560   0.305 -1.5513  1.4980 -0.0570
  207MOL0     H27890   4.854   3.567   0.344  0.4688 -1.3390 -0.0449
  207MOL0     H27891   4.893   3.401   0.368  0.5473 -0.4030  0.2407
  207MOL0     H27892   4.912   3.571   0.611 -0.7259 -0.6888  0.9234
  207MOL0     H27893   4.845   3.416   0.601 -0.3356  0.8126  0.6443
  207MOL0     H27894   4.729   3.682   0.525 -1.5794  0.6834  1.5377
  207MOL0     H27895   4.629   3.533   0.518 -1.2667 -1.9683  3.8076
  207MOL0     H27896   4.789   3.723   0.822  0.4990 -0.6941  0.7647
  207MOL0     H27897   4.593   3.618   1.119  2.2884 -0.3619  0.5149
  207MOL0     H27898   4.701   3.744   1.080  1.2354 -2.5667  2.9611
  207MOL0     H27899   4.492   3.850   1.145  0.4244 -1.7728  1.1405
  207MOL0     H27900   4.536   3.871   0.969 -0.5253  1.0116  0.3563
  207MOL0     H27901   4.354   3.697   0.921  0.9420  2.5519 -1.8636
  207MOL0     H27902   4.304   3.851   1.008 -0.3536 -1.0057 -1.6183
  207MOL0     H27903   4.301   3.750   1.208 -0.1835  0.2084 -0.2796
  207MOL0     H27904   4.360   3.582   1.154  0.0493  0.7057  2.0371
  207MOL0     H27905   3.991   3.463   1.095 -3.1278  0.9107  0.1820
  207MOL0     H27906   3.837   3.379   1.269  0.1889 -2.2005  2.8456
  207MOL0     H27907   3.774   3.226   1.739  0.9549  0.8634 -3.2742
  207MOL0     H27908   3.607   3.170   1.910 -1.0374  0.4390  1.0179
  207MOL0     H27909   3.180   3.295   1.828  0.3235 -0.6034  0.0792
  207MOL0     H27910   3.198   3.130   1.883  0.1352 -0.2025 -1.8584
  207MOL0     H27911   3.195   3.250   2.130  0.1416  4.0512  1.1671
  207MOL0     H27912   3.129   3.380   2.038 -2.5035 -1.4589 -0.8111
  207MOL0     H27913   2.954   3.230   1.966 -0.3445 -0.5036 -0.0572
  207MOL0     H27914   3.017   3.096   2.057 -0.9052  0.2856  2.2485
  207MOL0     H27915   2.958   3.367   2.199  0.6622 -0.5385 -0.2061
  207MOL0     H27916   2.991   3.214   2.283 -1.3305  1.9926  1.4397
  207MOL0     H27917   2.782   3.130   2.187 -1.6103 -0.4070  1.4591
  207MOL0     H27918   2.751   3.288   2.107 -0.4342 -0.6059 -0.6211
  207MOL0     H27919   2.804   3.259   2.404  2.6739  1.2554 -2.3280
  207MOL0     H27920   2.743   3.400   2.322  0.7384  0.6070  1.9314
  207MOL0     H27921   2.557   3.222   2.440 -0.3443 -1.2260  0.1982
  207MOL0     H27922   2.587   3.133   2.298  1.3359  0.5914 -0.9676
  207MOL0     H27923   2.406   3.325   2.340  0.9518  0.5540  0.5722
  207MOL0     H27924   2.529   3.430   2.269  1.3767  0.7232 -2.2135
  207MOL0     H27925   3.300   3.365   1.680  0.3166  0.1418 -0.3746
  207MOL0     H27926   3.462   3.415   1.502 -0.4547  0.3639 -0.1467
  207MOL0     H27927   4.050   3.619   1.560 -0.6989  1.0350 -1.3359
  207MOL0     H27928   4.194   3.705   1.370  0.5803 -0.0611  0.0391
  207MOL0     H27929   5.129   2.930   0.446 -0.5277 -0.5674 -0.5048
  207MOL0     H27930   5.243   2.763   0.310 -1.3823  1.3793 -2.2717
  207MOL0     H27931   5.731   2.627   0.261  0.3661 -0.7175  1.0981
  207MOL0     H27932   5.901   2.522   0.154  0.6995  2.3644 -1.1876
  207MOL0     H27933   6.047   2.365   0.114  1.4206 -1.5232  0.1732
  207MOL0     H27934   6.078   2.463  -0.027  0.7469  1.1331  1.5385
  207MOL0     H27935   6.101   2.218  -0.145  0.7716 -1.1535  0.6955
  207MOL0     H27936   6.115   2.167   0.021  0.2320 -0.9461 -1.5518
  207MOL0     H27937   6.307   2.321   0.051 -1.1998  0.1240  0.5169
  207MOL0     H27938   6.280   2.394  -0.107  2.2048 -0.2029 -0.7246
  207MOL0     H27939   6.468   2.234  -0.092  1.9859 -0.7413 -4.1277
  207MOL0     H27940   6.349   2.101  -0.102 -0.8661 -1.1438 -2.4514
  207MOL0     H27941   6.348   2.225  -0.498  2.6074 -1.7019 -0.0747
  207MOL0     H27942   5.649   2.337  -0.132  0.0301  0.7946 -0.6930
  207MOL0     H27943   5.448   2.318  -0.070 -0.3893  0.5009 -0.4044
  207MOL0     H27944   5.367   2.398   0.066 -1.4844  0.7280 -1.0894
  207MOL0     H27945   5.352   2.475  -0.084  0.3444  0.7316  0.4982
  208MOL0     O27946   1.264   5.048   4.849 -0.9773 -0.1146  0.4020
  208MOL0     C27947   1.239   5.011   4.736  0.1322 -0.0473  0.2452
  208MOL0     O27948   1.328   4.958   4.651  0.0053 -0.2916  0.4772
  208MOL0     C27949   1.454   4.935   4.690 -0.1361  0.0854 -0.5794
  208MOL0     C27950   1.505   4.807   4.713 -0.8701  0.0148  0.0985
  208MOL0     C27951   1.640   4.791   4.758 -0.3587  0.0534 -0.3848
  208MOL0     C27952   1.727   4.900   4.769  0.3087  0.4033  0.2831
  208MOL0     O27953   1.861   4.887   4.779 -0.1926  0.6735  0.5887
  208MOL0     C27954   1.917   4.786   4.857 -0.5469 -0.3861 -0.9940
  208MOL0     C27955   2.051   4.842   4.872 -0.1780  0.1060 -0.3392
  208MOL0     C27956   2.129   4.731   4.940 -1.0696 -0.2665  0.0921
  208MOL0     C27957   2.275   4.783   4.979  0.8649 -0.4461  0.6631
  208MOL0     C27958   2.367   4.666   5.017 -0.5681  0.2602 -0.1393
  208MOL0     C27959   2.501   4.717   5.039 -0.4820 -0.0883 -0.6357
  208MOL0     C27960   2.594   4.610   5.084  0.0542  0.3252 -0.0659
  208MOL0     C27961   2.633   4.509   4.971 -0.2607 -0.1325  0.4118
  208MOL0     N27962   2.776   4.487   4.948 -0.3800  0.6582 -0.4736
  208MOL0     C27963   2.863   4.596   4.920 -0.3078  0.1738 -0.6195
  208MOL0     C27964   2.984   4.536   4.902  0.1483 -0.6813  0.1016
  208MOL0     C27965   3.102   4.621   4.868  0.1365  0.7124  0.2086
  208MOL0     C27966   3.241   4.557   4.897 -0.2148 -0.4418 -0.5070
  208MOL0     C27967   3.282   4.463   4.767  0.4096 -0.1376  0.8648
  208MOL0     C27968   3.423   4.396   4.784 -0.8286  0.2387  0.1962
  208MOL0     O27969   3.418   4.324   4.909 -0.5592  0.0112  0.6064
  208MOL0     C27970   3.550   4.284   4.943 -0.4348  0.1428  0.2993
  208MOL0     C27971   3.665   4.280   4.863  0.9000 -0.3516 -0.5396
  208MOL0     C27972   3.783   4.230   4.916 -0.9625 -0.5930 -0.1373
  208MOL0     C27973   3.797   4.180   5.043  0.5063  0.0201 -0.6900
  208MOL0     C27974   3.930   4.131   5.095  0.5381 -0.8204  0.2296
  208MOL0     O27975   3.934   4.052   5.199 -0.0497  0.5172  0.0986
  208MOL0     C27976   4.062   3.995   5.225 -0.1814 -0.8845  0.2961
  208MOL0     C27977   4.108   4.015   5.355  0.3158 -0.2345 -0.2275
  208MOL0     C27978   4.239   3.975   5.386 -0.3601 -1.1454 -0.1823
  208MOL0     C27979   4.331   3.924   5.294  0.2598  0.5817  1.1905
  208MOL0     O27980   4.455   3.893   5.348 -0.2463  0.5311 -0.3622
  208MOL0     C27981   4.570   3.853   5.261 -0.0054  0.2017 -0.2412
  208MOL0     C27982   4.694   3.810   5.339  0.6943 -0.6978  0.5588
  208MOL0     C27983   4.664   3.681   5.409  0.4779  0.4882 -0.2949
  208MOL0     C27984   4.768   3.648   5.515  0.0473 -0.0311 -0.2341
  208MOL0     C27985   4.894   3.565   5.460 -0.2528  1.2714 -0.4318
  208MOL0     C27986   4.862   3.408   5.422  0.7082 -0.0274 -0.3873
  208MOL0     C27987   4.825   3.327   5.550 -0.1082  0.2509  0.7423
  208MOL0     C27988   4.819   3.172   5.517  0.5714 -1.1912  0.5110
  208MOL0    Cl27989   4.967   3.125   5.443  0.1056 -0.0464  0.1086
  208MOL0     C27990   4.289   3.913   5.161  0.6419  1.0845  0.4973
  208MOL0     C27991   4.155   3.938   5.126 -0.2733  0.0211 -0.2198
  208MOL0     O27992   4.028   4.166   5.026  0.1067  0.3415  0.9371
  208MOL0     C27993   3.678   4.182   5.122 -0.7869 -0.3620  0.3943
  208MOL0     C27994   3.559   4.230   5.067  0.2000 -0.1347 -0.8321
  208MOL0     N27995   2.965   4.400   4.936 -0.4904  0.5068 -0.3441
  208MOL0     N27996   2.844   4.371   4.973 -0.1579  0.2041  0.8496
  208MOL0     C27997   1.672   5.023   4.729  0.7030  0.0292  0.7467
  208MOL0     C27998   1.537   5.041   4.697 -0.1518  0.3718 -0.0760
  208MOL0     C27999   1.093   5.007   4.697 -0.0547 -0.4512 -0.0613
  208MOL0     C28000   1.043   4.913   4.600 -0.8172 -0.1960 -0.1158
  208MOL0     C28001   0.908   4.900   4.578 -0.4793  0.6239  0.7326
  208MOL0     C28002   0.804   4.972   4.650  0.5767 -0.0095  0.4179
  208MOL0     O28003   0.667   4.973   4.627  0.3421 -0.5176  0.3547
  208MOL0     C28004   0.621   4.849   4.572  0.0329  1.2345 -0.2030
  208MOL0     C28005   0.472   4.834   4.579  0.0615 -0.8381 -0.6551
  208MOL0     C28006   0.415   4.710   4.508  0.5678  0.1098  0.0058
  208MOL0     C28007   0.261   4.706   4.540  0.1092  0.5693  0.4245
  208MOL0     C28008   0.215   4.569   4.508 -0.2373 -0.0586  0.2435
  208MOL0     C28009   0.175   4.456   4.473  0.4130 -0.1230 -0.5705
  208MOL0     C28010   0.851   5.069   4.744  0.7875  0.3336 -0.6219
  208MOL0     C28011   0.991   5.083   4.762 -1.1068  0.3656 -0.5904
  208MOL0     C28012   1.013   5.203   4.850  0.1676  0.0035  0.7879
  208MOL0     H28013   1.444   4.722   4.686 -2.1375  1.1644 -0.7685
  208MOL0     H28014   1.668   4.687   4.773 -0.4264 -0.1477 -1.5766
  208MOL0     H28015   1.877   4.776   4.958  2.7786 -0.4039  0.4663
  208MOL0     H28016   1.921   4.688   4.807 -4.2247 -0.6485 -1.0097
  208MOL0     H28017   2.033   4.929   4.936 -2.1946 -0.6369  0.1708
  208MOL0     H28018   2.105   4.888   4.789  1.0338  0.8297  0.8085
  208MOL0     H28019   2.134   4.647   4.871 -0.8723 -1.4028  1.4449
  208MOL0     H28020   2.091   4.703   5.038  1.5144  0.6492  1.4450
  208MOL0     H28021   2.310   4.826   4.884 -1.6934  3.7268  1.3351
  208MOL0     H28022   2.284   4.862   5.054 -0.1393  1.2167 -0.8519
  208MOL0     H28023   2.315   4.616   5.099 -3.9791  2.1485 -0.9695
  208MOL0     H28024   2.379   4.593   4.937  2.3567 -0.2085  0.6127
  208MOL0     H28025   2.528   4.756   4.940 -1.4257 -0.8626 -1.2123
  208MOL0     H28026   2.495   4.795   5.115 -1.3022  1.1059 -1.8736
  208MOL0     H28027   2.543   4.563   5.169 -1.9781 -0.7591 -1.7990
  208MOL0     H28028   2.687   4.653   5.122 -1.6867  4.2196  0.3221
  208MOL0     H28029   2.585   4.413   4.991  2.1572 -1.1659  1.6919
  208MOL0     H28030   2.587   4.549   4.880  2.1079 -0.9151 -1.2259
  208MOL0     H28031   2.837   4.701   4.909  2.5974  0.7201 -3.9316
  208MOL0     H28032   3.108   4.650   4.762  1.7585 -3.2925 -0.9879
  208MOL0     H28033   3.097   4.718   4.919 -1.3749  1.0925 -0.6186
  208MOL0     H28034   3.319   4.631   4.919  0.0320 -0.7016 -0.4956
  208MOL0     H28035   3.246   4.506   4.993  3.4062  3.0587  1.5013
  208MOL0     H28036   3.284   4.523   4.675  0.2978 -0.4444  0.6580
  208MOL0     H28037   3.204   4.387   4.755 -0.8711  1.5057 -2.7650
  208MOL0     H28038   3.490   4.483   4.788 -0.6978  0.4658 -3.3496
  208MOL0     H28039   3.461   4.340   4.698 -0.2341 -0.5727  0.9684
  208MOL0     H28040   3.679   4.328   4.767  2.2725 -2.0747 -1.2617
  208MOL0     H28041   3.878   4.238   4.864 -1.2098  2.9198 -0.3124
  208MOL0     H28042   4.039   4.054   5.429 -0.1033 -0.9229 -0.2504
  208MOL0     H28043   4.287   3.984   5.483  0.8051 -1.5909 -0.7022
  208MOL0     H28044   4.554   3.769   5.192 -0.3583  1.3774 -1.6396
  208MOL0     H28045   4.598   3.934   5.192  0.7093 -0.9980 -1.4171
  208MOL0     H28046   4.773   3.806   5.265 -1.2174  1.6949 -1.8140
  208MOL0     H28047   4.713   3.889   5.413 -1.7394  1.2270 -0.7025
  208MOL0     H28048   4.562   3.699   5.446 -0.2374  0.1256 -1.9987
  208MOL0     H28049   4.661   3.601   5.334 -0.0106  1.1747 -1.0271
  208MOL0     H28050   4.724   3.592   5.598  3.1103 -1.0306  0.8498
  208MOL0     H28051   4.798   3.741   5.566 -4.0951  1.0433  0.6478
  208MOL0     H28052   4.981   3.575   5.525 -0.5187  1.3766 -0.0889
  208MOL0     H28053   4.923   3.619   5.369  2.4001 -0.8835 -0.9784
  208MOL0     H28054   4.774   3.414   5.358  0.3795  1.1469  0.1344
  208MOL0     H28055   4.950   3.370   5.369  1.4993 -0.0467  0.8752
  208MOL0     H28056   4.727   3.349   5.593  0.2416  0.1773  1.6055
  208MOL0     H28057   4.889   3.343   5.637  0.8894 -2.8845  0.6887
  208MOL0     H28058   4.814   3.108   5.605 -1.5106 -0.0462  1.3098
  208MOL0     H28059   4.735   3.153   5.448 -1.5032 -2.6893  3.2603
  208MOL0     H28060   4.362   3.884   5.087  0.4586  1.7452  0.0541
  208MOL0     H28061   4.126   3.921   5.023  2.1097  0.3227 -0.9998
  208MOL0     H28062   3.684   4.160   5.229 -0.4950 -1.2000  0.2135
  208MOL0     H28063   3.466   4.226   5.123  0.3370 -0.0549 -0.5951
  208MOL0     H28064   1.721   5.118   4.715 -2.1061  1.3849 -0.5016
  208MOL0     H28065   1.498   5.140   4.675 -0.4612  0.5823  1.3142
  208MOL0     H28066   1.112   4.853   4.541 -1.3938 -0.4223 -0.5598
  208MOL0     H28067   0.886   4.839   4.491  0.5636  1.4401 -0.1275
  208MOL0     H28068   0.663   4.767   4.631  0.6943  1.4824 -0.3222
  208MOL0     H28069   0.640   4.848   4.464 -0.8899  3.3659 -0.4454
  208MOL0     H28070   0.419   4.925   4.548  1.0860 -0.1529 -0.4452
  208MOL0     H28071   0.443   4.809   4.681  0.7771 -2.4667 -0.8193
  208MOL0     H28072   0.462   4.616   4.540 -0.6523 -1.0027 -1.3395
  208MOL0     H28073   0.406   4.726   4.400  0.2828  1.8527  0.2627
  208MOL0     H28074   0.250   4.730   4.646  2.4322  0.9082  0.6594
  208MOL0     H28075   0.207   4.773   4.473 -0.9915 -2.9821 -2.5418
  208MOL0     H28076   0.156   4.351   4.464 -2.8069  0.5476 -4.0716
  208MOL0     H28077   0.782   5.135   4.796  0.4982 -1.5433  1.5313
  208MOL0     H28078   1.112   5.247   4.836  0.8315 -1.5065  0.5371
  208MOL0     H28079   0.932   5.274   4.831  1.5636  2.0110  1.9884
  208MOL0     H28080   1.000   5.167   4.952  1.5507 -1.3232  0.5470
  209MOL0     O28081   1.911  11.009   5.759 -0.4657  0.0583 -1.5355
  209MOL0     C28082   1.960  11.017   5.646  0.3892 -0.0201 -0.9462
  209MOL0     O28083   1.977  10.915   5.571 -0.1759 -0.1482  0.1686
  209MOL0     C28084   2.090  10.920   5.495  0.4482  0.1798  0.6477
  209MOL0     C28085   2.092  10.949   5.357  0.0254 -0.0822 -0.6304
  209MOL0     C28086   2.214  10.926   5.282 -0.4747 -0.4515 -0.7404
  209MOL0     C28087   2.324  10.870   5.346 -0.1645 -0.7066 -0.2432
  209MOL0     O28088   2.436  10.864   5.270 -0.5495 -0.1503  0.2831
  209MOL0     C28089   2.554  10.908   5.330 -0.4374  0.5737 -0.3056
  209MOL0     C28090   2.653  10.878   5.220 -0.6641 -0.7460 -0.8463
  209MOL0     C28091   2.799  10.913   5.259  0.5034 -0.7520 -0.0225
  209MOL0     C28092   2.901  10.897   5.143  0.1295  0.1245 -1.0931
  209MOL0     C28093   3.029  10.975   5.166 -0.0813 -0.1488 -0.1693
  209MOL0     C28094   3.120  10.949   5.049  0.1233 -0.2623  0.1441
  209MOL0     C28095   3.246  11.027   5.063 -0.0093 -0.8084  0.2393
  209MOL0     C28096   3.335  10.939   5.161  0.7201 -1.0713 -0.4184
  209MOL0     N28097   3.457  11.003   5.185 -0.9634  0.3490 -0.5562
  209MOL0     C28098   3.575  10.972   5.119  0.1586  0.5358 -0.1329
  209MOL0     C28099   3.667  11.028   5.192  0.0427 -0.0482  0.0700
  209MOL0     C28100   3.822  11.021   5.177  0.8970 -0.9213  0.9135
  209MOL0     C28101   3.881  11.148   5.106 -0.5348 -0.3171  0.3807
  209MOL0     C28102   4.032  11.115   5.095  0.7015  0.0384 -0.5159
  209MOL0     C28103   4.100  11.205   4.995  0.8615 -0.1192 -0.3197
  209MOL0     O28104   4.210  11.137   4.944 -0.2110 -0.1129  0.3788
  209MOL0     C28105   4.242  11.166   4.813  0.5616  0.2003  1.0916
  209MOL0     C28106   4.376  11.206   4.788 -0.9810  0.3805  0.3287
  209MOL0     C28107   4.418  11.221   4.660  0.7900 -0.8926 -0.0038
  209MOL0     C28108   4.333  11.209   4.545 -1.1700 -0.2930 -1.0466
  209MOL0     C28109   4.397  11.238   4.413  0.6557  0.5423 -0.2525
  209MOL0     O28110   4.510  11.325   4.426  0.1215  0.5687 -0.2015
  209MOL0     C28111   4.613  11.301   4.339 -0.2723 -0.9494 -0.5124
  209MOL0     C28112   4.741  11.253   4.380 -0.4034  0.4019  0.0591
  209MOL0     C28113   4.841  11.227   4.284 -0.2910 -0.2620  0.1228
  209MOL0     C28114   4.821  11.251   4.152 -0.7171 -0.0548 -1.1688
  209MOL0     O28115   4.920  11.211   4.070 -0.0919 -0.3167 -0.6757
  209MOL0     C28116   4.888  11.154   3.941  0.0018  0.5048 -0.4826
  209MOL0     C28117   4.778  11.045   3.948  0.5112  0.1458  0.0027
  209MOL0     C28118   4.763  10.970   3.816  0.2920 -0.5588 -0.1767
  209MOL0     C28119   4.896  10.925   3.746  0.9030  0.4035 -1.3860
  209MOL0     C28120   4.851  10.844   3.625 -0.1162  0.5665  0.9513
  209MOL0     C28121   4.773  10.706   3.664  0.0125 -1.0308  0.0834
  209MOL0     C28122   4.687  10.666   3.545  0.2271  0.0612 -0.4552
  209MOL0     C28123   4.638  10.522   3.550 -0.0209 -0.2376 -0.4494
  209MOL0    Cl28124   4.539  10.488   3.412 -0.1572  0.0103  0.0196
  209MOL0     C28125   4.702  11.304   4.109  0.1609 -1.0187 -0.0793
  209MOL0     C28126   4.603  11.338   4.202 -0.0073  0.3821  0.0865
  209MOL0     O28127   4.367  11.175   4.314 -0.1089 -0.4111  0.3525
  209MOL0     C28128   4.195  11.179   4.569  0.0810  0.0873  0.4302
  209MOL0     C28129   4.153  11.153   4.701 -0.2136  0.5026 -0.7920
  209MOL0     N28130   3.611  11.093   5.301  0.1860  0.3191 -0.6082
  209MOL0     N28131   3.484  11.084   5.288  0.2268 -0.0521  0.8233
  209MOL0     C28132   2.321  10.823   5.471 -0.6466 -0.1927 -0.3248
  209MOL0     C28133   2.206  10.857   5.539 -0.2597  0.0175  0.8711
  209MOL0     C28134   2.005  11.153   5.607  0.3721 -0.7779 -0.5897
  209MOL0     C28135   2.121  11.204   5.671  0.5499  0.0992 -0.0800
  209MOL0     C28136   2.136  11.344   5.671  0.8912  1.2032 -0.0919
  209MOL0     C28137   2.060  11.432   5.602  0.9465 -0.0143 -0.1426
  209MOL0     O28138   2.085  11.566   5.611  0.1624  0.6637 -0.0272
  209MOL0     C28139   2.023  11.670   5.532 -1.1202  0.2482  0.2217
  209MOL0     C28140   2.103  11.807   5.532 -0.3728  0.7635 -0.0945
  209MOL0     C28141   2.255  11.787   5.502 -0.6029  0.3212 -0.1522
  209MOL0     C28142   2.293  11.824   5.356 -0.3228 -0.4439 -0.3820
  209MOL0     C28143   2.437  11.829   5.361  0.0446  0.4070 -0.2173
  209MOL0     C28144   2.558  11.835   5.341 -0.0063 -0.0411  0.5444
  209MOL0     C28145   1.954  11.379   5.535 -0.0880  0.7130  0.2299
  209MOL0     C28146   1.923  11.244   5.535  0.3709  0.6946 -0.1641
  209MOL0     C28147   1.793  11.199   5.490  0.6490  0.1676 -0.5280
  209MOL0     H28148   1.998  10.975   5.311  0.3966 -0.4769 -1.6277
  209MOL0     H28149   2.215  10.964   5.180  2.3225  1.7512 -0.0028
  209MOL0     H28150   2.550  11.016   5.347  1.4945  1.0714 -2.4740
  209MOL0     H28151   2.578  10.849   5.419 -3.1728 -0.0234  0.1269
  209MOL0     H28152   2.607  10.931   5.135 -1.0138  3.7774  1.8086
  209MOL0     H28153   2.658  10.772   5.193 -0.5847 -0.9346 -0.0991
  209MOL0     H28154   2.819  10.862   5.354 -4.0353 -1.8887  0.6067
  209MOL0     H28155   2.807  11.014   5.300  1.2760 -0.4532 -0.8737
  209MOL0     H28156   2.938  10.794   5.151  0.4338  0.3284  0.3436
  209MOL0     H28157   2.867  10.925   5.043  2.4309  2.8839 -1.2133
  209MOL0     H28158   3.010  11.080   5.190 -1.8172 -1.2987  4.7656
  209MOL0     H28159   3.069  10.927   5.256  1.0233 -1.9146 -1.5201
  209MOL0     H28160   3.148  10.843   5.053 -0.6908 -0.5528 -1.1095
  209MOL0     H28161   3.076  10.961   4.949 -0.1227 -1.4919  0.0890
  209MOL0     H28162   3.222  11.123   5.108 -0.0781 -1.9660  2.8626
  209MOL0     H28163   3.296  11.038   4.966 -1.6515  1.7044 -0.4017
  209MOL0     H28164   3.286  10.919   5.257 -1.1225  2.0513 -0.5954
  209MOL0     H28165   3.358  10.838   5.125 -0.0423 -2.4115  2.5075
  209MOL0     H28166   3.591  10.909   5.032  0.0499 -0.6442  0.6721
  209MOL0     H28167   3.860  11.013   5.279 -0.5701  2.4032  1.8467
  209MOL0     H28168   3.845  10.931   5.120 -1.1870 -0.4354 -0.8197
  209MOL0     H28169   3.829  11.173   5.013 -1.9055 -1.1788  0.8829
  209MOL0     H28170   3.861  11.234   5.171 -2.1915  0.4194 -1.0170
  209MOL0     H28171   4.032  11.015   5.051 -1.0541  0.4692 -1.5835
  209MOL0     H28172   4.072  11.130   5.196 -0.0833 -3.0497  0.3538
  209MOL0     H28173   4.116  11.308   5.026  0.9600 -0.1253 -0.3500
  209MOL0     H28174   4.033  11.211   4.908 -0.9823 -0.6881  0.9920
  209MOL0     H28175   4.452  11.225   4.864 -3.0519  1.5138  2.2240
  209MOL0     H28176   4.524  11.240   4.652  0.0835  5.2204  0.5487
  209MOL0     H28177   4.759  11.233   4.486  0.4203  1.5577  0.1578
  209MOL0     H28178   4.935  11.192   4.326  1.4438  2.5848 -1.0240
  209MOL0     H28179   4.872  11.233   3.867  1.5843  1.4600  0.1467
  209MOL0     H28180   4.984  11.103   3.929  1.0205  1.3777  2.8096
  209MOL0     H28181   4.791  10.975   4.031 -1.2064 -1.6270 -1.1479
  209MOL0     H28182   4.677  11.079   3.969  0.6977  1.2200 -0.7714
  209MOL0     H28183   4.682  10.897   3.825 -1.8493  1.6264 -0.4838
  209MOL0     H28184   4.717  11.047   3.753 -1.3475 -2.0972 -0.9438
  209MOL0     H28185   4.952  10.860   3.813  0.7248  3.0895  1.5647
  209MOL0     H28186   4.949  11.013   3.710 -0.4302  2.1254  0.6512
  209MOL0     H28187   4.943  10.813   3.573 -0.4165  3.5632 -1.6414
  209MOL0     H28188   4.803  10.903   3.547  1.8727  0.5838 -0.3226
  209MOL0     H28189   4.835  10.620   3.690  0.2935 -1.0076 -0.4868
  209MOL0     H28190   4.699  10.726   3.742 -0.2967  3.5227 -1.0743
  209MOL0     H28191   4.739  10.671   3.449 -1.4290  0.9230 -1.3409
  209MOL0     H28192   4.601  10.732   3.532 -0.0074  0.0865  1.0002
  209MOL0     H28193   4.718  10.448   3.549  0.7488  0.5628 -1.5066
  209MOL0     H28194   4.595  10.503   3.648 -1.4583  3.5041 -0.1841
  209MOL0     H28195   4.669  11.315   4.006  0.6279  0.3677 -0.1050
  209MOL0     H28196   4.505  11.378   4.181 -0.3904 -0.1440  0.8168
  209MOL0     H28197   4.124  11.157   4.490 -0.0296 -0.4807  0.6840
  209MOL0     H28198   4.054  11.114   4.723 -0.7178  2.5023  0.8255
  209MOL0     H28199   2.403  10.791   5.534 -0.5071  0.8338  0.0350
  209MOL0     H28200   2.213  10.820   5.641  2.5445 -0.3497  0.6420
  209MOL0     H28201   2.189  11.135   5.721 -1.3348 -0.6445  1.6361
  209MOL0     H28202   2.219  11.366   5.737 -0.0032 -1.1815  1.9940
  209MOL0     H28203   1.919  11.693   5.558 -0.4763  2.2782  1.2501
  209MOL0     H28204   2.030  11.634   5.429  0.2595 -0.0565  0.4034
  209MOL0     H28205   2.089  11.857   5.629  0.1652  0.1406  0.3076
  209MOL0     H28206   2.068  11.872   5.450 -2.1328 -2.5816 -2.2057
  209MOL0     H28207   2.285  11.682   5.511 -1.4170  0.1615  0.9426
  209MOL0     H28208   2.320  11.840   5.572  1.0887 -2.2855  0.4114
  209MOL0     H28209   2.258  11.757   5.277 -1.3843 -2.8422  1.9573
  209MOL0     H28210   2.246  11.919   5.329 -0.4750  0.1136  1.6474
  209MOL0     H28211   2.663  11.842   5.321  0.2416  0.9251  2.0548
  209MOL0     H28212   1.881  11.445   5.488 -1.2028 -0.7652 -0.1863
  209MOL0     H28213   1.757  11.247   5.398 -1.5170 -0.7609 -0.2060
  209MOL0     H28214   1.794  11.092   5.467 -2.6642 -0.1587  0.4662
  209MOL0     H28215   1.718  11.228   5.563  1.1174  1.1577 -0.4213
  210MOL0     O28216  10.254   5.624   1.475  0.6085  0.1040 -0.8676
  210MOL0     C28217  10.356   5.557   1.478 -0.0638  0.7188  0.9545
  210MOL0     O28218  10.467   5.591   1.544  0.4025 -0.0909  0.2466
  210MOL0     C28219  10.462   5.698   1.629 -0.3463  0.2469 -0.3329
  210MOL0     C28220  10.564   5.792   1.621  0.4317 -0.6268  0.1511
  210MOL0     C28221  10.566   5.898   1.713  0.7606 -0.6174 -0.0705
  210MOL0     C28222  10.473   5.909   1.813 -0.0182  0.8634  0.3198
  210MOL0     O28223  10.493   6.014   1.906 -0.3313  0.2058  0.4139
  210MOL0     C28224  10.365   6.079   1.939 -0.4954  0.6718  0.3903
  210MOL0     C28225  10.390   6.211   2.016  1.0760 -0.6345  0.1912
  210MOL0     C28226  10.250   6.259   2.056 -0.0028  0.0445  0.1871
  210MOL0     C28227  10.149   6.284   1.945  0.3046 -0.2051  0.3024
  210MOL0     C28228  10.036   6.383   1.981 -0.1279 -0.2461 -1.2076
  210MOL0     C28229   9.929   6.408   1.869 -0.3705  0.2191 -0.5247
  210MOL0     C28230   9.988   6.477   1.750  0.3347  0.4955 -0.1160
  210MOL0     C28231   9.866   6.513   1.656  0.8194  0.4302  0.2856
  210MOL0     N28232   9.916   6.565   1.534  0.1560  0.4261 -0.7746
  210MOL0     C28233   9.990   6.505   1.436  0.8548  0.4785  0.5866
  210MOL0     C28234  10.025   6.608   1.351  0.4112  0.1026 -0.5414
  210MOL0     C28235  10.114   6.591   1.230  1.0170  1.0574  0.7489
  210MOL0     C28236  10.257   6.578   1.277  0.5081 -0.4678 -0.0217
  210MOL0     C28237  10.366   6.583   1.170  0.3056 -0.0761  0.3875
  210MOL0     C28238  10.470   6.466   1.191 -1.1150 -0.2082  0.6600
  210MOL0     O28239  10.423   6.335   1.155  0.3765  0.4174  0.5565
  210MOL0     C28240  10.500   6.227   1.176 -0.3785  1.0160  0.1972
  210MOL0     C28241  10.634   6.233   1.194 -0.1079 -0.5950 -0.4452
  210MOL0     C28242  10.711   6.116   1.211  0.5480 -0.4084 -0.0752
  210MOL0     C28243  10.649   5.988   1.198 -1.2159 -0.0658  0.4973
  210MOL0     C28244  10.736   5.863   1.216 -0.8242 -0.5096 -0.4739
  210MOL0     O28245  10.682   5.737   1.182 -0.3304 -0.9402  0.7462
  210MOL0     C28246  10.749   5.624   1.140  0.0784  0.0095  0.8115
  210MOL0     C28247  10.873   5.614   1.085 -1.3757  0.1095  1.6786
  210MOL0     C28248  10.935   5.480   1.044 -0.1238 -1.0894  0.0510
  210MOL0     C28249  10.859   5.371   1.056 -0.3059  0.7913  0.6805
  210MOL0     O28250  10.891   5.245   1.025 -0.0568  0.2451  0.1036
  210MOL0     C28251  11.015   5.197   1.077  0.1975 -0.3101 -0.6947
  210MOL0     C28252  11.008   5.055   1.121 -0.4844 -0.1484  0.3490
  210MOL0     C28253  10.926   5.017   1.253 -0.9237 -0.8663  0.1928
  210MOL0     C28254  10.918   4.869   1.273 -0.3065 -0.7875 -0.6317
  210MOL0     C28255  10.819   4.820   1.384 -0.5365 -0.0190 -1.1088
  210MOL0     C28256  10.801   4.661   1.374 -0.7522  1.1205 -0.2822
  210MOL0     C28257  10.929   4.594   1.432 -0.2445  0.2321 -0.2180
  210MOL0     C28258  10.921   4.443   1.411 -0.3192 -0.7836  0.1724
  210MOL0    Cl28259  11.055   4.344   1.502 -0.0991 -0.1191 -0.4885
  210MOL0     C28260  10.727   5.381   1.105 -0.4476  0.7568 -0.0567
  210MOL0     C28261  10.673   5.506   1.146  0.3143 -0.3274 -0.7114
  210MOL0     O28262  10.849   5.879   1.263 -0.2270  1.0298 -0.2597
  210MOL0     C28263  10.518   5.983   1.172 -0.1067  0.4769 -0.0721
  210MOL0     C28264  10.433   6.104   1.152 -0.9979  0.5510  0.5307
  210MOL0     N28265   9.983   6.725   1.407 -0.9435 -0.2148 -0.6404
  210MOL0     N28266   9.918   6.695   1.511  0.6688 -1.1056  0.0717
  210MOL0     C28267  10.387   5.806   1.834  1.0108 -0.0019  0.8656
  210MOL0     C28268  10.366   5.709   1.728 -1.0053 -0.6833  0.0847
  210MOL0     C28269  10.350   5.421   1.408  0.0619  0.2532 -0.1088
  210MOL0     C28270  10.475   5.351   1.389 -0.3207 -0.8065 -0.2528
  210MOL0     C28271  10.480   5.223   1.331  0.0008 -0.2300  0.1936
  210MOL0     C28272  10.356   5.157   1.304  0.1293  0.6075  0.6018
  210MOL0     O28273  10.340   5.035   1.259  0.2220 -0.0785  0.1999
  210MOL0     C28274  10.455   4.945   1.258  0.5156  0.3669  0.8097
  210MOL0     C28275  10.392   4.815   1.202 -0.1651  0.0492 -0.4788
  210MOL0     C28276  10.497   4.696   1.184 -0.1927 -0.5916 -0.1791
  210MOL0     C28277  10.545   4.664   1.042 -0.0539  0.1480 -0.2784
  210MOL0     C28278  10.633   4.764   0.986 -0.5221 -0.1729 -1.5379
  210MOL0     C28279  10.708   4.849   0.941  0.6059  0.1436  0.4404
  210MOL0     C28280  10.234   5.222   1.330 -0.5156  0.4452 -1.3562
  210MOL0     C28281  10.234   5.349   1.384 -0.8051 -0.2706  0.2055
  210MOL0     C28282  10.099   5.404   1.412 -0.0714 -0.2299  0.4684
  210MOL0     H28283  10.630   5.785   1.535  0.1585 -1.1796 -0.0172
  210MOL0     H28284  10.648   5.968   1.706  0.0297  0.1246 -2.6436
  210MOL0     H28285  10.310   6.089   1.844  0.5269 -2.7902 -0.7300
  210MOL0     H28286  10.305   6.030   2.016  0.8298  1.4741  1.9666
  210MOL0     H28287  10.428   6.289   1.950 -1.7225  0.3650 -0.3852
  210MOL0     H28288  10.456   6.196   2.102  3.3912 -0.3754 -1.4436
  210MOL0     H28289  10.272   6.347   2.117  1.2349 -1.9215  2.8370
  210MOL0     H28290  10.209   6.184   2.125  0.4918  0.2180  0.6837
  210MOL0     H28291  10.205   6.303   1.853 -0.0617 -0.0498  0.1098
  210MOL0     H28292  10.097   6.188   1.936  0.2302 -0.2722  1.3784
  210MOL0     H28293   9.995   6.341   2.073  0.7825  2.3398  0.5146
  210MOL0     H28294  10.091   6.476   2.000  1.1107 -0.4279 -3.4683
  210MOL0     H28295   9.893   6.309   1.839 -0.4333  0.0635  0.0557
  210MOL0     H28296   9.850   6.465   1.918  0.7651 -0.5150  2.3849
  210MOL0     H28297  10.068   6.413   1.711  0.5861  0.7939 -0.1015
  210MOL0     H28298  10.036   6.571   1.781 -0.1038  0.6900 -0.0167
  210MOL0     H28299   9.804   6.427   1.631  1.1320  0.9268 -2.5770
  210MOL0     H28300   9.784   6.574   1.694 -1.4089 -2.7035  0.8809
  210MOL0     H28301  10.011   6.399   1.428 -0.2451  0.4180 -5.1603
  210MOL0     H28302  10.082   6.507   1.168  2.7217  2.0524 -1.6209
  210MOL0     H28303  10.107   6.678   1.165  0.1512 -0.0231 -0.6458
  210MOL0     H28304  10.270   6.658   1.351 -2.4713  0.3131 -0.2365
  210MOL0     H28305  10.268   6.491   1.342  0.2667  0.2346  0.9922
  210MOL0     H28306  10.419   6.679   1.182  1.0826 -0.2757 -1.2755
  210MOL0     H28307  10.319   6.582   1.071  0.6237  0.4762  0.2279
  210MOL0     H28308  10.507   6.470   1.294  0.0630 -3.2254  0.4622
  210MOL0     H28309  10.556   6.490   1.128 -1.9787 -0.1306 -0.5207
  210MOL0     H28310  10.684   6.329   1.190  1.0851 -1.2302 -1.6968
  210MOL0     H28311  10.809   6.134   1.254  1.0181  3.4304 -2.3621
  210MOL0     H28312  10.946   5.694   1.085 -0.5418 -0.5012 -1.8782
  210MOL0     H28313  11.020   5.484   0.978  0.2208 -0.4621  0.5137
  210MOL0     H28314  11.090   5.205   0.998 -1.8841  0.1376 -2.7247
  210MOL0     H28315  11.041   5.261   1.163  0.5884  0.5588 -1.4441
  210MOL0     H28316  10.971   5.003   1.032 -2.0820  0.9062  0.3714
  210MOL0     H28317  11.108   5.019   1.148 -0.7643  1.4066  3.9363
  210MOL0     H28318  10.971   5.065   1.340  2.8347 -0.8086 -1.5597
  210MOL0     H28319  10.828   5.066   1.248 -0.4627  0.2565  1.5699
  210MOL0     H28320  11.017   4.824   1.288  0.9918  0.7144 -3.6393
  210MOL0     H28321  10.888   4.833   1.174 -1.4731  2.4186 -1.5869
  210MOL0     H28322  10.722   4.869   1.376 -0.1306  1.8697  2.9311
  210MOL0     H28323  10.850   4.843   1.486 -0.7954 -3.6476 -0.0472
  210MOL0     H28324  10.721   4.642   1.446 -1.0873 -0.0337 -0.9416
  210MOL0     H28325  10.783   4.631   1.270 -0.1637 -0.2873  0.0068
  210MOL0     H28326  10.936   4.615   1.539 -4.1844 -0.5608  0.3480
  210MOL0     H28327  11.016   4.624   1.373 -0.3349 -0.6736 -0.8257
  210MOL0     H28328  10.828   4.408   1.457  0.5899 -3.1477  0.3738
  210MOL0     H28329  10.935   4.418   1.305 -1.7683  0.3580 -0.3113
  210MOL0     H28330  10.657   5.298   1.106 -1.0633  1.2641 -0.4963
  210MOL0     H28331  10.573   5.496   1.186 -0.5686 -2.6410 -3.2347
  210MOL0     H28332  10.474   5.885   1.156 -2.4239  1.5076 -0.4295
  210MOL0     H28333  10.330   6.105   1.118 -0.8930 -0.1537  0.1545
  210MOL0     H28334  10.322   5.812   1.920  0.3908 -0.3034  0.4258
  210MOL0     H28335  10.295   5.626   1.734 -1.1963 -0.4160  2.2868
  210MOL0     H28336  10.564   5.403   1.421 -1.5270  0.9382  0.4118
  210MOL0     H28337  10.572   5.166   1.319 -0.8980 -1.2598 -2.7187
  210MOL0     H28338  10.490   4.928   1.361 -0.1224 -2.0198  0.7014
  210MOL0     H28339  10.535   4.992   1.200 -1.2834 -0.3672 -2.5063
  210MOL0     H28340  10.335   4.843   1.112  1.1003 -1.4143 -1.7784
  210MOL0     H28341  10.317   4.801   1.280 -1.5960  3.8153 -0.9271
  210MOL0     H28342  10.449   4.607   1.224  0.9029 -1.4950 -0.7955
  210MOL0     H28343  10.590   4.708   1.240 -0.0156 -0.0614 -0.5758
  210MOL0     H28344  10.589   4.564   1.050 -0.6985  0.0068  2.2938
  210MOL0     H28345  10.462   4.647   0.973 -0.8245 -2.4656  1.1610
  210MOL0     H28346  10.781   4.921   0.909  0.4416 -0.1329 -0.5978
  210MOL0     H28347  10.141   5.174   1.301  0.5780 -1.2453 -2.2405
  210MOL0     H28348  10.024   5.324   1.415  1.6151 -1.9291 -0.2086
  210MOL0     H28349  10.097   5.431   1.518  1.5800  0.4121  0.3563
  210MOL0     H28350  10.073   5.492   1.354 -1.2903 -0.0393  1.2722
  211MOL0     O28351   9.321   5.449   8.362 -0.6587 -0.1452 -0.4482
  211MOL0     C28352   9.428   5.399   8.402 -0.5307 -0.7812  0.4878
  211MOL0     O28353   9.548   5.409   8.336  0.4245 -0.5572  0.6961
  211MOL0     C28354   9.537   5.458   8.210  0.2948 -0.1899 -0.4492
  211MOL0     C28355   9.561   5.597   8.185 -0.1227 -0.2552 -0.4355
  211MOL0     C28356   9.554   5.650   8.054 -0.2885  0.6741  0.0448
  211MOL0     C28357   9.506   5.576   7.951  0.0730  1.4502 -0.1186
  211MOL0     O28358   9.470   5.623   7.828  0.1167  0.0036  0.7047
  211MOL0     C28359   9.404   5.753   7.817  0.1092 -0.8293 -0.4418
  211MOL0     C28360   9.325   5.777   7.690  0.2217  0.3401 -0.2215
  211MOL0     C28361   9.248   5.905   7.698 -0.2541 -0.5042 -0.3457
  211MOL0     C28362   9.200   5.958   7.558 -0.1462 -0.7329 -0.0833
  211MOL0     C28363   9.303   6.052   7.492 -0.2751 -0.0919 -0.0249
  211MOL0     C28364   9.258   6.106   7.354 -0.1668 -0.1568 -0.1496
  211MOL0     C28365   9.375   6.187   7.293 -0.2104 -0.1254  0.1570
  211MOL0     C28366   9.421   6.307   7.383  0.7142  1.4868  0.7926
  211MOL0     N28367   9.504   6.388   7.286  0.0227 -0.6150 -0.4384
  211MOL0     C28368   9.633   6.365   7.258 -0.6227 -0.4643  0.0686
  211MOL0     C28369   9.678   6.477   7.192  0.3478 -0.4933 -0.3418
  211MOL0     C28370   9.813   6.494   7.128 -0.4647  0.0957  0.4511
  211MOL0     C28371   9.856   6.410   7.012  1.0720 -0.4542 -0.4185
  211MOL0     C28372   9.745   6.381   6.915 -0.2884 -0.1023  0.2009
  211MOL0     C28373   9.714   6.495   6.820 -0.5146  0.0378  0.3034
  211MOL0     O28374   9.828   6.504   6.730 -0.5533  0.0386  0.1158
  211MOL0     C28375   9.827   6.536   6.602  0.0557  0.2793  0.6823
  211MOL0     C28376   9.944   6.494   6.538  0.6791  0.7560 -0.2843
  211MOL0     C28377   9.961   6.485   6.396  0.0956 -0.0037  0.1345
  211MOL0     C28378   9.853   6.516   6.319  0.2092  0.9618  0.5776
  211MOL0     C28379   9.871   6.492   6.174 -1.0925  0.2176 -1.4870
  211MOL0     O28380   9.996   6.468   6.119 -0.2925 -0.0600  0.2650
  211MOL0     C28381  10.017   6.431   5.988 -0.5892  0.7014  0.3742
  211MOL0     C28382  10.143   6.363   5.977  0.4339 -0.0078  0.8966
  211MOL0     C28383  10.188   6.315   5.847  0.4434 -0.3075  1.3724
  211MOL0     C28384  10.101   6.335   5.735 -0.0355  0.8079 -0.3458
  211MOL0     O28385  10.114   6.279   5.614 -0.7314 -0.5334  0.2750
  211MOL0     C28386  10.228   6.187   5.587 -0.1009  0.4914  0.1113
  211MOL0     C28387  10.361   6.262   5.561 -0.5843  0.1174 -0.3271
  211MOL0     C28388  10.348   6.322   5.417 -0.2031 -0.5489  0.4199
  211MOL0     C28389  10.458   6.434   5.385 -0.4964  0.0452 -0.2733
  211MOL0     C28390  10.600   6.374   5.399  0.6840 -0.1005 -0.0716
  211MOL0     C28391  10.651   6.333   5.258 -0.1759  0.1858  0.3811
  211MOL0     C28392  10.790   6.279   5.272 -0.8174  0.1752 -0.2385
  211MOL0     C28393  10.853   6.239   5.137  0.5749  0.2662 -0.5316
  211MOL0    Cl28394  10.770   6.099   5.067 -0.4637  0.3129  0.0333
  211MOL0     C28395   9.980   6.412   5.748  0.2774  0.1979 -0.3186
  211MOL0     C28396   9.941   6.450   5.882  0.2630  0.2135  0.7853
  211MOL0     O28397   9.764   6.479   6.120 -0.4339  0.0456 -0.3624
  211MOL0     C28398   9.734   6.559   6.382 -0.2546  1.0746  0.0062
  211MOL0     C28399   9.721   6.564   6.524  0.2349  0.1322 -0.1101
  211MOL0     N28400   9.563   6.553   7.174 -0.9922  0.4552 -0.2829
  211MOL0     N28401   9.468   6.507   7.241  0.7070  0.3654  0.5911
  211MOL0     C28402   9.485   5.437   7.976  0.1017  0.5159  0.6363
  211MOL0     C28403   9.500   5.384   8.099  0.7031 -0.0115 -0.8765
  211MOL0     C28404   9.441   5.327   8.528 -0.9441 -0.1774 -0.7429
  211MOL0     C28405   9.576   5.295   8.571  0.3449  0.2879  0.4744
  211MOL0     C28406   9.595   5.217   8.685 -0.7386  0.6025  0.4428
  211MOL0     C28407   9.491   5.199   8.785  0.9041  0.5595  0.5041
  211MOL0     O28408   9.532   5.135   8.897  0.6307 -0.2042 -0.0959
  211MOL0     C28409   9.443   5.125   9.003 -0.0595 -0.5636  0.4733
  211MOL0     C28410   9.493   5.022   9.101 -0.1922 -0.1855 -0.4157
  211MOL0     C28411   9.622   5.090   9.167  0.2482 -0.2130 -0.0525
  211MOL0     C28412   9.634   5.057   9.316 -0.5360 -0.3114 -0.7491
  211MOL0     C28413   9.546   5.135   9.404 -0.2068  0.1142 -0.6675
  211MOL0     C28414   9.482   5.202   9.479  0.2294  0.0581 -0.4628
  211MOL0     C28415   9.364   5.239   8.747  0.9201  0.1953 -0.4798
  211MOL0     C28416   9.334   5.287   8.619 -0.3586 -0.9985  0.2165
  211MOL0     C28417   9.193   5.302   8.576  0.4249  0.5606  0.5914
  211MOL0     H28418   9.592   5.654   8.272  2.5551 -4.5728  1.7893
  211MOL0     H28419   9.572   5.757   8.045 -0.9645  0.8395  0.5385
  211MOL0     H28420   9.337   5.765   7.903 -0.6093 -1.1563 -0.9437
  211MOL0     H28421   9.481   5.830   7.828 -1.1581  0.2545  1.5302
  211MOL0     H28422   9.258   5.690   7.682  0.8998 -0.5920  2.8033
  211MOL0     H28423   9.391   5.779   7.603  0.6284 -2.6412 -0.0918
  211MOL0     H28424   9.300   5.988   7.747 -2.7151  0.8354  0.1591
  211MOL0     H28425   9.159   5.886   7.759 -1.8098  3.3443 -1.1779
  211MOL0     H28426   9.185   5.871   7.492  0.3160 -0.1905 -0.9255
  211MOL0     H28427   9.107   6.014   7.563  1.2670  1.8793 -1.0112
  211MOL0     H28428   9.322   6.132   7.564 -1.4481  1.9562 -1.8691
  211MOL0     H28429   9.387   5.984   7.472  0.4161 -0.2287  2.8513
  211MOL0     H28430   9.237   6.022   7.287 -1.6374  0.4237 -0.4596
  211MOL0     H28431   9.168   6.167   7.367  0.2160  0.0020  2.0949
  211MOL0     H28432   9.338   6.215   7.194 -1.6760  0.2072  0.7605
  211MOL0     H28433   9.466   6.131   7.270  0.0866  0.7185 -0.7506
  211MOL0     H28434   9.325   6.360   7.391  0.4589  1.3612 -1.0495
  211MOL0     H28435   9.463   6.267   7.476  0.5620 -1.7757 -0.4062
  211MOL0     H28436   9.681   6.274   7.291 -0.5592 -0.0213  1.2726
  211MOL0     H28437   9.820   6.599   7.099 -0.6185 -0.4087 -1.5704
  211MOL0     H28438   9.883   6.470   7.209  0.1445 -0.1766 -0.1487
  211MOL0     H28439   9.923   6.475   6.955  1.2377  0.2617  0.5478
  211MOL0     H28440   9.909   6.316   7.032 -1.1567 -1.6204  0.2917
  211MOL0     H28441   9.650   6.362   6.966 -0.2189 -1.0095  0.0006
  211MOL0     H28442   9.784   6.294   6.863  0.1621  1.2144 -1.7660
  211MOL0     H28443   9.708   6.590   6.874  0.9320  2.5998 -3.5864
  211MOL0     H28444   9.621   6.479   6.764  0.9710  0.9571 -2.6856
  211MOL0     H28445  10.014   6.445   6.605 -0.9123 -0.2279  0.7211
  211MOL0     H28446  10.056   6.455   6.353  0.0937  2.4805 -1.8084
  211MOL0     H28447  10.204   6.337   6.063 -0.2983 -0.6896  1.2133
  211MOL0     H28448  10.287   6.274   5.830  1.7178  3.0411 -0.3378
  211MOL0     H28449  10.235   6.108   5.662 -2.3677  0.9862  0.9071
  211MOL0     H28450  10.196   6.147   5.490  1.2115 -0.9408  0.2173
  211MOL0     H28451  10.374   6.341   5.636 -3.3314  1.7200 -1.3510
  211MOL0     H28452  10.450   6.199   5.565  0.6705  1.8371 -0.0085
  211MOL0     H28453  10.339   6.255   5.331 -1.1107 -0.3692  0.3568
  211MOL0     H28454  10.252   6.373   5.405  0.2729  0.1198 -0.7444
  211MOL0     H28455  10.458   6.523   5.449  1.6386  1.0474 -1.5307
  211MOL0     H28456  10.441   6.463   5.280 -0.2178 -3.0871 -1.2918
  211MOL0     H28457  10.598   6.290   5.469 -0.7775  1.1133  1.4131
  211MOL0     H28458  10.658   6.455   5.444  0.9209 -1.7989  2.9490
  211MOL0     H28459  10.587   6.250   5.225  1.6538 -1.1789  0.0480
  211MOL0     H28460  10.646   6.407   5.178 -1.6087 -0.4390 -0.1334
  211MOL0     H28461  10.796   6.186   5.329  1.5586  1.9613  2.7363
  211MOL0     H28462  10.856   6.354   5.317 -1.9038  3.1261 -3.1166
  211MOL0     H28463  10.849   6.324   5.068 -0.0722  0.8694  0.2356
  211MOL0     H28464  10.957   6.208   5.154  0.2769 -0.7192 -0.4436
  211MOL0     H28465   9.910   6.425   5.666 -1.8613  1.9134  1.6358
  211MOL0     H28466   9.840   6.489   5.886  0.5500  1.3048 -1.4082
  211MOL0     H28467   9.655   6.596   6.317 -0.2043 -0.9912 -1.3170
  211MOL0     H28468   9.626   6.597   6.565  0.5787  0.2961  0.5743
  211MOL0     H28469   9.454   5.387   7.885  0.0669  1.1546  0.2850
  211MOL0     H28470   9.485   5.280   8.127  1.6218 -0.0267 -0.4145
  211MOL0     H28471   9.663   5.321   8.511 -1.5450 -1.0672 -3.1524
  211MOL0     H28472   9.699   5.192   8.704 -0.7239 -0.9873 -1.4375
  211MOL0     H28473   9.348   5.087   8.964  0.0506  1.0898 -1.6092
  211MOL0     H28474   9.435   5.228   9.037 -1.4545 -0.0005 -1.3741
  211MOL0     H28475   9.517   4.924   9.059  5.0017  0.7932 -0.4048
  211MOL0     H28476   9.418   5.006   9.179 -0.6351  1.0713 -0.5692
  211MOL0     H28477   9.635   5.198   9.155  1.5529 -0.1249  1.6871
  211MOL0     H28478   9.715   5.053   9.122  1.6985  1.8996  1.0199
  211MOL0     H28479   9.610   4.952   9.334 -2.1459 -0.1317 -1.6745
  211MOL0     H28480   9.739   5.069   9.345 -0.2309  1.1349 -2.2527
  211MOL0     H28481   9.434   5.274   9.543  2.2876  4.2511 -3.1761
  211MOL0     H28482   9.284   5.230   8.819  0.2659 -4.4861 -1.4660
  211MOL0     H28483   9.166   5.408   8.579  2.4264  1.0956  1.5692
  211MOL0     H28484   9.156   5.272   8.477  0.8660  0.2883  0.5054
  211MOL0     H28485   9.124   5.247   8.640  0.6075 -0.6675 -0.2434
  212MOL0     O28486   2.291  11.327   4.910 -0.6722 -0.0444 -0.1626
  212MOL0     C28487   2.203  11.250   4.939 -0.2231  0.4498 -0.7741
  212MOL0     O28488   2.185  11.199   5.063 -0.3435  0.2978 -0.5859
  212MOL0     C28489   2.278  11.239   5.157 -0.0462 -0.5434 -0.5707
  212MOL0     C28490   2.416  11.219   5.134 -0.9626  0.5662 -0.0953
  212MOL0     C28491   2.510  11.263   5.227 -0.1274  0.2335  0.2867
  212MOL0     C28492   2.467  11.343   5.336 -0.1979 -0.7517  0.4956
  212MOL0     O28493   2.550  11.386   5.438 -0.3867  0.5188 -0.2803
  212MOL0     C28494   2.555  11.525   5.481  1.0607  0.2201 -1.4447
  212MOL0     C28495   2.624  11.530   5.625 -0.3324 -0.4955 -0.8169
  212MOL0     C28496   2.560  11.427   5.720 -0.3653 -0.6407  0.5143
  212MOL0     C28497   2.610  11.425   5.869  0.1412  0.7267  0.0221
  212MOL0     C28498   2.565  11.288   5.934 -0.1915  0.1720  0.0337
  212MOL0     C28499   2.427  11.318   6.025  0.0014  0.4229  0.3928
  212MOL0     C28500   2.358  11.184   6.038 -0.0588 -0.6031 -0.4244
  212MOL0     C28501   2.264  11.203   6.158 -0.1211 -0.4628 -0.2784
  212MOL0     N28502   2.153  11.102   6.162 -0.0735  0.6290  0.3714
  212MOL0     C28503   2.065  11.069   6.061 -0.5733 -0.2725  0.2093
  212MOL0     C28504   2.010  10.948   6.095  0.1781  0.0172 -0.0854
  212MOL0     C28505   1.911  10.864   6.027  0.6198  0.9853  0.6610
  212MOL0     C28506   1.888  10.731   6.113 -0.0769 -0.3693  1.2009
  212MOL0     C28507   1.802  10.632   6.045  0.5633  0.4075 -0.1932
  212MOL0     C28508   1.758  10.518   6.139  0.3164  0.6522 -1.1864
  212MOL0     O28509   1.667  10.440   6.057 -0.4026  0.2320 -0.3090
  212MOL0     C28510   1.566  10.371   6.117  0.4992 -0.2404  0.3989
  212MOL0     C28511   1.560  10.320   6.245  0.0653 -0.1040 -0.1568
  212MOL0     C28512   1.450  10.249   6.295  1.0771 -0.6255  0.3245
  212MOL0     C28513   1.336  10.221   6.203 -0.5955 -0.6836 -1.1219
  212MOL0     C28514   1.217  10.160   6.246 -0.4897  0.9675 -0.7620
  212MOL0     O28515   1.133  10.103   6.156 -0.7171 -0.4159  0.1216
  212MOL0     C28516   1.025  10.013   6.193  0.4168  0.3844  0.0131
  212MOL0     C28517   0.933  10.042   6.298  0.5868  0.0904  0.4523
  212MOL0     C28518   0.826   9.955   6.328 -0.4396 -0.2359  0.5803
  212MOL0     C28519   0.816   9.833   6.260  0.4347 -0.5722 -0.8098
  212MOL0     O28520   0.703   9.761   6.273  0.3654  0.0573  0.4153
  212MOL0     C28521   0.614   9.764   6.389  0.1292  0.5603  0.3159
  212MOL0     C28522   0.522   9.645   6.384  0.3302  0.2825  0.3899
  212MOL0     C28523   0.448   9.621   6.514 -0.9160  0.1214  0.5644
  212MOL0     C28524   0.347   9.720   6.557  0.2008  0.6396 -0.1111
  212MOL0     C28525   0.257   9.657   6.659  0.1859 -0.3776  1.1607
  212MOL0     C28526   0.115   9.624   6.603 -0.3197  0.0726  0.2357
  212MOL0     C28527   0.013   9.609   6.716 -0.3685 -0.2758 -0.5127
  212MOL0     C28528  -0.118   9.533   6.680 -0.1458 -0.8259  0.1698
  212MOL0    Cl28529  -0.216   9.605   6.538 -0.2434 -0.2910  0.2035
  212MOL0     C28530   0.892   9.810   6.157  0.6187 -0.3243  0.5354
  212MOL0     C28531   0.992   9.897   6.117 -0.0145  0.1619 -0.5547
  212MOL0     O28532   1.211  10.136   6.369 -0.0555 -0.1751 -0.4552
  212MOL0     C28533   1.343  10.286   6.080  0.1059 -0.6536  0.6831
  212MOL0     C28534   1.450  10.355   6.036 -0.7537  0.3540  0.0772
  212MOL0     N28535   2.066  10.918   6.219  0.0576 -0.1168 -0.8139
  212MOL0     N28536   2.152  11.001   6.262 -1.0214  0.1086 -0.1026
  212MOL0     C28537   2.334  11.381   5.345  1.0485 -0.4750 -0.8170
  212MOL0     C28538   2.244  11.333   5.251 -1.3827  0.2465  0.6300
  212MOL0     C28539   2.104  11.203   4.834 -0.1573  0.0657 -0.9172
  212MOL0     C28540   2.037  11.083   4.870  1.0392 -0.4774  0.7781
  212MOL0     C28541   1.934  11.035   4.779 -0.5310 -0.4463 -0.5860
  212MOL0     C28542   1.912  11.094   4.662  0.4709  1.1273  0.5568
  212MOL0     O28543   1.815  11.027   4.591  0.2623  0.3301  0.3201
  212MOL0     C28544   1.753  11.087   4.476  0.1118  0.4926  1.2780
  212MOL0     C28545   1.667  10.978   4.418  0.2195  0.5352 -0.2641
  212MOL0     C28546   1.759  10.881   4.345 -0.7272  0.1742  0.9207
  212MOL0     C28547   1.683  10.758   4.294  0.3429 -0.2658 -0.2826
  212MOL0     C28548   1.775  10.688   4.206 -0.8747 -0.4246 -0.0209
  212MOL0     C28549   1.851  10.628   4.128  0.6959  0.2569 -0.3046
  212MOL0     C28550   1.984  11.202   4.618 -0.2898 -0.1750  0.5510
  212MOL0     C28551   2.075  11.265   4.705 -0.7560 -0.3365 -0.3450
  212MOL0     C28552   2.155  11.386   4.650  0.2738  0.3938  0.4535
  212MOL0     H28553   2.444  11.168   5.042 -1.4520  0.4783 -0.2001
  212MOL0     H28554   2.616  11.240   5.225 -0.0573  0.4870  0.7718
  212MOL0     H28555   2.620  11.577   5.410  3.6735 -1.0288 -0.1218
  212MOL0     H28556   2.456  11.570   5.483  1.1469  0.4931  1.6924
  212MOL0     H28557   2.621  11.634   5.657 -2.4125 -0.7785  0.0494
  212MOL0     H28558   2.726  11.498   5.602  0.6296  2.6238 -1.2678
  212MOL0     H28559   2.578  11.327   5.681 -0.3238 -1.4903  2.5496
  212MOL0     H28560   2.452  11.443   5.729 -0.9268 -3.2266 -0.7480
  212MOL0     H28561   2.719  11.433   5.872  0.1284  0.8365  2.1435
  212MOL0     H28562   2.570  11.511   5.925 -0.7605 -0.6920  1.6442
  212MOL0     H28563   2.541  11.212   5.859  0.4281  0.2608 -0.2641
  212MOL0     H28564   2.643  11.247   5.998 -1.6698 -1.3443  0.9219
  212MOL0     H28565   2.459  11.351   6.124  0.4796 -3.9208  1.9120
  212MOL0     H28566   2.362  11.392   5.975 -0.6714 -1.4687 -1.7104
  212MOL0     H28567   2.434  11.108   6.054  2.3071  1.7573  0.3394
  212MOL0     H28568   2.304  11.174   5.943  0.4500  0.5044 -0.8577
  212MOL0     H28569   2.317  11.198   6.254  1.6594  4.4997 -0.7075
  212MOL0     H28570   2.221  11.303   6.152 -0.3168 -0.4844  0.5913
  212MOL0     H28571   2.039  11.128   5.974  1.3137  1.8897  1.0305
  212MOL0     H28572   1.813  10.910   6.010 -0.7290 -2.2737 -1.2995
  212MOL0     H28573   1.953  10.843   5.928 -2.8892  3.4305 -1.5654
  212MOL0     H28574   1.983  10.682   6.136  0.8942  1.7299  1.8621
  212MOL0     H28575   1.846  10.765   6.208 -2.8363 -0.6260  0.1702
  212MOL0     H28576   1.857  10.597   5.957 -0.0233 -0.5147 -0.2029
  212MOL0     H28577   1.710  10.686   6.020 -0.1983  0.0164  1.6209
  212MOL0     H28578   1.715  10.558   6.232 -0.0683 -1.0573 -0.6019
  212MOL0     H28579   1.851  10.467   6.165  0.8465  2.4553  0.7693
  212MOL0     H28580   1.635  10.331   6.323 -0.2450 -3.2999  0.7315
  212MOL0     H28581   1.453  10.215   6.398  0.8990 -0.9165  0.2357
  212MOL0     H28582   0.947  10.126   6.365  0.7076 -1.4744  2.5053
  212MOL0     H28583   0.751   9.984   6.400 -0.5256 -0.3417  0.5332
  212MOL0     H28584   0.672   9.761   6.482  0.5233  1.3926  0.1071
  212MOL0     H28585   0.549   9.852   6.400  0.1410  0.5711  0.3018
  212MOL0     H28586   0.444   9.660   6.309  0.8807 -2.6186 -0.8995
  212MOL0     H28587   0.573   9.556   6.346  0.0013 -1.5205  3.7628
  212MOL0     H28588   0.397   9.524   6.513  0.2696 -0.5466  2.0293
  212MOL0     H28589   0.515   9.614   6.600  0.5526 -0.0707 -0.5608
  212MOL0     H28590   0.289   9.745   6.467  0.0868 -3.5790 -1.4224
  212MOL0     H28591   0.410   9.807   6.579  0.7421  1.2226 -3.3389
  212MOL0     H28592   0.247   9.741   6.729 -0.3331  1.0810 -0.5741
  212MOL0     H28593   0.296   9.575   6.720  1.2737 -0.1152  0.8434
  212MOL0     H28594   0.090   9.690   6.520  0.5420 -0.0888 -0.1574
  212MOL0     H28595   0.115   9.525   6.557 -2.7586  0.2089 -0.1698
  212MOL0     H28596  -0.026   9.707   6.742  4.2173  2.2626 -1.9869
  212MOL0     H28597   0.061   9.565   6.805 -3.5153 -0.0941  1.3931
  212MOL0     H28598  -0.097   9.432   6.643  2.0425  0.1489 -1.5013
  212MOL0     H28599  -0.179   9.518   6.769  0.3911 -1.6183  0.4217
  212MOL0     H28600   0.872   9.719   6.101  0.2892 -1.7323  2.8039
  212MOL0     H28601   1.062   9.862   6.042  1.2018 -2.8622  1.7948
  212MOL0     H28602   1.257  10.277   6.014 -0.2544 -1.9980  1.3131
  212MOL0     H28603   1.465  10.395   5.936  1.5574 -2.5202 -0.8762
  212MOL0     H28604   2.309  11.444   5.430  1.8539 -0.7390 -0.3653
  212MOL0     H28605   2.140  11.350   5.275 -1.7562 -0.4206 -0.4125
  212MOL0     H28606   2.050  11.026   4.962 -1.9331 -2.8249 -0.0809
  212MOL0     H28607   1.883  10.942   4.801  0.5334 -0.8427  0.2756
  212MOL0     H28608   1.827  11.138   4.413  0.7307  1.1815  2.4965
  212MOL0     H28609   1.688  11.167   4.514 -0.8940  1.1096 -1.4968
  212MOL0     H28610   1.596  11.022   4.348  1.5757 -0.3935 -2.3452
  212MOL0     H28611   1.608  10.924   4.492 -1.4573 -1.2406 -2.7654
  212MOL0     H28612   1.845  10.843   4.401 -0.6983  0.1721  0.8742
  212MOL0     H28613   1.801  10.923   4.253 -1.4368  1.2042  1.0432
  212MOL0     H28614   1.646  10.690   4.372  1.6826 -0.8084 -0.1001
  212MOL0     H28615   1.601  10.788   4.228  0.2875  0.8995  0.2875
  212MOL0     H28616   1.906  10.562   4.064 -0.2542  1.4535 -2.4680
  212MOL0     H28617   1.963  11.236   4.517 -0.0446  0.5121  0.7268
  212MOL0     H28618   2.264  11.375   4.637  0.5990  1.9096  1.5977
  212MOL0     H28619   2.114  11.424   4.556  0.0672 -0.7925  0.0443
  212MOL0     H28620   2.134  11.468   4.718 -1.7032 -0.2616  0.6923
  213MOL0     O28621   5.052   3.017   5.761  0.6557 -0.8202 -0.2632
  213MOL0     C28622   5.163   2.988   5.800  0.1193 -0.0140  0.6409
  213MOL0     O28623   5.257   2.935   5.720 -0.2482 -0.4716  0.0598
  213MOL0     C28624   5.233   2.887   5.596 -0.0088 -0.1130  0.0987
  213MOL0     C28625   5.120   2.801   5.567 -0.2955 -0.6806  0.7150
  213MOL0     C28626   5.121   2.735   5.437  0.8942  0.3481  0.7836
  213MOL0     C28627   5.221   2.756   5.334  1.3445 -0.3530 -0.1490
  213MOL0     O28628   5.205   2.703   5.207 -0.6521  0.3744 -0.1694
  213MOL0     C28629   5.255   2.789   5.102 -0.2765  1.4459  0.1601
  213MOL0     C28630   5.273   2.693   4.986 -0.6265 -0.1170  0.2784
  213MOL0     C28631   5.359   2.760   4.874  0.0680  0.4528 -0.5424
  213MOL0     C28632   5.363   2.680   4.752  0.2351  0.4777  0.1390
  213MOL0     C28633   5.449   2.760   4.651  0.1713 -1.2192  0.0208
  213MOL0     C28634   5.590   2.811   4.694 -0.5670  0.1667  0.4045
  213MOL0     C28635   5.675   2.880   4.581 -0.3066 -0.4249 -0.1237
  213MOL0     C28636   5.818   2.904   4.632  0.0205 -0.2817 -0.0508
  213MOL0     N28637   5.891   2.966   4.525  0.2829 -0.2539 -0.0609
  213MOL0     C28638   5.978   2.901   4.435  0.1191  0.8557  0.6833
  213MOL0     C28639   6.038   3.009   4.375  1.0419  0.2661  0.0423
  213MOL0     C28640   6.151   2.997   4.282 -0.6984 -0.5146  0.7542
  213MOL0     C28641   6.284   2.960   4.349 -0.0612  0.1544 -0.4381
  213MOL0     C28642   6.349   3.089   4.410 -0.5304 -0.5310 -0.4757
  213MOL0     C28643   6.500   3.087   4.435  0.4428  0.1015  0.2349
  213MOL0     O28644   6.525   2.999   4.538 -0.3162  0.2291 -0.2295
  213MOL0     C28645   6.522   2.864   4.515 -0.2985 -0.7175 -0.9354
  213MOL0     C28646   6.556   2.796   4.392 -0.1212 -1.1938 -0.1244
  213MOL0     C28647   6.561   2.655   4.380  0.8529  1.0532 -0.5763
  213MOL0     C28648   6.510   2.577   4.486 -0.0815  0.5524  0.3758
  213MOL0     C28649   6.497   2.428   4.463  0.1632  0.2815 -0.2822
  213MOL0     O28650   6.431   2.367   4.559 -0.7286 -0.6204 -0.2679
  213MOL0     C28651   6.414   2.233   4.541 -0.5248  0.1781 -0.5727
  213MOL0     C28652   6.498   2.148   4.602  0.3397 -0.0605 -0.3119
  213MOL0     C28653   6.490   2.015   4.582  0.6246  0.1334  0.4240
  213MOL0     C28654   6.388   1.965   4.503  0.2551  0.5118 -0.0280
  213MOL0     O28655   6.402   1.833   4.464 -0.4992 -0.2104 -0.4491
  213MOL0     C28656   6.398   1.742   4.572 -0.2942 -0.4905 -0.7423
  213MOL0     C28657   6.332   1.606   4.547  0.0646  0.4626  0.1166
  213MOL0     C28658   6.194   1.621   4.485  0.1246  0.1738 -0.2685
  213MOL0     C28659   6.116   1.477   4.499 -0.3133 -0.0778 -0.2754
  213MOL0     C28660   5.993   1.494   4.410  0.5639 -0.5822  0.3738
  213MOL0     C28661   5.890   1.597   4.452  0.4939 -0.1099 -0.1781
  213MOL0     C28662   5.823   1.567   4.589 -0.3997  0.7893 -0.6793
  213MOL0     C28663   5.712   1.666   4.615  0.5121  0.5460 -1.4364
  213MOL0    Cl28664   5.575   1.624   4.495 -0.4702  0.0970 -0.5519
  213MOL0     C28665   6.300   2.051   4.438 -0.1129 -0.8541 -0.3244
  213MOL0     C28666   6.317   2.188   4.451 -0.4148 -0.1544  0.0007
  213MOL0     O28667   6.560   2.376   4.374  0.3961 -0.0725  0.0127
  213MOL0     C28668   6.464   2.636   4.607 -0.2041  0.1230 -0.0115
  213MOL0     C28669   6.472   2.776   4.618 -0.8976 -0.5247 -0.3733
  213MOL0     N28670   6.007   3.129   4.438  0.0973 -0.1418  0.0827
  213MOL0     N28671   5.907   3.105   4.517 -0.1853 -0.7946 -0.1065
  213MOL0     C28672   5.334   2.845   5.376 -0.2063 -0.0234  0.4692
  213MOL0     C28673   5.332   2.901   5.502 -0.3245 -0.8805 -0.4448
  213MOL0     C28674   5.184   3.012   5.939 -0.2446 -0.1811 -0.4741
  213MOL0     C28675   5.148   3.142   5.996 -0.7464 -0.4475 -0.0244
  213MOL0     C28676   5.164   3.164   6.134  0.5797 -0.9329 -0.5698
  213MOL0     C28677   5.229   3.067   6.210 -0.5172 -0.8274  1.0041
  213MOL0     O28678   5.245   3.097   6.343 -0.2111  1.0237 -0.5785
  213MOL0     C28679   5.318   3.020   6.440 -0.1989  0.5821  0.6992
  213MOL0     C28680   5.470   3.033   6.419 -0.6699 -0.0379 -0.0666
  213MOL0     C28681   5.534   3.167   6.418 -0.0731 -0.1535 -0.4352
  213MOL0     C28682   5.530   3.237   6.555 -0.4395  0.1303 -0.0538
  213MOL0     C28683   5.410   3.302   6.569 -0.9010 -0.7227 -0.8440
  213MOL0     C28684   5.300   3.347   6.586 -0.4637 -0.8246  0.0783
  213MOL0     C28685   5.270   2.944   6.154 -0.8451 -0.4051 -0.5709
  213MOL0     C28686   5.243   2.915   6.017 -0.6795  0.0934 -0.0798
  213MOL0     C28687   5.290   2.780   5.978  0.1458  0.1282 -0.9772
  213MOL0     H28688   5.051   2.774   5.646  2.3821 -2.8683  2.5169
  213MOL0     H28689   5.042   2.663   5.416 -1.6649  2.8663  1.0809
  213MOL0     H28690   5.188   2.874   5.086 -0.2432  1.7807  1.6268
  213MOL0     H28691   5.354   2.833   5.120 -0.8005  2.2661  1.1555
  213MOL0     H28692   5.176   2.665   4.944  0.7589 -3.7078 -0.9012
  213MOL0     H28693   5.315   2.594   5.007 -0.2674  0.1602  0.8949
  213MOL0     H28694   5.461   2.772   4.911  0.4913 -2.2768 -0.6114
  213MOL0     H28695   5.307   2.853   4.850  1.5121  1.2447 -0.6956
  213MOL0     H28696   5.417   2.588   4.777 -2.6309 -1.4035 -0.1782
  213MOL0     H28697   5.263   2.658   4.714  0.1276 -2.0035  1.5725
  213MOL0     H28698   5.442   2.686   4.570 -5.0289  0.1998 -1.2549
  213MOL0     H28699   5.392   2.848   4.619  1.3837 -0.7676 -0.9663
  213MOL0     H28700   5.584   2.885   4.775  0.0172  0.1840  0.4381
  213MOL0     H28701   5.648   2.725   4.729  1.4102  1.8347  1.5468
  213MOL0     H28702   5.627   2.977   4.565  4.3432  1.7086 -3.7573
  213MOL0     H28703   5.664   2.827   4.486 -1.1299  2.2798 -1.6438
  213MOL0     H28704   5.816   2.972   4.717  3.7780  1.9949 -1.5235
  213MOL0     H28705   5.873   2.811   4.639  1.1735  0.0811 -2.7438
  213MOL0     H28706   6.006   2.798   4.418 -1.0339  0.6736 -0.1843
  213MOL0     H28707   6.128   2.924   4.204 -0.8096  1.4697 -1.1946
  213MOL0     H28708   6.156   3.092   4.227 -2.3335 -1.3674 -0.9967
  213MOL0     H28709   6.275   2.889   4.431 -0.2739 -0.7655 -1.2446
  213MOL0     H28710   6.358   2.918   4.281  2.0369  1.1415  1.1121
  213MOL0     H28711   6.301   3.112   4.505  0.0913 -1.4216  0.0635
  213MOL0     H28712   6.335   3.178   4.347  0.8943 -0.4219 -0.6826
  213MOL0     H28713   6.529   3.188   4.465 -1.6214  0.4481  1.2497
  213MOL0     H28714   6.554   3.058   4.344  3.0396  3.1935  0.6229
  213MOL0     H28715   6.588   2.869   4.318 -1.9381  0.2734  0.4516
  213MOL0     H28716   6.596   2.615   4.285  1.7055  2.3902 -0.8442
  213MOL0     H28717   6.575   2.192   4.665 -0.6044  1.1946 -0.0002
  213MOL0     H28718   6.563   1.949   4.628  0.3641  0.2099  0.9512
  213MOL0     H28719   6.501   1.724   4.604  0.6590  0.8311 -2.8870
  213MOL0     H28720   6.325   1.781   4.644 -1.7770 -0.5644 -2.1397
  213MOL0     H28721   6.389   1.551   4.471 -2.5144 -2.1479 -0.1354
  213MOL0     H28722   6.324   1.560   4.646 -3.0385  1.6734  0.5535
  213MOL0     H28723   6.138   1.699   4.537  0.0102  1.4227 -2.1514
  213MOL0     H28724   6.206   1.649   4.380  1.4736 -0.6062 -0.3440
  213MOL0     H28725   6.076   1.468   4.601  2.9166  2.4005  1.4184
  213MOL0     H28726   6.191   1.402   4.471  3.1632  3.5500 -1.6423
  213MOL0     H28727   5.954   1.392   4.411  0.7908 -0.6963 -0.8521
  213MOL0     H28728   6.017   1.506   4.304  3.0977  1.5696  1.0878
  213MOL0     H28729   5.931   1.698   4.461  3.0098 -0.7167 -3.1087
  213MOL0     H28730   5.808   1.590   4.379  0.0961  0.8416  0.1659
  213MOL0     H28731   5.899   1.575   4.667 -0.5113  1.8089 -0.6525
  213MOL0     H28732   5.781   1.467   4.575 -1.9561  1.1374  1.1564
  213MOL0     H28733   5.681   1.649   4.719 -0.7897 -1.6744 -2.1326
  213MOL0     H28734   5.758   1.765   4.608  0.7443  0.6140  0.4601
  213MOL0     H28735   6.242   2.007   4.357  0.4023 -1.9453 -0.1094
  213MOL0     H28736   6.258   2.261   4.396  0.0750 -1.5723 -2.5793
  213MOL0     H28737   6.434   2.573   4.691 -0.2884  2.6275  1.9547
  213MOL0     H28738   6.447   2.819   4.714  3.3322  1.1163  0.2020
  213MOL0     H28739   5.412   2.875   5.307 -1.8896  0.2467 -1.4279
  213MOL0     H28740   5.418   2.958   5.534 -1.7823  2.2489 -1.7073
  213MOL0     H28741   5.112   3.220   5.930 -2.5265  1.1247  2.6177
  213MOL0     H28742   5.155   3.267   6.169 -1.6220 -0.2820 -2.8080
  213MOL0     H28743   5.293   2.915   6.422  0.0847 -0.0780  3.6289
  213MOL0     H28744   5.293   3.035   6.546 -2.8083 -0.9263  0.3735
  213MOL0     H28745   5.502   2.987   6.325  0.2546 -3.1491  1.6273
  213MOL0     H28746   5.518   2.966   6.491  0.6296 -0.2416 -1.0781
  213MOL0     H28747   5.489   3.239   6.349 -2.9654  1.4862  2.8207
  213MOL0     H28748   5.635   3.150   6.381 -1.1099 -1.9365 -2.6945
  213MOL0     H28749   5.531   3.175   6.644 -0.0816 -0.2873 -0.3446
  213MOL0     H28750   5.611   3.310   6.550  0.9037 -1.2786  0.5900
  213MOL0     H28751   5.208   3.393   6.614 -0.3097 -0.9501  0.8005
  213MOL0     H28752   5.322   2.873   6.217  1.8813  0.1884 -1.9585
  213MOL0     H28753   5.210   2.724   5.930 -0.5820  1.0040 -0.8257
  213MOL0     H28754   5.365   2.799   5.900 -0.4521 -2.8497 -2.4152
  213MOL0     H28755   5.338   2.719   6.054 -0.0293 -0.6642 -1.4912
  214MOL0     O28756   4.050   0.008   9.895  0.2300  0.4171 -0.3742
  214MOL0     C28757   4.059   0.108   9.976  1.2685  1.1448  0.2730
  214MOL0     O28758   4.068   0.230   9.934  0.2721 -0.0425  0.1654
  214MOL0     C28759   4.115   0.260   9.805 -0.2981 -0.1546 -0.7292
  214MOL0     C28760   4.248   0.227   9.764  0.6587  0.2703 -0.0461
  214MOL0     C28761   4.290   0.258   9.628  0.0046 -0.4893 -0.3365
  214MOL0     C28762   4.203   0.331   9.550  0.4648 -0.5361  0.0596
  214MOL0     O28763   4.254   0.390   9.440  0.5306  0.3156  0.2185
  214MOL0     C28764   4.188   0.339   9.323 -0.0476  0.0561 -0.2417
  214MOL0     C28765   4.265   0.379   9.205  0.5314  0.0814  1.1387
  214MOL0     C28766   4.407   0.323   9.189 -0.5782 -0.2571 -0.4291
  214MOL0     C28767   4.517   0.437   9.162  0.6226 -0.5981 -0.3531
  214MOL0     C28768   4.657   0.369   9.173  0.2586 -0.6135 -0.4226
  214MOL0     C28769   4.769   0.483   9.175 -0.1767  0.0570 -0.0207
  214MOL0     C28770   4.902   0.417   9.189 -0.1319 -0.1203 -0.3908
  214MOL0     C28771   4.929   0.345   9.330 -0.4433  0.5932 -0.1199
  214MOL0     N28772   4.890   0.423   9.445  0.1255 -0.6132 -0.2747
  214MOL0     C28773   4.815   0.374   9.548 -0.0746 -0.3252 -1.0125
  214MOL0     C28774   4.826   0.479   9.637  0.7818  0.1188 -0.1284
  214MOL0     C28775   4.775   0.487   9.774 -0.1144  0.0308  0.1718
  214MOL0     C28776   4.811   0.385   9.885 -0.6488  0.4117  0.3914
  214MOL0     C28777   4.965   0.353   9.892  0.6268  0.6962  0.5243
  214MOL0     C28778   5.042   0.484   9.928 -0.5539 -0.4402  0.0711
  214MOL0     O28779   5.002   0.543  10.052  0.1800 -0.8111  0.4325
  214MOL0     C28780   5.066   0.490  10.160  0.0022 -0.8624  0.5080
  214MOL0     C28781   5.010   0.377  10.211  0.7025  0.6349 -0.9050
  214MOL0     C28782   5.064   0.326  10.326 -0.6838  0.0323 -0.1401
  214MOL0     C28783   5.198   0.361  10.365  0.6780  0.0694 -0.5051
  214MOL0     C28784   5.262   0.289  10.488 -0.2153  0.2129  0.2094
  214MOL0     O28785   5.184   0.244  10.595  0.2586 -0.5738 -0.1562
  214MOL0     C28786   5.245   0.194  10.707  0.4393  0.1577  1.2212
  214MOL0     C28787   5.274   0.054  10.691  0.1795  0.1879 -0.6952
  214MOL0     C28788   5.331  -0.019  10.796 -0.2967  0.6685 -1.3864
  214MOL0     C28789   5.375   0.058  10.912 -0.4395 -0.0857  1.0340
  214MOL0     O28790   5.437  -0.016  11.009 -0.0003  0.2856 -1.1847
  214MOL0     C28791   5.554   0.036  11.065 -0.2334  0.6978  0.6330
  214MOL0     C28792   5.612  -0.048  11.173  0.3340 -0.2610  0.0232
  214MOL0     C28793   5.515  -0.046  11.300  0.0390 -0.9472  0.2170
  214MOL0     C28794   5.607  -0.114  11.415  0.4548 -0.1027  0.5510
  214MOL0     C28795   5.523  -0.138  11.546  0.3083  0.4674  0.2090
  214MOL0     C28796   5.484  -0.004  11.603  0.0397  0.4038 -0.2853
  214MOL0     C28797   5.403  -0.020  11.735 -0.3704 -0.1931  0.2779
  214MOL0     C28798   5.363   0.126  11.767  0.0832  0.0211 -0.0719
  214MOL0    Cl28799   5.357   0.140  11.943  0.3637 -0.1775  0.0203
  214MOL0     C28800   5.342   0.195  10.923 -1.0842  0.2841  0.4997
  214MOL0     C28801   5.277   0.267  10.821 -0.9880  0.1312 -0.2478
  214MOL0     O28802   5.386   0.293  10.483  0.3412  0.2420  0.6916
  214MOL0     C28803   5.249   0.469  10.306 -1.0050  0.2108  0.9091
  214MOL0     C28804   5.189   0.528  10.199  0.9519 -0.4708  1.2959
  214MOL0     N28805   4.889   0.583   9.582  0.7053 -0.2823  0.3426
  214MOL0     N28806   4.920   0.554   9.469  0.4645  0.5711  0.3886
  214MOL0     C28807   4.072   0.360   9.594  0.0625  0.3107  1.2063
  214MOL0     C28808   4.024   0.315   9.713 -0.6936 -0.5534 -0.2824
  214MOL0     C28809   4.058   0.083  10.124 -0.4098  0.3622 -0.9974
  214MOL0     C28810   4.034   0.192  10.211  0.5199  0.4491 -0.3015
  214MOL0     C28811   4.036   0.175  10.354  0.3058 -0.2229  1.0883
  214MOL0     C28812   4.087   0.054  10.409  0.7027 -0.4807  0.1620
  214MOL0     O28813   4.102   0.033  10.539  0.5436  0.4948  0.2720
  214MOL0     C28814   4.095   0.145  10.629  0.5559 -0.7339 -0.2797
  214MOL0     C28815   4.237   0.192  10.657 -0.2211 -0.2115 -0.9982
  214MOL0     C28816   4.357   0.091  10.661 -0.1124  0.4392  0.5596
  214MOL0     C28817   4.489   0.148  10.717  0.2349 -0.5787  0.0770
  214MOL0     C28818   4.552   0.259  10.636  0.7520 -0.1454 -0.3483
  214MOL0     C28819   4.600   0.355  10.576 -0.1719  0.3154  0.0510
  214MOL0     C28820   4.109  -0.053  10.322  0.2641 -0.6877  0.1361
  214MOL0     C28821   4.100  -0.037  10.182  0.4889 -0.2931  0.7128
  214MOL0     C28822   4.156  -0.153  10.100 -0.0490 -0.2509  0.3689
  214MOL0     H28823   4.314   0.166   9.824  0.5963 -0.2360 -0.4939
  214MOL0     H28824   4.392   0.240   9.594  0.4356  1.6021 -0.3086
  214MOL0     H28825   4.172   0.231   9.318  1.8605 -0.2008 -3.1282
  214MOL0     H28826   4.093   0.393   9.329  0.9864  1.8952  0.6943
  214MOL0     H28827   4.275   0.487   9.214 -1.3893  0.2089  2.3306
  214MOL0     H28828   4.208   0.352   9.115  0.9621 -1.2944  1.2631
  214MOL0     H28829   4.404   0.234   9.125 -0.7216  0.6892 -1.7966
  214MOL0     H28830   4.439   0.280   9.284  0.4334  0.2235 -0.5379
  214MOL0     H28831   4.500   0.484   9.065  0.8981  0.7620  0.2297
  214MOL0     H28832   4.496   0.520   9.231  2.8741  0.1469 -0.4883
  214MOL0     H28833   4.667   0.310   9.265  1.5282  0.7309  0.3481
  214MOL0     H28834   4.681   0.297   9.094  1.1624 -0.2032 -0.5417
  214MOL0     H28835   4.765   0.534   9.078 -0.5119 -1.8316 -1.0450
  214MOL0     H28836   4.748   0.558   9.252 -0.6768 -1.5482  1.4709
  214MOL0     H28837   4.973   0.494   9.157 -0.7242  1.6703  2.2118
  214MOL0     H28838   4.921   0.347   9.107  2.7173  1.9985 -1.7250
  214MOL0     H28839   4.873   0.251   9.331  2.4809 -1.4860  4.9063
  214MOL0     H28840   5.033   0.313   9.339 -0.0716  1.4560 -1.0913
  214MOL0     H28841   4.774   0.274   9.549  1.3594 -0.9380 -0.2860
  214MOL0     H28842   4.800   0.587   9.811  5.7895 -2.4373  4.5771
  214MOL0     H28843   4.666   0.489   9.764 -0.0030 -0.9440 -1.7534
  214MOL0     H28844   4.777   0.428   9.979 -0.6152 -0.8898  1.0198
  214MOL0     H28845   4.754   0.293   9.868  0.2901 -0.7926  3.1173
  214MOL0     H28846   4.996   0.320   9.793  1.2490 -0.7699  1.1907
  214MOL0     H28847   4.973   0.268   9.959 -0.4270 -0.3495 -0.6191
  214MOL0     H28848   5.024   0.559   9.851  0.9944  1.1691  1.1957
  214MOL0     H28849   5.150   0.472   9.927 -0.7002 -3.7271  3.2437
  214MOL0     H28850   4.914   0.335  10.185 -0.8896  0.1436  4.5354
  214MOL0     H28851   5.022   0.245  10.385 -0.6058 -0.9690 -1.4141
  214MOL0     H28852   5.247   0.001  10.601 -2.5615 -4.2335  2.3045
  214MOL0     H28853   5.354  -0.124  10.779  0.0253  0.6529 -0.8822
  214MOL0     H28854   5.624   0.054  10.982 -2.0300  2.4817 -0.5862
  214MOL0     H28855   5.527   0.133  11.107 -2.0744  0.9044 -0.8927
  214MOL0     H28856   5.623  -0.152  11.140  2.5049 -0.2251  0.5215
  214MOL0     H28857   5.719  -0.030  11.187 -0.0069 -0.5298  4.0022
  214MOL0     H28858   5.494   0.059  11.322  1.9582 -0.1769 -1.3209
  214MOL0     H28859   5.425  -0.103  11.274 -0.9795 -0.6142  2.7082
  214MOL0     H28860   5.684  -0.042  11.441 -0.3281  0.4080  1.5183
  214MOL0     H28861   5.651  -0.206  11.374 -0.5092 -0.2510 -0.1916
  214MOL0     H28862   5.587  -0.191  11.617 -0.2705 -1.3508 -0.5679
  214MOL0     H28863   5.436  -0.204  11.543  0.2281  0.5660  0.3454
  214MOL0     H28864   5.578   0.050  11.618  2.0433 -1.8283 -3.3809
  214MOL0     H28865   5.425   0.046  11.526 -1.4947  1.4314  1.4975
  214MOL0     H28866   5.472  -0.059  11.811 -0.1440  1.5806  1.0191
  214MOL0     H28867   5.313  -0.082  11.726 -2.0807  2.3614 -1.4459
  214MOL0     H28868   5.436   0.201  11.734  1.5269 -1.9384 -1.5852
  214MOL0     H28869   5.266   0.152  11.723 -1.3668 -3.1918  0.9011
  214MOL0     H28870   5.378   0.260  11.003 -0.8696 -0.5035  1.0540
  214MOL0     H28871   5.263   0.374  10.838  0.3845  0.3839 -0.6168
  214MOL0     H28872   5.348   0.509  10.326  0.0514  0.2008 -3.3632
  214MOL0     H28873   5.236   0.608  10.143  1.8486 -0.5164  1.9683
  214MOL0     H28874   4.008   0.429   9.540  0.6385  0.0791  0.2065
  214MOL0     H28875   3.927   0.352   9.745  0.8069  3.2074  0.5505
  214MOL0     H28876   4.001   0.286  10.167  2.7542  0.2901 -2.5876
  214MOL0     H28877   4.001   0.259  10.414  3.9729  0.5963  2.3875
  214MOL0     H28878   4.060   0.097  10.722 -1.6354 -1.6284 -1.4703
  214MOL0     H28879   4.026   0.228  10.612 -0.1061 -0.9731  1.0626
  214MOL0     H28880   4.233   0.242  10.755  0.2716 -1.6972 -0.1851
  214MOL0     H28881   4.261   0.277  10.592 -2.0685  0.3152 -1.0513
  214MOL0     H28882   4.371   0.056  10.558  2.9654  2.5240  0.1422
  214MOL0     H28883   4.333   0.008  10.728 -1.7576 -0.9280 -1.5891
  214MOL0     H28884   4.456   0.191  10.812  0.7153 -2.7146  1.2856
  214MOL0     H28885   4.568   0.076  10.743  1.3249  0.3017 -0.7263
  214MOL0     H28886   4.634   0.440  10.520 -2.2662  1.4789  0.4560
  214MOL0     H28887   4.130  -0.148  10.369 -1.2107 -0.6045  0.9995
  214MOL0     H28888   4.238  -0.193  10.160 -0.6756 -1.0159  0.7348
  214MOL0     H28889   4.080  -0.230  10.084 -0.5402  0.3334 -0.1780
  214MOL0     H28890   4.197  -0.129  10.001  1.0587  0.3051  0.9413
  215MOL0     O28891   5.910   1.274   7.971  0.7942 -0.7869  0.6863
  215MOL0     C28892   5.878   1.193   7.882  0.7120 -0.0311 -0.5047
  215MOL0     O28893   5.788   1.219   7.779 -0.7941 -0.2239 -0.4526
  215MOL0     C28894   5.694   1.312   7.804  0.8573 -0.2255 -0.5161
  215MOL0     C28895   5.672   1.405   7.698 -0.5310  0.1336 -0.0526
  215MOL0     C28896   5.576   1.500   7.711  0.8018  0.3304 -0.6203
  215MOL0     C28897   5.489   1.500   7.819  0.4827  0.2024  0.8194
  215MOL0     O28898   5.397   1.602   7.811  0.7169 -0.1298  0.2114
  215MOL0     C28899   5.304   1.606   7.921 -0.1101 -0.1603 -0.4026
  215MOL0     C28900   5.199   1.721   7.905  0.6020  0.2778 -1.1986
  215MOL0     C28901   5.249   1.865   7.901 -0.3826 -0.0111 -0.9471
  215MOL0     C28902   5.141   1.979   7.898 -0.5230  0.1142  0.3248
  215MOL0     C28903   5.053   1.976   8.020 -0.1020 -0.4239  0.4041
  215MOL0     C28904   5.015   2.121   8.061 -0.4239 -0.4532  0.5305
  215MOL0     C28905   4.935   2.107   8.190  0.0593  0.0561 -0.2582
  215MOL0     C28906   4.924   2.248   8.243  0.6870 -0.5683 -0.5704
  215MOL0     N28907   5.042   2.289   8.311  0.0347 -0.4366  0.6759
  215MOL0     C28908   5.106   2.415   8.289 -0.2241  0.1724 -0.9003
  215MOL0     C28909   5.221   2.405   8.364  0.4238 -0.4380 -0.5144
  215MOL0     C28910   5.331   2.510   8.376 -0.3389 -0.3478 -0.1080
  215MOL0     C28911   5.373   2.582   8.249 -0.1708 -0.7925  0.4107
  215MOL0     C28912   5.415   2.493   8.132  0.6815  0.3817  0.1357
  215MOL0     C28913   5.476   2.571   8.019 -0.5077  0.2686  0.7313
  215MOL0     O28914   5.538   2.473   7.928  0.2733 -0.7346  0.2343
  215MOL0     C28915   5.545   2.513   7.792 -0.2158 -0.2842  0.5681
  215MOL0     C28916   5.474   2.440   7.690  0.1288 -0.0743 -0.9351
  215MOL0     C28917   5.486   2.480   7.561  0.8717 -0.5125 -0.7488
  215MOL0     C28918   5.569   2.587   7.527 -0.3196  0.1058 -0.0122
  215MOL0     C28919   5.577   2.622   7.386  0.2123  0.6762 -0.8467
  215MOL0     O28920   5.487   2.560   7.301  0.3989  0.0268 -0.0075
  215MOL0     C28921   5.518   2.581   7.169  0.2557 -0.7112  0.3587
  215MOL0     C28922   5.619   2.506   7.110  0.6504  0.5372  0.0551
  215MOL0     C28923   5.667   2.531   6.970  0.2630 -0.0322  0.6070
  215MOL0     C28924   5.591   2.616   6.882  0.7622  0.8995 -0.4088
  215MOL0     O28925   5.618   2.618   6.747  0.5709 -0.0657 -0.1177
  215MOL0     C28926   5.504   2.627   6.660 -1.3998  0.6970 -0.3754
  215MOL0     C28927   5.536   2.606   6.515 -1.2801  0.1782 -0.6267
  215MOL0     C28928   5.642   2.489   6.497 -0.2756  0.2143 -0.7130
  215MOL0     C28929   5.571   2.351   6.530 -0.1710 -0.9548  0.3474
  215MOL0     C28930   5.657   2.230   6.503 -0.2619 -0.6731 -0.0352
  215MOL0     C28931   5.786   2.229   6.580 -0.8469  0.0069 -0.3056
  215MOL0     C28932   5.786   2.215   6.732  0.7109 -0.2291 -0.0806
  215MOL0     C28933   5.917   2.250   6.801 -0.9715  0.1541 -0.4016
  215MOL0    Cl28934   6.068   2.236   6.706  0.1946  0.4389  0.0916
  215MOL0     C28935   5.479   2.675   6.946  0.9343 -0.2824 -0.4917
  215MOL0     C28936   5.448   2.670   7.090  0.3250 -0.6285  0.1506
  215MOL0     O28937   5.683   2.682   7.360  0.4392 -0.1048  0.0086
  215MOL0     C28938   5.633   2.661   7.626 -1.2780  0.6301 -0.1882
  215MOL0     C28939   5.634   2.616   7.761  0.5435 -0.2631  0.1195
  215MOL0     N28940   5.222   2.279   8.418 -0.3370  0.0640  0.2064
  215MOL0     N28941   5.113   2.213   8.393  0.5396 -0.1378 -0.9891
  215MOL0     C28942   5.511   1.409   7.925  0.3492  0.7530 -0.5529
  215MOL0     C28943   5.605   1.313   7.920 -0.1129  1.0745  0.5911
  215MOL0     C28944   5.944   1.058   7.890  0.3531  0.8695 -0.0182
  215MOL0     C28945   5.891   0.951   7.808 -0.3419 -0.1578  0.0123
  215MOL0     C28946   5.953   0.840   7.792  0.1823  0.7336 -0.0640
  215MOL0     C28947   6.075   0.812   7.855 -0.0811 -0.5883 -0.6209
  215MOL0     O28948   6.149   0.704   7.838 -0.0356 -0.2106  0.3471
  215MOL0     C28949   6.091   0.595   7.753 -0.0410 -0.0549 -1.2873
  215MOL0     C28950   6.186   0.471   7.744 -0.1457 -0.3615 -0.8339
  215MOL0     C28951   6.334   0.509   7.757  0.4075  0.9393 -0.4120
  215MOL0     C28952   6.386   0.545   7.624  0.2435  0.3782  0.1953
  215MOL0     C28953   6.395   0.441   7.521  0.0654  0.8876 -0.1757
  215MOL0     C28954   6.402   0.346   7.444  0.5586 -0.0769 -0.3498
  215MOL0     C28955   6.132   0.903   7.946  0.5331  0.1770  0.7838
  215MOL0     C28956   6.078   1.034   7.951 -0.3776  0.6986 -1.0016
  215MOL0     C28957   6.152   1.129   8.034 -0.8963 -0.2611  0.0134
  215MOL0     H28958   5.730   1.397   7.607  1.1677 -1.1776  1.0668
  215MOL0     H28959   5.559   1.573   7.632 -0.1097 -0.2888 -1.0169
  215MOL0     H28960   5.252   1.510   7.920 -1.3947  0.5025 -1.0929
  215MOL0     H28961   5.355   1.624   8.016  0.3058  0.8455 -0.8031
  215MOL0     H28962   5.122   1.710   7.982  0.7255 -0.1368 -1.1309
  215MOL0     H28963   5.145   1.709   7.811 -1.6169  0.7340 -0.0427
  215MOL0     H28964   5.308   1.880   7.810  0.3170  1.2089 -0.3089
  215MOL0     H28965   5.312   1.879   7.989 -1.8118  1.1415 -0.0721
  215MOL0     H28966   5.197   2.073   7.893 -1.5842  0.7553  0.1873
  215MOL0     H28967   5.081   1.973   7.806 -0.7058  0.3001  0.4304
  215MOL0     H28968   4.961   1.921   7.999  0.1331 -0.7633  0.2619
  215MOL0     H28969   5.102   1.930   8.107  1.4946  2.4204  1.1703
  215MOL0     H28970   5.106   2.182   8.058 -0.4858 -0.3922 -0.2358
  215MOL0     H28971   4.947   2.161   7.985  0.7055  3.7765  1.4466
  215MOL0     H28972   4.985   2.041   8.261  0.7419  0.3537 -0.4565
  215MOL0     H28973   4.829   2.089   8.166 -0.7168  3.8825 -0.2940
  215MOL0     H28974   4.893   2.328   8.175  0.6007 -0.0943  0.0163
  215MOL0     H28975   4.850   2.242   8.323 -0.1984 -1.9497 -1.4576
  215MOL0     H28976   5.070   2.492   8.221 -0.8058 -0.8013 -1.7254
  215MOL0     H28977   5.303   2.585   8.450 -0.6301 -0.5657  0.0070
  215MOL0     H28978   5.419   2.457   8.413  0.5420  0.1654 -1.3993
  215MOL0     H28979   5.296   2.652   8.213 -0.9129 -1.3657  0.8511
  215MOL0     H28980   5.466   2.636   8.269 -0.6709  0.4983 -0.6208
  215MOL0     H28981   5.333   2.426   8.107  1.9496 -0.3486 -2.3255
  215MOL0     H28982   5.501   2.434   8.165 -1.2952 -1.6891  1.9047
  215MOL0     H28983   5.560   2.631   8.054  0.5882 -2.3848  2.9753
  215MOL0     H28984   5.397   2.637   7.980  0.8080  0.2134 -2.3370
  215MOL0     H28985   5.410   2.353   7.700 -1.2043  0.8549 -1.2143
  215MOL0     H28986   5.421   2.424   7.494 -3.0499  0.4844  1.8750
  215MOL0     H28987   5.679   2.441   7.172  2.0413  3.8042  2.4300
  215MOL0     H28988   5.756   2.491   6.923 -0.8562 -0.3983 -1.2820
  215MOL0     H28989   5.426   2.559   6.695 -0.6500 -0.0492 -0.1357
  215MOL0     H28990   5.475   2.732   6.669  0.1786  1.2445 -1.3707
  215MOL0     H28991   5.444   2.580   6.463 -2.1273  2.1127 -0.1738
  215MOL0     H28992   5.589   2.691   6.470  1.9176 -0.0535  2.3188
  215MOL0     H28993   5.667   2.480   6.391  0.3787 -0.3712 -0.5241
  215MOL0     H28994   5.731   2.500   6.560 -2.8733 -2.3394  4.0416
  215MOL0     H28995   5.480   2.345   6.469  0.0394  1.6419 -0.3391
  215MOL0     H28996   5.541   2.370   6.633 -1.4657  1.1767 -0.3634
  215MOL0     H28997   5.665   2.208   6.396  0.7929 -1.1450  0.1229
  215MOL0     H28998   5.608   2.144   6.549 -1.6195  0.6877  1.1482
  215MOL0     H28999   5.846   2.144   6.546 -1.0939 -0.9250  1.4573
  215MOL0     H29000   5.846   2.318   6.559 -0.3879  0.4985  2.5891
  215MOL0     H29001   5.766   2.109   6.750 -1.4277  0.7594  5.4816
  215MOL0     H29002   5.703   2.273   6.774 -2.0407 -1.9625 -2.7545
  215MOL0     H29003   5.922   2.354   6.835  0.0839  0.6926 -2.0750
  215MOL0     H29004   5.932   2.187   6.889  2.8218  0.8661 -0.3563
  215MOL0     H29005   5.404   2.736   6.896 -1.7302 -0.5438  2.7789
  215MOL0     H29006   5.368   2.730   7.132  2.6778  4.2661 -1.5905
  215MOL0     H29007   5.687   2.754   7.613 -0.6848  0.1128 -1.6410
  215MOL0     H29008   5.696   2.658   7.840  0.9116  0.0428 -0.3344
  215MOL0     H29009   5.436   1.404   8.004  4.1464 -0.4036  3.4157
  215MOL0     H29010   5.614   1.233   7.993 -1.6544 -0.7170 -1.0648
  215MOL0     H29011   5.795   0.969   7.762  0.1398 -0.7166 -1.2559
  215MOL0     H29012   5.901   0.753   7.752 -1.2582  1.0718  1.0084
  215MOL0     H29013   6.086   0.639   7.653  1.9860  1.1378 -0.9286
  215MOL0     H29014   5.994   0.572   7.797 -0.1579  0.2195 -1.3994
  215MOL0     H29015   6.164   0.418   7.651  2.0979 -3.3124  0.1539
  215MOL0     H29016   6.155   0.419   7.835 -0.6898  1.1822 -0.0903
  215MOL0     H29017   6.389   0.417   7.782 -0.0134  0.0955 -2.4146
  215MOL0     H29018   6.334   0.593   7.828  0.1419  0.1887  0.5057
  215MOL0     H29019   6.332   0.631   7.584  0.4269  0.1542 -0.5476
  215MOL0     H29020   6.488   0.579   7.641  0.6089  2.1306 -4.1552
  215MOL0     H29021   6.424   0.260   7.384  0.0994 -0.6502  0.2764
  215MOL0     H29022   6.225   0.875   7.995 -0.2596 -0.6545  1.8581
  215MOL0     H29023   6.242   1.078   8.070 -0.2666  1.0588  0.4168
  215MOL0     H29024   6.178   1.221   7.980  1.5882 -0.3475  0.9501
  215MOL0     H29025   6.087   1.147   8.120 -0.1359 -0.6788  0.6911
  216MOL0     O29026   1.886   9.258   3.461  0.2027  0.5093 -0.3063
  216MOL0     C29027   1.921   9.326   3.374  0.3077 -0.0582 -0.3753
  216MOL0     O29028   1.844   9.422   3.314 -0.7689  0.0330  0.3332
  216MOL0     C29029   1.732   9.468   3.378  0.2464 -0.5281  0.4325
  216MOL0     C29030   1.733   9.487   3.517  0.6085  0.2441 -0.1790
  216MOL0     C29031   1.626   9.544   3.591 -0.2673 -0.3236 -0.3327
  216MOL0     C29032   1.510   9.578   3.527 -0.1042 -0.5618  0.8102
  216MOL0     O29033   1.417   9.639   3.604 -0.1514 -0.7739 -0.5784
  216MOL0     C29034   1.283   9.592   3.605 -0.0958  0.1147 -0.3081
  216MOL0     C29035   1.194   9.696   3.556 -0.5034 -0.2956  0.2133
  216MOL0     C29036   1.182   9.820   3.649 -0.0047  0.4265 -0.1611
  216MOL0     C29037   1.125   9.794   3.786 -0.7563  0.3605  0.0120
  216MOL0     C29038   1.104   9.928   3.862  0.0136 -0.3358 -0.3385
  216MOL0     C29039   1.006  10.024   3.791  0.0782  0.0044 -0.7194
  216MOL0     C29040   0.995  10.154   3.869  0.5230 -0.0506 -0.4041
  216MOL0     C29041   0.865  10.231   3.830 -0.6128  0.3563 -0.1448
  216MOL0     N29042   0.735  10.178   3.872  0.2584 -0.1014 -0.6423
  216MOL0     C29043   0.624  10.243   3.825 -0.2540  0.4408 -0.8266
  216MOL0     C29044   0.520  10.179   3.891  0.0942 -0.4084  0.6297
  216MOL0     C29045   0.373  10.229   3.884 -0.2367  0.4036 -0.0467
  216MOL0     C29046   0.354  10.341   3.987 -0.5818  0.2877 -0.0992
  216MOL0     C29047   0.197  10.350   4.008 -0.2379  0.0779 -0.0092
  216MOL0     C29048   0.165  10.469   4.106 -0.4126 -0.6124  0.7169
  216MOL0     O29049   0.023  10.465   4.138  0.2274  0.7733  0.6591
  216MOL0     C29050  -0.011  10.513   4.264 -0.1268 -0.5398  0.4270
  216MOL0     C29051   0.067  10.562   4.367  0.3863  0.1031  0.1166
  216MOL0     C29052   0.011  10.584   4.490  0.1137 -0.0762 -0.3680
  216MOL0     C29053  -0.132  10.581   4.513  0.0589  0.5437 -0.4742
  216MOL0     C29054  -0.183  10.602   4.653 -0.0046  0.8594  0.4165
  216MOL0     O29055  -0.087  10.604   4.751  0.0206 -0.3663 -1.1322
  216MOL0     C29056  -0.125  10.653   4.874 -1.0285 -0.7947  0.1520
  216MOL0     C29057  -0.059  10.765   4.932 -0.5752  0.2803 -0.3160
  216MOL0     C29058  -0.094  10.816   5.056 -0.5339  0.2962  0.2643
  216MOL0     C29059  -0.206  10.769   5.123  0.1065 -0.0232  0.0528
  216MOL0     O29060  -0.266  10.818   5.243 -0.1005  0.3164  0.2216
  216MOL0     C29061  -0.191  10.906   5.319  0.1418 -0.0542  0.0624
  216MOL0     C29062  -0.066  10.836   5.381  0.0941  0.2946 -0.2903
  216MOL0     C29063   0.054  10.929   5.392  0.1172  0.1375  0.1746
  216MOL0     C29064   0.135  10.870   5.513  0.9768 -0.7268  0.0879
  216MOL0     C29065   0.218  10.980   5.584 -0.3463  0.4138 -0.5064
  216MOL0     C29066   0.326  11.048   5.493  0.8831  0.6652  0.2241
  216MOL0     C29067   0.416  11.155   5.554 -0.2216 -0.5808 -0.1784
  216MOL0     C29068   0.331  11.277   5.599  0.5484 -0.0246 -0.9874
  216MOL0    Cl29069   0.230  11.352   5.469 -0.0369  0.3645  0.0416
  216MOL0     C29070  -0.266  10.658   5.072 -0.4457  0.9525 -0.1879
  216MOL0     C29071  -0.230  10.601   4.953  0.4154 -0.3901  0.2937
  216MOL0     O29072  -0.303  10.606   4.675 -0.2868  0.0409  0.0261
  216MOL0     C29073  -0.214  10.544   4.406  0.0468 -0.5280  0.3083
  216MOL0     C29074  -0.152  10.503   4.278 -0.2960 -1.0817  1.1304
  216MOL0     N29075   0.565  10.081   3.967 -0.0178 -0.2280  0.2412
  216MOL0     N29076   0.699  10.073   3.949  0.5946  0.1964 -0.6346
  216MOL0     C29077   1.505   9.562   3.383 -0.7232 -0.4827 -0.0443
  216MOL0     C29078   1.612   9.507   3.310  0.1518 -0.9721  0.0250
  216MOL0     C29079   2.060   9.318   3.320 -0.9871  0.0794  0.1133
  216MOL0     C29080   2.120   9.428   3.253 -0.3530  0.5206  0.6033
  216MOL0     C29081   2.236   9.424   3.188 -0.4852  0.1702  0.2626
  216MOL0     C29082   2.307   9.305   3.165 -0.2732 -1.1666  0.2072
  216MOL0     O29083   2.409   9.291   3.079 -0.0561 -0.5340  0.2837
  216MOL0     C29084   2.487   9.405   3.051 -0.4847  0.1834  0.4235
  216MOL0     C29085   2.623   9.365   3.004 -0.1100 -0.0057 -0.3649
  216MOL0     C29086   2.711   9.491   2.979  0.8142  1.1725  0.4775
  216MOL0     C29087   2.855   9.454   2.954  0.2382  0.3515 -0.3745
  216MOL0     C29088   2.883   9.362   2.842 -0.2565  0.2364  0.8762
  216MOL0     C29089   2.922   9.297   2.752 -0.0270 -0.2255  0.0992
  216MOL0     C29090   2.259   9.195   3.236  0.6603 -0.1339 -0.7158
  216MOL0     C29091   2.135   9.203   3.305  1.6893 -0.6419  0.3475
  216MOL0     C29092   2.095   9.075   3.367  0.1282 -0.6269  0.1714
  216MOL0     H29093   1.821   9.464   3.577 -1.0919 -2.6890  1.3686
  216MOL0     H29094   1.642   9.566   3.696  1.8125  1.4693 -0.9460
  216MOL0     H29095   1.265   9.507   3.539 -2.8700  2.1281 -2.3616
  216MOL0     H29096   1.243   9.558   3.702 -0.9570 -0.2225 -0.7683
  216MOL0     H29097   1.099   9.648   3.533 -1.6382  2.4981 -1.3106
  216MOL0     H29098   1.238   9.733   3.463 -0.8520 -0.3173  0.0376
  216MOL0     H29099   1.121   9.900   3.608  2.1227  2.4189  0.3270
  216MOL0     H29100   1.280   9.868   3.653 -0.4056  1.4282 -1.7058
  216MOL0     H29101   1.037   9.730   3.779  0.5831 -1.4661 -0.8476
  216MOL0     H29102   1.194   9.729   3.839 -0.7743 -1.7883 -2.4054
  216MOL0     H29103   1.071   9.898   3.961  0.3773 -1.7033 -0.6062
  216MOL0     H29104   1.203   9.973   3.869  1.0804 -2.7946  3.7904
  216MOL0     H29105   1.041  10.054   3.692  2.5053  0.0600  0.0898
  216MOL0     H29106   0.909   9.973   3.791  0.0287  0.0928 -0.0972
  216MOL0     H29107   1.076  10.226   3.853 -1.2974  1.4619 -3.8374
  216MOL0     H29108   0.994  10.137   3.977  0.8818  0.7807 -0.2620
  216MOL0     H29109   0.887  10.323   3.884  1.3331 -0.1553 -0.0036
  216MOL0     H29110   0.870  10.259   3.724  0.5209  3.1428  0.5646
  216MOL0     H29111   0.628  10.323   3.751 -1.5585  0.1705 -1.2253
  216MOL0     H29112   0.356  10.275   3.786  0.7830 -0.7476 -0.7847
  216MOL0     H29113   0.308  10.142   3.898 -1.3065  0.7940 -2.2127
  216MOL0     H29114   0.399  10.323   4.085  1.0342  3.1563 -0.1737
  216MOL0     H29115   0.400  10.429   3.940 -1.6602  0.2226 -1.3130
  216MOL0     H29116   0.163  10.255   4.051 -0.2790 -0.7925 -1.8646
  216MOL0     H29117   0.137  10.360   3.917 -2.2146  1.1270  1.3172
  216MOL0     H29118   0.176  10.562   4.050  3.0293 -1.4235 -0.2002
  216MOL0     H29119   0.223  10.458   4.198  0.2809 -1.5538  0.1833
  216MOL0     H29120   0.174  10.573   4.356  0.0607  1.9464 -2.0144
  216MOL0     H29121   0.087  10.604   4.565  3.3903  0.2807 -3.5081
  216MOL0     H29122   0.022  10.808   4.875  1.5613 -0.7667  1.7584
  216MOL0     H29123  -0.066  10.918   5.083 -1.6336  1.0669 -1.2877
  216MOL0     H29124  -0.184  10.997   5.259  1.1758 -0.5340 -0.5536
  216MOL0     H29125  -0.253  10.921   5.409  1.3048 -0.0571  0.8863
  216MOL0     H29126  -0.092  10.775   5.468 -0.0959  0.6614 -0.0856
  216MOL0     H29127  -0.038  10.761   5.307  1.3440  2.9766 -2.7831
  216MOL0     H29128   0.102  10.930   5.294  0.9667  0.9492  0.5848
  216MOL0     H29129   0.025  11.034   5.406 -0.3059  0.1224 -0.5708
  216MOL0     H29130   0.213  10.809   5.466 -0.4332 -0.9433 -2.0983
  216MOL0     H29131   0.080  10.819   5.593  1.6609  0.7394  1.5647
  216MOL0     H29132   0.272  10.929   5.665 -2.4411 -0.1778  0.6089
  216MOL0     H29133   0.139  11.041   5.629 -1.1142 -0.1482 -1.0447
  216MOL0     H29134   0.391  10.966   5.459  1.3497  0.1621  2.1918
  216MOL0     H29135   0.274  11.089   5.406  2.0768 -0.4892 -1.1080
  216MOL0     H29136   0.475  11.192   5.470 -2.2877 -1.3891 -2.1117
  216MOL0     H29137   0.479  11.114   5.633 -1.7894 -0.5785  1.1381
  216MOL0     H29138   0.277  11.247   5.689  0.4290  0.5066 -0.8771
  216MOL0     H29139   0.401  11.355   5.629  1.1404 -0.9007 -0.0291
  216MOL0     H29140  -0.342  10.605   5.128 -0.8628 -0.2916 -1.8554
  216MOL0     H29141  -0.283  10.511   4.924  0.7910 -0.0489 -1.6466
  216MOL0     H29142  -0.320  10.548   4.427 -0.1612  2.0420 -0.8325
  216MOL0     H29143  -0.219  10.483   4.195  0.8847  2.8798 -1.0334
  216MOL0     H29144   1.415   9.590   3.329  0.0291  1.4881 -0.3155
  216MOL0     H29145   1.600   9.498   3.202 -0.8318  0.9039 -0.0715
  216MOL0     H29146   2.071   9.525   3.252 -1.3155  0.0898 -1.8726
  216MOL0     H29147   2.271   9.519   3.148 -0.0968  0.4283  1.1896
  216MOL0     H29148   2.498   9.478   3.132 -1.4140  0.6336  0.1632
  216MOL0     H29149   2.448   9.449   2.959 -0.0008 -1.4669 -0.6021
  216MOL0     H29150   2.605   9.303   2.916  1.5697 -0.9224 -0.1096
  216MOL0     H29151   2.673   9.303   3.079 -2.6926 -0.0251  1.4846
  216MOL0     H29152   2.697   9.560   3.062  1.1026  0.0934  1.4434
  216MOL0     H29153   2.677   9.540   2.887 -1.6154 -0.0417  0.6535
  216MOL0     H29154   2.907   9.547   2.930  0.9858 -0.1874 -0.8934
  216MOL0     H29155   2.896   9.395   3.037  1.4280 -3.0257 -3.1349
  216MOL0     H29156   2.957   9.236   2.671  0.4653  0.4625 -0.2154
  216MOL0     H29157   2.310   9.101   3.220  0.8542  0.0209 -1.0180
  216MOL0     H29158   2.054   9.011   3.289 -1.6856  0.7798 -0.0878
  216MOL0     H29159   2.192   9.034   3.397  0.6540  1.2492  1.1994
  216MOL0     H29160   2.037   9.090   3.459  0.4636  2.0657  0.0248
  217MOL0     O29161   1.515   3.993   7.062 -0.6438  0.7589 -0.0398
  217MOL0     C29162   1.573   3.989   7.172  0.0739  0.0240 -0.0012
  217MOL0     O29163   1.506   3.960   7.290 -0.8170 -0.7615  0.8478
  217MOL0     C29164   1.382   3.895   7.274 -0.9146 -0.1030 -0.6594
  217MOL0     C29165   1.266   3.952   7.222  0.4681 -0.0970 -0.7602
  217MOL0     C29166   1.152   3.867   7.198  0.4352  0.4985 -0.1688
  217MOL0     C29167   1.148   3.736   7.231 -0.2599  0.0642 -0.3058
  217MOL0     O29168   1.039   3.649   7.206 -0.2951  0.1708  0.5172
  217MOL0     C29169   0.918   3.701   7.142  0.1270 -0.1446  0.8628
  217MOL0     C29170   0.790   3.607   7.146  0.4354 -0.1170  0.3113
  217MOL0     C29171   0.837   3.462   7.118  0.1401  0.2075 -0.8636
  217MOL0     C29172   0.742   3.357   7.187  0.0242  0.4176 -0.3942
  217MOL0     C29173   0.752   3.211   7.129 -0.0561  0.5488 -0.0275
  217MOL0     C29174   0.671   3.111   7.208  0.4368  0.2461  0.3101
  217MOL0     C29175   0.517   3.112   7.182  0.5684 -0.1091  0.0134
  217MOL0     C29176   0.432   3.191   7.288 -0.4573 -1.0856 -0.6520
  217MOL0     N29177   0.292   3.192   7.253 -0.4913  0.3942  0.3604
  217MOL0     C29178   0.206   3.082   7.257  0.1179  0.0955 -0.8900
  217MOL0     C29179   0.091   3.123   7.194 -1.2249  0.2399 -0.4608
  217MOL0     C29180  -0.027   3.035   7.168 -0.2685  0.8303  0.0356
  217MOL0     C29181  -0.066   3.023   7.016 -0.3016 -0.5007 -0.2295
  217MOL0     C29182  -0.032   2.891   6.957 -0.6734  0.3629  0.1471
  217MOL0     C29183  -0.133   2.781   7.003 -0.0832 -0.1736 -0.2193
  217MOL0     O29184  -0.103   2.656   6.941 -0.2071 -0.5221  0.4826
  217MOL0     C29185  -0.011   2.570   7.002 -0.3746  1.4910  0.4716
  217MOL0     C29186   0.069   2.593   7.117  0.4327 -0.9169 -0.3851
  217MOL0     C29187   0.164   2.505   7.163  0.4213 -0.0991 -0.7184
  217MOL0     C29188   0.194   2.391   7.091  0.7795 -0.6389 -0.1408
  217MOL0     C29189   0.282   2.293   7.148 -0.4374 -0.0068  0.0746
  217MOL0     O29190   0.251   2.164   7.127 -0.3668  0.6266  0.1954
  217MOL0     C29191   0.326   2.063   7.188  0.4602  0.1222 -1.6941
  217MOL0     C29192   0.329   2.042   7.326  0.1305 -0.5758  0.5029
  217MOL0     C29193   0.394   1.936   7.381 -0.9782  0.5839  0.5244
  217MOL0     C29194   0.452   1.841   7.291 -0.1189  0.1785 -0.7881
  217MOL0     O29195   0.499   1.726   7.350  1.0636  0.8363 -0.4370
  217MOL0     C29196   0.620   1.676   7.299 -0.3543  0.8234  0.2639
  217MOL0     C29197   0.640   1.550   7.390 -0.1609  0.2804 -1.1947
  217MOL0     C29198   0.734   1.442   7.336 -0.3667  1.1653 -0.1947
  217MOL0     C29199   0.772   1.322   7.439 -1.1308 -0.1770 -0.1814
  217MOL0     C29200   0.894   1.253   7.384 -0.3337 -0.1761 -0.2554
  217MOL0     C29201   0.946   1.153   7.487 -0.6363 -0.0678 -0.2124
  217MOL0     C29202   1.074   1.080   7.444 -0.4566 -0.3057  0.4551
  217MOL0     C29203   1.104   0.980   7.549  0.2464  0.0705 -0.5430
  217MOL0    Cl29204   1.187   1.063   7.686  0.2067  0.3915 -0.4305
  217MOL0     C29205   0.469   1.869   7.157 -0.0591  0.7481 -0.8599
  217MOL0     C29206   0.390   1.978   7.104 -0.0428  0.0360  0.2212
  217MOL0     O29207   0.378   2.326   7.214  0.4672 -0.5180 -0.1850
  217MOL0     C29208   0.113   2.358   6.978 -1.2306  0.9356 -0.5054
  217MOL0     C29209   0.021   2.445   6.933  0.6253  0.0647  0.5755
  217MOL0     N29210   0.107   3.256   7.165  0.2269  0.6402 -0.1659
  217MOL0     N29211   0.233   3.291   7.183  0.5653 -0.1748 -1.0658
  217MOL0     C29212   1.267   3.686   7.289 -0.0572 -0.3647 -0.0975
  217MOL0     C29213   1.381   3.762   7.308 -0.4385 -0.3788  0.9408
  217MOL0     C29214   1.702   4.047   7.174 -0.3393 -0.3719 -0.5379
  217MOL0     C29215   1.723   4.179   7.123  0.5008  0.0972 -1.0303
  217MOL0     C29216   1.850   4.231   7.114 -0.2037  1.1785  0.9269
  217MOL0     C29217   1.963   4.154   7.162  0.8640  0.3746  0.6019
  217MOL0     O29218   2.083   4.221   7.155  0.1855  0.1222  0.1847
  217MOL0     C29219   2.180   4.167   7.065 -0.6226 -0.3947  0.7064
  217MOL0     C29220   2.285   4.276   7.032 -0.5458  0.3741  0.2339
  217MOL0     C29221   2.229   4.420   7.018 -1.2096 -0.3560  0.3326
  217MOL0     C29222   2.343   4.527   6.979 -0.2225  0.4658  0.1453
  217MOL0     C29223   2.292   4.663   6.967  0.4343  0.4330 -0.0516
  217MOL0     C29224   2.258   4.778   6.969  0.6167  0.2439 -0.0753
  217MOL0     C29225   1.942   4.027   7.203 -0.0204 -0.4918  0.3577
  217MOL0     C29226   1.815   3.969   7.214 -0.1846  1.0392  0.1840
  217MOL0     C29227   1.807   3.832   7.274 -0.4573  0.7429  0.1887
  217MOL0     H29228   1.267   4.054   7.187  3.7081  0.8328  1.5142
  217MOL0     H29229   1.067   3.905   7.142 -3.0495  1.0835  4.8991
  217MOL0     H29230   0.896   3.796   7.192  3.6993  0.1176  2.1975
  217MOL0     H29231   0.946   3.722   7.039  2.9777  0.4948  1.6867
  217MOL0     H29232   0.714   3.642   7.075  0.9957 -0.5583 -0.5164
  217MOL0     H29233   0.732   3.609   7.239 -2.9039  1.0880 -1.5801
  217MOL0     H29234   0.939   3.436   7.147  0.7105  2.0460 -1.0971
  217MOL0     H29235   0.825   3.445   7.011  0.5032  1.4930 -1.1205
  217MOL0     H29236   0.779   3.347   7.290  0.1853  2.7701 -0.1733
  217MOL0     H29237   0.637   3.387   7.181 -0.0169  0.1725 -0.9895
  217MOL0     H29238   0.713   3.225   7.027 -0.7483  0.1411  0.1833
  217MOL0     H29239   0.856   3.178   7.119  0.1655 -0.0396  3.2637
  217MOL0     H29240   0.704   3.011   7.178  1.6029  0.5602  0.4747
  217MOL0     H29241   0.690   3.128   7.314 -0.0238 -0.3644  0.4951
  217MOL0     H29242   0.476   3.010   7.189 -2.6260  1.1261  1.1788
  217MOL0     H29243   0.481   3.154   7.088 -0.8755 -0.4531  0.3832
  217MOL0     H29244   0.451   3.137   7.381 -1.9443  1.9300  1.5145
  217MOL0     H29245   0.480   3.287   7.309  1.7634 -1.2059 -4.2776
  217MOL0     H29246   0.234   2.982   7.288 -1.0319  0.2735  0.8193
  217MOL0     H29247  -0.002   2.940   7.217 -1.6080  1.3713  1.9175
  217MOL0     H29248  -0.112   3.075   7.224 -1.6678 -1.9045  0.0227
  217MOL0     H29249  -0.173   3.037   6.999 -0.4905 -2.8564 -1.4501
  217MOL0     H29250  -0.016   3.108   6.968 -2.0515  1.6093  1.4743
  217MOL0     H29251   0.067   2.861   6.991 -0.7495  0.7932  0.7787
  217MOL0     H29252  -0.036   2.904   6.849  0.5920  1.3379  0.2037
  217MOL0     H29253  -0.238   2.810   6.990  0.2133  2.0114  1.5916
  217MOL0     H29254  -0.122   2.777   7.112  0.7471 -0.5552 -0.3103
  217MOL0     H29255   0.050   2.678   7.183 -0.6559  0.0220 -1.8393
  217MOL0     H29256   0.215   2.527   7.256 -0.6954  0.8930 -0.3188
  217MOL0     H29257   0.281   2.118   7.386  0.5286  1.7059 -1.8843
  217MOL0     H29258   0.400   1.918   7.488  1.9785 -0.3542  0.2987
  217MOL0     H29259   0.608   1.632   7.200  0.5929 -2.0262  1.3297
  217MOL0     H29260   0.702   1.749   7.304  1.2902 -0.4455 -3.8778
  217MOL0     H29261   0.679   1.583   7.486 -1.1269  0.6160 -0.9009
  217MOL0     H29262   0.546   1.495   7.406 -0.4607  1.1790  0.4105
  217MOL0     H29263   0.685   1.404   7.246  0.7093 -0.5405 -0.0930
  217MOL0     H29264   0.822   1.495   7.298 -0.1564 -0.1412 -1.6231
  217MOL0     H29265   0.686   1.265   7.476 -0.8227 -1.9011 -1.9557
  217MOL0     H29266   0.816   1.369   7.527  2.9573  3.5356 -3.7384
  217MOL0     H29267   0.971   1.326   7.357 -1.3031  0.3762 -1.6254
  217MOL0     H29268   0.861   1.202   7.293 -0.5319 -1.1550  0.3544
  217MOL0     H29269   0.960   1.208   7.580 -2.3243  1.0550 -0.5639
  217MOL0     H29270   0.873   1.074   7.505  0.4884 -1.1219 -0.2140
  217MOL0     H29271   1.159   1.146   7.428  0.5590 -1.3559  1.3415
  217MOL0     H29272   1.061   1.024   7.351  1.7924 -1.2584  0.6424
  217MOL0     H29273   1.010   0.931   7.576 -0.1669  0.0717 -1.9411
  217MOL0     H29274   1.171   0.897   7.523  0.3783 -0.4662  1.3054
  217MOL0     H29275   0.510   1.794   7.091 -1.7333  0.7987 -2.0417
  217MOL0     H29276   0.376   1.999   6.999 -0.4387  1.0128  0.4497
  217MOL0     H29277   0.133   2.261   6.933  0.2062 -0.6491  3.1453
  217MOL0     H29278  -0.041   2.413   6.850 -1.1940  1.9235  1.1370
  217MOL0     H29279   1.271   3.582   7.320  0.4140 -0.8030 -1.5165
  217MOL0     H29280   1.472   3.715   7.344  0.3610  1.5556  1.5419
  217MOL0     H29281   1.638   4.237   7.088  0.2949 -1.7554 -3.8794
  217MOL0     H29282   1.864   4.336   7.094  1.4068  0.4344 -2.7476
  217MOL0     H29283   2.141   4.129   6.970  2.8685  0.2820 -1.1866
  217MOL0     H29284   2.227   4.080   7.111  0.8350 -0.3729 -0.6442
  217MOL0     H29285   2.341   4.256   6.941  0.2018  1.5056  0.4338
  217MOL0     H29286   2.358   4.272   7.113  1.2793  4.2640 -0.9694
  217MOL0     H29287   2.178   4.458   7.107  0.1612  2.0689  0.1733
  217MOL0     H29288   2.160   4.424   6.934 -0.6405 -2.7662 -0.3343
  217MOL0     H29289   2.427   4.523   7.049 -1.1184 -0.6340  1.2046
  217MOL0     H29290   2.400   4.509   6.888 -1.3734  0.3216 -0.5703
  217MOL0     H29291   2.248   4.885   6.966  2.6948  0.5313  1.2788
  217MOL0     H29292   2.027   3.975   7.246  0.6790  0.3541  0.0289
  217MOL0     H29293   1.904   3.784   7.291 -2.8011 -4.7049 -0.1499
  217MOL0     H29294   1.740   3.818   7.359 -0.3610  2.1566  0.5331
  217MOL0     H29295   1.757   3.774   7.197 -0.0412  0.9480 -0.2452
  218MOL0     O29296   5.117   1.748   5.749 -0.1209  0.0350  0.7391
  218MOL0     C29297   5.012   1.727   5.814 -0.3387 -1.0152  0.4892
  218MOL0     O29298   4.946   1.612   5.807  0.2049 -0.3765 -0.5737
  218MOL0     C29299   4.990   1.513   5.720  0.7777 -0.2738  0.1915
  218MOL0     C29300   5.097   1.428   5.749  0.2631 -0.1325  0.2508
  218MOL0     C29301   5.132   1.327   5.654 -0.3037  0.1688  0.9630
  218MOL0     C29302   5.070   1.307   5.526 -0.0047 -0.0784 -0.5663
  218MOL0     O29303   5.118   1.205   5.444 -0.4083  0.1956  0.1068
  218MOL0     C29304   5.040   1.183   5.321  0.1842 -0.2222 -0.3329
  218MOL0     C29305   5.066   1.042   5.263 -0.0018 -0.3515 -0.8538
  218MOL0     C29306   4.985   0.933   5.326 -0.1892  0.7946 -0.0746
  218MOL0     C29307   5.063   0.806   5.279  0.6036 -0.7723  0.0149
  218MOL0     C29308   4.987   0.676   5.331 -0.4739 -0.9966  0.8378
  218MOL0     C29309   5.050   0.542   5.294 -0.2583  0.4982  0.6759
  218MOL0     C29310   5.172   0.499   5.386  0.7568  0.2559 -0.3082
  218MOL0     C29311   5.125   0.442   5.521  0.3579  0.4346 -0.2336
  218MOL0     N29312   5.251   0.391   5.593 -0.1765 -0.9123  0.2918
  218MOL0     C29313   5.335   0.478   5.649 -0.8825  0.1860  0.4618
  218MOL0     C29314   5.449   0.416   5.666  0.3416  0.0270 -0.7382
  218MOL0     C29315   5.571   0.482   5.743  0.7916 -0.0611 -0.6094
  218MOL0     C29316   5.554   0.541   5.878 -0.5601  0.6531 -0.4443
  218MOL0     C29317   5.529   0.429   5.990 -0.1422  0.0217  0.7021
  218MOL0     C29318   5.555   0.495   6.122 -0.0149  0.2199  0.1746
  218MOL0     O29319   5.448   0.584   6.152 -0.1574  0.4077 -0.2238
  218MOL0     C29320   5.442   0.639   6.272  0.0760  0.0563 -0.1216
  218MOL0     C29321   5.313   0.663   6.327 -0.0260 -0.9695  0.3322
  218MOL0     C29322   5.298   0.727   6.449  1.8214  0.5394 -1.8883
  218MOL0     C29323   5.410   0.765   6.525  0.1135 -0.5625 -0.2369
  218MOL0     C29324   5.396   0.827   6.659 -0.3487 -0.1136 -0.3591
  218MOL0     O29325   5.506   0.897   6.689  0.5419  0.0419 -0.3175
  218MOL0     C29326   5.525   0.949   6.814 -0.3485  0.1666 -0.0153
  218MOL0     C29327   5.432   1.027   6.878  0.7402 -0.2766  0.2277
  218MOL0     C29328   5.454   1.067   7.007  0.0771 -0.5313 -0.8169
  218MOL0     C29329   5.575   1.051   7.075  0.8639  1.0539  0.8201
  218MOL0     O29330   5.587   1.106   7.196 -0.0710 -0.2289 -1.0578
  218MOL0     C29331   5.711   1.100   7.262  0.0198  0.0113 -0.2401
  218MOL0     C29332   5.701   1.161   7.405 -0.9371 -0.0213 -0.3889
  218MOL0     C29333   5.608   1.080   7.500 -0.6848 -0.4157  0.0834
  218MOL0     C29334   5.475   1.159   7.519 -0.2273 -0.4837 -0.4785
  218MOL0     C29335   5.359   1.065   7.541  0.2983  0.3745 -0.7708
  218MOL0     C29336   5.320   0.973   7.423 -0.3333 -0.7276 -0.0935
  218MOL0     C29337   5.177   0.911   7.438 -0.8304 -0.2013 -0.5799
  218MOL0     C29338   5.183   0.800   7.547 -0.1248 -0.6300  0.2135
  218MOL0    Cl29339   5.007   0.758   7.571  0.2580  0.1055 -0.2226
  218MOL0     C29340   5.672   0.972   7.007  0.0707  0.6766  0.3866
  218MOL0     C29341   5.644   0.919   6.877 -0.5456  0.3144  0.0023
  218MOL0     O29342   5.302   0.780   6.735 -0.2716  0.1037 -0.5471
  218MOL0     C29343   5.538   0.724   6.481  0.4539 -0.1123 -0.6968
  218MOL0     C29344   5.551   0.670   6.351  0.4060  0.0341 -0.3364
  218MOL0     N29345   5.422   0.279   5.645  0.4873 -0.5606  0.1712
  218MOL0     N29346   5.299   0.271   5.583 -0.1419  0.1427 -1.0772
  218MOL0     C29347   4.964   1.399   5.501 -0.3430 -1.5731  0.6574
  218MOL0     C29348   4.927   1.499   5.593  0.4555 -0.4945  0.5290
  218MOL0     C29349   4.949   1.846   5.897 -0.1402 -0.1381 -0.4825
  218MOL0     C29350   4.838   1.821   5.982  0.0804 -0.1191  0.4901
  218MOL0     C29351   4.798   1.909   6.083  0.1418  0.2408  0.3037
  218MOL0     C29352   4.857   2.037   6.097 -0.1475 -0.0408  0.2146
  218MOL0     O29353   4.810   2.125   6.192  0.0368 -0.0215 -0.6752
  218MOL0     C29354   4.828   2.066   6.328  0.2545  0.4277 -0.2898
  218MOL0     C29355   4.765   2.167   6.429 -0.0412 -0.1553  0.4924
  218MOL0     C29356   4.631   2.230   6.379  0.4510 -0.7574  0.0780
  218MOL0     C29357   4.561   2.315   6.480  1.5522 -0.0554  0.9457
  218MOL0     C29358   4.623   2.442   6.497 -0.3298 -0.2569 -1.0224
  218MOL0     C29359   4.690   2.538   6.538 -0.4120 -0.4247  0.2690
  218MOL0     C29360   4.962   2.070   6.008 -0.1579  0.3011  0.6533
  218MOL0     C29361   5.017   1.981   5.914 -0.5873  0.5039 -0.6305
  218MOL0     C29362   5.153   2.026   5.847  0.0733  0.4691 -0.2940
  218MOL0     H29363   5.149   1.444   5.842 -3.6175 -0.8155  2.7490
  218MOL0     H29364   5.222   1.271   5.677  0.2803  0.6182 -0.1439
  218MOL0     H29365   4.933   1.192   5.343  0.3596  3.1799 -0.3915
  218MOL0     H29366   5.069   1.256   5.245  0.3789 -0.0052 -0.0499
  218MOL0     H29367   5.174   1.032   5.274  0.2849  3.2413  1.1184
  218MOL0     H29368   5.046   1.036   5.156  0.7623  0.2099 -1.0377
  218MOL0     H29369   4.882   0.924   5.289 -0.5067 -1.4459  1.1480
  218MOL0     H29370   4.995   0.934   5.435 -1.5283 -2.0394  0.1572
  218MOL0     H29371   5.072   0.803   5.170  0.3225  2.0933 -0.1716
  218MOL0     H29372   5.165   0.821   5.316 -0.2175  1.5379  1.5927
  218MOL0     H29373   4.984   0.687   5.440 -0.4879 -2.4505  0.9979
  218MOL0     H29374   4.885   0.673   5.291 -0.8070  2.3345  1.1565
  218MOL0     H29375   4.975   0.463   5.301  0.2349 -0.0877 -0.5281
  218MOL0     H29376   5.085   0.543   5.191 -0.2627  1.0002  0.6788
  218MOL0     H29377   5.242   0.583   5.390 -1.1700  1.9177 -0.1756
  218MOL0     H29378   5.223   0.419   5.332  2.4518  0.7104  0.5337
  218MOL0     H29379   5.082   0.516   5.589  2.3871  1.5292 -0.0969
  218MOL0     H29380   5.055   0.358   5.513 -1.0458  1.6714 -1.5651
  218MOL0     H29381   5.319   0.585   5.663 -1.9204  0.3207 -1.4957
  218MOL0     H29382   5.646   0.402   5.747 -1.0160 -1.9472 -2.1706
  218MOL0     H29383   5.607   0.555   5.670  1.6523  0.5605  0.4090
  218MOL0     H29384   5.644   0.597   5.906 -0.8765  1.3714 -0.8510
  218MOL0     H29385   5.467   0.606   5.893  0.1489  1.8536 -1.3469
  218MOL0     H29386   5.586   0.337   5.978 -0.1183  0.1980 -0.7044
  218MOL0     H29387   5.426   0.391   5.986  0.4625 -1.6273 -0.1582
  218MOL0     H29388   5.652   0.546   6.122  0.1706  0.1055 -3.0372
  218MOL0     H29389   5.556   0.417   6.199 -3.0743 -0.6086 -0.4974
  218MOL0     H29390   5.229   0.618   6.275 -0.2116 -0.3777  0.1222
  218MOL0     H29391   5.198   0.753   6.483  2.7719  1.1481  0.6543
  218MOL0     H29392   5.340   1.069   6.838  1.3873  1.7880  0.7681
  218MOL0     H29393   5.369   1.114   7.055  2.5946  2.3177  1.3014
  218MOL0     H29394   5.739   0.996   7.281 -0.7675  0.1013  1.5633
  218MOL0     H29395   5.790   1.148   7.204  1.0804  1.1398  2.0392
  218MOL0     H29396   5.803   1.172   7.443 -1.4685  1.2405  0.7798
  218MOL0     H29397   5.668   1.265   7.399 -2.1476 -0.4939 -3.0047
  218MOL0     H29398   5.591   0.980   7.461 -0.9668  0.8721 -3.4677
  218MOL0     H29399   5.652   1.066   7.599 -3.1797 -1.7801  1.0772
  218MOL0     H29400   5.436   1.207   7.428 -0.9146 -0.7210 -0.3190
  218MOL0     H29401   5.476   1.235   7.598  1.7302 -0.6446 -0.3214
  218MOL0     H29402   5.274   1.131   7.561  1.3396  1.0668  1.7963
  218MOL0     H29403   5.376   1.002   7.630 -1.1591  1.8597  0.6295
  218MOL0     H29404   5.311   1.035   7.334  1.5474  2.2536  1.6343
  218MOL0     H29405   5.392   0.891   7.415 -0.3788 -0.7941  0.1797
  218MOL0     H29406   5.152   0.873   7.338 -0.7575 -1.4542 -0.1392
  218MOL0     H29407   5.102   0.988   7.461  0.6487  1.2305 -0.3836
  218MOL0     H29408   5.226   0.704   7.517 -1.7205 -0.9796 -1.0780
  218MOL0     H29409   5.236   0.827   7.639 -1.5395  1.2874  0.5439
  218MOL0     H29410   5.759   0.940   7.062 -1.0934 -0.3309  1.7153
  218MOL0     H29411   5.724   0.867   6.825  1.3164  0.4769  2.5006
  218MOL0     H29412   5.627   0.738   6.541  0.9797  1.9467 -1.8860
  218MOL0     H29413   5.654   0.647   6.327 -0.0865  0.1855 -3.0021
  218MOL0     H29414   4.912   1.414   5.407 -1.8478 -0.5177  1.6114
  218MOL0     H29415   4.848   1.570   5.574  0.7946 -0.1657  0.3414
  218MOL0     H29416   4.784   1.727   5.986 -0.6570  0.3433  1.8256
  218MOL0     H29417   4.708   1.887   6.139  0.6055 -1.5695  0.3931
  218MOL0     H29418   4.932   2.036   6.343  0.4025 -0.2653 -2.3079
  218MOL0     H29419   4.757   1.985   6.343 -1.4287  1.7509 -0.7693
  218MOL0     H29420   4.842   2.243   6.446  0.6585 -0.7838  0.1953
  218MOL0     H29421   4.747   2.116   6.524  1.2467 -2.3980 -0.3989
  218MOL0     H29422   4.563   2.149   6.349  0.6903 -1.4466  1.3094
  218MOL0     H29423   4.647   2.276   6.282  0.8773 -1.3303 -0.1302
  218MOL0     H29424   4.454   2.326   6.462  2.0117  0.3026 -2.2896
  218MOL0     H29425   4.570   2.269   6.579  0.7702 -1.5415  0.3665
  218MOL0     H29426   4.739   2.629   6.567 -2.8536  0.5668  1.6253
  218MOL0     H29427   5.015   2.165   6.007  1.3005 -0.4908  0.8654
  218MOL0     H29428   5.216   1.940   5.873 -2.5117 -1.8842 -1.3158
  218MOL0     H29429   5.138   2.040   5.739  1.9850 -3.0040 -1.1723
  218MOL0     H29430   5.197   2.113   5.895  0.1701 -0.4013  1.2539
  219MOL0     O29431   1.494   0.078   8.107 -0.8688  0.4188 -0.9106
  219MOL0     C29432   1.568  -0.012   8.086 -0.5084 -0.1725  0.0657
  219MOL0     O29433   1.535  -0.143   8.097 -0.1712  0.4221  0.6012
  219MOL0     C29434   1.412  -0.193   8.128 -0.0757 -0.3086  0.4048
  219MOL0     C29435   1.408  -0.316   8.204  0.2195  0.3708  0.0365
  219MOL0     C29436   1.294  -0.378   8.247  0.3919  0.3069  0.2605
  219MOL0     C29437   1.176  -0.329   8.205  0.0243  0.0570 -1.0253
  219MOL0     O29438   1.056  -0.388   8.260  0.0848  0.3541 -0.3808
  219MOL0     C29439   0.928  -0.324   8.238  0.4096 -0.1801 -0.1803
  219MOL0     C29440   0.801  -0.387   8.318  0.7419 -0.4541  0.1262
  219MOL0     C29441   0.813  -0.412   8.467 -0.8617  0.1108 -0.3554
  219MOL0     C29442   0.798  -0.271   8.543 -0.5206 -0.1899 -0.5790
  219MOL0     C29443   0.753  -0.286   8.691  0.1020 -0.0557  0.0551
  219MOL0     C29444   0.824  -0.380   8.789 -0.4079 -0.1438  0.0044
  219MOL0     C29445   0.766  -0.383   8.938 -0.2429  0.1255  0.2393
  219MOL0     C29446   0.633  -0.438   8.951 -0.6660 -0.2030  0.7191
  219MOL0     N29447   0.579  -0.433   9.087  0.1929  0.6078  0.0580
  219MOL0     C29448   0.459  -0.372   9.121 -0.1182  0.1193  1.0975
  219MOL0     C29449   0.452  -0.378   9.254  0.4690  0.7670 -0.0545
  219MOL0     C29450   0.340  -0.332   9.340 -1.3272  0.1778 -0.7025
  219MOL0     C29451   0.242  -0.443   9.389 -0.2705  0.5192 -0.3333
  219MOL0     C29452   0.108  -0.397   9.442  0.2725 -0.4539 -1.4381
  219MOL0     C29453   0.026  -0.508   9.502 -0.1282 -0.0470 -0.3548
  219MOL0     O29454  -0.100  -0.449   9.551 -0.2033 -0.2973 -0.2107
  219MOL0     C29455  -0.189  -0.527   9.618 -0.4429  0.2258  0.2462
  219MOL0     C29456  -0.174  -0.666   9.634  0.1549  0.2432  0.5947
  219MOL0     C29457  -0.264  -0.751   9.703  0.6042 -0.1088 -1.2153
  219MOL0     C29458  -0.368  -0.684   9.778 -0.5071 -0.2278  0.1706
  219MOL0     C29459  -0.466  -0.756   9.856  0.2790  0.2462  0.3462
  219MOL0     O29460  -0.541  -0.682   9.936 -0.0880  0.4407  0.0041
  219MOL0     C29461  -0.663  -0.729   9.970 -0.3186 -1.2649  0.7298
  219MOL0     C29462  -0.682  -0.789  10.093 -0.0958  0.8601  0.2434
  219MOL0     C29463  -0.810  -0.810  10.147  0.8046 -0.3718  0.7836
  219MOL0     C29464  -0.921  -0.764  10.073  1.2296  0.1368 -0.1365
  219MOL0     O29465  -1.052  -0.772  10.122 -0.1057  0.0650 -0.1873
  219MOL0     C29466  -1.092  -0.862  10.231 -0.8144  0.1813  0.2726
  219MOL0     C29467  -1.241  -0.875  10.202  0.0442 -0.0547 -0.3636
  219MOL0     C29468  -1.297  -0.985  10.288  0.5568  0.0112 -0.4039
  219MOL0     C29469  -1.455  -0.980  10.280 -1.1753  0.5651  0.3521
  219MOL0     C29470  -1.512  -1.111  10.350  0.0306  0.6809  0.4749
  219MOL0     C29471  -1.661  -1.107  10.359  0.0653 -0.7254 -0.0803
  219MOL0     C29472  -1.722  -1.204  10.471 -0.9577  0.5264 -0.2727
  219MOL0     C29473  -1.880  -1.213  10.472  0.3569  0.3538  0.0264
  219MOL0    Cl29474  -1.938  -1.266  10.310  0.0845 -0.1516 -0.1551
  219MOL0     C29475  -0.905  -0.707   9.951  0.4869 -0.1791  0.7958
  219MOL0     C29476  -0.778  -0.687   9.899 -0.8723 -0.4712 -1.1078
  219MOL0     O29477  -0.474  -0.878   9.840  0.0479 -0.7841 -0.0163
  219MOL0     C29478  -0.374  -0.543   9.758  0.2798  0.2178  0.0247
  219MOL0     C29479  -0.293  -0.467   9.678 -0.0922  0.4458 -0.4433
  219MOL0     N29480   0.557  -0.449   9.298  0.5259 -0.2247  0.0314
  219MOL0     N29481   0.634  -0.474   9.204  0.8232  0.0677 -0.2360
  219MOL0     C29482   1.172  -0.211   8.125  0.1304 -0.5626  0.3760
  219MOL0     C29483   1.291  -0.135   8.100  0.1959 -0.1035  0.3533
  219MOL0     C29484   1.704   0.014   8.040 -0.3682  0.6755 -0.0843
  219MOL0     C29485   1.783  -0.092   7.988  0.6017  0.6871  0.0133
  219MOL0     C29486   1.915  -0.076   7.956 -0.5544  0.0669 -1.1151
  219MOL0     C29487   1.974   0.050   7.960 -0.5514 -0.4527 -0.1592
  219MOL0     O29488   2.101   0.056   7.910  0.0773  0.9830  0.2911
  219MOL0     C29489   2.175   0.173   7.876  0.3323 -0.9150  0.4850
  219MOL0     C29490   2.306   0.129   7.802  0.1305  0.0273  0.3091
  219MOL0     C29491   2.276   0.084   7.656 -0.2766 -1.1674  0.2376
  219MOL0     C29492   2.409   0.036   7.609 -0.3599  0.2625  0.4311
  219MOL0     C29493   2.402  -0.061   7.496  0.7783  0.0131 -0.5828
  219MOL0     C29494   2.399  -0.138   7.404  0.2370  0.2096  0.3307
  219MOL0     C29495   1.897   0.159   7.984 -0.3715  0.6936 -0.3558
  219MOL0     C29496   1.765   0.146   8.034 -0.0205  0.4921  0.2118
  219MOL0     C29497   1.674   0.273   8.046  0.1226  0.1178 -0.0222
  219MOL0     H29498   1.504  -0.354   8.239  0.0018 -0.8678 -0.6556
  219MOL0     H29499   1.295  -0.459   8.318 -2.3325 -0.2842 -0.2428
  219MOL0     H29500   0.928  -0.221   8.274 -2.2345 -0.0539 -0.3297
  219MOL0     H29501   0.904  -0.328   8.131  4.0814 -1.7107 -1.0964
  219MOL0     H29502   0.778  -0.488   8.282  0.7589 -1.1524  1.9560
  219MOL0     H29503   0.714  -0.324   8.299  0.7253  0.0515  1.7127
  219MOL0     H29504   0.909  -0.455   8.497  0.1651  0.7073 -2.6188
  219MOL0     H29505   0.747  -0.486   8.513  1.7345 -1.6098  0.8341
  219MOL0     H29506   0.887  -0.209   8.556 -1.5253  1.1565  0.0537
  219MOL0     H29507   0.728  -0.213   8.483  1.5963  3.5330  0.2339
  219MOL0     H29508   0.740  -0.180   8.714  0.6147 -0.1278  0.7001
  219MOL0     H29509   0.647  -0.313   8.696 -0.9427  3.6825  1.5613
  219MOL0     H29510   0.807  -0.476   8.740 -0.9338  0.9888 -2.1606
  219MOL0     H29511   0.930  -0.354   8.798 -0.8030  0.7898  2.9904
  219MOL0     H29512   0.772  -0.279   8.971  0.0541 -0.1821  1.1692
  219MOL0     H29513   0.831  -0.446   8.998  1.2354  2.4506  1.2300
  219MOL0     H29514   0.568  -0.381   8.884  0.4900  1.9099  1.3193
  219MOL0     H29515   0.631  -0.544   8.924 -1.6238  0.0907 -0.4160
  219MOL0     H29516   0.382  -0.322   9.064 -3.6299 -2.3665  3.2498
  219MOL0     H29517   0.373  -0.276   9.428  1.3447 -0.2780 -1.3384
  219MOL0     H29518   0.279  -0.261   9.283 -0.9853  1.7965  0.8605
  219MOL0     H29519   0.209  -0.505   9.306  0.1606  1.9822 -1.6324
  219MOL0     H29520   0.299  -0.506   9.458 -3.1301 -0.3216  1.4413
  219MOL0     H29521   0.053  -0.345   9.363  1.4399  3.3673  0.0743
  219MOL0     H29522   0.135  -0.323   9.518  3.4293 -1.5406 -1.3651
  219MOL0     H29523   0.083  -0.558   9.581  0.1622  2.9950  1.5183
  219MOL0     H29524   0.004  -0.583   9.425  1.6233 -1.0885  0.0973
  219MOL0     H29525  -0.085  -0.714   9.596  0.9410  1.8379  0.3225
  219MOL0     H29526  -0.254  -0.859   9.711 -2.3493 -0.3641  2.3122
  219MOL0     H29527  -0.593  -0.810  10.152 -0.5786 -1.9943  0.1175
  219MOL0     H29528  -0.813  -0.843  10.250  0.6845 -2.3616  0.1956
  219MOL0     H29529  -1.049  -0.962  10.233 -1.4184 -0.0893  2.3506
  219MOL0     H29530  -1.063  -0.819  10.327 -0.0385 -2.8036  1.4874
  219MOL0     H29531  -1.289  -0.785  10.241 -3.2722 -1.7068 -0.2582
  219MOL0     H29532  -1.256  -0.893  10.095 -1.2171 -0.7588 -0.0973
  219MOL0     H29533  -1.265  -1.080  10.244 -1.9420 -1.0833 -0.0299
  219MOL0     H29534  -1.271  -0.971  10.393 -1.3286  0.9220 -0.0072
  219MOL0     H29535  -1.477  -0.985  10.173 -1.9733  0.7049  0.4999
  219MOL0     H29536  -1.500  -0.884  10.308 -1.1389  1.4434 -2.2867
  219MOL0     H29537  -1.477  -1.112  10.454 -0.6378  3.5041  0.8150
  219MOL0     H29538  -1.479  -1.198  10.294  2.0485  0.0073  2.5534
  219MOL0     H29539  -1.691  -1.006  10.387 -2.4637 -0.9286 -1.7154
  219MOL0     H29540  -1.709  -1.125  10.262 -0.7248  3.1366 -0.5424
  219MOL0     H29541  -1.695  -1.165  10.569  3.7806 -0.6548 -0.8312
  219MOL0     H29542  -1.682  -1.306  10.470 -1.1139  0.3549  2.7815
  219MOL0     H29543  -1.908  -1.283  10.551  0.4232  1.7253  1.3182
  219MOL0     H29544  -1.916  -1.113  10.499 -1.7548  0.2282 -1.9687
  219MOL0     H29545  -0.990  -0.671   9.894  1.4594  0.4838 -0.2793
  219MOL0     H29546  -0.765  -0.651   9.798 -0.0295  0.5851 -0.6466
  219MOL0     H29547  -0.464  -0.500   9.802 -0.5786 -0.6605 -0.8042
  219MOL0     H29548  -0.295  -0.359   9.663 -1.4600  1.0107  2.8998
  219MOL0     H29549   1.083  -0.161   8.089  1.3270  0.0205 -1.9459
  219MOL0     H29550   1.296  -0.051   8.031 -3.0694 -0.7947 -0.8863
  219MOL0     H29551   1.745  -0.194   7.985 -0.8428  1.1777  0.4292
  219MOL0     H29552   1.978  -0.162   7.937 -0.8821 -0.7607  1.1651
  219MOL0     H29553   2.200   0.228   7.967 -0.4412  0.4240 -0.0836
  219MOL0     H29554   2.114   0.235   7.810  1.3741  2.0738  2.1256
  219MOL0     H29555   2.350   0.043   7.852 -1.8847 -0.7160  0.8889
  219MOL0     H29556   2.380   0.210   7.802  0.9901 -0.7092 -1.0332
  219MOL0     H29557   2.255   0.170   7.592 -3.2071 -0.1953  2.3421
  219MOL0     H29558   2.195   0.013   7.644  0.9520 -2.4038 -1.2379
  219MOL0     H29559   2.461   0.120   7.562 -0.2616 -0.5875 -1.0704
  219MOL0     H29560   2.466  -0.013   7.688 -0.3394 -0.0601  0.2183
  219MOL0     H29561   2.413  -0.198   7.316  1.1746  0.7822  0.0748
  219MOL0     H29562   1.926   0.263   7.976 -0.9504  0.7961 -1.3601
  219MOL0     H29563   1.585   0.257   7.984 -0.6358 -4.2252  1.8081
  219MOL0     H29564   1.627   0.278   8.145 -0.7176 -1.7473 -0.2676
  219MOL0     H29565   1.735   0.359   8.017  1.2175 -0.4970  0.4020
  220MOL0     O29566   0.754   0.109   8.133 -0.5940 -0.3448  0.2428
  220MOL0     C29567   0.655   0.094   8.203  0.2456 -0.0060  0.1484
  220MOL0     O29568   0.639   0.093   8.341  0.0065  0.0846  0.4945
  220MOL0     C29569   0.749   0.108   8.427 -0.2849 -0.1286  0.5739
  220MOL0     C29570   0.718   0.069   8.559 -0.3660  0.7033  0.4146
  220MOL0     C29571   0.826   0.054   8.649  0.4280 -0.0105 -0.6728
  220MOL0     C29572   0.963   0.083   8.618  0.0459 -1.1785 -0.0006
  220MOL0     O29573   1.058   0.096   8.722  0.3852  0.3558  0.8797
  220MOL0     C29574   1.189   0.031   8.705  0.3092  0.5115 -0.1279
  220MOL0     C29575   1.269   0.036   8.831  0.6385  0.4378  0.1011
  220MOL0     C29576   1.213  -0.071   8.934  0.6243 -0.1412  0.4979
  220MOL0     C29577   1.275  -0.054   9.071  0.2708  0.8981  0.1407
  220MOL0     C29578   1.212   0.077   9.148  0.0681  0.4090  0.7463
  220MOL0     C29579   1.323   0.119   9.240  1.6679  0.0386  1.3472
  220MOL0     C29580   1.292   0.249   9.316 -0.5894  0.3986 -0.4218
  220MOL0     C29581   1.406   0.286   9.411  0.4069 -0.0261  0.0290
  220MOL0     N29582   1.434   0.187   9.510  0.5684  0.6318  0.1322
  220MOL0     C29583   1.336   0.118   9.581 -0.4218  0.3025 -0.6146
  220MOL0     C29584   1.395   0.034   9.674 -0.3054 -1.2577  0.0813
  220MOL0     C29585   1.336  -0.038   9.784 -0.5924  0.7338 -0.5145
  220MOL0     C29586   1.314   0.058   9.909  0.1181 -0.1968 -0.8828
  220MOL0     C29587   1.433   0.155   9.940 -0.2147  0.5586 -0.2558
  220MOL0     C29588   1.557   0.073   9.988  0.5219  0.6801 -0.1180
  220MOL0     O29589   1.661   0.163  10.036 -0.3112  0.4722  0.4964
  220MOL0     C29590   1.650   0.225  10.160 -0.2713 -0.3491 -0.2450
  220MOL0     C29591   1.753   0.311  10.199  0.1715 -0.5949 -0.0575
  220MOL0     C29592   1.773   0.347  10.331 -0.7019 -0.5872 -1.6277
  220MOL0     C29593   1.675   0.314  10.430  0.6422  1.3813 -0.0450
  220MOL0     C29594   1.686   0.369  10.565 -0.2753 -0.2868  0.4048
  220MOL0     O29595   1.787   0.453  10.591 -0.1463  0.3088 -0.2550
  220MOL0     C29596   1.823   0.506  10.715 -0.3860  1.0225  0.4276
  220MOL0     C29597   1.741   0.510  10.826 -0.5981 -0.2884  0.0155
  220MOL0     C29598   1.791   0.557  10.944 -0.2820 -0.2149 -0.1596
  220MOL0     C29599   1.925   0.593  10.958 -1.5314 -0.4149  0.2174
  220MOL0     O29600   1.981   0.632  11.079 -0.3261 -0.0028 -0.5359
  220MOL0     C29601   1.922   0.743  11.147  0.5496 -0.0878  0.3431
  220MOL0     C29602   1.999   0.764  11.281  0.2048 -0.0527 -0.5056
  220MOL0     C29603   1.983   0.904  11.348 -0.0735 -0.0563  0.0991
  220MOL0     C29604   1.835   0.928  11.393 -0.2797  0.7420  0.9590
  220MOL0     C29605   1.811   1.061  11.462 -0.7945 -0.2463  0.6438
  220MOL0     C29606   1.817   1.191  11.370  0.2811  0.4510 -0.1100
  220MOL0     C29607   1.745   1.311  11.441  0.3427 -1.2141  0.1275
  220MOL0     C29608   1.751   1.439  11.356 -0.0582 -0.4996 -0.0087
  220MOL0    Cl29609   1.678   1.577  11.460 -0.1645 -0.0440  0.3985
  220MOL0     C29610   2.010   0.594  10.850  0.0653  0.3100  0.2696
  220MOL0     C29611   1.952   0.562  10.727 -0.0593 -0.6216 -0.3641
  220MOL0     O29612   1.606   0.325  10.649 -0.6580 -0.2700  0.2863
  220MOL0     C29613   1.564   0.239  10.391 -0.6842  1.1925  0.1208
  220MOL0     C29614   1.559   0.195  10.257 -0.1687  0.4940 -0.3457
  220MOL0     N29615   1.528   0.056   9.655 -0.1609  0.2828 -0.2121
  220MOL0     N29616   1.552   0.144   9.560  0.0863  0.6208 -0.3550
  220MOL0     C29617   0.991   0.118   8.485 -0.0328 -0.3254  0.6012
  220MOL0     C29618   0.881   0.132   8.392  0.3407 -0.0786  1.0259
  220MOL0     C29619   0.530   0.073   8.131 -1.2403  0.9413  0.7213
  220MOL0     C29620   0.417   0.104   8.201  0.3326 -0.3323 -0.2462
  220MOL0     C29621   0.287   0.070   8.151 -0.0470 -0.5419 -0.4462
  220MOL0     C29622   0.278  -0.002   8.038 -0.8478 -0.1236  1.5174
  220MOL0     O29623   0.158  -0.020   7.979 -0.1395  0.2203 -0.5596
  220MOL0     C29624   0.129   0.090   7.895 -0.2879 -0.2542  0.2306
  220MOL0     C29625  -0.010   0.083   7.829 -0.7510 -0.0958 -0.0825
  220MOL0     C29626  -0.115   0.049   7.936  0.0061 -0.4667 -0.6728
  220MOL0     C29627  -0.255   0.101   7.882  0.0485 -0.0247 -0.4105
  220MOL0     C29628  -0.262   0.246   7.863 -0.1079 -0.1021  0.3222
  220MOL0     C29629  -0.279   0.363   7.865  0.1007 -0.3296  0.7012
  220MOL0     C29630   0.391  -0.021   7.954 -0.5416 -0.1630  0.4627
  220MOL0     C29631   0.520   0.020   7.998  1.0505 -0.0875  1.1871
  220MOL0     C29632   0.625  -0.002   7.894 -0.2598 -0.0396  1.4675
  220MOL0     H29633   0.627   0.031   8.605  0.1361 -0.7105  0.2848
  220MOL0     H29634   0.809   0.016   8.749 -2.2329  0.7785 -0.7603
  220MOL0     H29635   1.165  -0.070   8.669  4.1724 -0.4267 -0.5736
  220MOL0     H29636   1.246   0.086   8.629  0.0053  0.5324 -0.3460
  220MOL0     H29637   1.273   0.139   8.869 -1.3863  0.8696 -0.7418
  220MOL0     H29638   1.373   0.010   8.807 -0.0036 -1.6541 -0.5812
  220MOL0     H29639   1.230  -0.173   8.902  0.2334 -0.1470  0.2972
  220MOL0     H29640   1.106  -0.048   8.944  0.7229  0.8674 -0.5671
  220MOL0     H29641   1.279  -0.142   9.135  1.4931  0.0805 -0.9911
  220MOL0     H29642   1.382  -0.047   9.047  0.1339 -2.4298 -2.1197
  220MOL0     H29643   1.195   0.156   9.074  3.6767 -0.7798 -1.6212
  220MOL0     H29644   1.116   0.053   9.193  0.3467 -0.3625  0.9477
  220MOL0     H29645   1.347   0.032   9.302  0.6707 -2.1312 -1.1427
  220MOL0     H29646   1.412   0.134   9.177  1.1359 -3.5346 -0.4670
  220MOL0     H29647   1.204   0.226   9.377  0.8257 -2.2384  0.8019
  220MOL0     H29648   1.278   0.326   9.239  0.2207  1.0644  0.0847
  220MOL0     H29649   1.495   0.304   9.351 -1.7171  2.2924 -2.7229
  220MOL0     H29650   1.376   0.375   9.468 -0.4384  0.0966 -0.5972
  220MOL0     H29651   1.229   0.131   9.570 -0.7837 -1.2728  0.7729
  220MOL0     H29652   1.238  -0.069   9.747 -0.0825  1.9265 -3.0071
  220MOL0     H29653   1.401  -0.121   9.816 -3.7052 -0.1317  4.8721
  220MOL0     H29654   1.225   0.117   9.885 -0.2957 -0.8016 -0.8386
  220MOL0     H29655   1.307  -0.010   9.995 -0.0566 -0.0896 -0.8124
  220MOL0     H29656   1.411   0.227  10.019  3.2331  1.1889  0.3033
  220MOL0     H29657   1.464   0.216   9.855  0.7966  0.2892 -0.0885
  220MOL0     H29658   1.605   0.008   9.914  1.3375 -0.1478  1.1012
  220MOL0     H29659   1.536   0.004  10.071 -0.4383 -0.7511 -1.5026
  220MOL0     H29660   1.815   0.337  10.115  0.2537 -0.8594 -0.0802
  220MOL0     H29661   1.861   0.402  10.363 -1.4551  0.1523 -0.7738
  220MOL0     H29662   1.636   0.483  10.820 -0.8280  0.7741 -0.9843
  220MOL0     H29663   1.727   0.564  11.031  2.1692 -0.4885  1.7837
  220MOL0     H29664   1.923   0.831  11.082 -0.4989 -1.0706 -1.0571
  220MOL0     H29665   1.814   0.732  11.160  0.2016  2.5543  0.2780
  220MOL0     H29666   1.986   0.679  11.349  1.7844  0.5745  0.6581
  220MOL0     H29667   2.105   0.781  11.261  0.3274  2.7320  1.7949
  220MOL0     H29668   2.055   0.905  11.431  0.0690 -1.9998  0.0601
  220MOL0     H29669   2.016   0.976  11.274 -0.1485  0.1239  0.2414
  220MOL0     H29670   1.801   0.843  11.453 -1.9090  1.8071  1.6079
  220MOL0     H29671   1.770   0.927  11.304 -1.1309  1.4454  1.5607
  220MOL0     H29672   1.886   1.081  11.538 -0.4793 -0.2570  0.3367
  220MOL0     H29673   1.714   1.064  11.513 -0.1689 -2.3242  2.0818
  220MOL0     H29674   1.923   1.216  11.361  0.2906  0.6886  0.5769
  220MOL0     H29675   1.779   1.168  11.270 -0.8421  0.7925  0.2214
  220MOL0     H29676   1.784   1.331  11.541  0.5153 -1.4020  0.0983
  220MOL0     H29677   1.637   1.312  11.459  0.4143  1.6549  0.9714
  220MOL0     H29678   1.849   1.478  11.325 -0.8220  1.3886 -0.2309
  220MOL0     H29679   1.693   1.440  11.264  0.7651  4.6951 -0.8112
  220MOL0     H29680   2.109   0.636  10.858  0.1789  0.0005  0.5278
  220MOL0     H29681   2.009   0.570  10.636 -1.6693  0.0669 -1.3636
  220MOL0     H29682   1.488   0.206  10.461  1.6560 -1.3866  1.6694
  220MOL0     H29683   1.479   0.125  10.234 -0.2780  0.5989 -0.2930
  220MOL0     H29684   1.090   0.147   8.453  1.1122 -3.4254  1.0006
  220MOL0     H29685   0.899   0.165   8.291  0.1209 -1.2672  0.5757
  220MOL0     H29686   0.409   0.154   8.297 -1.0330  2.6244 -1.7645
  220MOL0     H29687   0.201   0.091   8.213  1.1022 -2.4718  1.9791
  220MOL0     H29688   0.213   0.101   7.825  2.6037 -0.6807  3.3887
  220MOL0     H29689   0.142   0.186   7.946  2.7522  0.5976 -1.8645
  220MOL0     H29690  -0.002  -0.009   7.771  0.1557 -0.4236  0.5299
  220MOL0     H29691  -0.021   0.169   7.763  1.3089 -0.7199 -1.3172
  220MOL0     H29692  -0.097   0.103   8.029  1.2180 -0.3347 -0.9608
  220MOL0     H29693  -0.123  -0.059   7.947  1.6629 -0.5085  0.4959
  220MOL0     H29694  -0.273   0.043   7.791 -0.3417 -1.9441  0.8283
  220MOL0     H29695  -0.335   0.082   7.954 -2.4633  0.3057 -2.9174
  220MOL0     H29696  -0.294   0.469   7.862  0.0626 -0.3327  0.7845
  220MOL0     H29697   0.367  -0.072   7.861 -0.0504 -0.8866  0.7279
  220MOL0     H29698   0.598  -0.075   7.817  2.8088  1.2026 -0.9551
  220MOL0     H29699   0.660   0.090   7.848  2.7447 -2.6156 -2.0279
  220MOL0     H29700   0.721  -0.040   7.930  2.1768 -0.3325 -4.2442
  221MOL0     O29701   1.990   4.389   4.942 -0.0201  0.1565  0.4446
  221MOL0     C29702   1.906   4.404   5.029 -0.4571  0.1186 -0.6879
  221MOL0     O29703   1.932   4.413   5.165  0.1996  0.1376 -0.3122
  221MOL0     C29704   2.053   4.398   5.228 -0.1686 -0.8571  0.3683
  221MOL0     C29705   2.074   4.468   5.349  0.3005  0.0160 -0.0535
  221MOL0     C29706   2.196   4.455   5.416 -0.1873  0.0180 -0.5642
  221MOL0     C29707   2.297   4.373   5.365  0.8115  0.1312  0.3295
  221MOL0     O29708   2.423   4.361   5.428  0.3579  0.9553 -0.0748
  221MOL0     C29709   2.419   4.368   5.570 -0.3622 -0.0939 -0.3431
  221MOL0     C29710   2.536   4.300   5.629  0.0962  0.3956 -0.1066
  221MOL0     C29711   2.595   4.371   5.751 -0.3989  1.3924 -0.1490
  221MOL0     C29712   2.707   4.284   5.804  0.3727  0.2419  0.0241
  221MOL0     C29713   2.786   4.342   5.929  0.3611 -0.5122  0.2748
  221MOL0     C29714   2.867   4.459   5.881 -1.1520  0.1239 -0.1029
  221MOL0     C29715   2.984   4.427   5.788 -0.0804  0.3754  0.1335
  221MOL0     C29716   3.078   4.314   5.839 -0.6832 -0.0099  0.0028
  221MOL0     N29717   3.140   4.356   5.964  0.1236  0.2633  0.4879
  221MOL0     C29718   3.266   4.410   5.982  0.6482 -0.5520 -0.1061
  221MOL0     C29719   3.277   4.423   6.120 -0.1239  0.4128  0.1267
  221MOL0     C29720   3.395   4.483   6.194 -0.6633 -0.0413  0.6426
  221MOL0     C29721   3.422   4.391   6.314 -0.2627  0.0203 -0.2852
  221MOL0     C29722   3.531   4.421   6.411 -0.5923 -0.7326  0.2577
  221MOL0     C29723   3.674   4.431   6.345 -0.6321  0.8279 -0.4983
  221MOL0     O29724   3.706   4.308   6.273  0.1767 -0.0077  0.2705
  221MOL0     C29725   3.832   4.301   6.220  0.1758 -1.2436 -0.3328
  221MOL0     C29726   3.930   4.400   6.244  0.5718  1.2398  0.7288
  221MOL0     C29727   4.057   4.383   6.195  0.1194  0.1062  0.6125
  221MOL0     C29728   4.099   4.264   6.128  0.2687 -0.4801  0.4653
  221MOL0     C29729   4.238   4.256   6.079 -0.1757  0.4779 -0.1564
  221MOL0     O29730   4.315   4.369   6.079 -0.9619  0.4829  0.4717
  221MOL0     C29731   4.448   4.357   6.036  1.0055 -0.3832  0.3286
  221MOL0     C29732   4.559   4.415   6.108  1.0604  0.1688  0.5122
  221MOL0     C29733   4.692   4.396   6.052 -0.6113 -0.8185  0.3280
  221MOL0     C29734   4.724   4.343   5.925 -0.0161 -0.0875  0.4482
  221MOL0     O29735   4.851   4.342   5.871  0.1349 -0.3431  0.3160
  221MOL0     C29736   4.965   4.364   5.951 -0.4931  0.3736  0.1029
  221MOL0     C29737   5.072   4.373   5.844 -0.3717 -0.5827 -0.3308
  221MOL0     C29738   5.213   4.419   5.895  0.0079 -0.5251  0.0704
  221MOL0     C29739   5.316   4.387   5.791  0.2030 -0.1593  0.6608
  221MOL0     C29740   5.450   4.457   5.802  0.3624  0.2499  0.5074
  221MOL0     C29741   5.545   4.433   5.924  0.0125  0.6607  0.0515
  221MOL0     C29742   5.606   4.291   5.932 -0.5373 -1.1550 -0.3677
  221MOL0     C29743   5.716   4.288   6.039 -0.9364  1.0478 -0.8055
  221MOL0    Cl29744   5.651   4.188   6.176 -0.1929 -0.1212 -0.3770
  221MOL0     C29745   4.609   4.297   5.858  0.1382 -0.5751 -0.2581
  221MOL0     C29746   4.481   4.292   5.912  0.9234  0.4462  0.0799
  221MOL0     O29747   4.271   4.144   6.045  0.0978  1.0784 -0.5967
  221MOL0     C29748   4.004   4.157   6.109  0.1631  0.1784  0.5397
  221MOL0     C29749   3.878   4.182   6.160  0.1194  0.5062  0.4555
  221MOL0     N29750   3.158   4.378   6.177 -0.0339 -1.2354  0.7839
  221MOL0     N29751   3.075   4.331   6.086  0.0193  0.2030  0.8872
  221MOL0     C29752   2.285   4.317   5.239 -0.5010  0.4812  0.3030
  221MOL0     C29753   2.156   4.319   5.175 -0.2652 -1.3188 -0.0046
  221MOL0     C29754   1.771   4.421   4.990  0.3142  0.1308  0.5055
  221MOL0     C29755   1.697   4.520   5.054  0.6346  0.2507 -0.0031
  221MOL0     C29756   1.564   4.552   5.034 -0.2933  0.1466  0.3150
  221MOL0     C29757   1.494   4.481   4.935 -0.6457 -0.4627  0.3314
  221MOL0     O29758   1.359   4.492   4.901 -0.8845 -0.7896  0.5101
  221MOL0     C29759   1.284   4.598   4.968 -0.7948  0.0271  0.7234
  221MOL0     C29760   1.182   4.663   4.874  0.7308 -0.5412  0.4871
  221MOL0     C29761   1.032   4.639   4.898  0.3032 -0.1239 -0.4007
  221MOL0     C29762   0.988   4.515   4.829  0.8539  0.5810 -0.0887
  221MOL0     C29763   0.845   4.490   4.817 -0.8806  0.7989 -0.1929
  221MOL0     C29764   0.725   4.464   4.811 -0.0589  0.3051  0.4135
  221MOL0     C29765   1.566   4.375   4.867 -0.3376  0.0483 -0.2555
  221MOL0     C29766   1.700   4.346   4.889 -0.4916 -0.0544 -0.1538
  221MOL0     C29767   1.771   4.232   4.820 -0.7339  0.2362  0.3739
  221MOL0     H29768   1.995   4.536   5.379 -2.1399 -3.0246  0.9424
  221MOL0     H29769   2.212   4.511   5.507 -0.1174 -0.7682 -0.0833
  221MOL0     H29770   2.430   4.477   5.577  0.9454  0.0478 -3.1817
  221MOL0     H29771   2.331   4.334   5.624  0.4532 -0.9102  0.4913
  221MOL0     H29772   2.611   4.303   5.549  0.3774  0.5005  0.1561
  221MOL0     H29773   2.523   4.195   5.656  3.3400  0.0954  0.7934
  221MOL0     H29774   2.523   4.403   5.827 -2.4004  1.7536 -2.1131
  221MOL0     H29775   2.650   4.455   5.708  2.7106 -1.2338 -1.7264
  221MOL0     H29776   2.672   4.186   5.838 -0.2166  1.7019  4.2475
  221MOL0     H29777   2.781   4.262   5.727  1.4847  0.0863  1.1100
  221MOL0     H29778   2.724   4.373   6.013  1.5693 -0.8677  1.3273
  221MOL0     H29779   2.844   4.260   5.973 -3.7438 -2.9233  1.7322
  221MOL0     H29780   2.801   4.528   5.827  0.7697  0.4106 -2.2537
  221MOL0     H29781   2.909   4.493   5.976 -0.4830 -3.8982  1.2185
  221MOL0     H29782   3.044   4.516   5.765  1.5823 -1.0099 -1.1063
  221MOL0     H29783   2.964   4.381   5.690  0.9641 -2.4010  1.1444
  221MOL0     H29784   3.016   4.225   5.851  0.4650 -0.9882 -0.9981
  221MOL0     H29785   3.157   4.304   5.763 -1.1461 -1.0667 -0.3593
  221MOL0     H29786   3.336   4.434   5.902 -2.6793 -0.4902 -3.2717
  221MOL0     H29787   3.486   4.486   6.133 -0.7428  0.0382  0.5277
  221MOL0     H29788   3.379   4.587   6.222  3.2493  0.5201  1.3316
  221MOL0     H29789   3.328   4.378   6.368 -0.2487 -1.1449 -0.5170
  221MOL0     H29790   3.449   4.292   6.276 -3.2632 -0.9905 -0.0758
  221MOL0     H29791   3.541   4.344   6.488  1.2741 -0.3695  0.4224
  221MOL0     H29792   3.507   4.514   6.462  1.7326 -0.2130  0.5069
  221MOL0     H29793   3.747   4.442   6.426 -1.1036 -3.4376  0.8020
  221MOL0     H29794   3.680   4.512   6.273 -1.2063  1.1024 -0.2370
  221MOL0     H29795   3.905   4.491   6.297 -2.2350 -0.6047  2.8600
  221MOL0     H29796   4.132   4.456   6.221 -0.4255  0.3595  1.5318
  221MOL0     H29797   4.542   4.480   6.194 -0.5574 -0.6728  0.8850
  221MOL0     H29798   4.772   4.449   6.103 -1.1230 -0.0556  0.3605
  221MOL0     H29799   4.952   4.453   6.014 -1.4956 -1.0623  2.0336
  221MOL0     H29800   4.983   4.275   6.012 -1.6185 -2.4778 -3.3623
  221MOL0     H29801   5.084   4.269   5.814  0.6395 -0.4005 -0.5989
  221MOL0     H29802   5.031   4.446   5.775  0.1167  1.2629  1.2275
  221MOL0     H29803   5.214   4.526   5.920 -1.7765 -0.5307  0.2956
  221MOL0     H29804   5.234   4.375   5.993  1.7415 -0.8921 -0.4409
  221MOL0     H29805   5.280   4.423   5.694  3.2664 -1.9568 -1.3255
  221MOL0     H29806   5.341   4.281   5.797  2.7869  0.4661  2.7350
  221MOL0     H29807   5.437   4.565   5.789  1.3929  0.6315  2.3019
  221MOL0     H29808   5.514   4.425   5.720  0.5266 -1.3707  1.2348
  221MOL0     H29809   5.627   4.505   5.925 -1.2217  2.1149 -0.2640
  221MOL0     H29810   5.493   4.451   6.018  1.6273  1.7196  0.7881
  221MOL0     H29811   5.639   4.259   5.833  4.4413 -1.6988  1.1989
  221MOL0     H29812   5.519   4.229   5.955 -0.5528 -1.0019  0.0055
  221MOL0     H29813   5.809   4.243   6.005  0.0643  1.1639  1.6002
  221MOL0     H29814   5.745   4.386   6.079 -0.8779  0.0499  1.8224
  221MOL0     H29815   4.633   4.269   5.756 -0.6027 -0.9544 -0.3388
  221MOL0     H29816   4.397   4.252   5.856  0.7373  0.5441  0.2885
  221MOL0     H29817   4.027   4.063   6.059 -3.5517  0.0695 -1.2760
  221MOL0     H29818   3.799   4.109   6.142  1.3293 -0.5126 -0.9670
  221MOL0     H29819   2.372   4.262   5.206 -0.4776  1.0465 -0.6137
  221MOL0     H29820   2.128   4.270   5.082 -2.4482  0.2087 -0.2346
  221MOL0     H29821   1.749   4.574   5.131  1.3953  0.8609 -0.9225
  221MOL0     H29822   1.514   4.627   5.095 -0.5041 -1.3660  2.1097
  221MOL0     H29823   1.358   4.675   4.993 -0.7888 -0.0431  0.9201
  221MOL0     H29824   1.233   4.549   5.051 -2.4239 -2.9490 -1.8035
  221MOL0     H29825   1.215   4.630   4.774  1.8273  1.6557  0.0472
  221MOL0     H29826   1.197   4.771   4.880  1.6792 -0.4491 -2.0758
  221MOL0     H29827   0.961   4.710   4.856 -3.4042 -3.6368 -0.6745
  221MOL0     H29828   1.020   4.630   5.007 -0.7368  0.0887 -0.4867
  221MOL0     H29829   1.020   4.522   4.725  1.5802 -2.0630 -0.1215
  221MOL0     H29830   1.027   4.434   4.892  0.3656  2.3560  2.6594
  221MOL0     H29831   0.620   4.457   4.791  0.1983  1.8939 -1.8210
  221MOL0     H29832   1.519   4.313   4.791 -0.0521  0.1971 -0.5529
  221MOL0     H29833   1.697   4.170   4.768 -0.8350  1.1682 -0.6418
  221MOL0     H29834   1.843   4.272   4.748  0.3810  2.0725  2.4067
  221MOL0     H29835   1.828   4.169   4.889  0.4248 -1.5410 -2.0593
  222MOL0     O29836   3.828   4.207   8.817  1.1790  0.0454 -0.1842
  222MOL0     C29837   3.738   4.186   8.743  1.7082 -0.1305 -1.0584
  222MOL0     O29838   3.700   4.259   8.636  0.2866 -0.6043 -0.0961
  222MOL0     C29839   3.776   4.374   8.611 -1.2666  0.3374  0.4513
  222MOL0     C29840   3.894   4.366   8.532  0.8408  0.5959  0.4185
  222MOL0     C29841   3.962   4.492   8.497  0.1856 -0.3257 -0.1319
  222MOL0     C29842   3.925   4.613   8.565 -0.1139  0.2026  0.3864
  222MOL0     O29843   4.015   4.725   8.555  0.3833 -0.1244 -0.1534
  222MOL0     C29844   4.040   4.799   8.671 -0.0499 -0.6732  0.2845
  222MOL0     C29845   3.981   4.944   8.652  0.2186 -0.3440  0.2434
  222MOL0     C29846   3.987   5.034   8.768  0.2290  0.2051  0.5890
  222MOL0     C29847   3.924   5.175   8.732 -0.3281  1.7260  0.3136
  222MOL0     C29848   3.890   5.246   8.870 -0.6005 -0.7640  0.1900
  222MOL0     C29849   4.012   5.257   8.969  0.0573  1.0952  1.0326
  222MOL0     C29850   4.114   5.367   8.924 -1.1250 -0.1991 -0.1485
  222MOL0     C29851   4.240   5.390   9.020 -0.4468  0.9336 -0.9860
  222MOL0     N29852   4.308   5.517   9.001  0.0770 -0.0058 -0.1432
  222MOL0     C29853   4.434   5.549   9.051 -0.2030 -0.4900  0.9787
  222MOL0     C29854   4.472   5.668   8.993  0.4387 -0.0015 -0.9464
  222MOL0     C29855   4.603   5.750   9.001 -1.0740  0.0780  0.3109
  222MOL0     C29856   4.667   5.734   9.137  0.7877 -0.1739 -0.4455
  222MOL0     C29857   4.565   5.791   9.242 -1.1151  0.1347  0.1723
  222MOL0     C29858   4.543   5.947   9.238  0.1793  0.4104 -0.2928
  222MOL0     O29859   4.524   6.010   9.369 -0.1334  0.8868 -0.4954
  222MOL0     C29860   4.630   6.026   9.461  0.0298 -0.3453  0.1924
  222MOL0     C29861   4.629   5.971   9.583 -0.1906  0.1570 -0.2031
  222MOL0     C29862   4.726   6.004   9.677  0.1033 -0.4983  0.8149
  222MOL0     C29863   4.827   6.100   9.650 -0.3861  0.0871 -1.3287
  222MOL0     C29864   4.923   6.137   9.751 -0.0702  0.9767  0.7844
  222MOL0     O29865   4.946   6.052   9.853  0.3977  0.2836  0.0722
  222MOL0     C29866   5.038   6.097   9.939 -0.7916  0.0244  0.1330
  222MOL0     C29867   5.010   6.201  10.033 -0.3846 -0.0749  0.7950
  222MOL0     C29868   5.102   6.237  10.135 -0.5084  0.4412 -0.4237
  222MOL0     C29869   5.220   6.168  10.139  0.7289 -0.3935 -0.0639
  222MOL0     O29870   5.300   6.190  10.247  0.3978 -0.1808 -0.0805
  222MOL0     C29871   5.438   6.141  10.261 -0.5597 -0.4929 -0.0598
  222MOL0     C29872   5.529   6.234  10.184 -0.3635  0.4343 -0.6722
  222MOL0     C29873   5.667   6.183  10.163 -0.6002  0.2841 -0.2674
  222MOL0     C29874   5.752   6.305  10.109  0.6005 -0.6678 -0.1004
  222MOL0     C29875   5.909   6.298  10.088  0.0897 -0.1571  0.3785
  222MOL0     C29876   5.973   6.409   9.998 -0.4745  0.5871  0.2961
  222MOL0     C29877   5.927   6.553  10.013 -0.4060  0.0049  0.2736
  222MOL0     C29878   5.974   6.595  10.147 -0.0830 -0.2806  0.2904
  222MOL0    Cl29879   6.148   6.619  10.150 -0.3577  0.1135  0.0071
  222MOL0     C29880   5.257   6.078  10.036 -0.5582  0.4047 -0.6074
  222MOL0     C29881   5.167   6.047   9.937 -0.7367  0.8028 -0.1243
  222MOL0     O29882   4.979   6.240   9.731 -0.2883 -0.6200  0.1701
  222MOL0     C29883   4.827   6.165   9.526 -0.5323  0.6769  0.4260
  222MOL0     C29884   4.724   6.125   9.428 -0.1626  0.6717 -0.4802
  222MOL0     N29885   4.367   5.714   8.921  0.6112  1.1326  0.4101
  222MOL0     N29886   4.273   5.619   8.909 -0.1237 -0.3284 -0.2086
  222MOL0     C29887   3.822   4.604   8.658 -0.1813 -0.7352  0.3037
  222MOL0     C29888   3.747   4.495   8.672  0.4975  0.9346  0.7154
  222MOL0     C29889   3.658   4.059   8.763  0.0869  0.2569  0.1671
  222MOL0     C29890   3.564   4.030   8.658 -0.0367 -0.1349  0.1836
  222MOL0     C29891   3.484   3.918   8.669  0.6003  0.3125  0.0507
  222MOL0     C29892   3.494   3.818   8.769 -1.1392 -0.3254 -0.3669
  222MOL0     O29893   3.421   3.697   8.760 -0.2739 -0.1171  0.4693
  222MOL0     C29894   3.360   3.661   8.887  0.5782 -0.0166  0.5771
  222MOL0     C29895   3.200   3.674   8.874 -0.4092  0.2657 -0.6174
  222MOL0     C29896   3.172   3.811   8.876  0.8770 -0.8432 -0.8364
  222MOL0     C29897   3.018   3.852   8.906 -0.4538  0.3095  1.1343
  222MOL0     C29898   2.931   3.802   8.797  0.2994  1.3967  0.3501
  222MOL0     C29899   2.853   3.767   8.707  0.4472 -0.2948 -0.3835
  222MOL0     C29900   3.597   3.850   8.866 -0.1776 -0.2185 -0.9125
  222MOL0     C29901   3.676   3.969   8.870  0.2446  0.6934  0.2787
  222MOL0     C29902   3.785   3.982   8.970 -0.6314 -0.5235  0.6825
  222MOL0     H29903   3.917   4.263   8.507 -2.3655 -0.2452  0.5073
  222MOL0     H29904   4.037   4.494   8.419  2.8143 -1.1239  2.2410
  222MOL0     H29905   4.012   4.746   8.762 -1.6871 -4.4236 -2.1533
  222MOL0     H29906   4.148   4.808   8.686 -0.0222 -0.0368 -0.2250
  222MOL0     H29907   3.873   4.945   8.633  0.0636  6.0236 -0.5800
  222MOL0     H29908   4.029   4.987   8.563 -5.0550  1.6133 -2.0510
  222MOL0     H29909   4.090   5.050   8.800 -0.2346  2.8472  1.0253
  222MOL0     H29910   3.941   4.974   8.847  2.8055 -3.5034 -0.4444
  222MOL0     H29911   4.005   5.215   8.670  0.1769  1.1489  0.5814
  222MOL0     H29912   3.830   5.165   8.677 -0.8575  1.2610  1.2845
  222MOL0     H29913   3.853   5.348   8.857 -1.0623 -0.9278  0.1867
  222MOL0     H29914   3.806   5.188   8.911 -1.6281  1.5271  1.5586
  222MOL0     H29915   3.987   5.291   9.070  0.1807  2.6679  0.5566
  222MOL0     H29916   4.060   5.159   8.981 -0.0753  0.9566  0.4598
  222MOL0     H29917   4.058   5.461   8.923 -1.2051 -0.2271 -1.8192
  222MOL0     H29918   4.147   5.341   8.823 -0.2525  1.4675 -0.3148
  222MOL0     H29919   4.206   5.385   9.124  0.3592  0.1808 -0.7464
  222MOL0     H29920   4.316   5.312   9.012 -0.7997  0.4163  0.3713
  222MOL0     H29921   4.512   5.487   9.096 -0.1145 -0.8683  0.3121
  222MOL0     H29922   4.676   5.710   8.930 -1.5303 -1.0535  0.4546
  222MOL0     H29923   4.595   5.857   8.979  2.1033 -0.4348 -5.0570
  222MOL0     H29924   4.675   5.630   9.170  0.7164  0.6006  2.2618
  222MOL0     H29925   4.764   5.785   9.135  0.2463  0.9086 -0.2583
  222MOL0     H29926   4.598   5.764   9.343  1.0078  2.4796  0.1956
  222MOL0     H29927   4.468   5.741   9.234 -0.7065 -1.2047  2.6430
  222MOL0     H29928   4.462   5.988   9.177 -0.3978  0.0875  0.2541
  222MOL0     H29929   4.632   5.982   9.183 -0.9749 -1.1689 -3.3951
  222MOL0     H29930   4.565   5.888   9.614  1.7796 -1.2513  0.3247
  222MOL0     H29931   4.724   5.951   9.772  3.8366  1.5367  2.2488
  222MOL0     H29932   4.909   6.240  10.044 -0.3606  0.1857  0.1539
  222MOL0     H29933   5.091   6.318  10.206  1.2732  0.6706 -0.3518
  222MOL0     H29934   5.459   6.151  10.368 -1.0658  3.2225 -0.1516
  222MOL0     H29935   5.455   6.038  10.231 -0.0285 -0.6918  0.9018
  222MOL0     H29936   5.479   6.244  10.087  1.2409 -3.5014 -2.1210
  222MOL0     H29937   5.530   6.323  10.247 -0.5774  1.9254 -2.6976
  222MOL0     H29938   5.714   6.163  10.259 -0.8022  1.9593  0.2051
  222MOL0     H29939   5.683   6.100  10.093  1.7191  0.9097 -0.5866
  222MOL0     H29940   5.734   6.380  10.187 -2.8889  0.5251 -1.8335
  222MOL0     H29941   5.698   6.349  10.025 -0.6372  0.9100  1.4436
  222MOL0     H29942   5.935   6.203  10.041  0.1136  0.3652 -0.6986
  222MOL0     H29943   5.969   6.307  10.179  1.8154  0.0384 -0.7289
  222MOL0     H29944   6.082   6.416  10.000 -0.4497  0.3598 -0.1673
  222MOL0     H29945   5.932   6.385   9.899 -1.7838  0.5791  0.8105
  222MOL0     H29946   5.819   6.570  10.018 -0.0451  2.4081  1.0814
  222MOL0     H29947   5.968   6.614   9.932  0.8062 -1.0027  0.0922
  222MOL0     H29948   5.924   6.686  10.179  0.2524  0.0101  0.0016
  222MOL0     H29949   5.944   6.525  10.225  0.6618  1.2938  2.0678
  222MOL0     H29950   5.353   6.029  10.031  0.5596  2.5427 -1.1523
  222MOL0     H29951   5.206   5.999   9.848  0.0581  3.5364 -1.3607
  222MOL0     H29952   4.890   6.250   9.501 -3.0060  2.7469  0.8053
  222MOL0     H29953   4.708   6.193   9.344  1.0557  0.5579 -0.8377
  222MOL0     H29954   3.797   4.690   8.720 -0.7824 -1.4328  1.0452
  222MOL0     H29955   3.663   4.500   8.742 -0.1361  1.5126 -0.0646
  222MOL0     H29956   3.540   4.088   8.569 -0.0545  2.0491  1.5409
  222MOL0     H29957   3.416   3.904   8.586  0.0322 -0.6662  0.6653
  222MOL0     H29958   3.401   3.715   8.972  0.9778  0.8038 -0.1171
  222MOL0     H29959   3.375   3.555   8.909  2.7250  0.0216 -0.4678
  222MOL0     H29960   3.163   3.629   8.966  2.6583  3.0756  2.2938
  222MOL0     H29961   3.170   3.629   8.779  2.6727 -0.9664 -1.1199
  222MOL0     H29962   3.190   3.859   8.780 -1.3469 -1.9159 -1.8684
  222MOL0     H29963   3.232   3.853   8.958 -0.4467  0.2061 -0.3548
  222MOL0     H29964   2.981   3.822   9.005 -0.2612  3.3644  2.2397
  222MOL0     H29965   3.009   3.961   8.912 -1.4748  0.1781  2.8027
  222MOL0     H29966   2.780   3.736   8.634 -1.5092 -1.7943  2.0348
  222MOL0     H29967   3.614   3.779   8.946 -1.1254 -1.4102 -1.7386
  222MOL0     H29968   3.770   3.902   9.044  2.8332 -1.3034  0.6865
  222MOL0     H29969   3.880   3.956   8.924  0.1788  1.0813  1.3695
  222MOL0     H29970   3.790   4.076   9.025  2.5052  1.4455 -2.5885
  223MOL0     O29971   2.531   3.622   3.508  0.3574  0.7898 -1.1259
  223MOL0     C29972   2.503   3.695   3.602  0.0640 -0.6360  0.4240
  223MOL0     O29973   2.605   3.749   3.680  0.1041  0.1923 -0.9048
  223MOL0     C29974   2.730   3.707   3.651 -1.7237 -0.3486  1.1767
  223MOL0     C29975   2.771   3.575   3.667 -0.0248  0.9505 -0.1493
  223MOL0     C29976   2.891   3.518   3.626 -0.4633 -0.7644  0.3940
  223MOL0     C29977   2.976   3.610   3.562  0.5383 -0.8537  0.3985
  223MOL0     O29978   3.085   3.565   3.496  1.1865  0.4051 -0.8076
  223MOL0     C29979   3.202   3.552   3.578  0.5813  0.1670  0.2804
  223MOL0     C29980   3.327   3.584   3.508 -0.9076 -0.1048 -0.0937
  223MOL0     C29981   3.452   3.534   3.583  0.1103 -0.2642 -0.9636
  223MOL0     C29982   3.574   3.599   3.525 -0.0686  0.7369  0.1413
  223MOL0     C29983   3.702   3.598   3.615 -0.0380 -0.4295  0.4214
  223MOL0     C29984   3.732   3.456   3.676  0.2555  0.2567  0.3502
  223MOL0     C29985   3.847   3.460   3.770  0.1521 -0.6713 -0.9162
  223MOL0     C29986   3.898   3.319   3.803  0.4684  0.1391 -0.7986
  223MOL0     N29987   3.994   3.318   3.915  0.3959  0.4712 -0.2529
  223MOL0     C29988   3.983   3.235   4.023  0.1617 -0.4304  0.1301
  223MOL0     C29989   4.076   3.283   4.109  0.0487  0.1395 -0.0038
  223MOL0     C29990   4.086   3.228   4.250  0.1608  0.0090 -0.2782
  223MOL0     C29991   4.229   3.209   4.307  0.3786 -0.1279  0.7712
  223MOL0     C29992   4.221   3.144   4.449  0.6517 -0.7555 -0.3663
  223MOL0     C29993   4.339   3.059   4.494 -0.8930 -0.0457  0.3937
  223MOL0     O29994   4.452   3.150   4.497 -0.4302  0.4646 -0.6099
  223MOL0     C29995   4.574   3.108   4.552  0.2482  0.7972 -0.4448
  223MOL0     C29996   4.609   2.985   4.612  0.8063 -0.5411  0.2622
  223MOL0     C29997   4.733   2.967   4.663  0.2032  0.1301 -0.5892
  223MOL0     C29998   4.829   3.072   4.666  1.1538  0.1511  0.2476
  223MOL0     C29999   4.956   3.059   4.749  0.1559 -0.6294 -0.4045
  223MOL0     O30000   5.025   3.176   4.768  0.4588  0.5712 -0.7593
  223MOL0     C30001   5.156   3.157   4.807  0.5663  0.1069  0.3467
  223MOL0     C30002   5.191   3.127   4.940 -0.5887 -0.1972 -0.2310
  223MOL0     C30003   5.332   3.129   4.978  0.0641  0.2550  0.5806
  223MOL0     C30004   5.428   3.153   4.882 -0.0294 -0.7223 -0.0772
  223MOL0     O30005   5.558   3.173   4.916 -0.2836 -0.2889  0.4777
  223MOL0     C30006   5.609   3.177   5.047  0.1869  0.8796  0.0643
  223MOL0     C30007   5.743   3.224   5.048 -0.5901  0.3299 -0.5944
  223MOL0     C30008   5.753   3.374   4.995 -0.6767 -0.2106  0.0070
  223MOL0     C30009   5.880   3.457   5.024  1.2320  0.5380 -0.3333
  223MOL0     C30010   5.869   3.596   4.945 -0.1639 -0.1690 -0.3999
  223MOL0     C30011   5.997   3.673   4.932 -0.1619 -0.5712  0.5478
  223MOL0     C30012   5.992   3.812   4.864 -0.5114 -0.1685 -1.0683
  223MOL0     C30013   6.023   3.803   4.711  0.5377  0.0461  0.6065
  223MOL0    Cl30014   6.036   3.969   4.636 -0.3587  0.2403  0.7103
  223MOL0     C30015   5.391   3.169   4.752 -1.0029 -0.5879 -0.5407
  223MOL0     C30016   5.259   3.162   4.714  0.7091  0.5051  0.6174
  223MOL0     O30017   4.993   2.942   4.781 -0.7708  0.0425  0.3949
  223MOL0     C30018   4.798   3.198   4.610  0.3424 -0.1333  0.0916
  223MOL0     C30019   4.675   3.207   4.543 -0.3450 -0.0386 -0.3929
  223MOL0     N30020   4.147   3.387   4.057  0.6924  1.5921  0.6669
  223MOL0     N30021   4.094   3.411   3.940 -0.2261  0.2401  0.1780
  223MOL0     C30022   2.938   3.745   3.543 -0.6112 -0.4992  0.2749
  223MOL0     C30023   2.817   3.796   3.587 -0.4032  0.3928  0.0688
  223MOL0     C30024   2.368   3.728   3.631 -0.0172 -0.0546 -0.1843
  223MOL0     C30025   2.271   3.659   3.556  0.0270  0.9927  0.0039
  223MOL0     C30026   2.139   3.683   3.567 -0.5114  0.4323 -0.0294
  223MOL0     C30027   2.090   3.785   3.649 -0.3776  0.1419  0.8215
  223MOL0     O30028   1.956   3.802   3.639 -0.5725 -0.5882  0.5022
  223MOL0     C30029   1.886   3.875   3.745  0.4768  0.4684 -0.0223
  223MOL0     C30030   1.760   3.793   3.774 -0.4951 -0.7299  0.2422
  223MOL0     C30031   1.683   3.844   3.888  1.5032  0.3161  0.1193
  223MOL0     C30032   1.554   3.912   3.835  0.1450  0.3881  1.6210
  223MOL0     C30033   1.445   3.813   3.811 -0.9217  0.3262 -1.0926
  223MOL0     C30034   1.362   3.721   3.802 -0.6329  0.9503  0.1434
  223MOL0     C30035   2.185   3.858   3.722 -0.3202 -1.0182 -0.3054
  223MOL0     C30036   2.324   3.831   3.718 -0.2374 -1.0140 -1.0035
  223MOL0     C30037   2.401   3.913   3.815 -0.4222 -0.1772 -0.0876
  223MOL0     H30038   2.694   3.512   3.712  1.4734 -1.2870 -0.5872
  223MOL0     H30039   2.928   3.417   3.639  2.7423  0.1693 -0.4866
  223MOL0     H30040   3.197   3.633   3.652  0.6821  1.3452 -0.9695
  223MOL0     H30041   3.215   3.455   3.627 -1.9411  0.9824  2.8484
  223MOL0     H30042   3.331   3.692   3.488 -1.3432 -0.7542 -5.0723
  223MOL0     H30043   3.329   3.529   3.413 -1.0696 -1.9798  0.9443
  223MOL0     H30044   3.469   3.426   3.574 -0.5800 -0.3900 -0.7943
  223MOL0     H30045   3.451   3.556   3.690  2.7941  0.0415 -0.9315
  223MOL0     H30046   3.612   3.550   3.435  1.4921  1.1170  0.5748
  223MOL0     H30047   3.564   3.706   3.506  2.3127  0.5493 -3.2136
  223MOL0     H30048   3.785   3.632   3.554 -0.1527  0.8779  0.9602
  223MOL0     H30049   3.678   3.670   3.694  1.0794 -0.5158  0.8548
  223MOL0     H30050   3.652   3.409   3.734  1.6779 -2.6509  0.1457
  223MOL0     H30051   3.747   3.390   3.590 -0.2555  1.9025 -1.0696
  223MOL0     H30052   3.825   3.518   3.860  0.3352 -1.0079 -0.6500
  223MOL0     H30053   3.931   3.515   3.727  1.4808 -2.5538 -0.8643
  223MOL0     H30054   3.809   3.257   3.820  0.0279  0.8383 -0.4788
  223MOL0     H30055   3.947   3.281   3.714 -1.2361 -0.4033 -1.5412
  223MOL0     H30056   3.903   3.162   4.029 -1.1619  0.9228 -0.4021
  223MOL0     H30057   4.049   3.303   4.320  0.8003  3.5146 -3.3839
  223MOL0     H30058   4.030   3.134   4.258  0.3597 -0.2674 -1.8034
  223MOL0     H30059   4.273   3.130   4.245 -1.5001 -1.2260  0.7605
  223MOL0     H30060   4.293   3.297   4.298  0.1413 -0.1165 -1.4616
  223MOL0     H30061   4.126   3.091   4.456  1.8652 -2.9312  0.6908
  223MOL0     H30062   4.213   3.232   4.514  2.5932 -0.8956  0.1280
  223MOL0     H30063   4.357   2.976   4.424 -1.7930 -0.7520  0.9827
  223MOL0     H30064   4.308   3.026   4.593 -3.4112  5.4707  1.7968
  223MOL0     H30065   4.532   2.911   4.629 -0.4396  0.2920 -1.4677
  223MOL0     H30066   4.755   2.871   4.707  0.1085  0.3119 -0.1461
  223MOL0     H30067   5.115   3.093   5.010  0.2413 -2.1065 -0.2011
  223MOL0     H30068   5.362   3.116   5.082  3.1272  3.1975  0.2325
  223MOL0     H30069   5.549   3.241   5.112 -1.4711 -1.7557  1.3080
  223MOL0     H30070   5.605   3.076   5.090 -1.1821  1.5842  1.7044
  223MOL0     H30071   5.773   3.230   5.153 -0.9053  3.1037 -0.5960
  223MOL0     H30072   5.811   3.160   4.990  0.6148  1.0720 -0.0546
  223MOL0     H30073   5.729   3.350   4.891 -1.9008 -0.8889  0.4166
  223MOL0     H30074   5.669   3.424   5.043  0.3847  1.7080 -0.0446
  223MOL0     H30075   5.972   3.405   4.997  0.1413 -1.7924  0.1658
  223MOL0     H30076   5.878   3.459   5.133  1.8082 -1.0591 -0.2786
  223MOL0     H30077   5.794   3.657   4.996 -0.2695  0.4656 -1.2889
  223MOL0     H30078   5.814   3.592   4.850 -0.0654  1.0889 -0.5278
  223MOL0     H30079   6.038   3.685   5.033 -2.3767 -3.4361  1.9201
  223MOL0     H30080   6.067   3.608   4.879  1.0258  2.1838 -1.5285
  223MOL0     H30081   6.067   3.876   4.910 -3.0061  1.8821  0.4153
  223MOL0     H30082   5.893   3.854   4.882 -1.8555 -4.2575  2.9173
  223MOL0     H30083   6.107   3.739   4.685 -1.1513 -1.7645 -0.7562
  223MOL0     H30084   5.945   3.745   4.660  1.3732 -0.4413 -0.1325
  223MOL0     H30085   5.462   3.193   4.674  1.5508 -1.9336  1.2346
  223MOL0     H30086   5.247   3.183   4.609  3.3591  0.5688  0.2498
  223MOL0     H30087   4.862   3.285   4.604  0.4416 -0.2775 -1.0842
  223MOL0     H30088   4.649   3.296   4.487  0.2740  0.8168  0.6357
  223MOL0     H30089   3.006   3.790   3.472 -1.8930  0.5989 -0.2974
  223MOL0     H30090   2.803   3.901   3.562  3.5944  1.1452  0.3913
  223MOL0     H30091   2.302   3.581   3.487 -0.8111 -0.7624  1.5431
  223MOL0     H30092   2.081   3.623   3.498 -2.0285 -0.3343  1.8224
  223MOL0     H30093   1.856   3.976   3.716 -0.5788  0.0942 -0.2909
  223MOL0     H30094   1.940   3.881   3.839 -0.8864 -0.2499  0.8379
  223MOL0     H30095   1.804   3.695   3.794 -0.4250 -0.5929  0.7783
  223MOL0     H30096   1.697   3.780   3.685  1.3630  2.0141 -1.6443
  223MOL0     H30097   1.744   3.910   3.951  0.3657  1.7246 -0.2000
  223MOL0     H30098   1.640   3.762   3.945  0.6732 -0.7184 -1.8865
  223MOL0     H30099   1.520   3.984   3.910 -1.7531  1.2754 -0.0022
  223MOL0     H30100   1.572   3.958   3.738  0.9920 -0.5812  1.3014
  223MOL0     H30101   1.280   3.656   3.782 -0.4512  1.8184 -4.4115
  223MOL0     H30102   2.157   3.943   3.784  1.7367 -1.0971  0.7978
  223MOL0     H30103   2.346   3.998   3.855 -1.8110 -1.1433  0.1488
  223MOL0     H30104   2.436   3.857   3.902 -2.5984 -2.3415 -0.4678
  223MOL0     H30105   2.485   3.955   3.760  0.4593  0.8586  1.9595
  224MOL0     O30106   3.907   6.254  10.158 -0.6246  0.1705 -0.5631
  224MOL0     C30107   3.970   6.283  10.060 -0.2923 -0.3392 -0.2025
  224MOL0     O30108   3.989   6.195   9.954  0.6763  0.0725  0.1608
  224MOL0     C30109   3.925   6.069   9.940 -0.0910 -0.4930  0.6372
  224MOL0     C30110   3.810   6.006  10.009  0.1686 -0.5563  0.3690
  224MOL0     C30111   3.776   5.871   9.981 -0.5393 -0.2900 -0.3146
  224MOL0     C30112   3.836   5.801   9.880  0.2910  0.0239  0.0569
  224MOL0     O30113   3.810   5.667   9.850 -0.0738 -0.6566 -0.0213
  224MOL0     C30114   3.675   5.624   9.861 -0.5291  1.3414  0.1360
  224MOL0     C30115   3.624   5.584   9.725  0.3544 -0.2412  0.4023
  224MOL0     C30116   3.552   5.694   9.639 -0.4233  0.7734 -0.2189
  224MOL0     C30117   3.534   5.662   9.495  0.2804 -0.1449  0.0237
  224MOL0     C30118   3.538   5.789   9.409  1.1441 -1.2625  0.2603
  224MOL0     C30119   3.411   5.870   9.432  0.7529  0.8204 -0.3218
  224MOL0     C30120   3.400   5.988   9.340 -0.0543  0.5766 -0.3703
  224MOL0     C30121   3.368   5.967   9.193  0.0079 -0.3213 -0.3656
  224MOL0     N30122   3.493   6.002   9.113  0.1368 -0.0400 -0.8500
  224MOL0     C30123   3.565   6.114   9.118 -0.5731 -0.4981 -0.4660
  224MOL0     C30124   3.677   6.095   9.035 -0.1562 -0.0059 -0.8555
  224MOL0     C30125   3.790   6.193   9.011  0.1350 -0.3258 -0.3970
  224MOL0     C30126   3.734   6.333   8.996 -0.5974  0.1183  0.3255
  224MOL0     C30127   3.829   6.433   8.924 -0.2826  0.2859  0.4086
  224MOL0     C30128   3.961   6.454   8.996 -0.1499  0.3337  0.2098
  224MOL0     O30129   3.933   6.485   9.133  0.0669  0.1332  0.2279
  224MOL0     C30130   3.927   6.614   9.174  0.5495 -0.0627  0.2172
  224MOL0     C30131   3.968   6.723   9.097  0.5534 -0.0371 -0.7243
  224MOL0     C30132   3.981   6.853   9.149  0.2536  0.4854  0.3779
  224MOL0     C30133   3.935   6.882   9.269  0.3209  0.5166 -0.8229
  224MOL0     C30134   3.925   7.025   9.316 -0.0252 -0.0095  0.8169
  224MOL0     O30135   3.855   7.043   9.433  0.1590  0.5758 -0.4073
  224MOL0     C30136   3.886   7.165   9.504  0.6589  0.0264 -0.1866
  224MOL0     C30137   3.836   7.280   9.456  1.2464 -0.0568  0.6112
  224MOL0     C30138   3.864   7.399   9.518 -0.2074 -1.2623  0.6095
  224MOL0     C30139   3.926   7.405   9.631  0.5654 -0.0242 -0.8892
  224MOL0     O30140   3.953   7.518   9.691  0.7576 -1.1197 -0.0536
  224MOL0     C30141   4.003   7.523   9.825 -0.2112  0.2977  0.4504
  224MOL0     C30142   4.060   7.663   9.858 -0.0701  0.0884  0.0233
  224MOL0     C30143   4.166   7.676   9.966 -0.5258  0.1854  0.0668
  224MOL0     C30144   4.112   7.712  10.103 -0.4106  0.0334  0.2116
  224MOL0     C30145   4.219   7.757  10.195  0.7030 -0.3560 -0.7120
  224MOL0     C30146   4.151   7.830  10.312  0.2339 -0.2438 -0.9740
  224MOL0     C30147   4.263   7.880  10.408 -0.0389  0.6589  0.8543
  224MOL0     C30148   4.219   7.873  10.563  0.3548  0.2733  0.8271
  224MOL0    Cl30149   4.073   7.978  10.608 -0.1452 -0.2009  0.2173
  224MOL0     C30150   3.965   7.283   9.691 -1.3100  0.9819  0.5387
  224MOL0     C30151   3.948   7.161   9.623  0.3190  0.4982  0.0600
  224MOL0     O30152   3.997   7.108   9.264 -0.2594 -0.0401  0.3620
  224MOL0     C30153   3.886   6.770   9.345  0.0030  0.3462 -0.3904
  224MOL0     C30154   3.877   6.641   9.300  1.4673  0.3406  0.5332
  224MOL0     N30155   3.673   5.962   8.994  1.0783  0.5460 -0.1885
  224MOL0     N30156   3.566   5.911   9.045 -0.1608  0.5558 -0.1451
  224MOL0     C30157   3.951   5.855   9.824 -0.1181  0.0082  0.2569
  224MOL0     C30158   4.002   5.981   9.852  0.4535  0.5421  0.4683
  224MOL0     C30159   4.043   6.406  10.053  0.3837 -0.0857 -0.4314
  224MOL0     C30160   4.140   6.423   9.962  0.2736 -0.3489  0.7659
  224MOL0     C30161   4.221   6.538   9.941 -0.2642  0.0426 -0.6295
  224MOL0     C30162   4.199   6.652  10.032  0.4730  0.0093 -0.1738
  224MOL0     O30163   4.276   6.761  10.013 -0.6151 -0.1945  0.2840
  224MOL0     C30164   4.195   6.884  10.002  0.2303  0.1804 -0.5186
  224MOL0     C30165   4.278   6.984   9.918 -0.1605 -0.3823 -1.6923
  224MOL0     C30166   4.413   7.019   9.993  0.4963 -0.9442 -0.2452
  224MOL0     C30167   4.480   7.127   9.908 -0.9507 -0.3191  0.2289
  224MOL0     C30168   4.623   7.139   9.953  0.6612 -0.1705 -0.1057
  224MOL0     C30169   4.734   7.159   9.990  0.2011  0.8995  1.2359
  224MOL0     C30170   4.100   6.640  10.125 -0.1631  0.1823  0.6368
  224MOL0     C30171   4.024   6.515  10.143 -0.2870 -0.8837 -0.4863
  224MOL0     C30172   3.929   6.535  10.259  1.1511  0.2669 -0.5542
  224MOL0     H30173   3.758   6.060  10.087  1.7840 -0.1083  1.1777
  224MOL0     H30174   3.711   5.822  10.051  2.4665 -0.8782  2.2967
  224MOL0     H30175   3.665   5.545   9.935 -2.0904  2.0550  0.7184
  224MOL0     H30176   3.605   5.703   9.891 -0.0681  2.4728 -1.5743
  224MOL0     H30177   3.549   5.507   9.745  0.7444 -0.8425 -0.3610
  224MOL0     H30178   3.704   5.540   9.663 -0.0286  1.3104 -1.2732
  224MOL0     H30179   3.610   5.787   9.637  2.1349 -0.6727  0.7927
  224MOL0     H30180   3.458   5.717   9.688 -0.1523 -0.3770  0.9055
  224MOL0     H30181   3.624   5.608   9.465  0.7493  0.5768  0.0894
  224MOL0     H30182   3.463   5.582   9.473  2.2420 -2.7037  2.2759
  224MOL0     H30183   3.626   5.852   9.425  0.8256 -0.9433  0.7672
  224MOL0     H30184   3.543   5.756   9.304  0.2913 -1.9164  0.4204
  224MOL0     H30185   3.322   5.808   9.417  2.4302 -2.0001  0.7274
  224MOL0     H30186   3.403   5.895   9.538 -1.7063 -2.7838  0.5347
  224MOL0     H30187   3.488   6.051   9.354 -0.0499  1.3329 -3.1821
  224MOL0     H30188   3.318   6.049   9.379  1.5244  0.7169  3.1135
  224MOL0     H30189   3.343   5.864   9.168  2.0655 -1.4702  1.9176
  224MOL0     H30190   3.281   6.025   9.161 -0.8706 -1.0620  0.6601
  224MOL0     H30191   3.546   6.208   9.168 -0.4450 -1.0758  0.7013
  224MOL0     H30192   3.855   6.190   9.098 -1.3724  1.2035  0.8443
  224MOL0     H30193   3.855   6.160   8.929 -0.2242  2.5147 -1.9649
  224MOL0     H30194   3.643   6.329   8.935  0.2200  0.3105 -0.9470
  224MOL0     H30195   3.721   6.375   9.096  3.6020 -1.5335  1.7567
  224MOL0     H30196   3.769   6.524   8.932  0.8300  1.1857 -0.9937
  224MOL0     H30197   3.831   6.411   8.816  5.1511  0.2146  0.2127
  224MOL0     H30198   4.021   6.526   8.939 -2.6836 -0.8565 -4.4327
  224MOL0     H30199   4.018   6.361   9.009 -0.8686  0.0162  1.2522
  224MOL0     H30200   4.017   6.719   9.001 -0.2696  0.5646 -1.1788
  224MOL0     H30201   4.030   6.928   9.087  0.9750  0.7908  1.2955
  224MOL0     H30202   3.781   7.285   9.363  0.7205  0.4995  0.9507
  224MOL0     H30203   3.848   7.492   9.464 -1.0449 -1.8147 -0.1241
  224MOL0     H30204   3.923   7.485   9.890 -1.0921 -1.9073 -1.7566
  224MOL0     H30205   4.089   7.458   9.844  0.5876  0.7410 -1.4904
  224MOL0     H30206   4.116   7.688   9.767  2.3164 -1.6177  0.9171
  224MOL0     H30207   3.974   7.726   9.883 -0.2135 -0.5489  1.1850
  224MOL0     H30208   4.212   7.578   9.984 -1.1278 -0.5238 -2.0120
  224MOL0     H30209   4.241   7.753   9.948 -1.0021  0.7217  0.3379
  224MOL0     H30210   4.063   7.625  10.147  1.1019 -1.5685 -1.0979
  224MOL0     H30211   4.034   7.785  10.082 -0.9437 -1.2326 -2.5942
  224MOL0     H30212   4.278   7.829  10.139 -1.3131 -0.5145 -3.2616
  224MOL0     H30213   4.271   7.663  10.218  3.6005  0.2676 -3.8517
  224MOL0     H30214   4.106   7.923  10.278  1.1425  1.8970  3.1257
  224MOL0     H30215   4.083   7.757  10.356  1.2418 -1.0406 -0.6899
  224MOL0     H30216   4.291   7.979  10.370 -1.7678 -0.4366 -3.9808
  224MOL0     H30217   4.355   7.821  10.399  0.0725  0.4705  2.8423
  224MOL0     H30218   4.207   7.772  10.604 -0.8657 -0.9980 -2.3503
  224MOL0     H30219   4.315   7.905  10.604  0.6938  3.9807 -2.3222
  224MOL0     H30220   4.009   7.283   9.791 -1.9604  0.2526  0.8262
  224MOL0     H30221   3.998   7.067   9.643  3.8606  1.8633 -1.4985
  224MOL0     H30222   3.842   6.798   9.440  1.6813 -0.4759  0.6820
  224MOL0     H30223   3.818   6.563   9.348  1.3708 -0.0252 -0.1786
  224MOL0     H30224   4.004   5.799   9.747  1.2261  1.5604 -0.0059
  224MOL0     H30225   4.101   6.010   9.817  1.7320 -0.9266  2.6102
  224MOL0     H30226   4.161   6.338   9.897 -2.4610 -0.0009 -0.7211
  224MOL0     H30227   4.304   6.535   9.871  0.2545  0.2991 -0.0319
  224MOL0     H30228   4.178   6.923  10.103  2.2081 -1.2682  0.4583
  224MOL0     H30229   4.106   6.868   9.941  1.2840  2.0446 -2.7110
  224MOL0     H30230   4.214   7.072   9.912  0.1237 -0.1586 -1.4088
  224MOL0     H30231   4.283   6.943   9.816  1.2665 -0.4944 -1.5870
  224MOL0     H30232   4.468   6.924   9.993  0.3499 -1.0296 -0.4375
  224MOL0     H30233   4.406   7.059  10.094  3.0648  3.1278 -1.4225
  224MOL0     H30234   4.474   7.102   9.801  0.5244 -2.2989  0.5621
  224MOL0     H30235   4.433   7.225   9.903 -0.6038 -0.1858 -0.5977
  224MOL0     H30236   4.826   7.195  10.033  1.2102  2.1434 -1.6757
  224MOL0     H30237   4.075   6.725  10.188 -1.1662 -1.2347  2.2255
  224MOL0     H30238   3.948   6.626  10.316 -2.3921  1.9592 -1.8083
  224MOL0     H30239   3.825   6.537  10.226  1.2414  1.9697 -0.8295
  224MOL0     H30240   3.947   6.450  10.325  1.4491  1.0160  0.3489
  225MOL0     O30241   6.166   8.577  10.555 -0.5348  0.1990  0.3264
  225MOL0     C30242   6.118   8.667  10.487  0.2512  0.3686 -1.4588
  225MOL0     O30243   6.018   8.652  10.387  0.0947 -0.3124 -0.0941
  225MOL0     C30244   5.958   8.531  10.363 -0.9700 -0.3802 -0.4360
  225MOL0     C30245   5.868   8.480  10.464  0.3291  0.5111  0.5239
  225MOL0     C30246   5.801   8.362  10.446 -0.0746  0.3149  0.0095
  225MOL0     C30247   5.809   8.301  10.316 -0.4402 -0.0424  0.5457
  225MOL0     O30248   5.737   8.188  10.278  0.5016  0.9518 -0.7529
  225MOL0     C30249   5.668   8.109  10.372 -0.4984 -0.3482 -0.6422
  225MOL0     C30250   5.628   7.980  10.298 -0.3063 -0.3561 -0.7733
  225MOL0     C30251   5.551   7.878  10.379 -0.4159 -0.5934  0.9989
  225MOL0     C30252   5.520   7.768  10.271 -0.4180  0.2919  0.6911
  225MOL0     C30253   5.435   7.653  10.321  0.4729 -0.7199 -0.5104
  225MOL0     C30254   5.514   7.561  10.426 -0.3439 -0.1945  0.0202
  225MOL0     C30255   5.502   7.409  10.388  0.2851  0.1154  0.7092
  225MOL0     C30256   5.560   7.310  10.493  1.1181  0.5179  0.1884
  225MOL0     N30257   5.702   7.321  10.497  0.4000  0.4824  0.3676
  225MOL0     C30258   5.798   7.263  10.415 -0.2529 -0.1186 -0.1531
  225MOL0     C30259   5.918   7.304  10.465  0.6021  1.0217  0.5229
  225MOL0     C30260   6.051   7.325  10.404  0.3175 -0.0708 -0.2280
  225MOL0     C30261   6.080   7.225  10.291 -0.0803  0.8227  0.0651
  225MOL0     C30262   6.197   7.264  10.195 -0.2505 -0.2852  0.1001
  225MOL0     C30263   6.327   7.241  10.267 -0.5565 -0.6824  0.0991
  225MOL0     O30264   6.349   7.102  10.257  0.3663 -0.3552  0.2249
  225MOL0     C30265   6.456   7.045  10.318 -0.6041 -0.4071 -0.7006
  225MOL0     C30266   6.540   7.117  10.412  0.6025 -0.2087 -0.1001
  225MOL0     C30267   6.652   7.050  10.464 -0.1480 -0.0623  0.5757
  225MOL0     C30268   6.688   6.918  10.417  0.7060  0.7610  0.7833
  225MOL0     C30269   6.816   6.860  10.461  0.3879 -0.5928  0.7074
  225MOL0     O30270   6.877   6.927  10.556  0.1421 -0.4669  0.0786
  225MOL0     C30271   6.991   6.883  10.618  0.4482 -0.4924  1.0221
  225MOL0     C30272   7.105   6.848  10.553  0.0519  1.0217  0.0049
  225MOL0     C30273   7.216   6.816  10.623 -0.3125 -0.6093  0.3646
  225MOL0     C30274   7.226   6.822  10.763 -0.2806 -1.0069  0.1348
  225MOL0     O30275   7.333   6.793  10.836  0.0899  0.1583  0.3981
  225MOL0     C30276   7.334   6.657  10.873  0.7576  0.2835  0.3646
  225MOL0     C30277   7.465   6.580  10.822  0.7488 -0.7900 -0.6054
  225MOL0     C30278   7.452   6.432  10.841 -0.2798  1.2623  0.6843
  225MOL0     C30279   7.580   6.371  10.794  0.1991  0.6228  0.5853
  225MOL0     C30280   7.580   6.216  10.806 -0.0543 -0.8990 -0.5929
  225MOL0     C30281   7.720   6.151  10.778 -0.2264 -0.1455 -0.1482
  225MOL0     C30282   7.805   6.201  10.652 -0.7207 -0.6174  0.4493
  225MOL0     C30283   7.934   6.127  10.642  0.6530  0.0491  0.1876
  225MOL0    Cl30284   7.888   5.981  10.566 -0.3495  0.4194  0.5119
  225MOL0     C30285   7.113   6.885  10.826 -0.4574  0.0921 -0.3211
  225MOL0     C30286   6.998   6.922  10.749  0.8130 -0.0910 -0.9321
  225MOL0     O30287   6.856   6.760  10.408  0.0293 -0.5059  0.1236
  225MOL0     C30288   6.603   6.852  10.322 -0.6238 -0.0993  0.2500
  225MOL0     C30289   6.488   6.918  10.274 -0.0612  0.6891 -0.5479
  225MOL0     N30290   5.890   7.361  10.586 -0.8055 -0.1886 -1.5627
  225MOL0     N30291   5.762   7.377  10.604  0.6540 -0.9494  0.0698
  225MOL0     C30292   5.894   8.359  10.219  0.2748  0.2536 -0.0495
  225MOL0     C30293   5.970   8.469  10.241 -0.5154 -0.1204  0.1954
  225MOL0     C30294   6.182   8.800  10.490  0.3214  0.2685  0.6994
  225MOL0     C30295   6.185   8.868  10.363  0.2767 -0.0671 -0.3302
  225MOL0     C30296   6.255   8.987  10.345 -0.1503  1.0966 -0.0670
  225MOL0     C30297   6.316   9.055  10.460 -0.6033  0.2916  0.3813
  225MOL0     O30298   6.385   9.181  10.443  0.3456 -0.4658  0.5488
  225MOL0     C30299   6.415   9.227  10.311 -0.2970  1.1680 -0.4531
  225MOL0     C30300   6.559   9.295  10.310 -1.0265  0.4947  0.1718
  225MOL0     C30301   6.554   9.414  10.397  0.2870 -0.7100 -0.0290
  225MOL0     C30302   6.696   9.474  10.438  0.1028  0.4472  0.5649
  225MOL0     C30303   6.698   9.580  10.541 -0.4798 -0.8390 -0.0124
  225MOL0     C30304   6.722   9.670  10.625 -0.6404 -0.4049 -0.1704
  225MOL0     C30305   6.303   8.997  10.584  0.1398 -0.3305 -0.0024
  225MOL0     C30306   6.235   8.873  10.605 -0.7523  1.0889 -0.1223
  225MOL0     C30307   6.224   8.816  10.734  1.2453  0.6442 -1.0747
  225MOL0     H30308   5.872   8.544  10.552  2.7440  0.8918  0.2125
  225MOL0     H30309   5.733   8.325  10.522 -2.1953 -0.0174 -1.9431
  225MOL0     H30310   5.738   8.082  10.453  0.7522  1.1081 -1.1923
  225MOL0     H30311   5.588   8.177  10.403 -0.9081  0.4123 -3.1737
  225MOL0     H30312   5.720   7.937  10.257  1.1909  2.5825 -0.7496
  225MOL0     H30313   5.566   8.020  10.217 -0.7333  1.7669  0.5214
  225MOL0     H30314   5.459   7.919  10.421 -0.6005 -0.9536  0.9532
  225MOL0     H30315   5.592   7.849  10.476 -0.9604  0.1010  1.4371
  225MOL0     H30316   5.468   7.813  10.186 -0.9786  0.6562  1.2206
  225MOL0     H30317   5.618   7.731  10.240 -0.9730  0.1864 -1.0351
  225MOL0     H30318   5.344   7.684  10.373 -1.7784 -3.2750 -2.6317
  225MOL0     H30319   5.400   7.587  10.242  0.0941 -0.7687 -0.3072
  225MOL0     H30320   5.619   7.591  10.424  0.1541 -1.8543 -0.5616
  225MOL0     H30321   5.473   7.569  10.527  0.2327 -1.6164  0.4004
  225MOL0     H30322   5.538   7.385  10.288  0.3149  1.7285  0.3088
  225MOL0     H30323   5.396   7.383  10.388 -0.5110  2.6793 -2.6910
  225MOL0     H30324   5.520   7.337  10.591  0.7575 -2.0522  0.8044
  225MOL0     H30325   5.526   7.208  10.474  2.7206 -0.2262  1.1356
  225MOL0     H30326   5.773   7.211  10.323 -2.5033 -3.5945  2.1940
  225MOL0     H30327   6.048   7.424  10.359 -1.1669 -0.2649 -0.6113
  225MOL0     H30328   6.128   7.336  10.482  0.9089  3.0976 -1.1500
  225MOL0     H30329   6.107   7.129  10.336  0.8533 -0.1680 -2.4233
  225MOL0     H30330   5.987   7.215  10.233  0.6873  0.1697 -1.0894
  225MOL0     H30331   6.183   7.368  10.162 -0.1034 -0.2966 -0.0025
  225MOL0     H30332   6.186   7.206  10.102  2.4707  4.1427 -3.4298
  225MOL0     H30333   6.313   7.283  10.367 -0.7072 -0.9120  0.1741
  225MOL0     H30334   6.406   7.299  10.217 -0.2171 -2.5592 -1.6777
  225MOL0     H30335   6.507   7.212  10.452 -0.1556  0.6763 -2.6235
  225MOL0     H30336   6.721   7.102  10.530 -2.9059  0.8372  2.9504
  225MOL0     H30337   7.099   6.830  10.446 -1.9533  2.1659 -0.1470
  225MOL0     H30338   7.305   6.794  10.563  1.4307 -0.2324  2.6689
  225MOL0     H30339   7.324   6.645  10.981  0.0893  2.1528  0.5515
  225MOL0     H30340   7.253   6.599  10.827  0.0777  0.3926  1.3770
  225MOL0     H30341   7.492   6.620  10.724 -0.1473  3.7400  0.7928
  225MOL0     H30342   7.545   6.612  10.888 -0.6472  2.9986 -0.5502
  225MOL0     H30343   7.439   6.413  10.947 -0.1752  2.3194  0.8979
  225MOL0     H30344   7.368   6.388  10.786 -0.3656  2.6547 -0.3630
  225MOL0     H30345   7.659   6.430  10.842 -0.2325  1.5824  0.1471
  225MOL0     H30346   7.574   6.392  10.686 -2.6308  0.2430  0.6001
  225MOL0     H30347   7.510   6.169  10.737  0.1731 -1.4667 -0.4413
  225MOL0     H30348   7.561   6.183  10.909 -0.8334  3.7035  0.9612
  225MOL0     H30349   7.774   6.175  10.869 -1.7906  0.5770  0.6406
  225MOL0     H30350   7.713   6.042  10.773  0.5956 -0.3010  1.5782
  225MOL0     H30351   7.823   6.308  10.663 -0.7465 -0.7502  2.0354
  225MOL0     H30352   7.751   6.207  10.557 -0.1209  3.4084  0.1679
  225MOL0     H30353   8.016   6.178  10.589  0.3065 -0.0236 -0.4254
  225MOL0     H30354   7.976   6.096  10.738  0.4633 -3.7745 -0.8069
  225MOL0     H30355   7.110   6.898  10.934 -1.9957 -0.8635 -0.2141
  225MOL0     H30356   6.918   6.974  10.800  0.7118  0.9219 -2.0852
  225MOL0     H30357   6.624   6.760  10.269 -2.7213 -0.5914  0.1704
  225MOL0     H30358   6.414   6.873  10.209  1.9500 -0.9265 -1.8467
  225MOL0     H30359   5.905   8.309  10.123  0.3240 -2.3229  1.2192
  225MOL0     H30360   6.031   8.504  10.158 -0.2536 -0.2578  0.3306
  225MOL0     H30361   6.147   8.820  10.273 -1.9763 -0.4166  0.7292
  225MOL0     H30362   6.231   9.040  10.253  0.6331  0.9240 -0.3777
  225MOL0     H30363   6.340   9.302  10.283 -1.0879  0.7708  0.5507
  225MOL0     H30364   6.411   9.146  10.238 -0.2335  0.6157  0.1478
  225MOL0     H30365   6.585   9.314  10.205  0.7860  0.4143  0.5769
  225MOL0     H30366   6.631   9.227  10.357  0.0405  2.2888  1.2190
  225MOL0     H30367   6.514   9.390  10.496  0.2233 -3.9574 -0.7530
  225MOL0     H30368   6.493   9.488  10.344 -1.5093 -0.2545  2.4510
  225MOL0     H30369   6.751   9.388  10.477 -1.1997 -0.6934 -0.0416
  225MOL0     H30370   6.758   9.506  10.353 -1.2766  0.8176 -0.3244
  225MOL0     H30371   6.771   9.742  10.687 -1.7986  0.9123 -0.7196
  225MOL0     H30372   6.354   9.043  10.668 -0.8957 -3.4567  2.5678
  225MOL0     H30373   6.118   8.800  10.753  1.3238  0.6779 -0.5912
  225MOL0     H30374   6.276   8.719  10.732  2.7222  1.3640  0.0592
  225MOL0     H30375   6.265   8.875  10.817  1.7306 -3.0329  1.5824
  226MOL0     O30376   6.610   4.240  10.150  0.4730 -0.7447 -0.7982
  226MOL0     C30377   6.503   4.261  10.202 -1.1965 -0.9897 -0.1308
  226MOL0     O30378   6.396   4.314  10.132 -0.6692 -0.0338  0.4400
  226MOL0     C30379   6.416   4.343   9.999 -0.8173 -0.1139 -0.2569
  226MOL0     C30380   6.514   4.439   9.951 -0.1763  0.3690 -0.3623
  226MOL0     C30381   6.545   4.456   9.819 -1.0776  0.5242  0.6638
  226MOL0     C30382   6.494   4.374   9.718  0.0811 -0.7333  0.5373
  226MOL0     O30383   6.511   4.410   9.588  0.0340  1.0039  0.6410
  226MOL0     C30384   6.480   4.312   9.492 -1.7670  0.0812  1.3271
  226MOL0     C30385   6.520   4.376   9.349 -0.4496 -0.0568  0.1092
  226MOL0     C30386   6.672   4.395   9.319 -0.1884 -0.1283 -0.2907
  226MOL0     C30387   6.684   4.462   9.181 -0.0114 -0.1657  0.7489
  226MOL0     C30388   6.831   4.486   9.144 -0.7193  0.2571 -0.1452
  226MOL0     C30389   6.894   4.579   9.254 -0.0355  0.5294  0.8293
  226MOL0     C30390   6.981   4.682   9.187 -0.5636 -0.1940 -0.5981
  226MOL0     C30391   7.128   4.624   9.155  0.8232  0.2053  0.1608
  226MOL0     N30392   7.191   4.578   9.277  0.4084 -0.0408  0.4646
  226MOL0     C30393   7.229   4.448   9.281  0.4636  0.3408  0.0758
  226MOL0     C30394   7.292   4.428   9.398  0.3506 -0.0460 -0.4656
  226MOL0     C30395   7.367   4.301   9.441 -0.8600  0.2660 -0.1146
  226MOL0     C30396   7.498   4.333   9.523  0.7204  0.5279  0.1036
  226MOL0     C30397   7.586   4.434   9.445 -0.4641 -0.8855 -0.2875
  226MOL0     C30398   7.745   4.427   9.487  0.4345 -0.8255  0.4150
  226MOL0     O30399   7.771   4.449   9.624  0.0699  0.2756  0.2051
  226MOL0     C30400   7.898   4.486   9.665  0.3171  0.6230  0.6850
  226MOL0     C30401   7.911   4.492   9.806  0.0180 -0.6548  0.2557
  226MOL0     C30402   8.030   4.532   9.868  0.0621 -0.2749 -0.5356
  226MOL0     C30403   8.142   4.574   9.790  0.1172 -0.2997  0.4384
  226MOL0     C30404   8.270   4.609   9.852 -0.1072 -0.7566 -0.6805
  226MOL0     O30405   8.394   4.614   9.790  0.2338 -0.0690  0.3177
  226MOL0     C30406   8.501   4.682   9.835  0.2528  1.0217 -0.6258
  226MOL0     C30407   8.611   4.685   9.743  0.5641  0.6529 -0.2132
  226MOL0     C30408   8.729   4.751   9.788  0.2277 -0.2571  1.0536
  226MOL0     C30409   8.755   4.814   9.911 -0.3009  0.0417 -0.4923
  226MOL0     O30410   8.872   4.867   9.951 -0.3373 -0.2289 -0.5180
  226MOL0     C30411   8.970   4.847   9.853 -0.3223 -0.5440  0.6471
  226MOL0     C30412   9.113   4.895   9.893 -0.1309  0.1103 -0.1423
  226MOL0     C30413   9.172   4.820  10.011  0.6173 -0.0826 -0.2581
  226MOL0     C30414   9.314   4.874  10.040  0.2021 -1.0056 -0.3448
  226MOL0     C30415   9.319   5.009  10.109  0.8498  0.4082  0.5222
  226MOL0     C30416   9.460   5.069  10.109 -0.1392  0.2536 -0.6728
  226MOL0     C30417   9.468   5.223  10.153  0.9940  0.6676  0.1289
  226MOL0     C30418   9.463   5.223  10.305 -0.2404 -1.5149  0.3183
  226MOL0    Cl30419   9.470   5.393  10.355  0.1271 -0.3622 -0.6596
  226MOL0     C30420   8.649   4.797   9.997  0.4225  0.0982  0.0520
  226MOL0     C30421   8.526   4.735   9.967 -0.2350 -0.3561 -0.4572
  226MOL0     O30422   8.252   4.629   9.975 -0.4844 -0.3937 -0.6354
  226MOL0     C30423   8.134   4.560   9.654 -0.5764  0.4858 -0.1036
  226MOL0     C30424   8.016   4.516   9.592  0.1599  0.6505 -0.0508
  226MOL0     N30425   7.292   4.555   9.459 -0.1488 -0.4180 -0.4151
  226MOL0     N30426   7.230   4.643   9.384 -0.6032  0.3967  0.6337
  226MOL0     C30427   6.392   4.287   9.761 -0.2719 -0.3117 -0.0851
  226MOL0     C30428   6.361   4.261   9.896 -0.4772 -0.1556  0.1814
  226MOL0     C30429   6.490   4.244  10.346 -0.4563 -0.3857 -0.4112
  226MOL0     C30430   6.377   4.289  10.409  0.7113 -0.2636  0.4527
  226MOL0     C30431   6.367   4.296  10.548  0.4336 -0.6471  0.3537
  226MOL0     C30432   6.461   4.227  10.632  0.1503  0.1942 -0.5804
  226MOL0     O30433   6.450   4.210  10.772  0.0452  0.6619 -0.0415
  226MOL0     C30434   6.323   4.261  10.829  0.2070 -0.8218  1.2937
  226MOL0     C30435   6.323   4.209  10.973  0.6237 -0.4739  0.4127
  226MOL0     C30436   6.450   4.214  11.061  0.9179  0.2505  0.0110
  226MOL0     C30437   6.429   4.217  11.219 -0.0527  1.0745  0.2216
  226MOL0     C30438   6.434   4.354  11.266 -0.0175  0.0778  0.0177
  226MOL0     C30439   6.434   4.462  11.312  0.6218 -0.3333  1.2213
  226MOL0     C30440   6.563   4.178  10.566 -0.1923  0.7170  0.6478
  226MOL0     C30441   6.587   4.184  10.428 -0.6667  1.2449 -0.6790
  226MOL0     C30442   6.723   4.121  10.391 -0.2073  0.8719  0.2059
  226MOL0     H30443   6.554   4.521  10.010  0.5536  1.4329 -2.2469
  226MOL0     H30444   6.608   4.537   9.785  0.9230 -0.9331  0.7357
  226MOL0     H30445   6.540   4.222   9.507 -1.6879 -0.6393 -2.3586
  226MOL0     H30446   6.373   4.292   9.488 -1.6707 -0.4304  1.2155
  226MOL0     H30447   6.467   4.471   9.338  0.1223  0.0687 -1.8767
  226MOL0     H30448   6.481   4.309   9.271 -1.7894 -0.8614  1.4129
  226MOL0     H30449   6.717   4.296   9.316 -0.5389 -0.2940 -4.3312
  226MOL0     H30450   6.715   4.457   9.399 -1.3406 -0.3286  0.5214
  226MOL0     H30451   6.638   4.411   9.095  1.7128  0.1175 -0.3811
  226MOL0     H30452   6.633   4.558   9.183 -2.5949 -1.4487  0.9184
  226MOL0     H30453   6.884   4.391   9.144  3.6617  2.3626  3.0749
  226MOL0     H30454   6.843   4.528   9.044 -1.3949  0.4625 -0.1479
  226MOL0     H30455   6.821   4.640   9.309  1.3063  1.1342  1.9749
  226MOL0     H30456   6.950   4.522   9.328 -0.0494  2.8740  2.7592
  226MOL0     H30457   7.003   4.763   9.257  4.4759  0.4302 -2.4902
  226MOL0     H30458   6.936   4.725   9.097  2.1404  0.7136 -1.6428
  226MOL0     H30459   7.104   4.538   9.092 -2.2890 -0.6979  2.3320
  226MOL0     H30460   7.195   4.692   9.101  0.0848  1.5736  0.9185
  226MOL0     H30461   7.199   4.364   9.219  0.2085 -1.8614  2.9535
  226MOL0     H30462   7.292   4.238   9.489 -1.3393  0.6609 -0.3326
  226MOL0     H30463   7.405   4.250   9.352  3.2649  3.5164 -0.5454
  226MOL0     H30464   7.473   4.376   9.620  0.8992 -1.8681  1.2957
  226MOL0     H30465   7.549   4.238   9.543  0.9349  1.2203  3.5165
  226MOL0     H30466   7.553   4.537   9.463  2.0645 -0.1464  0.5016
  226MOL0     H30467   7.573   4.408   9.339 -1.6509  0.7084 -0.5685
  226MOL0     H30468   7.805   4.494   9.425  0.5865  0.8322  2.2356
  226MOL0     H30469   7.763   4.322   9.463 -3.1769 -1.4073 -0.2635
  226MOL0     H30470   7.816   4.467   9.851  0.6764 -0.4724  1.8010
  226MOL0     H30471   8.026   4.540   9.976 -3.5028 -0.1695 -0.5588
  226MOL0     H30472   8.592   4.649   9.642  0.1119 -2.2558  0.8059
  226MOL0     H30473   8.801   4.742   9.707  0.1306  1.9393  0.6623
  226MOL0     H30474   8.987   4.741   9.833 -1.7328 -0.7203  0.2615
  226MOL0     H30475   8.931   4.902   9.767 -0.6246 -2.5486 -0.5483
  226MOL0     H30476   9.177   4.879   9.806 -1.8394  0.7790 -1.5827
  226MOL0     H30477   9.107   5.003   9.911  0.7898  0.0308  0.7126
  226MOL0     H30478   9.118   4.839  10.103  0.1260  2.1001 -0.9419
  226MOL0     H30479   9.170   4.713   9.987 -1.7078  0.2698 -1.9844
  226MOL0     H30480   9.372   4.880   9.947 -0.7054  4.8397 -0.8786
  226MOL0     H30481   9.363   4.803  10.108 -0.4181  0.5038  1.7886
  226MOL0     H30482   9.288   4.996  10.214  1.1020 -0.2277  0.5243
  226MOL0     H30483   9.248   5.078  10.062  1.1108 -0.2603 -0.9011
  226MOL0     H30484   9.518   5.006  10.176 -1.3414  0.7354  0.8908
  226MOL0     H30485   9.487   5.067  10.003 -1.1758 -0.9659 -0.9394
  226MOL0     H30486   9.384   5.273  10.105  1.3989  1.1605 -0.0660
  226MOL0     H30487   9.563   5.256  10.110 -0.8564  2.3344 -3.0043
  226MOL0     H30488   9.368   5.179  10.340 -1.3103 -1.2291 -2.0472
  226MOL0     H30489   9.557   5.181  10.342  0.6188 -0.5544 -0.7247
  226MOL0     H30490   8.666   4.820  10.101 -1.2340 -2.0468  0.8621
  226MOL0     H30491   8.452   4.714  10.044 -1.0970 -1.6633 -1.5762
  226MOL0     H30492   8.218   4.592   9.592 -1.0508  2.0443  0.0147
  226MOL0     H30493   8.004   4.528   9.485 -3.7736 -0.3640  0.1087
  226MOL0     H30494   6.332   4.230   9.691 -1.9999  1.4049 -0.1086
  226MOL0     H30495   6.284   4.191   9.929  1.8903 -1.8812  2.5383
  226MOL0     H30496   6.289   4.330  10.360  1.7593  0.5193 -0.8466
  226MOL0     H30497   6.273   4.342  10.578 -1.5853 -1.2596 -4.1704
  226MOL0     H30498   6.237   4.218  10.776  1.4826 -2.9118  0.7861
  226MOL0     H30499   6.323   4.370  10.818 -3.2225 -0.8199 -0.1722
  226MOL0     H30500   6.302   4.102  10.959 -3.5495  0.3418 -1.1643
  226MOL0     H30501   6.238   4.242  11.033 -1.7274 -0.8396 -2.4489
  226MOL0     H30502   6.499   4.305  11.027  1.7324 -0.0244  0.4303
  226MOL0     H30503   6.500   4.123  11.028 -0.3555 -0.8550  1.0238
  226MOL0     H30504   6.341   4.164  11.256  0.7115 -2.6046 -2.6954
  226MOL0     H30505   6.520   4.171  11.259  0.7469  1.2435 -1.3411
  226MOL0     H30506   6.431   4.561  11.354 -0.4106  0.3366 -0.3575
  226MOL0     H30507   6.628   4.124  10.634 -1.4070 -4.6375 -1.8687
  226MOL0     H30508   6.806   4.148  10.457 -1.0130 -1.1100  2.1320
  226MOL0     H30509   6.709   4.013  10.399  3.8837  0.1774  0.4799
  226MOL0     H30510   6.759   4.133  10.288 -0.5310 -1.7080 -0.2677
  227MOL0     O30511   0.231   0.807   3.433 -0.5861  0.9320 -0.2568
  227MOL0     C30512   0.124   0.867   3.448  0.5563 -0.6212 -0.5899
  227MOL0     O30513   0.109   1.005   3.441 -0.1553  0.4498  0.7505
  227MOL0     C30514   0.207   1.082   3.438 -0.7821 -0.0883 -0.2735
  227MOL0     C30515   0.241   1.150   3.324 -0.6993 -0.3346  0.2974
  227MOL0     C30516   0.357   1.226   3.306 -0.3079 -0.0051  0.0836
  227MOL0     C30517   0.433   1.250   3.422 -0.1373 -0.2891  0.4816
  227MOL0     O30518   0.547   1.326   3.427  0.3192 -0.5163 -0.1635
  227MOL0     C30519   0.590   1.381   3.298 -0.5241 -0.0655 -0.2829
  227MOL0     C30520   0.729   1.452   3.323 -0.0143  0.4224 -0.1958
  227MOL0     C30521   0.837   1.367   3.387 -0.2861 -0.3143 -0.2406
  227MOL0     C30522   0.957   1.433   3.444  0.7361  0.3913 -0.1630
  227MOL0     C30523   1.039   1.497   3.325 -0.2870  0.7591  0.1776
  227MOL0     C30524   1.180   1.527   3.385  0.0128  0.7274 -0.1347
  227MOL0     C30525   1.251   1.619   3.288 -0.1867 -0.6382 -0.4641
  227MOL0     C30526   1.380   1.682   3.351  0.0320 -0.6802 -0.1828
  227MOL0     N30527   1.449   1.767   3.252 -0.3048 -0.6139 -0.6716
  227MOL0     C30528   1.584   1.784   3.261 -0.8198 -1.0158 -0.1818
  227MOL0     C30529   1.617   1.838   3.143 -0.7088 -0.2928  0.1370
  227MOL0     C30530   1.750   1.904   3.092 -0.0277  0.4134 -0.0539
  227MOL0     C30531   1.870   1.862   3.166  0.1037  0.8455  0.7088
  227MOL0     C30532   1.953   1.744   3.108  0.3250  0.5116 -1.0525
  227MOL0     C30533   2.086   1.737   3.183  0.3458  0.1812  0.8231
  227MOL0     O30534   2.158   1.625   3.124  0.7025  0.3350 -0.6127
  227MOL0     C30535   2.277   1.600   3.190  0.7446  0.0766 -0.6459
  227MOL0     C30536   2.328   1.666   3.311 -0.0631  0.9290 -0.6167
  227MOL0     C30537   2.446   1.620   3.377 -0.4820 -0.4761  0.1051
  227MOL0     C30538   2.524   1.526   3.315 -0.5179  0.7646  0.5733
  227MOL0     C30539   2.654   1.479   3.365  1.1552  0.3717  0.0057
  227MOL0     O30540   2.730   1.571   3.436 -0.2623  0.1536 -0.1070
  227MOL0     C30541   2.865   1.557   3.465 -0.7834  0.5875  0.2608
  227MOL0     C30542   2.914   1.616   3.580 -0.2175  1.2128 -0.8466
  227MOL0     C30543   3.039   1.583   3.623 -0.3706  0.3981 -0.7331
  227MOL0     C30544   3.124   1.490   3.555  0.1386 -0.3064  0.1057
  227MOL0     O30545   3.250   1.440   3.589  0.2792  0.6187 -0.6668
  227MOL0     C30546   3.308   1.505   3.708 -0.1581  0.0062 -0.3798
  227MOL0     C30547   3.435   1.423   3.745  0.5243 -0.5999 -0.4157
  227MOL0     C30548   3.488   1.482   3.871 -0.1546 -0.0005  0.2679
  227MOL0     C30549   3.624   1.427   3.892  0.1378 -0.2476  0.2983
  227MOL0     C30550   3.677   1.490   4.016 -0.1687  0.3061 -0.1917
  227MOL0     C30551   3.701   1.633   4.015  0.4698 -1.0086 -0.9156
  227MOL0     C30552   3.794   1.675   3.890  0.0276  0.7042 -0.5962
  227MOL0     C30553   3.856   1.814   3.925  0.1665 -0.5156  0.2149
  227MOL0    Cl30554   3.999   1.863   3.825 -0.1739 -0.1296  0.1672
  227MOL0     C30555   3.075   1.436   3.437 -0.3653 -0.4186 -0.2514
  227MOL0     C30556   2.947   1.469   3.390 -0.0795 -0.2463  1.1509
  227MOL0     O30557   2.686   1.366   3.346  0.0601  0.2517  0.0416
  227MOL0     C30558   2.474   1.460   3.199  0.1039  0.4254  0.2677
  227MOL0     C30559   2.359   1.497   3.133  0.1129  0.3472 -0.3444
  227MOL0     N30560   1.503   1.856   3.069  0.3119  0.6043 -0.0390
  227MOL0     N30561   1.405   1.811   3.131 -0.7016  0.0510  0.2333
  227MOL0     C30562   0.391   1.193   3.536  0.8740  0.1345 -0.9399
  227MOL0     C30563   0.279   1.118   3.552  0.9199  0.2292 -0.2396
  227MOL0     C30564  -0.001   0.794   3.479  0.1896 -0.1661 -0.2157
  227MOL0     C30565  -0.028   0.664   3.417  0.1579 -0.2642  0.5763
  227MOL0     C30566  -0.146   0.590   3.450 -0.2877  0.1698  0.8205
  227MOL0     C30567  -0.234   0.641   3.536  0.8317  1.1764  0.0477
  227MOL0     O30568  -0.346   0.560   3.560 -0.4108  0.7009  0.2923
  227MOL0     C30569  -0.450   0.582   3.663 -0.1746  0.9062  0.3108
  227MOL0     C30570  -0.489   0.451   3.737 -0.0731  0.4187 -0.1083
  227MOL0     C30571  -0.528   0.338   3.637  0.2096 -0.6736  0.2718
  227MOL0     C30572  -0.564   0.204   3.704  0.1017 -1.1156  0.0318
  227MOL0     C30573  -0.653   0.126   3.616 -0.2858  0.6289  0.3519
  227MOL0     C30574  -0.738   0.056   3.559 -0.4841 -0.5880 -0.8634
  227MOL0     C30575  -0.221   0.771   3.586 -0.0035  0.1256 -0.9667
  227MOL0     C30576  -0.102   0.842   3.577 -0.5904 -0.2249 -0.1871
  227MOL0     C30577  -0.092   0.966   3.664  0.7361  0.0320  0.3934
  227MOL0     H30578   0.169   1.134   3.245 -1.1382  0.7745  0.4521
  227MOL0     H30579   0.369   1.263   3.205 -2.5182 -3.4175 -1.6141
  227MOL0     H30580   0.604   1.304   3.221 -0.5103 -0.2232 -0.1252
  227MOL0     H30581   0.524   1.463   3.269 -0.1796  0.2312 -0.2378
  227MOL0     H30582   0.715   1.537   3.390 -3.9079  0.0643 -0.3402
  227MOL0     H30583   0.773   1.481   3.227 -2.1247 -0.2257 -1.4282
  227MOL0     H30584   0.873   1.298   3.310 -1.6092 -1.8256  0.4343
  227MOL0     H30585   0.787   1.305   3.462 -2.9092 -0.2778 -1.8568
  227MOL0     H30586   0.932   1.507   3.521  4.5316  1.1302  0.5608
  227MOL0     H30587   1.017   1.355   3.489  2.0427 -0.9909 -3.8986
  227MOL0     H30588   1.031   1.431   3.238 -2.6860 -0.9254  1.5475
  227MOL0     H30589   0.998   1.594   3.298 -0.3835 -0.0293 -2.8732
  227MOL0     H30590   1.170   1.569   3.486  0.0121  0.7202 -0.1315
  227MOL0     H30591   1.225   1.429   3.402 -0.5231  0.6924  1.2458
  227MOL0     H30592   1.182   1.700   3.261  0.7589  0.5289  0.5022
  227MOL0     H30593   1.281   1.564   3.198  0.1982 -0.8703 -0.1957
  227MOL0     H30594   1.347   1.752   3.428 -3.3785 -2.4437  0.1740
  227MOL0     H30595   1.447   1.606   3.391  0.5379 -0.1405 -0.0088
  227MOL0     H30596   1.662   1.764   3.334 -0.7907  0.3729  0.2005
  227MOL0     H30597   1.750   1.898   2.982 -1.4242  4.0232 -0.3991
  227MOL0     H30598   1.742   2.013   3.105  1.0567  0.5211 -0.2308
  227MOL0     H30599   1.937   1.948   3.178  0.4583  0.3109  3.0627
  227MOL0     H30600   1.832   1.838   3.266 -0.4475  0.2270  0.3632
  227MOL0     H30601   1.979   1.765   3.004 -0.6906 -0.8341 -1.6183
  227MOL0     H30602   1.901   1.648   3.117  1.7175 -0.1621  0.3053
  227MOL0     H30603   2.062   1.707   3.285  1.7148 -0.3431  1.0039
  227MOL0     H30604   2.139   1.833   3.176  0.1147  0.2283 -0.6224
  227MOL0     H30605   2.274   1.745   3.362  1.4382  0.4196  1.9460
  227MOL0     H30606   2.484   1.677   3.461  0.3897 -0.6820 -0.1375
  227MOL0     H30607   2.843   1.667   3.644 -0.7038  1.0883 -1.2811
  227MOL0     H30608   3.072   1.639   3.711 -1.7262 -2.9054  2.0971
  227MOL0     H30609   3.331   1.609   3.681 -1.0695  0.6651  1.2411
  227MOL0     H30610   3.245   1.508   3.797  1.7301  2.0564  1.0080
  227MOL0     H30611   3.410   1.317   3.754 -1.6687 -0.5131 -3.7081
  227MOL0     H30612   3.509   1.448   3.668  1.8968  0.7904  1.2709
  227MOL0     H30613   3.501   1.591   3.867 -0.3961  0.0610  0.9336
  227MOL0     H30614   3.418   1.460   3.952 -1.3137 -2.3436 -1.2831
  227MOL0     H30615   3.692   1.458   3.812 -0.4399  2.1433  0.6541
  227MOL0     H30616   3.624   1.319   3.909  0.7112  0.2003  3.8678
  227MOL0     H30617   3.763   1.424   4.031 -0.0862 -0.1753 -2.5087
  227MOL0     H30618   3.614   1.466   4.103  1.8130 -0.1883  1.1762
  227MOL0     H30619   3.609   1.692   4.025 -1.2657 -3.8709  2.5804
  227MOL0     H30620   3.748   1.660   4.110  0.2783 -1.4469 -0.6922
  227MOL0     H30621   3.747   1.687   3.792 -0.3292 -1.3941 -0.7161
  227MOL0     H30622   3.880   1.609   3.878  1.6156  2.9048 -2.1776
  227MOL0     H30623   3.775   1.886   3.911 -2.0814 -3.1751 -1.5400
  227MOL0     H30624   3.880   1.837   4.029  0.5790  0.8364 -0.1680
  227MOL0     H30625   3.152   1.381   3.383  1.6670 -0.1607  2.2150
  227MOL0     H30626   2.918   1.419   3.298  0.8821 -2.9889  2.2235
  227MOL0     H30627   2.524   1.380   3.145  0.7663  1.7221 -1.1114
  227MOL0     H30628   2.333   1.454   3.037 -1.8164 -0.6879  0.5867
  227MOL0     H30629   0.454   1.197   3.625  0.3542  1.3527 -0.6062
  227MOL0     H30630   0.245   1.075   3.646  1.7937 -1.7062 -0.7577
  227MOL0     H30631   0.050   0.619   3.357 -0.6727 -0.4635 -0.3910
  227MOL0     H30632  -0.162   0.502   3.390  1.2306  0.8155 -0.6262
  227MOL0     H30633  -0.541   0.612   3.612  0.1464  1.0230 -0.1980
  227MOL0     H30634  -0.421   0.660   3.735  1.8019  0.6157 -0.1155
  227MOL0     H30635  -0.574   0.474   3.803 -1.1520 -1.5104 -0.7461
  227MOL0     H30636  -0.404   0.409   3.792 -1.0349 -2.9694 -1.0006
  227MOL0     H30637  -0.446   0.325   3.565 -1.6743 -2.0139 -1.7922
  227MOL0     H30638  -0.612   0.376   3.578  1.1853 -2.7365 -2.7226
  227MOL0     H30639  -0.471   0.149   3.720  0.8813  0.0981 -0.2362
  227MOL0     H30640  -0.622   0.209   3.796 -0.3872 -0.9500 -0.2785
  227MOL0     H30641  -0.810  -0.005   3.508  2.9770 -2.7451 -3.6698
  227MOL0     H30642  -0.297   0.814   3.651  0.0731 -0.2079 -0.6534
  227MOL0     H30643  -0.040   1.046   3.611  0.1042 -0.0201 -0.3168
  227MOL0     H30644  -0.189   1.013   3.683  0.2287 -0.9888  0.3725
  227MOL0     H30645  -0.037   0.946   3.757 -0.6091  0.4423  1.3165
  228MOL0     O30646  10.654   8.552   0.564  0.4789  0.3555  0.7084
  228MOL0     C30647  10.690   8.488   0.664  0.2379  0.6157  0.4541
  228MOL0     O30648  10.615   8.442   0.773 -0.3382  0.9864 -0.0896
  228MOL0     C30649  10.480   8.442   0.767  0.7626 -0.4773 -0.5349
  228MOL0     C30650  10.399   8.402   0.662  0.3981  0.6429 -0.1857
  228MOL0     C30651  10.264   8.389   0.677 -0.2696  0.2891  0.5078
  228MOL0     C30652  10.201   8.419   0.797  0.4295 -0.5354 -0.2297
  228MOL0     O30653  10.069   8.388   0.806 -0.6809 -0.8907  0.1504
  228MOL0     C30654   9.987   8.433   0.910  0.3417 -0.9907  0.2597
  228MOL0     C30655   9.847   8.378   0.894  0.5974 -0.3605 -0.2363
  228MOL0     C30656   9.850   8.230   0.935  0.2443 -0.2237 -0.2776
  228MOL0     C30657   9.786   8.209   1.072  0.0432 -0.3954  0.4950
  228MOL0     C30658   9.766   8.061   1.102 -0.0950 -0.7583  0.3234
  228MOL0     C30659   9.752   8.034   1.245 -0.6633  0.6067 -0.4219
  228MOL0     C30660   9.751   7.877   1.282 -0.7758 -0.0679 -0.5748
  228MOL0     C30661   9.612   7.817   1.248 -0.4437 -0.2324  0.6352
  228MOL0     N30662   9.507   7.857   1.338 -0.5427  0.6522  0.8028
  228MOL0     C30663   9.473   7.804   1.460  0.3481  0.8892 -0.2643
  228MOL0     C30664   9.382   7.886   1.520  1.0036 -0.6026 -0.0370
  228MOL0     C30665   9.293   7.866   1.642 -0.4933  0.1559  0.3689
  228MOL0     C30666   9.291   7.996   1.731  0.1619  0.7535  0.0618
  228MOL0     C30667   9.207   7.974   1.852 -0.4890 -0.1606 -0.1545
  228MOL0     C30668   9.157   8.103   1.919  0.2544 -1.2438 -0.2448
  228MOL0     O30669   9.087   8.185   1.824 -0.2470 -0.8822  0.3616
  228MOL0     C30670   8.956   8.176   1.834  0.9856 -0.4074 -0.2657
  228MOL0     C30671   8.889   8.070   1.776 -0.2355 -0.8366 -0.0262
  228MOL0     C30672   8.745   8.063   1.787 -0.3411 -0.6022  1.1662
  228MOL0     C30673   8.682   8.158   1.863  1.1936 -0.7423 -0.9245
  228MOL0     C30674   8.533   8.144   1.881  0.5347 -0.0730 -0.6993
  228MOL0     O30675   8.475   8.228   1.980 -0.4185 -0.6230 -0.0513
  228MOL0     C30676   8.348   8.209   2.003  0.2859 -0.8178 -0.4664
  228MOL0     C30677   8.267   8.321   1.984 -0.2603 -0.1094  0.1782
  228MOL0     C30678   8.132   8.312   2.018 -0.8582  0.6988  0.8446
  228MOL0     C30679   8.085   8.184   2.054 -0.2104 -0.1045 -0.9410
  228MOL0     O30680   7.954   8.162   2.084  0.0214  0.2590  0.1891
  228MOL0     C30681   7.920   8.197   2.218 -0.3176 -0.4007 -0.2298
  228MOL0     C30682   7.807   8.108   2.268 -0.2746  0.4505 -0.2973
  228MOL0     C30683   7.758   8.152   2.399  0.1066  0.4992 -0.5271
  228MOL0     C30684   7.605   8.179   2.386  0.0065 -0.5273  0.7987
  228MOL0     C30685   7.549   8.267   2.505 -0.3705 -0.0666 -0.2887
  228MOL0     C30686   7.557   8.195   2.639 -0.2178  0.3797  0.0141
  228MOL0     C30687   7.457   8.260   2.737  0.0958 -0.0735 -0.1492
  228MOL0     C30688   7.482   8.240   2.881  0.0342  0.0265  0.6310
  228MOL0    Cl30689   7.488   8.075   2.916  0.2176  0.3017 -0.0775
  228MOL0     C30690   8.168   8.083   2.079  0.3967 -0.1481 -0.6526
  228MOL0     C30691   8.306   8.092   2.066  0.3266 -0.1742  0.9112
  228MOL0     O30692   8.470   8.063   1.815  0.4021  0.1156  0.2641
  228MOL0     C30693   8.745   8.274   1.920  0.4305  0.3649 -0.2437
  228MOL0     C30694   8.883   8.279   1.903  0.1453  0.5554  0.5247
  228MOL0     N30695   9.360   7.986   1.416  0.5850  0.5901 -0.5320
  228MOL0     N30696   9.424   7.958   1.311  0.1243 -0.0310  0.8928
  228MOL0     C30697  10.278   8.465   0.910  1.3067  0.2334  0.2522
  228MOL0     C30698  10.417   8.476   0.887 -0.3878 -0.9502  0.5298
  228MOL0     C30699  10.841   8.448   0.662  0.2813  0.0581 -0.6938
  228MOL0     C30700  10.919   8.490   0.552  0.1349  0.2038 -0.1603
  228MOL0     C30701  11.048   8.453   0.543  0.1442  0.0304 -0.1013
  228MOL0     C30702  11.106   8.391   0.650  0.4488  0.7215  0.2160
  228MOL0     O30703  11.242   8.357   0.648  0.5309  0.3474 -0.7254
  228MOL0     C30704  11.274   8.232   0.707 -0.5025  0.1687  0.3809
  228MOL0     C30705  11.349   8.162   0.594  0.3221  0.0912 -0.5788
  228MOL0     C30706  11.399   8.028   0.658  0.3531  1.3440  0.8960
  228MOL0     C30707  11.399   7.900   0.553 -0.8701 -0.3830 -0.2911
  228MOL0     C30708  11.521   7.817   0.566 -0.9846  0.5570  0.1922
  228MOL0     C30709  11.630   7.756   0.578  0.6239 -0.6735  0.2601
  228MOL0     C30710  11.033   8.369   0.767  0.4704  0.0490  0.1844
  228MOL0     C30711  10.891   8.380   0.776 -1.1089  0.4443 -0.5141
  228MOL0     C30712  10.821   8.320   0.902  0.0219  0.2620  0.1587
  228MOL0     H30713  10.454   8.378   0.572  1.2931  0.6171  0.3519
  228MOL0     H30714  10.206   8.337   0.601  0.0069 -1.7035  1.5944
  228MOL0     H30715  10.029   8.397   1.005  1.1122 -1.4995 -0.2610
  228MOL0     H30716   9.982   8.541   0.896  0.1459 -1.1740 -1.2283
  228MOL0     H30717   9.813   8.382   0.790  0.4040  2.0006 -0.1315
  228MOL0     H30718   9.774   8.433   0.955  1.6389  3.6680 -2.2698
  228MOL0     H30719   9.953   8.193   0.931  1.0044  1.8227 -0.3530
  228MOL0     H30720   9.805   8.167   0.858 -3.2762 -1.6132  2.5742
  228MOL0     H30721   9.862   8.245   1.143  0.2383 -1.0654  0.6307
  228MOL0     H30722   9.696   8.270   1.084  1.6762  2.0358  1.2383
  228MOL0     H30723   9.682   8.018   1.046 -0.9492 -1.8488  2.3167
  228MOL0     H30724   9.852   8.011   1.057 -0.0222  2.1732 -3.2280
  228MOL0     H30725   9.822   8.093   1.305 -3.3797  0.3345  3.3566
  228MOL0     H30726   9.653   8.071   1.275 -0.0723  2.4312 -0.5605
  228MOL0     H30727   9.760   7.858   1.389 -1.1856 -1.9128 -0.8199
  228MOL0     H30728   9.823   7.821   1.221  1.4372  2.4990 -0.4866
  228MOL0     H30729   9.587   7.851   1.147 -0.4217 -2.8809 -0.3463
  228MOL0     H30730   9.607   7.708   1.253 -0.4408 -0.2994 -0.5131
  228MOL0     H30731   9.518   7.713   1.498 -1.2565  0.5881  1.0485
  228MOL0     H30732   9.193   7.832   1.613 -0.4059 -0.0027  0.2514
  228MOL0     H30733   9.339   7.785   1.700 -1.4619 -0.4254  0.3590
  228MOL0     H30734   9.392   8.011   1.771 -0.0903  1.3767  0.4719
  228MOL0     H30735   9.244   8.074   1.670 -4.2734  0.6287  2.8954
  228MOL0     H30736   9.264   7.930   1.934  0.7184  0.3632 -0.6857
  228MOL0     H30737   9.122   7.910   1.827  0.8105 -1.0488 -2.6416
  228MOL0     H30738   9.238   8.163   1.962 -0.2564 -1.2578  0.7573
  228MOL0     H30739   9.105   8.068   2.008 -0.4220 -0.4383 -0.3041
  228MOL0     H30740   8.948   8.006   1.711 -1.9585 -4.4341  1.6674
  228MOL0     H30741   8.690   7.983   1.739 -1.0745  0.9483 -0.6943
  228MOL0     H30742   8.306   8.413   1.943  2.9186 -0.3861  2.2248
  228MOL0     H30743   8.053   8.383   2.001  1.7975  3.0109 -3.5972
  228MOL0     H30744   8.008   8.200   2.284 -0.0313 -0.5712 -0.5988
  228MOL0     H30745   7.876   8.297   2.221 -1.6123 -0.9106  4.0005
  228MOL0     H30746   7.734   8.116   2.188  0.3837  0.7395 -0.8775
  228MOL0     H30747   7.840   8.003   2.274 -2.3670 -0.2526 -0.0559
  228MOL0     H30748   7.772   8.079   2.480 -1.1847  1.5589  0.6861
  228MOL0     H30749   7.801   8.248   2.427 -2.1466  1.3842  0.0116
  228MOL0     H30750   7.558   8.082   2.373  1.7350 -1.2359 -0.6357
  228MOL0     H30751   7.591   8.241   2.297 -0.9491  0.1618  1.4151
  228MOL0     H30752   7.447   8.289   2.474  0.1421 -0.0357 -2.0738
  228MOL0     H30753   7.605   8.361   2.515  2.8631 -1.8951  0.4439
  228MOL0     H30754   7.535   8.088   2.627 -0.2775  0.2855  0.8667
  228MOL0     H30755   7.657   8.213   2.680  1.3181  2.6030 -4.1723
  228MOL0     H30756   7.360   8.212   2.719  1.1417 -2.2733 -0.1948
  228MOL0     H30757   7.452   8.367   2.718  0.0120 -0.0918 -0.2319
  228MOL0     H30758   7.574   8.295   2.903 -0.8948  1.2004  1.7691
  228MOL0     H30759   7.400   8.277   2.944  0.4423  0.0790  1.1371
  228MOL0     H30760   8.135   7.986   2.116  1.6102 -0.6303 -0.7696
  228MOL0     H30761   8.372   8.007   2.083  1.5656  0.2776 -1.2637
  228MOL0     H30762   8.684   8.351   1.965 -1.5909 -1.1955 -0.1436
  228MOL0     H30763   8.923   8.370   1.947  0.0270  1.8585 -1.8766
  228MOL0     H30764  10.243   8.498   1.007 -0.9188  0.0934 -0.4596
  228MOL0     H30765  10.478   8.510   0.970  0.8713  0.4082 -0.8792
  228MOL0     H30766  10.885   8.552   0.469  0.9684  3.6798  1.9205
  228MOL0     H30767  11.122   8.474   0.466 -0.9185  0.2394 -1.0790
  228MOL0     H30768  11.186   8.167   0.713 -1.2781  0.7140 -3.1514
  228MOL0     H30769  11.325   8.226   0.804  1.3557 -0.9149 -0.5958
  228MOL0     H30770  11.433   8.229   0.575  1.4080 -1.0448  0.0417
  228MOL0     H30771  11.296   8.155   0.499  0.7183  2.7769 -1.0571
  228MOL0     H30772  11.334   7.993   0.739  0.4030 -0.2200  0.3008
  228MOL0     H30773  11.497   8.053   0.698  0.6124  0.2655  0.9697
  228MOL0     H30774  11.318   7.832   0.581 -2.1965  1.9529  2.0277
  228MOL0     H30775  11.392   7.927   0.448 -0.3307  0.4699 -0.1199
  228MOL0     H30776  11.731   7.721   0.577  0.9708 -0.3058  4.6944
  228MOL0     H30777  11.094   8.335   0.849  1.1668 -3.5386 -1.6380
  228MOL0     H30778  10.770   8.231   0.865  3.0969  0.0119 -4.2089
  228MOL0     H30779  10.894   8.280   0.973  1.8103  0.0173 -1.7276
  228MOL0     H30780  10.756   8.391   0.954 -0.8215 -0.6517  0.3786
  229MOL0     O30781   7.989   4.078   3.053 -0.2117 -0.3268 -0.3430
  229MOL0     C30782   7.989   4.074   3.178 -0.3666  0.2331  0.0488
  229MOL0     O30783   8.093   4.040   3.256 -0.3465  0.9825  0.3909
  229MOL0     C30784   8.208   3.998   3.200 -0.5713  0.4874 -0.4219
  229MOL0     C30785   8.207   3.877   3.120 -0.2894 -1.1050 -0.7564
  229MOL0     C30786   8.326   3.813   3.072 -0.0411 -0.3388 -0.7436
  229MOL0     C30787   8.449   3.872   3.101 -0.5987  0.2114 -0.1039
  229MOL0     O30788   8.561   3.798   3.073  0.0005  0.2300  0.8103
  229MOL0     C30789   8.626   3.839   2.944 -0.0009  0.1977 -0.0508
  229MOL0     C30790   8.741   3.752   2.910  0.3797  0.0477  0.2739
  229MOL0     C30791   8.817   3.786   2.777  0.2441  0.8327  0.0191
  229MOL0     C30792   8.944   3.715   2.756  0.2436  0.5106  0.5789
  229MOL0     C30793   8.988   3.732   2.614 -0.3856 -0.7625  0.0779
  229MOL0     C30794   9.150   3.731   2.611  1.4346  0.7492  0.1405
  229MOL0     C30795   9.200   3.762   2.465 -0.6438  0.1728 -1.4656
  229MOL0     C30796   9.130   3.685   2.355 -0.0532  0.1528  0.3458
  229MOL0     N30797   9.181   3.546   2.351 -1.4861 -0.2729  0.7102
  229MOL0     C30798   9.108   3.433   2.305  0.1349 -1.0270  0.9568
  229MOL0     C30799   9.197   3.328   2.300 -0.4465  0.3572 -0.5645
  229MOL0     C30800   9.158   3.185   2.272  0.2723  0.2027 -0.3792
  229MOL0     C30801   9.262   3.104   2.202 -0.8074  0.6886 -0.3295
  229MOL0     C30802   9.215   2.950   2.179  0.4656 -0.4142 -0.8340
  229MOL0     C30803   9.318   2.864   2.102 -0.5487 -0.3195  0.1173
  229MOL0     O30804   9.273   2.731   2.117  0.0264 -0.1176  0.4110
  229MOL0     C30805   9.319   2.640   2.028 -0.1704  0.5974  0.8489
  229MOL0     C30806   9.423   2.644   1.931 -0.7053  0.3156 -0.4953
  229MOL0     C30807   9.462   2.540   1.846 -0.1902 -1.1342  0.0481
  229MOL0     C30808   9.375   2.428   1.839  0.0017  0.3835 -0.8735
  229MOL0     C30809   9.396   2.329   1.731  0.9718 -0.1368  0.3801
  229MOL0     O30810   9.489   2.367   1.640  0.4853  0.5281 -0.0163
  229MOL0     C30811   9.542   2.270   1.560 -0.6382  0.2925 -0.2501
  229MOL0     C30812   9.676   2.236   1.580 -0.8423  0.4489  0.2035
  229MOL0     C30813   9.742   2.152   1.485 -0.4077  0.3586  0.0281
  229MOL0     C30814   9.677   2.110   1.367  0.0406 -0.6131  0.3224
  229MOL0     O30815   9.756   2.040   1.273  0.6998 -0.4559  0.6432
  229MOL0     C30816   9.703   2.025   1.132  0.2516  0.5230  0.1360
  229MOL0     C30817   9.813   1.943   1.052  0.5861 -0.3866  0.0910
  229MOL0     C30818   9.799   1.969   0.901 -0.7330  0.1172  0.6229
  229MOL0     C30819   9.877   1.857   0.820  0.1368 -0.4479  0.4094
  229MOL0     C30820   9.845   1.851   0.672  0.1756  0.3625  0.7570
  229MOL0     C30821   9.698   1.804   0.638 -0.5421 -0.6155  0.4537
  229MOL0     C30822   9.664   1.815   0.493  0.6406  0.4239  1.0350
  229MOL0     C30823   9.591   1.702   0.423  0.8282  0.2294 -1.6494
  229MOL0    Cl30824   9.446   1.653   0.533 -0.2023  0.0753  0.0641
  229MOL0     C30825   9.549   2.144   1.349  0.0915  0.0536 -0.2702
  229MOL0     C30826   9.482   2.211   1.449  0.8313 -0.6179 -0.1297
  229MOL0     O30827   9.334   2.225   1.737 -0.3125  0.3636  1.1375
  229MOL0     C30828   9.278   2.413   1.937  0.5697 -0.4026  0.1286
  229MOL0     C30829   9.250   2.513   2.031  0.9135 -0.5547  0.4486
  229MOL0     N30830   9.325   3.381   2.331 -0.2089  0.5746 -0.5231
  229MOL0     N30831   9.317   3.512   2.349 -0.5387  0.0743  0.6587
  229MOL0     C30832   8.459   3.990   3.177  0.1874 -0.3606  0.1180
  229MOL0     C30833   8.335   4.051   3.222 -0.8154 -0.9569  1.0721
  229MOL0     C30834   7.862   4.078   3.243 -0.2072 -0.0917 -0.0144
  229MOL0     C30835   7.831   3.978   3.340  0.9965  0.2901 -0.3541
  229MOL0     C30836   7.720   3.994   3.422 -0.5916 -0.6461  0.5854
  229MOL0     C30837   7.620   4.092   3.388  0.6383  0.0830 -0.6289
  229MOL0     O30838   7.494   4.105   3.455  0.2853 -0.2650 -0.2486
  229MOL0     C30839   7.416   3.988   3.476  0.3624 -0.1243  0.5277
  229MOL0     C30840   7.268   4.022   3.520 -0.2524  0.2524  0.9769
  229MOL0     C30841   7.183   4.053   3.400  0.3354 -0.4553  0.0349
  229MOL0     C30842   7.243   4.158   3.313 -0.2817 -0.0726  1.7221
  229MOL0     C30843   7.154   4.178   3.193 -0.3204 -0.4337 -0.9543
  229MOL0     C30844   7.065   4.171   3.116  0.1486  0.3348 -0.5633
  229MOL0     C30845   7.653   4.180   3.294  0.0957 -0.7111 -0.0640
  229MOL0     C30846   7.768   4.176   3.215  0.8721  0.2844 -0.0719
  229MOL0     C30847   7.793   4.291   3.123 -0.0010 -0.1315 -0.3481
  229MOL0     H30848   8.113   3.825   3.103  0.5450 -3.7214  1.7739
  229MOL0     H30849   8.332   3.722   3.012 -0.1388 -0.0240 -1.2383
  229MOL0     H30850   8.550   3.853   2.867 -2.0505  2.4047  2.1935
  229MOL0     H30851   8.658   3.940   2.970  0.3642 -0.0753  0.6084
  229MOL0     H30852   8.706   3.648   2.902  0.4576 -0.1353  1.9691
  229MOL0     H30853   8.816   3.746   2.989 -0.5428 -2.2378  1.0663
  229MOL0     H30854   8.827   3.895   2.776  0.7250  0.7885 -0.3283
  229MOL0     H30855   8.757   3.738   2.699 -0.0072 -0.8904  1.2336
  229MOL0     H30856   9.020   3.753   2.825  0.2173 -0.0548  0.9258
  229MOL0     H30857   8.925   3.610   2.778  0.8745  0.3635  0.4569
  229MOL0     H30858   8.938   3.672   2.537 -0.6829 -0.4368  0.0121
  229MOL0     H30859   8.969   3.837   2.593  0.3577 -0.0214  2.7537
  229MOL0     H30860   9.181   3.807   2.683 -0.3986  1.6456  0.0463
  229MOL0     H30861   9.203   3.642   2.647 -0.4177 -0.0966  0.8912
  229MOL0     H30862   9.306   3.737   2.452 -0.0760  1.1253  0.9134
  229MOL0     H30863   9.184   3.870   2.453  2.5824  0.8451 -0.6530
  229MOL0     H30864   9.022   3.688   2.368 -0.2031 -2.8751  0.5182
  229MOL0     H30865   9.162   3.721   2.257  0.4274  1.2049  0.8733
  229MOL0     H30866   9.009   3.438   2.263  0.9564 -0.4719 -1.0254
  229MOL0     H30867   9.126   3.130   2.361  0.0951  1.5001  0.3732
  229MOL0     H30868   9.065   3.197   2.215 -0.0650  2.6158  0.5664
  229MOL0     H30869   9.297   3.150   2.109 -1.0336 -0.4035 -0.9707
  229MOL0     H30870   9.353   3.098   2.262 -1.3592  0.2019  0.4750
  229MOL0     H30871   9.116   2.948   2.134 -0.0989  2.9001 -0.0084
  229MOL0     H30872   9.204   2.922   2.285  0.6227 -1.6586 -1.1309
  229MOL0     H30873   9.419   2.882   2.141  0.3132 -1.4084 -1.4857
  229MOL0     H30874   9.315   2.893   1.996  1.0295 -0.7788 -0.0897
  229MOL0     H30875   9.491   2.728   1.923 -0.7019  0.5968  1.9601
  229MOL0     H30876   9.548   2.550   1.780 -0.1816 -0.5420  0.1403
  229MOL0     H30877   9.732   2.273   1.665 -0.0190  0.1412 -0.1971
  229MOL0     H30878   9.844   2.121   1.509 -0.0099 -1.2085 -3.1768
  229MOL0     H30879   9.609   1.969   1.125  0.1634  0.8870 -2.7701
  229MOL0     H30880   9.683   2.123   1.087 -3.4979  0.3526  1.1619
  229MOL0     H30881   9.912   1.976   1.083 -0.1533 -0.0839  2.3247
  229MOL0     H30882   9.809   1.838   1.082 -2.5327 -0.0282  1.2989
  229MOL0     H30883   9.696   1.973   0.864 -0.7626  2.2643  0.8133
  229MOL0     H30884   9.838   2.069   0.877  0.4090 -0.8880 -2.1261
  229MOL0     H30885   9.837   1.764   0.862  1.8101 -0.7147  1.4889
  229MOL0     H30886   9.984   1.851   0.838 -0.0921 -1.8671  1.4970
  229MOL0     H30887   9.898   1.775   0.615 -1.8473 -1.5283  1.2648
  229MOL0     H30888   9.860   1.952   0.633  0.9539  0.3303  0.9719
  229MOL0     H30889   9.691   1.700   0.670  2.6965 -0.9178  0.5702
  229MOL0     H30890   9.620   1.863   0.687  0.3805  2.3618 -1.4133
  229MOL0     H30891   9.747   1.831   0.424 -0.1760 -2.6499 -0.8048
  229MOL0     H30892   9.606   1.908   0.490  1.1415  0.7113 -0.3825
  229MOL0     H30893   9.556   1.733   0.324 -0.6407  3.3417 -0.2815
  229MOL0     H30894   9.654   1.613   0.417 -0.0254 -0.6375  0.8533
  229MOL0     H30895   9.502   2.138   1.251  0.9670  1.7975 -0.8486
  229MOL0     H30896   9.376   2.233   1.446 -0.2699 -4.5635  2.2675
  229MOL0     H30897   9.209   2.329   1.933  0.2643 -0.0955 -1.9233
  229MOL0     H30898   9.156   2.504   2.086  2.6127 -0.7440  3.5392
  229MOL0     H30899   8.547   4.040   3.214  1.3979 -2.4866  0.2567
  229MOL0     H30900   8.332   4.127   3.300 -3.9250 -0.6908  0.8179
  229MOL0     H30901   7.893   3.891   3.361 -0.6562 -0.6465  0.9515
  229MOL0     H30902   7.694   3.920   3.498 -4.4298 -2.1273 -1.8666
  229MOL0     H30903   7.460   3.911   3.540 -0.5592 -2.8070 -1.8406
  229MOL0     H30904   7.407   3.936   3.380  0.2510 -0.2905  0.6288
  229MOL0     H30905   7.277   4.098   3.597 -1.1002 -0.3776  1.7266
  229MOL0     H30906   7.216   3.935   3.561 -2.6999 -1.0893 -4.0531
  229MOL0     H30907   7.082   4.084   3.428 -0.7236 -1.6998 -2.1675
  229MOL0     H30908   7.156   3.958   3.354 -0.3621 -0.5629  0.6390
  229MOL0     H30909   7.252   4.254   3.366 -1.6037  1.5371 -0.7451
  229MOL0     H30910   7.336   4.117   3.273 -1.2869 -0.8620  0.1196
  229MOL0     H30911   6.985   4.183   3.045 -1.5328 -0.7575  1.0420
  229MOL0     H30912   7.580   4.257   3.275  3.0507  3.1188  2.6515
  229MOL0     H30913   7.899   4.314   3.136 -0.4441  0.9878  1.6471
  229MOL0     H30914   7.777   4.254   3.021 -2.1202 -3.1033  0.9269
  229MOL0     H30915   7.725   4.374   3.145  0.3790  0.0202  0.2722
  230MOL0     O30916   2.810   0.127   3.590 -0.6956  0.5915  0.2442
  230MOL0     C30917   2.923   0.091   3.626  0.2805 -0.2817 -0.0137
  230MOL0     O30918   2.950   0.003   3.726 -0.8404 -0.7976  0.2762
  230MOL0     C30919   2.849  -0.048   3.806  0.1317 -0.1358 -0.0489
  230MOL0     C30920   2.893  -0.108   3.923 -0.1265  1.0541 -0.1179
  230MOL0     C30921   2.810  -0.160   4.029  0.6460 -0.0949  0.9198
  230MOL0     C30922   2.674  -0.136   4.016  0.1249  0.4770  0.3945
  230MOL0     O30923   2.587  -0.176   4.116 -0.1967  0.1638  0.6422
  230MOL0     C30924   2.475  -0.098   4.141 -0.7447 -0.0562  0.0867
  230MOL0     C30925   2.415  -0.160   4.269  0.1255  0.0964  0.3214
  230MOL0     C30926   2.353  -0.302   4.235  0.4515 -0.2358 -1.1237
  230MOL0     C30927   2.248  -0.348   4.333 -0.0649 -0.4319 -0.4050
  230MOL0     C30928   2.160  -0.471   4.269 -0.1341  0.8221 -0.1454
  230MOL0     C30929   2.244  -0.598   4.281  0.2247  0.2244  0.3856
  230MOL0     C30930   2.199  -0.708   4.191  0.7672 -0.8084  0.3393
  230MOL0     C30931   2.224  -0.847   4.239 -0.8706 -0.5953 -0.4335
  230MOL0     N30932   2.160  -0.957   4.161 -0.7435 -0.3106  0.0403
  230MOL0     C30933   2.210  -0.985   4.031  0.2611 -1.8249  0.1614
  230MOL0     C30934   2.178  -1.112   4.017  0.5456  0.5280  0.0667
  230MOL0     C30935   2.211  -1.220   3.920 -0.2891 -0.9453 -0.3023
  230MOL0     C30936   2.359  -1.260   3.937 -0.8847  0.1438  1.0385
  230MOL0     C30937   2.470  -1.150   3.912  0.5066 -0.4313 -0.7125
  230MOL0     C30938   2.608  -1.223   3.900  0.2537  0.2024 -0.0514
  230MOL0     O30939   2.699  -1.145   3.824 -0.0570  0.0548  1.1222
  230MOL0     C30940   2.796  -1.064   3.883 -0.5232  1.5618 -0.8267
  230MOL0     C30941   2.814  -1.045   4.019  0.6239 -0.0594 -0.4879
  230MOL0     C30942   2.932  -0.991   4.074  0.1569  0.0090  0.0916
  230MOL0     C30943   3.025  -0.933   3.991 -0.5327  0.2914 -0.4152
  230MOL0     C30944   3.128  -0.846   4.047  0.5298 -0.3114  0.6344
  230MOL0     O30945   3.212  -0.790   3.959 -0.6520  0.4717 -0.7978
  230MOL0     C30946   3.323  -0.734   3.997  0.1572  0.2175  0.3143
  230MOL0     C30947   3.386  -0.675   3.885 -0.4762 -0.7552 -0.0295
  230MOL0     C30948   3.501  -0.601   3.896 -0.5219 -0.0348 -0.5416
  230MOL0     C30949   3.557  -0.581   4.026  0.9383 -0.4018 -0.4546
  230MOL0     O30950   3.670  -0.512   4.059  0.6610  0.2933  0.5130
  230MOL0     C30951   3.745  -0.444   3.955  0.4428 -0.1029 -0.2156
  230MOL0     C30952   3.832  -0.523   3.866  0.8927 -0.4818  0.4299
  230MOL0     C30953   3.946  -0.431   3.821  0.0668  0.0520  0.5756
  230MOL0     C30954   4.038  -0.502   3.728  0.5749 -0.1556 -0.2779
  230MOL0     C30955   4.157  -0.420   3.690 -0.3501  0.8563  0.1969
  230MOL0     C30956   4.228  -0.496   3.575  0.3537  0.6936 -1.1746
  230MOL0     C30957   4.367  -0.448   3.553 -0.1411  0.1487  0.5925
  230MOL0     C30958   4.373  -0.299   3.530  0.8593  0.4574  0.4568
  230MOL0    Cl30959   4.513  -0.255   3.432 -0.2745  0.1103 -0.1349
  230MOL0     C30960   3.504  -0.646   4.135  0.0231 -0.9345 -0.9374
  230MOL0     C30961   3.386  -0.720   4.122 -0.1264 -0.0263 -0.2937
  230MOL0     O30962   3.130  -0.830   4.167  0.3631 -0.5787 -0.2590
  230MOL0     C30963   3.018  -0.957   3.850 -0.6169 -0.1734  0.0142
  230MOL0     C30964   2.901  -1.022   3.802 -0.4402 -1.1457 -0.1486
  230MOL0     N30965   2.100  -1.153   4.126  0.0381 -0.0516  0.4884
  230MOL0     N30966   2.102  -1.070   4.210 -0.8973 -0.5057  0.2176
  230MOL0     C30967   2.627  -0.080   3.900 -0.4098 -0.3174 -0.1688
  230MOL0     C30968   2.710  -0.039   3.794  1.1162  0.2636 -0.0449
  230MOL0     C30969   3.045   0.153   3.570 -0.4634  0.6919  0.0571
  230MOL0     C30970   3.174   0.081   3.577 -0.7389 -1.2011 -0.8945
  230MOL0     C30971   3.287   0.128   3.516  0.6225 -0.4028 -0.1377
  230MOL0     C30972   3.277   0.237   3.432 -0.5921 -0.5020  0.9821
  230MOL0     O30973   3.388   0.290   3.360  0.4166 -0.1651  0.0262
  230MOL0     C30974   3.517   0.291   3.415 -0.2875 -0.3037 -0.1442
  230MOL0     C30975   3.598   0.376   3.320 -0.2825 -0.7550  0.0733
  230MOL0     C30976   3.758   0.364   3.334  0.9893 -0.2218 -0.2525
  230MOL0     C30977   3.820   0.440   3.221  0.0704 -0.4246 -0.4970
  230MOL0     C30978   3.809   0.590   3.243 -0.6748  0.3733 -0.2546
  230MOL0     C30979   3.804   0.711   3.245  0.0575  0.5885  0.1126
  230MOL0     C30980   3.149   0.302   3.418  0.6735  1.0408 -0.2480
  230MOL0     C30981   3.035   0.276   3.499 -0.0584 -0.2850  0.0549
  230MOL0     C30982   2.927   0.377   3.484  0.3204  0.5398  0.3900
  230MOL0     H30983   3.002  -0.105   3.929  0.0559  3.3133 -2.6389
  230MOL0     H30984   2.845  -0.218   4.113 -0.5150  1.5008  2.5863
  230MOL0     H30985   2.509   0.005   4.153  2.3571 -0.9840  0.3149
  230MOL0     H30986   2.403  -0.098   4.060  1.5902  2.2828 -2.1908
  230MOL0     H30987   2.341  -0.093   4.312 -0.6312 -0.5589  0.0780
  230MOL0     H30988   2.489  -0.173   4.348 -0.2914  1.4341  0.9387
  230MOL0     H30989   2.427  -0.378   4.259 -0.2442 -0.1240  1.7217
  230MOL0     H30990   2.307  -0.303   4.136 -3.8508 -2.9377  0.5684
  230MOL0     H30991   2.290  -0.368   4.432 -2.2582 -0.1903  0.6484
  230MOL0     H30992   2.185  -0.259   4.346  2.5443  1.2982  1.3968
  230MOL0     H30993   2.072  -0.483   4.333  1.4805 -0.6927  1.8839
  230MOL0     H30994   2.128  -0.458   4.165  0.2681 -0.0422 -0.3841
  230MOL0     H30995   2.345  -0.575   4.247  1.0387  0.5648  2.8645
  230MOL0     H30996   2.245  -0.630   4.386  2.6212  4.6947  1.9952
  230MOL0     H30997   2.246  -0.688   4.094 -2.9902  0.2483 -1.4291
  230MOL0     H30998   2.091  -0.703   4.181  0.5369 -0.6116  2.4594
  230MOL0     H30999   2.332  -0.867   4.238 -0.1334  2.7452 -2.4085
  230MOL0     H31000   2.202  -0.866   4.344  1.0472  0.8387  0.2972
  230MOL0     H31001   2.253  -0.929   3.949  2.3293 -2.6159  0.6373
  230MOL0     H31002   2.141  -1.302   3.937  0.3073 -1.7208 -1.4501
  230MOL0     H31003   2.186  -1.207   3.814  1.2121  1.5899 -0.4232
  230MOL0     H31004   2.364  -1.298   4.040 -2.0467  0.4404  1.2198
  230MOL0     H31005   2.383  -1.340   3.867 -1.4591 -0.2964  1.3420
  230MOL0     H31006   2.465  -1.084   3.999  4.3278 -0.5176 -0.2799
  230MOL0     H31007   2.441  -1.095   3.823 -1.3393 -0.5705 -0.2482
  230MOL0     H31008   2.605  -1.317   3.844 -0.1519 -0.3998  0.9717
  230MOL0     H31009   2.642  -1.252   4.000 -2.0370 -0.6002  0.5542
  230MOL0     H31010   2.735  -1.069   4.090  2.2521  1.2918  1.9768
  230MOL0     H31011   2.931  -0.978   4.182  0.3976  3.7112 -0.2245
  230MOL0     H31012   3.339  -0.680   3.787 -1.3227 -0.0587  0.3249
  230MOL0     H31013   3.537  -0.560   3.802  0.0174  1.9261  0.4746
  230MOL0     H31014   3.678  -0.377   3.901 -1.7979 -0.3570  2.0019
  230MOL0     H31015   3.815  -0.380   4.010  3.3278 -2.9212 -0.3274
  230MOL0     H31016   3.878  -0.609   3.917  0.8207  0.3287  1.9152
  230MOL0     H31017   3.769  -0.560   3.785  0.7012 -0.9320  0.7779
  230MOL0     H31018   3.896  -0.348   3.771 -2.3402 -1.5043  0.2724
  230MOL0     H31019   4.006  -0.405   3.909  1.7946 -3.1405  0.5104
  230MOL0     H31020   3.979  -0.536   3.643  1.8869 -3.8007  0.0783
  230MOL0     H31021   4.080  -0.591   3.775  1.4057  0.5964  0.4379
  230MOL0     H31022   4.233  -0.405   3.768  1.7445  0.7814 -1.7332
  230MOL0     H31023   4.127  -0.316   3.676  1.6329  1.0978 -3.4573
  230MOL0     H31024   4.214  -0.601   3.603 -4.4325  1.4191  0.0141
  230MOL0     H31025   4.170  -0.483   3.483 -0.9655  2.0486 -0.1920
  230MOL0     H31026   4.395  -0.488   3.456  0.9089  1.8428  0.1731
  230MOL0     H31027   4.430  -0.483   3.635 -3.3600 -0.9751  2.8093
  230MOL0     H31028   4.283  -0.278   3.471  0.4062 -0.3176  0.8505
  230MOL0     H31029   4.380  -0.238   3.620 -0.7821  0.3923  0.6626
  230MOL0     H31030   3.549  -0.645   4.233 -3.9561  0.4768  1.0852
  230MOL0     H31031   3.357  -0.778   4.209  1.2074 -0.4607 -0.1026
  230MOL0     H31032   3.098  -0.915   3.789  0.3666  0.0631  1.4193
  230MOL0     H31033   2.880  -1.031   3.696  1.3121 -0.2192 -0.6211
  230MOL0     H31034   2.521  -0.062   3.888 -0.5219 -0.2215  0.9053
  230MOL0     H31035   2.652  -0.009   3.707  1.3861 -0.9239 -0.6596
  230MOL0     H31036   3.193   0.001   3.649  0.9963  0.8241  1.0669
  230MOL0     H31037   3.387   0.089   3.530  0.6115 -0.0651  0.9943
  230MOL0     H31038   3.562   0.191   3.411 -1.3370 -0.7972  0.0432
  230MOL0     H31039   3.510   0.344   3.510 -1.3865 -0.9237  0.1373
  230MOL0     H31040   3.571   0.481   3.328 -0.8703 -0.9387  0.5864
  230MOL0     H31041   3.579   0.347   3.216  1.1340  0.5642 -0.5968
  230MOL0     H31042   3.796   0.262   3.339  2.6649  0.4012  2.8254
  230MOL0     H31043   3.795   0.394   3.433  1.1212  5.3663 -1.6555
  230MOL0     H31044   3.929   0.431   3.222  0.4126  2.2373 -2.2397
  230MOL0     H31045   3.783   0.409   3.123  3.1688  0.9953 -2.2668
  230MOL0     H31046   3.778   0.815   3.254  0.5446  0.5591  2.6178
  230MOL0     H31047   3.150   0.378   3.341  1.0954  1.3563  0.0618
  230MOL0     H31048   2.897   0.415   3.583 -0.5547  0.6792  0.0803
  230MOL0     H31049   2.955   0.464   3.423 -0.0240  0.7171  0.4793
  230MOL0     H31050   2.842   0.325   3.441  0.9889  0.9720 -1.5294
  231MOL0     O31051   7.554   3.063   9.303  0.7053  0.3828  0.6037
  231MOL0     C31052   7.486   2.968   9.263  0.0812 -0.1615 -0.6662
  231MOL0     O31053   7.517   2.882   9.161 -0.3994 -0.2863  0.2215
  231MOL0     C31054   7.611   2.933   9.069  0.5260  0.6856  0.3209
  231MOL0     C31055   7.746   2.924   9.109  0.2830  0.3113 -0.2212
  231MOL0     C31056   7.844   2.977   9.033 -0.2205 -0.0329 -0.4865
  231MOL0     C31057   7.818   3.036   8.913  0.7244  0.4470 -0.3746
  231MOL0     O31058   7.904   3.083   8.831 -0.1790 -0.8126  0.1792
  231MOL0     C31059   8.047   3.086   8.846  0.3568  0.3648  0.8867
  231MOL0     C31060   8.112   3.168   8.732 -0.1381 -0.5604  0.1157
  231MOL0     C31061   8.086   3.327   8.751  1.0645  0.3899 -0.0086
  231MOL0     C31062   8.181   3.407   8.844 -0.0202 -0.4007  0.2237
  231MOL0     C31063   8.138   3.551   8.845  0.4633 -0.2421 -0.6760
  231MOL0     C31064   8.223   3.637   8.944 -0.0056 -1.0401 -0.1168
  231MOL0     C31065   8.368   3.585   8.974 -0.2276 -0.3874  1.9797
  231MOL0     C31066   8.449   3.699   9.032 -1.0954  0.0279 -0.4828
  231MOL0     N31067   8.576   3.647   9.091  0.2036  0.0945  0.5110
  231MOL0     C31068   8.652   3.729   9.167 -0.8962  0.4432  0.2055
  231MOL0     C31069   8.772   3.674   9.177 -0.3291  0.1898  0.4162
  231MOL0     C31070   8.880   3.737   9.247  0.2904  0.3137  0.0142
  231MOL0     C31071   8.875   3.718   9.399  0.0196  0.2106 -0.4712
  231MOL0     C31072   8.945   3.594   9.469 -0.0902  0.7791 -0.1812
  231MOL0     C31073   8.956   3.594   9.623 -0.4018  0.7339 -0.5377
  231MOL0     O31074   8.824   3.634   9.660  0.1861  0.1967  0.2648
  231MOL0     C31075   8.757   3.578   9.763  0.1401  0.4491  0.0967
  231MOL0     C31076   8.622   3.629   9.779 -0.5512 -0.0178  0.7531
  231MOL0     C31077   8.541   3.591   9.881 -0.2325 -0.1901 -0.6268
  231MOL0     C31078   8.584   3.499   9.972  0.3672 -0.5249 -0.9611
  231MOL0     C31079   8.497   3.444  10.080 -1.0237 -0.3870 -0.7705
  231MOL0     O31080   8.371   3.436  10.052  0.4584  0.2542 -0.9433
  231MOL0     C31081   8.283   3.381  10.149 -0.4298 -0.2184  0.4309
  231MOL0     C31082   8.258   3.444  10.268 -0.3416  0.7537  0.1574
  231MOL0     C31083   8.162   3.399  10.359  0.0546 -0.6776 -0.7375
  231MOL0     C31084   8.086   3.288  10.329  0.6833 -0.2813  1.0609
  231MOL0     O31085   7.995   3.231  10.419 -0.9341  0.4594 -0.5483
  231MOL0     C31086   7.945   3.294  10.537 -0.8882 -0.1332  1.1469
  231MOL0     C31087   7.802   3.270  10.582 -0.8897 -0.6298 -0.1678
  231MOL0     C31088   7.768   3.124  10.593 -0.1374 -0.8600  0.5821
  231MOL0     C31089   7.731   3.070  10.455  0.8580 -0.1461 -0.2155
  231MOL0     C31090   7.731   2.917  10.454 -0.1281  0.1907  0.0858
  231MOL0     C31091   7.616   2.848  10.509  0.3017 -0.3073 -0.0728
  231MOL0     C31092   7.660   2.704  10.488  0.2138 -0.0764  0.5988
  231MOL0     C31093   7.568   2.603  10.551  0.4207  0.0231  0.0248
  231MOL0    Cl31094   7.509   2.633  10.724  0.2706  0.6069 -0.1401
  231MOL0     C31095   8.102   3.228  10.202 -0.1612  0.0012 -0.5459
  231MOL0     C31096   8.209   3.272  10.113  1.3004 -0.2631 -0.4061
  231MOL0     O31097   8.548   3.428  10.192  0.1133  0.4423 -0.2006
  231MOL0     C31098   8.719   3.455   9.975  0.5269 -0.1633  0.1460
  231MOL0     C31099   8.806   3.494   9.874  0.8052  0.9569  0.0132
  231MOL0     N31100   8.761   3.552   9.109 -0.2850  0.0741 -0.3537
  231MOL0     N31101   8.647   3.536   9.055 -0.4875  0.5479  0.9636
  231MOL0     C31102   7.679   3.043   8.881  0.0329 -0.1170  0.2350
  231MOL0     C31103   7.576   2.997   8.954  0.4373  0.0098 -0.3161
  231MOL0     C31104   7.355   2.934   9.332  0.1630 -0.3268 -1.0302
  231MOL0     C31105   7.266   2.838   9.270 -0.2425 -0.9558  0.3714
  231MOL0     C31106   7.136   2.824   9.321  0.1766  0.5125 -0.6044
  231MOL0     C31107   7.093   2.884   9.444 -0.4987  0.6680  0.5364
  231MOL0     O31108   6.966   2.860   9.496  0.2304 -0.0150 -0.7591
  231MOL0     C31109   6.869   2.817   9.401 -0.7430 -0.0046 -0.1026
  231MOL0     C31110   6.736   2.813   9.480 -0.9391 -0.6673  0.4910
  231MOL0     C31111   6.616   2.761   9.397  0.4729  0.0341  0.0533
  231MOL0     C31112   6.530   2.877   9.325 -0.3093 -0.2338  0.1278
  231MOL0     C31113   6.412   2.921   9.391  0.2137 -0.3659 -0.7148
  231MOL0     C31114   6.320   2.979   9.446 -0.6809  0.5296 -0.1397
  231MOL0     C31115   7.190   2.969   9.508 -0.3313 -1.0135 -0.2991
  231MOL0     C31116   7.320   2.993   9.462  0.1518  0.6221 -0.2131
  231MOL0     C31117   7.425   3.048   9.561  0.8956 -0.1739  0.7138
  231MOL0     H31118   7.775   2.857   9.189  0.6472  1.6592  0.8156
  231MOL0     H31119   7.941   2.939   9.064 -0.9211 -0.6462  1.0554
  231MOL0     H31120   8.068   3.138   8.940  0.6603  0.7293  0.6222
  231MOL0     H31121   8.090   2.986   8.862  3.3752  1.8941  3.4663
  231MOL0     H31122   8.067   3.127   8.641 -2.8929 -0.6183  1.3896
  231MOL0     H31123   8.220   3.154   8.726  0.1688  1.3405  0.5619
  231MOL0     H31124   7.981   3.339   8.780  1.1153  1.6846 -0.3216
  231MOL0     H31125   8.086   3.367   8.649 -0.9647  1.4369  0.3564
  231MOL0     H31126   8.196   3.372   8.947 -0.9944  0.0518  0.5316
  231MOL0     H31127   8.274   3.401   8.787  1.0913  0.2374  1.8820
  231MOL0     H31128   8.160   3.587   8.744  1.7325  3.3370  0.6999
  231MOL0     H31129   8.032   3.572   8.860  0.4996 -0.5346  0.0130
  231MOL0     H31130   8.231   3.737   8.899 -3.1305  0.3752  2.0883
  231MOL0     H31131   8.166   3.646   9.037 -1.6052  0.6959 -1.1847
  231MOL0     H31132   8.429   3.552   8.890 -4.4002 -1.3809 -0.9875
  231MOL0     H31133   8.349   3.499   9.040 -1.8225 -2.1316 -0.5446
  231MOL0     H31134   8.485   3.773   8.960 -0.4393 -0.9993 -1.2364
  231MOL0     H31135   8.389   3.739   9.114  0.0137 -2.6496  1.8052
  231MOL0     H31136   8.611   3.821   9.207 -2.5285 -0.2125  0.1621
  231MOL0     H31137   8.972   3.697   9.203  0.0828  2.7730 -3.0389
  231MOL0     H31138   8.875   3.840   9.210  1.6310 -0.0904 -1.4166
  231MOL0     H31139   8.918   3.808   9.445  0.5926 -0.1583 -0.2728
  231MOL0     H31140   8.768   3.719   9.421  0.2973  1.1061  0.9565
  231MOL0     H31141   9.052   3.589   9.450 -0.5367 -0.4798 -2.9082
  231MOL0     H31142   8.908   3.498   9.431 -0.8528 -0.5045  3.4648
  231MOL0     H31143   9.032   3.665   9.657 -0.6931  1.5225 -1.5048
  231MOL0     H31144   8.979   3.492   9.654 -2.9769 -0.9388 -3.5466
  231MOL0     H31145   8.585   3.687   9.695 -0.9271 -0.4674  0.6008
  231MOL0     H31146   8.438   3.623   9.876 -1.0340 -2.5091 -0.1622
  231MOL0     H31147   8.318   3.526  10.305 -0.4531  0.0940  1.9160
  231MOL0     H31148   8.151   3.449  10.455  1.3286 -0.0039 -0.9181
  231MOL0     H31149   8.002   3.263  10.625 -1.8184  2.1882  2.6531
  231MOL0     H31150   7.938   3.400  10.512 -1.9184 -0.2306  1.0037
  231MOL0     H31151   7.790   3.323  10.677  0.6508 -1.7211  0.6694
  231MOL0     H31152   7.730   3.320  10.516 -1.8730 -0.8755  0.6851
  231MOL0     H31153   7.856   3.072  10.633 -0.0069 -0.2522  1.0933
  231MOL0     H31154   7.680   3.114  10.656 -0.2374 -2.3179  0.2451
  231MOL0     H31155   7.791   3.103  10.370  2.3436 -0.3960  0.7017
  231MOL0     H31156   7.632   3.102  10.421  1.2514 -0.3953 -1.6484
  231MOL0     H31157   7.829   2.887  10.491  0.1739  1.3555  0.2603
  231MOL0     H31158   7.731   2.883  10.350 -2.0060 -2.5274  0.8362
  231MOL0     H31159   7.594   2.883  10.610 -1.2270 -0.0956 -0.4484
  231MOL0     H31160   7.518   2.864  10.462 -1.2081 -1.1405  2.5825
  231MOL0     H31161   7.759   2.687  10.530 -0.5218  1.1515  2.9730
  231MOL0     H31162   7.660   2.678  10.381 -1.3918  0.3074  0.4772
  231MOL0     H31163   7.482   2.585  10.485 -1.9317 -0.0774  2.8782
  231MOL0     H31164   7.621   2.507  10.541  2.1246  1.0916 -1.7602
  231MOL0     H31165   8.043   3.143  10.169 -1.6916  1.1812 -0.9895
  231MOL0     H31166   8.205   3.232  10.012 -0.1306  2.2002 -1.4163
  231MOL0     H31167   8.742   3.385  10.055 -1.7307 -0.8835  0.2301
  231MOL0     H31168   8.914   3.479   9.877  1.3148  3.5217 -1.6806
  231MOL0     H31169   7.656   3.109   8.799 -0.5694  1.8811  1.9180
  231MOL0     H31170   7.468   3.002   8.945 -0.0013 -1.4406  2.7651
  231MOL0     H31171   7.290   2.782   9.180 -1.7731 -0.6358 -0.2737
  231MOL0     H31172   7.087   2.749   9.259  1.9872  1.5395 -3.5168
  231MOL0     H31173   6.896   2.717   9.366  2.6935  1.2540 -1.4764
  231MOL0     H31174   6.863   2.882   9.313 -1.7642 -0.3319 -0.2895
  231MOL0     H31175   6.702   2.913   9.506 -3.7327 -2.0525  2.7498
  231MOL0     H31176   6.759   2.755   9.570  0.1042 -1.1589 -0.0680
  231MOL0     H31177   6.540   2.708   9.455  1.3406  0.1950  1.3708
  231MOL0     H31178   6.647   2.694   9.316 -1.6556 -2.8283  1.4402
  231MOL0     H31179   6.588   2.969   9.310 -0.0546 -0.5878 -1.1407
  231MOL0     H31180   6.501   2.851   9.223  4.2087 -0.0274 -1.4378
  231MOL0     H31181   6.230   3.020   9.488  0.3155  1.2661  1.3506
  231MOL0     H31182   7.173   3.027   9.598 -1.3906 -1.4334 -0.2108
  231MOL0     H31183   7.418   3.157   9.549  4.0633 -0.0294 -0.6693
  231MOL0     H31184   7.408   3.011   9.662 -1.2006  0.4042  0.6303
  231MOL0     H31185   7.522   3.008   9.532  0.6547  0.4561 -1.1397
  232MOL0     O31186  11.320   9.690  10.634 -0.2183  0.5753 -1.4339
  232MOL0     C31187  11.419   9.733  10.680 -0.5790 -0.5996 -0.1079
  232MOL0     O31188  11.538   9.668  10.681  0.8133 -0.1496 -0.4902
  232MOL0     C31189  11.547   9.537  10.652 -0.2286 -0.3205  1.0931
  232MOL0     C31190  11.466   9.428  10.707  0.7978  0.0743  0.6425
  232MOL0     C31191  11.492   9.298  10.658 -0.5427 -0.8381 -0.3764
  232MOL0     C31192  11.596   9.280  10.564 -0.1911  0.4229  0.0302
  232MOL0     O31193  11.615   9.157  10.515 -0.5164  0.8308  0.1801
  232MOL0     C31194  11.717   9.140  10.418 -0.5043  0.0802  0.6217
  232MOL0     C31195  11.750   8.992  10.394 -0.1872  0.6352 -0.2155
  232MOL0     C31196  11.637   8.907  10.340 -0.4131  0.3007  0.3930
  232MOL0     C31197  11.577   8.831  10.461 -1.3719  1.1203  1.0073
  232MOL0     C31198  11.443   8.772  10.417  0.0418 -0.6900  0.3830
  232MOL0     C31199  11.359   8.724  10.532  0.6138 -0.4811  0.3980
  232MOL0     C31200  11.316   8.835  10.646 -0.0720 -0.5840 -0.4959
  232MOL0     C31201  11.179   8.905  10.602  0.3258  0.1006 -0.2034
  232MOL0     N31202  11.144   9.017  10.694 -0.6714 -0.3783 -0.7660
  232MOL0     C31203  11.119   9.149  10.659  0.4219  0.1008 -0.0793
  232MOL0     C31204  11.110   9.212  10.782 -0.0139  0.0399 -0.7862
  232MOL0     C31205  11.066   9.353  10.802 -0.6352 -0.2803 -0.8573
  232MOL0     C31206  10.954   9.368  10.895 -0.9916 -0.0913  0.8640
  232MOL0     C31207  10.911   9.513  10.908  0.5830  0.0643 -0.3483
  232MOL0     C31208  10.982   9.582  11.025  0.7609 -0.1231  0.0663
  232MOL0     O31209  10.908   9.700  11.055  0.2877  0.1609 -0.2392
  232MOL0     C31210  10.961   9.793  11.147  0.0920  0.0885 -0.2441
  232MOL0     C31211  10.894   9.914  11.146  0.0135 -1.0607 -0.1921
  232MOL0     C31212  10.944  10.022  11.223 -0.0513 -0.3644  0.6249
  232MOL0     C31213  11.060  10.004  11.307  0.7043 -0.1515 -0.3324
  232MOL0     C31214  11.108  10.108  11.406 -0.4722 -0.0541 -0.1198
  232MOL0     O31215  11.196  10.061  11.504 -0.3241 -0.6185 -0.1133
  232MOL0     C31216  11.248  10.149  11.600 -0.4162  0.6620  0.2282
  232MOL0     C31217  11.275  10.099  11.729 -0.2649  0.0939 -0.1654
  232MOL0     C31218  11.356  10.161  11.817 -0.2308 -0.9080  0.1842
  232MOL0     C31219  11.399  10.298  11.774 -0.1042 -0.1255  0.4196
  232MOL0     O31220  11.459  10.370  11.871  0.2406  0.5207 -0.3844
  232MOL0     C31221  11.503  10.505  11.863  0.8661 -0.0055  0.8714
  232MOL0     C31222  11.653  10.521  11.830  0.1470  0.2070 -0.1876
  232MOL0     C31223  11.704  10.664  11.820  0.6482  0.3416 -0.0080
  232MOL0     C31224  11.853  10.649  11.852  0.4696 -0.1373  0.5510
  232MOL0     C31225  11.953  10.760  11.825 -0.4180  0.3769  1.4848
  232MOL0     C31226  11.950  10.873  11.929 -0.4505  0.0119 -0.1338
  232MOL0     C31227  12.052  10.976  11.884  0.1416  0.3191  0.4980
  232MOL0     C31228  12.194  10.940  11.925 -0.5379 -0.8380 -0.5447
  232MOL0    Cl31229  12.208  10.923  12.110  0.2471 -0.2001 -0.1598
  232MOL0     C31230  11.374  10.344  11.647 -0.6368 -0.3819  0.6343
  232MOL0     C31231  11.298  10.273  11.559 -0.1306  0.7727 -0.5461
  232MOL0     O31232  11.064  10.224  11.401 -0.5910  0.2477 -0.5986
  232MOL0     C31233  11.121   9.885  11.308  0.0717  0.2394 -0.3371
  232MOL0     C31234  11.084   9.784  11.223  0.8065  0.1175 -0.8491
  232MOL0     N31235  11.112   9.114  10.886 -0.5690 -0.2084  0.5837
  232MOL0     N31236  11.138   9.001  10.835 -0.7402  0.1315  0.1481
  232MOL0     C31237  11.680   9.386  10.531 -0.5085  0.0114 -0.6149
  232MOL0     C31238  11.650   9.517  10.562  0.0070 -0.4854 -0.2801
  232MOL0     C31239  11.405   9.847  10.771 -0.0657 -0.5792 -0.4929
  232MOL0     C31240  11.517   9.930  10.790 -0.3916 -0.4533  0.3526
  232MOL0     C31241  11.510  10.035  10.884  0.3662  0.1548  0.5389
  232MOL0     C31242  11.394  10.071  10.949  0.7221 -0.0735 -0.2970
  232MOL0     O31243  11.392  10.159  11.049 -0.0261 -0.4690 -0.0813
  232MOL0     C31244  11.506  10.186  11.139  0.4890  0.2192  0.4754
  232MOL0     C31245  11.568  10.064  11.214  0.4266  0.1277  0.7967
  232MOL0     C31246  11.474   9.972  11.294  0.8508 -0.2896  0.4103
  232MOL0     C31247  11.528   9.835  11.319 -0.2138 -0.2868 -1.3479
  232MOL0     C31248  11.553   9.759  11.202  0.5924  0.8166 -0.3552
  232MOL0     C31249  11.577   9.698  11.091  0.7081 -0.1638 -1.2554
  232MOL0     C31250  11.281   9.994  10.928  0.0396 -1.0561  0.1586
  232MOL0     C31251  11.287   9.882  10.843  1.1476  0.4576 -0.0950
  232MOL0     C31252  11.162   9.804  10.835  0.9601  0.0235 -0.2376
  232MOL0     H31253  11.389   9.468  10.772  0.4880 -0.1306  0.4032
  232MOL0     H31254  11.424   9.222  10.694 -1.1795  1.0969  2.9202
  232MOL0     H31255  11.703   9.197  10.326  2.5201  2.4141  1.4151
  232MOL0     H31256  11.815   9.167  10.460  1.1434 -0.9545 -2.2543
  232MOL0     H31257  11.789   8.941  10.483 -2.7183  0.0252  0.6412
  232MOL0     H31258  11.822   8.991  10.313 -1.3320 -0.6100 -1.2726
  232MOL0     H31259  11.687   8.835  10.274 -1.0080  0.0130  0.2436
  232MOL0     H31260  11.554   8.964  10.297  0.4372  2.2412  1.2082
  232MOL0     H31261  11.640   8.748  10.495 -0.3023  0.9211 -1.2722
  232MOL0     H31262  11.565   8.896  10.548  1.3258  4.2587 -0.7154
  232MOL0     H31263  11.382   8.839  10.355  1.7886 -1.9628 -2.9514
  232MOL0     H31264  11.461   8.690  10.347  0.3252 -1.8222  1.7457
  232MOL0     H31265  11.265   8.680  10.497 -1.4130  0.6604  3.9139
  232MOL0     H31266  11.414   8.648  10.589  0.7708 -0.9580 -0.3831
  232MOL0     H31267  11.385   8.920  10.643 -1.2002  0.4055  0.5857
  232MOL0     H31268  11.310   8.783  10.742 -4.3228 -2.2819 -1.4509
  232MOL0     H31269  11.193   8.933  10.497 -2.9691  1.1263 -0.4947
  232MOL0     H31270  11.094   8.837  10.616  0.1484  0.5250  0.8644
  232MOL0     H31271  11.106   9.196  10.562 -0.6720  2.8533  1.2865
  232MOL0     H31272  11.147   9.405  10.853  0.2212 -0.9551 -1.5121
  232MOL0     H31273  11.050   9.406  10.707  3.7918 -1.3431 -2.4078
  232MOL0     H31274  10.867   9.313  10.857 -3.5033  1.7288  3.5111
  232MOL0     H31275  10.979   9.333  10.995 -1.1349 -0.3357  0.8148
  232MOL0     H31276  10.804   9.508  10.931  0.9522 -0.2411  1.4651
  232MOL0     H31277  10.922   9.573  10.817 -4.1894 -0.6189 -1.6212
  232MOL0     H31278  11.081   9.608  10.985 -0.0118  1.1326 -1.1278
  232MOL0     H31279  10.983   9.520  11.115  2.4684  0.2638  0.3460
  232MOL0     H31280  10.801   9.921  11.091 -2.0994 -0.6305  3.1342
  232MOL0     H31281  10.884  10.112  11.225  2.2485  1.2712 -0.1339
  232MOL0     H31282  11.230  10.003  11.753 -1.3534  0.8940  1.1537
  232MOL0     H31283  11.385  10.108  11.907  0.1623 -1.5132 -0.2880
  232MOL0     H31284  11.440  10.551  11.787 -1.9348 -3.1836  1.0537
  232MOL0     H31285  11.483  10.535  11.967  1.3487 -2.2269  1.6537
  232MOL0     H31286  11.714  10.470  11.905  0.5467  0.6406 -0.2131
  232MOL0     H31287  11.683  10.469  11.738 -1.7186  0.8087 -1.1849
  232MOL0     H31288  11.692  10.702  11.718  1.8166  0.6024 -0.0611
  232MOL0     H31289  11.643  10.729  11.884 -0.6964 -0.4095 -0.4921
  232MOL0     H31290  11.886  10.574  11.779 -1.1853  1.6112 -2.1814
  232MOL0     H31291  11.876  10.614  11.953  3.5842 -0.9661 -0.3345
  232MOL0     H31292  11.941  10.799  11.724 -2.3228 -0.0679  1.5038
  232MOL0     H31293  12.051  10.711  11.821  0.0298  1.3349 -0.1095
  232MOL0     H31294  11.851  10.918  11.931 -0.3140  0.3116  1.6174
  232MOL0     H31295  11.975  10.829  12.026  0.3970 -2.7789 -1.5181
  232MOL0     H31296  12.031  11.077  11.921 -0.4959  0.0084  1.0072
  232MOL0     H31297  12.026  10.987  11.779  1.6524  1.2189  0.1879
  232MOL0     H31298  12.234  10.856  11.868 -1.2138 -0.8241 -1.0574
  232MOL0     H31299  12.265  11.022  11.914  2.4548 -2.8833  1.8678
  232MOL0     H31300  11.428  10.433  11.614 -0.7170 -1.0377 -1.4294
  232MOL0     H31301  11.288  10.297  11.454  0.4207  2.1448 -0.3162
  232MOL0     H31302  11.206   9.866  11.373  0.0299  3.2169  0.7313
  232MOL0     H31303  11.156   9.702  11.228  0.9505  0.2152 -1.2717
  232MOL0     H31304  11.763   9.378  10.461 -1.5981 -1.0037 -1.8460
  232MOL0     H31305  11.701   9.601  10.515 -1.0668  0.7012  0.5945
  232MOL0     H31306  11.611   9.891  10.753 -0.4323 -0.6644  0.4636
  232MOL0     H31307  11.604  10.084  10.907  2.4618 -2.5186 -1.7040
  232MOL0     H31308  11.478  10.249  11.223  2.4842 -1.2997  2.4218
  232MOL0     H31309  11.586  10.234  11.082 -2.3765  3.5142 -1.0970
  232MOL0     H31310  11.641  10.102  11.286  2.0730  1.8847 -1.6458
  232MOL0     H31311  11.612   9.997  11.139 -0.8496  1.1100 -0.9101
  232MOL0     H31312  11.378   9.955  11.246  2.2997 -4.2506 -1.5419
  232MOL0     H31313  11.446  10.025  11.385 -0.0236  1.0923 -0.6286
  232MOL0     H31314  11.615   9.833  11.385 -1.7379 -2.2579  0.7516
  232MOL0     H31315  11.455   9.786  11.385 -1.8625  1.7084 -1.5796
  232MOL0     H31316  11.593   9.660  10.992 -0.6337 -0.3461 -1.4255
  232MOL0     H31317  11.191  10.009  10.986  0.0657  0.2782 -0.1306
  232MOL0     H31318  11.099   9.817  10.746 -2.9502 -2.0089  1.9462
  232MOL0     H31319  11.185   9.698  10.851  3.5573  0.8379  2.1735
  232MOL0     H31320  11.093   9.835  10.915  2.0473  2.0409 -0.0291
  233MOL0     O31321   7.134   5.403   9.959 -0.0609  0.2753 -0.0644
  233MOL0     C31322   7.058   5.381  10.054 -0.6197 -0.1113  0.6270
  233MOL0     O31323   7.050   5.255  10.121 -0.6077 -0.6531  0.7956
  233MOL0     C31324   7.122   5.157  10.063 -0.6157  0.5887 -0.1092
  233MOL0     C31325   7.252   5.144  10.108  1.1386 -0.2133 -0.5548
  233MOL0     C31326   7.323   5.042  10.044 -0.1532  0.1477 -0.4805
  233MOL0     C31327   7.280   4.969   9.934 -0.2089  0.4171  0.0956
  233MOL0     O31328   7.367   4.882   9.867  0.2191  0.2478  0.2198
  233MOL0     C31329   7.339   4.812   9.750 -0.3963 -0.2684 -0.3858
  233MOL0     C31330   7.463   4.729   9.709  0.4016  0.6729  0.0805
  233MOL0     C31331   7.567   4.817   9.641 -0.5368 -0.4777  0.5025
  233MOL0     C31332   7.536   4.837   9.494  0.5383 -0.0764 -0.2219
  233MOL0     C31333   7.617   4.952   9.434 -0.3672  0.1384  0.4372
  233MOL0     C31334   7.709   4.896   9.318 -0.8428 -0.7356 -0.2326
  233MOL0     C31335   7.861   4.887   9.366 -0.3033 -0.2150 -0.1749
  233MOL0     C31336   7.958   4.828   9.250  0.4270 -0.1594 -0.7566
  233MOL0     N31337   8.088   4.783   9.292 -0.3243  1.0014  0.3952
  233MOL0     C31338   8.198   4.863   9.329  0.6078 -0.0165 -0.5581
  233MOL0     C31339   8.290   4.774   9.347  0.0874  0.0900  0.3313
  233MOL0     C31340   8.437   4.789   9.374  1.2578  0.6809 -0.6288
  233MOL0     C31341   8.495   4.929   9.391 -0.5313 -0.1334  0.3028
  233MOL0     C31342   8.475   5.002   9.521  0.4517  0.0388 -0.9727
  233MOL0     C31343   8.589   5.102   9.545 -0.2339  0.6513  0.0933
  233MOL0     O31344   8.719   5.033   9.546 -0.2776 -0.1734 -0.2739
  233MOL0     C31345   8.828   5.097   9.599  0.6696 -0.7133 -0.7629
  233MOL0     C31346   8.952   5.052   9.565  0.6629 -0.7041  0.2048
  233MOL0     C31347   9.072   5.116   9.612 -0.8479  0.8361  0.6444
  233MOL0     C31348   9.073   5.225   9.705 -0.3635 -0.5852 -0.3958
  233MOL0     C31349   9.192   5.286   9.753  1.0861  0.2802  0.2879
  233MOL0     O31350   9.173   5.408   9.819 -0.2840 -0.1994 -0.2021
  233MOL0     C31351   9.289   5.471   9.853 -0.0849  0.6405  0.2878
  233MOL0     C31352   9.394   5.507   9.757 -0.3257  0.6801  0.1280
  233MOL0     C31353   9.518   5.555   9.799  0.2450 -0.3032  0.1627
  233MOL0     C31354   9.535   5.587   9.931 -0.4961 -0.8547 -0.5611
  233MOL0     O31355   9.653   5.648   9.966 -0.4525  0.7617  0.1788
  233MOL0     C31356   9.652   5.713  10.091  0.4977  0.4822 -0.4632
  233MOL0     C31357   9.784   5.785  10.132 -0.5523  0.3524  0.0935
  233MOL0     C31358   9.874   5.677  10.173 -0.1277  0.0223  0.0904
  233MOL0     C31359  10.013   5.724  10.200 -0.5490 -0.4677 -0.5108
  233MOL0     C31360  10.087   5.614  10.275  0.6310 -0.4632 -0.3802
  233MOL0     C31361  10.234   5.648  10.283 -0.3067 -0.0681  0.1970
  233MOL0     C31362  10.318   5.531  10.338 -0.2518 -0.0839 -0.3122
  233MOL0     C31363  10.469   5.552  10.322  0.5441  0.3963 -0.0582
  233MOL0    Cl31364  10.495   5.707  10.417  0.2926  0.2178 -0.0143
  233MOL0     C31365   9.429   5.554  10.025 -0.2009  1.2670  0.1971
  233MOL0     C31366   9.313   5.503   9.986 -0.3242  1.0566  0.1204
  233MOL0     O31367   9.298   5.230   9.746  0.3243  0.5716 -0.1633
  233MOL0     C31368   8.949   5.270   9.736  0.5154 -0.1747 -0.3731
  233MOL0     C31369   8.835   5.208   9.688  0.3102  0.3584 -0.2066
  233MOL0     N31370   8.236   4.651   9.320 -0.1264  0.4358 -0.8352
  233MOL0     N31371   8.116   4.652   9.288 -0.2898  0.0561 -0.2406
  233MOL0     C31372   7.151   4.992   9.886 -0.2321 -0.0038 -0.4137
  233MOL0     C31373   7.070   5.080   9.957 -0.5620 -0.3349 -0.7578
  233MOL0     C31374   6.949   5.470  10.066  0.2210  0.3483 -0.2636
  233MOL0     C31375   6.832   5.425  10.129 -0.0918 -0.3677  0.1547
  233MOL0     C31376   6.732   5.516  10.171 -0.0545  0.0166  0.5046
  233MOL0     C31377   6.746   5.648  10.132 -0.5813  1.1083  0.1271
  233MOL0     O31378   6.638   5.727  10.155 -0.8325 -0.3994  0.7265
  233MOL0     C31379   6.649   5.859  10.101 -0.2424  0.4405  0.6756
  233MOL0     C31380   6.524   5.936  10.129  0.2177 -0.9445  0.6417
  233MOL0     C31381   6.411   5.897  10.037  0.4644 -0.0602 -0.7089
  233MOL0     C31382   6.270   5.968  10.079 -0.3848  0.8373  0.0973
  233MOL0     C31383   6.280   6.111  10.092  0.3926 -1.5104  0.0704
  233MOL0     C31384   6.268   6.236  10.105  0.3670  0.4583 -0.5933
  233MOL0     C31385   6.866   5.692  10.078  0.5363  0.2600  0.8278
  233MOL0     C31386   6.969   5.607  10.034  0.0665  0.1092  0.3592
  233MOL0     C31387   7.096   5.675   9.987 -0.4286  0.1325  0.3095
  233MOL0     H31388   7.292   5.195  10.196  3.1106 -2.7798  0.1689
  233MOL0     H31389   7.421   5.022  10.088 -0.3748 -2.8644 -1.1470
  233MOL0     H31390   7.258   4.745   9.779 -2.3530  1.5261 -1.4435
  233MOL0     H31391   7.301   4.878   9.672 -0.5141  0.0851 -0.0368
  233MOL0     H31392   7.430   4.648   9.644  1.6267 -1.7299  2.2743
  233MOL0     H31393   7.529   4.684   9.783  3.2417  1.4071 -1.8530
  233MOL0     H31394   7.665   4.771   9.651  0.5437  1.3176 -1.1656
  233MOL0     H31395   7.560   4.908   9.702  0.9814 -0.2334  0.3317
  233MOL0     H31396   7.548   4.747   9.434 -0.0566 -0.4335  0.1871
  233MOL0     H31397   7.431   4.856   9.473 -0.1279 -4.2183 -1.5366
  233MOL0     H31398   7.552   5.026   9.387  2.5069  2.2250 -0.5901
  233MOL0     H31399   7.670   5.011   9.509  1.4638  0.7272 -1.2293
  233MOL0     H31400   7.668   4.814   9.258 -3.3358  0.0255  0.3309
  233MOL0     H31401   7.722   4.979   9.247 -1.8415 -0.8037 -0.5103
  233MOL0     H31402   7.856   4.809   9.443  2.2168  2.0299  2.5009
  233MOL0     H31403   7.903   4.976   9.412  0.5618  0.9357 -2.9876
  233MOL0     H31404   7.894   4.753   9.203  1.5449 -2.3493  1.0423
  233MOL0     H31405   7.983   4.903   9.174  4.1783 -0.3693  0.0519
  233MOL0     H31406   8.197   4.971   9.316 -0.0868  0.1532  0.7174
  233MOL0     H31407   8.474   4.728   9.458 -0.8083 -0.0457 -0.1777
  233MOL0     H31408   8.475   4.742   9.283  3.5404  1.4886 -0.1613
  233MOL0     H31409   8.602   4.919   9.371 -0.5253  1.7782 -0.8962
  233MOL0     H31410   8.452   4.987   9.308  0.5530 -2.8897 -2.4039
  233MOL0     H31411   8.479   4.933   9.606  0.6435 -1.2835 -2.0263
  233MOL0     H31412   8.375   5.046   9.530  1.0481  1.1944  0.2898
  233MOL0     H31413   8.557   5.158   9.633  0.6600  1.4056 -0.0560
  233MOL0     H31414   8.598   5.176   9.466  3.0807 -0.4169 -0.6926
  233MOL0     H31415   8.951   4.970   9.494  3.2044  0.0690 -0.8302
  233MOL0     H31416   9.172   5.088   9.582 -1.0546  1.5149 -0.7670
  233MOL0     H31417   9.373   5.480   9.654 -0.2690  3.7291 -0.7824
  233MOL0     H31418   9.614   5.558   9.749 -0.1635  3.1575 -0.6200
  233MOL0     H31419   9.575   5.789  10.103 -0.2255 -0.4358  0.9057
  233MOL0     H31420   9.632   5.642  10.172  1.0716 -0.5169 -1.1704
  233MOL0     H31421   9.824   5.848  10.052  1.2342 -1.6781 -0.7214
  233MOL0     H31422   9.762   5.848  10.218  0.6345  0.8752  0.0386
  233MOL0     H31423   9.830   5.637  10.265 -2.9797  2.9338  0.1951
  233MOL0     H31424   9.886   5.601  10.096 -0.4588  0.0509  0.0127
  233MOL0     H31425  10.007   5.814  10.261  1.0940 -0.2094 -0.6935
  233MOL0     H31426  10.053   5.744  10.100 -0.4423  1.5591 -0.1047
  233MOL0     H31427  10.062   5.522  10.222  2.0407 -1.2021  0.1775
  233MOL0     H31428  10.057   5.606  10.379  1.1574 -1.0118 -0.2634
  233MOL0     H31429  10.265   5.667  10.180 -4.1669 -1.9828 -1.5317
  233MOL0     H31430  10.237   5.739  10.343 -1.3285 -1.0203  1.7762
  233MOL0     H31431  10.295   5.432  10.297  0.5380 -0.5824  0.4264
  233MOL0     H31432  10.300   5.520  10.445  1.7234 -0.8896 -0.0078
  233MOL0     H31433  10.528   5.467  10.358 -0.7395 -0.3570  0.3447
  233MOL0     H31434  10.498   5.568  10.218  0.9179  3.1801  0.4107
  233MOL0     H31435   9.436   5.557  10.134 -0.4829 -0.2541  0.2812
  233MOL0     H31436   9.240   5.466  10.057  1.0817 -0.1612  0.9743
  233MOL0     H31437   8.927   5.363   9.788 -0.8848  0.1993 -1.5637
  233MOL0     H31438   8.739   5.251   9.717  1.4085  0.5127  3.8735
  233MOL0     H31439   7.114   4.932   9.803 -3.2352  0.3596  0.5341
  233MOL0     H31440   6.970   5.102   9.923  0.6992  0.2085 -4.6333
  233MOL0     H31441   6.821   5.320  10.157  2.0191 -1.4696 -2.6488
  233MOL0     H31442   6.645   5.488  10.229 -0.9045  0.9702 -0.2610
  233MOL0     H31443   6.655   5.857   9.991  0.4983 -3.2773  0.6747
  233MOL0     H31444   6.740   5.911  10.132 -1.3257  2.5886  0.4251
  233MOL0     H31445   6.550   6.039  10.102  0.0048 -1.0525  0.0024
  233MOL0     H31446   6.505   5.923  10.236  0.7474 -1.6893  0.6557
  233MOL0     H31447   6.413   5.788  10.031 -0.1530 -0.1834  0.9183
  233MOL0     H31448   6.422   5.933   9.934 -1.0550 -1.4398 -1.3968
  233MOL0     H31449   6.198   5.936  10.002  1.3494 -3.0507 -0.1217
  233MOL0     H31450   6.235   5.914  10.167 -1.1257 -0.1462 -0.7762
  233MOL0     H31451   6.272   6.339  10.133  0.1240  0.2895  0.0780
  233MOL0     H31452   6.889   5.790  10.038  2.6770 -1.4696 -2.6011
  233MOL0     H31453   7.123   5.647   9.884 -3.3860  1.3727 -0.9169
  233MOL0     H31454   7.076   5.783   9.987 -1.3766 -0.0167  1.9195
  233MOL0     H31455   7.180   5.648  10.051  1.8834 -0.3979 -2.6944
  234MOL0     O31456   9.555   0.219   0.340 -0.3508 -0.0608  0.3673
  234MOL0     C31457   9.533   0.286   0.238  0.8915  1.4822  0.5236
  234MOL0     O31458   9.486   0.226   0.118 -0.1191  0.1976  0.3459
  234MOL0     C31459   9.454   0.087   0.103  1.3623  0.0137  1.2944
  234MOL0     C31460   9.548   0.001   0.053  0.3349 -0.5696  0.2151
  234MOL0     C31461   9.512  -0.136   0.023  1.5104 -0.7649  0.0617
  234MOL0     C31462   9.389  -0.184   0.066 -0.3317 -0.1054  0.4705
  234MOL0     O31463   9.357  -0.309   0.032 -0.3447  0.2195  0.0391
  234MOL0     C31464   9.236  -0.375   0.084  0.2879 -1.1227 -0.4969
  234MOL0     C31465   9.243  -0.519   0.039 -0.0353  0.6477  0.1811
  234MOL0     C31466   9.240  -0.528  -0.116  1.1168  0.7933  0.0300
  234MOL0     C31467   9.253  -0.675  -0.169  0.8181 -0.0288  0.8127
  234MOL0     C31468   9.312  -0.685  -0.310  0.5374  1.0484  0.1461
  234MOL0     C31469   9.213  -0.618  -0.414 -0.6458 -0.3811 -0.0098
  234MOL0     C31470   9.266  -0.634  -0.553  0.3639 -0.1597  0.5497
  234MOL0     C31471   9.206  -0.755  -0.634  0.4015 -0.5666 -0.8845
  234MOL0     N31472   9.291  -0.767  -0.747 -0.7483  0.7031 -0.0028
  234MOL0     C31473   9.285  -0.680  -0.856  0.4165  0.6299  0.4954
  234MOL0     C31474   9.386  -0.722  -0.934  0.1302  0.0195 -0.8750
  234MOL0     C31475   9.436  -0.650  -1.058 -0.0546  0.0001 -0.0594
  234MOL0     C31476   9.337  -0.661  -1.176  0.1689  0.2352  0.1137
  234MOL0     C31477   9.336  -0.809  -1.239  0.5768 -0.2825  0.0875
  234MOL0     C31478   9.245  -0.907  -1.170  0.1234  0.2914 -0.2865
  234MOL0     O31479   9.114  -0.848  -1.149 -0.4505 -0.8365  0.1764
  234MOL0     C31480   9.029  -0.872  -1.251  0.6880  0.3320 -0.9705
  234MOL0     C31481   9.006  -0.780  -1.351  0.0969 -0.5020 -0.4011
  234MOL0     C31482   8.921  -0.811  -1.461 -0.0009  0.4305 -0.0945
  234MOL0     C31483   8.859  -0.932  -1.470 -0.5717 -0.1766  0.0533
  234MOL0     C31484   8.771  -0.974  -1.578 -0.5588 -0.5493 -0.3721
  234MOL0     O31485   8.688  -1.079  -1.557  0.4546  0.6344 -0.2864
  234MOL0     C31486   8.612  -1.130  -1.660 -0.6733  0.0695 -0.5356
  234MOL0     C31487   8.660  -1.147  -1.794 -0.6444  0.2239  0.0165
  234MOL0     C31488   8.584  -1.209  -1.888 -0.2830 -0.1774  0.6695
  234MOL0     C31489   8.449  -1.235  -1.859 -0.2194 -0.1959  0.9144
  234MOL0     O31490   8.353  -1.269  -1.946 -0.3586 -0.2668  1.0086
  234MOL0     C31491   8.364  -1.272  -2.090  0.0018 -1.0488  0.2458
  234MOL0     C31492   8.247  -1.341  -2.166  0.9030  0.7644 -1.0096
  234MOL0     C31493   8.256  -1.331  -2.320 -1.1885 -0.5325 -0.3434
  234MOL0     C31494   8.169  -1.428  -2.386 -0.2822  0.7055  0.0949
  234MOL0     C31495   8.195  -1.441  -2.537 -0.7708 -0.3674  0.6844
  234MOL0     C31496   8.172  -1.300  -2.613  0.3010 -0.1170 -0.2376
  234MOL0     C31497   8.168  -1.316  -2.762  0.3540 -0.0448  0.4819
  234MOL0     C31498   8.301  -1.274  -2.833 -0.1206 -1.1125  0.6719
  234MOL0    Cl31499   8.429  -1.393  -2.785  0.1286 -0.0754 -0.4796
  234MOL0     C31500   8.406  -1.225  -1.730 -0.0464 -0.8180 -0.7605
  234MOL0     C31501   8.487  -1.187  -1.628  1.3981  0.3418  0.3447
  234MOL0     O31502   8.781  -0.903  -1.678 -0.0046  0.0831  0.1770
  234MOL0     C31503   8.882  -1.029  -1.379 -0.3101  0.9590  0.0043
  234MOL0     C31504   8.963  -1.000  -1.272 -0.5301 -0.7806 -0.7748
  234MOL0     N31505   9.448  -0.822  -0.873 -0.6787  0.5142 -1.0533
  234MOL0     N31506   9.403  -0.846  -0.755  0.3736 -0.2003 -0.0424
  234MOL0     C31507   9.295  -0.100   0.118  0.5486 -0.8524 -0.1574
  234MOL0     C31508   9.324   0.034   0.137  0.4384 -0.7387 -0.4234
  234MOL0     C31509   9.538   0.432   0.247 -0.8508  0.4070 -0.5634
  234MOL0     C31510   9.616   0.510   0.161 -0.2557  1.0892  0.3283
  234MOL0     C31511   9.625   0.644   0.179 -0.9184  0.3327  0.1605
  234MOL0     C31512   9.565   0.709   0.283  0.0795 -0.1012  0.4348
  234MOL0     O31513   9.598   0.838   0.316 -0.4235  0.1062 -0.6230
  234MOL0     C31514   9.629   0.869   0.450 -0.5032 -0.9334  0.1556
  234MOL0     C31515   9.775   0.819   0.481 -0.7927 -0.2975  0.3066
  234MOL0     C31516   9.870   0.873   0.371  0.0481 -0.3252  0.5736
  234MOL0     C31517  10.019   0.887   0.412  1.0125 -0.6110  0.6660
  234MOL0     C31518  10.077   0.770   0.474  0.1915  0.0868 -0.5238
  234MOL0     C31519  10.121   0.667   0.529 -0.1122 -0.1649 -0.8838
  234MOL0     C31520   9.483   0.637   0.368  0.0023  0.2525 -0.7858
  234MOL0     C31521   9.467   0.496   0.351 -0.0393 -0.1685 -0.0820
  234MOL0     C31522   9.359   0.412   0.426 -0.5332  0.4225 -0.4757
  234MOL0     H31523   9.645   0.038   0.021 -0.0839  1.2164  0.9028
  234MOL0     H31524   9.574  -0.202  -0.036  0.2847 -2.4522  0.5967
  234MOL0     H31525   9.226  -0.364   0.193  3.5964 -0.8427 -0.1180
  234MOL0     H31526   9.148  -0.329   0.039  1.1677 -0.5972 -1.7311
  234MOL0     H31527   9.150  -0.561   0.079 -0.6434  3.8684  2.5490
  234MOL0     H31528   9.336  -0.566   0.071 -0.8789 -2.5019 -1.5851
  234MOL0     H31529   9.326  -0.482  -0.166  1.7694 -2.6853 -2.4181
  234MOL0     H31530   9.143  -0.489  -0.149  0.7613  0.4971  0.7022
  234MOL0     H31531   9.299  -0.758  -0.113  1.1971  0.4967  1.2831
  234MOL0     H31532   9.148  -0.705  -0.176  0.9705 -0.7783  1.5135
  234MOL0     H31533   9.410  -0.636  -0.310  2.1223 -1.9007  0.6306
  234MOL0     H31534   9.316  -0.787  -0.351 -0.1363  1.4886 -1.0877
  234MOL0     H31535   9.115  -0.667  -0.421 -0.4333 -0.6786 -1.1439
  234MOL0     H31536   9.204  -0.514  -0.381 -2.4325 -0.7101  0.6648
  234MOL0     H31537   9.374  -0.630  -0.568  0.1242  2.3458 -1.2330
  234MOL0     H31538   9.229  -0.554  -0.618 -0.8419 -2.4921 -1.8143
  234MOL0     H31539   9.214  -0.844  -0.570 -1.3798 -0.6624 -0.7591
  234MOL0     H31540   9.105  -0.727  -0.664 -0.1414 -2.9440 -1.4287
  234MOL0     H31541   9.220  -0.594  -0.875  2.7934  2.3943 -0.1441
  234MOL0     H31542   9.447  -0.545  -1.030 -0.6705 -0.5598  2.5344
  234MOL0     H31543   9.535  -0.694  -1.076  0.6804  1.1518  0.9638
  234MOL0     H31544   9.248  -0.615  -1.133  0.8155  0.1545  1.6091
  234MOL0     H31545   9.368  -0.588  -1.252  2.0259 -0.8302 -0.2254
  234MOL0     H31546   9.437  -0.850  -1.244  0.9105  0.6514 -1.3234
  234MOL0     H31547   9.301  -0.795  -1.341 -1.5647 -3.9308  0.1450
  234MOL0     H31548   9.283  -0.929  -1.070 -1.1464 -4.8308 -0.6797
  234MOL0     H31549   9.235  -1.007  -1.212 -0.5514 -0.2005  1.0001
  234MOL0     H31550   9.061  -0.687  -1.340  2.3805 -1.8215  0.0599
  234MOL0     H31551   8.915  -0.726  -1.528 -0.6783 -1.1323 -2.1244
  234MOL0     H31552   8.763  -1.120  -1.815 -0.9371 -0.2478 -2.2462
  234MOL0     H31553   8.631  -1.207  -1.986  0.1587  2.8107  0.8567
  234MOL0     H31554   8.364  -1.166  -2.118 -3.7513 -1.3007 -1.2926
  234MOL0     H31555   8.457  -1.318  -2.125  1.0459 -0.0737  1.6412
  234MOL0     H31556   8.270  -1.445  -2.143  0.9102  0.1590 -3.4200
  234MOL0     H31557   8.146  -1.321  -2.128  1.0384 -0.4852  0.0728
  234MOL0     H31558   8.241  -1.226  -2.346 -0.5301 -0.3951 -0.1664
  234MOL0     H31559   8.359  -1.348  -2.351 -0.2418 -0.8635  2.7128
  234MOL0     H31560   8.063  -1.404  -2.376 -0.8522 -2.1153  2.0245
  234MOL0     H31561   8.189  -1.530  -2.352  1.8845  1.8188  2.5332
  234MOL0     H31562   8.119  -1.515  -2.565  0.6201 -1.6842  0.2591
  234MOL0     H31563   8.288  -1.487  -2.570 -1.5402 -1.4094 -0.0792
  234MOL0     H31564   8.078  -1.264  -2.570 -2.3888 -1.0846 -4.6970
  234MOL0     H31565   8.246  -1.225  -2.584 -0.5934 -0.0060  1.9885
  234MOL0     H31566   8.097  -1.252  -2.815 -0.1647 -0.8511  0.1658
  234MOL0     H31567   8.145  -1.423  -2.774 -0.7071 -0.1112  2.7415
  234MOL0     H31568   8.279  -1.272  -2.940 -2.1069 -2.8697  0.9900
  234MOL0     H31569   8.327  -1.171  -2.805 -2.1527  0.0378 -1.3509
  234MOL0     H31570   8.300  -1.244  -1.719 -0.5697  1.6627 -1.0589
  234MOL0     H31571   8.430  -1.180  -1.536 -1.6954  1.8978 -1.5278
  234MOL0     H31572   8.814  -1.113  -1.368  1.1415 -0.0168  2.4379
  234MOL0     H31573   8.977  -1.079  -1.199  1.5757  2.0473  2.1813
  234MOL0     H31574   9.195  -0.137   0.141  1.1335 -3.2619 -1.1726
  234MOL0     H31575   9.246   0.094   0.183  0.7569  0.7725 -1.7620
  234MOL0     H31576   9.669   0.469   0.076 -0.8077  0.6713  0.1833
  234MOL0     H31577   9.686   0.704   0.111 -0.9008  1.9144  1.4998
  234MOL0     H31578   9.552   0.838   0.522 -1.1082  1.5677  0.6921
  234MOL0     H31579   9.631   0.978   0.462 -0.0813 -0.8681 -0.4711
  234MOL0     H31580   9.774   0.710   0.481  0.2395 -0.3218 -0.1503
  234MOL0     H31581   9.810   0.863   0.575  0.7232 -0.3064 -0.2314
  234MOL0     H31582   9.833   0.975   0.354  0.0574 -0.5569 -0.9072
  234MOL0     H31583   9.853   0.817   0.279 -1.5051 -0.3574  0.8491
  234MOL0     H31584  10.090   0.909   0.332 -0.3306  2.2455  0.1368
  234MOL0     H31585  10.027   0.969   0.484 -0.9139 -0.8065  1.1555
  234MOL0     H31586  10.162   0.570   0.549 -2.5500 -0.6634  2.8604
  234MOL0     H31587   9.428   0.678   0.452  2.3362  0.3898  0.7503
  234MOL0     H31588   9.339   0.315   0.381  3.4109 -1.9340  2.2480
  234MOL0     H31589   9.396   0.395   0.528  2.3637  1.3358 -1.2893
  234MOL0     H31590   9.266   0.466   0.445 -1.9083 -1.3420 -1.8546
  235MOL0     O31591   4.957   6.966  11.045  0.1326  0.1066 -0.3904
  235MOL0     C31592   5.015   6.879  11.103  0.0909 -0.1591  0.3711
  235MOL0     O31593   4.964   6.760  11.128  0.2321 -0.6933 -0.6330
  235MOL0     C31594   4.839   6.726  11.083  0.1795  0.3152  0.7200
  235MOL0     C31595   4.799   6.744  10.953 -0.3546  0.5258  0.3068
  235MOL0     C31596   4.673   6.709  10.911  0.0524  0.2402 -0.3120
  235MOL0     C31597   4.589   6.649  10.996  0.2216  0.1937  0.1441
  235MOL0     O31598   4.470   6.612  10.950  0.4086 -0.0375 -0.3161
  235MOL0     C31599   4.355   6.607  11.036 -0.4850 -0.2021  0.5759
  235MOL0     C31600   4.228   6.680  10.984 -0.4962 -0.1185  0.3414
  235MOL0     C31601   4.101   6.644  11.064  0.0848 -0.2906  0.8392
  235MOL0     C31602   3.987   6.674  10.973 -0.5356 -1.0222  0.9283
  235MOL0     C31603   3.856   6.635  11.050  0.1090 -1.1670  0.5523
  235MOL0     C31604   3.727   6.682  10.996  0.9521  0.1741  0.0806
  235MOL0     C31605   3.720   6.841  10.969 -0.1346 -0.5366 -0.4231
  235MOL0     C31606   3.588   6.882  10.907 -0.1388 -0.1099  0.8095
  235MOL0     N31607   3.483   6.872  11.010 -0.3806  0.2297 -0.4283
  235MOL0     C31608   3.465   6.937  11.126  1.3883  0.4395 -0.3659
  235MOL0     C31609   3.346   6.893  11.175  0.3137  0.4969 -0.1244
  235MOL0     C31610   3.271   6.927  11.297  0.4423  0.6607  0.1448
  235MOL0     C31611   3.307   6.835  11.413 -0.0109 -0.5685  0.6759
  235MOL0     C31612   3.259   6.887  11.543 -0.0426  0.7461  0.7477
  235MOL0     C31613   3.310   6.810  11.670  0.6342 -0.5931  0.0193
  235MOL0     O31614   3.418   6.885  11.730 -0.6144 -0.0825  0.8147
  235MOL0     C31615   3.543   6.820  11.750 -0.6818 -0.4835  0.1754
  235MOL0     C31616   3.638   6.884  11.837  0.2752  0.3018 -0.5076
  235MOL0     C31617   3.759   6.818  11.873  0.3750 -0.0387 -0.0508
  235MOL0     C31618   3.794   6.696  11.828  0.6914  0.4332  0.9052
  235MOL0     C31619   3.917   6.635  11.865 -1.4087  0.8968 -0.6732
  235MOL0     O31620   3.978   6.685  11.988  0.1841  0.7227  0.2475
  235MOL0     C31621   4.097   6.632  12.036  0.6197 -0.7747  0.4217
  235MOL0     C31622   4.177   6.715  12.124  0.2739 -0.2503  0.7739
  235MOL0     C31623   4.296   6.666  12.176  0.7497 -0.4514 -0.9174
  235MOL0     C31624   4.343   6.539  12.166  0.3324  0.3735  0.6839
  235MOL0     O31625   4.451   6.484  12.236 -0.0353 -0.4044  0.2362
  235MOL0     C31626   4.547   6.564  12.297  0.4980 -0.1903 -0.6754
  235MOL0     C31627   4.651   6.463  12.335  0.3504 -0.2355  0.5188
  235MOL0     C31628   4.753   6.516  12.437  0.5605  0.2564 -0.5878
  235MOL0     C31629   4.831   6.631  12.375 -0.5582 -0.3933 -0.4343
  235MOL0     C31630   4.953   6.662  12.468  0.5981 -0.2382  0.7102
  235MOL0     C31631   5.010   6.802  12.445  0.4846 -0.0701  0.2975
  235MOL0     C31632   5.121   6.849  12.538  0.3337  0.6387  0.3408
  235MOL0     C31633   5.192   6.984  12.492 -0.4029  0.6603  0.2197
  235MOL0    Cl31634   5.082   7.125  12.551  0.0511 -0.3699  0.0807
  235MOL0     C31635   4.254   6.449  12.094 -0.2973  0.4622  0.1097
  235MOL0     C31636   4.134   6.494  12.031 -0.3243  0.1346  0.3873
  235MOL0     O31637   3.962   6.548  11.797  0.4154  0.0667  0.7411
  235MOL0     C31638   3.710   6.629  11.734  0.2043 -0.4902  0.0127
  235MOL0     C31639   3.583   6.693  11.708 -0.1065  0.0368  0.3268
  235MOL0     N31640   3.300   6.790  11.093 -0.2308  0.1842  0.0955
  235MOL0     N31641   3.387   6.772  11.001  0.6476  0.0994  0.0814
  235MOL0     C31642   4.630   6.610  11.123  0.4353 -0.0760  0.6167
  235MOL0     C31643   4.759   6.651  11.169 -0.1073 -0.0160  0.7464
  235MOL0     C31644   5.164   6.903  11.125 -0.5720 -0.7025 -0.9269
  235MOL0     C31645   5.239   6.798  11.171 -0.3838  0.2656  0.3766
  235MOL0     C31646   5.378   6.799  11.194  0.4235  0.0463 -0.1510
  235MOL0     C31647   5.437   6.921  11.181  1.0953  0.1340  0.5566
  235MOL0     O31648   5.567   6.923  11.224  0.0200 -0.4294  0.4380
  235MOL0     C31649   5.655   6.938  11.109 -0.0657 -0.3663  1.0290
  235MOL0     C31650   5.737   6.809  11.079 -0.0928 -0.6161 -0.1732
  235MOL0     C31651   5.848   6.805  11.180 -0.2184  0.4380  0.6855
  235MOL0     C31652   5.930   6.675  11.165 -0.4684  0.7821 -0.0723
  235MOL0     C31653   6.033   6.704  11.063  0.0523  0.1467  0.1497
  235MOL0     C31654   6.115   6.729  10.968 -0.7150  0.2696 -1.1173
  235MOL0     C31655   5.371   7.039  11.141  0.4422 -1.0442 -1.9885
  235MOL0     C31656   5.235   7.029  11.115 -0.1061 -0.7673 -0.0859
  235MOL0     C31657   5.164   7.160  11.091  0.1401 -0.2169  0.6943
  235MOL0     H31658   4.865   6.789  10.879 -1.5665 -0.0495 -1.1865
  235MOL0     H31659   4.638   6.746  10.815 -1.9677 -0.0224  0.2805
  235MOL0     H31660   4.325   6.506  11.066  0.0109 -0.1333  1.3016
  235MOL0     H31661   4.382   6.660  11.127  0.6106 -0.0785  0.1889
  235MOL0     H31662   4.218   6.654  10.878  1.9329  1.0414 -0.2434
  235MOL0     H31663   4.238   6.788  10.981 -0.1109 -0.1421  0.6427
  235MOL0     H31664   4.102   6.707  11.153  0.7073 -0.2858  0.8326
  235MOL0     H31665   4.101   6.536  11.084  0.6435 -0.8270 -1.6940
  235MOL0     H31666   3.987   6.781  10.949  0.1964 -0.6514  2.4069
  235MOL0     H31667   3.987   6.617  10.880 -4.4718 -1.7409  1.1961
  235MOL0     H31668   3.836   6.529  11.064 -0.3210 -0.9071  2.1310
  235MOL0     H31669   3.870   6.675  11.151  1.0241  1.6741 -0.5903
  235MOL0     H31670   3.703   6.622  10.908 -2.5962  2.0845 -0.4504
  235MOL0     H31671   3.647   6.659  11.066  1.0093 -0.3100 -0.0139
  235MOL0     H31672   3.792   6.879  10.897 -2.1260 -0.1515 -2.3204
  235MOL0     H31673   3.737   6.890  11.066  0.4432 -1.9674  0.2254
  235MOL0     H31674   3.595   6.983  10.867  1.0319 -0.4146  0.2005
  235MOL0     H31675   3.561   6.821  10.820 -0.9652  2.1830 -0.6168
  235MOL0     H31676   3.523   7.009  11.182 -0.8841 -0.3431  3.3309
  235MOL0     H31677   3.293   7.031  11.323  0.7739  0.2162  1.7531
  235MOL0     H31678   3.163   6.917  11.282  0.7020 -1.9516 -0.5976
  235MOL0     H31679   3.273   6.733  11.394 -0.8668 -0.2847  0.6379
  235MOL0     H31680   3.416   6.821  11.417  0.5310  2.5293 -0.5103
  235MOL0     H31681   3.150   6.874  11.546 -0.1229 -0.0718 -2.2889
  235MOL0     H31682   3.294   6.991  11.550 -0.9162  0.9974  1.5404
  235MOL0     H31683   3.319   6.704  11.645 -0.1926 -0.4876 -0.7772
  235MOL0     H31684   3.236   6.820  11.750 -0.8676 -0.0195 -1.3906
  235MOL0     H31685   3.607   6.977  11.884 -1.5783 -0.4133 -0.2168
  235MOL0     H31686   3.829   6.874  11.933  1.1182 -1.9955  0.9938
  235MOL0     H31687   4.135   6.814  12.134  0.1943 -0.2922  0.8533
  235MOL0     H31688   4.350   6.740  12.235  0.1696 -0.6771 -0.0691
  235MOL0     H31689   4.593   6.632  12.224  0.4722 -0.7544 -1.2223
  235MOL0     H31690   4.519   6.619  12.387  3.9724 -1.0017  1.0794
  235MOL0     H31691   4.616   6.370  12.380  3.5762 -2.7704 -1.7159
  235MOL0     H31692   4.699   6.412  12.251 -4.0584  1.2994 -3.3677
  235MOL0     H31693   4.708   6.540  12.533 -2.5436  0.1750 -1.9122
  235MOL0     H31694   4.822   6.431  12.442  0.5415  0.1116 -2.2869
  235MOL0     H31695   4.779   6.726  12.359 -0.1055  0.0166  0.4647
  235MOL0     H31696   4.866   6.614  12.273 -0.6881  4.2252 -1.4337
  235MOL0     H31697   5.032   6.589  12.448  0.7522 -0.6191  2.5410
  235MOL0     H31698   4.914   6.654  12.570  0.3293 -1.8054  0.4982
  235MOL0     H31699   5.028   6.809  12.337  0.4863 -0.1210  0.2939
  235MOL0     H31700   4.931   6.878  12.447  0.5363  0.3295 -3.6696
  235MOL0     H31701   5.183   6.759  12.533  0.1276  0.5753 -1.7983
  235MOL0     H31702   5.077   6.867  12.637  1.2815  2.7876  0.4219
  235MOL0     H31703   5.291   6.989  12.539 -1.1047 -0.1132  1.8798
  235MOL0     H31704   5.205   6.990  12.384 -2.4302 -3.9320 -0.5092
  235MOL0     H31705   4.280   6.345  12.075  1.2139  0.9056 -0.3762
  235MOL0     H31706   4.065   6.426  11.983  0.6337  0.0074 -0.8741
  235MOL0     H31707   3.749   6.537  11.692  1.7111 -1.2099  2.7206
  235MOL0     H31708   3.516   6.651  11.633 -1.7978  2.2710  0.4735
  235MOL0     H31709   4.574   6.543  11.188  1.7115 -0.3590  1.4729
  235MOL0     H31710   4.808   6.624  11.262  1.9237  2.2452  0.4212
  235MOL0     H31711   5.174   6.712  11.183 -2.2579  1.5218 -0.1406
  235MOL0     H31712   5.434   6.713  11.230 -2.3321 -1.2090  1.4294
  235MOL0     H31713   5.722   7.024  11.115  0.4878 -0.7384  0.3046
  235MOL0     H31714   5.604   6.936  11.012 -0.5235 -1.4334  1.2825
  235MOL0     H31715   5.780   6.813  10.978 -2.1605  1.9051 -1.0459
  235MOL0     H31716   5.671   6.723  11.092 -0.3109 -0.1397  2.5392
  235MOL0     H31717   5.818   6.810  11.285  0.5262  1.2086  0.8691
  235MOL0     H31718   5.910   6.892  11.159 -2.1760  1.6138 -0.5112
  235MOL0     H31719   5.983   6.646  11.256  0.2428  0.3440 -0.6101
  235MOL0     H31720   5.864   6.591  11.144 -0.7348 -0.2647  4.0453
  235MOL0     H31721   6.189   6.754  10.895  0.2355  3.1373  0.6667
  235MOL0     H31722   5.427   7.132  11.138  1.3973 -1.4448  0.6350
  235MOL0     H31723   5.234   7.242  11.109 -0.8078  0.7187  0.2177
  235MOL0     H31724   5.127   7.168  10.989 -1.8801  1.1526  1.4650
  235MOL0     H31725   5.072   7.175  11.148 -0.2960 -1.6470  0.4012
  236MOL0     O31726   2.849   8.472   5.699 -0.5839 -0.7370  0.5653
  236MOL0     C31727   2.745   8.527   5.713  0.5546 -0.3041 -0.2712
  236MOL0     O31728   2.651   8.553   5.619 -0.3246  0.3647 -0.1727
  236MOL0     C31729   2.650   8.481   5.495 -0.6147  0.7096  0.5769
  236MOL0     C31730   2.652   8.340   5.486  0.0072  0.8583 -0.1673
  236MOL0     C31731   2.648   8.272   5.363  1.4088  1.3035 -0.7955
  236MOL0     C31732   2.633   8.343   5.240  0.4534 -0.5553 -0.1292
  236MOL0     O31733   2.633   8.280   5.114 -0.0383  0.3531 -0.4801
  236MOL0     C31734   2.612   8.143   5.098 -0.9136  0.0916  0.6460
  236MOL0     C31735   2.651   8.110   4.944  1.0175  0.1748  0.1141
  236MOL0     C31736   2.730   7.979   4.936  0.8986  0.3846  0.0835
  236MOL0     C31737   2.768   7.934   4.796  0.2013 -0.6170 -0.2814
  236MOL0     C31738   2.856   7.819   4.787 -0.5649  0.9603  0.1112
  236MOL0     C31739   2.992   7.832   4.863  0.0000 -0.1357 -0.4915
  236MOL0     C31740   3.084   7.942   4.823  0.6277 -0.3806 -0.2322
  236MOL0     C31741   3.218   7.952   4.896  0.4524 -1.0993  0.0868
  236MOL0     N31742   3.296   8.073   4.857  0.4132 -0.0106  0.0071
  236MOL0     C31743   3.378   8.071   4.748  0.4109 -0.8068  0.3516
  236MOL0     C31744   3.439   8.191   4.746  0.0221  0.0586 -0.2351
  236MOL0     C31745   3.536   8.234   4.641 -0.7222 -0.1725  0.3630
  236MOL0     C31746   3.453   8.239   4.509  0.0098 -0.6871 -0.4074
  236MOL0     C31747   3.521   8.321   4.404  0.8080  0.0399  0.2226
  236MOL0     C31748   3.640   8.236   4.359  0.6999  1.2074  0.6750
  236MOL0     O31749   3.719   8.317   4.265  1.0816  0.2380 -0.1299
  236MOL0     C31750   3.837   8.274   4.207  0.1206 -0.8496  0.2226
  236MOL0     C31751   3.910   8.157   4.250  0.9763 -0.1045  0.6701
  236MOL0     C31752   4.043   8.133   4.214 -0.9593 -0.5148 -0.1271
  236MOL0     C31753   4.105   8.225   4.133  0.0067 -0.1305 -0.2034
  236MOL0     C31754   4.246   8.212   4.088 -0.6157 -0.1033 -0.3637
  236MOL0     O31755   4.309   8.097   4.129 -0.0647 -0.6334 -0.1782
  236MOL0     C31756   4.445   8.090   4.125  0.7610  0.8288 -0.7740
  236MOL0     C31757   4.531   8.192   4.175  0.1837 -0.0659 -0.4345
  236MOL0     C31758   4.666   8.161   4.189 -0.0866  0.0445  0.2105
  236MOL0     C31759   4.719   8.044   4.132 -0.0740 -0.4262 -0.4385
  236MOL0     O31760   4.853   8.011   4.125 -0.2534 -0.2388 -0.1291
  236MOL0     C31761   4.948   8.088   4.192 -0.3673 -0.4472  0.5019
  236MOL0     C31762   4.969   8.041   4.331  0.6859 -0.0596  0.5063
  236MOL0     C31763   5.096   8.087   4.411  1.3802  0.5676 -0.2728
  236MOL0     C31764   5.126   8.229   4.406 -0.1641  0.1660 -0.4394
  236MOL0     C31765   5.264   8.259   4.482 -0.0373  0.6966  0.3314
  236MOL0     C31766   5.297   8.408   4.477 -0.8240  0.0845  0.0401
  236MOL0     C31767   5.426   8.426   4.564  0.5848 -0.2810  0.2282
  236MOL0     C31768   5.540   8.464   4.468 -0.6047 -0.7702 -0.8674
  236MOL0    Cl31769   5.696   8.469   4.556 -0.3841 -0.1130 -0.1312
  236MOL0     C31770   4.633   7.951   4.074 -0.0500  0.1064 -0.5823
  236MOL0     C31771   4.493   7.969   4.076 -0.3355  0.4847  0.6205
  236MOL0     O31772   4.302   8.310   4.036  0.8849 -0.7901 -0.2521
  236MOL0     C31773   4.025   8.337   4.075  0.2145  0.5424  0.1939
  236MOL0     C31774   3.895   8.352   4.108 -0.0803  0.2292  0.3644
  236MOL0     N31775   3.380   8.260   4.851  0.4333  0.0844  0.2466
  236MOL0     N31776   3.282   8.197   4.906  0.1705  0.6864 -0.8024
  236MOL0     C31777   2.635   8.483   5.250 -0.1634 -0.1147 -0.0252
  236MOL0     C31778   2.645   8.552   5.377 -0.8342  0.0541  0.8324
  236MOL0     C31779   2.730   8.597   5.840  0.5380 -0.7266 -0.6788
  236MOL0     C31780   2.673   8.734   5.846 -1.1429 -0.1049 -0.8941
  236MOL0     C31781   2.660   8.793   5.976  0.2486 -1.1583  0.4336
  236MOL0     C31782   2.696   8.736   6.096 -0.5175 -0.3317  0.2574
  236MOL0     O31783   2.659   8.802   6.215  0.0531  0.0207 -0.5620
  236MOL0     C31784   2.717   8.762   6.341  0.4190 -1.1423  1.1069
  236MOL0     C31785   2.702   8.881   6.443 -0.7597 -0.2200  1.2039
  236MOL0     C31786   2.554   8.921   6.467  0.7871  0.1201 -0.6351
  236MOL0     C31787   2.535   9.007   6.581 -0.6719  0.0458  0.3253
  236MOL0     C31788   2.589   8.940   6.699 -0.9841 -0.7780  0.9092
  236MOL0     C31789   2.642   8.894   6.803  0.6039 -0.5453 -0.0511
  236MOL0     C31790   2.760   8.613   6.086  0.4526  0.1932 -0.6271
  236MOL0     C31791   2.772   8.540   5.965 -0.1621 -0.2315 -0.0672
  236MOL0     C31792   2.817   8.397   5.992  0.0328 -0.2028  0.9429
  236MOL0     H31793   2.675   8.293   5.582  1.4152 -2.7203 -2.0760
  236MOL0     H31794   2.652   8.164   5.359 -0.5087  1.1859 -0.4879
  236MOL0     H31795   2.700   8.098   5.145 -0.0430  1.6458  0.5927
  236MOL0     H31796   2.512   8.112   5.130 -1.3065 -1.0035 -1.4728
  236MOL0     H31797   2.699   8.193   4.894 -2.4060  1.4285 -1.3903
  236MOL0     H31798   2.558   8.081   4.893  0.4530 -2.1738  2.2231
  236MOL0     H31799   2.686   7.896   4.993  3.4389 -0.3544  1.1289
  236MOL0     H31800   2.820   8.012   4.989  0.1196  2.9380 -0.0619
  236MOL0     H31801   2.673   7.911   4.748 -3.5413  4.2729  3.7795
  236MOL0     H31802   2.813   8.023   4.752 -0.6017  0.4816  1.0676
  236MOL0     H31803   2.796   7.733   4.820 -0.8240  0.7640 -0.8415
  236MOL0     H31804   2.874   7.797   4.682 -0.0498 -2.2619  0.7595
  236MOL0     H31805   2.964   7.848   4.968  2.5850  0.0755  0.2403
  236MOL0     H31806   3.044   7.736   4.858  1.3179  0.4370  1.1496
  236MOL0     H31807   3.029   8.031   4.855  0.0831 -1.3195  1.5463
  236MOL0     H31808   3.103   7.958   4.716  1.8057  0.3948  0.0739
  236MOL0     H31809   3.193   7.955   5.002 -3.3867 -2.8634 -0.5972
  236MOL0     H31810   3.285   7.868   4.876  0.2891 -1.4115  0.8392
  236MOL0     H31811   3.387   7.991   4.675 -1.7414  0.9682 -2.0445
  236MOL0     H31812   3.563   8.337   4.667 -1.7137  0.1515  0.1489
  236MOL0     H31813   3.631   8.181   4.641 -0.7143 -0.1626 -0.2387
  236MOL0     H31814   3.431   8.135   4.482 -1.4053 -0.2359 -1.0816
  236MOL0     H31815   3.361   8.294   4.528 -1.0385 -2.3875 -0.3114
  236MOL0     H31816   3.545   8.419   4.447 -0.3480  0.5675 -0.2811
  236MOL0     H31817   3.444   8.340   4.328 -0.5706  0.4911  1.6672
  236MOL0     H31818   3.604   8.140   4.320  1.8329  0.2288  1.9489
  236MOL0     H31819   3.709   8.212   4.440 -1.0720 -0.2051  1.8441
  236MOL0     H31820   3.863   8.085   4.316  1.9099 -0.2875  1.1426
  236MOL0     H31821   4.084   8.038   4.245  1.3185 -0.2610 -2.0781
  236MOL0     H31822   4.488   8.284   4.213  1.1214  0.5179 -0.7437
  236MOL0     H31823   4.723   8.235   4.245 -0.6864  1.2849 -0.7792
  236MOL0     H31824   5.046   8.072   4.146 -1.6925 -1.0545 -2.3162
  236MOL0     H31825   4.926   8.195   4.182 -0.7978 -0.6183 -0.4912
  236MOL0     H31826   4.875   8.068   4.382  1.2613  1.5621  0.7632
  236MOL0     H31827   4.958   7.932   4.326  0.2610  0.0341 -1.2202
  236MOL0     H31828   5.071   8.064   4.515 -2.0224  1.5814 -0.7601
  236MOL0     H31829   5.181   8.032   4.370 -0.0155  1.2084 -4.4504
  236MOL0     H31830   5.039   8.284   4.445  0.2388  1.3232 -1.1082
  236MOL0     H31831   5.122   8.263   4.302 -2.2017 -2.2129 -1.2291
  236MOL0     H31832   5.341   8.199   4.434  0.6476 -0.6588  2.9405
  236MOL0     H31833   5.264   8.228   4.587  1.5805 -1.0130 -0.1106
  236MOL0     H31834   5.311   8.433   4.372  0.2901  0.7896  0.3372
  236MOL0     H31835   5.212   8.470   4.507 -0.6273 -0.3777  1.6443
  236MOL0     H31836   5.456   8.338   4.621 -0.3493 -1.1789 -0.6303
  236MOL0     H31837   5.393   8.494   4.643 -2.0216 -2.8428  1.5056
  236MOL0     H31838   5.553   8.387   4.391  1.4584 -2.6535  1.1939
  236MOL0     H31839   5.536   8.568   4.437 -0.4529 -0.2067  0.8962
  236MOL0     H31840   4.670   7.856   4.037 -2.2206 -1.1375  0.2460
  236MOL0     H31841   4.423   7.895   4.039  0.4265  1.4777 -3.2113
  236MOL0     H31842   4.062   8.409   4.003 -1.6137  1.1787 -0.1425
  236MOL0     H31843   3.844   8.430   4.052  0.1813 -0.2096 -0.5200
  236MOL0     H31844   2.642   8.550   5.164 -3.1045  3.7590  2.3705
  236MOL0     H31845   2.660   8.660   5.381 -0.8110  0.0630  0.5569
  236MOL0     H31846   2.649   8.786   5.754 -0.1745 -1.1738 -1.7867
  236MOL0     H31847   2.628   8.897   5.980  0.2733 -1.0158 -1.8693
  236MOL0     H31848   2.824   8.741   6.335  1.0303  1.7021  0.6482
  236MOL0     H31849   2.655   8.676   6.370 -0.0709 -0.1270  3.2587
  236MOL0     H31850   2.765   8.963   6.406  0.9155 -1.5013  1.1144
  236MOL0     H31851   2.753   8.852   6.535 -1.6964 -2.6001  1.0415
  236MOL0     H31852   2.491   8.833   6.482 -0.5303  1.4456  2.2927
  236MOL0     H31853   2.506   8.962   6.377  1.6810 -1.6144 -1.9457
  236MOL0     H31854   2.576   9.107   6.567  1.7495 -1.1052 -1.4104
  236MOL0     H31855   2.431   9.025   6.613  0.1637  0.4516  3.1543
  236MOL0     H31856   2.699   8.859   6.887 -0.1942 -0.0389  0.7129
  236MOL0     H31857   2.798   8.575   6.180 -0.7448 -2.9250 -1.2623
  236MOL0     H31858   2.791   8.360   6.092  0.1246 -1.8378  0.3834
  236MOL0     H31859   2.767   8.331   5.921 -2.2820  1.2311  1.1307
  236MOL0     H31860   2.925   8.392   5.971 -0.0824  1.9492 -0.4925
  237MOL0     O31861  10.178   3.496   6.493  0.3632  1.4700  0.2209
  237MOL0     C31862  10.284   3.538   6.539  0.4797  0.3736 -0.0540
  237MOL0     O31863  10.364   3.476   6.625 -0.2970 -0.0479  0.3136
  237MOL0     C31864  10.319   3.358   6.668 -0.1526 -0.1888 -0.8189
  237MOL0     C31865  10.357   3.231   6.610 -0.9474  0.0789  0.7254
  237MOL0     C31866  10.319   3.108   6.673  0.5357 -0.0791  0.6440
  237MOL0     C31867  10.256   3.114   6.794  0.7750  0.6549  0.1676
  237MOL0     O31868  10.237   2.995   6.860  0.6981 -0.1195  0.3649
  237MOL0     C31869  10.111   2.939   6.819  0.1270 -0.8075  0.6889
  237MOL0     C31870  10.124   2.788   6.773 -0.5290 -0.4539 -0.0852
  237MOL0     C31871   9.980   2.743   6.721 -0.5405 -0.5073 -0.5504
  237MOL0     C31872   9.975   2.599   6.650 -0.4085 -0.9576  0.0977
  237MOL0     C31873   9.821   2.575   6.615 -1.2188  0.2809 -0.5241
  237MOL0     C31874   9.800   2.445   6.537  0.0310  0.0523  0.6889
  237MOL0     C31875   9.649   2.412   6.531 -0.7218  0.9675  0.1781
  237MOL0     C31876   9.621   2.266   6.520  0.1058  0.1925 -0.0618
  237MOL0     N31877   9.688   2.199   6.404  1.2347  0.5881 -0.1760
  237MOL0     C31878   9.695   2.063   6.406 -0.2200 -0.4816  0.4214
  237MOL0     C31879   9.740   2.034   6.280 -0.3527  0.3049  1.1562
  237MOL0     C31880   9.738   1.898   6.214 -0.4284 -0.3746 -1.0448
  237MOL0     C31881   9.856   1.805   6.240 -0.0272  0.3142 -1.0460
  237MOL0     C31882   9.995   1.868   6.176  0.5119 -0.1578  0.3335
  237MOL0     C31883  10.119   1.777   6.170  0.3141 -0.6559  0.3823
  237MOL0     O31884  10.156   1.720   6.298 -0.5525  1.0486 -0.5828
  237MOL0     C31885  10.244   1.793   6.379  0.9856  0.0386  0.0408
  237MOL0     C31886  10.280   1.736   6.500  0.3128  0.1760  0.6178
  237MOL0     C31887  10.380   1.795   6.572 -0.1317 -0.2233 -0.5531
  237MOL0     C31888  10.439   1.914   6.535 -0.2856 -0.1826 -1.1580
  237MOL0     C31889  10.546   1.968   6.623 -0.4550 -0.0954  0.1174
  237MOL0     O31890  10.580   2.104   6.605  0.7829 -0.6224 -0.2773
  237MOL0     C31891  10.671   2.166   6.685  0.9395  0.2268  0.1388
  237MOL0     C31892  10.775   2.236   6.615 -0.1649  0.1091  0.0093
  237MOL0     C31893  10.866   2.324   6.687  0.5995  1.3490  0.5687
  237MOL0     C31894  10.851   2.334   6.820 -0.5884  0.0174 -0.1848
  237MOL0     O31895  10.940   2.429   6.878  0.1456 -0.2315 -0.6696
  237MOL0     C31896  10.903   2.496   6.998 -0.1031 -0.1450  0.1197
  237MOL0     C31897  10.977   2.629   6.989 -0.7292 -0.0993  0.0353
  237MOL0     C31898  10.918   2.743   6.897  0.3698  0.0936  0.7598
  237MOL0     C31899  10.766   2.774   6.931  0.7252  0.4074 -0.5875
  237MOL0     C31900  10.734   2.903   6.859  0.6279  0.2669  0.4683
  237MOL0     C31901  10.780   3.031   6.934 -0.3546 -0.3419 -0.0636
  237MOL0     C31902  10.798   3.135   6.818  0.4167 -0.1949 -0.6770
  237MOL0     C31903  10.674   3.181   6.754 -0.5349 -0.6943 -0.6887
  237MOL0    Cl31904  10.674   3.337   6.673  0.0519 -0.0310  0.2654
  237MOL0     C31905  10.763   2.252   6.891  0.2225 -0.9606  0.1481
  237MOL0     C31906  10.660   2.185   6.823 -0.5822  0.3750  1.1051
  237MOL0     O31907  10.599   1.898   6.708  1.0699  0.1558  0.0572
  237MOL0     C31908  10.391   1.978   6.416  0.3488  0.0977 -0.6349
  237MOL0     C31909  10.302   1.910   6.341  0.1491  0.5135 -0.0503
  237MOL0     N31910   9.739   2.151   6.209 -0.6309  0.0339  0.5470
  237MOL0     N31911   9.723   2.247   6.287  0.5805 -0.2373 -0.4052
  237MOL0     C31912  10.212   3.236   6.848  0.6968 -0.2914  0.5311
  237MOL0     C31913  10.247   3.358   6.791  0.2130 -0.0787  0.0124
  237MOL0     C31914  10.328   3.672   6.493 -0.1268  0.2009 -0.9026
  237MOL0     C31915  10.243   3.777   6.501 -0.7371 -0.5082 -0.1276
  237MOL0     C31916  10.289   3.904   6.471 -1.0770  0.2016 -0.8235
  237MOL0     C31917  10.421   3.932   6.433 -0.4476 -0.1368  0.5558
  237MOL0     O31918  10.471   4.058   6.403 -0.5830 -0.0300  0.0954
  237MOL0     C31919  10.404   4.181   6.448 -0.3701 -0.8004 -0.4942
  237MOL0     C31920  10.474   4.307   6.398  0.0525 -0.0034 -0.9791
  237MOL0     C31921  10.452   4.433   6.485  0.0314  0.3819  0.1828
  237MOL0     C31922  10.311   4.468   6.518  0.2622  0.1790 -0.2032
  237MOL0     C31923  10.221   4.478   6.398 -1.0573 -0.9670 -0.7018
  237MOL0     C31924  10.150   4.486   6.307 -0.3705  1.2376 -0.7677
  237MOL0     C31925  10.496   3.819   6.407 -0.1287  0.0618  0.9053
  237MOL0     C31926  10.459   3.687   6.437  0.4423 -0.1220  0.2514
  237MOL0     C31927  10.569   3.587   6.412 -1.0857  1.0354 -1.3845
  237MOL0     H31928  10.422   3.225   6.523 -1.9507  1.5453 -0.1790
  237MOL0     H31929  10.325   3.012   6.623 -1.4773  0.4519 -0.7781
  237MOL0     H31930  10.036   2.945   6.898  1.9697  1.9144  2.4345
  237MOL0     H31931  10.078   2.996   6.732  1.8811 -0.5395  0.1508
  237MOL0     H31932  10.139   2.717   6.854 -2.7897 -3.3980 -2.0237
  237MOL0     H31933  10.187   2.774   6.685 -3.7812  0.6794 -2.8001
  237MOL0     H31934   9.943   2.816   6.650  0.0305 -1.3543 -1.7572
  237MOL0     H31935   9.914   2.740   6.809  0.6667 -1.7258  0.3613
  237MOL0     H31936  10.043   2.605   6.564  0.1149  0.0285  0.5621
  237MOL0     H31937  10.018   2.527   6.719  2.8737  0.4774 -0.2693
  237MOL0     H31938   9.784   2.551   6.714  1.2474 -0.3891  0.3191
  237MOL0     H31939   9.775   2.663   6.569 -1.5891  1.4169  1.8824
  237MOL0     H31940   9.832   2.464   6.434 -2.2609  1.0415  0.0847
  237MOL0     H31941   9.854   2.367   6.590  0.8240  0.0905 -0.0516
  237MOL0     H31942   9.603   2.467   6.449  0.2584  1.4334 -0.0641
  237MOL0     H31943   9.601   2.449   6.623 -1.0758  0.6177  0.1384
  237MOL0     H31944   9.669   2.219   6.606  2.6968  1.2810 -0.8092
  237MOL0     H31945   9.514   2.244   6.523 -0.0887  0.9778  3.9863
  237MOL0     H31946   9.673   2.002   6.492  1.0073  1.0046  1.8479
  237MOL0     H31947   9.651   1.840   6.247 -0.6542  0.0702 -0.8362
  237MOL0     H31948   9.719   1.913   6.107 -2.4279 -1.5726 -0.9200
  237MOL0     H31949   9.869   1.791   6.348  1.5438 -0.3108 -1.2930
  237MOL0     H31950   9.833   1.708   6.196 -0.2577  0.3532 -1.0156
  237MOL0     H31951  10.020   1.953   6.240 -0.1662  1.2560 -1.2125
  237MOL0     H31952   9.972   1.908   6.077  2.3885  2.2278  0.7763
  237MOL0     H31953  10.198   1.833   6.118 -0.0200 -0.6680 -0.1371
  237MOL0     H31954  10.098   1.692   6.106  0.8102 -0.6237  0.1673
  237MOL0     H31955  10.245   1.637   6.528 -3.2344 -0.4580 -4.5708
  237MOL0     H31956  10.414   1.741   6.661  0.0392  1.4667  0.4484
  237MOL0     H31957  10.785   2.233   6.507  1.6105 -1.3632  0.1570
  237MOL0     H31958  10.941   2.391   6.646  0.1004  2.1369  0.9091
  237MOL0     H31959  10.795   2.514   7.002 -0.6402 -2.5800 -1.1491
  237MOL0     H31960  10.927   2.445   7.092 -0.9146 -1.5384 -0.3993
  237MOL0     H31961  10.966   2.672   7.089 -2.0134 -1.6095  0.5901
  237MOL0     H31962  11.081   2.622   6.957  0.0095 -0.6389  2.3541
  237MOL0     H31963  10.971   2.838   6.916 -1.1790  1.4607 -1.3302
  237MOL0     H31964  10.921   2.718   6.790 -2.3334 -3.6067  1.3761
  237MOL0     H31965  10.753   2.792   7.038  0.8663  1.6161 -0.7631
  237MOL0     H31966  10.694   2.696   6.902 -1.4805  2.5518 -1.2367
  237MOL0     H31967  10.626   2.909   6.849  0.4863 -2.2051 -0.4157
  237MOL0     H31968  10.775   2.903   6.757 -0.2705 -0.7014  0.0858
  237MOL0     H31969  10.706   3.063   7.008  0.3948 -2.4574  1.7108
  237MOL0     H31970  10.878   3.032   6.983 -1.3705  4.4122  2.4957
  237MOL0     H31971  10.871   3.106   6.742  0.1849 -3.4357  0.2025
  237MOL0     H31972  10.833   3.226   6.868 -1.9069  0.7929 -0.6982
  237MOL0     H31973  10.636   3.107   6.683  0.1238 -0.8895 -0.8469
  237MOL0     H31974  10.600   3.197   6.833  1.3878  1.2328  0.8629
  237MOL0     H31975  10.743   2.247   6.998 -0.4863 -1.5922 -0.0070
  237MOL0     H31976  10.579   2.144   6.882 -1.2223 -0.4602 -0.2805
  237MOL0     H31977  10.434   2.073   6.386  0.1203  0.6908  0.8284
  237MOL0     H31978  10.282   1.971   6.253  0.1090 -0.3221 -0.6297
  237MOL0     H31979  10.171   3.243   6.948  2.5897 -2.7936  1.5887
  237MOL0     H31980  10.222   3.457   6.827  3.0580  0.7429 -0.0085
  237MOL0     H31981  10.143   3.757   6.537 -0.0492 -1.3945  1.4197
  237MOL0     H31982  10.228   3.990   6.496  0.8354  1.0447  1.3443
  237MOL0     H31983  10.391   4.185   6.556  1.3435  2.7495 -0.3064
  237MOL0     H31984  10.304   4.187   6.403  0.2754  0.5104 -1.8620
  237MOL0     H31985  10.430   4.327   6.300 -0.2356  1.1171 -0.6311
  237MOL0     H31986  10.583   4.294   6.400  0.2241  1.0097  3.0765
  237MOL0     H31987  10.508   4.518   6.446 -0.2878 -0.5388 -2.5069
  237MOL0     H31988  10.503   4.416   6.580 -0.2914  0.8518  0.4418
  237MOL0     H31989  10.265   4.388   6.576 -0.5057  1.3598  0.8659
  237MOL0     H31990  10.310   4.563   6.572  1.0819  2.3353 -3.6918
  237MOL0     H31991  10.082   4.492   6.224 -0.6552 -2.9544 -1.0357
  237MOL0     H31992  10.594   3.842   6.367  0.3402 -1.0070  1.4117
  237MOL0     H31993  10.528   3.492   6.378 -0.1205  0.0786  0.0411
  237MOL0     H31994  10.638   3.628   6.337 -0.1502  0.1529 -1.0251
  237MOL0     H31995  10.632   3.577   6.500  0.2046 -0.3136 -2.4086
  238MOL0     O31996   4.593   2.100   8.382  0.3043 -0.2946 -0.0189
  238MOL0     C31997   4.530   2.079   8.489  0.4028 -0.5518  0.8844
  238MOL0     O31998   4.555   1.984   8.588  0.6571 -0.6229 -0.1152
  238MOL0     C31999   4.675   1.923   8.594  0.2682  0.1673  0.3984
  238MOL0     C32000   4.795   1.971   8.560  0.4617 -0.4654  0.2227
  238MOL0     C32001   4.919   1.901   8.560  0.5704 -0.2314 -0.4927
  238MOL0     C32002   4.919   1.775   8.617 -0.5358  1.1197  0.1938
  238MOL0     O32003   5.033   1.694   8.636 -0.2944 -0.2486 -0.4003
  238MOL0     C32004   5.160   1.759   8.632 -0.3431  1.2612 -0.2884
  238MOL0     C32005   5.273   1.666   8.676 -0.3475 -1.2454 -0.8333
  238MOL0     C32006   5.412   1.726   8.632  0.5010 -0.5068 -0.1850
  238MOL0     C32007   5.464   1.857   8.688 -0.2372  0.0930 -0.5227
  238MOL0     C32008   5.617   1.877   8.690 -1.1363  0.1930 -0.6965
  238MOL0     C32009   5.673   1.888   8.537  0.2559  0.2153  0.1536
  238MOL0     C32010   5.827   1.890   8.529 -0.6676 -0.1626 -1.2153
  238MOL0     C32011   5.890   1.859   8.400  0.6822 -0.2476  0.5132
  238MOL0     N32012   6.035   1.863   8.386 -0.5127 -0.7079 -0.0468
  238MOL0     C32013   6.105   1.815   8.286 -0.9049  0.3178 -0.2158
  238MOL0     C32014   6.234   1.843   8.319  0.3557  0.3474  0.2140
  238MOL0     C32015   6.368   1.813   8.246  0.1060 -0.4339 -0.1187
  238MOL0     C32016   6.370   1.902   8.120 -0.0309  0.1017  0.3481
  238MOL0     C32017   6.516   1.898   8.059 -0.2764 -0.2896  0.6969
  238MOL0     C32018   6.590   1.762   8.078  0.0262  0.3294  0.2557
  238MOL0     O32019   6.704   1.765   7.992  0.2814  0.0793 -0.4479
  238MOL0     C32020   6.799   1.670   8.025 -0.4705  0.0440  0.6743
  238MOL0     C32021   6.784   1.549   8.096  0.6058 -0.2093 -0.4957
  238MOL0     C32022   6.896   1.475   8.133  0.1258 -0.0906  0.5000
  238MOL0     C32023   7.023   1.511   8.095  0.7680  0.1527  0.6505
  238MOL0     C32024   7.136   1.438   8.156  0.1341  0.3382 -0.5132
  238MOL0     O32025   7.246   1.516   8.182  0.8229  0.0601 -0.9442
  238MOL0     C32026   7.363   1.475   8.233 -1.1934  0.3439 -0.4089
  238MOL0     C32027   7.423   1.551   8.335  0.0925 -0.3011  0.1083
  238MOL0     C32028   7.554   1.530   8.379 -0.8902  0.6637 -0.3159
  238MOL0     C32029   7.638   1.432   8.320  0.2840 -0.2391  0.2601
  238MOL0     O32030   7.771   1.415   8.346  0.2426 -0.4113  0.2025
  238MOL0     C32031   7.803   1.423   8.486  0.1097  0.6186  0.6416
  238MOL0     C32032   7.939   1.357   8.499 -0.5450  0.2360  0.6826
  238MOL0     C32033   8.018   1.386   8.629  0.9167  0.2810  0.6666
  238MOL0     C32034   8.144   1.297   8.623 -0.7596 -1.5225 -0.0169
  238MOL0     C32035   8.214   1.306   8.765  0.1832  0.0287 -0.8347
  238MOL0     C32036   8.348   1.223   8.760  0.0219 -0.5635  0.2039
  238MOL0     C32037   8.329   1.073   8.747  0.3495 -0.6236  0.4519
  238MOL0     C32038   8.280   1.006   8.876 -0.3584 -0.1959  0.1530
  238MOL0    Cl32039   8.400   0.985   9.014 -0.4408  0.0025 -0.0748
  238MOL0     C32040   7.567   1.352   8.218 -0.3174  0.8262  0.3033
  238MOL0     C32041   7.439   1.375   8.173  0.6752 -0.9378  0.3049
  238MOL0     O32042   7.131   1.315   8.178  0.0215  0.0629 -0.5776
  238MOL0     C32043   7.042   1.623   8.018  0.3987  0.0943  0.7604
  238MOL0     C32044   6.932   1.702   7.995 -0.3327  0.2254 -0.1932
  238MOL0     N32045   6.244   1.889   8.447 -0.1154 -0.3201 -0.7826
  238MOL0     N32046   6.122   1.894   8.489  0.5478 -1.0325 -0.0357
  238MOL0     C32047   4.797   1.725   8.659 -0.1699 -0.6964 -0.6300
  238MOL0     C32048   4.678   1.795   8.653 -0.0051 -0.7643  0.1967
  238MOL0     C32049   4.416   2.156   8.517  0.4554 -0.0119  0.0421
  238MOL0     C32050   4.432   2.296   8.533 -0.4395 -0.6486 -0.1626
  238MOL0     C32051   4.330   2.372   8.594 -0.1004 -1.2033  0.2312
  238MOL0     C32052   4.209   2.319   8.628  0.5734 -0.7214 -0.3299
  238MOL0     O32053   4.106   2.397   8.678 -0.2705  0.5956  0.5870
  238MOL0     C32054   4.082   2.518   8.613 -1.0170 -0.6392  0.5537
  238MOL0     C32055   3.933   2.554   8.646  0.4843 -0.3904 -0.2145
  238MOL0     C32056   3.914   2.594   8.791  0.1889  0.6874 -0.0255
  238MOL0     C32057   3.767   2.644   8.809 -0.8570 -0.1649 -0.6120
  238MOL0     C32058   3.726   2.610   8.946 -0.8005 -0.2195 -0.2734
  238MOL0     C32059   3.679   2.585   9.054  0.6969  1.4208 -0.4008
  238MOL0     C32060   4.187   2.179   8.597 -0.0053 -0.2593 -0.5891
  238MOL0     C32061   4.287   2.101   8.547  0.2146 -0.2447  0.2733
  238MOL0     C32062   4.261   1.952   8.535  0.0786 -0.6562  0.9323
  238MOL0     H32063   4.800   2.066   8.506 -0.7672 -0.0625  0.7760
  238MOL0     H32064   5.008   1.953   8.525  0.0834  1.4533  0.6373
  238MOL0     H32065   5.191   1.789   8.531 -2.0551  0.3051 -1.1612
  238MOL0     H32066   5.151   1.841   8.703  0.6420  1.5353 -0.4566
  238MOL0     H32067   5.261   1.567   8.632 -0.1586 -0.5208 -2.5743
  238MOL0     H32068   5.258   1.655   8.784 -1.3803  1.0463 -0.6750
  238MOL0     H32069   5.418   1.734   8.523  3.3639  0.4138 -0.0410
  238MOL0     H32070   5.473   1.645   8.671 -1.5272 -2.9965 -1.8190
  238MOL0     H32071   5.419   1.938   8.630 -1.0716 -1.1173 -1.6226
  238MOL0     H32072   5.433   1.874   8.791 -2.3290  4.3012 -1.5975
  238MOL0     H32073   5.657   1.959   8.749  3.3310 -3.8172  2.6553
  238MOL0     H32074   5.665   1.790   8.737  1.4199  2.3299  0.9075
  238MOL0     H32075   5.634   1.795   8.494 -0.0328  0.4125 -0.0120
  238MOL0     H32076   5.618   1.971   8.491 -0.1375 -0.6822 -1.0728
  238MOL0     H32077   5.872   1.823   8.603 -2.1152  1.8020  1.6089
  238MOL0     H32078   5.862   1.991   8.551  1.5581 -1.4802  2.0478
  238MOL0     H32079   5.861   1.766   8.350 -0.6992  1.4879 -2.1655
  238MOL0     H32080   5.846   1.939   8.340 -0.7603  0.4546  2.3974
  238MOL0     H32081   6.072   1.772   8.192  3.4129 -1.4487 -1.1286
  238MOL0     H32082   6.448   1.845   8.313  0.1834  0.2866 -0.5500
  238MOL0     H32083   6.372   1.706   8.221  0.9881 -1.7712  4.5715
  238MOL0     H32084   6.292   1.880   8.046  0.2583  2.3854 -0.7130
  238MOL0     H32085   6.350   2.005   8.149  0.0218  0.2071  0.0133
  238MOL0     H32086   6.572   1.983   8.099 -1.3868  0.6586  0.2850
  238MOL0     H32087   6.489   1.913   7.954 -4.6963  1.4012  1.8315
  238MOL0     H32088   6.523   1.687   8.036 -0.6969  0.5227  1.0395
  238MOL0     H32089   6.620   1.743   8.181 -0.0035  1.0555  0.4081
  238MOL0     H32090   6.692   1.514   8.142  0.6426  1.6105  1.0972
  238MOL0     H32091   6.882   1.393   8.202 -0.7772 -1.4122 -1.1751
  238MOL0     H32092   7.383   1.641   8.380  1.7433  1.5096 -1.8216
  238MOL0     H32093   7.587   1.601   8.453 -1.7868 -1.6427  2.4718
  238MOL0     H32094   7.804   1.526   8.523 -3.1160  0.5103  1.3166
  238MOL0     H32095   7.730   1.368   8.547 -0.0596  1.5072  1.2529
  238MOL0     H32096   7.925   1.249   8.493 -0.3493  0.1512  1.6307
  238MOL0     H32097   8.001   1.369   8.409 -0.9605 -0.2981  0.3195
  238MOL0     H32098   8.051   1.491   8.636 -2.0006  1.2979  0.3371
  238MOL0     H32099   7.941   1.372   8.705 -0.1519 -0.3091 -0.4915
  238MOL0     H32100   8.208   1.331   8.541 -2.8529 -2.9146 -2.3918
  238MOL0     H32101   8.110   1.193   8.614 -1.1134 -1.5612  1.4772
  238MOL0     H32102   8.155   1.265   8.847  0.2537 -1.6537 -1.5797
  238MOL0     H32103   8.231   1.412   8.785  0.3036 -0.6922  3.9918
  238MOL0     H32104   8.407   1.252   8.672 -0.5966 -0.4147 -0.1684
  238MOL0     H32105   8.415   1.237   8.845  2.6834 -1.8065 -1.5413
  238MOL0     H32106   8.420   1.027   8.709  1.3788 -0.2484  2.3529
  238MOL0     H32107   8.254   1.062   8.668  1.8956 -1.4972 -0.9412
  238MOL0     H32108   8.192   1.062   8.910 -0.4307  0.8731 -1.6909
  238MOL0     H32109   8.235   0.907   8.869 -0.0933 -0.4117  1.2922
  238MOL0     H32110   7.615   1.265   8.176  0.5372  1.2882  0.2901
  238MOL0     H32111   7.396   1.315   8.094 -0.7671  0.6997 -0.2308
  238MOL0     H32112   7.135   1.647   7.967 -0.0121 -0.6537 -0.3919
  238MOL0     H32113   6.943   1.793   7.938  0.8184 -0.0813 -0.4781
  238MOL0     H32114   4.804   1.625   8.701  2.0764  0.0496  0.8993
  238MOL0     H32115   4.599   1.740   8.704  0.4172 -1.4773  0.0926
  238MOL0     H32116   4.530   2.335   8.507 -0.6584  1.1138  1.4878
  238MOL0     H32117   4.346   2.479   8.603 -2.2581 -0.8862  0.9565
  238MOL0     H32118   4.109   2.515   8.507  1.8562  1.6722  1.0939
  238MOL0     H32119   4.134   2.604   8.656 -0.5460  1.0022 -2.9539
  238MOL0     H32120   3.883   2.461   8.618  0.0227 -0.8313  1.8801
  238MOL0     H32121   3.899   2.643   8.592 -0.6454  1.4289  3.1605
  238MOL0     H32122   3.978   2.672   8.833 -0.0177 -0.6685  3.1498
  238MOL0     H32123   3.939   2.508   8.854  0.7982 -0.4176 -1.6998
  238MOL0     H32124   3.761   2.752   8.796  0.6803 -0.3246 -3.6358
  238MOL0     H32125   3.696   2.613   8.732 -2.2161  2.7215 -0.6611
  238MOL0     H32126   3.642   2.566   9.153 -0.5720 -0.0838 -1.0997
  238MOL0     H32127   4.089   2.137   8.615  1.2160 -4.0919 -1.9784
  238MOL0     H32128   4.343   1.901   8.585  0.4295 -0.0215  1.0157
  238MOL0     H32129   4.167   1.922   8.582 -1.6115  2.1036 -0.4118
  238MOL0     H32130   4.261   1.933   8.427 -1.5354  0.3835  0.7061
  239MOL0     O32131   4.017   6.846   0.915 -0.2485  0.5872 -0.5364
  239MOL0     C32132   3.993   6.725   0.939  0.8967  0.2311 -0.0418
  239MOL0     O32133   3.869   6.660   0.918 -0.3342 -0.2737  0.4480
  239MOL0     C32134   3.757   6.741   0.906 -0.1434 -0.0258  0.4957
  239MOL0     C32135   3.706   6.772   0.780  0.4475 -0.5244  0.3233
  239MOL0     C32136   3.588   6.844   0.774  0.1544 -0.3962  0.8582
  239MOL0     C32137   3.523   6.903   0.879  0.6082 -0.3840 -0.2235
  239MOL0     O32138   3.421   6.991   0.834 -0.5581  0.3524 -0.0727
  239MOL0     C32139   3.368   7.077   0.933 -0.2483 -0.9080  0.3394
  239MOL0     C32140   3.463   7.200   0.944 -0.1279  0.0584  0.1000
  239MOL0     C32141   3.407   7.309   1.034  0.0006  0.1424 -0.1318
  239MOL0     C32142   3.511   7.418   1.054  0.2465  0.1628 -0.1166
  239MOL0     C32143   3.473   7.543   1.121  0.5927 -0.5960 -0.6126
  239MOL0     C32144   3.567   7.604   1.209 -0.4947 -1.1895 -0.2850
  239MOL0     C32145   3.521   7.740   1.264 -0.0498 -1.0614 -0.6780
  239MOL0     C32146   3.631   7.828   1.322 -0.5433  0.7018 -0.0690
  239MOL0     N32147   3.749   7.827   1.234  0.1644  0.2531  0.5939
  239MOL0     C32148   3.876   7.798   1.270  0.5477  0.4349  0.8576
  239MOL0     C32149   3.944   7.798   1.150  0.4266 -0.8485  0.3497
  239MOL0     C32150   4.093   7.807   1.137 -0.8898 -0.2577  0.0474
  239MOL0     C32151   4.153   7.946   1.129  0.4417 -0.9201 -0.3722
  239MOL0     C32152   4.291   7.963   1.085  0.8939  1.1512  0.3055
  239MOL0     C32153   4.394   7.879   1.165  0.4361 -0.0511 -0.7191
  239MOL0     O32154   4.532   7.899   1.118 -0.6429 -0.6103 -0.0467
  239MOL0     C32155   4.638   7.821   1.163  0.8190  0.2311  0.3220
  239MOL0     C32156   4.767   7.852   1.120  0.1082 -0.5044 -0.5964
  239MOL0     C32157   4.869   7.790   1.186 -0.4949 -0.5726  0.2514
  239MOL0     C32158   4.848   7.676   1.276  0.5249  0.5105  0.6892
  239MOL0     C32159   4.964   7.604   1.326  0.5478 -0.5576 -0.2290
  239MOL0     O32160   5.082   7.649   1.291 -0.6254  0.3118 -0.2147
  239MOL0     C32161   5.189   7.573   1.338  0.2958 -0.4746 -0.6783
  239MOL0     C32162   5.221   7.588   1.475  1.1716 -0.9074 -0.0481
  239MOL0     C32163   5.313   7.500   1.529 -0.0712  0.0024  0.4291
  239MOL0     C32164   5.386   7.402   1.449 -0.6514 -0.6436 -0.2309
  239MOL0     O32165   5.493   7.319   1.492 -0.6401  1.1515 -0.5787
  239MOL0     C32166   5.552   7.344   1.626  1.0696 -0.3200 -0.7001
  239MOL0     C32167   5.682   7.276   1.620 -0.2959  1.2798 -0.2350
  239MOL0     C32168   5.662   7.124   1.612  0.5474 -0.7485  0.5924
  239MOL0     C32169   5.604   7.061   1.742 -0.3684  0.7903 -0.0695
  239MOL0     C32170   5.711   6.975   1.812 -0.2201  0.8429  0.3561
  239MOL0     C32171   5.815   7.059   1.885  0.3222  0.0324  0.0840
  239MOL0     C32172   5.903   6.961   1.968 -0.3945 -0.2796  0.3620
  239MOL0     C32173   5.957   7.027   2.088  0.4890  0.4983 -0.3551
  239MOL0    Cl32174   6.077   6.915   2.173 -0.0281 -0.1273  0.0943
  239MOL0     C32175   5.352   7.392   1.313  0.0259  0.4502 -0.6421
  239MOL0     C32176   5.257   7.479   1.262  0.0668  0.1703  0.1401
  239MOL0     O32177   4.938   7.505   1.388 -0.9582 -0.3046 -0.9552
  239MOL0     C32178   4.716   7.643   1.306  0.7480  0.0418  0.9609
  239MOL0     C32179   4.613   7.719   1.245  0.3610  0.7007 -0.3454
  239MOL0     N32180   3.855   7.826   1.040  0.3741 -0.4411 -0.1839
  239MOL0     N32181   3.740   7.860   1.101 -0.4023  0.4209  0.5236
  239MOL0     C32182   3.584   6.891   1.005  0.0407  0.3808 -0.0488
  239MOL0     C32183   3.707   6.809   1.018 -0.2780  0.9997  0.6336
  239MOL0     C32184   4.104   6.637   1.002 -0.2822 -1.3908 -0.9811
  239MOL0     C32185   4.090   6.498   0.996 -0.0121 -0.4745  0.0950
  239MOL0     C32186   4.176   6.410   1.055 -0.0549 -0.6964 -0.2642
  239MOL0     C32187   4.298   6.458   1.104 -0.1276 -0.5214 -0.0911
  239MOL0     O32188   4.381   6.385   1.171 -0.1259  0.3237  0.6572
  239MOL0     C32189   4.405   6.254   1.142 -0.1293 -0.9761 -0.3813
  239MOL0     C32190   4.501   6.186   1.244  0.8290  0.2772 -0.3908
  239MOL0     C32191   4.595   6.083   1.181 -0.8564 -0.9048  1.0299
  239MOL0     C32192   4.544   5.942   1.217 -0.2118  0.4413 -0.2408
  239MOL0     C32193   4.426   5.906   1.133  0.0312  0.4002 -0.5569
  239MOL0     C32194   4.348   5.856   1.056 -0.6422  0.0922  0.0841
  239MOL0     C32195   4.320   6.595   1.113  0.1731 -0.4533 -0.7605
  239MOL0     C32196   4.223   6.684   1.062 -0.1018 -1.1734 -0.0137
  239MOL0     C32197   4.270   6.834   1.072  0.1363  0.2587  0.2864
  239MOL0     H32198   3.754   6.739   0.688 -3.2496 -1.8463 -1.3075
  239MOL0     H32199   3.550   6.850   0.673  0.1220 -1.8819  0.7663
  239MOL0     H32200   3.268   7.111   0.904 -0.1572 -0.0595  0.9880
  239MOL0     H32201   3.341   7.032   1.029  2.4064 -0.4819  1.3922
  239MOL0     H32202   3.476   7.245   0.845  5.1366 -2.7901 -0.8786
  239MOL0     H32203   3.558   7.164   0.985 -0.3633 -0.4076  0.2431
  239MOL0     H32204   3.398   7.256   1.129  1.2730  2.2522  1.2377
  239MOL0     H32205   3.310   7.338   0.992 -1.1415 -1.4833  1.2539
  239MOL0     H32206   3.599   7.380   1.107  1.3336  0.5967 -1.5448
  239MOL0     H32207   3.546   7.455   0.957 -1.9996 -0.9184 -1.4169
  239MOL0     H32208   3.438   7.617   1.049 -0.2319  0.6153  0.9718
  239MOL0     H32209   3.384   7.513   1.178 -0.8681  1.6083 -1.6250
  239MOL0     H32210   3.572   7.534   1.293 -3.7801 -0.5603  0.5626
  239MOL0     H32211   3.666   7.608   1.163 -0.8407  0.7695 -0.9532
  239MOL0     H32212   3.449   7.738   1.345 -0.4192 -2.4934 -1.0148
  239MOL0     H32213   3.482   7.798   1.179 -0.5492  0.0532  0.2906
  239MOL0     H32214   3.587   7.928   1.329 -2.0455  0.1245 -0.9993
  239MOL0     H32215   3.661   7.794   1.422 -0.9411 -1.3341 -0.5912
  239MOL0     H32216   3.907   7.797   1.374  1.7340  1.9889  0.5514
  239MOL0     H32217   4.141   7.754   1.220 -0.8002  1.9049  1.4438
  239MOL0     H32218   4.118   7.752   1.045 -0.4145 -1.2056  0.7167
  239MOL0     H32219   4.098   8.006   1.055 -0.2544  0.2937  1.0665
  239MOL0     H32220   4.139   7.991   1.228 -1.0086 -2.0630 -0.0306
  239MOL0     H32221   4.317   8.069   1.080 -0.9411  1.5809 -1.5055
  239MOL0     H32222   4.294   7.920   0.984 -3.2891  0.7537  0.1893
  239MOL0     H32223   4.368   7.778   1.131  1.2187 -0.5420  0.0911
  239MOL0     H32224   4.374   7.894   1.271 -0.6167 -0.0996 -0.9042
  239MOL0     H32225   4.775   7.940   1.058 -1.3430 -0.4027 -0.6824
  239MOL0     H32226   4.967   7.815   1.146 -0.6440  1.6059  1.0918
  239MOL0     H32227   5.160   7.657   1.532 -1.9056 -2.8089 -0.7404
  239MOL0     H32228   5.321   7.503   1.637 -1.5414 -0.6222  0.5750
  239MOL0     H32229   5.574   7.451   1.637  0.3572 -0.1544 -0.8198
  239MOL0     H32230   5.491   7.323   1.714  1.5417  2.4085  0.3967
  239MOL0     H32231   5.745   7.282   1.531  2.0882 -3.0565  0.8573
  239MOL0     H32232   5.740   7.296   1.710  0.0260  1.8735 -0.5671
  239MOL0     H32233   5.609   7.088   1.523  1.7599  1.6538 -1.2075
  239MOL0     H32234   5.759   7.084   1.581  0.0431 -1.8323  0.3284
  239MOL0     H32235   5.533   6.982   1.717  0.3118 -0.4161  1.6077
  239MOL0     H32236   5.568   7.135   1.814 -0.8814 -1.4808  2.1290
  239MOL0     H32237   5.763   6.907   1.744 -2.6476 -0.6254 -0.1524
  239MOL0     H32238   5.656   6.921   1.889 -0.9877  1.5147  0.2938
  239MOL0     H32239   5.870   7.116   1.810 -1.5698  1.4811 -0.2618
  239MOL0     H32240   5.760   7.125   1.952 -0.0686  0.5062 -0.6980
  239MOL0     H32241   5.973   6.917   1.896  1.1922  0.4484  1.4139
  239MOL0     H32242   5.839   6.881   2.005 -1.1843  0.0888 -0.1763
  239MOL0     H32243   6.006   7.121   2.061  0.3979  0.2463 -1.4060
  239MOL0     H32244   5.873   7.028   2.158  0.6960 -3.0938  0.1180
  239MOL0     H32245   5.428   7.340   1.255  0.3705 -2.5919  2.2579
  239MOL0     H32246   5.242   7.466   1.156  1.0084 -1.0111  0.1321
  239MOL0     H32247   4.699   7.559   1.374  0.1746 -0.0485  0.7122
  239MOL0     H32248   4.514   7.697   1.285  0.8781 -0.3726  0.3806
  239MOL0     H32249   3.541   6.952   1.083  1.0986 -0.2188  1.0420
  239MOL0     H32250   3.748   6.799   1.117  2.7835 -0.4562 -0.6703
  239MOL0     H32251   4.004   6.457   0.945 -0.1199 -1.2982  0.9113
  239MOL0     H32252   4.141   6.308   1.040 -1.2882  0.0991 -3.3925
  239MOL0     H32253   4.463   6.247   1.049  0.4808 -1.5364  0.0270
  239MOL0     H32254   4.314   6.196   1.130  0.8063 -1.9825 -4.3442
  239MOL0     H32255   4.449   6.132   1.323  2.4693 -0.2486  0.3583
  239MOL0     H32256   4.569   6.255   1.294 -0.3849  0.4988  1.0336
  239MOL0     H32257   4.694   6.108   1.218  0.0138 -0.1984 -1.5161
  239MOL0     H32258   4.600   6.099   1.072 -1.1807  0.7331  1.2227
  239MOL0     H32259   4.635   5.885   1.195  0.6298  0.6561  2.3692
  239MOL0     H32260   4.528   5.920   1.322  3.3819 -0.6948  0.2156
  239MOL0     H32261   4.285   5.835   0.972  0.6403  1.7537 -1.3616
  239MOL0     H32262   4.417   6.636   1.142  0.0878 -0.7227 -0.0843
  239MOL0     H32263   4.318   6.843   1.170 -1.5350  2.8612  0.9945
  239MOL0     H32264   4.330   6.854   0.983  1.9909  2.4341  1.8921
  239MOL0     H32265   4.196   6.915   1.078  1.8400  1.9105  0.0219
  240MOL0     O32266   2.645   0.318   6.059  0.2646  0.0371 -0.4768
  240MOL0     C32267   2.544   0.358   5.996  0.0449 -0.0633 -0.0927
  240MOL0     O32268   2.543   0.440   5.889  0.0278 -1.2638  0.9205
  240MOL0     C32269   2.650   0.512   5.841  0.0420  0.4530  0.6164
  240MOL0     C32270   2.647   0.553   5.711  0.4429  1.0343  0.0878
  240MOL0     C32271   2.744   0.632   5.654  0.7367  0.4405 -0.1722
  240MOL0     C32272   2.856   0.673   5.735  0.2595 -0.5375  0.3042
  240MOL0     O32273   2.960   0.755   5.699 -0.2058 -0.3730 -0.1297
  240MOL0     C32274   2.918   0.874   5.629  0.6968 -0.2763 -0.1753
  240MOL0     C32275   2.998   0.997   5.687 -0.1185  0.4498 -0.6322
  240MOL0     C32276   2.948   1.138   5.639 -0.1057 -0.2521 -0.3468
  240MOL0     C32277   3.055   1.246   5.665 -0.5274 -0.2630  0.1856
  240MOL0     C32278   3.192   1.214   5.595  0.2624  0.8637 -0.6338
  240MOL0     C32279   3.297   1.330   5.610  1.1703  0.4050 -0.6079
  240MOL0     C32280   3.348   1.348   5.751  0.9965 -0.0470  0.1390
  240MOL0     C32281   3.441   1.472   5.752 -0.5512 -0.8021 -0.0568
  240MOL0     N32282   3.493   1.503   5.881 -0.0204  0.2070 -0.0997
  240MOL0     C32283   3.421   1.561   5.988  0.2288 -0.5273  0.7768
  240MOL0     C32284   3.517   1.576   6.083  0.0871  0.2944 -0.1021
  240MOL0     C32285   3.483   1.670   6.197  0.2324 -0.1913 -0.4628
  240MOL0     C32286   3.574   1.642   6.324  0.1375 -0.6819  1.5032
  240MOL0     C32287   3.567   1.495   6.358 -0.1930 -0.7812  0.4526
  240MOL0     C32288   3.656   1.468   6.468 -0.1103 -0.3899 -0.6016
  240MOL0     O32289   3.614   1.541   6.588 -0.5163  0.0101 -0.3273
  240MOL0     C32290   3.510   1.486   6.662  0.3570 -0.0829 -0.3265
  240MOL0     C32291   3.534   1.357   6.724 -0.4670 -0.1819  0.7048
  240MOL0     C32292   3.430   1.285   6.792 -0.5070  0.3791  0.5064
  240MOL0     C32293   3.303   1.345   6.784 -0.3286 -0.8031  0.0107
  240MOL0     C32294   3.184   1.273   6.839 -0.5722 -0.0149  0.2684
  240MOL0     O32295   3.201   1.150   6.873  0.1002 -0.5709 -0.5933
  240MOL0     C32296   3.098   1.061   6.876 -0.7273  0.1996  0.7111
  240MOL0     C32297   3.072   0.999   6.993 -0.1855  0.2873 -0.6351
  240MOL0     C32298   2.974   0.901   6.995 -0.3232  1.5194 -0.2419
  240MOL0     C32299   2.896   0.872   6.880 -0.5102 -0.1991  0.3158
  240MOL0     O32300   2.784   0.795   6.891  0.3394  0.5420  0.4462
  240MOL0     C32301   2.671   0.818   6.804 -0.5763  0.0571  0.3248
  240MOL0     C32302   2.668   0.708   6.693  0.4510  0.3192 -0.1344
  240MOL0     C32303   2.612   0.566   6.739  0.0503  0.3934 -0.9240
  240MOL0     C32304   2.594   0.476   6.620  1.2772 -0.4843 -0.6163
  240MOL0     C32305   2.521   0.343   6.655 -0.9712  0.1758 -0.2657
  240MOL0     C32306   2.608   0.244   6.749 -0.4589 -1.3314 -0.2343
  240MOL0     C32307   2.531   0.110   6.775 -0.1799 -0.8173  0.7325
  240MOL0     C32308   2.601   0.019   6.878 -0.0135 -0.0674  0.1103
  240MOL0    Cl32309   2.597   0.087   7.042  0.1042  0.1345  0.1276
  240MOL0     C32310   2.924   0.946   6.766 -0.7168 -0.2526 -0.5457
  240MOL0     C32311   3.026   1.036   6.759  0.6540 -0.2366 -0.2695
  240MOL0     O32312   3.085   1.334   6.867 -0.0061 -0.2536 -0.1540
  240MOL0     C32313   3.284   1.463   6.715  0.3286 -0.1565  0.5495
  240MOL0     C32314   3.382   1.541   6.660 -0.5130  0.2196 -0.7256
  240MOL0     N32315   3.634   1.522   6.038  0.0401  0.5763 -0.2258
  240MOL0     N32316   3.627   1.484   5.917 -0.5486 -0.0386 -0.0113
  240MOL0     C32317   2.856   0.628   5.866  0.9389 -0.4812 -0.4363
  240MOL0     C32318   2.755   0.550   5.924 -0.3293 -0.0568  0.4221
  240MOL0     C32319   2.409   0.309   6.026  0.3044 -0.8758  0.1580
  240MOL0     C32320   2.305   0.328   5.931 -0.1755 -0.1955  0.5854
  240MOL0     C32321   2.190   0.251   5.932  1.0701  0.7103 -1.4147
  240MOL0     C32322   2.158   0.161   6.038 -0.6647  0.8250  1.1569
  240MOL0     O32323   2.046   0.085   6.055  0.6954  1.0810 -0.5413
  240MOL0     C32324   1.965   0.054   5.941  0.3427 -0.8218 -0.3902
  240MOL0     C32325   1.852  -0.035   5.979  0.0353  0.6982 -0.4141
  240MOL0     C32326   1.775  -0.084   5.856 -0.7018 -0.5771 -0.7701
  240MOL0     C32327   1.660  -0.172   5.899 -0.3045  0.8684 -0.4504
  240MOL0     C32328   1.543  -0.116   5.980 -1.2528 -0.0826  0.3196
  240MOL0     C32329   1.454  -0.073   6.043  0.3290 -0.0590 -0.6517
  240MOL0     C32330   2.244   0.163   6.139  0.1731 -0.0762  0.3399
  240MOL0     C32331   2.367   0.240   6.142  0.5029  0.1086  0.5725
  240MOL0     C32332   2.456   0.215   6.257  0.0116 -0.4308 -0.4005
  240MOL0     H32333   2.560   0.521   5.654  0.7170  0.1408  0.1562
  240MOL0     H32334   2.730   0.667   5.552 -0.0002  3.5446  0.9059
  240MOL0     H32335   2.945   0.867   5.523 -0.3037 -2.2732 -0.3312
  240MOL0     H32336   2.814   0.903   5.643  1.3044  1.8379  0.3214
  240MOL0     H32337   3.102   0.968   5.667 -1.0235 -4.1337  0.1947
  240MOL0     H32338   2.989   0.993   5.796 -0.5788  0.9065 -0.6508
  240MOL0     H32339   2.867   1.174   5.703  2.1003  0.5595  2.1342
  240MOL0     H32340   2.922   1.142   5.532 -0.3696 -1.7413 -0.3676
  240MOL0     H32341   3.028   1.348   5.635  2.3531  0.3627 -0.5158
  240MOL0     H32342   3.067   1.248   5.774  0.3124 -0.9823  0.1095
  240MOL0     H32343   3.243   1.130   5.643 -0.9953  2.5036  4.1300
  240MOL0     H32344   3.164   1.186   5.494 -2.0771 -0.9766  0.4351
  240MOL0     H32345   3.376   1.293   5.543 -0.3231 -2.9236 -0.7734
  240MOL0     H32346   3.257   1.423   5.570 -0.2745  0.0278 -0.0868
  240MOL0     H32347   3.412   1.261   5.770  1.9043  0.6059  0.1408
  240MOL0     H32348   3.274   1.347   5.831  2.0145  0.1034  1.1145
  240MOL0     H32349   3.530   1.465   5.688  0.3755  2.4020  0.7252
  240MOL0     H32350   3.382   1.558   5.720 -1.5664 -0.8156  1.6858
  240MOL0     H32351   3.319   1.595   6.002 -0.1470 -0.2682 -2.0199
  240MOL0     H32352   3.510   1.770   6.160 -2.4192 -0.0300 -2.1542
  240MOL0     H32353   3.378   1.662   6.224  0.1058  0.7735 -0.6148
  240MOL0     H32354   3.679   1.650   6.293  0.7406 -1.7465  3.1661
  240MOL0     H32355   3.558   1.720   6.399 -0.9291  0.7527 -0.1466
  240MOL0     H32356   3.598   1.431   6.275 -0.9130  0.7416 -1.0333
  240MOL0     H32357   3.471   1.460   6.399  0.0221 -0.6616  1.0763
  240MOL0     H32358   3.755   1.502   6.436 -0.5434  0.6790 -0.8490
  240MOL0     H32359   3.660   1.359   6.476  0.3942 -0.5486 -2.5032
  240MOL0     H32360   3.639   1.333   6.710 -0.2902 -1.5187  3.5093
  240MOL0     H32361   3.451   1.191   6.842  1.3341  1.4498  1.8434
  240MOL0     H32362   3.129   1.014   7.084  0.1603 -3.4745 -0.1059
  240MOL0     H32363   2.967   0.833   7.079  3.1449  0.0451 -0.9626
  240MOL0     H32364   2.574   0.811   6.854 -1.3067 -2.0017 -1.2125
  240MOL0     H32365   2.672   0.913   6.751 -1.9117 -0.0515  0.0711
  240MOL0     H32366   2.600   0.743   6.614  2.8918  1.2555 -1.9217
  240MOL0     H32367   2.760   0.685   6.639 -0.3765 -2.7165 -0.4699
  240MOL0     H32368   2.684   0.517   6.806 -0.6245  0.7387  0.0856
  240MOL0     H32369   2.519   0.572   6.797  0.5840  2.8176 -0.2224
  240MOL0     H32370   2.691   0.456   6.573  0.6009  0.0216 -2.2840
  240MOL0     H32371   2.539   0.532   6.543  1.8274  0.4384 -0.3641
  240MOL0     H32372   2.516   0.292   6.558  1.3337 -0.2847 -0.1879
  240MOL0     H32373   2.421   0.358   6.696 -0.3641 -2.6115  2.5972
  240MOL0     H32374   2.707   0.211   6.716  0.6567  0.3223  1.2438
  240MOL0     H32375   2.625   0.306   6.838 -1.5002 -0.3620 -0.6703
  240MOL0     H32376   2.519   0.062   6.678 -0.5115  2.0232 -0.7300
  240MOL0     H32377   2.432   0.138   6.813 -0.7071 -1.5349 -0.0852
  240MOL0     H32378   2.551  -0.079   6.881  0.9053 -0.5703 -0.5293
  240MOL0     H32379   2.704   0.007   6.844  0.5654  0.0913  1.7070
  240MOL0     H32380   2.868   0.928   6.675 -3.8726 -1.2119  1.3988
  240MOL0     H32381   3.052   1.081   6.664 -1.2426 -0.2650 -0.8294
  240MOL0     H32382   3.185   1.507   6.700  1.0091  1.0728 -0.5172
  240MOL0     H32383   3.362   1.637   6.613  1.9836  0.6025 -1.1371
  240MOL0     H32384   2.942   0.655   5.927  0.0140 -0.2408  0.8090
  240MOL0     H32385   2.769   0.528   6.030  0.5519  3.4566  1.1474
  240MOL0     H32386   2.326   0.379   5.838 -0.0664 -2.5131 -0.7379
  240MOL0     H32387   2.135   0.271   5.841 -0.4057  2.7201 -0.1660
  240MOL0     H32388   2.024  -0.000   5.866 -0.4691 -0.1143 -1.5767
  240MOL0     H32389   1.932   0.147   5.893  2.6394  1.3119  1.9100
  240MOL0     H32390   1.788   0.022   6.048  2.7048  1.3375  1.7038
  240MOL0     H32391   1.890  -0.123   6.031 -1.0933 -1.3392 -2.8460
  240MOL0     H32392   1.848  -0.133   5.792  3.1438  1.6897  1.4724
  240MOL0     H32393   1.727  -0.004   5.799 -3.0420 -1.1575  0.2428
  240MOL0     H32394   1.618  -0.207   5.804  2.5172  1.5142 -2.0393
  240MOL0     H32395   1.699  -0.258   5.956 -1.9457  0.4183  0.0546
  240MOL0     H32396   1.375  -0.027   6.098  0.9349  1.2296 -0.8212
  240MOL0     H32397   2.214   0.094   6.217  4.0732 -1.0304  1.2509
  240MOL0     H32398   2.554   0.186   6.217 -0.8771  0.8379 -3.8288
  240MOL0     H32399   2.475   0.303   6.321  1.3873  0.2733 -1.7115
  240MOL0     H32400   2.429   0.132   6.323  0.8328 -0.9001 -0.6427
  241MOL0     O32401   1.030   6.654   2.301  0.3644 -0.9348 -0.3198
  241MOL0     C32402   1.000   6.680   2.188 -0.3925 -0.4840 -0.1620
  241MOL0     O32403   0.880   6.646   2.133 -0.0759  0.3736 -0.8978
  241MOL0     C32404   0.773   6.595   2.201 -1.0505  0.5754  0.0994
  241MOL0     C32405   0.755   6.595   2.345  0.2683  0.0581  1.0251
  241MOL0     C32406   0.646   6.539   2.409  0.3077  0.1222  0.3248
  241MOL0     C32407   0.553   6.474   2.334 -0.8390 -0.8989  0.1828
  241MOL0     O32408   0.445   6.415   2.388 -0.2326  0.4813  0.3262
  241MOL0     C32409   0.325   6.487   2.379  0.1294  0.0087 -0.0894
  241MOL0     C32410   0.197   6.416   2.433 -0.3468 -0.7129  0.6116
  241MOL0     C32411   0.086   6.517   2.428  0.9408  0.5332 -0.5987
  241MOL0     C32412   0.031   6.565   2.567  0.5012 -0.6044  0.1162
  241MOL0     C32413  -0.087   6.665   2.539 -0.2691 -0.2594 -0.4818
  241MOL0     C32414  -0.145   6.703   2.683 -0.9549  0.5811 -0.0787
  241MOL0     C32415  -0.250   6.604   2.743 -0.4058  0.0646 -0.0078
  241MOL0     C32416  -0.298   6.673   2.870  0.1688 -0.1582  0.7947
  241MOL0     N32417  -0.383   6.579   2.944  0.1580  0.0840 -0.3418
  241MOL0     C32418  -0.492   6.513   2.891  0.0819  0.8483 -1.2141
  241MOL0     C32419  -0.537   6.449   2.994  0.6780 -0.0252  0.6156
  241MOL0     C32420  -0.647   6.354   2.997  0.0551  0.8634 -0.4781
  241MOL0     C32421  -0.630   6.243   2.889 -0.6305 -0.8479 -0.1707
  241MOL0     C32422  -0.737   6.135   2.913  0.6192 -1.3800 -0.2411
  241MOL0     C32423  -0.752   6.027   2.798 -0.0488  0.0135  0.5413
  241MOL0     O32424  -0.784   5.902   2.858 -0.3241  0.2271  0.0592
  241MOL0     C32425  -0.782   5.797   2.773 -0.6371  1.4729 -1.3021
  241MOL0     C32426  -0.835   5.802   2.650  0.4510 -0.4698 -0.0143
  241MOL0     C32427  -0.838   5.687   2.572 -0.3282  0.0430 -0.0416
  241MOL0     C32428  -0.780   5.569   2.596 -0.2749 -0.0111 -0.0127
  241MOL0     C32429  -0.790   5.453   2.515 -0.2078  0.2049 -0.9265
  241MOL0     O32430  -0.748   5.335   2.559 -0.6074 -0.4794 -0.4987
  241MOL0     C32431  -0.713   5.235   2.483 -0.1228  0.3177  0.6970
  241MOL0     C32432  -0.814   5.180   2.403  0.1819  0.0427 -0.0061
  241MOL0     C32433  -0.800   5.075   2.323  0.0212  0.6752  0.1705
  241MOL0     C32434  -0.676   5.009   2.323 -0.2469  0.5656 -0.3516
  241MOL0     O32435  -0.642   4.895   2.240 -0.6598  0.3025 -0.4699
  241MOL0     C32436  -0.694   4.887   2.111 -0.4204  0.6178  0.7319
  241MOL0     C32437  -0.631   4.999   2.028 -0.1356 -0.7950  0.6210
  241MOL0     C32438  -0.692   5.000   1.889  0.0760 -0.3939  0.0024
  241MOL0     C32439  -0.625   5.098   1.798 -0.1450 -0.0064 -0.4040
  241MOL0     C32440  -0.695   5.107   1.663 -0.2315 -0.8098  0.5987
  241MOL0     C32441  -0.700   5.244   1.604  0.5970  0.3562  0.2826
  241MOL0     C32442  -0.560   5.313   1.602 -0.3416  0.3217 -0.1108
  241MOL0     C32443  -0.523   5.394   1.476 -0.3871 -0.4229 -0.5159
  241MOL0    Cl32444  -0.611   5.549   1.479 -0.1617 -0.6643  0.4399
  241MOL0     C32445  -0.569   5.052   2.403 -0.0452 -0.1062 -0.5398
  241MOL0     C32446  -0.588   5.164   2.485 -0.3578 -0.6373 -1.1765
  241MOL0     O32447  -0.838   5.480   2.406 -0.3270 -0.0453  0.3188
  241MOL0     C32448  -0.717   5.568   2.722 -0.9320 -0.3371 -0.5690
  241MOL0     C32449  -0.713   5.678   2.812  0.8887 -1.2308 -0.7216
  241MOL0     N32450  -0.469   6.486   3.108 -0.4167 -0.6970 -0.4844
  241MOL0     N32451  -0.378   6.570   3.078 -0.0303 -0.2060 -0.7325
  241MOL0     C32452   0.582   6.466   2.190  0.4136 -0.2378  0.4826
  241MOL0     C32453   0.688   6.529   2.120  1.1552 -0.5449 -0.0403
  241MOL0     C32454   1.090   6.760   2.099  0.1316 -0.3307 -0.6990
  241MOL0     C32455   1.043   6.811   1.974 -0.0831 -0.0000 -0.1658
  241MOL0     C32456   1.132   6.867   1.890 -0.6911  0.6545 -0.0929
  241MOL0     C32457   1.267   6.887   1.916 -0.3296 -0.3924 -0.5400
  241MOL0     O32458   1.355   6.950   1.839 -0.8529 -0.5847 -0.3588
  241MOL0     C32459   1.327   7.007   1.714  0.2248  0.9401 -0.3326
  241MOL0     C32460   1.436   6.950   1.611  0.1513  0.0574 -0.3237
  241MOL0     C32461   1.448   6.794   1.631 -0.2224 -0.7630  0.7954
  241MOL0     C32462   1.497   6.710   1.510 -0.2893 -0.2931  0.4569
  241MOL0     C32463   1.626   6.753   1.467  0.2979  0.9858  0.2106
  241MOL0     C32464   1.725   6.805   1.422 -0.3061 -0.2539 -1.1743
  241MOL0     C32465   1.313   6.850   2.048  0.7738 -0.9353  0.2147
  241MOL0     C32466   1.228   6.789   2.140  0.4843  0.4751 -0.1148
  241MOL0     C32467   1.289   6.737   2.265  0.1243 -0.1788 -0.1120
  241MOL0     H32468   0.835   6.643   2.400  0.6453 -0.2806  0.7798
  241MOL0     H32469   0.630   6.546   2.516  3.1982 -2.2427  1.0635
  241MOL0     H32470   0.348   6.585   2.422 -1.2468  3.6945 -6.5005
  241MOL0     H32471   0.307   6.507   2.273 -2.4113 -1.2193  0.0164
  241MOL0     H32472   0.212   6.385   2.537  1.8998 -1.2651  0.1658
  241MOL0     H32473   0.156   6.328   2.383 -0.5044 -1.1745  1.5327
  241MOL0     H32474   0.016   6.465   2.362  1.4463 -1.5352  0.4240
  241MOL0     H32475   0.111   6.611   2.377  2.0749  1.8464  2.1675
  241MOL0     H32476  -0.006   6.486   2.633  1.1583  1.2695  2.9052
  241MOL0     H32477   0.110   6.614   2.626  1.9685  0.8979 -2.8487
  241MOL0     H32478  -0.041   6.753   2.493 -2.4431 -0.0529 -2.4096
  241MOL0     H32479  -0.163   6.634   2.466  0.3879 -0.0260 -1.2848
  241MOL0     H32480  -0.060   6.709   2.751  2.7054 -3.9000 -3.5594
  241MOL0     H32481  -0.187   6.804   2.681 -1.5327  0.3817  1.2228
  241MOL0     H32482  -0.197   6.510   2.763 -0.3562  0.3883  1.4709
  241MOL0     H32483  -0.335   6.581   2.679 -0.3294  0.6791 -0.3334
  241MOL0     H32484  -0.208   6.714   2.918 -1.1930  2.7912  1.0719
  241MOL0     H32485  -0.359   6.760   2.843 -0.4408 -1.4512 -2.5263
  241MOL0     H32486  -0.523   6.494   2.788 -0.3649  0.6375 -1.0452
  241MOL0     H32487  -0.640   6.296   3.090 -0.9166  0.5870 -0.5619
  241MOL0     H32488  -0.747   6.398   3.001 -0.1852  0.2917  0.1370
  241MOL0     H32489  -0.629   6.292   2.791 -3.7091  0.2638  0.2424
  241MOL0     H32490  -0.531   6.198   2.885  0.3161  1.1863 -0.7353
  241MOL0     H32491  -0.837   6.179   2.921  0.9630 -0.9684  3.0980
  241MOL0     H32492  -0.714   6.087   3.008 -1.2690 -1.7109  0.0998
  241MOL0     H32493  -0.661   6.026   2.738  0.2466  0.7938  0.9672
  241MOL0     H32494  -0.829   6.054   2.725 -1.6370  0.9971  2.4768
  241MOL0     H32495  -0.898   5.878   2.604 -1.8558 -2.3540 -0.1793
  241MOL0     H32496  -0.888   5.699   2.476  1.5327 -2.1792 -1.3952
  241MOL0     H32497  -0.910   5.231   2.404 -0.5255 -1.2145  1.4660
  241MOL0     H32498  -0.881   5.046   2.257 -0.0846 -1.1795  1.0686
  241MOL0     H32499  -0.671   4.787   2.076 -0.5100  0.6186  0.6689
  241MOL0     H32500  -0.803   4.898   2.121 -0.0209  5.9529  2.5495
  241MOL0     H32501  -0.653   5.097   2.071  0.2375 -0.7186  0.6394
  241MOL0     H32502  -0.522   4.995   2.032 -0.0453 -3.4591 -1.4372
  241MOL0     H32503  -0.675   4.898   1.853 -0.4864 -0.6907  0.5457
  241MOL0     H32504  -0.798   5.025   1.876 -0.4406 -1.9655  0.9243
  241MOL0     H32505  -0.518   5.074   1.794 -0.0994 -0.3804  1.9045
  241MOL0     H32506  -0.639   5.197   1.842  1.0887  0.7521 -1.6205
  241MOL0     H32507  -0.802   5.082   1.665 -0.4771 -0.1413 -1.6457
  241MOL0     H32508  -0.654   5.025   1.603 -0.3187  0.6807 -1.5724
  241MOL0     H32509  -0.736   5.234   1.502  1.0023  0.8112  0.0874
  241MOL0     H32510  -0.761   5.306   1.671 -1.3925 -1.4859  0.2593
  241MOL0     H32511  -0.484   5.234   1.614 -2.3989 -1.7140  0.2939
  241MOL0     H32512  -0.549   5.372   1.693  0.9126  1.0550 -0.7159
  241MOL0     H32513  -0.418   5.423   1.484 -0.3748 -0.3411 -0.9286
  241MOL0     H32514  -0.543   5.339   1.383  0.1347 -3.2721  0.9346
  241MOL0     H32515  -0.475   5.001   2.386 -0.3137 -0.7837 -0.0354
  241MOL0     H32516  -0.509   5.179   2.558  0.6105 -3.7142 -1.4261
  241MOL0     H32517  -0.668   5.477   2.755  1.1941  0.2960 -1.7932
  241MOL0     H32518  -0.666   5.673   2.909  1.2264  2.8571 -0.5198
  241MOL0     H32519   0.516   6.403   2.129 -1.3778  2.5251 -0.6290
  241MOL0     H32520   0.708   6.521   2.014  0.0979 -1.6942 -0.1696
  241MOL0     H32521   0.939   6.793   1.947  0.2927 -1.3201 -0.8325
  241MOL0     H32522   1.093   6.904   1.796  1.9609 -0.4964 -1.7869
  241MOL0     H32523   1.328   7.116   1.722 -0.3022  0.8429  1.6443
  241MOL0     H32524   1.230   6.968   1.682  0.9739 -0.9852 -0.3670
  241MOL0     H32525   1.536   6.992   1.623 -0.5721  1.6784  0.3708
  241MOL0     H32526   1.396   6.988   1.517 -1.1788  2.3261  1.0546
  241MOL0     H32527   1.351   6.753   1.659 -2.6715  2.8412 -1.5374
  241MOL0     H32528   1.517   6.775   1.714 -0.5256 -1.4248  0.8992
  241MOL0     H32529   1.506   6.601   1.519 -0.5145 -0.5549 -1.9171
  241MOL0     H32530   1.425   6.722   1.428 -0.8232 -2.5872  0.4992
  241MOL0     H32531   1.813   6.853   1.382 -0.2414 -0.6226 -1.4811
  241MOL0     H32532   1.408   6.888   2.084 -0.5056  1.9222  0.8889
  241MOL0     H32533   1.397   6.754   2.266  0.4952 -1.9046  2.7714
  241MOL0     H32534   1.259   6.777   2.362  0.8016 -2.5227  1.1532
  241MOL0     H32535   1.280   6.628   2.267  0.8153 -0.2459  1.3166
  242MOL0     O32536   4.610   1.677   7.765 -0.7390 -0.5032  0.6341
  242MOL0     C32537   4.622   1.794   7.799  0.7870  0.3921 -0.5644
  242MOL0     O32538   4.735   1.860   7.781 -0.3305 -0.6972 -0.1940
  242MOL0     C32539   4.828   1.808   7.697 -0.0422 -0.0721  0.8165
  242MOL0     C32540   4.903   1.694   7.728 -0.0005  0.5075 -0.3721
  242MOL0     C32541   4.997   1.645   7.634 -0.3175  0.4326 -0.9578
  242MOL0     C32542   5.024   1.702   7.513 -0.2836 -0.9762  0.9178
  242MOL0     O32543   5.098   1.642   7.417 -0.0296  0.3096 -0.0673
  242MOL0     C32544   5.203   1.552   7.457  0.5867 -0.2212 -0.4441
  242MOL0     C32545   5.302   1.508   7.346 -0.0670  0.0058 -0.3173
  242MOL0     C32546   5.346   1.624   7.267 -0.8855 -0.1128 -0.0917
  242MOL0     C32547   5.446   1.587   7.153 -0.4409  0.3541  0.5709
  242MOL0     C32548   5.568   1.499   7.180  0.2393 -0.8592 -0.1800
  242MOL0     C32549   5.677   1.529   7.082  0.2462  0.4973 -0.1349
  242MOL0     C32550   5.634   1.482   6.941  0.1380 -0.2439  0.2870
  242MOL0     C32551   5.748   1.508   6.842 -0.2337  0.3908  0.3856
  242MOL0     N32552   5.725   1.414   6.724 -0.2058 -0.4440 -0.6005
  242MOL0     C32553   5.758   1.280   6.723  0.5298  0.4250 -0.8896
  242MOL0     C32554   5.737   1.232   6.600  0.2773  0.2235  1.1809
  242MOL0     C32555   5.741   1.091   6.547 -0.3805 -0.0917  0.1070
  242MOL0     C32556   5.813   1.079   6.414  0.9217 -0.3249 -0.1518
  242MOL0     C32557   5.788   0.937   6.355  0.9097 -0.2208  0.8601
  242MOL0     C32558   5.863   0.927   6.210  0.9360 -0.1357 -0.1075
  242MOL0     O32559   5.761   0.942   6.108  0.0236 -0.5129  0.1639
  242MOL0     C32560   5.807   0.906   5.979  0.4317 -0.2998  0.0941
  242MOL0     C32561   5.916   0.824   5.956 -0.4415  0.5117 -0.2674
  242MOL0     C32562   5.938   0.773   5.831 -0.1457 -0.3767  0.3217
  242MOL0     C32563   5.856   0.803   5.721  0.4672 -0.4099 -0.1264
  242MOL0     C32564   5.880   0.721   5.595 -0.2617  0.2102 -0.3187
  242MOL0     O32565   5.779   0.735   5.505 -0.0319 -0.2410 -0.6100
  242MOL0     C32566   5.793   0.671   5.389 -0.2393  0.4445  0.5209
  242MOL0     C32567   5.892   0.714   5.303 -0.1191 -0.8471  0.1955
  242MOL0     C32568   5.889   0.666   5.175 -0.0718  0.5704 -0.2975
  242MOL0     C32569   5.791   0.586   5.119 -0.2318 -0.9222  0.3299
  242MOL0     O32570   5.784   0.551   4.989 -0.8318 -0.2157 -0.0901
  242MOL0     C32571   5.912   0.500   4.937  0.5696 -1.3673 -0.4906
  242MOL0     C32572   5.953   0.368   4.999 -0.5765  0.5176 -0.0779
  242MOL0     C32573   6.068   0.298   4.925  0.2057  0.9163 -0.6262
  242MOL0     C32574   6.190   0.393   4.885 -0.5565 -0.4517 -0.1251
  242MOL0     C32575   6.305   0.318   4.818  1.4757  0.5399 -1.0293
  242MOL0     C32576   6.422   0.404   4.778 -0.6022  0.3309  0.1563
  242MOL0     C32577   6.568   0.325   4.727  0.2413  0.2016 -0.4114
  242MOL0     C32578   6.649   0.259   4.846 -0.2937 -0.4546 -0.0346
  242MOL0    Cl32579   6.694   0.369   4.981  0.2224  0.5765  0.1916
  242MOL0     C32580   5.694   0.540   5.214  0.6453  0.0785  0.5394
  242MOL0     C32581   5.698   0.579   5.348  0.5300  0.0570 -0.8692
  242MOL0     O32582   5.973   0.642   5.591  0.0470 -0.7855  0.0536
  242MOL0     C32583   5.751   0.884   5.747  0.8222 -0.6656  0.1318
  242MOL0     C32584   5.727   0.939   5.871  0.7962  0.4518 -0.5912
  242MOL0     N32585   5.700   1.347   6.521  0.6421  0.8239  0.3947
  242MOL0     N32586   5.685   1.449   6.601  0.6349 -0.5035  0.0829
  242MOL0     C32587   4.948   1.816   7.480  0.7258  0.3907 -0.0770
  242MOL0     C32588   4.861   1.872   7.573 -0.4714  0.3057  0.1702
  242MOL0     C32589   4.529   1.868   7.903 -0.8441  0.5416  0.1592
  242MOL0     C32590   4.581   1.984   7.967  0.5523 -0.2073  0.6153
  242MOL0     C32591   4.493   2.061   8.049 -0.1312 -0.7906  0.7048
  242MOL0     C32592   4.355   2.036   8.043 -0.5144  0.4721  0.3013
  242MOL0     O32593   4.261   2.120   8.107 -0.3396 -0.8549 -0.6806
  242MOL0     C32594   4.301   2.242   8.169 -0.5776  0.4248  0.1639
  242MOL0     C32595   4.315   2.368   8.073  0.1066 -0.1922  0.5731
  242MOL0     C32596   4.391   2.480   8.147  0.4418  0.7094  0.5311
  242MOL0     C32597   4.280   2.579   8.201 -1.1449  0.1575 -1.0446
  242MOL0     C32598   4.210   2.654   8.096 -0.1678 -0.1034 -0.2839
  242MOL0     C32599   4.170   2.702   7.995 -1.3715 -0.1119 -0.6734
  242MOL0     C32600   4.314   1.924   7.981 -0.7615 -0.4767  0.3879
  242MOL0     C32601   4.394   1.837   7.914 -0.1113  0.4002  0.6708
  242MOL0     C32602   4.328   1.715   7.844 -0.2926 -0.4022  0.3997
  242MOL0     H32603   4.897   1.651   7.827  2.8895 -0.0756 -0.3563
  242MOL0     H32604   5.044   1.551   7.661 -1.1398  0.9493  3.0589
  242MOL0     H32605   5.256   1.608   7.534 -0.0501  2.1444 -1.6211
  242MOL0     H32606   5.158   1.460   7.494 -1.5272  0.5793 -0.8786
  242MOL0     H32607   5.245   1.438   7.285  0.3175  0.6249 -1.4301
  242MOL0     H32608   5.378   1.451   7.400 -0.1472  1.0130  0.9008
  242MOL0     H32609   5.399   1.691   7.336 -0.7649 -0.0671 -0.2284
  242MOL0     H32610   5.264   1.686   7.229 -2.4513 -2.3409 -0.5482
  242MOL0     H32611   5.386   1.534   7.077  2.5825 -1.4984 -0.6951
  242MOL0     H32612   5.480   1.680   7.106 -1.8561  0.1136 -1.0386
  242MOL0     H32613   5.604   1.517   7.281  0.3901  2.5550 -0.7274
  242MOL0     H32614   5.530   1.396   7.186 -3.8085  0.4138 -0.6332
  242MOL0     H32615   5.717   1.630   7.072  0.2475  0.4679 -0.4484
  242MOL0     H32616   5.756   1.456   7.098  0.9037  0.4921 -2.8959
  242MOL0     H32617   5.548   1.540   6.905  1.8361  1.6155 -0.9296
  242MOL0     H32618   5.617   1.374   6.944 -1.5304  0.0114  1.2134
  242MOL0     H32619   5.740   1.614   6.816  0.0933  0.6824  1.4343
  242MOL0     H32620   5.840   1.486   6.896  0.6233  1.3359 -0.6604
  242MOL0     H32621   5.786   1.207   6.799  0.1269  1.1137 -0.0529
  242MOL0     H32622   5.803   1.036   6.619  1.1229  0.5203 -0.6767
  242MOL0     H32623   5.643   1.044   6.540  0.6249 -2.1249 -1.4774
  242MOL0     H32624   5.774   1.156   6.347 -1.4641 -1.4623 -0.1724
  242MOL0     H32625   5.917   1.101   6.440  0.4540  2.9168 -0.6423
  242MOL0     H32626   5.680   0.921   6.359  0.6295  1.1506 -0.3089
  242MOL0     H32627   5.837   0.875   6.430  0.6865 -2.4112 -0.7045
  242MOL0     H32628   5.905   0.827   6.201 -2.1626 -1.6640  0.9929
  242MOL0     H32629   5.943   1.002   6.206 -0.0297  0.9390 -4.6439
  242MOL0     H32630   5.989   0.788   6.028  0.8517  1.6371 -0.9641
  242MOL0     H32631   6.026   0.712   5.817  1.6444  1.7765  1.5844
  242MOL0     H32632   5.951   0.795   5.346 -1.3868  0.2305  0.0003
  242MOL0     H32633   5.971   0.714   5.123  0.4374  0.5190  0.4381
  242MOL0     H32634   5.916   0.496   4.828  0.5007  3.0543 -0.8521
  242MOL0     H32635   5.979   0.586   4.949 -1.3161  0.4545 -2.1301
  242MOL0     H32636   5.973   0.392   5.103  2.1166 -0.8211 -0.1884
  242MOL0     H32637   5.860   0.310   4.990 -2.1532  2.8062  0.6408
  242MOL0     H32638   6.105   0.226   4.999 -2.4719  0.8440  0.7831
  242MOL0     H32639   6.046   0.236   4.837 -2.6405  1.2947 -0.2704
  242MOL0     H32640   6.219   0.445   4.977 -0.5641  0.2974 -0.5344
  242MOL0     H32641   6.166   0.482   4.825 -0.4481 -0.1058  0.3391
  242MOL0     H32642   6.255   0.274   4.731 -2.5335  2.5670  0.0234
  242MOL0     H32643   6.337   0.241   4.889 -0.3250  0.0078 -0.7413
  242MOL0     H32644   6.387   0.480   4.707 -0.8665 -0.3150 -0.4185
  242MOL0     H32645   6.451   0.463   4.865  1.1034  3.3572 -2.2840
  242MOL0     H32646   6.647   0.386   4.683  1.6035 -1.4739 -0.3902
  242MOL0     H32647   6.541   0.250   4.652 -0.0590  0.9014 -1.0154
  242MOL0     H32648   6.591   0.188   4.907  1.9940  0.5036  3.5567
  242MOL0     H32649   6.733   0.199   4.809 -1.1645 -1.9878  0.3641
  242MOL0     H32650   5.601   0.489   5.191 -0.2499  1.7779  0.2484
  242MOL0     H32651   5.619   0.560   5.421 -0.3335 -1.2117 -2.0886
  242MOL0     H32652   5.676   0.909   5.673 -1.1080 -3.8811  0.7805
  242MOL0     H32653   5.639   1.003   5.881 -0.7466 -1.7138  0.4600
  242MOL0     H32654   4.951   1.861   7.381 -2.0874 -1.2415 -1.0026
  242MOL0     H32655   4.806   1.960   7.542  0.3796 -0.3468 -3.7287
  242MOL0     H32656   4.685   2.013   7.956  0.6381 -1.0996 -1.2533
  242MOL0     H32657   4.535   2.149   8.097  1.2247  0.4321 -2.4130
  242MOL0     H32658   4.394   2.227   8.224 -1.6800 -0.3142  1.8841
  242MOL0     H32659   4.232   2.266   8.251 -0.0366  2.4501  0.1026
  242MOL0     H32660   4.218   2.401   8.035  1.3578  1.9190 -0.9894
  242MOL0     H32661   4.374   2.334   7.987  1.2031 -2.4196  2.1005
  242MOL0     H32662   4.458   2.530   8.076  2.3708  0.1399  1.8880
  242MOL0     H32663   4.455   2.433   8.222  0.9998 -0.6228 -0.7183
  242MOL0     H32664   4.199   2.527   8.254  0.3475 -1.8338 -0.5898
  242MOL0     H32665   4.319   2.657   8.265 -3.7819  1.0151 -0.3517
  242MOL0     H32666   4.142   2.757   7.907  0.5259  0.4756 -0.9680
  242MOL0     H32667   4.212   1.887   7.983 -1.0933  0.1425 -2.3203
  242MOL0     H32668   4.388   1.623   7.845 -3.1727 -2.4297  1.8932
  242MOL0     H32669   4.234   1.682   7.890 -0.0625 -0.6486  0.6969
  242MOL0     H32670   4.313   1.745   7.740 -1.0822  0.2343  0.6858
  243MOL0     O32671   8.151  10.946   1.126 -0.8058  0.6840 -0.4020
  243MOL0     C32672   8.086  10.981   1.225  0.0261 -0.7979 -0.4335
  243MOL0     O32673   8.067  11.114   1.271  0.0565  0.6139 -0.4476
  243MOL0     C32674   8.059  11.223   1.183  0.5199 -0.0454  0.8127
  243MOL0     C32675   8.086  11.212   1.044 -1.1846 -0.6474 -0.5001
  243MOL0     C32676   8.073  11.322   0.962  0.6366  0.1038  0.6686
  243MOL0     C32677   8.053  11.447   1.016  0.3612  0.1934 -0.2636
  243MOL0     O32678   8.036  11.562   0.946 -0.0402  0.6825  0.7627
  243MOL0     C32679   8.001  11.550   0.806 -0.0428  0.1346 -0.1525
  243MOL0     C32680   8.021  11.690   0.736  0.0071  0.0144 -0.2558
  243MOL0     C32681   7.930  11.798   0.779  1.1330 -0.2394 -0.3325
  243MOL0     C32682   7.971  11.926   0.716 -0.5299 -1.2298  1.2152
  243MOL0     C32683   7.858  12.031   0.749  0.0879 -0.5557  0.0716
  243MOL0     C32684   7.887  12.165   0.680  0.2458 -0.1544 -0.6004
  243MOL0     C32685   7.802  12.279   0.739  0.9610  0.2744 -0.1711
  243MOL0     C32686   7.825  12.406   0.661 -0.2447 -0.3741 -0.1343
  243MOL0     N32687   7.716  12.507   0.664 -0.3405  0.2025  0.2578
  243MOL0     C32688   7.673  12.583   0.555 -0.5197 -0.6082  0.2316
  243MOL0     C32689   7.555  12.645   0.589 -0.0173 -0.8051 -0.1647
  243MOL0     C32690   7.456  12.723   0.508  0.5830  0.6623 -0.0336
  243MOL0     C32691   7.329  12.637   0.475 -0.0254  0.1063  0.4157
  243MOL0     C32692   7.358  12.512   0.385  0.0003 -0.2591 -0.3236
  243MOL0     C32693   7.409  12.391   0.457  0.3222  0.0036 -0.7239
  243MOL0     O32694   7.413  12.281   0.360 -0.2691  0.2956 -0.1160
  243MOL0     C32695   7.437  12.149   0.406  0.2256  0.0286  0.1893
  243MOL0     C32696   7.395  12.034   0.335  0.0929 -0.2258  0.0047
  243MOL0     C32697   7.404  11.903   0.384 -0.7141 -0.7231  0.3480
  243MOL0     C32698   7.456  11.880   0.520 -0.6809  0.4841  0.4639
  243MOL0     C32699   7.450  11.746   0.593  0.1378 -0.1953  0.3255
  243MOL0     O32700   7.476  11.752   0.728 -0.3887 -0.2820 -0.0111
  243MOL0     C32701   7.453  11.650   0.806  0.5248  0.0223 -0.0047
  243MOL0     C32702   7.550  11.556   0.834 -0.9156 -0.2946 -1.1608
  243MOL0     C32703   7.526  11.452   0.925 -0.3706 -0.2477  0.4780
  243MOL0     C32704   7.398  11.434   0.984 -0.4083 -0.7101  0.0053
  243MOL0     O32705   7.383  11.320   1.066 -0.2762 -0.7637 -0.4514
  243MOL0     C32706   7.290  11.345   1.177  0.9955  0.1367  0.1916
  243MOL0     C32707   7.315  11.240   1.290  0.5693 -0.0676 -0.8401
  243MOL0     C32708   7.461  11.185   1.305  0.5307  0.3133 -0.0480
  243MOL0     C32709   7.565  11.293   1.348 -0.0995  0.5816 -0.0053
  243MOL0     C32710   7.709  11.245   1.364  1.0727 -1.1361 -0.6649
  243MOL0     C32711   7.736  11.148   1.487  0.0984  0.2337 -0.2462
  243MOL0     C32712   7.750  11.218   1.628  0.2357 -0.9488  0.1807
  243MOL0     C32713   7.769  11.118   1.736 -0.0074 -0.6989 -0.1080
  243MOL0    Cl32714   7.930  11.050   1.750 -0.5195  0.1930 -0.3388
  243MOL0     C32715   7.297  11.526   0.949 -0.4063 -0.1023 -0.2051
  243MOL0     C32716   7.320  11.629   0.863 -0.3263  0.0354  1.0202
  243MOL0     O32717   7.415  11.647   0.535 -0.5208  1.4200  0.2788
  243MOL0     C32718   7.495  11.999   0.582  0.2990  0.7320 -0.5139
  243MOL0     C32719   7.487  12.131   0.535  0.7941  0.5085 -0.0234
  243MOL0     N32720   7.522  12.604   0.725 -0.7062 -0.2201  0.7773
  243MOL0     N32721   7.629  12.530   0.763  0.0098  0.4230 -1.2068
  243MOL0     C32722   8.029  11.461   1.152 -0.5769  0.1857 -0.2456
  243MOL0     C32723   8.023  11.352   1.232 -0.5024  0.8152  0.0500
  243MOL0     C32724   8.049  10.884   1.331 -0.3638 -0.1130 -0.2020
  243MOL0     C32725   8.136  10.877   1.439 -0.4067  0.1804 -0.5896
  243MOL0     C32726   8.109  10.794   1.555 -0.3875 -0.0842 -0.5872
  243MOL0     C32727   7.984  10.730   1.567  0.4426 -0.8876  1.2886
  243MOL0     O32728   7.963  10.663   1.694 -0.0237 -0.4356  0.2095
  243MOL0     C32729   7.826  10.644   1.726 -0.6143 -0.6444  0.3552
  243MOL0     C32730   7.801  10.614   1.871 -0.3814  0.0896 -0.0587
  243MOL0     C32731   7.827  10.728   1.964 -0.6207  0.4627  0.3710
  243MOL0     C32732   7.864  10.656   2.103 -0.7392  0.0209  0.3157
  243MOL0     C32733   7.919  10.749   2.195 -0.8552  0.8979 -0.3178
  243MOL0     C32734   7.967  10.812   2.288 -0.1885 -0.0850 -0.2627
  243MOL0     C32735   7.890  10.742   1.450 -0.1352  0.4176  0.1541
  243MOL0     C32736   7.923  10.817   1.331 -0.3508  0.7488  0.0408
  243MOL0     C32737   7.812  10.847   1.241  0.1698  0.2856 -0.1184
  243MOL0     H32738   8.130  11.136   0.980 -2.5605  1.0656 -3.6842
  243MOL0     H32739   8.105  11.310   0.859  0.9226 -1.0146  0.8739
  243MOL0     H32740   8.065  11.481   0.751 -1.6828  0.2390 -2.3476
  243MOL0     H32741   7.901  11.505   0.797 -2.0355  3.3889  2.7051
  243MOL0     H32742   8.016  11.672   0.628  1.0321 -2.0797  0.0078
  243MOL0     H32743   8.125  11.723   0.734 -0.8048  2.8727  0.1435
  243MOL0     H32744   7.931  11.809   0.888  0.3470  1.1074 -0.4344
  243MOL0     H32745   7.824  11.793   0.752  0.0338  3.0662  2.5142
  243MOL0     H32746   8.065  11.954   0.764 -0.7014  0.9321  0.4262
  243MOL0     H32747   7.996  11.921   0.610  2.6284 -1.0144  1.8426
  243MOL0     H32748   7.760  11.988   0.725 -0.1022 -0.3919  0.5463
  243MOL0     H32749   7.848  12.050   0.856 -1.3905  0.5728 -0.2277
  243MOL0     H32750   7.991  12.196   0.692 -0.0578  0.9176 -0.6428
  243MOL0     H32751   7.847  12.151   0.579 -2.3765 -0.9387  0.4621
  243MOL0     H32752   7.835  12.289   0.843  1.6328 -0.1758 -0.3398
  243MOL0     H32753   7.696  12.251   0.732  1.4075 -1.0227 -3.5694
  243MOL0     H32754   7.913  12.450   0.709 -0.9714 -2.0447  2.9878
  243MOL0     H32755   7.858  12.381   0.560  3.9280 -0.2475  1.0462
  243MOL0     H32756   7.721  12.580   0.458  0.0862 -1.0820  0.5346
  243MOL0     H32757   7.421  12.812   0.562 -4.0762 -0.3539 -0.8969
  243MOL0     H32758   7.512  12.736   0.415  0.8627 -0.0375  0.0363
  243MOL0     H32759   7.265  12.600   0.556 -0.8770 -3.1271 -1.5599
  243MOL0     H32760   7.279  12.713   0.414  0.9347 -1.9009 -3.1108
  243MOL0     H32761   7.435  12.534   0.311  1.3641  1.1737  1.4573
  243MOL0     H32762   7.266  12.483   0.332 -0.7294  0.3475  0.6003
  243MOL0     H32763   7.338  12.363   0.536 -1.4770  1.3838 -1.7838
  243MOL0     H32764   7.509  12.403   0.499  1.3803 -0.4756 -2.9819
  243MOL0     H32765   7.344  12.047   0.240  0.3202 -1.1418 -0.2571
  243MOL0     H32766   7.380  11.819   0.318  0.7324 -0.6346 -0.3226
  243MOL0     H32767   7.652  11.579   0.804 -0.5842  0.1722  0.2575
  243MOL0     H32768   7.601  11.380   0.956 -1.2263 -2.4521 -2.1841
  243MOL0     H32769   7.299  11.446   1.218  1.5497  1.6006 -3.2133
  243MOL0     H32770   7.187  11.332   1.140  0.2019  0.2720  2.2026
  243MOL0     H32771   7.281  11.273   1.389 -0.0416 -0.2739 -0.9751
  243MOL0     H32772   7.249  11.156   1.264  1.1488 -0.4890 -0.9665
  243MOL0     H32773   7.442  11.109   1.382 -0.4809  3.0885  2.6351
  243MOL0     H32774   7.485  11.163   1.201 -0.3213  0.6085 -0.3084
  243MOL0     H32775   7.540  11.353   1.436  3.5459  0.4700  1.2927
  243MOL0     H32776   7.566  11.349   1.254 -1.6009 -1.8474 -1.5720
  243MOL0     H32777   7.774  11.333   1.368 -0.6549  0.2010 -1.1003
  243MOL0     H32778   7.738  11.190   1.274  2.5402 -1.0272 -0.2803
  243MOL0     H32779   7.662  11.068   1.498 -0.3451  0.7419  0.6286
  243MOL0     H32780   7.835  11.110   1.461  0.2549  1.0684 -0.8893
  243MOL0     H32781   7.653  11.260   1.655  0.0352 -1.6664  0.6009
  243MOL0     H32782   7.830  11.293   1.628  1.1026 -1.8379 -0.7856
  243MOL0     H32783   7.738  11.164   1.830 -0.0143  2.5517 -1.5740
  243MOL0     H32784   7.700  11.034   1.722  1.0063 -1.9610  1.9488
  243MOL0     H32785   7.194  11.504   0.974 -1.2623 -0.4954 -3.6285
  243MOL0     H32786   7.239  11.698   0.842  0.8989  1.6341  1.3977
  243MOL0     H32787   7.518  11.994   0.688 -0.5454 -0.6898 -0.3755
  243MOL0     H32788   7.522  12.207   0.604 -0.3914  0.3917  0.7412
  243MOL0     H32789   8.014  11.557   1.199 -1.6257  0.5287 -1.2443
  243MOL0     H32790   8.007  11.365   1.339  0.6078 -0.2595  0.3552
  243MOL0     H32791   8.218  10.947   1.452 -0.4118  0.0175  0.4345
  243MOL0     H32792   8.167  10.798   1.647  1.3011 -1.5217 -1.5331
  243MOL0     H32793   7.799  10.552   1.673 -2.1318  0.0690 -0.2006
  243MOL0     H32794   7.767  10.731   1.692  0.7926  1.1964  2.3417
  243MOL0     H32795   7.853  10.520   1.895 -0.1109 -0.1013 -1.3457
  243MOL0     H32796   7.697  10.578   1.880  0.1035 -1.3843 -0.0222
  243MOL0     H32797   7.742  10.797   1.967 -1.1066 -0.1304  3.1537
  243MOL0     H32798   7.907  10.793   1.926 -0.1239 -1.1612 -1.4939
  243MOL0     H32799   7.772  10.623   2.153  2.1199 -3.4922  4.0183
  243MOL0     H32800   7.922  10.565   2.084 -1.8816 -0.7949  0.5681
  243MOL0     H32801   8.003  10.847   2.383 -0.4014 -0.7442  0.0706
  243MOL0     H32802   7.792  10.697   1.466  1.1694 -3.1067 -0.8485
  243MOL0     H32803   7.764  10.757   1.202 -2.7968  2.4227 -1.8382
  243MOL0     H32804   7.740  10.915   1.289  1.7383  2.1994 -0.3307
  243MOL0     H32805   7.859  10.906   1.161  1.0942  2.2878  1.7920
  244MOL0     O32806  11.102   0.711   2.290  0.1911  0.0862  0.4017
  244MOL0     C32807  11.137   0.673   2.399 -0.0666  0.2199  0.5679
  244MOL0     O32808  11.246   0.585   2.415 -0.0035 -0.1411 -0.5555
  244MOL0     C32809  11.346   0.576   2.323 -0.4326 -0.3566  0.7525
  244MOL0     C32810  11.404   0.688   2.268 -0.6949  0.5044  0.4701
  244MOL0     C32811  11.512   0.656   2.186  0.2010 -1.0344  0.3801
  244MOL0     C32812  11.570   0.529   2.158 -0.3472  0.1688 -0.8280
  244MOL0     O32813  11.674   0.518   2.075 -1.3527 -0.1306  0.1452
  244MOL0     C32814  11.660   0.443   1.956  0.7620 -0.4668 -0.8179
  244MOL0     C32815  11.796   0.384   1.911  0.3895 -0.4744 -0.8237
  244MOL0     C32816  11.877   0.328   2.033  0.5535  0.1933 -0.7088
  244MOL0     C32817  12.015   0.272   1.997  0.6019  0.0293 -0.8542
  244MOL0     C32818  12.082   0.207   2.121  0.8072 -0.4421 -0.8284
  244MOL0     C32819  12.234   0.231   2.113 -0.5309 -0.0721  0.5016
  244MOL0     C32820  12.298   0.181   2.241 -0.5405 -0.4860 -0.1788
  244MOL0     C32821  12.455   0.166   2.211  0.0300 -0.3594  0.0346
  244MOL0     N32822  12.519   0.117   2.323 -0.1895 -0.3196  0.1518
  244MOL0     C32823  12.587  -0.002   2.323 -1.0152 -0.4993  1.2147
  244MOL0     C32824  12.654  -0.022   2.435 -1.0227 -0.5815 -0.0265
  244MOL0     C32825  12.762  -0.122   2.462  0.0865  0.6149 -0.1118
  244MOL0     C32826  12.902  -0.054   2.475 -0.1606 -0.3801  0.6843
  244MOL0     C32827  12.948   0.024   2.354  0.2323  0.4719 -0.9339
  244MOL0     C32828  13.081   0.090   2.386  0.1000 -0.1717 -0.5939
  244MOL0     O32829  13.127   0.179   2.279  0.0689 -0.6229 -0.2793
  244MOL0     C32830  13.254   0.240   2.273  0.5068 -0.6152  0.8475
  244MOL0     C32831  13.330   0.246   2.390 -0.0626  0.5692  0.6977
  244MOL0     C32832  13.461   0.298   2.380  0.6052 -0.5856 -0.1199
  244MOL0     C32833  13.524   0.327   2.256  0.3583 -0.7067  0.0375
  244MOL0     C32834  13.661   0.374   2.247 -0.4822 -0.8213 -0.9966
  244MOL0     O32835  13.693   0.489   2.321 -0.1211  0.8745 -0.6157
  244MOL0     C32836  13.802   0.565   2.285 -0.1111  0.0546 -0.8957
  244MOL0     C32837  13.929   0.544   2.337  0.2961  0.2543 -0.5038
  244MOL0     C32838  14.032   0.633   2.318  0.2763 -0.2358  0.6278
  244MOL0     C32839  14.012   0.758   2.251  0.0521 -0.3579 -0.1977
  244MOL0     O32840  14.102   0.849   2.204 -0.2193  0.3359 -0.2957
  244MOL0     C32841  14.237   0.842   2.246  0.0604  0.6277 -0.2160
  244MOL0     C32842  14.260   0.884   2.394 -1.1377  0.6203  0.3082
  244MOL0     C32843  14.234   1.035   2.417 -0.2216  0.2645  0.0572
  244MOL0     C32844  14.289   1.096   2.548 -0.1019  0.7599 -0.1202
  244MOL0     C32845  14.238   1.242   2.563 -0.4354 -0.1348  0.0915
  244MOL0     C32846  14.297   1.284   2.686 -0.4422 -0.6239  0.2989
  244MOL0     C32847  14.257   1.429   2.714 -0.5082  0.0521  0.1247
  244MOL0     C32848  14.327   1.486   2.842  0.0643  0.1711 -0.0788
  244MOL0    Cl32849  14.285   1.397   2.996 -0.3642  0.0357  0.2103
  244MOL0     C32850  13.878   0.795   2.221 -0.9093  0.4145  0.2426
  244MOL0     C32851  13.775   0.695   2.237  0.5562  0.8048  0.7828
  244MOL0     O32852  13.748   0.304   2.200  0.3029 -0.8654 -0.2225
  244MOL0     C32853  13.444   0.308   2.146 -0.1652 -0.1957  0.0716
  244MOL0     C32854  13.308   0.279   2.150 -0.4453 -0.6802 -0.3671
  244MOL0     N32855  12.640   0.090   2.504  0.0305 -0.8172 -0.2398
  244MOL0     N32856  12.559   0.178   2.445 -0.2048 -0.2718  0.2490
  244MOL0     C32857  11.518   0.424   2.237 -0.2902 -0.1483  0.5556
  244MOL0     C32858  11.404   0.447   2.307 -0.1836 -0.1587  0.3615
  244MOL0     C32859  11.065   0.717   2.525 -0.9427  0.4340  0.7121
  244MOL0     C32860  11.104   0.633   2.635  0.4584 -0.9382  0.4823
  244MOL0     C32861  11.039   0.655   2.759 -0.5114  0.1206  0.1567
  244MOL0     C32862  10.960   0.767   2.778  0.7414 -0.7753 -0.2972
  244MOL0     O32863  10.910   0.775   2.906 -0.4743  0.5031  0.6615
  244MOL0     C32864  10.812   0.869   2.945 -0.2326 -0.1676  0.5513
  244MOL0     C32865  10.679   0.820   2.897  0.5440 -0.0742  0.0707
  244MOL0     C32866  10.569   0.880   2.987 -0.4101  0.1593 -0.6148
  244MOL0     C32867  10.584   1.036   3.019 -1.4653 -0.6346  0.0271
  244MOL0     C32868  10.500   1.067   3.131  0.3646 -0.0009 -0.7725
  244MOL0     C32869  10.412   1.098   3.209 -0.1785 -0.3051 -0.6166
  244MOL0     C32870  10.915   0.843   2.666  0.7772 -0.8066 -0.0852
  244MOL0     C32871  10.969   0.819   2.538  0.1802 -0.1230  0.1564
  244MOL0     C32872  10.903   0.887   2.421 -0.8047  1.4956  0.0768
  244MOL0     H32873  11.366   0.789   2.278 -1.3590  0.0781  2.8759
  244MOL0     H32874  11.563   0.742   2.143 -2.8425  1.0497  0.6454
  244MOL0     H32875  11.589   0.362   1.971  1.0724 -0.3701  1.5139
  244MOL0     H32876  11.615   0.500   1.874  1.3737 -0.2163 -0.9952
  244MOL0     H32877  11.857   0.464   1.867 -1.3158  1.6487  0.4829
  244MOL0     H32878  11.774   0.309   1.834 -1.3354  0.9864 -1.8119
  244MOL0     H32879  11.817   0.241   2.063  1.2265 -0.1110 -0.2148
  244MOL0     H32880  11.889   0.405   2.110 -0.2095  0.4511 -0.8357
  244MOL0     H32881  12.013   0.196   1.919 -1.7462 -0.2998 -0.5278
  244MOL0     H32882  12.080   0.356   1.972  2.4439 -0.3216  2.1504
  244MOL0     H32883  12.051   0.244   2.220  0.3732 -0.2517 -1.0342
  244MOL0     H32884  12.050   0.102   2.125 -1.6335  0.2296 -0.9444
  244MOL0     H32885  12.282   0.179   2.030  5.0761  3.1299  1.2407
  244MOL0     H32886  12.259   0.336   2.098  1.1207 -0.7954 -2.6966
  244MOL0     H32887  12.254   0.083   2.266 -2.4119 -0.2901 -2.4118
  244MOL0     H32888  12.269   0.253   2.318  0.6812  0.7424 -0.8258
  244MOL0     H32889  12.469   0.100   2.124 -0.3032  1.3615 -1.3783
  244MOL0     H32890  12.498   0.262   2.182 -0.2679 -1.0067 -2.8889
  244MOL0     H32891  12.596  -0.075   2.242 -1.8222 -1.9559  2.3807
  244MOL0     H32892  12.747  -0.167   2.561  2.6183 -0.8597 -0.3171
  244MOL0     H32893  12.760  -0.201   2.387  0.6980 -0.2651  0.7586
  244MOL0     H32894  12.914   0.016   2.559 -1.0479 -1.3316  1.6259
  244MOL0     H32895  12.970  -0.137   2.493  0.4787 -0.0737 -0.2676
  244MOL0     H32896  12.884   0.102   2.311 -0.3049 -0.7237 -2.3943
  244MOL0     H32897  12.969  -0.046   2.273  2.9208  0.5192 -0.3700
  244MOL0     H32898  13.161   0.019   2.409 -1.1529 -1.8521 -1.1503
  244MOL0     H32899  13.075   0.156   2.473 -0.4602  2.4672 -2.5080
  244MOL0     H32900  13.300   0.214   2.489  0.1859  1.9053  1.2345
  244MOL0     H32901  13.521   0.320   2.468  0.7118  0.7824 -0.5148
  244MOL0     H32902  13.946   0.454   2.395 -4.4222  0.0903  1.0622
  244MOL0     H32903  14.131   0.604   2.350  1.6409  1.0799 -2.0624
  244MOL0     H32904  14.289   0.747   2.229 -0.1731  0.8012 -2.1381
  244MOL0     H32905  14.286   0.919   2.187  1.1515  0.0936 -0.0332
  244MOL0     H32906  14.199   0.822   2.460 -1.5233  0.4008 -0.2510
  244MOL0     H32907  14.366   0.866   2.414 -0.9011 -1.4873 -2.3583
  244MOL0     H32908  14.280   1.088   2.333  1.5751 -0.0210  0.8034
  244MOL0     H32909  14.126   1.049   2.417 -0.1803  1.3482  2.9986
  244MOL0     H32910  14.398   1.097   2.543 -0.0132  0.1074  1.4166
  244MOL0     H32911  14.253   1.027   2.625 -1.0649  0.1152 -1.1250
  244MOL0     H32912  14.128   1.243   2.561 -0.6342 -3.4255  1.8280
  244MOL0     H32913  14.279   1.294   2.476  0.9002  1.1718  1.4573
  244MOL0     H32914  14.263   1.215   2.764 -0.1314  0.6758  1.6237
  244MOL0     H32915  14.406   1.274   2.685 -0.5680 -2.4227  0.8208
  244MOL0     H32916  14.149   1.442   2.729 -0.0474  1.4505  2.9655
  244MOL0     H32917  14.276   1.490   2.625  1.1807  1.3694  1.3218
  244MOL0     H32918  14.433   1.492   2.815  0.3612  0.7429  1.1402
  244MOL0     H32919  14.284   1.586   2.850 -1.8969 -0.3380 -2.6457
  244MOL0     H32920  13.863   0.893   2.178 -0.1015  1.0536  1.3520
  244MOL0     H32921  13.676   0.726   2.207  1.7972  2.4308 -2.1424
  244MOL0     H32922  13.500   0.334   2.057 -1.3376 -0.0210 -0.6458
  244MOL0     H32923  13.261   0.271   2.052  1.5355  2.1217 -1.7035
  244MOL0     H32924  11.554   0.322   2.230  1.4055  0.2382  2.7060
  244MOL0     H32925  11.346   0.367   2.354 -0.7600  0.4570  0.7183
  244MOL0     H32926  11.170   0.546   2.641  1.4871 -0.1381  1.2994
  244MOL0     H32927  11.075   0.586   2.835  0.6544 -1.2116 -1.5327
  244MOL0     H32928  10.820   0.973   2.910 -0.2766 -0.0518  0.8814
  244MOL0     H32929  10.825   0.869   3.054  2.5681  3.8164  0.4548
  244MOL0     H32930  10.669   0.711   2.903  1.3492 -0.1073  1.2845
  244MOL0     H32931  10.645   0.856   2.800  0.4011  0.7389  0.4100
  244MOL0     H32932  10.565   0.827   3.083 -0.3947  1.2873  0.0247
  244MOL0     H32933  10.474   0.863   2.935  1.6157 -1.4011 -4.1111
  244MOL0     H32934  10.689   1.059   3.039 -0.9142 -1.1165 -2.0613
  244MOL0     H32935  10.573   1.103   2.933  0.8682 -1.8415 -1.3174
  244MOL0     H32936  10.338   1.144   3.272  0.7300  0.6495 -0.2334
  244MOL0     H32937  10.836   0.911   2.695  1.4123  0.4674 -1.2462
  244MOL0     H32938  10.963   0.896   2.330  1.7099  0.2742  1.4939
  244MOL0     H32939  10.824   0.822   2.383  0.5657 -1.1776  1.4816
  244MOL0     H32940  10.867   0.986   2.449 -2.4679  0.6769  1.0036
  245MOL0     O32941   0.038   8.372  11.035 -0.1989 -0.5504 -0.2186
  245MOL0     C32942   0.042   8.492  11.010 -0.1459  0.2360 -0.4415
  245MOL0     O32943   0.122   8.552  10.923  0.4328 -0.6349  0.1134
  245MOL0     C32944   0.160   8.490  10.808 -0.9301 -0.1302 -0.2426
  245MOL0     C32945   0.250   8.557  10.733 -0.2579 -1.3152  1.2374
  245MOL0     C32946   0.293   8.501  10.605  0.1602  0.3374  0.4070
  245MOL0     C32947   0.234   8.394  10.548  0.4822  0.1645 -0.1890
  245MOL0     O32948   0.270   8.340  10.433  0.2029  0.0185 -0.1876
  245MOL0     C32949   0.329   8.411  10.324 -1.0498 -0.7826  0.0116
  245MOL0     C32950   0.318   8.319  10.198 -0.4180 -0.0932  0.1817
  245MOL0     C32951   0.175   8.256  10.183  0.7369 -0.1390 -0.7577
  245MOL0     C32952   0.159   8.189  10.046 -0.6262 -0.1955  0.3214
  245MOL0     C32953   0.037   8.110  10.031  0.5828 -0.3903  0.7047
  245MOL0     C32954  -0.091   8.205  10.008  0.8825  0.2896  0.3796
  245MOL0     C32955  -0.240   8.154  10.030 -0.5233 -0.2703 -0.6061
  245MOL0     C32956  -0.344   8.266  10.030 -0.0513  0.2076  0.6102
  245MOL0     N32957  -0.389   8.320   9.895  1.1087  0.7677  0.1055
  245MOL0     C32958  -0.338   8.423   9.817 -0.8147 -0.8599 -0.9332
  245MOL0     C32959  -0.441   8.450   9.730  0.6024  0.3172  0.1856
  245MOL0     C32960  -0.475   8.576   9.660  0.7314  0.8287 -0.6090
  245MOL0     C32961  -0.410   8.600   9.529  0.3351  0.1761  0.9222
  245MOL0     C32962  -0.430   8.739   9.471 -0.0578  0.3785 -0.4270
  245MOL0     C32963  -0.363   8.760   9.331  0.7254 -0.6592  0.6352
  245MOL0     O32964  -0.222   8.757   9.342  0.3525 -0.1497 -0.3188
  245MOL0     C32965  -0.151   8.766   9.221 -0.4553 -0.3280 -0.4206
  245MOL0     C32966  -0.197   8.792   9.095  0.0420  0.3961  0.1829
  245MOL0     C32967  -0.113   8.796   8.985  0.1863 -0.6927 -0.4011
  245MOL0     C32968   0.020   8.764   9.001 -0.5803 -0.0321 -0.1872
  245MOL0     C32969   0.123   8.763   8.889 -0.1614  0.0103  0.6500
  245MOL0     O32970   0.255   8.735   8.917  0.7385 -0.3323  0.2081
  245MOL0     C32971   0.347   8.704   8.814  0.2012  0.3490  0.0027
  245MOL0     C32972   0.318   8.627   8.694 -0.4607  0.3887  0.2765
  245MOL0     C32973   0.408   8.622   8.590  0.1111 -0.2046  0.1718
  245MOL0     C32974   0.538   8.686   8.608  1.1344  1.1513 -0.1998
  245MOL0     O32975   0.625   8.649   8.508  1.0599  0.4491 -0.3401
  245MOL0     C32976   0.746   8.736   8.495  0.0542  0.8724 -0.2951
  245MOL0     C32977   0.716   8.879   8.459  0.3305  0.8310 -0.1837
  245MOL0     C32978   0.836   8.950   8.382  0.5543  0.5771  0.1865
  245MOL0     C32979   0.790   8.976   8.237  1.1550  0.2676 -0.2012
  245MOL0     C32980   0.887   9.072   8.171 -1.0537  0.3829 -0.6993
  245MOL0     C32981   1.020   9.001   8.118 -0.3351 -0.5190 -0.3809
  245MOL0     C32982   1.136   9.098   8.100  0.3410  0.4151  0.8338
  245MOL0     C32983   1.229   9.045   7.994  0.5076  0.7728 -0.0741
  245MOL0    Cl32984   1.149   9.056   7.836  0.2898 -0.0263  0.2313
  245MOL0     C32985   0.569   8.749   8.729  0.4961 -0.3509 -0.8455
  245MOL0     C32986   0.472   8.747   8.832 -0.5054  0.4534 -0.3958
  245MOL0     O32987   0.077   8.778   8.778  0.2830 -0.5762 -0.4452
  245MOL0     C32988   0.071   8.737   9.131 -0.8441  0.1505  0.9852
  245MOL0     C32989  -0.019   8.725   9.233  0.1539 -0.2040 -0.8358
  245MOL0     N32990  -0.527   8.344   9.737 -0.1313 -0.5803  0.4746
  245MOL0     N32991  -0.501   8.267   9.826 -0.4317  0.2038  0.3547
  245MOL0     C32992   0.130   8.334  10.622  0.4243  0.2598  0.4787
  245MOL0     C32993   0.091   8.378  10.754  0.4938 -1.2708  0.9014
  245MOL0     C32994  -0.045   8.591  11.086 -0.6112  0.2690  0.6015
  245MOL0     C32995  -0.045   8.732  11.051  0.2768 -0.4889  0.1865
  245MOL0     C32996  -0.131   8.826  11.103 -0.4311  0.4140 -0.1884
  245MOL0     C32997  -0.223   8.782  11.203 -0.3395  0.4556 -1.2327
  245MOL0     O32998  -0.311   8.859  11.274  0.0445  0.5812 -0.6368
  245MOL0     C32999  -0.329   8.986  11.229  0.3223  0.2032 -0.3040
  245MOL0     C33000  -0.415   9.054  11.328  0.3529  0.4480 -0.3563
  245MOL0     C33001  -0.406   9.203  11.317 -0.0975  0.2739  0.6444
  245MOL0     C33002  -0.523   9.258  11.391 -0.4567 -0.6721  0.1219
  245MOL0     C33003  -0.504   9.405  11.399 -0.0623 -0.6484 -0.3041
  245MOL0     C33004  -0.505   9.524  11.403  0.1250 -0.2506 -0.3038
  245MOL0     C33005  -0.207   8.656  11.250  0.4845 -0.0770 -0.7038
  245MOL0     C33006  -0.120   8.561  11.204  0.5346 -0.1419 -0.0882
  245MOL0     C33007  -0.126   8.429  11.277  0.3656 -0.0838 -0.1711
  245MOL0     H33008   0.291   8.650  10.769  0.3429 -1.4413  0.8964
  245MOL0     H33009   0.368   8.553  10.546  4.0995 -3.4868  1.4534
  245MOL0     H33010   0.275   8.505  10.312  0.2497  0.5210  3.0154
  245MOL0     H33011   0.433   8.442  10.345 -1.1592  2.1497 -2.9838
  245MOL0     H33012   0.388   8.236  10.208 -0.7723 -0.9347 -3.1519
  245MOL0     H33013   0.331   8.377  10.106 -1.0538 -0.4252 -0.1224
  245MOL0     H33014   0.109   8.340  10.208  0.2728 -1.1954  1.9749
  245MOL0     H33015   0.151   8.174  10.252 -0.5144  0.2325 -0.7262
  245MOL0     H33016   0.171   8.260   9.963  1.5873 -4.3452 -3.2890
  245MOL0     H33017   0.239   8.115  10.040 -0.3905 -0.2864  3.1665
  245MOL0     H33018   0.038   8.043   9.944 -0.1331  0.2357  0.2059
  245MOL0     H33019   0.015   8.053  10.121  0.7263 -0.3065  0.7936
  245MOL0     H33020  -0.075   8.278  10.087 -3.4966 -0.9262  2.7486
  245MOL0     H33021  -0.093   8.241   9.905  2.8072 -1.5205 -0.3570
  245MOL0     H33022  -0.236   8.104  10.126  1.6738  2.2120  0.7408
  245MOL0     H33023  -0.254   8.074   9.957  0.6820 -0.9756 -0.0814
  245MOL0     H33024  -0.437   8.223  10.070 -1.5440  0.6552 -2.0811
  245MOL0     H33025  -0.315   8.362  10.073 -1.5033  1.3023 -0.6947
  245MOL0     H33026  -0.245   8.478   9.835 -1.4778  0.1385 -0.4645
  245MOL0     H33027  -0.584   8.581   9.657  0.6341  2.5240  2.1718
  245MOL0     H33028  -0.440   8.659   9.723  0.5028  1.3044 -1.0999
  245MOL0     H33029  -0.302   8.590   9.538  0.6124  1.1375 -0.8626
  245MOL0     H33030  -0.444   8.523   9.459  1.6027  2.8282 -2.9314
  245MOL0     H33031  -0.394   8.807   9.549  5.1352 -3.9339  1.5380
  245MOL0     H33032  -0.538   8.748   9.457 -0.0908  1.7148  0.4855
  245MOL0     H33033  -0.387   8.859   9.292 -0.8595 -0.4950  1.9481
  245MOL0     H33034  -0.402   8.685   9.261 -2.0988 -0.8031  2.2100
  245MOL0     H33035  -0.297   8.831   9.077 -0.2429  0.3560  1.5813
  245MOL0     H33036  -0.155   8.829   8.890  1.2723 -2.4022 -1.5255
  245MOL0     H33037   0.213   8.600   8.692 -0.3066 -0.1966  0.0275
  245MOL0     H33038   0.387   8.577   8.493  2.5087 -0.4840 -0.2808
  245MOL0     H33039   0.801   8.734   8.590 -1.8118  0.3262  0.8238
  245MOL0     H33040   0.810   8.676   8.429  4.1631 -1.3147  4.9235
  245MOL0     H33041   0.623   8.877   8.402 -0.4982 -0.3149  1.1255
  245MOL0     H33042   0.708   8.941   8.549  2.3185  2.0165 -0.7587
  245MOL0     H33043   0.846   9.051   8.422  2.5276  0.6260 -0.2894
  245MOL0     H33044   0.932   8.898   8.391  0.3783  0.1126 -0.5330
  245MOL0     H33045   0.688   9.013   8.242  0.5479 -1.3567 -0.0148
  245MOL0     H33046   0.785   8.889   8.170 -4.3809 -0.4848  0.6965
  245MOL0     H33047   0.910   9.149   8.246 -0.0344 -1.6096  1.1887
  245MOL0     H33048   0.830   9.120   8.091  1.3016  2.2668 -1.3670
  245MOL0     H33049   1.058   8.933   8.195 -1.3901 -0.4274  0.2459
  245MOL0     H33050   0.992   8.941   8.031 -0.1373 -1.0403 -0.0952
  245MOL0     H33051   1.199   9.120   8.186  1.1785 -0.7322  0.5408
  245MOL0     H33052   1.089   9.185   8.052 -1.4287 -1.8803 -1.9440
  245MOL0     H33053   1.322   9.101   8.005  1.9456 -1.4251 -0.3793
  245MOL0     H33054   1.260   8.941   8.006  2.5086  0.9801 -2.5464
  245MOL0     H33055   0.665   8.798   8.746 -1.3548  3.2754  0.0984
  245MOL0     H33056   0.477   8.797   8.929 -2.9553 -1.1904  0.6645
  245MOL0     H33057   0.180   8.734   9.132 -0.6872  2.0881 -1.2513
  245MOL0     H33058   0.014   8.693   9.331 -3.0483 -4.1075 -0.7875
  245MOL0     H33059   0.087   8.240  10.589  1.5615  0.1342 -0.7399
  245MOL0     H33060   0.006   8.329  10.801 -0.7970 -0.2212 -0.2578
  245MOL0     H33061   0.023   8.767  10.974  0.2835  1.3277  0.9677
  245MOL0     H33062  -0.127   8.922  11.053 -0.5485 -0.3013 -1.6293
  245MOL0     H33063  -0.379   8.992  11.132 -1.2892  1.6135  0.5465
  245MOL0     H33064  -0.235   9.041  11.226  1.5558 -1.7824  0.3757
  245MOL0     H33065  -0.387   9.023  11.429  0.2503 -1.3540 -0.8561
  245MOL0     H33066  -0.521   9.030  11.323 -0.5613  2.7877  3.3575
  245MOL0     H33067  -0.419   9.248  11.218 -0.7507  0.1419  0.6654
  245MOL0     H33068  -0.312   9.225  11.368 -1.7976  0.0121  4.2026
  245MOL0     H33069  -0.622   9.233  11.353 -1.3691  1.1267  1.1977
  245MOL0     H33070  -0.520   9.210  11.489  1.6797  2.7813  1.9504
  245MOL0     H33071  -0.532   9.627  11.412  2.6441  0.4288 -0.0461
  245MOL0     H33072  -0.254   8.624  11.342  1.6260 -1.9179 -0.7277
  245MOL0     H33073  -0.026   8.419  11.321  1.2673  2.0708 -1.5466
  245MOL0     H33074  -0.196   8.434  11.360  0.3873  1.7825 -0.2319
  245MOL0     H33075  -0.136   8.343  11.210  2.3335 -1.7428  1.5373
  246MOL0     O33076   7.135   5.046  10.639  0.1843  0.3002 -0.0224
  246MOL0     C33077   7.217   5.137  10.614 -0.1864  1.8505 -0.6305
  246MOL0     O33078   7.322   5.119  10.528 -0.3335 -0.1764 -0.4857
  246MOL0     C33079   7.348   5.016  10.444  0.5059  0.7760  0.2051
  246MOL0     C33080   7.483   4.993  10.401  0.4282 -0.2694  0.9996
  246MOL0     C33081   7.510   4.885  10.316 -0.3838  0.4979  0.6681
  246MOL0     C33082   7.408   4.795  10.269 -0.2316 -0.3330 -0.1704
  246MOL0     O33083   7.445   4.688  10.189 -0.6780  0.6695 -0.4451
  246MOL0     C33084   7.348   4.606  10.119 -0.1384  0.7407 -0.0687
  246MOL0     C33085   7.422   4.504  10.024 -1.1900  0.4251  1.0358
  246MOL0     C33086   7.448   4.369  10.078 -0.6233 -0.0794  0.3186
  246MOL0     C33087   7.529   4.272   9.984  0.5756 -0.2602  0.0752
  246MOL0     C33088   7.501   4.124   9.997  0.5330  0.1940 -0.4887
  246MOL0     C33089   7.569   4.073  10.124  0.6822 -0.4045  0.7198
  246MOL0     C33090   7.550   3.920  10.147  0.7700  0.3882  0.7146
  246MOL0     C33091   7.409   3.889  10.185  0.7332 -0.4290 -0.0299
  246MOL0     N33092   7.377   3.956  10.314  0.0546  1.0454 -0.1587
  246MOL0     C33093   7.291   4.063  10.329 -0.2878  0.7997 -0.0974
  246MOL0     C33094   7.287   4.089  10.462 -0.2318  0.3540  0.6148
  246MOL0     C33095   7.238   4.213  10.533  0.1947 -0.0099 -0.5079
  246MOL0     C33096   7.086   4.216  10.541  0.8447  0.4407  0.3219
  246MOL0     C33097   7.048   4.324  10.648  0.0314  0.3584  0.4839
  246MOL0     C33098   6.899   4.339  10.664 -0.4780 -0.4704  0.1016
  246MOL0     O33099   6.838   4.380  10.537  0.3099  0.0895  0.0601
  246MOL0     C33100   6.831   4.512  10.503 -0.4789 -0.5746  0.1332
  246MOL0     C33101   6.907   4.610  10.572  0.5110 -0.2696  0.1354
  246MOL0     C33102   6.875   4.745  10.550  0.8164 -0.2911  0.5266
  246MOL0     C33103   6.783   4.786  10.450 -0.3778  0.2797  0.0423
  246MOL0     C33104   6.761   4.927  10.423  0.7880  0.5263 -0.3023
  246MOL0     O33105   6.805   5.016  10.513  0.1351 -0.9191  0.1171
  246MOL0     C33106   6.770   5.150  10.504 -0.2787 -0.1020 -0.7077
  246MOL0     C33107   6.876   5.240  10.514 -0.2348  1.0162 -0.0716
  246MOL0     C33108   6.851   5.375  10.505  0.2106  0.0282 -0.2472
  246MOL0     C33109   6.719   5.426  10.503 -0.7693  0.1795  0.1643
  246MOL0     O33110   6.720   5.559  10.519 -0.4269 -0.1728 -0.5571
  246MOL0     C33111   6.601   5.626  10.559 -0.7914 -0.1341 -0.6958
  246MOL0     C33112   6.511   5.654  10.437 -0.4137 -0.7426  0.0908
  246MOL0     C33113   6.366   5.710  10.459 -0.4528  0.3980  0.1895
  246MOL0     C33114   6.365   5.849  10.531 -0.3215 -0.1656  0.3972
  246MOL0     C33115   6.221   5.901  10.553  0.8215  0.1906  0.1259
  246MOL0     C33116   6.158   5.952  10.427 -0.1687  0.4774  0.5458
  246MOL0     C33117   6.058   6.061  10.467 -0.2406 -0.5782  0.9950
  246MOL0     C33118   5.927   6.024  10.536  0.0806  0.2702  0.5068
  246MOL0    Cl33119   5.818   6.163  10.548 -0.1129 -0.2194  0.2114
  246MOL0     C33120   6.611   5.337  10.501  0.1261 -0.0769  0.7290
  246MOL0     C33121   6.637   5.197  10.493  0.1815  0.5788 -0.5404
  246MOL0     O33122   6.689   4.945  10.325 -0.3976  0.7074  0.0750
  246MOL0     C33123   6.731   4.675  10.370 -0.3090  0.4506  0.2683
  246MOL0     C33124   6.743   4.540  10.399 -0.7493 -0.2127 -0.4791
  246MOL0     N33125   7.372   3.999  10.525 -0.5595  0.6216  0.0849
  246MOL0     N33126   7.417   3.912  10.438 -0.1014 -0.0917  0.2914
  246MOL0     C33127   7.272   4.815  10.312 -0.0330 -0.3799 -0.2708
  246MOL0     C33128   7.247   4.929  10.396 -0.4777 -0.4191 -0.1908
  246MOL0     C33129   7.202   5.266  10.687 -0.1610  0.4341  0.3110
  246MOL0     C33130   7.252   5.385  10.619 -0.4097  0.1019  0.1989
  246MOL0     C33131   7.258   5.507  10.686  0.1413  1.1137 -0.7056
  246MOL0     C33132   7.192   5.515  10.815 -0.4036  0.1765  0.5828
  246MOL0     O33133   7.184   5.639  10.877  0.1441  0.6059  0.3083
  246MOL0     C33134   7.246   5.658  11.002 -0.0079  0.3144 -0.1292
  246MOL0     C33135   7.374   5.743  10.991  0.4279 -0.3751 -0.1584
  246MOL0     C33136   7.364   5.885  10.925 -0.4688 -0.3045 -1.0251
  246MOL0     C33137   7.352   5.878  10.781  0.0702  0.0600 -0.1540
  246MOL0     C33138   7.481   5.844  10.720 -0.7951  0.3491  0.6061
  246MOL0     C33139   7.575   5.800  10.663  0.9267  0.3270  0.6263
  246MOL0     C33140   7.122   5.410  10.875  0.6610  0.4407 -0.2313
  246MOL0     C33141   7.129   5.287  10.812  0.4598 -0.6392 -1.0998
  246MOL0     C33142   7.058   5.172  10.879 -0.6286  0.1244 -0.4962
  246MOL0     H33143   7.555   5.069  10.433  0.1695 -0.9171  3.2657
  246MOL0     H33144   7.616   4.869  10.295 -0.3407 -2.3634  2.5684
  246MOL0     H33145   7.280   4.547  10.181  0.5191  0.1726  0.1284
  246MOL0     H33146   7.291   4.667  10.049 -1.1911  1.5078  1.3967
  246MOL0     H33147   7.515   4.543   9.982 -1.5447 -0.7360 -0.9668
  246MOL0     H33148   7.358   4.505   9.935 -0.5261  0.5408  0.5541
  246MOL0     H33149   7.346   4.331  10.091 -1.6600  1.7779 -1.8555
  246MOL0     H33150   7.497   4.379  10.175  0.5052  2.1148 -0.4128
  246MOL0     H33151   7.489   4.293   9.885 -4.0017 -1.1696  1.4834
  246MOL0     H33152   7.635   4.299   9.990  0.3015  0.5695  2.3786
  246MOL0     H33153   7.392   4.113   9.997  0.5436  0.0354 -1.0653
  246MOL0     H33154   7.545   4.060   9.920 -2.4085 -5.2923  1.8051
  246MOL0     H33155   7.675   4.100  10.113  1.2074 -1.7558  2.1579
  246MOL0     H33156   7.537   4.132  10.210  0.1184  0.1001  0.1731
  246MOL0     H33157   7.614   3.876  10.225  3.5088 -0.3218 -1.7787
  246MOL0     H33158   7.589   3.871  10.057  0.0602 -1.6331  1.4351
  246MOL0     H33159   7.343   3.930  10.107 -3.5852 -2.2022  2.3575
  246MOL0     H33160   7.397   3.781  10.194  0.1234 -0.2335  1.7452
  246MOL0     H33161   7.250   4.131  10.256  1.4731  0.6138 -1.3210
  246MOL0     H33162   7.275   4.211  10.636  0.9416  1.0869 -0.7332
  246MOL0     H33163   7.274   4.296  10.470 -1.6865  0.4780 -0.9988
  246MOL0     H33164   7.044   4.236  10.441  0.0247 -3.8733 -0.3718
  246MOL0     H33165   7.057   4.114  10.566 -2.0269 -0.2806 -4.5404
  246MOL0     H33166   7.095   4.422  10.636 -0.0443  0.4218  0.7003
  246MOL0     H33167   7.100   4.286  10.737  1.5991  1.7025  0.1845
  246MOL0     H33168   6.870   4.414  10.738 -1.1001 -1.8553  1.3020
  246MOL0     H33169   6.852   4.250  10.706 -0.7081  0.1965  1.3125
  246MOL0     H33170   6.976   4.598  10.655  0.5626  4.3882  1.0390
  246MOL0     H33171   6.921   4.819  10.615 -0.4101  2.6258 -1.7218
  246MOL0     H33172   6.975   5.195  10.515 -0.2446  1.0021  0.5158
  246MOL0     H33173   6.938   5.440  10.506  0.6299 -0.5079 -1.0852
  246MOL0     H33174   6.558   5.567  10.640  1.0798  0.3031  0.6812
  246MOL0     H33175   6.620   5.722  10.608 -0.9749 -0.8795  0.8842
  246MOL0     H33176   6.568   5.728  10.380 -0.9288 -1.8352 -1.9459
  246MOL0     H33177   6.505   5.567  10.371  0.4841 -0.6428 -0.1327
  246MOL0     H33178   6.316   5.723  10.362  1.4824 -2.8567 -1.4124
  246MOL0     H33179   6.308   5.633  10.510 -4.2862  2.8211 -0.1598
  246MOL0     H33180   6.438   5.919  10.488 -0.5016 -0.8016 -1.0097
  246MOL0     H33181   6.394   5.836  10.636 -3.0328 -0.1779  1.2137
  246MOL0     H33182   6.215   5.977  10.632  4.0938  1.2732 -0.5125
  246MOL0     H33183   6.168   5.810  10.583  2.8671 -1.0291  0.2849
  246MOL0     H33184   6.227   6.005  10.362 -0.9245 -0.9110 -1.4889
  246MOL0     H33185   6.117   5.862  10.380  1.0729  1.4096 -2.5540
  246MOL0     H33186   6.026   6.129  10.387  3.0803  2.1105  1.7029
  246MOL0     H33187   6.113   6.137  10.523 -1.3419  2.1028 -1.3465
  246MOL0     H33188   5.870   5.949  10.481 -0.4280 -0.1980  1.6506
  246MOL0     H33189   5.940   5.988  10.638  0.2828  1.4208  0.9066
  246MOL0     H33190   6.512   5.381  10.506  0.6255  0.9884  1.9773
  246MOL0     H33191   6.557   5.124  10.489  0.6520 -0.1300  1.7358
  246MOL0     H33192   6.670   4.696  10.282 -1.5647 -2.6771  0.2327
  246MOL0     H33193   6.724   4.451  10.340  1.1891 -1.9605  1.3710
  246MOL0     H33194   7.186   4.755  10.282 -0.3625  0.7574 -1.6916
  246MOL0     H33195   7.146   4.950  10.429  0.5682  2.3169  1.6227
  246MOL0     H33196   7.304   5.370  10.525  0.2017  1.3723  0.3296
  246MOL0     H33197   7.295   5.600  10.644 -0.4572  1.5945 -0.1998
  246MOL0     H33198   7.267   5.566  11.057  1.2549  0.3670 -0.4870
  246MOL0     H33199   7.177   5.723  11.057 -0.6239 -0.1461 -0.3419
  246MOL0     H33200   7.440   5.678  10.933  1.6969 -0.7845  1.6758
  246MOL0     H33201   7.427   5.746  11.087 -1.6778  0.0375  1.0497
  246MOL0     H33202   7.453   5.945  10.948  0.4699 -1.8893 -0.4162
  246MOL0     H33203   7.275   5.936  10.963  0.6483  1.4295 -0.5793
  246MOL0     H33204   7.282   5.801  10.749  1.5632 -1.3411 -0.1602
  246MOL0     H33205   7.303   5.974  10.758 -2.7970 -1.2886 -0.1221
  246MOL0     H33206   7.664   5.771  10.612  0.2231  4.4866 -3.6728
  246MOL0     H33207   7.076   5.428  10.972  1.2085 -2.3083  0.6174
  246MOL0     H33208   7.033   5.196  10.983  2.1747  2.0237 -0.1525
  246MOL0     H33209   6.978   5.136  10.815 -1.4246  1.0668 -0.0602
  246MOL0     H33210   7.125   5.086  10.893 -1.3588 -0.4351 -0.3737
  247MOL0     O33211   8.973   3.122   1.408 -0.1748 -0.4251  0.7415
  247MOL0     C33212   8.961   3.167   1.522  0.7329 -0.9652 -0.2699
  247MOL0     O33213   8.841   3.194   1.597  0.8624  1.2917 -0.2213
  247MOL0     C33214   8.734   3.132   1.535  0.2628  0.7520  0.2446
  247MOL0     C33215   8.656   3.209   1.446 -0.3642 -0.5577 -0.1066
  247MOL0     C33216   8.552   3.148   1.366 -0.3963 -0.0856 -0.2146
  247MOL0     C33217   8.527   3.013   1.374  0.9380 -0.4345 -0.2059
  247MOL0     O33218   8.435   2.959   1.289 -0.3774  0.5371 -0.0660
  247MOL0     C33219   8.416   2.815   1.281 -0.1216  0.2040 -0.2790
  247MOL0     C33220   8.314   2.779   1.181  1.0604  0.0511 -0.5937
  247MOL0     C33221   8.254   2.641   1.222  0.4792  0.5046  0.7288
  247MOL0     C33222   8.096   2.632   1.200 -0.4133  0.2247  0.6146
  247MOL0     C33223   8.049   2.493   1.222 -0.2789 -0.5341 -0.1634
  247MOL0     C33224   7.913   2.476   1.142 -0.0251  0.9578 -0.2027
  247MOL0     C33225   7.858   2.327   1.127  0.7271 -0.9846 -0.3506
  247MOL0     C33226   7.792   2.289   1.260 -0.0972  0.4507 -0.5523
  247MOL0     N33227   7.780   2.139   1.247 -0.0469 -0.9055 -1.1805
  247MOL0     C33228   7.859   2.039   1.287 -0.5083  0.0785 -1.3221
  247MOL0     C33229   7.784   1.927   1.271  0.5673 -0.2593  0.0425
  247MOL0     C33230   7.825   1.783   1.307  0.4913 -0.2051  0.9020
  247MOL0     C33231   7.942   1.736   1.224  0.3667  0.4223 -0.2075
  247MOL0     C33232   7.916   1.576   1.209  0.1951 -1.3095 -0.2217
  247MOL0     C33233   8.026   1.506   1.129 -1.1330  0.8955 -0.7127
  247MOL0     O33234   8.143   1.503   1.223  0.7333 -0.1716  0.0536
  247MOL0     C33235   8.256   1.436   1.189 -1.0025 -0.2413  0.4115
  247MOL0     C33236   8.368   1.439   1.278  0.4227 -0.0323  0.5154
  247MOL0     C33237   8.473   1.353   1.253 -0.7512 -1.0219 -0.0813
  247MOL0     C33238   8.482   1.272   1.141 -0.8429 -0.3724 -0.3798
  247MOL0     C33239   8.601   1.181   1.114  0.1415  0.6271  0.2438
  247MOL0     O33240   8.696   1.174   1.204  0.1443  0.6044 -0.1490
  247MOL0     C33241   8.813   1.112   1.164  0.3477  0.1677 -0.2366
  247MOL0     C33242   8.940   1.176   1.173 -0.1296  0.1031  0.5327
  247MOL0     C33243   9.056   1.108   1.133 -0.0819  0.5083  0.2346
  247MOL0     C33244   9.046   0.979   1.071  0.1830 -0.6547 -0.2048
  247MOL0     O33245   9.152   0.907   1.025 -1.1826 -0.0134  0.9763
  247MOL0     C33246   9.275   0.922   1.099  0.3082  0.2264 -0.3397
  247MOL0     C33247   9.360   0.788   1.085 -0.2165  0.0726 -0.1782
  247MOL0     C33248   9.468   0.816   0.973  0.0071 -0.1569 -0.6713
  247MOL0     C33249   9.590   0.726   0.977 -0.6045  0.0256  1.4169
  247MOL0     C33250   9.708   0.757   0.873  1.8016  0.4419  0.2585
  247MOL0     C33251   9.772   0.891   0.905  0.2328 -0.2119 -0.2506
  247MOL0     C33252   9.897   0.923   0.814 -0.7005  0.9135 -0.0509
  247MOL0     C33253   9.985   1.033   0.873  0.5752  0.9643 -0.1675
  247MOL0    Cl33254  10.122   1.063   0.761 -0.0968 -0.0332 -0.2853
  247MOL0     C33255   8.919   0.920   1.066  0.3858  0.4010  0.2966
  247MOL0     C33256   8.808   0.987   1.106  0.2255 -0.5933 -0.1962
  247MOL0     O33257   8.606   1.128   0.998 -0.0156  0.2819  0.6523
  247MOL0     C33258   8.373   1.264   1.058 -0.0824 -0.6037  0.3382
  247MOL0     C33259   8.259   1.352   1.074 -1.4433  0.0152  0.7365
  247MOL0     N33260   7.665   1.959   1.206  0.2251  0.1699  0.3640
  247MOL0     N33261   7.662   2.087   1.201 -0.0834 -0.1182 -0.1036
  247MOL0     C33262   8.598   2.942   1.471  0.4544 -0.3254  0.1383
  247MOL0     C33263   8.712   2.994   1.540  0.0289 -0.1644 -0.7248
  247MOL0     C33264   9.086   3.219   1.589  0.6776  0.2970  0.6203
  247MOL0     C33265   9.183   3.265   1.491 -1.1792  0.8101  0.2187
  247MOL0     C33266   9.310   3.311   1.534 -0.1795 -0.4842 -0.9693
  247MOL0     C33267   9.339   3.327   1.676 -0.9592  0.6020 -0.2306
  247MOL0     O33268   9.453   3.377   1.741 -0.8331 -0.3654  0.2703
  247MOL0     C33269   9.558   3.443   1.653 -0.0800  0.4907 -0.3350
  247MOL0     C33270   9.677   3.344   1.626 -0.6145  0.1464 -0.0186
  247MOL0     C33271   9.791   3.418   1.554 -0.2341 -0.0272 -0.5422
  247MOL0     C33272   9.736   3.485   1.426  0.1220 -0.4629 -1.5541
  247MOL0     C33273   9.836   3.524   1.331 -0.3202  0.0989 -0.4206
  247MOL0     C33274   9.910   3.554   1.235  0.7998  0.9343 -0.6284
  247MOL0     C33275   9.239   3.279   1.766 -0.1883  0.4967  0.0076
  247MOL0     C33276   9.108   3.238   1.728 -0.2593  0.6707 -0.0121
  247MOL0     C33277   9.011   3.201   1.831 -1.6103 -0.6387  0.5635
  247MOL0     H33278   8.667   3.316   1.440 -0.1414 -0.6588 -1.7988
  247MOL0     H33279   8.494   3.213   1.302  0.2191  1.5317  0.7966
  247MOL0     H33280   8.510   2.768   1.250 -0.5667 -0.1742 -1.0727
  247MOL0     H33281   8.395   2.779   1.382 -3.3413 -0.7598 -1.2056
  247MOL0     H33282   8.349   2.787   1.078 -3.0627 -0.3613 -2.2268
  247MOL0     H33283   8.233   2.852   1.191  0.0644 -1.2705  2.0776
  247MOL0     H33284   8.276   2.620   1.327 -1.1791  0.3961  1.0789
  247MOL0     H33285   8.311   2.570   1.162 -1.3181  1.4325 -2.2901
  247MOL0     H33286   8.039   2.705   1.257 -1.3621 -0.7879  1.0147
  247MOL0     H33287   8.081   2.650   1.093  0.6755 -1.1068  0.2030
  247MOL0     H33288   8.120   2.423   1.177 -1.2163 -0.0622 -2.5327
  247MOL0     H33289   8.040   2.479   1.330  0.1862  0.0465 -0.0440
  247MOL0     H33290   7.826   2.532   1.178  0.4400  1.9156 -0.5294
  247MOL0     H33291   7.922   2.524   1.044 -3.0325 -0.0751 -1.0943
  247MOL0     H33292   7.934   2.250   1.106  2.6849  0.3885  1.3309
  247MOL0     H33293   7.781   2.317   1.050 -1.2873  1.6176  1.1666
  247MOL0     H33294   7.858   2.309   1.345  0.7806 -2.1262 -0.5278
  247MOL0     H33295   7.696   2.342   1.267  0.6716  2.1452 -2.1431
  247MOL0     H33296   7.952   2.041   1.343 -0.5270 -4.2956 -0.7956
  247MOL0     H33297   7.846   1.783   1.414  0.9873  0.7307  0.8202
  247MOL0     H33298   7.742   1.715   1.289  1.1999 -0.6596 -0.9934
  247MOL0     H33299   7.938   1.788   1.128  1.4133  1.1868  0.1471
  247MOL0     H33300   8.033   1.765   1.276 -0.1366 -1.2754  1.7703
  247MOL0     H33301   7.826   1.579   1.147 -0.1462  0.3233  0.3040
  247MOL0     H33302   7.898   1.533   1.308 -3.7101  0.8894  0.2226
  247MOL0     H33303   8.055   1.560   1.038  2.3882  0.1408 -0.1917
  247MOL0     H33304   8.000   1.402   1.107  1.2564 -0.7689  3.1681
  247MOL0     H33305   8.354   1.514   1.356 -0.1160 -2.0598  2.4793
  247MOL0     H33306   8.548   1.345   1.331  0.9003  1.0753 -1.3467
  247MOL0     H33307   8.944   1.279   1.206 -1.8842  0.6000 -0.6608
  247MOL0     H33308   9.153   1.155   1.140  0.5427 -0.5890 -0.6920
  247MOL0     H33309   9.333   1.005   1.057 -0.4111  0.5749 -0.6470
  247MOL0     H33310   9.263   0.945   1.205  1.3672  3.7023 -0.8394
  247MOL0     H33311   9.401   0.767   1.184 -0.2432  2.0813  0.2962
  247MOL0     H33312   9.301   0.697   1.069  0.4881 -0.3336 -0.5446
  247MOL0     H33313   9.422   0.813   0.873  0.7663 -0.9667 -1.0106
  247MOL0     H33314   9.512   0.914   0.990 -1.5552  0.3592  0.6354
  247MOL0     H33315   9.557   0.624   0.955 -0.1590  0.4615 -1.7168
  247MOL0     H33316   9.632   0.727   1.079 -0.3451 -2.7516  1.4068
  247MOL0     H33317   9.670   0.764   0.771  2.8938  2.4192 -0.0622
  247MOL0     H33318   9.785   0.679   0.879  0.5310 -0.7786  1.7991
  247MOL0     H33319   9.695   0.969   0.898  0.2597  0.0079  1.5733
  247MOL0     H33320   9.807   0.911   1.006  2.1202  1.2608 -1.1344
  247MOL0     H33321   9.861   0.969   0.722 -4.3239 -0.5737  0.4446
  247MOL0     H33322   9.956   0.834   0.789 -0.5775  1.6142 -2.4689
  247MOL0     H33323   9.922   1.122   0.886 -3.0717 -1.0306 -2.5440
  247MOL0     H33324  10.030   1.006   0.969 -1.4524  0.1774  0.6186
  247MOL0     H33325   8.921   0.819   1.027  2.2558  0.3162  0.5235
  247MOL0     H33326   8.713   0.934   1.097 -0.4181  0.4587  0.2205
  247MOL0     H33327   8.383   1.190   0.980 -2.6223 -1.0122  0.3228
  247MOL0     H33328   8.179   1.338   1.003 -0.0220 -4.3398 -0.3460
  247MOL0     H33329   8.582   2.835   1.479  0.9629 -0.4727 -0.6418
  247MOL0     H33330   8.777   2.936   1.604 -0.1988  0.3823  0.0068
  247MOL0     H33331   9.171   3.251   1.384  1.2874 -0.3486  0.0289
  247MOL0     H33332   9.374   3.349   1.455  1.2563  0.9105  0.7613
  247MOL0     H33333   9.595   3.522   1.719 -0.4840  0.5930 -0.2297
  247MOL0     H33334   9.511   3.489   1.566 -2.7496  4.4705  2.7985
  247MOL0     H33335   9.638   3.264   1.564  0.0794 -1.2252  1.2472
  247MOL0     H33336   9.718   3.310   1.722  2.5749  1.0300 -0.9520
  247MOL0     H33337   9.862   3.338   1.531  1.4318  1.1342  0.3807
  247MOL0     H33338   9.840   3.486   1.624  2.4202 -1.1131 -1.1925
  247MOL0     H33339   9.666   3.425   1.367 -0.5376 -0.2711 -0.9783
  247MOL0     H33340   9.689   3.578   1.460  1.5280 -1.4520  4.0936
  247MOL0     H33341   9.976   3.578   1.154 -1.2391  0.9953 -2.3688
  247MOL0     H33342   9.275   3.279   1.868 -0.4682 -1.8365  0.1706
  247MOL0     H33343   8.922   3.262   1.814 -0.6010  0.5479 -0.7845
  247MOL0     H33344   8.994   3.093   1.820 -0.4094 -0.6969 -1.1957
  247MOL0     H33345   9.063   3.219   1.925  0.2758  0.3755 -0.6123
  248MOL0     O33346  10.122   8.009   8.923  0.6954  0.4080  0.3193
  248MOL0     C33347  10.035   8.016   9.018 -0.2430  0.6385 -0.2335
  248MOL0     O33348  10.063   8.023   9.153  0.0893  0.2287  0.8273
  248MOL0     C33349  10.191   8.078   9.173 -0.2391  0.2491  0.3679
  248MOL0     C33350  10.308   8.004   9.186 -0.8972 -0.1347  1.1901
  248MOL0     C33351  10.433   8.074   9.197 -0.8005  0.1935 -0.6827
  248MOL0     C33352  10.434   8.207   9.207 -0.0784 -0.6898 -0.0237
  248MOL0     O33353  10.568   8.263   9.219  0.2731 -0.2948  1.1720
  248MOL0     C33354  10.584   8.405   9.201 -0.0244  0.5270  0.1493
  248MOL0     C33355  10.728   8.442   9.201  0.0989  0.3039  0.7469
  248MOL0     C33356  10.815   8.355   9.120  1.1000 -0.0379 -0.2487
  248MOL0     C33357  10.955   8.419   9.100  1.0341  1.2584 -0.4077
  248MOL0     C33358  11.046   8.349   8.999  0.1225  2.1098 -0.9370
  248MOL0     C33359  11.187   8.414   9.032  0.9446 -0.0290  0.1014
  248MOL0     C33360  11.264   8.380   8.911  0.4989  0.6857 -0.1330
  248MOL0     C33361  11.417   8.425   8.930  0.0874 -0.2410  0.7940
  248MOL0     N33362  11.509   8.374   9.039  0.4476  0.3039  0.2742
  248MOL0     C33363  11.549   8.244   9.062  0.6920  0.4268  0.5400
  248MOL0     C33364  11.659   8.258   9.136 -0.2951  0.3207 -0.2155
  248MOL0     C33365  11.744   8.143   9.178  0.8298 -0.8001 -0.7040
  248MOL0     C33366  11.863   8.196   9.262  0.5949  0.1923 -0.6730
  248MOL0     C33367  11.966   8.268   9.173  0.7538 -0.7444 -0.5561
  248MOL0     C33368  12.104   8.263   9.250  0.4119 -1.0290 -0.5027
  248MOL0     O33369  12.203   8.367   9.213 -1.0559  0.0572 -0.0415
  248MOL0     C33370  12.334   8.353   9.252 -0.1454 -0.2842 -0.7292
  248MOL0     C33371  12.382   8.247   9.338 -0.3174 -0.1373 -0.6882
  248MOL0     C33372  12.521   8.230   9.358 -0.1195  0.2758 -0.4307
  248MOL0     C33373  12.614   8.323   9.312 -0.0714 -0.3053 -1.0862
  248MOL0     C33374  12.757   8.304   9.335  0.4566 -0.0326  0.6005
  248MOL0     O33375  12.800   8.177   9.354 -0.5246  1.4787  0.1627
  248MOL0     C33376  12.925   8.141   9.406 -0.5934 -0.2080 -0.3167
  248MOL0     C33377  12.932   8.024   9.484  0.3121 -0.3596 -0.1651
  248MOL0     C33378  13.049   7.989   9.547  0.1646  0.5882 -0.7360
  248MOL0     C33379  13.173   8.055   9.521 -0.1919 -0.7102 -0.4886
  248MOL0     O33380  13.292   8.023   9.585 -0.0790  0.6144 -0.0481
  248MOL0     C33381  13.361   7.920   9.516  0.5317  0.9325  0.1968
  248MOL0     C33382  13.495   7.888   9.581 -0.1528  0.0527 -0.3499
  248MOL0     C33383  13.590   8.008   9.616  0.1575 -0.5622 -0.5363
  248MOL0     C33384  13.642   8.087   9.498  0.0242  0.5978  0.0196
  248MOL0     C33385  13.695   8.228   9.543  0.1207 -0.4781  0.3992
  248MOL0     C33386  13.584   8.329   9.525  1.5148 -0.0958 -1.5086
  248MOL0     C33387  13.506   8.347   9.658 -0.7120  0.0648 -0.3838
  248MOL0     C33388  13.410   8.460   9.677 -0.2102  0.6076 -0.1566
  248MOL0    Cl33389  13.288   8.479   9.551 -0.4730 -0.2442  0.0133
  248MOL0     C33390  13.166   8.167   9.438 -0.4073 -0.3702  0.3572
  248MOL0     C33391  13.040   8.212   9.388 -0.1715  0.2478  0.1993
  248MOL0     O33392  12.825   8.404   9.347  0.9597  0.0748 -0.0257
  248MOL0     C33393  12.573   8.434   9.236  0.1665  0.2503  0.5603
  248MOL0     C33394  12.433   8.446   9.210 -0.5181 -0.0908  0.8008
  248MOL0     N33395  11.677   8.389   9.165 -0.4144  0.1568  0.0295
  248MOL0     N33396  11.594   8.453   9.104  0.5945 -0.0761  0.2460
  248MOL0     C33397  10.313   8.279   9.208  1.3874  0.4748 -0.1684
  248MOL0     C33398  10.193   8.218   9.180  0.6896 -0.5161  0.4039
  248MOL0     C33399   9.899   8.008   8.991  0.0892  0.5086  0.0881
  248MOL0     C33400   9.813   7.955   9.101  0.5889  0.5278  0.1022
  248MOL0     C33401   9.673   7.946   9.082 -0.1257 -0.3350  0.8021
  248MOL0     C33402   9.621   7.990   8.965 -0.3098 -0.1139  0.0101
  248MOL0     O33403   9.490   8.010   8.956 -0.1300  0.9642  0.2947
  248MOL0     C33404   9.432   7.944   8.843 -0.5441  0.3514 -0.8305
  248MOL0     C33405   9.383   8.043   8.730  0.5972 -0.4461 -0.6089
  248MOL0     C33406   9.286   8.153   8.774 -0.9605 -0.1440 -0.1369
  248MOL0     C33407   9.147   8.112   8.797 -0.4137  0.4382  0.0652
  248MOL0     C33408   9.095   8.029   8.690  0.0998  0.0239 -0.2258
  248MOL0     C33409   9.053   7.971   8.594 -0.1397 -0.0844 -0.0665
  248MOL0     C33410   9.705   8.046   8.865  1.2353  0.3373 -1.0460
  248MOL0     C33411   9.841   8.049   8.870 -0.4611  0.2200 -1.1539
  248MOL0     C33412   9.918   8.107   8.754 -0.1258 -0.0729 -0.0416
  248MOL0     H33413  10.304   7.896   9.179 -2.0928 -0.5119  5.2414
  248MOL0     H33414  10.529   8.022   9.196 -0.4185  0.8899 -0.3153
  248MOL0     H33415  10.557   8.417   9.095  1.1694 -1.7786 -0.4886
  248MOL0     H33416  10.519   8.467   9.264  0.9216 -0.6724  2.3755
  248MOL0     H33417  10.765   8.457   9.303 -2.2207 -1.2983  1.9067
  248MOL0     H33418  10.735   8.540   9.152 -2.0940 -1.3724 -3.3523
  248MOL0     H33419  10.769   8.335   9.023  0.9663 -0.2009 -0.1549
  248MOL0     H33420  10.834   8.258   9.169  2.1725  0.0406 -0.4908
  248MOL0     H33421  10.942   8.524   9.074 -1.1892  1.1726  0.1644
  248MOL0     H33422  10.993   8.410   9.202  1.1446 -0.3507 -0.5560
  248MOL0     H33423  11.031   8.241   9.000 -0.5927  2.2021 -0.0329
  248MOL0     H33424  10.999   8.370   8.903  0.6335 -2.1732 -2.3127
  248MOL0     H33425  11.181   8.521   9.054 -0.1785 -0.5576  2.8024
  248MOL0     H33426  11.230   8.359   9.116  2.4644  1.6561  0.4752
  248MOL0     H33427  11.225   8.439   8.828 -2.4515  0.7482  1.1779
  248MOL0     H33428  11.266   8.271   8.898  3.7993  0.4495  1.1710
  248MOL0     H33429  11.463   8.402   8.834 -2.5730 -2.5240 -0.0442
  248MOL0     H33430  11.419   8.534   8.934  1.1825 -0.1992 -0.3328
  248MOL0     H33431  11.495   8.157   9.027  1.5212 -0.0681  0.4497
  248MOL0     H33432  11.689   8.066   9.234  1.4956 -1.2305 -0.6269
  248MOL0     H33433  11.766   8.106   9.077 -1.5708 -0.7063 -1.3244
  248MOL0     H33434  11.821   8.263   9.338 -0.8110 -2.1158  0.7342
  248MOL0     H33435  11.911   8.111   9.312  3.5372  1.5220 -1.0654
  248MOL0     H33436  11.947   8.375   9.159  1.2522 -0.5747  0.0160
  248MOL0     H33437  11.981   8.217   9.077  2.6625 -3.2189  0.9372
  248MOL0     H33438  12.149   8.164   9.236 -2.3232 -2.4576  0.1243
  248MOL0     H33439  12.091   8.277   9.358  2.5498  1.7895 -0.5067
  248MOL0     H33440  12.318   8.170   9.380  1.6404 -0.5228  1.8335
  248MOL0     H33441  12.545   8.143   9.419  2.1199  0.2872 -1.1844
  248MOL0     H33442  12.835   7.979   9.499 -0.9130  1.0780 -2.9106
  248MOL0     H33443  13.060   7.917   9.627 -1.0912  0.6148 -0.5137
  248MOL0     H33444  13.309   7.824   9.527  1.5516  0.2637 -0.5698
  248MOL0     H33445  13.364   7.940   9.408  4.8790  2.8923  0.4930
  248MOL0     H33446  13.487   7.818   9.665  3.0309  0.4942  0.4531
  248MOL0     H33447  13.542   7.832   9.501 -4.0476 -2.4345 -1.1803
  248MOL0     H33448  13.543   8.079   9.685  0.5460  1.0608 -1.8690
  248MOL0     H33449  13.671   7.970   9.679  1.1696 -2.8166 -3.0066
  248MOL0     H33450  13.560   8.106   9.428 -2.2887  2.6282  3.0040
  248MOL0     H33451  13.726   8.028   9.460  0.6401  1.7295 -0.4254
  248MOL0     H33452  13.769   8.246   9.464  1.5417 -0.5422  1.6733
  248MOL0     H33453  13.739   8.230   9.643 -1.4742  0.9941  1.1236
  248MOL0     H33454  13.619   8.430   9.504 -0.2884  1.2913  1.4867
  248MOL0     H33455  13.509   8.299   9.451  0.5328  1.5863 -1.2470
  248MOL0     H33456  13.582   8.350   9.737 -1.7260  0.2848  0.6015
  248MOL0     H33457  13.451   8.252   9.665 -1.4046  0.3915 -1.1870
  248MOL0     H33458  13.355   8.430   9.766  0.1356 -0.7263 -0.3720
  248MOL0     H33459  13.454   8.558   9.697 -0.3410  0.2824  1.9297
  248MOL0     H33460  13.258   8.221   9.417 -0.5754  0.1683  0.9534
  248MOL0     H33461  13.039   8.315   9.354 -0.4706  0.2341  0.1678
  248MOL0     H33462  12.634   8.518   9.203 -2.3472  1.9121 -0.1604
  248MOL0     H33463  12.396   8.529   9.150 -0.2192  0.6067  1.5681
  248MOL0     H33464  10.324   8.387   9.211 -0.2225  0.6789 -0.6603
  248MOL0     H33465  10.106   8.282   9.166 -0.4092 -0.5960  5.1684
  248MOL0     H33466   9.860   7.924   9.194 -0.8636  2.7710  1.7160
  248MOL0     H33467   9.608   7.910   9.161 -2.8699  2.7986  0.1759
  248MOL0     H33468   9.351   7.885   8.886  1.5545 -2.8962 -1.0179
  248MOL0     H33469   9.500   7.870   8.801 -0.7321 -0.0820 -0.3797
  248MOL0     H33470   9.342   7.978   8.652 -0.6403 -0.2792 -0.1093
  248MOL0     H33471   9.475   8.081   8.684  1.1378 -1.6605 -0.5701
  248MOL0     H33472   9.296   8.231   8.698  0.2544  1.0387  1.1740
  248MOL0     H33473   9.315   8.205   8.866 -0.8062  0.1213 -0.3331
  248MOL0     H33474   9.143   8.055   8.891  3.5992  0.7783  0.6122
  248MOL0     H33475   9.079   8.197   8.810 -2.0284 -0.7851 -0.0638
  248MOL0     H33476   9.014   7.915   8.511 -0.9278 -2.0123  1.5050
  248MOL0     H33477   9.658   8.091   8.779  1.3531  1.0856 -0.7210
  248MOL0     H33478   9.870   8.128   8.658 -0.4541 -0.7772 -0.0407
  248MOL0     H33479   9.965   8.200   8.787 -1.6555  0.6587  0.1813
  248MOL0     H33480  10.005   8.048   8.723  3.0847  2.1674  3.6617
  249MOL0     O33481   8.166  10.626  10.579  0.3712  0.2832  0.1782
  249MOL0     C33482   8.076  10.711  10.554  0.2300 -0.1354  0.5710
  249MOL0     O33483   8.076  10.846  10.580  0.3582 -0.6307  0.6998
  249MOL0     C33484   8.194  10.909  10.609  0.2042  0.7200  0.0393
  249MOL0     C33485   8.325  10.891  10.551  0.5881 -1.4440  0.0148
  249MOL0     C33486   8.436  10.976  10.587  0.5641 -0.3882 -0.0125
  249MOL0     C33487   8.405  11.086  10.671 -0.6316 -0.2844 -0.2513
  249MOL0     O33488   8.506  11.182  10.693 -0.6871 -0.1842 -0.3156
  249MOL0     C33489   8.504  11.301  10.608 -0.6645  0.4685  0.2563
  249MOL0     C33490   8.462  11.428  10.681  0.4978  0.3109 -0.1313
  249MOL0     C33491   8.473  11.537  10.573  0.2864 -0.5806  0.2817
  249MOL0     C33492   8.431  11.675  10.641  0.0219 -0.1470 -0.1299
  249MOL0     C33493   8.485  11.793  10.552  0.9343  0.4536  0.6923
  249MOL0     C33494   8.608  11.855  10.610 -0.8646 -0.2470  0.1643
  249MOL0     C33495   8.566  11.956  10.723 -0.3023 -0.1286  0.6322
  249MOL0     C33496   8.686  12.037  10.781  0.0748  0.2650 -0.6193
  249MOL0     N33497   8.784  11.941  10.847  0.2562 -0.3489  0.0771
  249MOL0     C33498   8.755  11.833  10.934 -0.2422 -0.4274  0.1570
  249MOL0     C33499   8.864  11.754  10.924 -0.1463 -0.4430 -0.3326
  249MOL0     C33500   8.888  11.616  10.992  0.8192  0.0678  0.3301
  249MOL0     C33501   8.867  11.504  10.879  0.7676  0.4767 -0.9466
  249MOL0     C33502   8.872  11.363  10.922  0.1219 -1.0774  0.4352
  249MOL0     C33503   8.754  11.319  11.006 -0.5981  0.0462 -0.3474
  249MOL0     O33504   8.773  11.201  11.092  0.5388  0.4815 -0.2743
  249MOL0     C33505   8.753  11.078  11.048 -0.1863 -0.0808 -0.9247
  249MOL0     C33506   8.699  11.037  10.930 -0.4337 -0.4769  0.3474
  249MOL0     C33507   8.678  10.902  10.906 -0.0797 -0.7283  0.3857
  249MOL0     C33508   8.709  10.795  10.995 -0.3232  0.4073  0.1206
  249MOL0     C33509   8.670  10.663  10.967  0.3793  1.1675  0.5782
  249MOL0     O33510   8.658  10.637  10.831 -0.1824 -0.8424 -0.1526
  249MOL0     C33511   8.602  10.518  10.786 -0.9075  0.4465 -0.0021
  249MOL0     C33512   8.468  10.491  10.795  0.3003 -0.0650 -0.6553
  249MOL0     C33513   8.415  10.377  10.744  0.6683 -0.9087 -0.4882
  249MOL0     C33514   8.487  10.284  10.676 -0.1639  0.3294 -0.5093
  249MOL0     O33515   8.439  10.153  10.646 -0.3757 -0.0530 -0.9726
  249MOL0     C33516   8.302  10.121  10.676  0.6066 -0.4023  0.1671
  249MOL0     C33517   8.275  10.075  10.817  0.6203 -0.5392  0.6273
  249MOL0     C33518   8.129  10.023  10.837 -0.4899 -0.0059 -0.0284
  249MOL0     C33519   8.019  10.126  10.799 -0.6426  0.2439 -0.1183
  249MOL0     C33520   7.892  10.084  10.862  0.9431  0.5335 -0.4509
  249MOL0     C33521   7.768  10.166  10.832  0.5785 -0.2628  0.3896
  249MOL0     C33522   7.708  10.137  10.690  0.2208 -0.3098  0.3788
  249MOL0     C33523   7.586  10.217  10.669  0.8556 -0.5219 -0.0375
  249MOL0    Cl33524   7.467  10.127  10.759 -0.0093  0.1216 -0.2057
  249MOL0     C33525   8.622  10.311  10.650 -0.1227 -0.6276 -0.2045
  249MOL0     C33526   8.687  10.421  10.712  1.0626 -0.0463  0.0206
  249MOL0     O33527   8.669  10.578  11.054 -0.5206  0.6112  0.8584
  249MOL0     C33528   8.756  10.837  11.116  0.6986 -0.8651  0.4104
  249MOL0     C33529   8.778  10.974  11.143 -0.1672  0.3509  0.6785
  249MOL0     N33530   8.957  11.819  10.854 -0.7249 -0.5474 -0.5487
  249MOL0     N33531   8.909  11.919  10.799  0.1500 -0.4581 -0.0028
  249MOL0     C33532   8.282  11.106  10.724  0.4295  0.2599  0.0769
  249MOL0     C33533   8.174  11.009  10.699 -0.1354 -0.3484 -0.5397
  249MOL0     C33534   7.942  10.654  10.512 -0.5103 -0.1451 -0.2681
  249MOL0     C33535   7.821  10.686  10.573  0.8866 -0.0969 -0.8283
  249MOL0     C33536   7.698  10.632  10.534 -0.1798 -0.1477 -0.3018
  249MOL0     C33537   7.689  10.545  10.427  0.1208  0.2615  0.6457
  249MOL0     O33538   7.565  10.509  10.395  0.3802  0.2781  0.2885
  249MOL0     C33539   7.553  10.390  10.316  0.1338 -0.2353  0.3187
  249MOL0     C33540   7.405  10.360  10.275 -0.2355 -0.1318 -1.2798
  249MOL0     C33541   7.315  10.328  10.397 -0.5480 -0.2261  0.5206
  249MOL0     C33542   7.196  10.251  10.330  0.3113 -0.5982  1.0162
  249MOL0     C33543   7.078  10.282  10.404  0.9828  0.0378 -0.1719
  249MOL0     C33544   6.985  10.303  10.468  0.2698  0.0988  0.1059
  249MOL0     C33545   7.810  10.519  10.358  0.3838 -0.3414 -0.2100
  249MOL0     C33546   7.939  10.570  10.400  0.1863 -0.1853 -0.1517
  249MOL0     C33547   8.062  10.518  10.323 -0.2296 -0.7571 -0.1650
  249MOL0     H33548   8.342  10.816  10.475  0.8475 -0.3898 -0.9924
  249MOL0     H33549   8.537  10.965  10.548  0.4010 -1.9330 -0.0639
  249MOL0     H33550   8.601  11.316  10.559  0.0883  0.0965  1.5771
  249MOL0     H33551   8.431  11.286  10.528  0.0629  1.2055 -0.5660
  249MOL0     H33552   8.522  11.455  10.769  0.8404  0.0723 -0.2874
  249MOL0     H33553   8.359  11.430  10.717  0.0131  3.4369 -1.3771
  249MOL0     H33554   8.408  11.504  10.492  0.0488  1.7501 -0.5481
  249MOL0     H33555   8.577  11.554  10.543  0.2856  1.9012  1.4024
  249MOL0     H33556   8.322  11.685  10.644 -0.2312 -2.2215 -0.5269
  249MOL0     H33557   8.462  11.674  10.746  1.2540 -1.3794 -0.4804
  249MOL0     H33558   8.505  11.754  10.452 -1.7300 -0.5048  0.4404
  249MOL0     H33559   8.400  11.860  10.531 -0.6784 -1.8944 -0.7022
  249MOL0     H33560   8.676  11.776  10.645  1.0776  0.2449 -2.1651
  249MOL0     H33561   8.649  11.906  10.522  1.1338  0.9317  1.7137
  249MOL0     H33562   8.518  11.902  10.805 -3.4411  0.8321 -0.4250
  249MOL0     H33563   8.508  12.036  10.676 -3.8663 -1.5643  2.1992
  249MOL0     H33564   8.727  12.084  10.690  0.8576  0.5550 -0.1287
  249MOL0     H33565   8.657  12.122  10.843 -0.3066  1.9797 -3.0068
  249MOL0     H33566   8.654  11.818  10.968  1.0558 -1.1589  4.1532
  249MOL0     H33567   8.986  11.612  11.040  0.5510 -2.4377  0.8242
  249MOL0     H33568   8.815  11.600  11.073  0.2310  0.6706 -0.0660
  249MOL0     H33569   8.768  11.515  10.833 -0.0810  4.0704  1.3526
  249MOL0     H33570   8.949  11.503  10.806  2.2540 -1.5327  0.6436
  249MOL0     H33571   8.959  11.354  10.988  0.7066  3.4072  0.6418
  249MOL0     H33572   8.866  11.294  10.838  1.3356  0.3576 -0.8912
  249MOL0     H33573   8.664  11.307  10.945  0.0538 -2.4359 -0.9388
  249MOL0     H33574   8.737  11.398  11.080  1.1035 -0.3543  0.5367
  249MOL0     H33575   8.668  11.112  10.857 -2.5943 -0.2719  1.3667
  249MOL0     H33576   8.654  10.878  10.803  1.9240  0.8711 -0.5335
  249MOL0     H33577   8.412  10.568  10.847  1.9902  1.0563 -0.3858
  249MOL0     H33578   8.310  10.367  10.770  1.1171 -2.5493  0.8977
  249MOL0     H33579   8.245  10.211  10.650  3.2936  2.0559  2.2098
  249MOL0     H33580   8.274  10.041  10.607  0.5779  0.5938 -1.0314
  249MOL0     H33581   8.350   9.998  10.839  3.9541  2.5187  0.7062
  249MOL0     H33582   8.288  10.162  10.882  1.4630 -0.7332  0.7356
  249MOL0     H33583   8.124   9.929  10.780  1.4620  0.4598 -1.0298
  249MOL0     H33584   8.117  10.004  10.944  2.6349  0.9401  0.5683
  249MOL0     H33585   7.997  10.114  10.692 -2.0182 -1.8743  0.3292
  249MOL0     H33586   8.045  10.227  10.831  1.4251  1.4113 -4.6490
  249MOL0     H33587   7.898  10.079  10.971  0.6229 -0.7400 -0.4777
  249MOL0     H33588   7.858   9.985  10.831 -0.8333  1.1895 -0.6925
  249MOL0     H33589   7.690  10.140  10.904  1.1956  1.8742  1.9314
  249MOL0     H33590   7.789  10.273  10.842 -3.4420  0.7446 -0.3404
  249MOL0     H33591   7.693  10.029  10.686  2.9335 -0.8259  1.9728
  249MOL0     H33592   7.778  10.168  10.612 -0.8241 -0.6550 -0.7305
  249MOL0     H33593   7.602  10.323  10.692  2.5959 -0.9107  0.7713
  249MOL0     H33594   7.567  10.210  10.562  1.4354 -0.3917 -0.1543
  249MOL0     H33595   8.687  10.250  10.587 -0.6422 -0.0127 -1.3756
  249MOL0     H33596   8.793  10.441  10.705  1.7703 -2.4972  2.3392
  249MOL0     H33597   8.774  10.770  11.200 -2.3344  0.2156  2.0838
  249MOL0     H33598   8.825  11.022  11.228  2.2911  1.2912 -1.1290
  249MOL0     H33599   8.252  11.194  10.780  0.0735 -0.2351  0.6790
  249MOL0     H33600   8.076  11.017  10.745  1.3571  2.0336  2.6723
  249MOL0     H33601   7.821  10.762  10.650  1.6347 -0.6125 -0.3012
  249MOL0     H33602   7.608  10.664  10.585  0.6710  0.1974  1.0289
  249MOL0     H33603   7.590  10.302  10.370 -0.0980 -1.3915 -1.3419
  249MOL0     H33604   7.615  10.393  10.226  0.5664 -2.0312  0.5181
  249MOL0     H33605   7.405  10.279  10.201 -0.7571  0.3224 -1.7888
  249MOL0     H33606   7.361  10.446  10.225 -0.7635 -0.7040 -1.8225
  249MOL0     H33607   7.286  10.422  10.445  3.1094  0.8112  1.0443
  249MOL0     H33608   7.371  10.254  10.456  0.8045 -2.1449 -2.8769
  249MOL0     H33609   7.176  10.275  10.226 -2.0248 -3.7359  0.5929
  249MOL0     H33610   7.217  10.144  10.327 -1.1422 -0.8814 -0.4663
  249MOL0     H33611   6.901  10.314  10.534  1.7813  0.4772  2.0324
  249MOL0     H33612   7.816  10.455  10.271  1.0786  0.9494 -1.1564
  249MOL0     H33613   8.116  10.606  10.287  1.8031 -2.2891 -1.0688
  249MOL0     H33614   8.119  10.457  10.394 -0.0906 -0.9518 -0.4427
  249MOL0     H33615   8.044  10.456  10.235  0.9724 -1.7100  0.2326
  250MOL0     O33616   7.605  10.656   4.849 -0.2627  0.2176 -0.1825
  250MOL0     C33617   7.650  10.649   4.736 -0.0949  0.7412  0.3093
  250MOL0     O33618   7.581  10.662   4.620  0.5576  0.5810 -0.2884
  250MOL0     C33619   7.447  10.696   4.627  0.0659 -0.3685  0.3137
  250MOL0     C33620   7.406  10.775   4.516  0.3930  0.7020 -0.1036
  250MOL0     C33621   7.266  10.807   4.502 -0.3995 -0.4731  0.4408
  250MOL0     C33622   7.173  10.769   4.592 -0.1946 -0.5951 -0.7845
  250MOL0     O33623   7.044  10.817   4.576  0.3956  0.9888 -0.1268
  250MOL0     C33624   6.939  10.769   4.658  0.0708  1.2095 -0.8117
  250MOL0     C33625   6.814  10.845   4.629  0.7637  0.3644  0.5868
  250MOL0     C33626   6.692  10.792   4.692 -0.9134 -0.1768  0.3322
  250MOL0     C33627   6.579  10.880   4.649  0.5575 -0.4153 -0.4002
  250MOL0     C33628   6.442  10.829   4.697 -0.5913  0.6548  0.6209
  250MOL0     C33629   6.350  10.758   4.582  0.9002 -0.8403 -0.7187
  250MOL0     C33630   6.221  10.724   4.646 -0.2175  1.1016  0.1058
  250MOL0     C33631   6.117  10.835   4.650  0.3770 -0.4748  0.6200
  250MOL0     N33632   6.000  10.809   4.743 -0.7571 -0.0333  0.7463
  250MOL0     C33633   5.903  10.719   4.717  0.0875 -0.2227  0.1444
  250MOL0     C33634   5.828  10.696   4.831  0.2461  0.3387  0.2478
  250MOL0     C33635   5.721  10.594   4.861  0.9987  0.6999 -0.3940
  250MOL0     C33636   5.751  10.458   4.788  1.2136  0.1405 -0.6116
  250MOL0     C33637   5.629  10.367   4.768 -0.2205  0.7504 -0.4385
  250MOL0     C33638   5.613  10.264   4.658  0.2977  0.5363 -0.7022
  250MOL0     O33639   5.702  10.153   4.676 -0.4139  0.1319  0.7242
  250MOL0     C33640   5.825  10.149   4.617 -0.3169  1.1856  0.4991
  250MOL0     C33641   5.929  10.148   4.716  1.2370 -0.4561 -0.0069
  250MOL0     C33642   6.065  10.155   4.674  0.3441  0.5222 -1.0612
  250MOL0     C33643   6.092  10.182   4.534 -0.0411  0.0613  0.6397
  250MOL0     C33644   6.227  10.219   4.486  0.5622 -0.8260  0.7291
  250MOL0     O33645   6.329  10.242   4.565 -0.4847  0.2313 -0.2096
  250MOL0     C33646   6.448  10.270   4.502  0.1844 -0.8698  0.3963
  250MOL0     C33647   6.510  10.397   4.506  0.1385  0.3975  1.3448
  250MOL0     C33648   6.633  10.425   4.444 -0.1506 -0.2274  0.3495
  250MOL0     C33649   6.707  10.327   4.379  1.2286  0.0991  0.5867
  250MOL0     O33650   6.830  10.344   4.343  0.2353  0.2632  0.2399
  250MOL0     C33651   6.850  10.443   4.241  0.6154 -0.3155 -1.1206
  250MOL0     C33652   6.843  10.375   4.105 -0.8129 -0.1486 -0.9159
  250MOL0     C33653   6.964  10.287   4.081 -0.5251  0.6590  0.7261
  250MOL0     C33654   6.960  10.220   3.937  0.5374 -1.0540  0.3722
  250MOL0     C33655   7.000  10.308   3.820 -0.8336  0.6535  0.2251
  250MOL0     C33656   7.003  10.215   3.690  0.4136  0.3712 -0.4555
  250MOL0     C33657   7.135  10.129   3.672 -0.4283  0.1211 -0.4553
  250MOL0     C33658   7.132  10.065   3.548 -0.1096  0.4117  1.1493
  250MOL0    Cl33659   7.286   9.977   3.505 -0.2132 -0.1043  0.0829
  250MOL0     C33660   6.650  10.197   4.377  0.2037  0.6685 -0.3723
  250MOL0     C33661   6.526  10.163   4.441 -0.3308 -0.1069 -0.1366
  250MOL0     O33662   6.242  10.222   4.362  0.5035 -0.6106 -0.1132
  250MOL0     C33663   5.986  10.171   4.441 -1.1501  0.9693 -0.8453
  250MOL0     C33664   5.855  10.164   4.487  0.0469  0.0283 -0.6029
  250MOL0     N33665   5.889  10.782   4.924  0.7400 -0.2135 -0.1832
  250MOL0     N33666   5.988  10.844   4.868 -0.0131 -0.2118 -1.0161
  250MOL0     C33667   7.214  10.679   4.688  0.5805 -0.3676  0.1194
  250MOL0     C33668   7.351  10.647   4.707  0.5801  0.4292 -0.0710
  250MOL0     C33669   7.797  10.630   4.723  0.2131  0.4411  0.7696
  250MOL0     C33670   7.879  10.733   4.774  0.0168  1.1037  1.1368
  250MOL0     C33671   8.020  10.711   4.744  1.0367 -0.3244 -0.7210
  250MOL0     C33672   8.072  10.601   4.688 -0.7337  0.8111 -0.0653
  250MOL0     O33673   8.207  10.596   4.681 -0.1685 -0.1202  0.4621
  250MOL0     C33674   8.274  10.496   4.602  1.2313 -0.6131 -0.0240
  250MOL0     C33675   8.409  10.552   4.579 -0.5334  0.3080  0.5160
  250MOL0     C33676   8.503  10.457   4.499 -0.4607  0.6643  0.4052
  250MOL0     C33677   8.625  10.516   4.428 -0.4192  0.3299 -1.0206
  250MOL0     C33678   8.603  10.620   4.329  0.2954 -1.2923  0.2333
  250MOL0     C33679   8.585  10.709   4.257 -0.0853 -1.0717  0.6025
  250MOL0     C33680   7.985  10.490   4.662 -0.6447 -0.5664 -1.5347
  250MOL0     C33681   7.848  10.505   4.679 -0.6498  0.2393 -0.2843
  250MOL0     C33682   7.756  10.385   4.645 -0.2678  1.4122  1.0724
  250MOL0     H33683   7.472  10.811   4.438 -0.1108  3.1977  0.5196
  250MOL0     H33684   7.235  10.875   4.424 -0.0549 -1.4099 -0.5324
  250MOL0     H33685   6.915  10.662   4.666 -2.5057  1.8652  2.4463
  250MOL0     H33686   6.974  10.797   4.758 -3.0130 -1.9077  1.3933
  250MOL0     H33687   6.809  10.841   4.520  0.6590  0.5865  0.5837
  250MOL0     H33688   6.832  10.943   4.674  0.9346 -0.9075  3.5732
  250MOL0     H33689   6.689  10.797   4.802 -2.0786 -0.3835  0.3202
  250MOL0     H33690   6.682  10.692   4.649  0.9645  0.8843 -2.8744
  250MOL0     H33691   6.591  10.981   4.689 -0.7928  0.9886 -3.3060
  250MOL0     H33692   6.572  10.889   4.540 -4.2931 -2.6113 -0.5238
  250MOL0     H33693   6.459  10.755   4.775  2.8256  0.6954  0.0614
  250MOL0     H33694   6.389  10.913   4.742  2.0966  3.3855 -0.9148
  250MOL0     H33695   6.328  10.832   4.503 -0.7427 -2.0274 -1.4316
  250MOL0     H33696   6.405  10.678   4.532  0.1634 -1.2400 -0.9024
  250MOL0     H33697   6.246  10.679   4.742  1.0313 -0.7405 -1.0204
  250MOL0     H33698   6.176  10.637   4.597  0.5228  0.3472  0.7264
  250MOL0     H33699   6.164  10.929   4.681 -1.1840  0.0648  1.4739
  250MOL0     H33700   6.092  10.851   4.545  2.6291 -1.7513 -0.1804
  250MOL0     H33701   5.883  10.668   4.623  1.7033 -1.6032  0.5034
  250MOL0     H33702   5.711  10.583   4.969  3.6208  0.9835 -0.0383
  250MOL0     H33703   5.630  10.626   4.810  0.6867  1.1628  0.4348
  250MOL0     H33704   5.787  10.483   4.688 -1.1514  2.6021 -0.9317
  250MOL0     H33705   5.838  10.418   4.841  0.4301 -1.2048 -0.2990
  250MOL0     H33706   5.544  10.430   4.742 -0.2352  0.9823  0.1716
  250MOL0     H33707   5.628  10.321   4.867  2.1144 -0.6835 -0.9923
  250MOL0     H33708   5.631  10.304   4.558  2.1474  0.5078 -0.4142
  250MOL0     H33709   5.514  10.226   4.682 -0.6480  2.8915 -0.6669
  250MOL0     H33710   5.905  10.142   4.822  0.4567  2.6275  0.0843
  250MOL0     H33711   6.141  10.137   4.749 -0.9833 -1.2341 -0.0802
  250MOL0     H33712   6.458  10.474   4.561 -1.2981 -1.4854  2.7336
  250MOL0     H33713   6.685  10.519   4.459  0.3190 -0.6990  1.8481
  250MOL0     H33714   6.779  10.526   4.254  2.1789  1.0521 -0.9133
  250MOL0     H33715   6.941  10.501   4.259  0.7276 -0.7209 -0.3412
  250MOL0     H33716   6.754  10.311   4.107 -0.0083 -1.3173  1.3156
  250MOL0     H33717   6.839  10.466   4.045  1.2869  1.6466  1.4115
  250MOL0     H33718   7.056  10.345   4.089 -0.1755  0.2681 -0.3468
  250MOL0     H33719   6.962  10.205   4.153  1.1866 -1.2316 -1.2321
  250MOL0     H33720   6.857  10.191   3.915  0.9718 -1.5846 -1.0642
  250MOL0     H33721   7.028  10.135   3.933  1.0662 -0.7058  1.5999
  250MOL0     H33722   7.099  10.353   3.835 -0.0180 -0.1380 -2.3262
  250MOL0     H33723   6.921  10.382   3.804 -1.5804 -0.3530 -0.8512
  250MOL0     H33724   6.917  10.148   3.697  1.8041 -1.3233  2.1469
  250MOL0     H33725   6.998  10.282   3.604 -3.3255  1.6611  0.5767
  250MOL0     H33726   7.133  10.052   3.750  1.2752  0.3716 -0.1232
  250MOL0     H33727   7.220  10.198   3.671 -0.5511  0.4266 -4.4457
  250MOL0     H33728   7.040  10.006   3.537 -0.4507  1.1334 -0.1073
  250MOL0     H33729   7.121  10.139   3.467  2.1805 -0.0055  0.3907
  250MOL0     H33730   6.725  10.125   4.345  0.3081  0.0651  1.1322
  250MOL0     H33731   6.485  10.063   4.440  0.0536 -0.3164  1.7037
  250MOL0     H33732   5.996  10.200   4.337  2.6628  0.8991 -0.6231
  250MOL0     H33733   5.775  10.178   4.415 -0.5046  2.2416  0.3485
  250MOL0     H33734   7.142  10.638   4.759 -0.2888  0.7610 -0.0818
  250MOL0     H33735   7.374  10.572   4.781 -4.3815  1.4345  2.8795
  250MOL0     H33736   7.833  10.823   4.812 -2.2400  0.6524 -0.3450
  250MOL0     H33737   8.099  10.780   4.772  2.0810 -1.9034  0.4270
  250MOL0     H33738   8.224  10.474   4.507  0.2138  4.2322 -0.9202
  250MOL0     H33739   8.277  10.403   4.659 -0.2406 -1.2038 -0.8393
  250MOL0     H33740   8.461  10.577   4.671  0.4994 -3.3735  1.0821
  250MOL0     H33741   8.397  10.645   4.523  1.0464  0.1801 -0.0881
  250MOL0     H33742   8.442  10.404   4.425  0.5917  0.6701 -0.4984
  250MOL0     H33743   8.539  10.384   4.572 -4.1429  0.7714  2.5439
  250MOL0     H33744   8.700  10.539   4.504 -1.0424 -0.5013 -0.1411
  250MOL0     H33745   8.667  10.425   4.382 -2.6281 -0.0481 -2.4370
  250MOL0     H33746   8.556  10.797   4.203  4.1413  0.2268  0.1439
  250MOL0     H33747   8.040  10.403   4.626  3.2663  0.5327  1.0762
  250MOL0     H33748   7.683  10.400   4.565  1.5963  2.8379 -0.4908
  250MOL0     H33749   7.809  10.294   4.616  1.2901  2.9413 -1.3117
  250MOL0     H33750   7.695  10.371   4.734 -2.3913 -0.9144 -0.6163
  251MOL0     O33751   1.720   5.877   6.959 -0.2080  0.5949 -0.1058
  251MOL0     C33752   1.732   5.960   6.876 -0.2122  0.2450  0.7140
  251MOL0     O33753   1.635   5.999   6.781 -0.1489  0.2037  0.0780
  251MOL0     C33754   1.508   5.970   6.812  0.0336 -0.8446 -0.2392
  251MOL0     C33755   1.414   6.069   6.823  0.5656 -0.2118 -0.0688
  251MOL0     C33756   1.281   6.045   6.852 -0.3858 -0.5801  0.2734
  251MOL0     C33757   1.235   5.912   6.862 -0.5985 -0.9399 -0.5536
  251MOL0     O33758   1.106   5.882   6.896 -0.2225 -0.3616  0.6987
  251MOL0     C33759   1.088   5.779   6.993  0.2993 -0.1586 -0.6700
  251MOL0     C33760   0.947   5.786   7.066 -0.5853  0.0176  0.1416
  251MOL0     C33761   0.823   5.712   6.999  0.2082 -0.7002 -0.1601
  251MOL0     C33762   0.691   5.774   7.056  0.5620  0.5056  0.7202
  251MOL0     C33763   0.568   5.725   6.985  0.3902  1.1683 -0.3452
  251MOL0     C33764   0.454   5.732   7.088 -0.2640 -0.0219  0.3231
  251MOL0     C33765   0.322   5.668   7.052 -0.5986 -0.6825 -0.1870
  251MOL0     C33766   0.258   5.679   6.913  0.3557  0.2545 -0.6281
  251MOL0     N33767   0.179   5.800   6.900  0.4459  0.1434 -0.3607
  251MOL0     C33768   0.212   5.926   6.943  0.3007  0.2136 -0.6605
  251MOL0     C33769   0.105   6.001   6.917  0.0374 -1.0743  0.2383
  251MOL0     C33770   0.081   6.143   6.984 -0.4799 -0.2329 -0.0190
  251MOL0     C33771   0.202   6.239   6.967 -0.1526 -0.1345 -0.7939
  251MOL0     C33772   0.155   6.383   6.971 -0.1174  0.1174  0.2480
  251MOL0     C33773   0.270   6.487   6.995  0.1011  0.9556 -0.3557
  251MOL0     O33774   0.324   6.465   7.120 -0.1530 -0.6574 -0.2245
  251MOL0     C33775   0.421   6.540   7.172 -0.0651  0.8361 -0.0953
  251MOL0     C33776   0.480   6.487   7.283 -0.0980  0.2574  0.2005
  251MOL0     C33777   0.577   6.549   7.352 -0.9925 -0.9102 -0.3604
  251MOL0     C33778   0.633   6.670   7.290 -0.0841  0.6635 -1.4963
  251MOL0     C33779   0.745   6.737   7.364 -0.9265  0.0779 -1.1492
  251MOL0     O33780   0.804   6.671   7.468  0.2933  0.0018  0.0864
  251MOL0     C33781   0.915   6.723   7.522  0.0596  0.7071  0.2057
  251MOL0     C33782   1.013   6.627   7.551 -0.4002 -0.1198  0.3963
  251MOL0     C33783   1.121   6.662   7.635 -0.5702  0.1141 -0.7736
  251MOL0     C33784   1.135   6.798   7.681  0.8879 -0.0477 -0.1265
  251MOL0     O33785   1.232   6.841   7.762 -0.2419  0.0063  0.0576
  251MOL0     C33786   1.329   6.742   7.808  0.4399  0.2646 -0.2793
  251MOL0     C33787   1.419   6.820   7.904 -0.1978 -0.2067 -0.4373
  251MOL0     C33788   1.527   6.731   7.959 -0.6248 -0.0508  0.2847
  251MOL0     C33789   1.639   6.804   8.038  0.1802 -0.3163 -0.3585
  251MOL0     C33790   1.749   6.703   8.083 -0.2312 -0.2414 -0.1508
  251MOL0     C33791   1.857   6.767   8.174  0.2879  0.9998  0.0786
  251MOL0     C33792   1.821   6.847   8.296  0.2022  0.3144  0.8317
  251MOL0     C33793   1.943   6.889   8.375 -0.6826  0.2946 -0.3092
  251MOL0    Cl33794   1.872   7.006   8.477 -0.5116 -0.6733  0.1894
  251MOL0     C33795   1.027   6.885   7.657  0.4004  0.3428 -0.0408
  251MOL0     C33796   0.918   6.845   7.582  0.1127 -0.9204 -0.3556
  251MOL0     O33797   0.799   6.833   7.318  0.0580 -0.7343  0.0517
  251MOL0     C33798   0.569   6.733   7.185  0.5607 -0.3107 -0.5899
  251MOL0     C33799   0.473   6.660   7.114  0.3755 -0.1134  0.0500
  251MOL0     N33800   0.011   5.926   6.858 -0.5547 -0.2367 -0.3310
  251MOL0     N33801   0.059   5.801   6.843  1.1446 -0.7134 -0.4584
  251MOL0     C33802   1.333   5.810   6.854  0.5063  0.1069 -0.5461
  251MOL0     C33803   1.459   5.839   6.828 -0.4419  0.8591 -0.9580
  251MOL0     C33804   1.868   6.018   6.875 -0.5885 -1.0390 -0.4956
  251MOL0     C33805   1.975   5.968   6.954 -0.1651  0.3822  0.4353
  251MOL0     C33806   2.106   6.001   6.955 -0.1229  0.3358 -0.2737
  251MOL0     C33807   2.151   6.101   6.867  0.9570 -0.3220  0.5387
  251MOL0     O33808   2.286   6.133   6.867 -0.2875  0.4373 -0.5004
  251MOL0     C33809   2.324   6.251   6.794 -0.6125  0.6570 -0.3983
  251MOL0     C33810   2.475   6.291   6.805 -0.7584  0.3114 -0.2797
  251MOL0     C33811   2.579   6.186   6.755  0.4039 -0.7351 -0.0952
  251MOL0     C33812   2.667   6.245   6.637  0.6205  0.3982 -1.0258
  251MOL0     C33813   2.751   6.345   6.703 -0.4478 -0.0348 -0.2816
  251MOL0     C33814   2.812   6.438   6.759  0.7453 -0.4184  0.2498
  251MOL0     C33815   2.052   6.160   6.786  0.5541 -0.7633  0.7046
  251MOL0     C33816   1.916   6.123   6.790 -0.8696  0.3066  0.6788
  251MOL0     C33817   1.812   6.209   6.723  0.0762 -0.2825 -0.5134
  251MOL0     H33818   1.438   6.174   6.808 -0.4915  0.0622  0.0583
  251MOL0     H33819   1.214   6.126   6.881 -3.0063 -2.0856 -1.1736
  251MOL0     H33820   1.111   5.677   6.958 -1.1342 -0.3776 -1.0291
  251MOL0     H33821   1.162   5.799   7.071 -2.9214  1.3969  2.2261
  251MOL0     H33822   0.921   5.890   7.089 -0.9810 -0.1369  0.4138
  251MOL0     H33823   0.954   5.740   7.165 -0.1780  1.3486  0.7584
  251MOL0     H33824   0.828   5.604   7.017  3.5564 -0.5149  0.5452
  251MOL0     H33825   0.831   5.725   6.891  0.3246 -1.5337 -0.2556
  251MOL0     H33826   0.697   5.743   7.161  0.6076 -0.9198  0.3167
  251MOL0     H33827   0.700   5.883   7.057 -1.3077  0.7052  0.0626
  251MOL0     H33828   0.547   5.790   6.899  1.2781 -0.0850 -1.5391
  251MOL0     H33829   0.567   5.624   6.944 -0.0236  1.7218 -1.7760
  251MOL0     H33830   0.488   5.692   7.184  2.7725  0.3728 -0.4937
  251MOL0     H33831   0.418   5.835   7.096 -1.7801 -0.4535 -0.6156
  251MOL0     H33832   0.251   5.716   7.121 -1.1896  0.3030 -1.4424
  251MOL0     H33833   0.345   5.566   7.084  0.2399  0.3117  2.6102
  251MOL0     H33834   0.331   5.683   6.831  0.3661  1.1421 -0.5858
  251MOL0     H33835   0.195   5.591   6.901  1.7188 -1.1302  1.6893
  251MOL0     H33836   0.280   5.955   7.023  0.0658  4.7708 -1.8379
  251MOL0     H33837  -0.002   6.183   6.925  0.9882  0.4383 -1.7020
  251MOL0     H33838   0.052   6.139   7.090 -0.9182  4.5701  0.2806
  251MOL0     H33839   0.268   6.225   7.053  0.1579  0.5293 -0.9177
  251MOL0     H33840   0.261   6.217   6.878 -0.7775  0.1444 -1.2904
  251MOL0     H33841   0.083   6.389   7.054 -0.9945  1.6541 -0.5969
  251MOL0     H33842   0.100   6.402   6.879 -1.3820 -2.8479  0.2683
  251MOL0     H33843   0.233   6.590   7.000  0.5414  1.0857  0.3266
  251MOL0     H33844   0.351   6.480   6.922  0.4334  0.3653  0.0688
  251MOL0     H33845   0.440   6.396   7.326  1.4496 -2.1278 -2.9892
  251MOL0     H33846   0.622   6.511   7.444 -1.0949 -0.6746 -0.2096
  251MOL0     H33847   0.995   6.527   7.514 -0.9019  0.5636 -1.2902
  251MOL0     H33848   1.192   6.582   7.657  1.8183  2.2608 -0.2476
  251MOL0     H33849   1.296   6.656   7.868  2.6608 -1.7985 -1.7985
  251MOL0     H33850   1.399   6.718   7.728  3.1194  0.6169  1.7948
  251MOL0     H33851   1.463   6.908   7.856  2.8056  0.8177  3.6224
  251MOL0     H33852   1.355   6.857   7.984  0.9269 -0.7644  0.7478
  251MOL0     H33853   1.491   6.655   8.029 -1.3477  0.1096  0.0935
  251MOL0     H33854   1.566   6.684   7.868  0.7893 -0.9727  1.3112
  251MOL0     H33855   1.603   6.855   8.128 -0.6602 -1.1012 -0.2379
  251MOL0     H33856   1.684   6.876   7.969  3.1192 -3.6517 -2.2540
  251MOL0     H33857   1.806   6.660   8.000 -1.5465 -0.7906 -0.7871
  251MOL0     H33858   1.697   6.623   8.138  0.5980 -1.1449 -0.6500
  251MOL0     H33859   1.923   6.687   8.209 -1.8425 -1.5645 -1.3941
  251MOL0     H33860   1.906   6.835   8.104  0.4772 -1.8010 -2.7794
  251MOL0     H33861   1.760   6.792   8.368 -0.4141  0.8090  0.6969
  251MOL0     H33862   1.763   6.937   8.272 -1.2205 -0.5705  0.7873
  251MOL0     H33863   1.975   6.800   8.430 -1.6244  0.1755  0.0669
  251MOL0     H33864   2.013   6.923   8.298 -1.6734  2.1359 -0.4486
  251MOL0     H33865   1.036   6.986   7.696  5.3991  0.1306 -0.0267
  251MOL0     H33866   0.842   6.921   7.568  2.0434  1.5182  1.3451
  251MOL0     H33867   0.613   6.824   7.147 -2.6070  1.7890  0.3527
  251MOL0     H33868   0.430   6.700   7.022 -0.6868  0.7952  0.9031
  251MOL0     H33869   1.299   5.708   6.862 -0.1819  0.2780 -1.1225
  251MOL0     H33870   1.530   5.757   6.820  2.3742  3.2451 -2.4336
  251MOL0     H33871   1.947   5.895   7.029 -0.4875  3.5393  3.6524
  251MOL0     H33872   2.176   5.952   7.020  0.2596  0.3982 -0.6356
  251MOL0     H33873   2.264   6.336   6.828 -1.5631 -0.2121  0.1643
  251MOL0     H33874   2.290   6.228   6.693  1.7876  2.0512 -1.6089
  251MOL0     H33875   2.506   6.306   6.909 -0.4801  0.6392 -0.4066
  251MOL0     H33876   2.493   6.385   6.751  1.5711 -0.5286 -1.0802
  251MOL0     H33877   2.538   6.096   6.707 -4.2099  0.4355  1.1067
  251MOL0     H33878   2.634   6.149   6.842  2.1229  0.7737 -0.5063
  251MOL0     H33879   2.727   6.169   6.587 -0.5561 -1.7278  0.6328
  251MOL0     H33880   2.611   6.301   6.562 -2.1732  0.7950  1.1639
  251MOL0     H33881   2.859   6.519   6.811  0.0412 -0.5359  1.0804
  251MOL0     H33882   2.083   6.237   6.717  2.5832 -1.7511  0.4333
  251MOL0     H33883   1.766   6.158   6.638  0.7200 -0.2717 -0.8767
  251MOL0     H33884   1.730   6.208   6.795  0.7699 -0.5940  0.2975
  251MOL0     H33885   1.858   6.303   6.690  1.8794 -1.6848 -2.2777
  252MOL0     O33886   5.938   2.890   5.246 -0.0381  0.0187  0.1097
  252MOL0     C33887   5.830   2.934   5.282  0.2419  0.1026 -0.6519
  252MOL0     O33888   5.700   2.877   5.248 -0.6000 -0.3611 -0.2002
  252MOL0     C33889   5.695   2.758   5.183 -0.1593  0.5078  0.8489
  252MOL0     C33890   5.766   2.724   5.067 -0.4632  0.6142 -0.9431
  252MOL0     C33891   5.748   2.595   5.008 -0.1452 -0.3703  0.2213
  252MOL0     C33892   5.659   2.510   5.050  0.2898  0.5124 -0.6872
  252MOL0     O33893   5.652   2.386   4.976  0.3980 -0.6313  0.9214
  252MOL0     C33894   5.523   2.325   4.968 -0.5675  0.2852  0.0369
  252MOL0     C33895   5.544   2.207   4.873  0.4543 -0.2493  0.3012
  252MOL0     C33896   5.455   2.093   4.915  0.4140 -0.1502  0.1589
  252MOL0     C33897   5.465   1.965   4.825  0.1034  0.1636  0.3853
  252MOL0     C33898   5.332   1.875   4.834  0.4822  0.2062  0.3150
  252MOL0     C33899   5.343   1.755   4.732 -0.0701  0.0811 -0.3182
  252MOL0     C33900   5.200   1.701   4.707  0.4196 -0.7171 -0.0344
  252MOL0     C33901   5.199   1.552   4.680 -0.3086 -0.2810  0.2312
  252MOL0     N33902   5.211   1.477   4.800 -0.7595  0.3149 -0.9265
  252MOL0     C33903   5.324   1.443   4.868 -0.5636  0.3869 -0.6987
  252MOL0     C33904   5.300   1.368   4.980 -0.3665  0.1958 -0.1144
  252MOL0     C33905   5.393   1.284   5.062 -0.6728 -0.0420  0.6370
  252MOL0     C33906   5.387   1.134   5.030 -0.0320  0.0145 -0.2821
  252MOL0     C33907   5.501   1.081   5.105  0.5915 -0.7042 -0.5545
  252MOL0     C33908   5.519   0.930   5.056 -0.3740 -0.3677  0.4297
  252MOL0     O33909   5.576   0.946   4.918 -0.2781 -0.0063 -0.3147
  252MOL0     C33910   5.698   0.893   4.896 -0.1208 -0.2695  0.5451
  252MOL0     C33911   5.714   0.839   4.770 -0.4617 -0.2078  0.5698
  252MOL0     C33912   5.842   0.815   4.722  0.9922  1.7312  0.0321
  252MOL0     C33913   5.960   0.835   4.791 -0.5836 -0.4298 -0.2554
  252MOL0     C33914   6.098   0.806   4.742  1.2570  0.6938 -0.2845
  252MOL0     O33915   6.105   0.788   4.605  0.3792  0.2357 -0.1049
  252MOL0     C33916   6.228   0.774   4.544 -0.1619 -0.2565 -0.7392
  252MOL0     C33917   6.239   0.828   4.418  0.3921  0.2088  0.2375
  252MOL0     C33918   6.358   0.825   4.349  0.2487  0.1375  0.8667
  252MOL0     C33919   6.468   0.766   4.393  0.7101  0.5494 -0.2247
  252MOL0     O33920   6.582   0.787   4.316  0.8562 -0.0337 -0.0978
  252MOL0     C33921   6.695   0.694   4.323  0.7628 -0.0425 -0.0923
  252MOL0     C33922   6.802   0.771   4.248  0.0033  0.2952 -0.0570
  252MOL0     C33923   6.896   0.677   4.170 -0.6805 -0.0083  0.1697
  252MOL0     C33924   7.012   0.746   4.096 -0.2671  0.2606 -0.4027
  252MOL0     C33925   7.085   0.654   3.997  0.2246 -0.4351  0.5860
  252MOL0     C33926   7.216   0.702   3.943 -0.3541  0.3395 -0.7169
  252MOL0     C33927   7.205   0.828   3.865  0.6538  0.8583 -0.9085
  252MOL0     C33928   7.335   0.875   3.807  0.5017 -0.3303 -0.4049
  252MOL0    Cl33929   7.473   0.881   3.918  0.2076 -0.3896 -0.0459
  252MOL0     C33930   6.463   0.709   4.524 -0.5435 -0.3729  0.1915
  252MOL0     C33931   6.343   0.716   4.597  0.8130  0.7847 -0.1990
  252MOL0     O33932   6.188   0.802   4.822  0.1900  0.3429 -0.9108
  252MOL0     C33933   5.941   0.886   4.922  0.1783 -0.7333 -0.2920
  252MOL0     C33934   5.808   0.918   4.975 -0.5741 -0.1069  0.6276
  252MOL0     N33935   5.163   1.356   4.973  0.8259  0.6552 -0.0015
  252MOL0     N33936   5.111   1.420   4.872  0.0641 -0.1298  0.4007
  252MOL0     C33937   5.575   2.546   5.164 -0.6685  0.3084  0.9719
  252MOL0     C33938   5.597   2.666   5.226  0.1108 -0.4359 -0.0163
  252MOL0     C33939   5.826   3.042   5.379 -0.7729 -0.0108 -0.3208
  252MOL0     C33940   5.729   3.037   5.479  0.5683 -0.0998 -0.3373
  252MOL0     C33941   5.698   3.148   5.558 -0.0399  0.5338 -0.5175
  252MOL0     C33942   5.781   3.267   5.541  0.4761 -0.2631  0.8218
  252MOL0     O33943   5.736   3.378   5.614 -0.0263  0.8848  0.3533
  252MOL0     C33944   5.803   3.502   5.587  0.6264 -0.7222  0.0038
  252MOL0     C33945   5.722   3.628   5.628 -0.1719 -0.5411 -0.9819
  252MOL0     C33946   5.684   3.628   5.774  0.0327 -0.6243 -0.4946
  252MOL0     C33947   5.617   3.753   5.828  1.2799 -0.5832  0.6148
  252MOL0     C33948   5.716   3.861   5.832 -0.0337 -1.1198  0.1900
  252MOL0     C33949   5.786   3.964   5.833  0.5140  0.0753  0.2003
  252MOL0     C33950   5.897   3.262   5.461  0.4591 -0.2077 -0.6020
  252MOL0     C33951   5.918   3.155   5.375  0.0698 -0.1493 -0.0615
  252MOL0     C33952   6.017   3.171   5.270  0.4234  0.6793  0.4732
  252MOL0     H33953   5.855   2.780   5.038 -0.1154 -0.3483 -1.8109
  252MOL0     H33954   5.802   2.554   4.923  0.8620  0.5711  0.3829
  252MOL0     H33955   5.505   2.281   5.067  0.3541 -0.0891  0.0500
  252MOL0     H33956   5.437   2.390   4.949 -0.7430 -0.1231 -0.5760
  252MOL0     H33957   5.649   2.179   4.858 -0.3918 -2.6533 -1.8441
  252MOL0     H33958   5.504   2.230   4.774 -0.9877  2.6668  1.4253
  252MOL0     H33959   5.351   2.128   4.912  0.9242  1.5802  1.1648
  252MOL0     H33960   5.475   2.062   5.018  1.4091 -1.9897 -0.5414
  252MOL0     H33961   5.491   1.994   4.723 -0.3184  1.6804  0.6780
  252MOL0     H33962   5.541   1.896   4.862 -0.1825  0.0868  0.8395
  252MOL0     H33963   5.296   1.844   4.932 -1.4254 -1.9713 -1.0029
  252MOL0     H33964   5.248   1.932   4.795  1.6001  0.2641 -2.2050
  252MOL0     H33965   5.382   1.787   4.635 -1.6617  0.6394 -0.8154
  252MOL0     H33966   5.414   1.689   4.782 -0.3503 -0.4194 -0.5732
  252MOL0     H33967   5.156   1.761   4.627 -0.1138  0.3694  1.0294
  252MOL0     H33968   5.138   1.712   4.797  1.0257  3.9377  0.0350
  252MOL0     H33969   5.108   1.524   4.626 -0.5544  1.2985 -0.2265
  252MOL0     H33970   5.275   1.521   4.608 -2.9310 -1.4055 -2.2655
  252MOL0     H33971   5.426   1.457   4.835 -0.4256 -0.3826 -0.6281
  252MOL0     H33972   5.496   1.320   5.053 -0.4646 -0.1173  2.2574
  252MOL0     H33973   5.373   1.299   5.169 -1.5112  0.3863  0.4288
  252MOL0     H33974   5.294   1.089   5.065  0.1372  0.5403  0.8919
  252MOL0     H33975   5.384   1.119   4.921 -4.2062  2.8399 -0.8045
  252MOL0     H33976   5.467   1.087   5.209  0.8175  3.5326 -0.5204
  252MOL0     H33977   5.597   1.125   5.078  0.9845 -1.0152  0.2992
  252MOL0     H33978   5.422   0.882   5.040 -0.1501 -0.5187 -0.5765
  252MOL0     H33979   5.591   0.878   5.120  2.4369  1.0522 -1.3491
  252MOL0     H33980   5.627   0.816   4.709 -0.4677 -1.3413  0.9814
  252MOL0     H33981   5.858   0.768   4.626 -1.9171  1.0700 -0.2074
  252MOL0     H33982   6.156   0.882   4.373  0.3094 -1.2049 -1.3579
  252MOL0     H33983   6.368   0.874   4.253  0.8529 -1.3906  0.1112
  252MOL0     H33984   6.732   0.669   4.423  3.0846  2.2997 -0.2722
  252MOL0     H33985   6.681   0.602   4.265  0.1253  1.2866 -2.1692
  252MOL0     H33986   6.749   0.839   4.181  0.3237  4.0071  3.0680
  252MOL0     H33987   6.864   0.833   4.314 -0.9450  0.7418  0.4374
  252MOL0     H33988   6.937   0.604   4.240 -0.0651  1.5682  1.5107
  252MOL0     H33989   6.843   0.624   4.090  0.1309  2.0879 -1.8772
  252MOL0     H33990   7.078   0.791   4.171  1.2322  2.3287 -2.8215
  252MOL0     H33991   6.974   0.824   4.030  0.2199  0.6188 -0.2655
  252MOL0     H33992   7.020   0.626   3.914  2.0223  1.9348 -1.7988
  252MOL0     H33993   7.100   0.557   4.045 -0.3523 -0.6353  0.3652
  252MOL0     H33994   7.277   0.720   4.032 -2.0990  1.5376  0.2926
  252MOL0     H33995   7.270   0.616   3.901  1.0005 -1.7632  4.4964
  252MOL0     H33996   7.161   0.907   3.926 -0.3948 -1.8378  2.0662
  252MOL0     H33997   7.133   0.806   3.785 -1.5884  0.3291  1.1446
  252MOL0     H33998   7.362   0.810   3.723  1.6146 -0.0700 -0.2617
  252MOL0     H33999   7.313   0.977   3.775 -2.0233 -0.4742  0.5932
  252MOL0     H34000   6.550   0.662   4.569 -0.3190  0.9699  1.2482
  252MOL0     H34001   6.334   0.676   4.697  1.1856  3.1829  0.8568
  252MOL0     H34002   6.030   0.909   4.981  0.1745  0.8119 -0.8528
  252MOL0     H34003   5.800   0.952   5.077  0.8300  0.0885  0.6925
  252MOL0     H34004   5.503   2.471   5.194 -2.5160  1.8753  0.5938
  252MOL0     H34005   5.541   2.692   5.315  0.6222 -0.3681  0.2924
  252MOL0     H34006   5.671   2.946   5.493  1.0303  0.0017  3.1205
  252MOL0     H34007   5.612   3.165   5.622  1.3928  5.2715  0.5251
  252MOL0     H34008   5.838   3.508   5.483  0.2884 -1.1586 -0.1392
  252MOL0     H34009   5.893   3.507   5.649  1.1416 -1.5483 -0.6578
  252MOL0     H34010   5.634   3.650   5.566 -0.0664 -0.1212 -0.9826
  252MOL0     H34011   5.798   3.707   5.619  1.0847 -1.7057 -0.9392
  252MOL0     H34012   5.780   3.614   5.824 -0.1628 -0.6561 -0.1244
  252MOL0     H34013   5.614   3.546   5.789 -3.1807  1.3018 -3.3157
  252MOL0     H34014   5.528   3.781   5.771 -0.3582 -0.4504  3.0677
  252MOL0     H34015   5.574   3.748   5.928 -0.0639 -2.3670 -0.0055
  252MOL0     H34016   5.856   4.046   5.833  2.0363 -1.1812  0.1071
  252MOL0     H34017   5.960   3.350   5.451  0.4328 -0.1286 -0.0846
  252MOL0     H34018   5.979   3.124   5.178 -4.0251  0.9673  1.9471
  252MOL0     H34019   6.022   3.279   5.252  0.5313  1.0287  2.4466
  252MOL0     H34020   6.116   3.139   5.304 -0.0184 -0.1159  1.0299
  253MOL0     O34021   6.824   4.977   9.693 -0.2193 -0.0546  0.5298
  253MOL0     C34022   6.774   4.921   9.793  0.4453  0.3134  1.2899
  253MOL0     O34023   6.665   4.970   9.860  0.0575  0.0308 -0.3208
  253MOL0     C34024   6.614   5.097   9.836  0.4643  0.2171 -0.0601
  253MOL0     C34025   6.584   5.170   9.953  0.5433  1.0470 -0.6627
  253MOL0     C34026   6.546   5.298   9.950  0.1575 -0.6419 -0.3901
  253MOL0     C34027   6.530   5.370   9.832 -0.5416 -0.5927  0.0156
  253MOL0     O34028   6.503   5.504   9.815  0.2093 -0.1015 -0.0649
  253MOL0     C34029   6.619   5.577   9.792 -0.8532  0.3665  0.2534
  253MOL0     C34030   6.576   5.715   9.737  0.0357 -1.3746  0.8843
  253MOL0     C34031   6.689   5.815   9.684 -0.1628 -0.0982  1.4962
  253MOL0     C34032   6.804   5.754   9.606  0.1078  0.1250 -0.3945
  253MOL0     C34033   6.916   5.841   9.571 -0.1654  0.9829  0.2370
  253MOL0     C34034   7.019   5.768   9.485 -0.3286  0.3027 -0.2348
  253MOL0     C34035   7.156   5.842   9.448 -0.3417 -0.3317  0.1369
  253MOL0     C34036   7.262   5.860   9.563  0.1027  0.4038 -0.2179
  253MOL0     N34037   7.403   5.875   9.517 -0.2492  1.0147 -0.0829
  253MOL0     C34038   7.498   5.781   9.482 -0.0285 -0.1945 -0.2343
  253MOL0     C34039   7.594   5.853   9.419  0.2285 -0.2587  0.4843
  253MOL0     C34040   7.714   5.782   9.355 -0.1221  0.9290  0.0017
  253MOL0     C34041   7.756   5.830   9.213 -0.7734 -0.3277 -0.3662
  253MOL0     C34042   7.890   5.759   9.175 -0.8993 -0.6402  0.2443
  253MOL0     C34043   7.930   5.795   9.025  0.0063 -0.1760  0.6343
  253MOL0     O34044   7.814   5.809   8.936 -0.4067 -0.3879  0.4362
  253MOL0     C34045   7.746   5.699   8.886  0.4050 -0.1654  0.5927
  253MOL0     C34046   7.609   5.734   8.865  1.2285  0.3266  0.1668
  253MOL0     C34047   7.522   5.638   8.805  0.8756  0.3268 -0.5426
  253MOL0     C34048   7.570   5.520   8.757 -0.1516  0.0368 -0.5873
  253MOL0     C34049   7.480   5.424   8.693  0.9550  0.3849 -0.2278
  253MOL0     O34050   7.529   5.320   8.620  1.0279  1.0160 -0.5541
  253MOL0     C34051   7.447   5.227   8.553  0.4471 -0.4523  0.4045
  253MOL0     C34052   7.354   5.268   8.462  0.0092  0.3928 -0.8390
  253MOL0     C34053   7.280   5.175   8.403  0.2716  0.3976  0.5517
  253MOL0     C34054   7.295   5.036   8.413  0.0848 -0.2814 -0.6097
  253MOL0     O34055   7.216   4.949   8.344  0.4068 -0.1231  0.3085
  253MOL0     C34056   7.233   4.935   8.203 -0.3689  0.2553  1.0297
  253MOL0     C34057   7.361   4.865   8.168  0.0881  0.3585  0.4589
  253MOL0     C34058   7.357   4.720   8.216  0.5259 -0.3526  0.1374
  253MOL0     C34059   7.492   4.652   8.225 -0.2417  0.3491  0.5657
  253MOL0     C34060   7.465   4.512   8.289  0.2118  0.7008  0.5414
  253MOL0     C34061   7.596   4.426   8.290 -0.4119 -0.4142 -0.2397
  253MOL0     C34062   7.664   4.450   8.428 -0.3569  0.0671 -0.0366
  253MOL0     C34063   7.778   4.351   8.457 -0.0796 -0.3764  0.5009
  253MOL0    Cl34064   7.699   4.216   8.543  0.5465  0.0530  0.1508
  253MOL0     C34065   7.393   4.997   8.505 -0.1696  0.1011  0.7595
  253MOL0     C34066   7.471   5.093   8.565 -0.1180 -0.6211 -0.5601
  253MOL0     O34067   7.360   5.463   8.693  0.3020 -0.2056 -0.0284
  253MOL0     C34068   7.703   5.492   8.772  0.2088  0.5590 -0.5501
  253MOL0     C34069   7.790   5.577   8.840 -0.1539 -0.5521 -0.1450
  253MOL0     N34070   7.559   5.988   9.405  0.8175  0.2207 -0.5420
  253MOL0     N34071   7.439   5.995   9.458 -0.3596  0.2658  0.4922
  253MOL0     C34072   6.545   5.287   9.707 -0.8661 -0.9924 -1.8672
  253MOL0     C34073   6.596   5.155   9.711  0.2827  0.4966  0.5446
  253MOL0     C34074   6.846   4.805   9.844  0.3520  1.4443 -0.0061
  253MOL0     C34075   6.835   4.789   9.987  0.3239  0.3265 -0.5214
  253MOL0     C34076   6.895   4.685  10.054 -0.6440  0.3864 -0.2577
  253MOL0     C34077   6.977   4.598   9.988 -1.2561  0.6617 -0.2236
  253MOL0     O34078   7.047   4.500  10.062 -0.1417  0.2409  0.6846
  253MOL0     C34079   6.981   4.407  10.151 -0.2345  0.0044 -0.1862
  253MOL0     C34080   6.900   4.305  10.068 -0.3734 -0.0164  0.6058
  253MOL0     C34081   6.983   4.239   9.950 -0.0560 -0.2567 -0.4485
  253MOL0     C34082   7.094   4.157  10.002 -0.2995  0.5233 -0.2297
  253MOL0     C34083   7.044   4.041  10.075  0.3039  0.1193  0.0673
  253MOL0     C34084   7.025   3.940  10.139  0.7914 -0.1488 -0.2348
  253MOL0     C34085   7.000   4.614   9.851  0.6140  0.1503  0.2594
  253MOL0     C34086   6.938   4.719   9.772  0.5534  1.8755 -0.0863
  253MOL0     C34087   6.949   4.732   9.621 -0.3538 -0.7307  0.0559
  253MOL0     H34088   6.590   5.128  10.053 -0.4452  0.0692 -0.9913
  253MOL0     H34089   6.531   5.356  10.041  0.9814  1.9125 -1.7694
  253MOL0     H34090   6.660   5.574   9.894 -1.8856 -4.0681  0.7411
  253MOL0     H34091   6.693   5.533   9.725  2.9183  3.1427  2.2065
  253MOL0     H34092   6.517   5.774   9.808 -1.1780  2.4244 -2.8568
  253MOL0     H34093   6.514   5.688   9.651 -0.1181 -3.8288  1.7010
  253MOL0     H34094   6.737   5.855   9.774  0.7893 -1.4097  1.6014
  253MOL0     H34095   6.650   5.892   9.618  1.1729 -2.6155 -2.5787
  253MOL0     H34096   6.844   5.671   9.665 -1.2589 -0.1512  0.1676
  253MOL0     H34097   6.760   5.719   9.512  1.2642 -2.2710 -0.1093
  253MOL0     H34098   6.892   5.925   9.506  0.5381  0.3483 -0.8735
  253MOL0     H34099   6.969   5.879   9.659  2.0912  0.7887 -0.9523
  253MOL0     H34100   7.045   5.675   9.535  0.1601  0.7155  0.2926
  253MOL0     H34101   6.971   5.741   9.391 -1.5872 -0.6199  0.6429
  253MOL0     H34102   7.142   5.932   9.388  1.6256 -0.9485 -1.3375
  253MOL0     H34103   7.200   5.772   9.377 -2.2882 -0.0210 -1.4371
  253MOL0     H34104   7.230   5.947   9.621  1.0611 -0.2248  1.3505
  253MOL0     H34105   7.257   5.771   9.627  2.2004 -1.1652 -2.0611
  253MOL0     H34106   7.482   5.677   9.505 -1.2219 -0.5092 -2.2314
  253MOL0     H34107   7.795   5.791   9.428  1.2733  2.7278 -1.6444
  253MOL0     H34108   7.680   5.678   9.352 -1.0046  1.1378  1.8474
  253MOL0     H34109   7.678   5.799   9.144  0.0918 -2.6682 -0.3783
  253MOL0     H34110   7.762   5.938   9.198  1.3086 -0.2823  0.3662
  253MOL0     H34111   7.901   5.650   9.180  0.3858 -0.5186  0.3571
  253MOL0     H34112   7.976   5.794   9.233 -0.5668 -0.0507 -0.5812
  253MOL0     H34113   8.008   5.729   8.985 -1.9082 -2.7944  0.9897
  253MOL0     H34114   7.976   5.894   9.032 -1.0605  0.4229 -0.4943
  253MOL0     H34115   7.569   5.827   8.905  1.0405 -0.1102  1.0037
  253MOL0     H34116   7.415   5.657   8.807  1.0322  1.4507  2.6025
  253MOL0     H34117   7.332   5.374   8.450  1.0607  0.8901  1.1191
  253MOL0     H34118   7.190   5.198   8.346  0.5974 -0.9768 -0.5885
  253MOL0     H34119   7.151   4.879   8.157 -0.5013 -0.3893  2.0245
  253MOL0     H34120   7.233   5.028   8.146  0.0480 -0.3936 -0.0557
  253MOL0     H34121   7.370   4.872   8.059 -1.3157  0.3403  0.3214
  253MOL0     H34122   7.453   4.914   8.201 -0.0804  0.1816  1.2104
  253MOL0     H34123   7.331   4.730   8.322  1.4654 -0.4237  0.3798
  253MOL0     H34124   7.281   4.665   8.160  1.7834 -1.0249 -0.9421
  253MOL0     H34125   7.565   4.707   8.284  1.8017  0.2798 -1.6899
  253MOL0     H34126   7.535   4.634   8.125 -1.5772 -0.7298  0.1540
  253MOL0     H34127   7.394   4.465   8.221  0.7935  0.3769  0.1564
  253MOL0     H34128   7.423   4.520   8.390 -1.1800  0.0915  0.0286
  253MOL0     H34129   7.568   4.321   8.277 -2.6247  0.3168 -1.9140
  253MOL0     H34130   7.660   4.456   8.207 -1.4992  1.0971 -0.5837
  253MOL0     H34131   7.591   4.439   8.509 -1.7434 -1.2685 -1.3935
  253MOL0     H34132   7.716   4.546   8.432 -1.9880  0.9711  0.9353
  253MOL0     H34133   7.835   4.323   8.367  1.4022 -0.4868  1.4446
  253MOL0     H34134   7.854   4.399   8.519 -0.6374  2.0605 -0.5705
  253MOL0     H34135   7.419   4.893   8.520  0.9041 -0.3840 -3.2823
  253MOL0     H34136   7.559   5.072   8.625  0.0101 -1.3866 -1.0129
  253MOL0     H34137   7.741   5.405   8.721  2.4170 -0.9980  3.2925
  253MOL0     H34138   7.898   5.570   8.840 -0.0411  0.3032 -2.4396
  253MOL0     H34139   6.555   5.343   9.614 -1.6427  0.0541 -1.3422
  253MOL0     H34140   6.621   5.105   9.617 -2.6376  2.2475 -1.3224
  253MOL0     H34141   6.778   4.857  10.050  1.3549  2.3905 -1.7140
  253MOL0     H34142   6.870   4.679  10.159  2.4489  1.3648  0.6403
  253MOL0     H34143   6.917   4.462  10.221 -0.3957  0.8841 -1.0013
  253MOL0     H34144   7.058   4.349  10.203  0.4108 -0.0397 -1.1617
  253MOL0     H34145   6.815   4.353  10.017 -0.6595  1.8365  2.6973
  253MOL0     H34146   6.870   4.229  10.141 -1.8676 -2.6644 -2.5000
  253MOL0     H34147   7.022   4.304   9.871 -0.8026 -2.0026 -2.3454
  253MOL0     H34148   6.919   4.164   9.904  0.5354 -1.2182  0.2459
  253MOL0     H34149   7.161   4.117   9.925  1.1407  1.8453  0.2871
  253MOL0     H34150   7.162   4.218  10.063 -1.2540  2.2019 -0.7900
  253MOL0     H34151   7.007   3.847  10.189 -0.4627  0.3443  0.2759
  253MOL0     H34152   7.067   4.543   9.803 -0.9328 -0.9811 -0.2865
  253MOL0     H34153   6.858   4.774   9.577  0.0915 -2.3799 -2.5986
  253MOL0     H34154   7.041   4.788   9.599  0.4611 -1.4851  1.3662
  253MOL0     H34155   6.955   4.631   9.580 -0.1768 -1.5638  1.9907
  254MOL0     O34156   8.110   5.658   2.224 -0.7609 -0.2093  0.3012
  254MOL0     C34157   7.999   5.667   2.272 -0.3438  0.2116  0.3274
  254MOL0     O34158   7.918   5.772   2.256 -0.8024  1.2802 -0.4724
  254MOL0     C34159   7.958   5.888   2.201 -0.1600  1.0532  0.3074
  254MOL0     C34160   7.907   5.922   2.077  0.7053 -0.9469  0.8670
  254MOL0     C34161   7.943   6.043   2.017  0.3377  0.6351  0.7984
  254MOL0     C34162   8.029   6.134   2.082  0.5149 -0.5265  0.1734
  254MOL0     O34163   8.054   6.258   2.024 -0.4519 -0.0172 -0.4187
  254MOL0     C34164   8.144   6.356   2.100 -0.2009  0.5110  0.8130
  254MOL0     C34165   8.155   6.483   2.009  0.0991 -0.0633 -0.4673
  254MOL0     C34166   8.066   6.604   2.062 -0.8243 -0.4974 -0.0682
  254MOL0     C34167   8.121   6.746   2.012  0.3376  0.3186  0.4476
  254MOL0     C34168   8.132   6.763   1.863 -0.5410  0.3957 -0.3811
  254MOL0     C34169   8.197   6.899   1.839 -0.5603 -0.9401  0.9660
  254MOL0     C34170   8.224   6.928   1.681  0.3381 -0.2593 -0.3085
  254MOL0     C34171   8.360   6.879   1.639 -0.2548 -0.9705 -0.1423
  254MOL0     N34172   8.363   6.895   1.491 -0.1103 -0.7156  0.7667
  254MOL0     C34173   8.359   7.013   1.427  0.0582 -0.2377  0.1128
  254MOL0     C34174   8.347   6.974   1.296  0.1885  0.0464  0.4206
  254MOL0     C34175   8.348   7.065   1.178  0.2196 -0.3927 -0.2419
  254MOL0     C34176   8.204   7.069   1.116 -0.1946  0.6274  0.6391
  254MOL0     C34177   8.192   6.968   0.997 -0.0483  1.0757 -0.7055
  254MOL0     C34178   8.263   7.015   0.866 -0.7321 -0.5880 -0.0217
  254MOL0     O34179   8.323   7.145   0.879  0.3282 -0.8851 -0.0723
  254MOL0     C34180   8.398   7.199   0.775 -0.7282  0.6973 -0.9108
  254MOL0     C34181   8.428   7.126   0.659 -0.2818  0.4566 -0.2988
  254MOL0     C34182   8.495   7.193   0.551  0.3905  0.5645 -0.3205
  254MOL0     C34183   8.542   7.329   0.577 -0.2201 -0.2544 -0.3613
  254MOL0     C34184   8.611   7.405   0.471  0.3314 -0.1091 -0.8383
  254MOL0     O34185   8.591   7.347   0.346 -0.3362 -0.0171 -0.3017
  254MOL0     C34186   8.656   7.417   0.241  0.2008  0.6700 -1.2050
  254MOL0     C34187   8.574   7.483   0.138 -0.2572  0.0893  0.4053
  254MOL0     C34188   8.644   7.567   0.050 -0.0051  0.3638 -0.0395
  254MOL0     C34189   8.785   7.577   0.048 -0.7310 -0.1837 -0.2855
  254MOL0     O34190   8.856   7.656  -0.046 -0.0989  0.6808 -0.0852
  254MOL0     C34191   8.806   7.777  -0.084  0.9702 -0.0129 -0.1618
  254MOL0     C34192   8.916   7.856  -0.153  0.6219  0.8737  0.0273
  254MOL0     C34193   8.845   7.966  -0.231  0.3796 -0.1709  0.8660
  254MOL0     C34194   8.787   8.085  -0.142 -0.8576  0.9156 -0.4746
  254MOL0     C34195   8.668   8.152  -0.211  0.0774 -0.2912  0.6087
  254MOL0     C34196   8.705   8.238  -0.341 -0.5630  0.6512  0.7004
  254MOL0     C34197   8.814   8.341  -0.313 -1.0116  0.4138  0.2390
  254MOL0     C34198   8.862   8.405  -0.454 -0.5209 -0.7692 -0.4533
  254MOL0    Cl34199   8.991   8.526  -0.430  0.3331 -0.3412 -0.0410
  254MOL0     C34200   8.858   7.509   0.151  0.8716 -0.0413  0.2957
  254MOL0     C34201   8.794   7.431   0.243 -0.4112 -0.8261 -0.9011
  254MOL0     O34202   8.668   7.509   0.494 -0.1228  0.3513  0.7967
  254MOL0     C34203   8.529   7.385   0.703  0.3201 -0.9840  0.4722
  254MOL0     C34204   8.455   7.323   0.793 -0.1823  0.5284 -0.7128
  254MOL0     N34205   8.339   6.830   1.284  0.5666  0.6411 -0.3303
  254MOL0     N34206   8.343   6.784   1.406 -0.4324  0.0658 -0.0941
  254MOL0     C34207   8.080   6.095   2.205  0.5215  0.1640 -0.3152
  254MOL0     C34208   8.047   5.972   2.264 -0.0588  0.1638  0.1653
  254MOL0     C34209   7.948   5.550   2.352  0.0117 -0.2818  0.0593
  254MOL0     C34210   7.805   5.539   2.356  0.3287  1.0528  0.6960
  254MOL0     C34211   7.750   5.420   2.413 -0.1687  0.1757  0.2121
  254MOL0     C34212   7.828   5.321   2.465 -0.2945  0.1971  0.1728
  254MOL0     O34213   7.783   5.211   2.526 -0.7578 -0.5221  0.1504
  254MOL0     C34214   7.650   5.183   2.571 -0.0327 -0.6055 -0.3779
  254MOL0     C34215   7.600   5.257   2.689 -0.6164 -0.3921  0.1935
  254MOL0     C34216   7.665   5.190   2.817  0.2990 -0.0877 -0.7202
  254MOL0     C34217   7.653   5.276   2.950 -0.2083 -0.3306  0.6606
  254MOL0     C34218   7.517   5.311   3.004 -0.5322 -0.4391  0.1043
  254MOL0     C34219   7.402   5.332   3.047  0.5330  0.3310  0.1577
  254MOL0     C34220   7.967   5.329   2.453  0.0934 -0.4203 -0.3952
  254MOL0     C34221   8.035   5.448   2.405 -0.2704 -0.3084  0.3829
  254MOL0     C34222   8.190   5.462   2.410 -0.6660  0.0480  0.6497
  254MOL0     H34223   7.825   5.871   2.027 -0.6978  0.9260  1.1358
  254MOL0     H34224   7.890   6.058   1.923  0.1244 -0.3279  0.7538
  254MOL0     H34225   8.110   6.396   2.195  1.0929  0.9710  1.1132
  254MOL0     H34226   8.241   6.308   2.113  0.0258  1.2970  2.2586
  254MOL0     H34227   8.115   6.452   1.912 -2.0787 -2.6929  1.0945
  254MOL0     H34228   8.262   6.502   2.004  0.1054  0.6558  1.5758
  254MOL0     H34229   8.065   6.608   2.172 -0.0873  1.0008 -0.0988
  254MOL0     H34230   7.963   6.592   2.029 -0.1606  0.7982 -2.9021
  254MOL0     H34231   8.061   6.825   2.059 -1.4838 -1.7134  1.7361
  254MOL0     H34232   8.219   6.758   2.059  1.1904 -0.1436 -1.1436
  254MOL0     H34233   8.178   6.676   1.814 -1.9062 -0.8007  0.3800
  254MOL0     H34234   8.031   6.758   1.821 -0.0694 -0.8874 -1.4055
  254MOL0     H34235   8.139   6.981   1.881  2.3375  1.6536  0.2943
  254MOL0     H34236   8.293   6.915   1.889  1.0652 -1.7218 -1.6685
  254MOL0     H34237   8.211   7.037   1.679  0.9942  0.0138  3.4674
  254MOL0     H34238   8.145   6.885   1.618 -1.3242  0.2829  1.3179
  254MOL0     H34239   8.442   6.938   1.682  1.0952 -3.2648  0.6171
  254MOL0     H34240   8.357   6.776   1.675 -2.2319 -0.7349  0.5265
  254MOL0     H34241   8.375   7.109   1.476  1.4511 -0.4414  0.0928
  254MOL0     H34242   8.373   7.165   1.213  1.7082 -1.0459  0.6309
  254MOL0     H34243   8.422   7.037   1.103  2.9447  2.9541  0.9672
  254MOL0     H34244   8.131   7.041   1.192  0.4000  0.4805  1.1700
  254MOL0     H34245   8.175   7.167   1.078  0.8729  1.7723  2.5876
  254MOL0     H34246   8.087   6.951   0.973 -0.2007  0.0935  0.5455
  254MOL0     H34247   8.228   6.869   1.026 -1.5396 -0.5939 -4.0087
  254MOL0     H34248   8.189   7.008   0.785 -0.2693 -1.9695 -0.3568
  254MOL0     H34249   8.350   6.952   0.843 -1.4154 -0.9416 -1.8240
  254MOL0     H34250   8.404   7.021   0.641  1.3866  0.1371 -0.8190
  254MOL0     H34251   8.523   7.139   0.461  2.2075 -0.0210  0.5638
  254MOL0     H34252   8.466   7.484   0.133 -0.2164 -0.6787 -1.5984
  254MOL0     H34253   8.582   7.620  -0.022  0.5737  0.5414 -0.4193
  254MOL0     H34254   8.720   7.763  -0.149  0.3202  1.8112  0.2300
  254MOL0     H34255   8.765   7.834   0.000  0.3056 -1.5794  0.6148
  254MOL0     H34256   8.984   7.898  -0.079 -0.2737  0.6721  0.9887
  254MOL0     H34257   8.971   7.790  -0.220  0.1786  1.0401 -0.5068
  254MOL0     H34258   8.922   8.001  -0.301 -0.0316 -0.7934  0.0743
  254MOL0     H34259   8.767   7.925  -0.297  2.1081  0.3505 -1.6286
  254MOL0     H34260   8.867   8.159  -0.126  0.4304 -0.4905 -0.2311
  254MOL0     H34261   8.763   8.056  -0.040  1.4366  0.8576  0.1175
  254MOL0     H34262   8.633   8.224  -0.136 -0.0536 -0.6283  0.8750
  254MOL0     H34263   8.595   8.071  -0.224  2.1381 -2.3590  1.2480
  254MOL0     H34264   8.735   8.162  -0.415 -2.9982  1.4086 -1.1734
  254MOL0     H34265   8.624   8.284  -0.397  2.0411  0.4139 -3.7109
  254MOL0     H34266   8.907   8.303  -0.269 -1.5149 -1.4583 -0.2256
  254MOL0     H34267   8.782   8.422  -0.246 -0.2727  0.0934  0.9974
  254MOL0     H34268   8.897   8.328  -0.524  2.8617  0.6051 -0.4756
  254MOL0     H34269   8.782   8.463  -0.500 -1.5796 -0.1394  2.0258
  254MOL0     H34270   8.962   7.539   0.167  0.9038 -0.4214  0.8361
  254MOL0     H34271   8.852   7.382   0.320  0.7091  2.2226  0.3544
  254MOL0     H34272   8.578   7.479   0.725  0.8854 -1.5615  1.7919
  254MOL0     H34273   8.433   7.368   0.890 -2.6002  2.2972 -1.9639
  254MOL0     H34274   8.138   6.157   2.273 -0.3175  0.3353  0.2711
  254MOL0     H34275   8.097   5.949   2.357  1.3727 -0.2575 -0.6786
  254MOL0     H34276   7.744   5.611   2.302  0.3103 -0.9056 -2.1377
  254MOL0     H34277   7.646   5.429   2.442  0.5676  0.9875  2.8717
  254MOL0     H34278   7.650   5.078   2.603  0.5053 -0.9531 -1.4698
  254MOL0     H34279   7.581   5.193   2.487 -1.4557 -1.0184  0.6936
  254MOL0     H34280   7.491   5.245   2.694 -0.7233  0.5955  0.6120
  254MOL0     H34281   7.622   5.364   2.686  1.1683 -0.7261  0.3832
  254MOL0     H34282   7.774   5.189   2.803  0.3615 -1.7824 -0.2551
  254MOL0     H34283   7.648   5.086   2.845  1.2499  0.2338  1.2531
  254MOL0     H34284   7.720   5.219   3.016  3.8695  1.0286 -1.9112
  254MOL0     H34285   7.703   5.373   2.936 -1.1856  0.0060 -0.7360
  254MOL0     H34286   7.307   5.337   3.096  0.8079  0.1804  0.7071
  254MOL0     H34287   8.029   5.251   2.495  0.4852  0.4220  0.6385
  254MOL0     H34288   8.239   5.426   2.319  0.6150 -4.2074  2.7774
  254MOL0     H34289   8.228   5.565   2.412  2.1706 -0.7879 -1.8007
  254MOL0     H34290   8.234   5.399   2.487 -0.7521 -0.5133  0.2462
  255MOL0     O34291   6.069   7.145   1.680  0.4451  0.1655  0.9803
  255MOL0     C34292   6.111   7.209   1.770  0.5858 -0.6114 -0.3841
  255MOL0     O34293   6.082   7.339   1.793  0.0588  0.3200  0.0722
  255MOL0     C34294   6.018   7.408   1.692 -0.1991  0.6443  1.2798
  255MOL0     C34295   6.063   7.417   1.557 -0.4289 -0.6303 -0.1656
  255MOL0     C34296   6.007   7.512   1.475  0.1133 -0.3787 -0.7431
  255MOL0     C34297   5.902   7.592   1.520  0.5577  0.1733  0.0977
  255MOL0     O34298   5.854   7.680   1.425 -0.2525  0.0394 -0.1316
  255MOL0     C34299   5.713   7.671   1.407  0.4926  0.3803  1.3712
  255MOL0     C34300   5.655   7.759   1.299  0.4407 -0.1216 -0.5021
  255MOL0     C34301   5.497   7.769   1.300 -0.2745 -0.6657 -0.0380
  255MOL0     C34302   5.458   7.861   1.191  0.7889  0.2106  0.3765
  255MOL0     C34303   5.306   7.875   1.165 -1.3035 -0.2640  0.2408
  255MOL0     C34304   5.305   7.961   1.037 -0.0913  0.0361  0.7620
  255MOL0     C34305   5.160   7.971   0.986 -0.1216  0.6584 -0.7807
  255MOL0     C34306   5.135   8.069   0.871  0.5806  0.5112 -0.1188
  255MOL0     N34307   5.145   8.213   0.900 -0.3389 -0.4324  0.0409
  255MOL0     C34308   5.053   8.280   0.977  0.5041 -0.1860 -0.2968
  255MOL0     C34309   5.090   8.409   0.967 -0.4139 -1.0018  0.0964
  255MOL0     C34310   5.039   8.534   1.026 -0.1528 -0.0483  0.3222
  255MOL0     C34311   5.051   8.511   1.179  0.3671 -0.0641  0.0570
  255MOL0     C34312   4.964   8.610   1.263 -0.2892  0.0212 -0.5777
  255MOL0     C34313   5.040   8.741   1.262 -0.7598 -0.6855  0.0387
  255MOL0     O34314   4.978   8.846   1.338 -0.0566 -0.2967 -0.2233
  255MOL0     C34315   5.043   8.967   1.358 -0.1698 -0.0928  0.4820
  255MOL0     C34316   4.982   9.052   1.447  0.1714 -0.1487  0.0938
  255MOL0     C34317   5.027   9.183   1.453  0.4321  0.0429  0.2589
  255MOL0     C34318   5.143   9.231   1.395 -0.5312  0.6201 -0.6602
  255MOL0     C34319   5.195   9.367   1.429  0.0381  0.5895 -1.0003
  255MOL0     O34320   5.273   9.435   1.334  0.7915 -0.3955  0.1085
  255MOL0     C34321   5.299   9.568   1.359  0.8139 -0.0782  0.9926
  255MOL0     C34322   5.279   9.646   1.248  0.0612  0.1419 -0.9580
  255MOL0     C34323   5.299   9.784   1.257 -0.0802  0.0898  0.7437
  255MOL0     C34324   5.347   9.850   1.370 -0.3792  0.5251 -0.3509
  255MOL0     O34325   5.352   9.988   1.375  0.4745  0.3918 -0.3197
  255MOL0     C34326   5.382  10.049   1.498 -0.4826  0.2827 -0.6658
  255MOL0     C34327   5.540  10.056   1.515 -0.5348 -0.0216  0.4359
  255MOL0     C34328   5.598  10.106   1.648  0.5252  0.0039 -0.2744
  255MOL0     C34329   5.737  10.063   1.663 -0.0757  0.1969  0.3164
  255MOL0     C34330   5.794  10.097   1.802 -0.4177  0.5205  0.6206
  255MOL0     C34331   5.815  10.242   1.836 -0.4849  0.0709  0.2332
  255MOL0     C34332   5.887  10.244   1.966 -0.4391 -0.1091  0.0927
  255MOL0     C34333   5.969  10.374   1.976  0.1278 -0.2641 -0.0352
  255MOL0    Cl34334   6.127  10.352   1.890  0.3313  0.1440 -0.0006
  255MOL0     C34335   5.370   9.757   1.475 -0.2571 -0.3179 -0.1717
  255MOL0     C34336   5.351   9.624   1.474 -0.0551  0.1778  0.6511
  255MOL0     O34337   5.151   9.424   1.530  0.0007  0.7453  0.0187
  255MOL0     C34338   5.203   9.140   1.299  0.5144 -1.3620 -1.0225
  255MOL0     C34339   5.152   9.010   1.281 -0.6676  0.0852  0.2181
  255MOL0     N34340   5.205   8.417   0.893  0.1327  0.8851  0.0284
  255MOL0     N34341   5.236   8.298   0.853  0.1953  0.0774 -0.0495
  255MOL0     C34342   5.858   7.586   1.653 -0.1849  0.6094 -0.8055
  255MOL0     C34343   5.916   7.491   1.742 -0.5246 -0.3715 -0.2600
  255MOL0     C34344   6.206   7.143   1.867 -0.6004  1.0427 -0.3336
  255MOL0     C34345   6.258   7.213   1.977 -0.4704  0.0851  0.0169
  255MOL0     C34346   6.343   7.159   2.075 -0.5079  0.0197  0.2551
  255MOL0     C34347   6.388   7.030   2.053  0.1353 -0.8923 -0.6030
  255MOL0     O34348   6.479   6.963   2.127  0.4584  0.4280 -0.5951
  255MOL0     C34349   6.569   7.037   2.210  0.0456 -1.0152  0.9468
  255MOL0     C34350   6.679   6.945   2.279 -0.4561  0.1222  0.1261
  255MOL0     C34351   6.768   7.023   2.363  0.7482  0.3234 -0.4693
  255MOL0     C34352   6.880   6.930   2.411  0.0663 -0.7649  0.0832
  255MOL0     C34353   6.838   6.837   2.508  0.4086  0.1868  0.7709
  255MOL0     C34354   6.795   6.760   2.586 -0.6023 -0.7462  0.1266
  255MOL0     C34355   6.343   6.953   1.949  0.2434 -0.2498  0.0160
  255MOL0     C34356   6.248   7.003   1.852  0.2930 -0.2430  1.2237
  255MOL0     C34357   6.198   6.912   1.733  0.6726  0.4757 -0.1261
  255MOL0     H34358   6.152   7.360   1.530 -1.1353 -2.2105  0.7461
  255MOL0     H34359   6.053   7.511   1.376  0.6367 -0.1602 -0.5032
  255MOL0     H34360   5.682   7.571   1.375 -0.3848  1.2634 -0.7659
  255MOL0     H34361   5.650   7.703   1.490 -1.7782  1.6572 -0.6886
  255MOL0     H34362   5.678   7.721   1.199 -0.9349 -0.0680 -0.8579
  255MOL0     H34363   5.701   7.858   1.299  1.0373 -0.3876  0.0575
  255MOL0     H34364   5.443   7.801   1.390 -1.8609  3.6534 -2.2402
  255MOL0     H34365   5.452   7.670   1.283 -0.7958 -0.6130  0.9421
  255MOL0     H34366   5.501   7.961   1.206 -2.8284  2.5145 -2.5925
  255MOL0     H34367   5.502   7.810   1.105 -2.3401 -0.3632 -1.0378
  255MOL0     H34368   5.285   7.770   1.144 -1.5506 -0.1263 -0.2273
  255MOL0     H34369   5.239   7.917   1.241 -1.6545 -0.5642  0.1013
  255MOL0     H34370   5.337   8.064   1.057  0.6191  0.7891 -3.2515
  255MOL0     H34371   5.365   7.912   0.959 -0.7758 -2.5747  1.7888
  255MOL0     H34372   5.095   8.003   1.068 -1.2134 -1.2614 -0.8393
  255MOL0     H34373   5.129   7.871   0.955  1.3523 -0.0745  0.0029
  255MOL0     H34374   5.194   8.031   0.787 -2.3332 -3.6120 -0.6203
  255MOL0     H34375   5.034   8.061   0.830  0.3949  0.0672  0.3966
  255MOL0     H34376   4.965   8.245   1.031  0.5408  1.3573  0.8616
  255MOL0     H34377   5.098   8.620   0.993 -2.0632  2.8619  3.7192
  255MOL0     H34378   4.936   8.560   1.001  0.4097  0.8395 -1.1524
  255MOL0     H34379   5.009   8.413   1.205  0.9696 -0.0298  1.2289
  255MOL0     H34380   5.157   8.518   1.204  0.9234  5.8560 -2.4960
  255MOL0     H34381   4.929   8.566   1.357 -1.4561 -1.1093 -1.5046
  255MOL0     H34382   4.867   8.638   1.220 -0.4898  3.3297  1.6962
  255MOL0     H34383   5.056   8.759   1.156  3.0351 -2.6767  0.0829
  255MOL0     H34384   5.133   8.718   1.314 -1.1204  0.3020  1.1850
  255MOL0     H34385   4.908   9.003   1.509 -0.2722  0.4702  0.0557
  255MOL0     H34386   4.975   9.237   1.531 -0.2275 -0.7073  0.3538
  255MOL0     H34387   5.223   9.595   1.171  0.7226 -1.4889 -0.3884
  255MOL0     H34388   5.265   9.838   1.169  2.2578  4.5484  2.2681
  255MOL0     H34389   5.335  10.148   1.492  2.0808  1.5490 -1.0900
  255MOL0     H34390   5.338   9.988   1.577  2.4388 -0.8369  0.2281
  255MOL0     H34391   5.576   9.954   1.500  0.3483  0.4609 -0.9870
  255MOL0     H34392   5.584  10.130   1.448  1.0229 -0.6504  0.7254
  255MOL0     H34393   5.594  10.216   1.647  0.9211  0.0207 -1.7768
  255MOL0     H34394   5.535  10.061   1.725 -1.4426 -2.1771 -2.9474
  255MOL0     H34395   5.804  10.097   1.585  0.6576 -0.7309  0.5231
  255MOL0     H34396   5.739   9.954   1.657 -4.5107  0.0183 -3.2236
  255MOL0     H34397   5.894  10.053   1.793 -0.0052  1.4383  0.5010
  255MOL0     H34398   5.735  10.046   1.878 -2.4359  1.8834  0.0403
  255MOL0     H34399   5.868  10.283   1.750 -0.0410 -3.4629 -1.3690
  255MOL0     H34400   5.726  10.304   1.840  2.4081  4.6653  0.4426
  255MOL0     H34401   5.943  10.152   1.979 -1.4759 -1.3570 -3.2046
  255MOL0     H34402   5.813  10.251   2.046  1.4351  3.4585  1.7340
  255MOL0     H34403   5.911  10.454   1.929 -1.1357 -1.7500 -1.1131
  255MOL0     H34404   5.979  10.396   2.083  0.5112 -0.8886  0.0605
  255MOL0     H34405   5.421   9.793   1.564  0.9298  1.3746 -1.4633
  255MOL0     H34406   5.350   9.556   1.558  0.5957 -0.1491  0.4059
  255MOL0     H34407   5.275   9.168   1.222 -0.4656  0.2897 -1.3881
  255MOL0     H34408   5.196   8.946   1.204 -1.9445 -2.1009  1.2108
  255MOL0     H34409   5.774   7.649   1.682 -0.1446  1.0463 -1.6043
  255MOL0     H34410   5.882   7.492   1.845 -1.6570 -3.0608 -0.5313
  255MOL0     H34411   6.211   7.310   1.989 -0.0751  0.5137 -1.7152
  255MOL0     H34412   6.390   7.208   2.160  3.0511 -2.5667  0.0146
  255MOL0     H34413   6.525   7.084   2.298  0.4415  0.1855  0.5262
  255MOL0     H34414   6.628   7.107   2.150 -0.6558 -1.3128 -0.1376
  255MOL0     H34415   6.738   6.894   2.202  5.5802  4.4593  1.1187
  255MOL0     H34416   6.630   6.864   2.333  1.8094 -2.0972 -0.9386
  255MOL0     H34417   6.722   7.072   2.450 -0.6737  0.9910 -1.5455
  255MOL0     H34418   6.805   7.111   2.308 -0.0638  0.7448 -0.3602
  255MOL0     H34419   6.909   6.875   2.322  1.0020 -1.2828  0.6994
  255MOL0     H34420   6.960   6.991   2.455 -2.5359  2.4724  0.8053
  255MOL0     H34421   6.758   6.689   2.658  1.1903 -1.3441  0.5239
  255MOL0     H34422   6.378   6.850   1.945  2.6779  0.2685  3.7152
  255MOL0     H34423   6.089   6.917   1.724  0.7393  0.1843 -1.1594
  255MOL0     H34424   6.252   6.941   1.643 -1.4684 -0.5517 -1.8231
  255MOL0     H34425   6.223   6.808   1.752  2.0657  0.7414 -0.4052
  256MOL0     O34426   6.533   3.595  10.831 -0.4872 -0.9915  0.1088
  256MOL0     C34427   6.617   3.687  10.860  0.5236  0.6748 -0.4397
  256MOL0     O34428   6.575   3.809  10.906  0.6031 -0.3106  0.2379
  256MOL0     C34429   6.445   3.827  10.904  0.8000  0.1324 -0.0352
  256MOL0     C34430   6.367   3.876  10.797 -0.2584  0.0710  0.0019
  256MOL0     C34431   6.226   3.872  10.809 -0.1047 -0.1150  0.5728
  256MOL0     C34432   6.154   3.826  10.922 -0.0612  0.9568  0.1499
  256MOL0     O34433   6.013   3.837  10.943  0.6511 -0.3089 -0.6978
  256MOL0     C34434   5.971   3.899  11.067  0.0709  0.0273  0.3252
  256MOL0     C34435   5.855   4.010  11.047 -0.6145  0.5819 -0.3285
  256MOL0     C34436   5.903   4.131  10.955 -0.4557  0.2782 -0.1106
  256MOL0     C34437   5.787   4.243  10.971 -0.1999  0.4273  0.1935
  256MOL0     C34438   5.809   4.354  10.866  0.2174  0.1595  0.2136
  256MOL0     C34439   5.748   4.315  10.730  0.0897  0.2859  0.6129
  256MOL0     C34440   5.596   4.327  10.739  0.4941 -0.2225 -0.0254
  256MOL0     C34441   5.533   4.381  10.610  0.2476 -0.6899  0.9398
  256MOL0     N34442   5.552   4.291  10.497  0.5780 -0.4352  0.1669
  256MOL0     C34443   5.661   4.303  10.427 -0.8368  0.1805  0.0828
  256MOL0     C34444   5.632   4.213  10.326  0.0796 -0.9016 -0.0743
  256MOL0     C34445   5.723   4.199  10.209 -0.2730  0.1717  0.2321
  256MOL0     C34446   5.872   4.218  10.241  0.4159  0.7173  0.6938
  256MOL0     C34447   5.923   4.102  10.324 -0.1720 -0.7656  0.3276
  256MOL0     C34448   6.070   4.073  10.280 -0.1633 -0.5156 -0.1428
  256MOL0     O34449   6.146   3.984  10.372 -0.2361 -0.3321  1.0107
  256MOL0     C34450   6.275   3.936  10.326  0.4516  0.1038 -1.1076
  256MOL0     C34451   6.344   3.968  10.210 -0.9000 -0.1038  0.3101
  256MOL0     C34452   6.467   3.913  10.181 -0.0107 -0.3351 -0.5095
  256MOL0     C34453   6.529   3.839  10.280 -1.1227  1.0720  0.0864
  256MOL0     C34454   6.670   3.787  10.258  0.1781 -1.0177  0.3537
  256MOL0     O34455   6.748   3.769  10.371 -0.1012  0.4950 -0.8828
  256MOL0     C34456   6.875   3.716  10.358 -0.6556 -0.4428  0.6421
  256MOL0     C34457   6.979   3.773  10.425 -0.4782 -0.3646  0.2274
  256MOL0     C34458   7.112   3.728  10.409  0.5931 -0.3010 -0.9721
  256MOL0     C34459   7.133   3.620  10.337  0.3631  0.0263 -0.1726
  256MOL0     O34460   7.247   3.545  10.335  0.1791 -0.0029  0.1683
  256MOL0     C34461   7.350   3.552  10.435 -0.9905 -0.6638  0.4509
  256MOL0     C34462   7.455   3.442  10.412  0.5743  0.4154 -0.0303
  256MOL0     C34463   7.516   3.462  10.270  0.1951  0.8086 -0.2405
  256MOL0     C34464   7.587   3.331  10.230 -0.4558 -0.4527  0.7079
  256MOL0     C34465   7.637   3.351  10.081 -0.0742 -0.5432 -0.5603
  256MOL0     C34466   7.713   3.250  10.009  0.0209  0.2171  0.0630
  256MOL0     C34467   7.641   3.120  10.007  0.6332  0.5115  0.2786
  256MOL0     C34468   7.724   3.020   9.929 -0.0351 -0.5697 -0.1316
  256MOL0    Cl34469   7.841   2.925  10.023 -0.0829  0.2063 -0.0804
  256MOL0     C34470   7.025   3.559  10.277 -0.6337 -0.3286 -0.2780
  256MOL0     C34471   6.892   3.598  10.291 -1.1691 -0.0793  1.0319
  256MOL0     O34472   6.708   3.780  10.140  0.5437 -0.5978  0.2560
  256MOL0     C34473   6.464   3.800  10.395  0.3923 -0.5661  0.4389
  256MOL0     C34474   6.336   3.840  10.405  0.2323 -0.4386  0.3184
  256MOL0     N34475   5.505   4.162  10.337  0.2207 -0.5205  0.0135
  256MOL0     N34476   5.452   4.211  10.445  0.3978 -0.1000 -0.3993
  256MOL0     C34477   6.235   3.766  11.021 -0.4070 -0.5025 -0.6832
  256MOL0     C34478   6.378   3.772  11.013  0.0193 -0.5223 -0.7964
  256MOL0     C34479   6.761   3.660  10.834 -0.0944  0.6368 -0.3378
  256MOL0     C34480   6.813   3.534  10.862  0.2845  0.6412  0.3996
  256MOL0     C34481   6.949   3.512  10.867  0.1647  0.2092  0.5411
  256MOL0     C34482   7.041   3.612  10.849 -0.2661 -0.3252 -0.2497
  256MOL0     O34483   7.174   3.566  10.856  0.3450  0.2973 -0.1320
  256MOL0     C34484   7.285   3.647  10.823  0.7110  0.4476  0.1419
  256MOL0     C34485   7.403   3.590  10.909  0.4222 -0.7570 -0.4075
  256MOL0     C34486   7.525   3.531  10.818  0.4553 -0.5568 -0.2235
  256MOL0     C34487   7.661   3.567  10.885 -0.3715 -1.1324  0.1762
  256MOL0     C34488   7.675   3.492  11.008  0.2070  0.5361  0.2057
  256MOL0     C34489   7.687   3.427  11.107  0.7056  0.8537 -0.0272
  256MOL0     C34490   7.000   3.742  10.821  1.3496 -0.6004 -0.2578
  256MOL0     C34491   6.859   3.773  10.808  0.4678 -0.3240 -0.0448
  256MOL0     C34492   6.817   3.916  10.775 -0.6194  0.7107 -0.6793
  256MOL0     H34493   6.405   3.924  10.708  0.1342 -1.4080 -0.6527
  256MOL0     H34494   6.157   3.919  10.740  1.4335  1.7675  0.2142
  256MOL0     H34495   5.939   3.823  11.139 -0.1063 -1.4151 -1.2056
  256MOL0     H34496   6.058   3.948  11.110 -0.6941  2.7222 -1.0040
  256MOL0     H34497   5.847   4.055  11.146 -0.1620 -0.9088  0.4142
  256MOL0     H34498   5.764   3.971  10.999  1.8191 -2.4781 -2.9554
  256MOL0     H34499   5.909   4.087  10.855 -0.9933 -1.0426  0.4143
  256MOL0     H34500   6.001   4.158  10.996  0.2677 -3.0710  0.6583
  256MOL0     H34501   5.688   4.197  10.974  0.3249 -0.9808 -2.0517
  256MOL0     H34502   5.808   4.287  11.068  2.5340 -0.5132  0.0960
  256MOL0     H34503   5.758   4.440  10.911  0.3988 -1.3029  3.4937
  256MOL0     H34504   5.914   4.380  10.848  0.2862 -0.3600 -0.1491
  256MOL0     H34505   5.771   4.390  10.654 -1.6060  0.1595 -0.0839
  256MOL0     H34506   5.781   4.215  10.702 -0.1171 -0.4198  2.7141
  256MOL0     H34507   5.573   4.385  10.829  2.1712  1.2902 -0.5073
  256MOL0     H34508   5.551   4.227  10.734 -0.3518  0.1761 -0.7425
  256MOL0     H34509   5.427   4.405  10.615  0.2349 -0.7770  1.0711
  256MOL0     H34510   5.587   4.471  10.580  0.5445 -1.5424 -1.3067
  256MOL0     H34511   5.755   4.351  10.447 -1.8242  2.3130 -0.1173
  256MOL0     H34512   5.704   4.102  10.162 -1.6812  0.0483  1.0133
  256MOL0     H34513   5.686   4.277  10.142 -3.6566 -1.5670 -0.1342
  256MOL0     H34514   5.936   4.220  10.153  0.0628  2.3702  0.4488
  256MOL0     H34515   5.886   4.317  10.285 -0.5348  1.4203 -0.5093
  256MOL0     H34516   5.863   4.011  10.327 -2.3310  0.5890  0.2677
  256MOL0     H34517   5.928   4.140  10.427  1.8467 -2.0102  0.7535
  256MOL0     H34518   6.123   4.168  10.270  0.1290 -0.6433  0.2056
  256MOL0     H34519   6.063   4.023  10.183 -0.5501 -0.3413 -0.2052
  256MOL0     H34520   6.310   4.045  10.141  0.5155 -1.3010 -1.8076
  256MOL0     H34521   6.525   3.935  10.092  0.3462 -0.0746 -0.2177
  256MOL0     H34522   6.968   3.861  10.487  0.9323 -1.6914  2.5130
  256MOL0     H34523   7.200   3.763  10.461 -0.9552 -0.4191  1.9082
  256MOL0     H34524   7.405   3.646  10.442 -1.8918 -0.1934  1.9151
  256MOL0     H34525   7.298   3.534  10.530  0.1478 -2.4667  0.7774
  256MOL0     H34526   7.530   3.448  10.491  0.5770  1.7046 -0.1048
  256MOL0     H34527   7.406   3.345  10.425  1.3700 -0.0600 -0.4864
  256MOL0     H34528   7.441   3.489  10.196 -0.8783  0.8074  0.8211
  256MOL0     H34529   7.589   3.543  10.273  2.0788 -0.8290  0.7811
  256MOL0     H34530   7.537   3.236  10.249 -0.7901 -0.2446  0.8630
  256MOL0     H34531   7.670   3.327  10.302  0.7342 -3.7482 -0.6737
  256MOL0     H34532   7.694   3.444  10.082 -3.4307  1.7255 -0.3460
  256MOL0     H34533   7.542   3.363  10.026 -0.7536  1.3231  0.9022
  256MOL0     H34534   7.729   3.288   9.908 -1.8677  0.9862  0.0115
  256MOL0     H34535   7.805   3.222  10.061 -1.1440  1.3353  2.9664
  256MOL0     H34536   7.541   3.140   9.968 -1.1720 -3.3698  2.2996
  256MOL0     H34537   7.635   3.082  10.109 -0.9186  1.7417  0.6841
  256MOL0     H34538   7.647   2.950   9.894 -1.3135  1.4564 -1.5481
  256MOL0     H34539   7.782   3.055   9.843  1.9103 -1.9772  0.5219
  256MOL0     H34540   7.050   3.463  10.233  1.7245 -0.4906  1.2256
  256MOL0     H34541   6.826   3.540  10.226 -0.9961 -0.5258  1.2482
  256MOL0     H34542   6.512   3.748  10.478 -3.6266  0.2145  3.6072
  256MOL0     H34543   6.284   3.822  10.499  0.7501  2.1889  1.1944
  256MOL0     H34544   6.187   3.714  11.104  2.1239  0.7445  1.7453
  256MOL0     H34545   6.431   3.724  11.095  1.5528  0.2944 -1.2716
  256MOL0     H34546   6.745   3.450  10.872  2.2424 -1.1904 -0.8080
  256MOL0     H34547   6.983   3.411  10.887  0.2958  0.2779  0.6713
  256MOL0     H34548   7.272   3.749  10.859  0.3649  0.5812 -0.3552
  256MOL0     H34549   7.288   3.654  10.714 -2.3614 -0.0176 -0.0529
  256MOL0     H34550   7.376   3.517  10.986  1.7651  0.2958  1.1300
  256MOL0     H34551   7.435   3.674  10.971 -0.8557  0.7059 -1.6465
  256MOL0     H34552   7.521   3.581  10.721  0.8874  1.3648  0.7087
  256MOL0     H34553   7.523   3.422  10.810 -1.6125 -0.5016 -1.1131
  256MOL0     H34554   7.731   3.528  10.810  1.9429  1.0248  1.0677
  256MOL0     H34555   7.674   3.675  10.900  3.0320 -1.6672  2.2878
  256MOL0     H34556   7.705   3.371  11.196  1.4115  2.0053  0.5828
  256MOL0     H34557   7.086   3.807  10.803  0.6317  0.7524  0.9711
  256MOL0     H34558   6.803   3.971  10.868 -2.0784 -0.4697 -0.1452
  256MOL0     H34559   6.896   3.960  10.713  0.7487 -2.3989 -1.3283
  256MOL0     H34560   6.720   3.931  10.725 -1.0388 -2.0990 -0.9113
  257MOL0     O34561   6.623   4.118   2.278  0.7295 -1.2062 -0.2331
  257MOL0     C34562   6.520   4.188   2.300 -0.8355 -1.2090  0.6036
  257MOL0     O34563   6.507   4.319   2.241 -0.4934  0.5203  0.2736
  257MOL0     C34564   6.608   4.387   2.182 -0.6555  1.4639 -0.9438
  257MOL0     C34565   6.588   4.460   2.071  0.5493  0.8422  0.1968
  257MOL0     C34566   6.682   4.544   2.015 -0.8624  0.4365 -0.8373
  257MOL0     C34567   6.811   4.557   2.076 -0.0733  0.8729 -0.3931
  257MOL0     O34568   6.912   4.639   2.028 -0.4216  0.7129  0.6903
  257MOL0     C34569   6.879   4.752   1.940 -0.2867  0.3124 -1.0003
  257MOL0     C34570   6.816   4.870   2.016  0.1160  0.9263  0.0747
  257MOL0     C34571   6.904   4.990   2.037  0.2743 -1.3097  0.1303
  257MOL0     C34572   6.856   5.094   2.132 -0.1179  0.0058 -0.9605
  257MOL0     C34573   6.720   5.157   2.095 -0.1159  0.6944  0.1367
  257MOL0     C34574   6.668   5.243   2.207 -0.0060 -0.0934 -0.4008
  257MOL0     C34575   6.752   5.372   2.225  0.4570  0.2810 -0.3493
  257MOL0     C34576   6.670   5.469   2.320  0.3036  0.0124 -0.2208
  257MOL0     N34577   6.756   5.581   2.376 -0.6106 -0.4516  0.3017
  257MOL0     C34578   6.865   5.623   2.312  0.1092 -0.2054 -1.1618
  257MOL0     C34579   6.941   5.685   2.411  0.5646  0.0105  0.0442
  257MOL0     C34580   7.081   5.736   2.400  1.2375 -0.1753 -0.6205
  257MOL0     C34581   7.132   5.758   2.263 -0.0684  0.2745  0.3268
  257MOL0     C34582   7.263   5.838   2.253  0.3422 -0.5120 -0.4213
  257MOL0     C34583   7.261   5.976   2.305 -0.0457  0.0490 -0.0630
  257MOL0     O34584   7.399   6.015   2.291  0.1241  0.1979  0.3469
  257MOL0     C34585   7.423   6.150   2.295 -0.2550 -0.0913 -0.4069
  257MOL0     C34586   7.330   6.248   2.333  0.5653 -0.2260 -0.1986
  257MOL0     C34587   7.361   6.378   2.312  1.2689 -0.6985  0.4658
  257MOL0     C34588   7.488   6.419   2.277 -0.5707 -0.6318  0.0393
  257MOL0     C34589   7.523   6.562   2.264  0.7898  0.4839 -1.4586
  257MOL0     O34590   7.659   6.582   2.251 -0.0184  0.0141 -0.2557
  257MOL0     C34591   7.713   6.705   2.259  1.0378 -0.4054  0.2044
  257MOL0     C34592   7.827   6.739   2.336 -0.6536  0.1122  0.4877
  257MOL0     C34593   7.891   6.864   2.322  0.0702 -0.5524 -0.3962
  257MOL0     C34594   7.841   6.971   2.244 -0.1170  0.2857  0.3694
  257MOL0     O34595   7.891   7.094   2.235  0.0027 -0.1477 -0.6131
  257MOL0     C34596   7.829   7.196   2.143 -1.1002  0.1693 -0.5923
  257MOL0     C34597   7.915   7.319   2.134  0.4645 -0.7503 -0.5529
  257MOL0     C34598   8.064   7.312   2.116 -0.5395  0.1028 -0.9143
  257MOL0     C34599   8.103   7.284   1.979 -0.1722  1.1608  0.4324
  257MOL0     C34600   8.261   7.278   1.980  0.0041  0.0852 -0.6416
  257MOL0     C34601   8.330   7.282   1.848  0.3278  0.1773 -0.7467
  257MOL0     C34602   8.486   7.307   1.840 -0.3958 -0.1420  0.0329
  257MOL0     C34603   8.572   7.187   1.806  0.6983 -0.1991  0.1029
  257MOL0    Cl34604   8.569   7.052   1.932 -0.1810  0.2072 -0.0857
  257MOL0     C34605   7.738   6.935   2.160 -0.0578  0.0590 -0.3056
  257MOL0     C34606   7.674   6.807   2.172  0.5004  0.3218 -0.1654
  257MOL0     O34607   7.432   6.645   2.283 -0.3079 -0.2358 -0.2430
  257MOL0     C34608   7.590   6.327   2.252 -0.5940  0.4547 -0.0672
  257MOL0     C34609   7.547   6.190   2.250 -0.0733  0.1206  0.1158
  257MOL0     N34610   6.846   5.698   2.514 -1.3812  0.0801 -1.2326
  257MOL0     N34611   6.737   5.635   2.490  0.0848  1.5322  0.1435
  257MOL0     C34612   6.840   4.477   2.180  0.1611 -0.0007  0.4537
  257MOL0     C34613   6.739   4.393   2.234  0.3242  0.6032  0.2151
  257MOL0     C34614   6.401   4.123   2.348 -0.2288 -0.3200 -0.4647
  257MOL0     C34615   6.407   4.043   2.457  0.1765  0.3292 -0.5488
  257MOL0     C34616   6.287   4.013   2.534  0.1165 -0.1690  0.3472
  257MOL0     C34617   6.159   4.057   2.491 -0.0572 -1.0525 -0.0182
  257MOL0     O34618   6.035   4.049   2.554 -0.2948  0.2644 -0.4482
  257MOL0     C34619   6.043   4.014   2.695  1.2240 -0.2613  0.6810
  257MOL0     C34620   5.903   4.055   2.745  1.0648 -0.4975  0.2936
  257MOL0     C34621   5.796   3.965   2.696  0.4593  0.1497 -0.0481
  257MOL0     C34622   5.830   3.817   2.719  0.5301 -0.3338 -0.7850
  257MOL0     C34623   5.713   3.735   2.679  0.2764  0.0807  0.3035
  257MOL0     C34624   5.609   3.679   2.649  0.0453 -0.3448  0.5218
  257MOL0     C34625   6.161   4.117   2.368  0.3287 -0.7333 -0.1515
  257MOL0     C34626   6.272   4.151   2.292 -0.5092 -0.9776 -0.1689
  257MOL0     C34627   6.240   4.205   2.157  0.6713 -0.4883  0.7529
  257MOL0     H34628   6.498   4.445   2.012  0.0943  1.5823  0.6904
  257MOL0     H34629   6.669   4.580   1.913 -1.5376 -2.3306 -1.8370
  257MOL0     H34630   6.970   4.778   1.885  0.5527 -1.6481 -0.6175
  257MOL0     H34631   6.810   4.718   1.862  0.7981 -2.7162 -0.7497
  257MOL0     H34632   6.802   4.830   2.117  1.1161 -1.7150 -0.7642
  257MOL0     H34633   6.718   4.895   1.975 -0.0534  2.2984  1.2293
  257MOL0     H34634   6.921   5.025   1.935  2.9006  0.2286  0.9923
  257MOL0     H34635   7.003   4.959   2.072  0.4648 -1.7594 -0.7801
  257MOL0     H34636   6.860   5.041   2.228  0.2063  0.3963 -0.7577
  257MOL0     H34637   6.933   5.171   2.140  1.8041 -1.6075 -2.7348
  257MOL0     H34638   6.723   5.224   2.009  1.4750  0.5765  0.0652
  257MOL0     H34639   6.650   5.080   2.062  0.6820 -0.4470  1.0028
  257MOL0     H34640   6.567   5.267   2.174 -0.3849 -0.6646  0.3267
  257MOL0     H34641   6.664   5.178   2.295  0.0524 -0.0927 -0.3971
  257MOL0     H34642   6.770   5.425   2.132  0.4688  3.4121  1.3134
  257MOL0     H34643   6.851   5.361   2.271  0.5494  0.7537 -0.4315
  257MOL0     H34644   6.576   5.504   2.278 -1.2672 -2.4547  0.9557
  257MOL0     H34645   6.643   5.414   2.411 -0.8311 -0.8181 -1.0198
  257MOL0     H34646   6.914   5.584   2.223  0.0848  1.9813 -2.2236
  257MOL0     H34647   7.086   5.824   2.464 -1.0484  1.5113 -2.5716
  257MOL0     H34648   7.136   5.657   2.452 -3.1906 -1.7843  2.0951
  257MOL0     H34649   7.146   5.662   2.213  0.6563  0.1372  0.7753
  257MOL0     H34650   7.061   5.819   2.206  1.8475  0.2674 -2.2528
  257MOL0     H34651   7.287   5.839   2.146  0.4013 -0.9012 -0.4142
  257MOL0     H34652   7.341   5.784   2.307  0.4632  0.8436  0.8180
  257MOL0     H34653   7.238   5.986   2.411  3.4058 -2.2816  1.0781
  257MOL0     H34654   7.184   6.036   2.255 -0.8848 -0.4852  0.5537
  257MOL0     H34655   7.235   6.224   2.380 -1.3480  2.3262 -2.4184
  257MOL0     H34656   7.282   6.448   2.340  1.7293  0.0859 -0.1649
  257MOL0     H34657   7.864   6.668   2.409  3.0629  2.5107  1.1740
  257MOL0     H34658   7.985   6.879   2.374  0.5801  1.4064 -1.7846
  257MOL0     H34659   7.821   7.146   2.045 -0.2728 -2.1992  0.4722
  257MOL0     H34660   7.730   7.219   2.182  0.1058  2.0952  1.5606
  257MOL0     H34661   7.879   7.378   2.049 -2.4618  1.4049  1.9689
  257MOL0     H34662   7.882   7.364   2.228 -1.5325 -1.4071 -0.8895
  257MOL0     H34663   8.101   7.411   2.145  0.2405  0.7268 -3.7621
  257MOL0     H34664   8.114   7.244   2.185 -2.3934  0.8383  1.2784
  257MOL0     H34665   8.061   7.366   1.919 -1.3396 -0.6999 -1.4376
  257MOL0     H34666   8.064   7.191   1.936 -3.1884  4.0747 -4.0438
  257MOL0     H34667   8.299   7.187   2.027  0.1876  0.3087 -0.3523
  257MOL0     H34668   8.295   7.364   2.039 -0.1317 -1.0485  1.1764
  257MOL0     H34669   8.304   7.185   1.804  0.8462 -0.8010  0.9862
  257MOL0     H34670   8.280   7.358   1.788 -2.4971  0.9166  2.2191
  257MOL0     H34671   8.517   7.356   1.933 -1.8525 -1.6326  1.3720
  257MOL0     H34672   8.507   7.387   1.769 -0.7981 -0.7190 -0.7571
  257MOL0     H34673   8.534   7.147   1.711  0.4998  1.5728 -0.5987
  257MOL0     H34674   8.673   7.225   1.786  0.8323 -0.5283  0.1359
  257MOL0     H34675   7.693   7.003   2.089  1.0563  0.6795 -0.4454
  257MOL0     H34676   7.598   6.781   2.099  0.2579  1.1083 -0.2105
  257MOL0     H34677   7.693   6.358   2.238 -0.6062 -0.3487 -2.3313
  257MOL0     H34678   7.623   6.113   2.237  0.2808 -0.8102  5.3997
  257MOL0     H34679   6.940   4.477   2.223  0.2939 -4.4908  0.6030
  257MOL0     H34680   6.755   4.340   2.328 -1.2727 -1.8754 -0.8116
  257MOL0     H34681   6.498   4.018   2.510 -0.7269  1.1605  1.5200
  257MOL0     H34682   6.312   3.964   2.628 -4.0881  1.8032  2.7806
  257MOL0     H34683   6.103   4.088   2.749 -1.3989  2.6108  0.0002
  257MOL0     H34684   6.069   3.911   2.719 -0.6721 -0.4469  2.2470
  257MOL0     H34685   5.891   4.163   2.729 -0.5886 -0.4285  1.7101
  257MOL0     H34686   5.904   4.059   2.854  2.1783  1.3591  0.2526
  257MOL0     H34687   5.769   3.980   2.591  0.9583  4.3769  0.2608
  257MOL0     H34688   5.712   3.995   2.759 -0.3125 -0.3139 -0.8289
  257MOL0     H34689   5.915   3.769   2.670  1.1245  0.1539 -0.2432
  257MOL0     H34690   5.833   3.792   2.826  1.9875 -3.1221 -1.3644
  257MOL0     H34691   5.521   3.641   2.600 -0.1578  1.8618 -0.9539
  257MOL0     H34692   6.069   4.146   2.318  0.8016  1.1366  0.0135
  257MOL0     H34693   6.195   4.304   2.171  4.1926  0.9591  3.1780
  257MOL0     H34694   6.325   4.229   2.093  0.6724  3.0234  1.8453
  257MOL0     H34695   6.173   4.135   2.106 -0.1833  0.2775  0.7865
  258MOL0     O34696   4.775  10.294   4.043 -0.6727  0.1640 -0.0637
  258MOL0     C34697   4.806  10.404   4.092 -0.3924  0.0697 -0.5660
  258MOL0     O34698   4.766  10.441   4.210 -0.5822 -0.3835  0.4156
  258MOL0     C34699   4.653  10.395   4.257 -0.3907  0.0691  0.2657
  258MOL0     C34700   4.659  10.274   4.321 -0.4848  0.1786  0.4723
  258MOL0     C34701   4.553  10.256   4.410 -0.1608  0.0122 -0.7725
  258MOL0     C34702   4.448  10.341   4.428 -0.2596  0.5515  0.1287
  258MOL0     O34703   4.341  10.315   4.515 -0.1128 -1.2070  0.1636
  258MOL0     C34704   4.276  10.192   4.495 -0.6949  0.2688  0.3659
  258MOL0     C34705   4.161  10.191   4.594  0.1361 -0.4842 -0.1415
  258MOL0     C34706   4.185  10.255   4.734 -0.0610  0.8433  0.2747
  258MOL0     C34707   4.059  10.265   4.806 -0.0972 -0.5016 -0.2173
  258MOL0     C34708   3.934  10.340   4.754  0.2769 -0.6416  0.0073
  258MOL0     C34709   3.826  10.322   4.859  0.3830  0.0564  0.0993
  258MOL0     C34710   3.682  10.332   4.811  0.6128  0.3538 -0.2333
  258MOL0     C34711   3.624  10.192   4.786 -0.2340 -0.0400  0.8096
  258MOL0     N34712   3.700  10.105   4.681 -0.1388 -0.1998  0.1071
  258MOL0     C34713   3.718  10.141   4.547 -0.2063  0.3961  0.7311
  258MOL0     C34714   3.793  10.034   4.495  0.5191  0.2185 -0.6014
  258MOL0     C34715   3.815  10.000   4.353 -0.3044 -0.5261 -0.4673
  258MOL0     C34716   3.962  10.022   4.312  0.0107  0.1699 -0.2109
  258MOL0     C34717   3.988   9.984   4.167  0.5288 -0.2465  0.7689
  258MOL0     C34718   4.122   9.909   4.171  0.3401 -0.1263  0.0575
  258MOL0     O34719   4.234   9.992   4.220  0.0357  0.2739  0.2341
  258MOL0     C34720   4.358   9.931   4.211  1.1438  0.2901 -0.3009
  258MOL0     C34721   4.382   9.793   4.213 -0.1582 -0.3809  0.2099
  258MOL0     C34722   4.516   9.745   4.206 -0.1565  0.9840 -0.9074
  258MOL0     C34723   4.625   9.829   4.182  0.7970  0.7672 -0.4851
  258MOL0     C34724   4.762   9.774   4.165 -1.2715 -0.0056 -0.3546
  258MOL0     O34725   4.867   9.864   4.160 -0.6415  0.6592  0.2567
  258MOL0     C34726   4.995   9.797   4.173 -0.2734  0.2602  0.0283
  258MOL0     C34727   5.029   9.701   4.266  1.2207  0.4479 -1.0484
  258MOL0     C34728   5.147   9.627   4.260 -0.3795  0.3614 -0.2813
  258MOL0     C34729   5.245   9.667   4.161 -0.5122 -0.6053 -0.2467
  258MOL0     O34730   5.363   9.606   4.136  0.0625  0.5577  0.1903
  258MOL0     C34731   5.410   9.495   4.212  0.1106 -0.3413  0.9775
  258MOL0     C34732   5.539   9.447   4.142  1.0241  0.1857  0.7470
  258MOL0     C34733   5.584   9.309   4.192  1.2768  0.5262 -0.2401
  258MOL0     C34734   5.651   9.339   4.330  0.0986 -0.4272 -0.2695
  258MOL0     C34735   5.699   9.204   4.375 -0.4471  0.4983 -0.4230
  258MOL0     C34736   5.801   9.210   4.477 -0.1783 -0.9587  0.5564
  258MOL0     C34737   5.949   9.254   4.436 -0.0213 -0.0880  0.6634
  258MOL0     C34738   6.055   9.204   4.542  0.0008 -0.2849 -0.6419
  258MOL0    Cl34739   6.195   9.289   4.495 -0.3939 -0.0233  0.3138
  258MOL0     C34740   5.213   9.771   4.079  0.0822  0.3613  0.4116
  258MOL0     C34741   5.092   9.837   4.079 -0.3017  0.2589 -0.5365
  258MOL0     O34742   4.773   9.654   4.149  0.3386 -0.3499  0.4140
  258MOL0     C34743   4.595   9.967   4.179 -0.4661 -0.1308  0.1143
  258MOL0     C34744   4.463  10.013   4.196 -0.8896 -0.5107 -0.3048
  258MOL0     N34745   3.813   9.940   4.600  0.7491  0.3668  0.1598
  258MOL0     N34746   3.759   9.987   4.702 -0.9491 -0.4551  0.5334
  258MOL0     C34747   4.447  10.457   4.351  0.1956  1.0197 -0.0909
  258MOL0     C34748   4.545  10.483   4.263  0.1154 -0.5088  0.9997
  258MOL0     C34749   4.913  10.486   4.026  0.2961  0.3236  0.0291
  258MOL0     C34750   4.964  10.432   3.912 -0.9918 -0.6750 -0.3318
  258MOL0     C34751   5.053  10.510   3.834  0.0041 -0.2277  0.7796
  258MOL0     C34752   5.106  10.635   3.877 -0.2729 -0.2713 -1.3046
  258MOL0     O34753   5.199  10.711   3.805  0.1895 -0.2214 -0.8219
  258MOL0     C34754   5.269  10.653   3.690 -0.3379  0.5602 -0.1089
  258MOL0     C34755   5.193  10.666   3.558 -0.2394 -0.8033  0.0292
  258MOL0     C34756   5.271  10.599   3.445  0.8381  0.2600  0.4290
  258MOL0     C34757   5.225  10.662   3.316 -0.2064 -1.1270  0.0608
  258MOL0     C34758   5.082  10.637   3.297  0.3079  0.1412 -0.2551
  258MOL0     C34759   4.974  10.597   3.289 -0.2131 -0.2294 -0.7918
  258MOL0     C34760   5.065  10.683   4.003 -0.3198 -0.3675  0.2141
  258MOL0     C34761   4.961  10.616   4.075 -0.0746 -0.4340  0.0902
  258MOL0     C34762   4.912  10.682   4.198  0.5818 -0.2424 -0.9375
  258MOL0     H34763   4.747  10.210   4.323 -0.8409 -0.3080  0.8123
  258MOL0     H34764   4.558  10.161   4.463 -0.0355 -0.6871 -2.0101
  258MOL0     H34765   4.246  10.182   4.390  3.1785 -0.8069 -0.8072
  258MOL0     H34766   4.338  10.106   4.520 -1.4834 -0.6381 -0.7130
  258MOL0     H34767   4.129  10.089   4.615 -3.8707  0.9900  1.9519
  258MOL0     H34768   4.082  10.244   4.541 -0.2658 -0.8609  0.0783
  258MOL0     H34769   4.234  10.353   4.738  2.8220 -0.5464  2.4476
  258MOL0     H34770   4.254  10.194   4.794  2.0617 -1.5190 -4.0950
  258MOL0     H34771   4.028  10.161   4.823 -2.8402  0.2887  0.0992
  258MOL0     H34772   4.073  10.312   4.904 -0.5161 -1.0264  0.0958
  258MOL0     H34773   3.952  10.445   4.729  0.2627 -1.0015 -1.6519
  258MOL0     H34774   3.893  10.290   4.666  2.3296 -2.3664 -0.0654
  258MOL0     H34775   3.839  10.228   4.913 -0.6909 -0.9416 -1.3064
  258MOL0     H34776   3.835  10.394   4.942  1.3705  0.1368 -0.0632
  258MOL0     H34777   3.678  10.387   4.716 -0.2493 -0.9681 -0.9975
  258MOL0     H34778   3.618  10.380   4.885  1.4095  2.1129 -0.6501
  258MOL0     H34779   3.613  10.143   4.883 -6.0697 -0.9735  0.0260
  258MOL0     H34780   3.519  10.199   4.757  0.1022  1.8007 -0.1597
  258MOL0     H34781   3.672  10.219   4.488 -0.0131  0.9576  1.3087
  258MOL0     H34782   3.797   9.894   4.336  1.8996 -0.8538 -1.0322
  258MOL0     H34783   3.751  10.054   4.282 -1.3972  0.0388  0.8738
  258MOL0     H34784   3.993  10.125   4.333 -1.0462  0.0436  2.2574
  258MOL0     H34785   4.014   9.952   4.378 -2.5415 -1.0872  0.5806
  258MOL0     H34786   4.008  10.073   4.106 -1.6019 -1.0659 -1.2598
  258MOL0     H34787   3.903   9.935   4.118  0.3169  0.1329  0.7525
  258MOL0     H34788   4.150   9.876   4.070 -0.0041  0.7110 -0.3178
  258MOL0     H34789   4.094   9.817   4.223 -0.5931 -0.4662 -0.9988
  258MOL0     H34790   4.300   9.724   4.228 -0.2465 -0.1107  1.0305
  258MOL0     H34791   4.530   9.638   4.222 -1.2103  0.7498 -1.4453
  258MOL0     H34792   4.965   9.673   4.350  1.3097  0.8762 -0.8350
  258MOL0     H34793   5.175   9.546   4.327 -2.6983  1.9299  2.8055
  258MOL0     H34794   5.438   9.530   4.312  2.1181  1.0789 -0.0056
  258MOL0     H34795   5.337   9.416   4.233 -0.4734  0.7733  3.5965
  258MOL0     H34796   5.523   9.448   4.034 -1.4983  2.3221  1.0258
  258MOL0     H34797   5.608   9.525   4.174  0.3330  0.8887  0.5741
  258MOL0     H34798   5.498   9.246   4.214  1.3989 -0.2214 -1.7536
  258MOL0     H34799   5.660   9.267   4.126  0.4748  1.3145 -1.7238
  258MOL0     H34800   5.588   9.375   4.411  1.3056 -0.7276  0.8229
  258MOL0     H34801   5.740   9.401   4.314  1.9817 -3.3360 -1.9669
  258MOL0     H34802   5.751   9.149   4.296  0.0312 -0.2162  0.3754
  258MOL0     H34803   5.616   9.141   4.405  0.0315 -1.1679 -2.3865
  258MOL0     H34804   5.766   9.280   4.553  1.0303  1.0166 -0.6465
  258MOL0     H34805   5.814   9.111   4.522  3.9643 -0.1990  1.4425
  258MOL0     H34806   5.949   9.363   4.427 -2.5767 -0.2036 -3.8364
  258MOL0     H34807   5.972   9.200   4.343 -0.4925 -0.9762  1.0539
  258MOL0     H34808   6.036   9.233   4.646 -1.3420 -1.9852 -0.3818
  258MOL0     H34809   6.080   9.098   4.530  0.1658 -0.1835 -1.2144
  258MOL0     H34810   5.296   9.791   4.013  1.6575 -2.7963  1.2484
  258MOL0     H34811   5.065   9.914   4.008 -1.3292 -2.1253 -2.8914
  258MOL0     H34812   4.675  10.035   4.154 -0.6205 -0.7124 -2.2557
  258MOL0     H34813   4.442  10.118   4.178  0.7102  0.1725  1.5157
  258MOL0     H34814   4.358  10.517   4.366 -0.9732 -0.6246 -0.1591
  258MOL0     H34815   4.541  10.574   4.204 -1.1521  0.2161  2.1585
  258MOL0     H34816   4.936  10.337   3.867  0.0412 -0.8498 -0.6178
  258MOL0     H34817   5.085  10.473   3.737 -0.1910  0.1952  0.5526
  258MOL0     H34818   5.302  10.549   3.698  3.3313  1.2863 -2.8666
  258MOL0     H34819   5.364  10.703   3.668 -0.2762 -0.0434 -1.2975
  258MOL0     H34820   5.189  10.773   3.534  0.0070 -0.7030  0.4153
  258MOL0     H34821   5.092  10.626   3.563 -0.9648  0.7375 -1.6009
  258MOL0     H34822   5.241  10.494   3.445 -4.9536  1.5527  0.5607
  258MOL0     H34823   5.376  10.604   3.473  0.2926  0.1175  2.6805
  258MOL0     H34824   5.242  10.770   3.317  1.4719 -1.3146 -1.9916
  258MOL0     H34825   5.286  10.622   3.234  1.9288  0.5546  0.7337
  258MOL0     H34826   4.869  10.575   3.290 -0.6739  1.4066  2.6744
  258MOL0     H34827   5.101  10.781   4.034 -0.4740 -0.7421  1.6509
  258MOL0     H34828   4.946  10.623   4.284  1.7543  0.9543 -0.5227
  258MOL0     H34829   4.957  10.782   4.204  0.5604 -0.3086  1.4036
  258MOL0     H34830   4.803  10.685   4.191  0.6045 -0.4726 -1.3815
  259MOL0     O34831   8.841   4.830   1.475  1.1956 -0.1308  0.1948
  259MOL0     C34832   8.942   4.860   1.541  1.0425  1.2783 -0.7909
  259MOL0     O34833   8.950   4.830   1.674  0.1605 -0.2475 -0.1110
  259MOL0     C34834   8.839   4.786   1.737 -0.8679  0.2143 -0.8150
  259MOL0     C34835   8.798   4.647   1.739  0.6069 -0.0522 -0.1332
  259MOL0     C34836   8.686   4.602   1.813 -0.5929 -0.4579  0.4464
  259MOL0     C34837   8.613   4.697   1.873 -0.0542 -0.0407 -0.8311
  259MOL0     O34838   8.511   4.644   1.947 -0.2876 -0.0942 -0.6593
  259MOL0     C34839   8.458   4.716   2.058  1.1110 -0.7292 -0.6518
  259MOL0     C34840   8.340   4.626   2.103  0.2413 -0.0577 -0.1331
  259MOL0     C34841   8.263   4.690   2.224 -0.4188  0.2659  0.2743
  259MOL0     C34842   8.107   4.687   2.199 -0.7317 -0.5601 -0.4509
  259MOL0     C34843   8.031   4.739   2.332 -0.0984  0.1224  0.7186
  259MOL0     C34844   8.060   4.881   2.362  0.9247 -0.5931  0.4684
  259MOL0     C34845   7.954   4.945   2.450 -0.7378  0.4513  0.7177
  259MOL0     C34846   7.934   4.891   2.593 -0.2826 -0.0515  0.7533
  259MOL0     N34847   8.053   4.914   2.674  0.6730  0.2552  0.0040
  259MOL0     C34848   8.153   4.829   2.694  0.0240  1.2220 -0.0010
  259MOL0     C34849   8.235   4.902   2.770 -0.6881  0.2937  0.4400
  259MOL0     C34850   8.378   4.858   2.800  1.0252  0.5057 -1.0624
  259MOL0     C34851   8.480   4.976   2.834 -0.1785  0.1411  0.2198
  259MOL0     C34852   8.511   5.014   2.980 -1.4398 -0.1953 -0.2879
  259MOL0     C34853   8.415   5.119   3.033 -0.3346  0.3330 -0.1709
  259MOL0     O34854   8.449   5.158   3.167 -0.0062  0.0922 -0.1681
  259MOL0     C34855   8.440   5.063   3.262  0.4917  0.0290  0.0975
  259MOL0     C34856   8.499   5.098   3.385 -0.4113  0.8713  0.3576
  259MOL0     C34857   8.477   5.014   3.496  0.6002 -0.4238  0.0833
  259MOL0     C34858   8.387   4.900   3.496 -0.0600 -0.6133  0.6920
  259MOL0     C34859   8.362   4.829   3.620  0.0624 -0.3214 -0.2087
  259MOL0     O34860   8.429   4.869   3.726  0.4644  0.1475  0.2594
  259MOL0     C34861   8.441   4.797   3.840  0.6700 -1.0341 -0.2344
  259MOL0     C34862   8.574   4.780   3.891  0.6039 -0.4930 -0.0244
  259MOL0     C34863   8.598   4.715   4.011 -0.9112  0.1229  0.5323
  259MOL0     C34864   8.495   4.657   4.084  0.2405 -0.1513  0.4316
  259MOL0     O34865   8.501   4.585   4.199 -0.5636  0.6782 -0.0582
  259MOL0     C34866   8.637   4.561   4.255  0.8458  1.2724  1.3469
  259MOL0     C34867   8.628   4.487   4.386 -0.3964 -0.0451 -0.4775
  259MOL0     C34868   8.754   4.447   4.456 -0.4596  0.6375 -0.8088
  259MOL0     C34869   8.740   4.364   4.585  0.4584 -0.0227  0.6139
  259MOL0     C34870   8.712   4.460   4.699  0.2848 -0.3892 -0.8407
  259MOL0     C34871   8.745   4.386   4.840 -0.2618 -0.5594  0.2831
  259MOL0     C34872   8.699   4.465   4.961  0.1561  0.4417  0.7092
  259MOL0     C34873   8.800   4.582   4.978  1.0894 -0.3020  1.4810
  259MOL0    Cl34874   8.774   4.679   5.116 -0.5923 -0.1178 -0.0969
  259MOL0     C34875   8.369   4.682   4.036 -0.5784  0.1910  0.0654
  259MOL0     C34876   8.337   4.746   3.917  0.0861  0.4853  1.1771
  259MOL0     O34877   8.288   4.734   3.626  0.5899 -0.5032  0.9568
  259MOL0     C34878   8.328   4.871   3.378  0.6920  0.2602  0.6615
  259MOL0     C34879   8.357   4.948   3.258  0.7237  0.7878  0.7451
  259MOL0     N34880   8.176   5.024   2.809 -0.3874 -0.0785  0.5968
  259MOL0     N34881   8.067   5.026   2.751  0.6429 -0.4624 -0.1602
  259MOL0     C34882   8.634   4.831   1.861  0.4631 -0.6790  0.1690
  259MOL0     C34883   8.753   4.874   1.795  0.6324  0.6151  1.0143
  259MOL0     C34884   9.064   4.914   1.477  0.2743 -0.4165  0.6043
  259MOL0     C34885   9.117   4.852   1.357  0.3973 -0.0211  0.0131
  259MOL0     C34886   9.230   4.885   1.292  0.4327  0.2106 -0.1534
  259MOL0     C34887   9.303   4.998   1.338  0.7366 -1.0878  0.1442
  259MOL0     O34888   9.432   5.037   1.285 -0.1416  1.0327 -0.3977
  259MOL0     C34889   9.499   5.147   1.345  0.3436  0.1603  0.3493
  259MOL0     C34890   9.639   5.162   1.288 -0.6565  0.3297  0.0630
  259MOL0     C34891   9.634   5.179   1.139 -0.1446  0.9317  0.8333
  259MOL0     C34892   9.772   5.201   1.087  0.4716 -0.5659  0.0361
  259MOL0     C34893   9.866   5.093   1.122  0.7903 -0.7552 -0.2633
  259MOL0     C34894   9.933   5.002   1.157  0.4554 -0.1370 -0.2667
  259MOL0     C34895   9.254   5.070   1.449  0.7173 -0.2952 -0.1144
  259MOL0     C34896   9.138   5.024   1.526 -1.1674 -0.5545  0.3572
  259MOL0     C34897   9.082   5.120   1.636  0.0475  0.0099  0.0308
  259MOL0     H34898   8.863   4.572   1.695  0.8993 -0.1309  0.4189
  259MOL0     H34899   8.660   4.497   1.814 -0.0449 -0.6094 -0.3035
  259MOL0     H34900   8.519   4.724   2.148 -2.3263  0.2570  1.8216
  259MOL0     H34901   8.426   4.819   2.036 -0.4417 -0.8031  1.0115
  259MOL0     H34902   8.388   4.532   2.129  1.7675  0.1424 -2.0191
  259MOL0     H34903   8.275   4.610   2.017 -1.5854 -0.4078  1.2499
  259MOL0     H34904   8.305   4.787   2.249 -0.0945  0.4918 -1.0797
  259MOL0     H34905   8.292   4.634   2.313  1.2881 -1.1133 -1.0798
  259MOL0     H34906   8.081   4.754   2.116 -2.8355  2.2452  2.2194
  259MOL0     H34907   8.081   4.589   2.158 -0.4931 -0.1952 -1.5085
  259MOL0     H34908   7.923   4.729   2.323  0.0042  0.5017 -1.7323
  259MOL0     H34909   8.061   4.668   2.409  1.5706 -0.0931 -0.0704
  259MOL0     H34910   8.160   4.894   2.406  2.1121  0.4164 -2.2977
  259MOL0     H34911   8.064   4.939   2.269 -1.8985 -2.5909 -1.0381
  259MOL0     H34912   7.865   4.936   2.387 -0.4838  1.1545  0.2447
  259MOL0     H34913   7.976   5.053   2.453  0.3013  0.3218 -1.0726
  259MOL0     H34914   7.850   4.949   2.632 -0.6362 -0.7618  1.0553
  259MOL0     H34915   7.909   4.785   2.580 -3.8073  0.8204 -0.6064
  259MOL0     H34916   8.167   4.734   2.644 -3.1944  0.8097 -0.2911
  259MOL0     H34917   8.371   4.795   2.889 -1.6067  0.4388 -1.2260
  259MOL0     H34918   8.417   4.792   2.722  0.0136 -2.3452  0.6804
  259MOL0     H34919   8.573   4.940   2.789 -0.5412  0.0844 -0.4939
  259MOL0     H34920   8.451   5.063   2.775 -1.5310 -1.5742 -1.8011
  259MOL0     H34921   8.608   5.063   2.976 -2.3270  1.5733 -1.8745
  259MOL0     H34922   8.502   4.922   3.039 -2.3744 -0.6040 -1.0311
  259MOL0     H34923   8.308   5.095   3.038  0.2957 -2.5416  2.1629
  259MOL0     H34924   8.432   5.204   2.966  1.3139 -1.6267 -2.3921
  259MOL0     H34925   8.550   5.194   3.377 -0.7745  0.9243 -2.3022
  259MOL0     H34926   8.529   5.044   3.586  0.8224 -1.7082  0.4129
  259MOL0     H34927   8.639   4.832   3.820 -1.8503  1.6099 -0.8961
  259MOL0     H34928   8.700   4.722   4.046 -0.4543  6.2782 -0.7392
  259MOL0     H34929   8.690   4.494   4.186 -3.4268 -0.4789 -0.6117
  259MOL0     H34930   8.679   4.661   4.264  0.7114  1.6096 -0.9653
  259MOL0     H34931   8.592   4.566   4.454 -1.4704  0.2072 -1.3089
  259MOL0     H34932   8.559   4.402   4.385 -0.3237 -0.1022 -0.5599
  259MOL0     H34933   8.803   4.378   4.386 -1.4205  1.0788 -1.9544
  259MOL0     H34934   8.811   4.537   4.478 -0.7915  0.2133  2.2196
  259MOL0     H34935   8.831   4.304   4.600  0.8009  0.4279  0.3498
  259MOL0     H34936   8.651   4.302   4.571  0.7463  0.1994 -3.1714
  259MOL0     H34937   8.604   4.475   4.697 -0.5403 -4.6550  0.8938
  259MOL0     H34938   8.777   4.547   4.685  0.8015 -0.5986  0.1630
  259MOL0     H34939   8.686   4.295   4.852 -0.0151 -0.4914  2.3749
  259MOL0     H34940   8.851   4.361   4.844 -0.7893 -3.5066 -1.2996
  259MOL0     H34941   8.704   4.395   5.044  1.7610  0.6027  0.7923
  259MOL0     H34942   8.595   4.500   4.964  0.6841  2.1348  4.5787
  259MOL0     H34943   8.897   4.537   5.005  2.3159  2.0334  1.2706
  259MOL0     H34944   8.801   4.650   4.893  1.2894  0.8615  2.3932
  259MOL0     H34945   8.280   4.654   4.090 -1.8760  0.1089 -1.9933
  259MOL0     H34946   8.232   4.755   3.890 -0.4050 -1.6546  2.1348
  259MOL0     H34947   8.263   4.785   3.369  2.5603 -1.2732  1.0946
  259MOL0     H34948   8.289   4.932   3.175 -1.5379  0.9587  2.4707
  259MOL0     H34949   8.571   4.901   1.914  0.2383 -2.0974  1.8498
  259MOL0     H34950   8.793   4.974   1.807  3.6240  0.1412 -2.9828
  259MOL0     H34951   9.058   4.765   1.331  1.7007 -0.6331 -1.0222
  259MOL0     H34952   9.264   4.819   1.213 -4.0867  0.0702 -2.2805
  259MOL0     H34953   9.498   5.141   1.455  1.0078 -0.2715  0.3349
  259MOL0     H34954   9.451   5.242   1.318  3.3226  1.5145 -0.6636
  259MOL0     H34955   9.697   5.077   1.326 -0.3858  0.7490  0.6047
  259MOL0     H34956   9.687   5.256   1.314  1.3373 -0.6283  0.0691
  259MOL0     H34957   9.561   5.251   1.103  0.4945  0.6781 -1.0968
  259MOL0     H34958   9.592   5.088   1.095 -1.4072  1.7966  0.1909
  259MOL0     H34959   9.775   5.208   0.978  2.2683 -1.9562 -0.0687
  259MOL0     H34960   9.810   5.297   1.125 -0.0572  0.9227 -2.9273
  259MOL0     H34961   9.985   4.909   1.171 -0.3158 -0.8641 -1.9710
  259MOL0     H34962   9.287   5.171   1.474 -2.3345  0.1158  2.9834
  259MOL0     H34963   8.981   5.157   1.620  0.3683  0.8741 -0.0500
  259MOL0     H34964   9.091   5.072   1.734  1.4072  0.0105 -0.0679
  259MOL0     H34965   9.133   5.216   1.650 -2.6974  1.3016  1.9185
  260MOL0     O34966   4.802   8.881   9.511  0.4903 -0.5531 -0.0213
  260MOL0     C34967   4.794   8.792   9.428 -0.6902 -0.1458  0.1389
  260MOL0     O34968   4.899   8.742   9.353 -0.2796 -0.5796  0.8790
  260MOL0     C34969   5.025   8.786   9.370 -1.0834  0.1966 -0.1166
  260MOL0     C34970   5.073   8.920   9.360  1.3296  0.1033 -0.1449
  260MOL0     C34971   5.208   8.945   9.373 -1.1875  0.3973 -1.7700
  260MOL0     C34972   5.292   8.844   9.421 -1.1994  0.1490  0.7886
  260MOL0     O34973   5.418   8.878   9.452 -0.0849 -0.2096  0.2811
  260MOL0     C34974   5.497   8.887   9.329 -0.6892  0.0199 -0.6046
  260MOL0     C34975   5.641   8.837   9.359  0.2956  0.4053 -0.3291
  260MOL0     C34976   5.635   8.678   9.370  0.7899  0.3581  0.4925
  260MOL0     C34977   5.752   8.636   9.462 -0.2023  0.2919  0.2575
  260MOL0     C34978   5.853   8.546   9.394 -0.8147 -0.0563 -0.5598
  260MOL0     C34979   5.978   8.509   9.482 -0.7290  1.1711 -0.5639
  260MOL0     C34980   6.045   8.378   9.428 -0.0104 -0.5804  0.2425
  260MOL0     C34981   6.167   8.345   9.510  0.5920 -0.8562  0.2256
  260MOL0     N34982   6.238   8.220   9.478 -0.7801 -0.0333 -1.1679
  260MOL0     C34983   6.354   8.226   9.414  0.2732  0.4911 -0.1156
  260MOL0     C34984   6.390   8.100   9.396  0.7403 -0.8608  0.8470
  260MOL0     C34985   6.518   8.058   9.355  0.3214  0.3225 -0.2290
  260MOL0     C34986   6.633   8.059   9.451  0.0245  0.5454  0.2962
  260MOL0     C34987   6.634   7.931   9.551 -0.0508 -0.0528  0.5277
  260MOL0     C34988   6.633   7.796   9.487 -0.2046 -0.1251  0.4748
  260MOL0     O34989   6.574   7.695   9.568 -0.1133  0.2952 -0.0025
  260MOL0     C34990   6.673   7.633   9.641  0.2788 -0.2369  0.4633
  260MOL0     C34991   6.748   7.521   9.594 -0.0693  0.8109  0.1378
  260MOL0     C34992   6.856   7.479   9.671 -0.5090  0.8443  0.8237
  260MOL0     C34993   6.893   7.540   9.792  0.6670 -0.0057 -0.5906
  260MOL0     C34994   7.000   7.495   9.880 -0.1812 -0.9246  0.6421
  260MOL0     O34995   6.986   7.490  10.012 -0.0147 -0.4107  0.0259
  260MOL0     C34996   7.101   7.488  10.091 -0.6533 -0.9327 -0.7287
  260MOL0     C34997   7.138   7.593  10.174 -0.0814  0.3992 -0.3916
  260MOL0     C34998   7.260   7.586  10.242 -0.6962  0.3147 -0.8138
  260MOL0     C34999   7.334   7.472  10.245 -0.2896 -0.0849 -0.1562
  260MOL0     O35000   7.455   7.475  10.318  0.2212  0.1451 -0.3176
  260MOL0     C35001   7.560   7.415  10.247 -0.3385  0.0234  0.0723
  260MOL0     C35002   7.689   7.475  10.307  0.3735  0.8141  0.5160
  260MOL0     C35003   7.687   7.622  10.343 -0.4360  0.5012  0.3375
  260MOL0     C35004   7.623   7.656  10.474 -0.4718 -0.1833 -0.4492
  260MOL0     C35005   7.640   7.805  10.504 -0.0904 -0.6443 -0.1156
  260MOL0     C35006   7.543   7.845  10.625 -0.8831 -0.2490 -0.4051
  260MOL0     C35007   7.598   7.975  10.691 -0.7908  0.9993 -0.1822
  260MOL0     C35008   7.513   8.011  10.814  0.3197 -0.3008 -0.8485
  260MOL0    Cl35009   7.624   8.096  10.926 -0.1759 -0.0823  0.1678
  260MOL0     C35010   7.297   7.362  10.172 -1.0448  0.6385  0.4331
  260MOL0     C35011   7.183   7.360  10.094 -0.0350 -0.1886 -0.0590
  260MOL0     O35012   7.100   7.465   9.812  0.7933 -0.1713 -0.0051
  260MOL0     C35013   6.822   7.650   9.831  0.2535  0.5321 -1.4998
  260MOL0     C35014   6.707   7.692   9.761  0.0165 -0.9679  0.3256
  260MOL0     N35015   6.288   8.024   9.459 -0.0047  0.0574  0.1445
  260MOL0     N35016   6.200   8.098   9.504  0.5352 -0.0325  0.0350
  260MOL0     C35017   5.252   8.716   9.434 -1.1077  0.9327  0.2329
  260MOL0     C35018   5.118   8.686   9.401  0.1470  0.2196  0.0435
  260MOL0     C35019   4.660   8.720   9.437  0.4288 -0.2014 -0.1551
  260MOL0     C35020   4.535   8.793   9.448 -0.8294  0.2764  1.2045
  260MOL0     C35021   4.413   8.724   9.451  0.0724 -0.1271  0.3922
  260MOL0     C35022   4.412   8.585   9.454 -0.1155 -0.1552  0.5248
  260MOL0     O35023   4.296   8.510   9.455  0.2235 -0.9073  0.0708
  260MOL0     C35024   4.217   8.486   9.338 -0.3294 -0.2178  0.1548
  260MOL0     C35025   4.260   8.494   9.188  0.7356 -0.4055 -1.2382
  260MOL0     C35026   4.159   8.454   9.088 -1.0192  0.2528  0.5510
  260MOL0     C35027   4.231   8.413   8.958 -0.0500  0.0662 -0.2925
  260MOL0     C35028   4.140   8.362   8.854  0.3010 -0.2380 -1.1502
  260MOL0     C35029   4.078   8.310   8.765  0.1191  0.3377 -0.0959
  260MOL0     C35030   4.533   8.509   9.457  0.5764 -0.7086 -0.4089
  260MOL0     C35031   4.655   8.574   9.450  0.4741 -0.6971 -0.7728
  260MOL0     C35032   4.790   8.503   9.444  0.6566 -0.4247 -0.7378
  260MOL0     H35033   4.997   8.993   9.331 -0.3009 -2.2622 -2.2739
  260MOL0     H35034   5.253   9.044   9.373  0.1134 -0.1562 -0.6944
  260MOL0     H35035   5.457   8.813   9.258 -2.3552  0.3197 -0.0180
  260MOL0     H35036   5.500   8.986   9.284  0.9350  2.0674  3.5157
  260MOL0     H35037   5.672   8.882   9.453  1.7318 -0.8360 -0.1749
  260MOL0     H35038   5.705   8.859   9.273  1.0228 -0.3874 -0.0034
  260MOL0     H35039   5.645   8.627   9.274  0.7776 -2.0334  1.6928
  260MOL0     H35040   5.537   8.652   9.410  1.2095  0.0097  1.3328
  260MOL0     H35041   5.805   8.722   9.504  0.1197 -0.9863  2.6507
  260MOL0     H35042   5.715   8.591   9.555 -0.1879  1.7975  1.0199
  260MOL0     H35043   5.795   8.458   9.362 -0.7832 -0.6091  0.8251
  260MOL0     H35044   5.881   8.598   9.302 -2.9799  1.3648 -0.4709
  260MOL0     H35045   6.054   8.588   9.484  0.5404 -0.0246  0.2433
  260MOL0     H35046   5.963   8.497   9.590  3.4924  0.8718  0.1512
  260MOL0     H35047   6.066   8.391   9.322 -3.4624  0.3872 -0.4322
  260MOL0     H35048   5.987   8.285   9.433 -0.5299 -0.2042  1.8400
  260MOL0     H35049   6.231   8.433   9.507 -0.0436 -0.2262  2.8354
  260MOL0     H35050   6.140   8.343   9.616  1.8488 -0.5562  0.5616
  260MOL0     H35051   6.412   8.312   9.383  0.0929 -0.5085 -3.7311
  260MOL0     H35052   6.501   7.954   9.324  0.4538  0.5506 -1.0939
  260MOL0     H35053   6.545   8.118   9.268  0.5991  0.1734 -0.2468
  260MOL0     H35054   6.727   8.074   9.396  0.4265 -0.8065  0.5730
  260MOL0     H35055   6.636   8.146   9.517 -0.0202  0.7126  0.0783
  260MOL0     H35056   6.542   7.947   9.608 -0.3643  0.0083  0.0139
  260MOL0     H35057   6.715   7.931   9.625  1.1434 -3.2829 -0.5919
  260MOL0     H35058   6.731   7.761   9.453 -1.0145 -0.6879 -1.4022
  260MOL0     H35059   6.580   7.787   9.391  0.7392  2.5261 -0.3792
  260MOL0     H35060   6.721   7.478   9.498  2.0244 -0.2589 -0.0210
  260MOL0     H35061   6.903   7.392   9.625 -1.1031  2.0666 -2.3417
  260MOL0     H35062   7.086   7.688  10.183  2.5084  1.8072  1.1872
  260MOL0     H35063   7.286   7.678  10.294 -1.7504  1.1471 -1.7065
  260MOL0     H35064   7.567   7.308  10.269  1.5311  0.3175  1.0916
  260MOL0     H35065   7.551   7.432  10.139 -1.6671 -3.5478 -0.5306
  260MOL0     H35066   7.709   7.417  10.397  1.9118 -2.2814 -1.6320
  260MOL0     H35067   7.770   7.466  10.233 -0.0347  2.1200 -0.1255
  260MOL0     H35068   7.789   7.658  10.359  0.5722 -1.2874 -1.7038
  260MOL0     H35069   7.643   7.681  10.262 -2.4892  0.5004  1.3706
  260MOL0     H35070   7.674   7.590  10.545  0.8477 -1.5327 -2.5177
  260MOL0     H35071   7.515   7.639  10.475 -0.5668  0.3060 -1.4519
  260MOL0     H35072   7.625   7.873  10.420  1.1858  2.4972  2.0161
  260MOL0     H35073   7.744   7.829  10.529 -0.4757  0.3027  0.6647
  260MOL0     H35074   7.446   7.866  10.579 -0.3454  1.1406 -0.9406
  260MOL0     H35075   7.536   7.764  10.699  0.8695  0.0456  0.1295
  260MOL0     H35076   7.594   8.048  10.609 -1.2593  1.3482  0.1475
  260MOL0     H35077   7.698   7.961  10.731 -0.2197  2.5698 -0.9744
  260MOL0     H35078   7.425   8.073  10.793 -1.1901 -2.2639 -0.6486
  260MOL0     H35079   7.481   7.925  10.874  0.4684  1.0491  1.2706
  260MOL0     H35080   7.362   7.275  10.171 -1.3108  0.3838  1.9727
  260MOL0     H35081   7.157   7.268  10.042  0.5442 -0.6366  0.4253
  260MOL0     H35082   6.854   7.714   9.913 -1.9633 -2.2362  1.7985
  260MOL0     H35083   6.653   7.779   9.798 -2.9669 -2.8010  0.5859
  260MOL0     H35084   5.321   8.635   9.454  1.1389  2.1222 -2.1507
  260MOL0     H35085   5.091   8.581   9.411 -1.4525  0.7525  1.8879
  260MOL0     H35086   4.538   8.900   9.430  3.8024  0.5035  2.1802
  260MOL0     H35087   4.328   8.790   9.445  0.9937  1.0193 -0.4269
  260MOL0     H35088   4.131   8.552   9.323 -1.6101 -1.9840 -0.7931
  260MOL0     H35089   4.171   8.388   9.357  0.4593 -0.2722  2.0205
  260MOL0     H35090   4.351   8.434   9.180 -0.0513 -1.8100 -0.0741
  260MOL0     H35091   4.287   8.599   9.170  0.4961 -0.3364 -1.1904
  260MOL0     H35092   4.096   8.543   9.074  0.1025  1.3873  2.3309
  260MOL0     H35093   4.093   8.375   9.123 -0.8254 -0.6142 -0.9541
  260MOL0     H35094   4.276   8.499   8.907  0.2998  0.1171  0.1021
  260MOL0     H35095   4.303   8.331   8.967 -0.1857 -0.1804 -1.2643
  260MOL0     H35096   4.019   8.254   8.695 -0.0581  0.9759 -0.4678
  260MOL0     H35097   4.525   8.402   9.472 -0.5622 -0.8615 -1.8100
  260MOL0     H35098   4.772   8.396   9.454 -4.2093  0.2622  0.0288
  260MOL0     H35099   4.822   8.519   9.340 -0.3062  1.6657 -0.7536
  260MOL0     H35100   4.864   8.535   9.518  0.6346  0.7717 -1.2135
  261MOL0     O35101  11.277   8.027   5.264 -0.0461  0.0811  0.6950
  261MOL0     C35102  11.199   7.931   5.269 -0.2559 -0.9845 -0.5601
  261MOL0     O35103  11.235   7.809   5.321  0.3530 -0.2889 -1.0237
  261MOL0     C35104  11.365   7.781   5.360 -0.0028  0.7106  0.6521
  261MOL0     C35105  11.426   7.678   5.296 -0.3397  0.6328  0.5970
  261MOL0     C35106  11.567   7.667   5.300  0.8560  0.5288  0.0450
  261MOL0     C35107  11.642   7.737   5.397  0.4575 -0.0210 -0.1172
  261MOL0     O35108  11.775   7.709   5.410  0.9025 -0.0940  0.2133
  261MOL0     C35109  11.855   7.778   5.320  1.1653 -0.1849  0.1176
  261MOL0     C35110  12.001   7.738   5.334 -0.0967  0.0010  0.1604
  261MOL0     C35111  12.065   7.705   5.200 -0.2676  0.4997  1.4100
  261MOL0     C35112  12.021   7.559   5.141 -0.6506 -0.2063 -0.1738
  261MOL0     C35113  12.130   7.511   5.040  0.4668 -0.4721 -0.5329
  261MOL0     C35114  12.233   7.426   5.111 -0.2758  0.1971 -0.3910
  261MOL0     C35115  12.358   7.414   5.009 -0.2255  0.3756  0.1619
  261MOL0     C35116  12.479   7.351   5.076  0.0099 -0.1272 -0.0956
  261MOL0     N35117  12.589   7.323   4.984 -0.7011  0.6320 -0.1749
  261MOL0     C35118  12.683   7.409   4.943 -0.5247  0.2295 -0.1159
  261MOL0     C35119  12.760   7.338   4.861 -0.4752  0.4474 -0.1223
  261MOL0     C35120  12.875   7.390   4.781 -0.4441  0.3786 -0.4022
  261MOL0     C35121  13.008   7.371   4.845 -0.4262 -0.0463 -0.7105
  261MOL0     C35122  13.110   7.433   4.755 -0.3799  0.0336 -0.6603
  261MOL0     C35123  13.250   7.374   4.777  0.4622  0.4690 -0.6485
  261MOL0     O35124  13.302   7.379   4.910  0.2736  0.4456  0.3050
  261MOL0     C35125  13.437   7.366   4.915  0.5195  0.5439 -0.0148
  261MOL0     C35126  13.508   7.250   4.881  0.3954  0.4240 -0.4877
  261MOL0     C35127  13.643   7.243   4.905  0.0147 -0.2167 -0.8227
  261MOL0     C35128  13.719   7.357   4.947 -0.5825 -0.3300 -0.5404
  261MOL0     C35129  13.871   7.344   4.967 -0.3043 -0.5699 -0.0887
  261MOL0     O35130  13.919   7.459   5.001  0.5217  0.4588  0.7099
  261MOL0     C35131  14.047   7.484   5.031  0.4092 -0.3557  0.5282
  261MOL0     C35132  14.162   7.422   4.979 -0.0971  0.3792 -0.4021
  261MOL0     C35133  14.289   7.460   5.005  0.0762 -0.0252 -0.9696
  261MOL0     C35134  14.310   7.561   5.107  1.3017 -0.4841  0.6759
  261MOL0     O35135  14.441   7.589   5.136  0.1509  0.5890  0.6739
  261MOL0     C35136  14.471   7.673   5.248  0.5751 -0.3670 -0.5970
  261MOL0     C35137  14.620   7.673   5.294  0.4752  0.2751  0.3852
  261MOL0     C35138  14.652   7.526   5.329  0.8943  0.4876 -0.0301
  261MOL0     C35139  14.786   7.502   5.401 -0.6091  0.4083  0.6942
  261MOL0     C35140  14.836   7.353   5.396 -0.1016 -0.4361  0.2205
  261MOL0     C35141  14.978   7.345   5.428 -0.9702  1.1266  0.9794
  261MOL0     C35142  15.011   7.358   5.576 -0.9187  0.6777 -0.5247
  261MOL0     C35143  15.159   7.325   5.585 -0.7026  0.0196 -0.1799
  261MOL0    Cl35144  15.207   7.160   5.578  0.3255  0.3576  0.2014
  261MOL0     C35145  14.203   7.626   5.166 -0.0522 -0.5397  0.8768
  261MOL0     C35146  14.080   7.593   5.116 -0.0872  0.4082  1.2950
  261MOL0     O35147  13.936   7.243   4.938 -0.3783  0.1434 -0.0350
  261MOL0     C35148  13.638   7.471   4.988 -0.1467  0.0135 -0.3405
  261MOL0     C35149  13.506   7.473   4.963  0.4324 -1.1489  0.6679
  261MOL0     N35150  12.720   7.206   4.867  0.4174 -0.2522  0.2243
  261MOL0     N35151  12.621   7.198   4.941  0.7091  0.5692 -0.0900
  261MOL0     C35152  11.569   7.827   5.479  0.3346 -0.3528 -0.5656
  261MOL0     C35153  11.439   7.856   5.452  0.6239 -0.0935  0.3391
  261MOL0     C35154  11.052   7.953   5.252  0.5575 -0.1658  1.2399
  261MOL0     C35155  10.973   7.845   5.299 -0.8547  0.1626 -0.0092
  261MOL0     C35156  10.834   7.857   5.297  0.1970 -0.2065 -0.2373
  261MOL0     C35157  10.774   7.983   5.263  0.0948 -0.0128 -0.1061
  261MOL0     O35158  10.637   7.981   5.247  0.6477  0.1759  0.4181
  261MOL0     C35159  10.554   8.087   5.289  0.1970  0.4786 -0.1781
  261MOL0     C35160  10.557   8.098   5.440 -0.7141  0.4262  0.1292
  261MOL0     C35161  10.544   7.966   5.530  1.2351 -0.0938  0.2293
  261MOL0     C35162  10.415   7.992   5.621 -1.1176  0.5852 -0.5185
  261MOL0     C35163  10.376   7.872   5.698  0.3711  0.2041 -0.1620
  261MOL0     C35164  10.333   7.771   5.749 -0.6878 -0.0805  0.1679
  261MOL0     C35165  10.851   8.087   5.218 -0.3253 -0.2418 -0.2398
  261MOL0     C35166  10.988   8.079   5.212  0.5438  0.2070  0.4551
  261MOL0     C35167  11.066   8.201   5.158 -0.6681 -0.8041  0.3593
  261MOL0     H35168  11.378   7.615   5.221  1.4168 -0.2788  0.1762
  261MOL0     H35169  11.605   7.588   5.237 -3.7830 -0.2004 -2.2154
  261MOL0     H35170  11.823   7.751   5.219  1.7100 -2.0651  0.3967
  261MOL0     H35171  11.850   7.884   5.347  4.8379 -0.5412  2.9847
  261MOL0     H35172  12.024   7.662   5.409 -1.2653  2.4163  3.1566
  261MOL0     H35173  12.050   7.824   5.379 -0.7278 -1.1797  3.3527
  261MOL0     H35174  12.174   7.703   5.213 -0.1680  0.1933  0.5495
  261MOL0     H35175  12.049   7.784   5.126  2.5985  2.0286  2.2517
  261MOL0     H35176  12.012   7.487   5.223  3.1330 -1.4572 -0.6184
  261MOL0     H35177  11.919   7.573   5.105 -0.8754  0.1972  0.6031
  261MOL0     H35178  12.081   7.455   4.960  0.2561 -1.4347  0.2538
  261MOL0     H35179  12.171   7.597   4.986  0.6248  0.2227  0.6586
  261MOL0     H35180  12.273   7.469   5.203 -0.5983  0.2386 -0.2695
  261MOL0     H35181  12.186   7.331   5.140 -2.8381  2.3288  3.2747
  261MOL0     H35182  12.378   7.517   4.979 -3.5502  1.1089  0.0814
  261MOL0     H35183  12.328   7.362   4.917 -0.5390  2.2500 -0.8337
  261MOL0     H35184  12.511   7.421   5.154  2.3096  0.0520 -1.1068
  261MOL0     H35185  12.455   7.261   5.134  0.2589  0.1214  0.3968
  261MOL0     H35186  12.691   7.512   4.976  3.5870  0.4160 -1.1943
  261MOL0     H35187  12.876   7.331   4.689  2.0061  2.3553 -1.7583
  261MOL0     H35188  12.866   7.496   4.759 -1.2554  0.5966  0.8616
  261MOL0     H35189  13.015   7.419   4.943 -1.5832 -1.1250 -0.0701
  261MOL0     H35190  13.019   7.264   4.865 -0.3678  0.3748  1.8993
  261MOL0     H35191  13.109   7.536   4.791  0.5887 -0.3392  0.4984
  261MOL0     H35192  13.087   7.430   4.648  1.0289  0.7408 -1.0115
  261MOL0     H35193  13.319   7.430   4.712  1.4010  1.0465  0.7814
  261MOL0     H35194  13.245   7.271   4.740  1.8615 -0.2565  1.0380
  261MOL0     H35195  13.461   7.157   4.852  2.3588 -0.4265 -1.1034
  261MOL0     H35196  13.698   7.150   4.890  0.4455 -0.4017  1.4822
  261MOL0     H35197  14.158   7.343   4.905  0.4145  1.0492 -1.1664
  261MOL0     H35198  14.364   7.398   4.958 -0.0183 -0.1870 -0.9072
  261MOL0     H35199  14.465   7.774   5.207  2.4466 -0.2617 -0.6890
  261MOL0     H35200  14.408   7.657   5.336  1.0603  1.0943  0.0430
  261MOL0     H35201  14.685   7.697   5.210  3.2042 -0.7596  2.0727
  261MOL0     H35202  14.644   7.734   5.381  1.0206 -1.7418  1.7115
  261MOL0     H35203  14.571   7.468   5.374 -0.1372  2.1871  0.3965
  261MOL0     H35204  14.660   7.469   5.236  1.7526 -2.1296  1.5453
  261MOL0     H35205  14.792   7.553   5.497  2.1142  0.2670  0.6672
  261MOL0     H35206  14.868   7.555   5.350  2.7940 -4.5390  0.3433
  261MOL0     H35207  14.810   7.324   5.294 -1.1159  0.0397  0.3305
  261MOL0     H35208  14.776   7.290   5.463 -0.4794 -0.7867 -0.4342
  261MOL0     H35209  14.999   7.243   5.394 -2.7840  0.3805  1.9641
  261MOL0     H35210  15.040   7.411   5.366 -1.0088  2.0639  1.9209
  261MOL0     H35211  14.944   7.295   5.635  0.6771 -0.1424  0.4859
  261MOL0     H35212  14.992   7.457   5.620  0.7886  1.7059 -1.9531
  261MOL0     H35213  15.210   7.380   5.506  1.1579  1.1499  1.6878
  261MOL0     H35214  15.193   7.367   5.681  0.8557  0.4429 -0.8946
  261MOL0     H35215  14.205   7.703   5.243 -0.0462  0.8373 -0.4454
  261MOL0     H35216  14.001   7.651   5.163 -0.4929 -0.3214  1.5299
  261MOL0     H35217  13.689   7.561   5.021  0.7565 -0.3172 -0.7876
  261MOL0     H35218  13.457   7.565   4.992  2.0682  0.1211 -0.4007
  261MOL0     H35219  11.629   7.875   5.555 -1.1262  1.9410 -0.7972
  261MOL0     H35220  11.394   7.933   5.514  2.0023 -0.3013  1.6487
  261MOL0     H35221  11.011   7.747   5.325  0.3851  0.8988  1.0907
  261MOL0     H35222  10.776   7.769   5.323 -1.0729 -0.0138 -2.2813
  261MOL0     H35223  10.449   8.070   5.263  0.3096 -1.7475  0.6583
  261MOL0     H35224  10.587   8.184   5.249 -1.1547  0.0141 -2.5714
  261MOL0     H35225  10.484   8.175   5.464 -1.0936 -0.4323  1.8986
  261MOL0     H35226  10.651   8.139   5.478 -1.0488  0.7742  0.5943
  261MOL0     H35227  10.635   7.953   5.589  2.4545  2.6902 -0.9041
  261MOL0     H35228  10.529   7.873   5.473  0.5384  0.0435  0.1832
  261MOL0     H35229  10.439   8.074   5.689 -2.5109  2.3162 -2.0011
  261MOL0     H35230  10.333   8.021   5.555  1.9612  1.6226 -4.2221
  261MOL0     H35231  10.295   7.676   5.781  1.3103 -1.0935 -0.3165
  261MOL0     H35232  10.804   8.177   5.180  0.3360  0.1301 -0.1867
  261MOL0     H35233  11.140   8.170   5.084 -0.2560 -1.8445  1.1826
  261MOL0     H35234  10.996   8.268   5.107 -0.1487 -0.7053 -0.2339
  261MOL0     H35235  11.101   8.272   5.233 -0.0502 -1.0033  0.2637
  262MOL0     O35236   8.271   7.616  10.017 -0.3729 -0.4594  0.0019
  262MOL0     C35237   8.181   7.531  10.021  1.3593  0.0178  0.3009
  262MOL0     O35238   8.173   7.441  10.127  0.9669 -0.3780  0.4840
  262MOL0     C35239   8.260   7.426  10.226 -0.4741 -0.6496  0.1938
  262MOL0     C35240   8.198   7.423  10.350 -0.3595 -0.3563 -0.2200
  262MOL0     C35241   8.278   7.427  10.469 -0.4229  0.3091  0.0197
  262MOL0     C35242   8.420   7.396  10.455 -0.0598  0.0972  0.7281
  262MOL0     O35243   8.505   7.382  10.558 -0.5786  0.2845 -0.6071
  262MOL0     C35244   8.444   7.315  10.672  0.3152 -0.3685 -0.0906
  262MOL0     C35245   8.552   7.290  10.778 -0.2142  0.1285  0.0747
  262MOL0     C35246   8.495   7.273  10.920 -0.3570  1.0684 -0.2814
  262MOL0     C35247   8.429   7.398  10.975 -0.0874  0.9970 -0.5054
  262MOL0     C35248   8.401   7.376  11.135  0.1446  0.6184 -0.2814
  262MOL0     C35249   8.265   7.429  11.180  0.2506  0.6656  0.4161
  262MOL0     C35250   8.257   7.415  11.335 -0.2229 -0.1474 -0.1705
  262MOL0     C35251   8.141   7.496  11.392 -0.1148  0.2707  0.5380
  262MOL0     N35252   8.012   7.424  11.361 -0.2798 -0.1692  0.5952
  262MOL0     C35253   7.915   7.472  11.267 -0.7256 -1.3346 -0.3312
  262MOL0     C35254   7.813   7.391  11.277  0.9288 -0.9491 -1.1327
  262MOL0     C35255   7.691   7.415  11.193 -0.3950  0.6585  0.5274
  262MOL0     C35256   7.712   7.419  11.038 -0.5596  0.1497 -0.0808
  262MOL0     C35257   7.593   7.448  10.946  0.0493 -0.3470 -0.5899
  262MOL0     C35258   7.643   7.490  10.814  0.0117 -1.2754  0.8011
  262MOL0     O35259   7.757   7.431  10.761 -0.6373  0.6990 -0.1301
  262MOL0     C35260   7.767   7.297  10.755  0.6610  0.3667 -0.0224
  262MOL0     C35261   7.656   7.205  10.743  0.0257 -0.6163 -0.2901
  262MOL0     C35262   7.681   7.070  10.746 -1.1712 -0.1725  0.4002
  262MOL0     C35263   7.815   7.012  10.743  0.5331 -0.1164 -0.1028
  262MOL0     C35264   7.833   6.858  10.738  0.1887  0.7270  1.0388
  262MOL0     O35265   7.957   6.816  10.767  0.5069  0.4588  0.4447
  262MOL0     C35266   7.975   6.684  10.791 -1.2171 -0.2044 -0.8055
  262MOL0     C35267   7.909   6.611  10.882  0.6449  0.0138 -1.2145
  262MOL0     C35268   7.947   6.479  10.910 -0.0332 -0.1152  0.2286
  262MOL0     C35269   8.049   6.414  10.844 -0.1533 -0.6234 -0.2779
  262MOL0     O35270   8.084   6.288  10.866 -0.1512  0.0580  0.1628
  262MOL0     C35271   8.094   6.249  11.001  0.3484  0.2760 -0.2040
  262MOL0     C35272   8.137   6.098  11.020  0.3475 -0.1921 -0.7779
  262MOL0     C35273   8.292   6.062  10.994 -0.3573 -0.1374  0.0857
  262MOL0     C35274   8.330   5.927  11.057  0.1373 -0.4603  0.2769
  262MOL0     C35275   8.479   5.897  11.036 -0.1421 -0.1815 -0.2307
  262MOL0     C35276   8.595   5.972  11.120  0.6592 -0.2657 -0.5936
  262MOL0     C35277   8.578   5.953  11.261  0.7379 -0.2860 -0.6403
  262MOL0     C35278   8.681   6.029  11.343 -0.2248 -0.5439  0.2358
  262MOL0    Cl35279   8.626   6.193  11.322  0.5026 -0.5966  0.2202
  262MOL0     C35280   8.128   6.493  10.756 -0.1312  0.4487  0.5255
  262MOL0     C35281   8.087   6.631  10.727  0.3495 -0.5033  0.7187
  262MOL0     O35282   7.735   6.787  10.719 -0.3831 -0.4878 -0.2415
  262MOL0     C35283   7.915   7.109  10.763 -0.5746 -0.3574  0.7587
  262MOL0     C35284   7.897   7.246  10.760 -0.0047  0.8777  0.4543
  262MOL0     N35285   7.833   7.294  11.376  0.1605  0.7401  0.5698
  262MOL0     N35286   7.948   7.328  11.438 -0.2368  0.2550 -0.2135
  262MOL0     C35287   8.475   7.381  10.331  0.5336  0.0531  0.2403
  262MOL0     C35288   8.400   7.398  10.216 -0.5609  1.3339  0.9907
  262MOL0     C35289   8.062   7.542   9.926 -1.2505  0.2856  0.5394
  262MOL0     C35290   7.940   7.502   9.977  1.1851 -0.1668 -0.0892
  262MOL0     C35291   7.833   7.499   9.900 -0.6058 -0.6114  0.1334
  262MOL0     C35292   7.831   7.547   9.768 -0.0012 -0.0003 -0.0968
  262MOL0     O35293   7.713   7.538   9.704 -0.4672  0.3296 -0.4738
  262MOL0     C35294   7.699   7.552   9.557 -0.5777  0.6241 -0.3337
  262MOL0     C35295   7.657   7.421   9.502  0.3007  0.7551  0.8556
  262MOL0     C35296   7.647   7.446   9.348 -0.4247  0.5696  0.1507
  262MOL0     C35297   7.535   7.538   9.294  0.5196  0.5041 -0.7900
  262MOL0     C35298   7.537   7.536   9.148 -0.7911 -0.7875 -0.4151
  262MOL0     C35299   7.556   7.551   9.021  0.4094 -0.2168  0.0639
  262MOL0     C35300   7.950   7.585   9.717  0.2614  0.0866  0.1614
  262MOL0     C35301   8.063   7.584   9.791  0.2675  0.9123  0.3237
  262MOL0     C35302   8.188   7.624   9.726  0.5650 -0.6844  0.1221
  262MOL0     H35303   8.092   7.445  10.358 -0.1619  1.5255 -2.0168
  262MOL0     H35304   8.228   7.432  10.565  1.9306 -0.2779  1.3680
  262MOL0     H35305   8.372   7.381  10.723  1.8456  0.6297  0.8396
  262MOL0     H35306   8.401   7.218  10.647  2.4530 -1.1535 -0.8697
  262MOL0     H35307   8.625   7.370  10.796 -1.5919  1.2129  1.0523
  262MOL0     H35308   8.613   7.208  10.740  0.2680  1.5960 -2.5161
  262MOL0     H35309   8.578   7.238  10.982 -3.4496 -1.0790  2.9678
  262MOL0     H35310   8.425   7.190  10.910  0.2131  0.3160  1.5759
  262MOL0     H35311   8.489   7.487  10.953  3.1818 -1.4979 -2.5830
  262MOL0     H35312   8.333   7.411  10.925 -0.3898  0.6873 -0.0147
  262MOL0     H35313   8.409   7.271  11.166  0.5366  0.7346  0.0293
  262MOL0     H35314   8.480   7.427  11.192  5.0838 -1.9198 -4.0535
  262MOL0     H35315   8.257   7.535  11.153  2.4629  1.3316  2.1002
  262MOL0     H35316   8.183   7.374  11.132  2.0406 -1.5854 -0.2311
  262MOL0     H35317   8.352   7.448  11.377  0.2259  1.0735 -2.0104
  262MOL0     H35318   8.251   7.307  11.355  1.9737  0.2152  3.2086
  262MOL0     H35319   8.172   7.516  11.495  0.5780  1.5239  0.1103
  262MOL0     H35320   8.137   7.597  11.351 -1.7721  0.0666  0.1308
  262MOL0     H35321   7.906   7.561  11.206 -4.2304 -1.2673  0.0500
  262MOL0     H35322   7.623   7.332  11.215  0.1437 -0.3221 -1.3031
  262MOL0     H35323   7.655   7.514  11.223  2.5703  1.0904  3.2300
  262MOL0     H35324   7.788   7.498  11.028 -0.4095  0.1279  0.7858
  262MOL0     H35325   7.758   7.323  11.013  0.4814  0.6829 -0.3051
  262MOL0     H35326   7.528   7.522  10.992  1.5587  0.9089 -0.4156
  262MOL0     H35327   7.531   7.358  10.934 -2.6620  1.3837 -0.4051
  262MOL0     H35328   7.664   7.597  10.808 -0.5804 -1.1520  0.9160
  262MOL0     H35329   7.566   7.472  10.738  1.0842  1.6923 -1.1550
  262MOL0     H35330   7.559   7.253  10.735 -0.1889 -0.5071  2.2529
  262MOL0     H35331   7.602   6.996  10.738  0.4402 -2.0684  1.1727
  262MOL0     H35332   7.824   6.653  10.935  1.1807  1.9496 -1.8070
  262MOL0     H35333   7.887   6.420  10.979  0.4142  2.8753  3.4820
  262MOL0     H35334   8.163   6.311  11.059  2.5450  0.9241 -3.2191
  262MOL0     H35335   7.992   6.250  11.041  1.2991 -5.0872  3.3592
  262MOL0     H35336   8.107   6.082  11.124 -1.4954  0.5958 -1.1342
  262MOL0     H35337   8.076   6.036  10.954  1.1110 -1.8024 -0.0225
  262MOL0     H35338   8.287   6.056  10.884 -0.4187 -1.4879  0.1480
  262MOL0     H35339   8.350   6.147  11.030 -2.7906  1.0918  1.2970
  262MOL0     H35340   8.272   5.844  11.014  1.0398 -1.7473  1.4474
  262MOL0     H35341   8.305   5.937  11.163 -2.8346 -0.8237 -0.3011
  262MOL0     H35342   8.508   5.908  10.931  0.7330 -1.4051 -0.1345
  262MOL0     H35343   8.488   5.790  11.056 -2.8140 -0.9022 -2.2699
  262MOL0     H35344   8.690   5.936  11.081 -0.3507 -1.1239 -2.4050
  262MOL0     H35345   8.594   6.078  11.094  1.3958 -0.3682 -1.0591
  262MOL0     H35346   8.588   5.849  11.293  2.4606 -1.0275 -3.2625
  262MOL0     H35347   8.473   5.972  11.282  1.2214  0.2804  1.5356
  262MOL0     H35348   8.685   6.009  11.450 -0.6928  4.5445  1.4643
  262MOL0     H35349   8.777   6.018  11.292 -1.5227 -1.0018 -2.2832
  262MOL0     H35350   8.219   6.458  10.710 -0.7240  1.1852 -1.2940
  262MOL0     H35351   8.148   6.693  10.662  0.9436 -1.7791  0.0291
  262MOL0     H35352   8.020   7.081  10.770 -0.1821  0.9364  0.2890
  262MOL0     H35353   7.979   7.317  10.756  0.9877 -0.2608 -1.6854
  262MOL0     H35354   8.581   7.360  10.320  0.5903 -0.3331  1.3817
  262MOL0     H35355   8.449   7.369  10.124 -0.6840  1.5341  0.8611
  262MOL0     H35356   7.930   7.449  10.071 -4.2267 -1.6000 -1.1380
  262MOL0     H35357   7.745   7.449   9.941 -1.2820  0.1601 -0.3287
  262MOL0     H35358   7.791   7.578   9.505  1.3987 -0.8258  2.1832
  262MOL0     H35359   7.617   7.622   9.542 -1.3016 -0.3670 -1.1863
  262MOL0     H35360   7.560   7.392   9.545  0.1108 -1.2810 -0.8091
  262MOL0     H35361   7.727   7.341   9.528 -2.1624 -3.6688 -4.1326
  262MOL0     H35362   7.640   7.349   9.298  0.8643 -1.8083  4.0861
  262MOL0     H35363   7.747   7.476   9.319 -0.0954  0.0884  0.7424
  262MOL0     H35364   7.434   7.508   9.326 -0.0697 -0.7035 -3.5351
  262MOL0     H35365   7.558   7.640   9.328  1.4710 -0.7794  2.8890
  262MOL0     H35366   7.550   7.559   8.914  0.1848  0.0486  0.0953
  262MOL0     H35367   7.951   7.623   9.616 -1.4466  1.2885  0.5392
  262MOL0     H35368   8.273   7.575   9.774  0.4543 -1.9716 -0.9174
  262MOL0     H35369   8.190   7.607   9.618  3.4766  1.4389 -0.2625
  262MOL0     H35370   8.193   7.730   9.751 -2.2835 -0.4296 -0.0725
  263MOL0     O35371   7.392   9.396   6.409 -0.1254  1.1871  0.7453
  263MOL0     C35372   7.434   9.292   6.371  0.3890  0.2117 -0.5560
  263MOL0     O35373   7.412   9.166   6.433 -0.3057 -0.7996  0.2951
  263MOL0     C35374   7.319   9.126   6.516  0.3723 -0.4816 -0.7572
  263MOL0     C35375   7.314   8.995   6.566  1.1551  0.0955  0.1224
  263MOL0     C35376   7.221   8.947   6.663 -0.1051 -0.6292  0.8980
  263MOL0     C35377   7.128   9.039   6.706 -0.3917 -0.3783  0.1972
  263MOL0     O35378   7.046   9.006   6.816  0.3585 -0.3802  0.6210
  263MOL0     C35379   6.986   9.115   6.893 -1.1057  1.0770  0.1207
  263MOL0     C35380   6.945   9.070   7.032 -0.4088 -0.1052  0.7176
  263MOL0     C35381   6.869   9.171   7.116 -0.0421  0.8311  0.1106
  263MOL0     C35382   6.841   9.108   7.254  0.2697 -0.6212  0.3518
  263MOL0     C35383   6.775   9.199   7.355  0.5267  0.2293 -0.2967
  263MOL0     C35384   6.632   9.228   7.325 -0.0307 -0.4137 -0.7764
  263MOL0     C35385   6.562   9.315   7.432 -0.4515 -0.4739 -0.3769
  263MOL0     C35386   6.636   9.446   7.438  0.5001  0.0462  0.1964
  263MOL0     N35387   6.552   9.552   7.498  0.5980  0.4136 -0.1103
  263MOL0     C35388   6.444   9.607   7.426 -0.4097 -0.9791 -0.1137
  263MOL0     C35389   6.397   9.703   7.508  0.1745 -0.5619  0.7852
  263MOL0     C35390   6.282   9.791   7.474  0.3015  0.2092  0.8459
  263MOL0     C35391   6.189   9.818   7.593  0.4548  0.0868  0.0456
  263MOL0     C35392   6.045   9.853   7.550 -0.1127 -0.0494 -0.2271
  263MOL0     C35393   5.959   9.884   7.676  0.1826 -0.0595 -0.3442
  263MOL0     O35394   6.022   9.972   7.770 -0.7855 -0.7347  0.6853
  263MOL0     C35395   5.958  10.004   7.882 -0.0309  0.6401  0.4134
  263MOL0     C35396   6.044  10.024   7.989 -0.0949  0.3064  0.5260
  263MOL0     C35397   5.989  10.071   8.115 -0.4420  0.0433  0.7122
  263MOL0     C35398   5.849  10.098   8.128  0.4064 -0.0000  0.5453
  263MOL0     C35399   5.798  10.135   8.263  0.0870 -0.3542  0.7030
  263MOL0     O35400   5.890  10.124   8.365 -1.2216 -0.1712 -0.2426
  263MOL0     C35401   5.840  10.120   8.494 -0.4697 -0.2586  0.3822
  263MOL0     C35402   5.862  10.000   8.555  0.5264  0.8801 -0.3141
  263MOL0     C35403   5.834   9.979   8.692  0.7332 -0.1667  0.3366
  263MOL0     C35404   5.767  10.080   8.767 -0.2430 -0.0176 -0.6862
  263MOL0     O35405   5.735  10.065   8.904 -0.1436 -0.6568  0.4609
  263MOL0     C35406   5.739   9.935   8.977 -0.6335 -0.0330 -0.2023
  263MOL0     C35407   5.704   9.963   9.127  0.2306 -0.4476 -0.3719
  263MOL0     C35408   5.739   9.853   9.222 -1.2647  0.7448 -0.1370
  263MOL0     C35409   5.627   9.750   9.224  0.8184  0.0518 -0.5683
  263MOL0     C35410   5.671   9.648   9.333  0.4769  0.4358  1.1344
  263MOL0     C35411   5.588   9.511   9.307 -0.7204 -0.1843  0.3096
  263MOL0     C35412   5.632   9.408   9.403  0.7229 -0.1232 -0.7107
  263MOL0     C35413   5.534   9.285   9.409  0.1364 -0.0334  0.4537
  263MOL0    Cl35414   5.422   9.344   9.535  0.0961 -0.2294 -0.0349
  263MOL0     C35415   5.743  10.196   8.699  0.6990 -0.6067 -0.2143
  263MOL0     C35416   5.785  10.223   8.569  0.1119  0.4140  0.7076
  263MOL0     O35417   5.679  10.169   8.271 -0.4444 -0.4622 -0.0838
  263MOL0     C35418   5.774  10.079   8.015 -0.0451  1.1009 -0.0831
  263MOL0     C35419   5.825  10.041   7.897  0.2076 -0.6274  0.1678
  263MOL0     N35420   6.475   9.697   7.626  0.4189 -0.3567  0.1658
  263MOL0     N35421   6.570   9.614   7.611  0.0280  0.1533 -0.0001
  263MOL0     C35422   7.118   9.165   6.644  0.0137  0.0716 -0.0448
  263MOL0     C35423   7.219   9.219   6.559  0.5798  0.0159 -0.2953
  263MOL0     C35424   7.544   9.290   6.275  0.6207  0.6653  0.4123
  263MOL0     C35425   7.645   9.191   6.286 -0.2066  0.5451 -0.4707
  263MOL0     C35426   7.761   9.199   6.207  0.5794  0.3557 -0.4782
  263MOL0     C35427   7.776   9.293   6.102  0.6813  1.6448 -0.1671
  263MOL0     O35428   7.886   9.287   6.025 -0.5187  0.3211  0.3201
  263MOL0     C35429   7.880   9.357   5.899  0.1687  0.8208 -0.7710
  263MOL0     C35430   8.000   9.317   5.817  0.5398  0.2863 -0.3518
  263MOL0     C35431   8.141   9.345   5.881 -0.6445 -0.3394 -0.4527
  263MOL0     C35432   8.216   9.252   5.977 -0.4086 -0.4077  0.2463
  263MOL0     C35433   8.340   9.311   6.028 -0.6455  0.6064 -0.9341
  263MOL0     C35434   8.439   9.350   6.092 -1.0072  0.3278  1.3587
  263MOL0     C35435   7.668   9.385   6.081 -0.6713  0.5562 -0.3310
  263MOL0     C35436   7.550   9.385   6.159 -0.5480  0.0185 -1.2514
  263MOL0     C35437   7.446   9.488   6.123  0.3320 -1.1347 -0.1553
  263MOL0     H35438   7.392   8.925   6.540 -1.3481 -3.8947  2.3385
  263MOL0     H35439   7.225   8.849   6.709 -0.0511 -0.6455  0.8571
  263MOL0     H35440   7.056   9.199   6.896 -2.2732  2.0785  0.2186
  263MOL0     H35441   6.894   9.147   6.842 -1.3868  0.0281 -0.0488
  263MOL0     H35442   7.039   9.040   7.079 -0.5224  1.0028  1.6936
  263MOL0     H35443   6.888   8.976   7.029 -1.5561  0.5916 -0.0888
  263MOL0     H35444   6.779   9.200   7.061  0.4065 -0.9585 -1.7202
  263MOL0     H35445   6.929   9.262   7.126 -1.0952  1.9125 -2.5321
  263MOL0     H35446   6.769   9.027   7.243 -1.6686  1.1415 -0.7935
  263MOL0     H35447   6.933   9.067   7.297  2.0142  1.1467 -1.4649
  263MOL0     H35448   6.771   9.141   7.447 -0.8358 -0.7127 -0.9028
  263MOL0     H35449   6.839   9.286   7.374  1.2317 -0.6974  1.8336
  263MOL0     H35450   6.629   9.279   7.228  0.7580  0.7521 -0.2176
  263MOL0     H35451   6.575   9.135   7.322 -1.4512  0.4432 -3.1573
  263MOL0     H35452   6.550   9.266   7.529 -0.0092 -2.0146 -1.0705
  263MOL0     H35453   6.461   9.336   7.395 -0.9098  0.6056  1.3984
  263MOL0     H35454   6.732   9.437   7.489  1.0956 -0.9781 -1.0294
  263MOL0     H35455   6.657   9.483   7.337 -3.7160 -0.7257 -1.1599
  263MOL0     H35456   6.399   9.587   7.329 -1.0081 -2.7863  0.4917
  263MOL0     H35457   6.312   9.887   7.430  0.9833 -0.2380  0.3220
  263MOL0     H35458   6.219   9.741   7.400 -2.1124  2.2721  1.3516
  263MOL0     H35459   6.186   9.746   7.674 -1.7364  1.2004  1.0552
  263MOL0     H35460   6.235   9.907   7.637  0.8356 -0.0230 -0.1333
  263MOL0     H35461   6.005   9.774   7.486 -0.7860  1.8014 -2.2259
  263MOL0     H35462   6.028   9.941   7.487  1.1499 -1.3341 -2.4966
  263MOL0     H35463   5.927   9.793   7.727 -0.6628  2.2693  3.7338
  263MOL0     H35464   5.869   9.938   7.646  0.4344  0.3008 -0.4707
  263MOL0     H35465   6.149  10.001   7.978  0.2271 -0.5548  4.2250
  263MOL0     H35466   6.058  10.111   8.189 -0.6524 -0.3195  1.1029
  263MOL0     H35467   5.906   9.915   8.504 -0.4796  1.8320 -2.9577
  263MOL0     H35468   5.851   9.886   8.746 -0.7291 -0.1147  0.9307
  263MOL0     H35469   5.670   9.867   8.927  2.7136 -1.8367 -2.7595
  263MOL0     H35470   5.839   9.893   8.973 -1.6340 -2.5311 -0.9211
  263MOL0     H35471   5.758  10.052   9.162 -0.9209  0.3722 -0.6098
  263MOL0     H35472   5.596   9.981   9.129 -0.0729 -1.9190  2.3190
  263MOL0     H35473   5.829   9.807   9.181 -2.4149 -1.5480 -0.2342
  263MOL0     H35474   5.738   9.891   9.325  2.7575  0.1984  0.2543
  263MOL0     H35475   5.618   9.708   9.123  1.0340  2.2396 -1.5355
  263MOL0     H35476   5.534   9.801   9.251  0.9529  1.8562 -3.1650
  263MOL0     H35477   5.635   9.691   9.428 -2.1096 -2.6514  1.7395
  263MOL0     H35478   5.778   9.630   9.327  0.3803 -0.1689  1.2098
  263MOL0     H35479   5.479   9.519   9.316 -0.6722 -0.7608  1.6423
  263MOL0     H35480   5.612   9.473   9.207 -0.9311  0.7462 -0.0979
  263MOL0     H35481   5.641   9.453   9.503 -0.6931  0.3644 -0.7800
  263MOL0     H35482   5.733   9.367   9.397  1.8620  2.3235  0.4850
  263MOL0     H35483   5.490   9.275   9.309 -2.3211  1.7162  1.2520
  263MOL0     H35484   5.590   9.197   9.442 -0.7373 -1.1412 -0.8963
  263MOL0     H35485   5.692  10.278   8.750  2.5557  0.6445 -0.2509
  263MOL0     H35486   5.765  10.313   8.511 -1.6280 -2.1731 -3.1097
  263MOL0     H35487   5.667  10.098   8.011 -0.7107 -1.5884  1.9599
  263MOL0     H35488   5.764  10.035   7.808 -0.3211 -0.5154  0.5172
  263MOL0     H35489   7.044   9.240   6.668  1.1544  2.0030 -2.1900
  263MOL0     H35490   7.194   9.320   6.529  2.0891  1.5538  3.0486
  263MOL0     H35491   7.636   9.112   6.360  1.4019  2.0572  1.4693
  263MOL0     H35492   7.840   9.126   6.212  1.8244  1.7115  2.0393
  263MOL0     H35493   7.881   9.466   5.908  1.1958  0.9207 -1.7885
  263MOL0     H35494   7.787   9.337   5.845 -0.7305 -1.2398  1.3951
  263MOL0     H35495   7.995   9.354   5.714  1.0657 -0.0672 -0.5068
  263MOL0     H35496   8.000   9.208   5.806 -1.9002  0.4199 -3.4451
  263MOL0     H35497   8.144   9.442   5.931  0.1455  0.0129 -1.1635
  263MOL0     H35498   8.205   9.353   5.792 -1.7768  1.4559 -1.1601
  263MOL0     H35499   8.150   9.223   6.060  2.1330 -1.4014  2.0833
  263MOL0     H35500   8.235   9.162   5.917  1.4210  0.6055 -0.7712
  263MOL0     H35501   8.516   9.403   6.144  0.6509 -0.1572 -0.4858
  263MOL0     H35502   7.673   9.465   6.007 -0.2154 -0.2675 -1.2207
  263MOL0     H35503   7.480   9.590   6.146  0.3790  0.1778 -4.9610
  263MOL0     H35504   7.419   9.482   6.018 -2.7107 -0.4889  0.4873
  263MOL0     H35505   7.347   9.470   6.165  0.8556 -2.0070  0.7368
  264MOL0     O35506   9.048   4.098  10.608 -0.8820  0.7057  0.3603
  264MOL0     C35507   8.980   4.081  10.504 -0.2489 -0.0261 -0.6793
  264MOL0     O35508   9.022   4.104  10.373 -0.3559  0.5514 -0.3192
  264MOL0     C35509   9.163   4.108  10.343  1.2988 -0.3785 -0.3188
  264MOL0     C35510   9.215   4.044  10.227  0.2498 -0.7367 -0.6205
  264MOL0     C35511   9.342   4.067  10.176  0.3569  0.6396 -0.0260
  264MOL0     C35512   9.430   4.147  10.256  1.4513  0.2801 -0.0722
  264MOL0     O35513   9.556   4.177  10.216 -0.5457 -0.4079  0.1649
  264MOL0     C35514   9.632   4.111  10.119 -1.0354 -0.5780  0.0272
  264MOL0     C35515   9.714   4.006  10.194  0.1385  0.5919 -0.8420
  264MOL0     C35516   9.862   4.012  10.173 -0.5871 -0.7982 -0.0144
  264MOL0     C35517   9.898   3.932  10.044  0.7432 -0.7767 -0.0356
  264MOL0     C35518  10.050   3.953  10.016 -0.0218 -0.3759  0.4976
  264MOL0     C35519  10.137   3.855  10.105 -0.0100  0.6255 -0.3899
  264MOL0     C35520  10.284   3.864  10.067 -0.1586 -0.3716 -0.2108
  264MOL0     C35521  10.385   3.771  10.138  0.3074 -0.1445  0.0961
  264MOL0     N35522  10.518   3.791  10.096  0.2315  1.0756  0.4340
  264MOL0     C35523  10.555   3.775   9.971 -1.0255 -0.5336  0.1894
  264MOL0     C35524  10.689   3.778   9.973 -0.1780 -0.3858 -0.2266
  264MOL0     C35525  10.770   3.762   9.846 -0.3765  0.0763 -0.0314
  264MOL0     C35526  10.837   3.617   9.842 -0.7131  0.4275 -0.0731
  264MOL0     C35527  10.978   3.639   9.902 -0.3451 -0.2227  0.5860
  264MOL0     C35528  11.046   3.513   9.914  0.1746  0.4709 -0.1890
  264MOL0     O35529  11.183   3.517   9.968  0.1990 -0.2470  0.4678
  264MOL0     C35530  11.282   3.492   9.880 -0.5204 -0.1627 -1.4568
  264MOL0     C35531  11.275   3.518   9.748  0.2790  0.8552  0.1248
  264MOL0     C35532  11.367   3.463   9.649  0.2804 -0.2366 -0.2974
  264MOL0     C35533  11.485   3.400   9.691  0.4123 -0.7993  0.4431
  264MOL0     C35534  11.575   3.341   9.585  0.2721 -0.5834  1.0929
  264MOL0     O35535  11.698   3.300   9.622 -0.6321  0.3520  0.5544
  264MOL0     C35536  11.794   3.282   9.520  0.2957 -0.1356 -0.2397
  264MOL0     C35537  11.847   3.388   9.453  0.5896 -0.2917 -0.1748
  264MOL0     C35538  11.939   3.361   9.349 -0.4088  0.1618 -0.4635
  264MOL0     C35539  11.972   3.230   9.300 -0.8780 -0.4364  0.5552
  264MOL0     O35540  12.073   3.217   9.201 -0.4452  0.2573 -0.2827
  264MOL0     C35541  12.108   3.087   9.141  0.0474 -0.1637 -0.1018
  264MOL0     C35542  12.023   3.077   9.008  0.0272  0.7372  0.7488
  264MOL0     C35543  12.073   2.952   8.927  0.7233 -0.7411  0.1207
  264MOL0     C35544  12.050   2.819   9.006  0.1650 -0.7171  0.3073
  264MOL0     C35545  12.061   2.703   8.907 -0.4080  0.4627 -0.7363
  264MOL0     C35546  12.062   2.563   8.983 -0.4521 -0.1277 -0.8083
  264MOL0     C35547  11.961   2.542   9.090  0.3403  1.5640  0.0316
  264MOL0     C35548  11.984   2.405   9.166  0.6320 -0.0045 -0.2557
  264MOL0    Cl35549  12.020   2.273   9.056 -0.1397 -0.1930  0.9814
  264MOL0     C35550  11.913   3.121   9.372  0.1566 -1.1919  0.2382
  264MOL0     C35551  11.826   3.151   9.473 -0.8232 -0.0312  0.7550
  264MOL0     O35552  11.518   3.332   9.473 -0.4692  0.7850  0.8818
  264MOL0     C35553  11.502   3.389   9.832 -0.2422 -0.1277  0.7701
  264MOL0     C35554  11.403   3.427   9.922  0.9129 -0.1573 -0.1101
  264MOL0     N35555  10.733   3.793  10.099  0.3118 -0.9583 -0.0383
  264MOL0     N35556  10.625   3.796  10.179 -0.2995  1.1053  0.3240
  264MOL0     C35557   9.389   4.217  10.368  1.2289  0.5107 -0.4384
  264MOL0     C35558   9.257   4.193  10.411  0.5528 -0.0079  0.2333
  264MOL0     C35559   8.834   4.056  10.528 -0.1190  0.6106 -0.3183
  264MOL0     C35560   8.746   4.164  10.495 -0.1558  0.6456 -0.8961
  264MOL0     C35561   8.610   4.149  10.529  0.7181  1.0442  0.1871
  264MOL0     C35562   8.559   4.029  10.584 -0.4563 -0.2248 -0.3792
  264MOL0     O35563   8.432   4.011  10.619  0.3924  0.1728  0.2554
  264MOL0     C35564   8.385   3.882  10.638 -0.4678  0.8401 -0.2909
  264MOL0     C35565   8.234   3.892  10.638  0.2040  0.4267  0.5650
  264MOL0     C35566   8.157   3.763  10.635  0.4831  0.6078 -0.2770
  264MOL0     C35567   8.218   3.659  10.725  0.1763 -0.1543 -0.2005
  264MOL0     C35568   8.127   3.553  10.772 -0.3202  0.4271 -0.5163
  264MOL0     C35569   8.056   3.467  10.816 -0.1175  0.7092 -0.0150
  264MOL0     C35570   8.654   3.928  10.617  0.2046 -0.4517  0.1182
  264MOL0     C35571   8.785   3.936  10.590 -0.5188 -0.9936  0.0962
  264MOL0     C35572   8.877   3.828  10.640 -0.0614  0.4045 -0.0229
  264MOL0     H35573   9.136   3.980  10.188 -1.3372 -0.6419  2.1368
  264MOL0     H35574   9.375   4.024  10.082 -0.2768  0.7453 -0.3002
  264MOL0     H35575   9.568   4.053  10.053 -0.6686 -0.5414 -0.3670
  264MOL0     H35576   9.701   4.178  10.066 -1.2215  0.3187  0.9015
  264MOL0     H35577   9.682   3.905  10.164 -0.7770  1.0942 -1.6288
  264MOL0     H35578   9.689   4.009  10.300 -1.8560  0.1648 -1.2479
  264MOL0     H35579   9.911   3.972  10.262 -0.5411  0.7154  0.6594
  264MOL0     H35580   9.899   4.113  10.192 -1.5914 -0.9233  3.1079
  264MOL0     H35581   9.877   3.825  10.039 -5.0551  0.1056 -2.9861
  264MOL0     H35582   9.852   3.981   9.958  1.2558  0.7323  0.5195
  264MOL0     H35583  10.078   3.924   9.914  1.3394  0.8758  0.4787
  264MOL0     H35584  10.087   4.056  10.016 -1.6747  0.2772 -1.3781
  264MOL0     H35585  10.141   3.905  10.202 -1.4563  2.1661 -1.0601
  264MOL0     H35586  10.092   3.756  10.106 -0.3423  0.7716  0.9041
  264MOL0     H35587  10.300   3.971  10.077 -4.5279  0.2877  2.2859
  264MOL0     H35588  10.292   3.846   9.959 -3.1930  1.3665 -0.8397
  264MOL0     H35589  10.382   3.792  10.246  0.8247  1.3859 -0.1729
  264MOL0     H35590  10.358   3.668  10.114 -2.4302  0.7511 -1.0768
  264MOL0     H35591  10.498   3.768   9.879 -0.0318 -1.9823 -0.3407
  264MOL0     H35592  10.705   3.764   9.758 -0.0029 -1.0407 -0.3494
  264MOL0     H35593  10.837   3.848   9.839  0.9210 -0.7275  1.7265
  264MOL0     H35594  10.772   3.557   9.906 -0.9630 -1.6471 -2.1361
  264MOL0     H35595  10.851   3.569   9.744 -2.7192  0.9739 -0.6699
  264MOL0     H35596  10.969   3.681  10.003 -0.0949 -2.3466  1.5401
  264MOL0     H35597  11.032   3.714   9.844 -1.0798 -0.2707 -0.1901
  264MOL0     H35598  11.032   3.475   9.812 -3.5821  1.8048 -0.3310
  264MOL0     H35599  10.989   3.442   9.975 -1.0269 -0.6933 -2.4914
  264MOL0     H35600  11.201   3.583   9.703  0.3259  0.1119 -1.0997
  264MOL0     H35601  11.336   3.470   9.546 -0.5593  0.2890 -0.0249
  264MOL0     H35602  11.816   3.489   9.475 -0.7789 -0.7587  0.1637
  264MOL0     H35603  11.972   3.445   9.288  0.7756  0.5903  0.7102
  264MOL0     H35604  12.218   3.084   9.135  0.3285 -0.6281  3.1632
  264MOL0     H35605  12.084   3.000   9.203  0.3044 -0.9759 -1.1179
  264MOL0     H35606  11.919   3.063   9.039 -0.3141  0.5469 -0.4217
  264MOL0     H35607  12.037   3.168   8.948  3.2966  0.2016  0.4790
  264MOL0     H35608  12.029   2.960   8.827  0.6889 -2.4661 -0.0364
  264MOL0     H35609  12.179   2.976   8.915  0.4318  2.1447  2.2355
  264MOL0     H35610  11.955   2.816   9.059  1.3884 -1.5371  2.6135
  264MOL0     H35611  12.117   2.820   9.093 -2.7400  3.9836  2.9054
  264MOL0     H35612  12.149   2.715   8.844 -0.6629  0.7452 -1.0400
  264MOL0     H35613  11.977   2.693   8.838 -1.0667 -1.4206  0.2713
  264MOL0     H35614  12.041   2.481   8.915 -4.1175  0.4987 -0.6183
  264MOL0     H35615  12.160   2.560   9.033  0.0634  0.5724 -1.7310
  264MOL0     H35616  11.862   2.532   9.043 -0.2801 -2.3665  1.7798
  264MOL0     H35617  11.954   2.618   9.168  2.3730 -1.1793  3.1211
  264MOL0     H35618  12.070   2.418   9.232  1.2614 -2.1858 -0.5436
  264MOL0     H35619  11.887   2.382   9.211 -1.8865  2.7601 -3.6527
  264MOL0     H35620  11.930   3.014   9.365 -2.1024 -1.5794  0.1564
  264MOL0     H35621  11.771   3.070   9.520 -2.7263  0.2163 -0.8889
  264MOL0     H35622  11.586   3.333   9.872  1.6646  2.3086  0.4257
  264MOL0     H35623  11.416   3.407  10.028 -1.3680  1.6552  0.5944
  264MOL0     H35624   9.443   4.296  10.420  0.5550  0.8075 -0.1691
  264MOL0     H35625   9.219   4.265  10.483  0.4256  1.7345 -1.4891
  264MOL0     H35626   8.786   4.258  10.458  1.0531  1.2562  1.7213
  264MOL0     H35627   8.542   4.230  10.502  1.0492  0.4593 -2.7438
  264MOL0     H35628   8.419   3.834  10.730 -0.4654 -2.1815 -1.7583
  264MOL0     H35629   8.417   3.819  10.555 -1.1887  1.1497 -0.8195
  264MOL0     H35630   8.203   3.960  10.557  1.8097 -0.8274 -1.1864
  264MOL0     H35631   8.201   3.940  10.730 -1.6725 -1.9181  1.2002
  264MOL0     H35632   8.152   3.724  10.533 -2.3376  1.5927 -0.6141
  264MOL0     H35633   8.050   3.777  10.650  0.4768  2.9995 -1.8342
  264MOL0     H35634   8.300   3.617  10.666 -0.6700 -1.1930 -0.6674
  264MOL0     H35635   8.254   3.717  10.810 -1.1902 -0.8538  0.9068
  264MOL0     H35636   7.994   3.391  10.860  2.3039 -1.6751 -0.4214
  264MOL0     H35637   8.630   3.831  10.660  1.1313 -0.7157  0.0478
  264MOL0     H35638   8.828   3.735  10.670 -1.2193  0.7764 -0.7201
  264MOL0     H35639   8.941   3.797  10.556  0.2759 -0.9397  0.7104
  264MOL0     H35640   8.938   3.877  10.716  0.9249 -2.3409  1.0714
  265MOL0     O35641   4.770  11.327   8.718 -0.4174  0.1975  0.4377
  265MOL0     C35642   4.794  11.208   8.686  0.2915  0.2976  0.7800
  265MOL0     O35643   4.915  11.156   8.657 -0.2167  0.0284  0.2988
  265MOL0     C35644   5.032  11.231   8.678  0.3679  0.2042 -0.8066
  265MOL0     C35645   5.076  11.255   8.813 -0.7656  0.9904  0.2220
  265MOL0     C35646   5.198  11.297   8.830  0.1253 -0.4483  0.2612
  265MOL0     C35647   5.285  11.345   8.725  0.0270 -1.2392  0.2106
  265MOL0     O35648   5.401  11.401   8.764  0.3753 -0.6151  0.0185
  265MOL0     C35649   5.507  11.394   8.683  0.4140 -0.3097  1.0365
  265MOL0     C35650   5.622  11.384   8.780  0.7516 -0.7699  0.0596
  265MOL0     C35651   5.638  11.527   8.859 -0.6313  0.1796  0.2642
  265MOL0     C35652   5.789  11.556   8.905 -0.1763  0.7134  0.6570
  265MOL0     C35653   5.812  11.676   8.986 -0.0155 -0.1592 -0.0498
  265MOL0     C35654   5.969  11.699   8.987  0.0002  0.3450 -0.0058
  265MOL0     C35655   6.003  11.822   9.082  0.4700  0.3532  0.1115
  265MOL0     C35656   5.977  11.959   9.008  0.2466 -0.0362  0.4708
  265MOL0     N35657   5.847  11.982   8.942 -0.1578  0.5325 -0.5133
  265MOL0     C35658   5.727  12.004   9.004 -0.9945  0.8281  0.1298
  265MOL0     C35659   5.649  12.049   8.901  0.4458 -0.4764 -0.1764
  265MOL0     C35660   5.513  12.096   8.912 -0.5903 -0.2152 -0.7775
  265MOL0     C35661   5.424  11.987   8.858 -0.0535 -0.3540  0.6595
  265MOL0     C35662   5.424  11.859   8.952 -0.3135 -0.1933  0.1505
  265MOL0     C35663   5.308  11.761   8.915 -0.4309 -0.6513  0.0955
  265MOL0     O35664   5.281  11.679   9.033 -0.1059 -0.2811  0.1117
  265MOL0     C35665   5.163  11.626   9.042 -0.8262 -0.2450 -0.1195
  265MOL0     C35666   5.077  11.602   8.933 -0.6515 -0.7422  0.2738
  265MOL0     C35667   4.956  11.538   8.955 -0.4616  0.0904  0.9910
  265MOL0     C35668   4.917  11.483   9.076 -0.6243  0.6492 -0.2732
  265MOL0     C35669   4.798  11.404   9.085 -0.8933 -0.1320 -0.3125
  265MOL0     O35670   4.791  11.293   9.161 -1.1435 -0.0413 -0.4762
  265MOL0     C35671   4.670  11.226   9.155  0.5670  0.2151  0.4465
  265MOL0     C35672   4.673  11.091   9.100 -0.9429 -0.6782  0.1427
  265MOL0     C35673   4.567  11.001   9.111  0.2194 -0.6044  1.0402
  265MOL0     C35674   4.447  11.051   9.161 -0.3391 -1.0564  0.7678
  265MOL0     O35675   4.349  10.968   9.182  0.3010 -0.4260 -0.1703
  265MOL0     C35676   4.349  10.875   9.289 -0.2388 -0.3413  0.6996
  265MOL0     C35677   4.220  10.795   9.277  0.2717  1.3883 -0.6277
  265MOL0     C35678   4.217  10.688   9.163 -0.4659 -0.3023 -0.6030
  265MOL0     C35679   4.326  10.574   9.176 -0.8665  0.1680  0.6023
  265MOL0     C35680   4.284  10.453   9.081 -0.1562  0.3384  0.1589
  265MOL0     C35681   4.400  10.352   9.071  0.3769  0.5931 -0.4445
  265MOL0     C35682   4.358  10.233   8.996 -0.4198  0.7232  1.0592
  265MOL0     C35683   4.444  10.113   9.012  0.3245  0.1619  0.7340
  265MOL0    Cl35684   4.463  10.058   9.190 -0.0541 -0.2155 -0.2125
  265MOL0     C35685   4.436  11.187   9.197  0.4381  0.6150 -0.4175
  265MOL0     C35686   4.542  11.274   9.194  0.1403 -0.4217 -0.0956
  265MOL0     O35687   4.713  11.445   9.012 -0.2448 -0.1592 -0.3915
  265MOL0     C35688   5.008  11.480   9.182  0.1500 -0.0991 -0.6563
  265MOL0     C35689   5.122  11.558   9.163 -0.0968  0.6344  0.5426
  265MOL0     N35690   5.721  12.076   8.790 -0.3984  0.1065 -0.5880
  265MOL0     N35691   5.839  12.021   8.817 -0.2823 -0.2950  0.0829
  265MOL0     C35692   5.235  11.331   8.598  0.2790  0.4372  0.3994
  265MOL0     C35693   5.116  11.262   8.575  0.9978  0.1775  0.1809
  265MOL0     C35694   4.673  11.123   8.678  1.0342 -0.7959  0.2330
  265MOL0     C35695   4.588  11.128   8.783 -0.3890  1.0963  0.0914
  265MOL0     C35696   4.474  11.051   8.772  0.2181  0.1371 -1.3420
  265MOL0     C35697   4.437  10.978   8.666 -0.6885 -0.1466  0.4630
  265MOL0     O35698   4.323  10.910   8.647  0.0675 -0.2532 -0.0126
  265MOL0     C35699   4.277  10.847   8.769 -0.0379  0.6152 -0.1056
  265MOL0     C35700   4.203  10.711   8.741  0.7316 -0.1025  0.6027
  265MOL0     C35701   4.275  10.636   8.625 -0.1364 -0.2506  0.0650
  265MOL0     C35702   4.432  10.611   8.652 -0.3470 -0.9207  0.8725
  265MOL0     C35703   4.507  10.580   8.532  0.2642  0.2721  0.1316
  265MOL0     C35704   4.559  10.546   8.431 -0.1502  0.1072 -0.3567
  265MOL0     C35705   4.528  10.966   8.564  0.9936 -0.4257  1.3339
  265MOL0     C35706   4.648  11.030   8.575  0.1929 -0.1707 -0.0775
  265MOL0     C35707   4.732  11.025   8.447 -0.4408  0.3023 -0.2131
  265MOL0     H35708   5.004  11.228   8.890 -2.4227  0.5088 -1.4184
  265MOL0     H35709   5.226  11.321   8.932 -0.6916  0.8956  0.1877
  265MOL0     H35710   5.510  11.320   8.602  0.4514 -0.1970  0.9353
  265MOL0     H35711   5.518  11.489   8.631 -0.7376 -0.5729  0.2788
  265MOL0     H35712   5.712  11.359   8.724  1.2442 -0.2233  0.5858
  265MOL0     H35713   5.610  11.308   8.858  1.7277  0.6030  1.6067
  265MOL0     H35714   5.571  11.536   8.945 -2.5574  3.2752 -1.3776
  265MOL0     H35715   5.606  11.613   8.800  0.0065  2.4639  3.0187
  265MOL0     H35716   5.825  11.465   8.955  2.7224  0.0343 -2.2557
  265MOL0     H35717   5.838  11.571   8.808  2.0058 -3.6803  0.8160
  265MOL0     H35718   5.766  11.747   8.917  0.2075 -1.3614 -1.4620
  265MOL0     H35719   5.762  11.667   9.083 -0.1043  2.0898  0.1836
  265MOL0     H35720   5.998  11.606   9.037  0.9299 -0.5410 -2.0690
  265MOL0     H35721   6.012  11.709   8.887 -0.5673 -0.6718 -0.3731
  265MOL0     H35722   6.111  11.809   9.094  0.0369 -2.2847  2.2486
  265MOL0     H35723   5.959  11.819   9.182  0.1296  2.3638  0.0629
  265MOL0     H35724   5.989  12.039   9.082  0.2480  2.1909 -1.8205
  265MOL0     H35725   6.061  11.963   8.938 -0.3555  1.0552 -0.1977
  265MOL0     H35726   5.699  11.999   9.109 -0.8966 -0.3785  0.1031
  265MOL0     H35727   5.494  12.108   9.019  1.3269 -2.2119 -0.1583
  265MOL0     H35728   5.499  12.189   8.855  2.5254  0.5472 -0.4423
  265MOL0     H35729   5.325  12.034   8.848  0.2044 -0.3089 -2.4459
  265MOL0     H35730   5.447  11.950   8.758 -1.8382 -2.2415  0.8765
  265MOL0     H35731   5.402  11.901   9.050 -2.4457 -0.7208 -0.0480
  265MOL0     H35732   5.516  11.799   8.946  0.8784  1.6354 -4.4390
  265MOL0     H35733   5.332  11.698   8.829  1.2449  0.8448 -0.5883
  265MOL0     H35734   5.215  11.812   8.889  0.3440  0.9522  0.3496
  265MOL0     H35735   5.106  11.638   8.835  0.4712  1.0120  1.1869
  265MOL0     H35736   4.912  11.518   8.857  1.4951  1.4594 -0.2319
  265MOL0     H35737   4.766  11.048   9.065  0.1143  0.2295  1.7199
  265MOL0     H35738   4.577  10.893   9.103  0.6872 -0.5002  0.0760
  265MOL0     H35739   4.435  10.809   9.278  2.9957  3.8060 -1.9548
  265MOL0     H35740   4.362  10.928   9.384  0.8989  0.7092 -0.0057
  265MOL0     H35741   4.215  10.750   9.377 -0.5274  2.3708 -0.2137
  265MOL0     H35742   4.132  10.860   9.273 -2.5370 -1.9010  1.6872
  265MOL0     H35743   4.115  10.649   9.157  0.1573 -2.3833  1.0463
  265MOL0     H35744   4.234  10.745   9.071 -1.3967  3.2443  1.2570
  265MOL0     H35745   4.332  10.535   9.278  2.6761 -2.9257 -0.5569
  265MOL0     H35746   4.424  10.621   9.160 -1.1155  0.3572 -0.4344
  265MOL0     H35747   4.249  10.492   8.985  0.0927  1.9713  0.6954
  265MOL0     H35748   4.197  10.403   9.124  0.9349 -0.6674  1.2516
  265MOL0     H35749   4.482  10.402   9.019 -0.2824 -0.2057 -2.3278
  265MOL0     H35750   4.437  10.334   9.172 -0.5687  0.7095 -0.0654
  265MOL0     H35751   4.351  10.248   8.888  1.0998  2.5930  1.1829
  265MOL0     H35752   4.262  10.195   9.031 -0.2243 -0.0676  0.7674
  265MOL0     H35753   4.389  10.031   8.964  1.6388  0.9223 -2.2832
  265MOL0     H35754   4.542  10.132   8.968  0.6724  1.9392  2.1501
  265MOL0     H35755   4.341  11.222   9.237  0.0419  0.7434 -1.4575
  265MOL0     H35756   4.535  11.378   9.225  1.5008 -0.2917 -0.1797
  265MOL0     H35757   4.991  11.439   9.281  0.9149  1.4973  0.1728
  265MOL0     H35758   5.190  11.585   9.243 -1.1748  2.3923  0.9026
  265MOL0     H35759   5.290  11.355   8.507 -1.0956  0.0036 -0.5819
  265MOL0     H35760   5.077  11.236   8.478  3.7929 -0.4286 -0.8935
  265MOL0     H35761   4.599  11.187   8.873 -1.0935  0.9102  0.3063
  265MOL0     H35762   4.405  11.050   8.856  0.5515 -3.3450 -0.9573
  265MOL0     H35763   4.215  10.924   8.816 -1.4378 -0.7034  0.2844
  265MOL0     H35764   4.348  10.830   8.851  0.8348 -0.9198 -1.1369
  265MOL0     H35765   4.103  10.740   8.704 -0.1038 -3.6079 -0.2530
  265MOL0     H35766   4.179  10.644   8.824  1.9203 -2.3086 -0.7428
  265MOL0     H35767   4.256  10.698   8.537 -0.0802  3.3577  2.3534
  265MOL0     H35768   4.233  10.538   8.604 -0.0966 -0.2803  0.1211
  265MOL0     H35769   4.469  10.699   8.706 -4.4437  0.9028  1.0873
  265MOL0     H35770   4.430  10.523   8.717 -2.5872 -2.1632 -0.7115
  265MOL0     H35771   4.617  10.506   8.351  2.4582  0.1923  1.3581
  265MOL0     H35772   4.495  10.911   8.477  1.4702 -0.8591  1.4187
  265MOL0     H35773   4.707  10.938   8.386 -1.8239 -1.9717  3.2885
  265MOL0     H35774   4.722  11.122   8.397  3.1359  1.3184  0.7528
  265MOL0     H35775   4.840  11.023   8.460 -0.3516 -1.4554 -0.9026
  266MOL0     O35776  10.569  10.749   7.388 -0.1031  0.3462  0.3433
  266MOL0     C35777  10.542  10.869   7.375  0.2771  1.1841  0.5324
  266MOL0     O35778  10.499  10.947   7.481 -0.0939 -0.1801 -0.4907
  266MOL0     C35779  10.526  10.903   7.618  0.1457  0.0880  0.3647
  266MOL0     C35780  10.430  10.822   7.681  0.4278  0.2411 -1.4568
  266MOL0     C35781  10.459  10.772   7.817 -0.1554 -0.3990 -0.2163
  266MOL0     C35782  10.582  10.800   7.876 -0.2593  0.0915 -0.0167
  266MOL0     O35783  10.599  10.759   8.006  0.2555 -0.4644 -0.1322
  266MOL0     C35784  10.705  10.660   8.023  0.2839  1.1363 -0.1505
  266MOL0     C35785  10.693  10.606   8.161  0.1320  0.2552 -0.0432
  266MOL0     C35786  10.810  10.512   8.184 -0.5058  0.5193  0.6382
  266MOL0     C35787  10.788  10.424   8.306  1.4606  0.1070 -0.0633
  266MOL0     C35788  10.908  10.335   8.349  0.6270 -0.2114  0.0556
  266MOL0     C35789  10.882  10.278   8.493 -0.9455  0.3983 -0.0906
  266MOL0     C35790  11.015  10.217   8.556  0.8358  0.1746  0.6946
  266MOL0     C35791  10.990  10.117   8.664  0.9351 -0.5628  0.1314
  266MOL0     N35792  10.898  10.164   8.773 -0.2156 -0.7013  0.6680
  266MOL0     C35793  10.766  10.114   8.797  0.0095  0.3890 -0.6186
  266MOL0     C35794  10.721  10.205   8.886 -0.6159 -0.3629  1.0380
  266MOL0     C35795  10.575  10.215   8.929  0.1012  0.7659  0.1591
  266MOL0     C35796  10.567  10.286   9.066  0.0880  0.2172  0.2023
  266MOL0     C35797  10.636  10.211   9.175  0.3353  0.1060 -0.2852
  266MOL0     C35798  10.601  10.278   9.310  0.3199 -0.6297 -1.0155
  266MOL0     O35799  10.669  10.210   9.414  0.2079 -0.5176 -0.6789
  266MOL0     C35800  10.594  10.117   9.482 -1.1923 -0.2555  0.3376
  266MOL0     C35801  10.549   9.990   9.424 -0.6834 -0.3370  0.4974
  266MOL0     C35802  10.479   9.895   9.491 -0.2477 -0.4881  0.2214
  266MOL0     C35803  10.448   9.918   9.633  0.9135 -0.1521 -0.0774
  266MOL0     C35804  10.384   9.807   9.716 -0.4489  0.3402  0.1934
  266MOL0     O35805  10.368   9.816   9.857  0.4197 -0.6216 -0.2370
  266MOL0     C35806  10.265   9.747   9.920  0.0029 -0.5212  0.0539
  266MOL0     C35807  10.155   9.805   9.964  0.6305 -0.6417  0.1358
  266MOL0     C35808  10.053   9.739  10.032 -0.2280  0.1753 -0.1807
  266MOL0     C35809  10.064   9.599  10.049  1.3339 -0.0307  0.2101
  266MOL0     O35810   9.952   9.545  10.097  0.4331 -0.1282 -0.5883
  266MOL0     C35811   9.982   9.422  10.165 -0.0692 -0.7194 -0.3832
  266MOL0     C35812   9.848   9.386  10.240 -1.1749 -0.2168  0.1829
  266MOL0     C35813   9.722   9.361  10.162  0.0068  0.8822 -0.1441
  266MOL0     C35814   9.652   9.497  10.123 -0.4046 -0.2440 -0.4699
  266MOL0     C35815   9.593   9.487   9.982 -1.1140  0.1732  0.4951
  266MOL0     C35816   9.532   9.614   9.935  0.1948  0.4308  0.6776
  266MOL0     C35817   9.512   9.612   9.781  0.7961  1.5997 -1.2070
  266MOL0     C35818   9.510   9.761   9.742 -0.5837  0.0667  0.9103
  266MOL0    Cl35819   9.359   9.830   9.816  0.2941 -0.0683  0.1345
  266MOL0     C35820  10.180   9.539  10.005  0.1364  0.7031  0.7067
  266MOL0     C35821  10.288   9.612   9.947  0.8316  0.0219 -0.2940
  266MOL0     O35822  10.329   9.723   9.646  0.2120 -0.6067  0.6325
  266MOL0     C35823  10.487  10.042   9.686 -0.3431  0.6800 -0.5503
  266MOL0     C35824  10.555  10.135   9.616  0.3151  0.6698  0.3769
  266MOL0     N35825  10.823  10.297   8.925  0.7702  0.3251  0.0380
  266MOL0     N35826  10.929  10.281   8.853 -0.1880 -0.0346  0.3932
  266MOL0     C35827  10.677  10.882   7.809 -0.2651  0.4529  0.8707
  266MOL0     C35828  10.650  10.934   7.678 -0.0717 -0.0420  0.2861
  266MOL0     C35829  10.555  10.938   7.251  0.8860 -0.1713  0.9226
  266MOL0     C35830  10.443  11.026   7.221 -0.1934 -0.7699 -1.0600
  266MOL0     C35831  10.438  11.097   7.102  0.9796  0.3052 -0.6364
  266MOL0     C35832  10.545  11.109   7.014  0.0650  0.3262  0.1590
  266MOL0     O35833  10.542  11.185   6.898 -0.0511  0.4272  0.1946
  266MOL0     C35834  10.430  11.283   6.876 -0.4371  0.0150 -1.1027
  266MOL0     C35835  10.452  11.390   6.762 -0.5969  0.4320 -0.7739
  266MOL0     C35836  10.560  11.492   6.808  0.0090  0.7825  0.3802
  266MOL0     C35837  10.588  11.601   6.712  0.2965 -0.2651 -0.2630
  266MOL0     C35838  10.692  11.687   6.760 -0.4090  0.4455  0.2326
  266MOL0     C35839  10.772  11.754   6.810  0.6807  0.0002 -0.5834
  266MOL0     C35840  10.642  11.018   7.030 -0.1811  0.1268 -1.2177
  266MOL0     C35841  10.657  10.928   7.144 -0.3657 -0.6243 -0.0259
  266MOL0     C35842  10.770  10.821   7.153  1.2091 -0.2128  0.5480
  266MOL0     H35843  10.332  10.801   7.640 -1.3399  0.7550  2.1018
  266MOL0     H35844  10.381  10.712   7.864 -1.6079 -0.6457 -2.7764
  266MOL0     H35845  10.692  10.582   7.946 -0.8667  0.2834  0.8668
  266MOL0     H35846  10.803  10.707   8.015 -0.0881  1.9955  0.2500
  266MOL0     H35847  10.601  10.548   8.175  1.8942 -2.6075  0.4353
  266MOL0     H35848  10.704  10.690   8.230 -0.4239  3.1977 -3.2344
  266MOL0     H35849  10.899  10.572   8.203  0.1014  0.7037 -2.3373
  266MOL0     H35850  10.825  10.452   8.094  1.1114  0.5517  0.8594
  266MOL0     H35851  10.765  10.481   8.397 -2.0184 -0.9298 -0.1391
  266MOL0     H35852  10.699  10.363   8.288  0.6264  0.7462  1.6994
  266MOL0     H35853  10.944  10.257   8.282  3.2384  1.3684 -0.5113
  266MOL0     H35854  10.991  10.404   8.363 -0.8173  1.2371  2.1650
  266MOL0     H35855  10.860  10.367   8.553  1.4845  0.2121  1.1803
  266MOL0     H35856  10.793  10.214   8.497 -3.0255  2.8357 -2.6120
  266MOL0     H35857  11.074  10.303   8.589  1.7061 -1.2366  3.1048
  266MOL0     H35858  11.062  10.159   8.476 -2.2267 -0.0255 -1.1025
  266MOL0     H35859  10.944  10.033   8.610  2.1411  0.4555 -2.7143
  266MOL0     H35860  11.091  10.103   8.703  1.4570 -1.8204 -1.5241
  266MOL0     H35861  10.714  10.033   8.748  1.7796 -2.1427  1.3802
  266MOL0     H35862  10.521  10.283   8.862 -2.3551  0.1059  1.3665
  266MOL0     H35863  10.527  10.117   8.939  2.5516 -0.3093  2.5447
  266MOL0     H35864  10.614  10.383   9.046  0.5079 -0.2317 -1.0560
  266MOL0     H35865  10.462  10.297   9.098  0.7889 -0.4305  2.9949
  266MOL0     H35866  10.743  10.216   9.153  1.1973 -0.9970  2.9381
  266MOL0     H35867  10.586  10.114   9.173 -1.0250  0.8120 -1.6128
  266MOL0     H35868  10.493  10.284   9.328 -0.3571 -3.3621 -3.3624
  266MOL0     H35869  10.636  10.382   9.301 -1.9983  0.2664 -0.5623
  266MOL0     H35870  10.577   9.971   9.320 -0.9716 -2.1422  0.7205
  266MOL0     H35871  10.454   9.806   9.433  3.3863 -1.0192 -0.7794
  266MOL0     H35872  10.130   9.907   9.933  1.4468  0.2234  2.1430
  266MOL0     H35873   9.970   9.794  10.075 -1.5963 -1.9411  0.0494
  266MOL0     H35874  10.000   9.332  10.104 -0.7068 -0.6866 -0.6258
  266MOL0     H35875  10.065   9.441  10.233 -0.2207 -4.0504  0.9417
  266MOL0     H35876   9.875   9.301  10.303  0.4879  0.3795  0.3195
  266MOL0     H35877   9.832   9.469  10.309 -1.1325 -2.2150  2.7549
  266MOL0     H35878   9.729   9.299  10.072 -0.8618  1.9906 -1.0067
  266MOL0     H35879   9.651   9.300  10.219 -0.6445 -1.2852 -3.0010
  266MOL0     H35880   9.716   9.584  10.137 -1.7518  0.3241  3.2988
  266MOL0     H35881   9.566   9.506  10.190  0.2643  2.8874  0.1347
  266MOL0     H35882   9.527   9.401   9.977 -0.2083 -0.4559 -2.7856
  266MOL0     H35883   9.677   9.475   9.913 -2.5846  2.5965 -1.9189
  266MOL0     H35884   9.439   9.617   9.994  0.6227 -2.1871  1.6268
  266MOL0     H35885   9.587   9.707   9.952  1.1160  0.5277 -2.3532
  266MOL0     H35886   9.416   9.575   9.744  1.0905  0.5756 -0.9581
  266MOL0     H35887   9.581   9.550   9.724 -0.5478 -1.3696  0.2088
  266MOL0     H35888   9.603   9.818   9.752 -0.4121  0.9362 -3.5291
  266MOL0     H35889   9.500   9.762   9.634 -2.6883  2.0523  1.0487
  266MOL0     H35890  10.190   9.431  10.004  0.4623  0.7295  0.8106
  266MOL0     H35891  10.382   9.558   9.935  0.7082  0.1614 -2.0935
  266MOL0     H35892  10.466  10.070   9.789 -3.7172  0.3421 -1.0304
  266MOL0     H35893  10.581  10.228   9.664  3.6148  0.6388 -1.0795
  266MOL0     H35894  10.771  10.920   7.848  2.3148 -3.5524 -0.8484
  266MOL0     H35895  10.724  10.985   7.619  0.3240 -1.0621 -0.1176
  266MOL0     H35896  10.365  11.038   7.295 -1.2625 -1.0022 -2.1136
  266MOL0     H35897  10.342  11.143   7.083 -0.0863 -0.7556  1.7524
  266MOL0     H35898  10.400  11.338   6.966  2.5144  2.4937 -1.4594
  266MOL0     H35899  10.344  11.225   6.844 -0.6020 -0.7205  0.5778
  266MOL0     H35900  10.361  11.441   6.731  1.4046  3.2125 -2.5422
  266MOL0     H35901  10.509  11.348   6.678  1.5640 -0.3428  0.9644
  266MOL0     H35902  10.651  11.432   6.823  0.3804  1.2461  0.0033
  266MOL0     H35903  10.535  11.530   6.907 -0.8997 -0.8012  0.7913
  266MOL0     H35904  10.609  11.564   6.611 -1.6362 -0.8727 -0.4776
  266MOL0     H35905  10.492  11.652   6.699  0.8358  1.1805  1.1418
  266MOL0     H35906  10.847  11.812   6.859  3.7232 -4.1375  0.2054
  266MOL0     H35907  10.723  11.011   6.957 -1.4556 -1.5754 -2.5487
  266MOL0     H35908  10.731  10.721   7.171  0.9165  0.0364  1.3558
  266MOL0     H35909  10.823  10.812   7.058 -2.8919 -1.9136 -1.8663
  266MOL0     H35910  10.839  10.838   7.236  2.1407 -3.3159  0.5174
  267MOL0     O35911   8.379   6.765  10.625 -1.1570 -0.8922  0.6029
  267MOL0     C35912   8.424   6.683  10.693 -0.2019  0.6768 -0.4437
  267MOL0     O35913   8.490   6.570  10.646  0.5985  0.4825 -0.3030
  267MOL0     C35914   8.495   6.536  10.512  0.4380  0.2945 -0.0436
  267MOL0     C35915   8.376   6.492  10.453 -0.3106 -1.0802 -0.0226
  267MOL0     C35916   8.384   6.461  10.316 -0.5602 -0.8009  1.2251
  267MOL0     C35917   8.506   6.462  10.242  0.3835 -0.1009 -0.4605
  267MOL0     O35918   8.500   6.438  10.104  0.0804 -0.9209 -0.5723
  267MOL0     C35919   8.585   6.532  10.027  0.0288  0.3449 -0.5716
  267MOL0     C35920   8.550   6.516   9.883 -0.2639 -0.8109  0.1044
  267MOL0     C35921   8.404   6.563   9.842  0.0839 -0.1577 -0.8063
  267MOL0     C35922   8.366   6.521   9.696 -0.1669 -0.2463 -0.7278
  267MOL0     C35923   8.214   6.532   9.662  0.1176 -1.4339  0.7065
  267MOL0     C35924   8.152   6.679   9.688  0.1891  0.6692 -0.1847
  267MOL0     C35925   8.020   6.710   9.607 -0.1016 -0.1032  0.1083
  267MOL0     C35926   7.902   6.613   9.625 -0.0436 -0.3974 -0.0320
  267MOL0     N35927   7.784   6.648   9.537  0.4467 -0.0486  0.4994
  267MOL0     C35928   7.772   6.641   9.395  0.6706 -0.1259 -0.0782
  267MOL0     C35929   7.647   6.695   9.367 -0.7933 -0.6477  0.3886
  267MOL0     C35930   7.582   6.677   9.240  0.1002  0.5661  0.0178
  267MOL0     C35931   7.433   6.624   9.259 -0.7083 -0.0946 -0.0580
  267MOL0     C35932   7.339   6.744   9.289  0.5431 -0.4603 -0.1626
  267MOL0     C35933   7.208   6.707   9.369 -0.8863  0.7207  0.0261
  267MOL0     O35934   7.146   6.823   9.400  0.2791 -0.3601  0.3181
  267MOL0     C35935   7.030   6.809   9.479  0.4456  0.3690  0.4714
  267MOL0     C35936   6.949   6.925   9.520 -0.5021  0.3807 -0.1573
  267MOL0     C35937   6.827   6.901   9.586 -0.1939  0.5769 -0.0705
  267MOL0     C35938   6.788   6.777   9.634  0.4339 -0.4821  0.1393
  267MOL0     C35939   6.655   6.751   9.711 -0.0614  0.0533  0.2741
  267MOL0     O35940   6.594   6.866   9.773 -0.0290 -0.4156 -0.6091
  267MOL0     C35941   6.464   6.865   9.798  1.0993  0.0175 -0.5434
  267MOL0     C35942   6.422   6.875   9.931  0.3683  0.2767  0.5003
  267MOL0     C35943   6.290   6.894   9.958  0.2530 -0.1799  0.8353
  267MOL0     C35944   6.200   6.909   9.848  1.0307  0.0463 -0.2746
  267MOL0     O35945   6.062   6.918   9.873 -0.1621 -0.0404 -0.5137
  267MOL0     C35946   6.011   7.008   9.964  1.5914  0.4788 -0.6144
  267MOL0     C35947   5.870   6.963  10.015 -0.1031 -0.6033  0.5813
  267MOL0     C35948   5.748   7.052   9.983 -0.3954  0.4770 -0.1150
  267MOL0     C35949   5.625   7.001  10.069  0.3093 -0.0094 -0.9663
  267MOL0     C35950   5.508   7.091  10.038  0.8083 -0.1227  0.6473
  267MOL0     C35951   5.374   7.036  10.080  0.1632 -0.1343 -0.0824
  267MOL0     C35952   5.259   7.145  10.073  0.0140  1.1293  0.2146
  267MOL0     C35953   5.132   7.081  10.107  0.5219  0.1361 -0.4551
  267MOL0    Cl35954   5.131   7.026  10.275  0.0060 -0.6107 -0.3119
  267MOL0     C35955   6.236   6.904   9.709 -0.5021  0.7543 -0.2964
  267MOL0     C35956   6.372   6.883   9.694  0.1191  0.0889 -0.8506
  267MOL0     O35957   6.586   6.654   9.679 -0.6003 -0.0021  0.3810
  267MOL0     C35958   6.865   6.671   9.596 -0.2186  0.4851  0.4673
  267MOL0     C35959   6.982   6.681   9.528  0.4487  0.4430 -1.1035
  267MOL0     N35960   7.591   6.755   9.487 -0.4652 -0.1366  0.1337
  267MOL0     N35961   7.675   6.721   9.587  0.2392 -0.6119 -1.0941
  267MOL0     C35962   8.613   6.497  10.314  0.1032  0.6520  0.0266
  267MOL0     C35963   8.617   6.516  10.449 -0.0870 -0.2212  0.7303
  267MOL0     C35964   8.405   6.696  10.844  0.3674  1.1167  0.3934
  267MOL0     C35965   8.448   6.579  10.910 -0.1278 -0.0861 -0.6705
  267MOL0     C35966   8.430   6.572  11.042  0.5846 -0.3963  0.5791
  267MOL0     C35967   8.358   6.673  11.119  0.0612  0.7211  1.1460
  267MOL0     O35968   8.339   6.670  11.248  0.2973  0.6936 -0.1008
  267MOL0     C35969   8.418   6.747  11.332  0.5213  0.7858  0.3184
  267MOL0     C35970   8.428   6.669  11.459  0.0228 -0.5949 -0.2586
  267MOL0     C35971   8.547   6.577  11.450 -0.6330  0.6507  0.0727
  267MOL0     C35972   8.548   6.490  11.574  0.0982  0.3406 -0.6286
  267MOL0     C35973   8.682   6.465  11.616  0.2406 -0.5354  0.0870
  267MOL0     C35974   8.792   6.433  11.662  0.5871  0.7664  0.5443
  267MOL0     C35975   8.317   6.783  11.046  0.0608  0.3177 -0.2689
  267MOL0     C35976   8.343   6.802  10.915  0.1178 -0.2388  0.1155
  267MOL0     C35977   8.312   6.935  10.852 -0.1928  0.2351  1.1878
  267MOL0     H35978   8.282   6.495  10.509 -0.9698 -1.8652 -1.0427
  267MOL0     H35979   8.299   6.445  10.252  0.1461 -1.1427  0.3531
  267MOL0     H35980   8.566   6.635  10.060  3.2104  1.0665 -0.6411
  267MOL0     H35981   8.692   6.517  10.047 -0.0065  2.5297  1.7414
  267MOL0     H35982   8.555   6.410   9.859 -2.3250 -0.5731 -1.5917
  267MOL0     H35983   8.619   6.574   9.821 -1.8846  1.2144  0.0869
  267MOL0     H35984   8.402   6.671   9.861 -0.5815 -0.3406  0.2231
  267MOL0     H35985   8.329   6.519   9.908 -0.1754 -1.5598 -1.9745
  267MOL0     H35986   8.423   6.580   9.624 -2.1634 -0.5791 -2.7019
  267MOL0     H35987   8.407   6.419   9.698  3.5502  1.0248  3.2911
  267MOL0     H35988   8.200   6.506   9.557  3.2691  1.8688 -0.7655
  267MOL0     H35989   8.165   6.454   9.719 -0.4061 -0.7921  1.1542
  267MOL0     H35990   8.135   6.674   9.796 -0.3566 -1.5329 -0.3183
  267MOL0     H35991   8.218   6.764   9.668  0.4196  0.1125 -1.9791
  267MOL0     H35992   8.065   6.707   9.507  2.6168 -0.5601  1.2666
  267MOL0     H35993   7.987   6.813   9.623  0.2743  0.3529 -1.7180
  267MOL0     H35994   7.938   6.510   9.612  0.6304 -0.0235 -1.3063
  267MOL0     H35995   7.867   6.620   9.728 -1.0154 -0.3758 -0.3532
  267MOL0     H35996   7.842   6.590   9.329  1.7491 -2.1540  2.4699
  267MOL0     H35997   7.584   6.774   9.189  2.1538  0.7649  0.3961
  267MOL0     H35998   7.630   6.605   9.173  0.6659  2.9096 -2.2541
  267MOL0     H35999   7.402   6.572   9.168 -0.6967  0.2476 -0.2622
  267MOL0     H36000   7.439   6.556   9.344 -0.9248  0.9475  0.8234
  267MOL0     H36001   7.318   6.798   9.196  1.8118 -1.8574 -1.3209
  267MOL0     H36002   7.387   6.823   9.347 -0.0862  0.3650 -0.7347
  267MOL0     H36003   7.231   6.649   9.459 -0.2292 -2.8145 -2.1991
  267MOL0     H36004   7.145   6.641   9.308  0.5534 -1.1701  0.4965
  267MOL0     H36005   6.974   7.028   9.495 -2.1133  1.2037  1.4221
  267MOL0     H36006   6.760   6.986   9.595 -4.3888 -1.8877 -3.8778
  267MOL0     H36007   6.488   6.847  10.012  0.5005 -1.4933 -0.1819
  267MOL0     H36008   6.255   6.891  10.061  4.2125 -1.4810  2.3331
  267MOL0     H36009   6.074   7.039  10.048  1.0775 -0.8504  0.2966
  267MOL0     H36010   6.002   7.101   9.907 -1.8501 -0.7220 -2.2811
  267MOL0     H36011   5.862   6.863   9.971  0.2242 -0.1691 -0.5143
  267MOL0     H36012   5.883   6.952  10.123 -0.3402 -0.0796  0.6670
  267MOL0     H36013   5.768   7.157  10.006  1.6515 -0.4999  3.1686
  267MOL0     H36014   5.732   7.051   9.874  0.6265  4.5670 -0.4922
  267MOL0     H36015   5.655   7.022  10.172  1.5921  0.4349 -1.4068
  267MOL0     H36016   5.595   6.901  10.037 -1.0517  0.1284 -0.2005
  267MOL0     H36017   5.509   7.116   9.931  0.7922 -0.8407  0.4755
  267MOL0     H36018   5.532   7.189  10.080  0.6799  0.1530  0.0918
  267MOL0     H36019   5.347   6.953  10.014 -3.2473 -1.2185  2.3669
  267MOL0     H36020   5.387   7.009  10.185  3.5433 -0.3562 -0.4474
  267MOL0     H36021   5.259   7.195   9.976 -2.0323  3.2143  1.2120
  267MOL0     H36022   5.277   7.220  10.150 -2.5420  0.1454  1.8710
  267MOL0     H36023   5.063   7.166  10.099  0.7924  0.6669  1.9791
  267MOL0     H36024   5.105   6.993  10.049 -0.1903  0.3504 -0.4564
  267MOL0     H36025   6.170   6.890   9.625 -0.9192  0.2180  0.1084
  267MOL0     H36026   6.414   6.873   9.594  1.8180  2.0844 -0.4052
  267MOL0     H36027   6.850   6.567   9.625  2.3939  0.0859  0.6821
  267MOL0     H36028   7.023   6.584   9.503  1.3542  0.9701 -1.7184
  267MOL0     H36029   8.708   6.488  10.262  0.0573 -0.1476  0.0584
  267MOL0     H36030   8.698   6.558  10.507 -0.6788  1.4768  0.3709
  267MOL0     H36031   8.496   6.494  10.862 -1.2100  0.2070 -2.3577
  267MOL0     H36032   8.447   6.477  11.092  0.0501 -0.9465 -0.2747
  267MOL0     H36033   8.360   6.836  11.354 -0.8244 -0.2409  1.0445
  267MOL0     H36034   8.517   6.767  11.290  1.2257  0.6016  1.8175
  267MOL0     H36035   8.334   6.620  11.485 -0.8441  1.4159  0.5918
  267MOL0     H36036   8.442   6.735  11.544 -1.8174 -0.4765 -0.0032
  267MOL0     H36037   8.642   6.632  11.446  0.5441 -1.1226  1.5931
  267MOL0     H36038   8.541   6.521  11.356 -1.8293 -0.3473  0.7172
  267MOL0     H36039   8.494   6.531  11.660 -0.9058 -1.6777 -0.2466
  267MOL0     H36040   8.503   6.397  11.540  0.3174  1.0235 -2.9980
  267MOL0     H36041   8.890   6.405  11.693  0.1135 -2.4859 -0.5891
  267MOL0     H36042   8.272   6.861  11.105  2.6132  0.7262  1.3043
  267MOL0     H36043   8.234   6.918  10.777  2.4318 -0.0250 -1.7075
  267MOL0     H36044   8.285   6.998  10.937 -0.5069 -2.2540  3.0613
  267MOL0     H36045   8.390   6.992  10.800  0.5804  0.5602  2.6585
  268MOL0     O36046  11.092   2.879   0.787 -0.5400 -0.3058 -0.7117
  268MOL0     C36047  11.108   2.833   0.896 -0.9979  0.1403 -0.0495
  268MOL0     O36048  11.005   2.801   0.985 -0.7762  0.0803  0.2846
  268MOL0     C36049  10.876   2.781   0.954 -0.6295  0.1374  0.6077
  268MOL0     C36050  10.800   2.745   1.065  1.1679  0.5515  0.8657
  268MOL0     C36051  10.662   2.719   1.043 -0.2593 -0.4667 -0.5336
  268MOL0     C36052  10.602   2.715   0.917 -0.8409  0.4152 -0.4850
  268MOL0     O36053  10.468   2.694   0.889 -0.0081  0.1030 -0.7299
  268MOL0     C36054  10.375   2.647   0.987 -0.3175  0.3608 -0.0884
  268MOL0     C36055  10.245   2.705   0.960  1.2780  0.1206 -0.5926
  268MOL0     C36056  10.144   2.622   1.035  0.6121 -0.2793 -0.3309
  268MOL0     C36057  10.002   2.651   0.992  1.0383  0.2736  0.0874
  268MOL0     C36058   9.898   2.574   1.070  0.3437 -0.3997 -0.3545
  268MOL0     C36059   9.844   2.621   1.211 -0.1302  0.1816 -0.1350
  268MOL0     C36060   9.765   2.512   1.286  0.5442 -0.3357  0.1657
  268MOL0     C36061   9.689   2.580   1.404  1.1484  0.5753 -0.2676
  268MOL0     N36062   9.776   2.597   1.522  0.9614 -0.1574  0.0591
  268MOL0     C36063   9.769   2.713   1.598 -0.5375  0.0002  0.1317
  268MOL0     C36064   9.862   2.690   1.688  0.0439 -0.1405  0.0690
  268MOL0     C36065   9.917   2.783   1.785  0.1169  1.2549  0.1291
  268MOL0     C36066   9.818   2.862   1.860 -1.1603 -0.3879 -0.1952
  268MOL0     C36067   9.854   2.883   2.006 -0.8624  0.1042 -0.2547
  268MOL0     C36068   9.807   3.013   2.063 -0.0779  0.6601 -0.0593
  268MOL0     O36069   9.859   3.130   1.988  0.3141 -0.0934 -0.5088
  268MOL0     C36070   9.795   3.253   2.005  0.0429 -0.0491  0.3350
  268MOL0     C36071   9.878   3.369   2.019 -0.4160  0.5142 -1.0440
  268MOL0     C36072   9.826   3.494   2.045 -0.0307  0.9566 -0.2255
  268MOL0     C36073   9.691   3.513   2.053 -0.0229 -0.5019  0.8632
  268MOL0     C36074   9.629   3.651   2.076 -0.5584  0.2957  0.6086
  268MOL0     O36075   9.495   3.668   2.047  0.9339  0.1235  0.3582
  268MOL0     C36076   9.453   3.800   2.025 -1.1444 -0.7329 -1.0916
  268MOL0     C36077   9.463   3.868   1.898 -0.4788 -0.6109 -0.2342
  268MOL0     C36078   9.411   3.996   1.877  0.7281 -0.7741 -0.3849
  268MOL0     C36079   9.367   4.069   1.985  0.4044  0.4444 -0.2782
  268MOL0     O36080   9.327   4.191   1.950 -0.6025  0.2374 -0.1947
  268MOL0     C36081   9.192   4.219   2.009 -0.2693  0.1375 -0.2357
  268MOL0     C36082   9.153   4.355   1.948  0.0437 -0.1955  0.1336
  268MOL0     C36083   9.256   4.478   1.993  0.1898  1.0154  0.6747
  268MOL0     C36084   9.198   4.618   2.019 -0.0011 -0.3964 -0.5981
  268MOL0     C36085   9.139   4.676   1.883  0.1996 -0.3698 -0.0259
  268MOL0     C36086   9.231   4.678   1.760  0.0038 -0.4859  0.0438
  268MOL0     C36087   9.344   4.778   1.768  0.4262 -0.0593 -0.1516
  268MOL0     C36088   9.420   4.767   1.646 -0.3507  0.4704 -0.0910
  268MOL0    Cl36089   9.576   4.850   1.642 -0.5018  0.1038 -0.2684
  268MOL0     C36090   9.380   4.015   2.111 -0.2737 -1.1194 -0.0147
  268MOL0     C36091   9.418   3.884   2.137  1.3295 -0.6059  0.1765
  268MOL0     O36092   9.709   3.735   2.123  0.9152 -0.6092 -0.2891
  268MOL0     C36093   9.606   3.405   2.036 -1.1905  0.5532 -0.2675
  268MOL0     C36094   9.656   3.273   2.014 -0.1375 -0.1373  0.2154
  268MOL0     N36095   9.921   2.568   1.665 -0.3022  0.5864  0.9493
  268MOL0     N36096   9.872   2.503   1.562  0.7151  0.5622  0.4001
  268MOL0     C36097  10.686   2.745   0.814 -0.1632  0.3304 -0.1743
  268MOL0     C36098  10.818   2.782   0.827 -0.6054  0.1379  0.3498
  268MOL0     C36099  11.241   2.830   0.956 -0.5779 -0.2159 -0.7604
  268MOL0     C36100  11.254   2.804   1.097 -0.2911  0.2043 -0.1744
  268MOL0     C36101  11.381   2.783   1.148 -0.0125  0.2255  0.0809
  268MOL0     C36102  11.501   2.810   1.084 -0.5175  0.5958 -0.2349
  268MOL0     O36103  11.620   2.810   1.146 -0.6350 -0.7604 -0.2592
  268MOL0     C36104  11.738   2.755   1.074  1.2194 -0.0089 -0.1829
  268MOL0     C36105  11.856   2.757   1.183  0.4663  0.4369  0.1642
  268MOL0     C36106  11.819   2.650   1.286 -0.1935  0.0067 -0.6902
  268MOL0     C36107  11.942   2.589   1.370  0.3825  0.3629 -0.0567
  268MOL0     C36108  11.992   2.696   1.454 -0.6593  0.8522  0.6754
  268MOL0     C36109  12.028   2.783   1.536 -0.2263  0.5028 -0.0322
  268MOL0     C36110  11.485   2.852   0.949  0.2962 -0.2164 -0.1514
  268MOL0     C36111  11.359   2.863   0.884  0.9934  0.7755 -0.5452
  268MOL0     C36112  11.358   2.898   0.741  0.2065 -0.3352  0.3730
  268MOL0     H36113  10.843   2.733   1.164 -1.2341  0.8879  2.0334
  268MOL0     H36114  10.618   2.710   1.141 -1.4232  0.6082 -0.9289
  268MOL0     H36115  10.363   2.541   0.965 -1.1740  0.9595 -2.8726
  268MOL0     H36116  10.412   2.669   1.088  2.3490 -1.4425 -0.5652
  268MOL0     H36117  10.229   2.701   0.852  1.2465  0.9294 -0.6290
  268MOL0     H36118  10.235   2.809   0.992  0.9619 -0.0381 -0.1754
  268MOL0     H36119  10.141   2.652   1.140  0.5875 -1.6751  0.0805
  268MOL0     H36120  10.157   2.514   1.025 -1.4156 -0.5752 -0.1763
  268MOL0     H36121   9.985   2.759   1.000  0.4667  0.2677 -0.7872
  268MOL0     H36122   9.993   2.614   0.889  1.1664  0.6246 -0.0529
  268MOL0     H36123   9.805   2.574   1.012 -0.9440 -1.5446  1.6242
  268MOL0     H36124   9.932   2.471   1.084 -1.1691 -0.5989  2.8096
  268MOL0     H36125   9.932   2.650   1.269  0.5523  1.1304 -1.5940
  268MOL0     H36126   9.786   2.712   1.193  1.1889  0.9485 -0.6746
  268MOL0     H36127   9.831   2.432   1.321 -1.0226 -1.5209  0.5247
  268MOL0     H36128   9.691   2.477   1.213  0.4816 -1.6046  0.8158
  268MOL0     H36129   9.657   2.678   1.369 -2.0027 -1.1007 -2.5995
  268MOL0     H36130   9.607   2.519   1.444  0.1608  1.9409 -0.1428
  268MOL0     H36131   9.706   2.799   1.576 -1.1827 -0.8057 -1.3030
  268MOL0     H36132   9.974   2.731   1.862  2.3069  3.3498  0.0280
  268MOL0     H36133   9.984   2.853   1.735 -0.9695  0.8281 -2.0430
  268MOL0     H36134   9.812   2.958   1.808 -0.5466 -1.1281 -1.6930
  268MOL0     H36135   9.721   2.814   1.849 -0.6007 -1.1195 -2.4383
  268MOL0     H36136   9.962   2.877   2.020 -1.0028  1.4918  1.8050
  268MOL0     H36137   9.818   2.797   2.062  1.9591 -0.3738  0.9936
  268MOL0     H36138   9.839   3.019   2.168  2.8057 -1.8703 -0.6473
  268MOL0     H36139   9.699   3.001   2.049 -0.0071  1.5535 -1.5404
  268MOL0     H36140   9.985   3.364   2.001 -0.0126 -0.9142  1.2932
  268MOL0     H36141   9.887   3.583   2.057  2.3085 -0.7134  0.9795
  268MOL0     H36142   9.493   3.812   1.810 -1.2425 -0.2940 -0.7060
  268MOL0     H36143   9.424   4.046   1.781  3.3216 -0.7264 -0.0799
  268MOL0     H36144   9.111   4.147   1.993  0.1458 -0.7109  1.3662
  268MOL0     H36145   9.201   4.232   2.117  1.9158 -2.6271  0.0337
  268MOL0     H36146   9.140   4.357   1.839  2.1285 -1.2986 -0.1849
  268MOL0     H36147   9.050   4.374   1.978 -0.5998 -1.8810 -0.9136
  268MOL0     H36148   9.305   4.440   2.083  1.2153 -1.0480 -0.6728
  268MOL0     H36149   9.330   4.489   1.914 -1.2479  1.0365 -0.7215
  268MOL0     H36150   9.272   4.689   2.056 -1.2113  0.4526  0.2845
  268MOL0     H36151   9.114   4.616   2.089  0.7781 -1.9376  0.3191
  268MOL0     H36152   9.104   4.779   1.895 -2.3397 -1.4382  3.5884
  268MOL0     H36153   9.066   4.601   1.850 -0.0317  0.7468 -2.2495
  268MOL0     H36154   9.258   4.578   1.724  0.5386 -0.0899 -0.6872
  268MOL0     H36155   9.168   4.725   1.684  0.2072  1.5697  1.0748
  268MOL0     H36156   9.412   4.743   1.845 -1.8345 -1.8240  1.1847
  268MOL0     H36157   9.314   4.882   1.784 -0.4857  0.0266 -2.0234
  268MOL0     H36158   9.431   4.660   1.626  0.4383  0.6915 -0.9572
  268MOL0     H36159   9.355   4.815   1.572 -0.1308 -0.1453 -0.6899
  268MOL0     H36160   9.363   4.081   2.196  3.4015  0.6234 -0.4262
  268MOL0     H36161   9.427   3.852   2.240  1.9839  1.7825  0.9291
  268MOL0     H36162   9.500   3.420   2.054 -1.5069 -0.4663 -1.1415
  268MOL0     H36163   9.598   3.184   1.995 -0.2523  0.0455 -0.2927
  268MOL0     H36164  10.642   2.717   0.719  0.2059 -0.7577 -0.0380
  268MOL0     H36165  10.876   2.813   0.740 -1.4377  2.4674  0.5516
  268MOL0     H36166  11.165   2.783   1.155 -2.4467  4.0080 -1.6974
  268MOL0     H36167  11.369   2.754   1.252 -3.5056 -2.4565 -0.8799
  268MOL0     H36168  11.759   2.816   0.986  0.8330  3.0162  1.6781
  268MOL0     H36169  11.715   2.652   1.044  1.5872 -0.2008  0.1752
  268MOL0     H36170  11.852   2.858   1.226 -1.0495  1.7865 -2.8518
  268MOL0     H36171  11.955   2.746   1.138  0.0979  1.2674 -0.8951
  268MOL0     H36172  11.757   2.576   1.235 -0.1836  0.6037 -1.5741
  268MOL0     H36173  11.750   2.691   1.360  1.3822  0.3936  0.6516
  268MOL0     H36174  11.915   2.504   1.434 -2.9343  0.3115 -1.3141
  268MOL0     H36175  12.017   2.555   1.298  1.7439  0.9797  1.0221
  268MOL0     H36176  12.052   2.859   1.607  1.6579  0.1823 -0.2727
  268MOL0     H36177  11.571   2.879   0.887 -1.5227 -0.0273 -2.7661
  268MOL0     H36178  11.458   2.924   0.703  1.9089 -1.1725  3.8255
  268MOL0     H36179  11.315   2.810   0.692 -1.3913  1.1649 -1.0656
  268MOL0     H36180  11.307   2.994   0.727  1.8502  0.6543  0.7871
  269MOL0     O36181   8.460  10.146   1.130 -0.1188 -0.2841  0.9184
  269MOL0     C36182   8.400  10.172   1.238 -0.3597  0.3295 -0.4765
  269MOL0     O36183   8.267  10.129   1.266 -0.2181 -0.1651  1.0704
  269MOL0     C36184   8.201  10.033   1.193  0.0531 -0.2816 -0.4842
  269MOL0     C36185   8.069  10.038   1.196  0.2590 -0.0112  0.8751
  269MOL0     C36186   7.990   9.944   1.130  0.3324  0.3086 -0.2220
  269MOL0     C36187   8.051   9.822   1.086 -1.2033 -0.8745 -0.5718
  269MOL0     O36188   7.962   9.723   1.051  0.7042 -0.7041  0.2600
  269MOL0     C36189   8.017   9.592   1.024 -0.0905 -0.9197  0.2697
  269MOL0     C36190   7.897   9.514   0.987  0.0290  0.2462 -0.2261
  269MOL0     C36191   7.941   9.364   0.982  0.6066  0.1744  1.4921
  269MOL0     C36192   7.832   9.268   0.942 -0.4828  0.7780  0.1381
  269MOL0     C36193   7.879   9.136   0.876 -0.7500  0.6218 -0.4541
  269MOL0     C36194   7.776   9.027   0.897  0.1661  0.6124 -0.6510
  269MOL0     C36195   7.660   9.020   0.794 -0.2639 -1.1523 -0.5082
  269MOL0     C36196   7.700   8.953   0.658  0.1326  0.0992 -0.8556
  269MOL0     N36197   7.687   9.039   0.543 -0.6546 -0.1474 -0.0130
  269MOL0     C36198   7.776   9.140   0.499  0.5220 -0.2601 -0.0423
  269MOL0     C36199   7.731   9.193   0.387 -0.0521 -0.4127 -1.0071
  269MOL0     C36200   7.800   9.299   0.306 -0.2752 -0.3176  0.8693
  269MOL0     C36201   7.783   9.438   0.373  0.3150 -0.2571 -0.1723
  269MOL0     C36202   7.863   9.458   0.506 -0.1026  1.2521  0.0979
  269MOL0     C36203   7.882   9.604   0.547 -0.8372  0.0747 -0.0429
  269MOL0     O36204   7.756   9.669   0.554 -0.0932  0.1129 -0.0954
  269MOL0     C36205   7.762   9.800   0.609 -0.9417 -0.0145  0.8351
  269MOL0     C36206   7.644   9.862   0.662 -0.3455  0.1357 -0.3993
  269MOL0     C36207   7.639   9.983   0.729 -0.3451 -0.2346 -0.5079
  269MOL0     C36208   7.756  10.050   0.757 -0.8954  0.2652 -0.0682
  269MOL0     C36209   7.738  10.172   0.829 -0.6792 -1.0015 -0.4026
  269MOL0     O36210   7.663  10.158   0.948  0.2275  0.5950 -0.6143
  269MOL0     C36211   7.620  10.274   0.999  0.6540  0.2683  0.4929
  269MOL0     C36212   7.503  10.332   0.956  0.2809 -0.4256 -0.1209
  269MOL0     C36213   7.454  10.449   1.020 -0.9822 -0.0757 -0.2919
  269MOL0     C36214   7.545  10.518   1.111 -0.2661 -0.3972 -0.1192
  269MOL0     O36215   7.516  10.621   1.192  0.1519  0.0559  0.1659
  269MOL0     C36216   7.378  10.655   1.215  0.2098 -0.8959  0.4246
  269MOL0     C36217   7.380  10.789   1.289 -0.8902  0.4765 -0.9594
  269MOL0     C36218   7.477  10.795   1.414 -0.4293 -0.2047  0.5521
  269MOL0     C36219   7.379  10.815   1.527 -0.2938  0.1220 -0.9209
  269MOL0     C36220   7.450  10.854   1.661 -0.0277 -0.6308  0.6722
  269MOL0     C36221   7.356  10.859   1.779  0.5927  0.7829  0.2085
  269MOL0     C36222   7.338  10.712   1.837  0.2518 -0.1196 -0.0939
  269MOL0     C36223   7.241  10.708   1.952  0.9150  0.0653 -0.3234
  269MOL0    Cl36224   7.314  10.768   2.108  0.2577 -0.1468  0.2406
  269MOL0     C36225   7.665  10.456   1.144 -0.4409  0.3608 -0.0941
  269MOL0     C36226   7.704  10.335   1.091 -0.3307  0.4885  0.2511
  269MOL0     O36227   7.799  10.272   0.792  0.7482  0.1134  0.3140
  269MOL0     C36228   7.877   9.998   0.702  0.7070  0.3335 -0.7026
  269MOL0     C36229   7.881   9.877   0.631 -0.3635  0.6759 -0.1328
  269MOL0     N36230   7.622   9.118   0.356  0.0618  0.3192 -0.0414
  269MOL0     N36231   7.592   9.036   0.450  1.6594  0.7092  0.3552
  269MOL0     C36232   8.191   9.811   1.111  1.0300  1.0168  0.5258
  269MOL0     C36233   8.267   9.915   1.154 -0.7582 -0.7079  0.0694
  269MOL0     C36234   8.470  10.254   1.342 -0.1450 -0.3397 -0.6559
  269MOL0     C36235   8.414  10.236   1.472 -0.4652  0.0846 -0.0159
  269MOL0     C36236   8.473  10.305   1.574 -0.6190 -0.0256 -0.6728
  269MOL0     C36237   8.572  10.396   1.563  0.1472 -0.0885  0.1875
  269MOL0     O36238   8.635  10.442   1.674  0.1423 -0.3559  0.7042
  269MOL0     C36239   8.641  10.583   1.673 -0.4018 -0.0452  0.2866
  269MOL0     C36240   8.720  10.630   1.800  0.0841 -0.1348  0.0291
  269MOL0     C36241   8.822  10.536   1.845 -0.0290 -0.0901 -0.3492
  269MOL0     C36242   8.922  10.589   1.956 -0.7307  0.6355  0.4423
  269MOL0     C36243   9.007  10.697   1.907  0.5765  0.1288 -0.3116
  269MOL0     C36244   9.066  10.795   1.865  0.2593 -0.5134 -0.3974
  269MOL0     C36245   8.633  10.410   1.442 -0.6959  0.1231  0.4051
  269MOL0     C36246   8.583  10.343   1.329  0.3065 -1.0813 -0.2441
  269MOL0     C36247   8.650  10.379   1.196  0.2737 -0.1604 -0.5489
  269MOL0     H36248   8.021  10.132   1.225  0.9982  1.0601 -1.1844
  269MOL0     H36249   7.882   9.953   1.122  0.5564  1.3579 -3.2397
  269MOL0     H36250   8.076   9.611   0.934 -2.1942  4.3208 -0.3435
  269MOL0     H36251   8.072   9.559   1.113 -1.2662 -1.6947  0.7253
  269MOL0     H36252   7.864   9.543   0.887 -1.3460  0.6409  0.3127
  269MOL0     H36253   7.810   9.538   1.050  1.5192  1.9966  1.2745
  269MOL0     H36254   7.988   9.344   1.079  2.0869  1.7963  1.1501
  269MOL0     H36255   8.014   9.360   0.901  0.0647  2.6165  0.7931
  269MOL0     H36256   7.776   9.250   1.034 -0.5940 -0.7990 -0.2061
  269MOL0     H36257   7.770   9.307   0.860  1.1606 -0.3519 -1.7477
  269MOL0     H36258   7.888   9.149   0.767 -1.3074  2.3246 -0.3300
  269MOL0     H36259   7.971   9.104   0.925 -1.4854 -1.9019 -0.5946
  269MOL0     H36260   7.821   8.928   0.903 -0.5234  0.3813  1.5305
  269MOL0     H36261   7.736   9.043   0.998  1.9659  2.9576 -0.2066
  269MOL0     H36262   7.620   9.121   0.782 -0.9320 -1.6293 -2.8270
  269MOL0     H36263   7.582   8.956   0.837 -1.5989 -1.0582 -2.6414
  269MOL0     H36264   7.805   8.924   0.656  0.0663 -0.1355 -1.1767
  269MOL0     H36265   7.627   8.876   0.629 -2.0709  0.8904  2.1330
  269MOL0     H36266   7.870   9.174   0.540 -0.0821  2.4804 -0.7131
  269MOL0     H36267   7.907   9.274   0.299 -0.2114 -1.1921  3.5781
  269MOL0     H36268   7.754   9.304   0.207  0.2605  4.1244  0.6335
  269MOL0     H36269   7.817   9.516   0.304 -0.6313 -1.9802 -2.7282
  269MOL0     H36270   7.677   9.460   0.388  0.0006 -1.7400 -0.0283
  269MOL0     H36271   7.967   9.426   0.493  0.6557  2.9104  1.6172
  269MOL0     H36272   7.812   9.403   0.585 -0.2159  1.0630 -0.1040
  269MOL0     H36273   7.942   9.661   0.474 -1.5755 -0.7383 -1.3234
  269MOL0     H36274   7.938   9.609   0.640 -0.4658 -1.8224 -0.1408
  269MOL0     H36275   7.544   9.832   0.631 -0.3433 -0.6679  0.3467
  269MOL0     H36276   7.544  10.030   0.753  0.0545  1.3937 -1.9682
  269MOL0     H36277   7.448  10.276   0.881  3.2734 -0.4802 -2.4698
  269MOL0     H36278   7.350  10.478   1.009 -0.8304  0.0315 -1.5238
  269MOL0     H36279   7.332  10.682   1.120  0.7523 -1.3963  0.0108
  269MOL0     H36280   7.315  10.582   1.266 -0.4162 -0.4400  0.3143
  269MOL0     H36281   7.419  10.872   1.230  0.6037 -0.3213 -1.1549
  269MOL0     H36282   7.277  10.808   1.318 -1.6776 -4.6809  0.6874
  269MOL0     H36283   7.546  10.710   1.420 -1.2948 -0.8307  4.1929
  269MOL0     H36284   7.546  10.880   1.414  0.0979 -0.5915 -1.1262
  269MOL0     H36285   7.339  10.715   1.544  1.0706 -0.0972  1.4276
  269MOL0     H36286   7.303  10.893   1.517 -1.0412 -0.1945  1.6240
  269MOL0     H36287   7.488  10.955   1.647 -2.2660  0.3664  1.3456
  269MOL0     H36288   7.540  10.795   1.682  0.7236  0.0605 -0.5095
  269MOL0     H36289   7.396  10.927   1.856  0.3930  1.4543 -0.2692
  269MOL0     H36290   7.260  10.904   1.750 -1.6259 -1.4627  3.3581
  269MOL0     H36291   7.432  10.669   1.870  1.9840  2.3015 -1.5698
  269MOL0     H36292   7.310  10.647   1.753 -0.3423  0.0207 -0.0130
  269MOL0     H36293   7.148  10.762   1.935  0.8718  0.6577  1.6045
  269MOL0     H36294   7.220  10.603   1.977 -1.3032  0.1199 -1.6847
  269MOL0     H36295   7.724  10.505   1.221  1.4870  1.9373 -2.3964
  269MOL0     H36296   7.795  10.289   1.127 -1.4812 -0.7470  1.6992
  269MOL0     H36297   7.957  10.067   0.728  0.6686 -0.8143  3.0485
  269MOL0     H36298   7.976   9.838   0.596 -0.0457  1.4500 -0.1371
  269MOL0     H36299   8.232   9.712   1.094  1.3462  0.7679  2.5403
  269MOL0     H36300   8.372   9.903   1.178 -1.2213 -1.8418  1.7557
  269MOL0     H36301   8.331  10.169   1.487  0.1350 -0.8092 -0.5659
  269MOL0     H36302   8.425  10.299   1.671  0.0716  1.8458 -0.1723
  269MOL0     H36303   8.541  10.626   1.668 -0.9217 -1.1480  0.8889
  269MOL0     H36304   8.699  10.629   1.593 -0.5418  2.2204  1.4052
  269MOL0     H36305   8.656  10.637   1.888  0.3660 -0.1968  0.2397
  269MOL0     H36306   8.750  10.733   1.784  2.3170 -0.4956  1.4978
  269MOL0     H36307   8.884  10.498   1.763  0.7260 -0.4424  0.3615
  269MOL0     H36308   8.779  10.444   1.884  1.4694 -0.5308  0.3378
  269MOL0     H36309   8.862  10.634   2.034 -1.2173  0.5254  0.1349
  269MOL0     H36310   8.991  10.515   1.998  1.4520  0.3664 -3.1735
  269MOL0     H36311   9.106  10.885   1.823  2.8966 -0.5438  1.7819
  269MOL0     H36312   8.712  10.484   1.431 -1.8082  1.8187  2.9002
  269MOL0     H36313   8.577  10.411   1.121  1.0197  1.4598 -0.6338
  269MOL0     H36314   8.716  10.465   1.211  1.2875 -0.7130 -1.6589
  269MOL0     H36315   8.712  10.296   1.161  0.7238  0.6148 -1.6716
  270MOL0     O36316   9.021   0.931   6.699  0.1460 -0.0930 -0.5997
  270MOL0     C36317   8.928   0.927   6.621  0.6162 -0.9216 -0.4514
  270MOL0     O36318   8.922   0.969   6.485 -0.2426 -0.5088  0.5455
  270MOL0     C36319   9.038   1.016   6.421  0.1852 -1.1108 -0.9224
  270MOL0     C36320   9.168   0.956   6.433 -0.0467 -0.4820 -0.1904
  270MOL0     C36321   9.272   1.016   6.363  0.8912 -0.9501 -0.5360
  270MOL0     C36322   9.261   1.143   6.300 -0.1506 -0.4293 -0.3559
  270MOL0     O36323   9.370   1.186   6.225 -0.0151  0.1480 -0.8135
  270MOL0     C36324   9.402   1.323   6.241  0.0127 -0.6648  0.0150
  270MOL0     C36325   9.547   1.356   6.212  0.4172 -1.8817 -0.1123
  270MOL0     C36326   9.658   1.308   6.308 -0.5160 -0.0020  1.0848
  270MOL0     C36327   9.785   1.392   6.288 -0.1116 -0.3847 -0.4602
  270MOL0     C36328   9.905   1.345   6.382 -0.7004  0.8140 -0.5162
  270MOL0     C36329  10.032   1.436   6.347  0.2217  0.2526  0.3441
  270MOL0     C36330  10.090   1.415   6.211 -0.2217  0.0356  1.0748
  270MOL0     C36331  10.120   1.269   6.198 -0.0143  0.2842  0.3069
  270MOL0     N36332  10.218   1.244   6.097 -0.6474 -0.3270 -0.6071
  270MOL0     C36333  10.350   1.279   6.113 -0.6586 -1.0081 -0.1416
  270MOL0     C36334  10.412   1.248   6.001 -0.7179  0.3101 -0.4861
  270MOL0     C36335  10.560   1.269   5.973  0.0877  1.0238 -0.1639
  270MOL0     C36336  10.600   1.305   5.841 -0.1062 -0.3840 -0.0575
  270MOL0     C36337  10.549   1.438   5.796  0.1099  1.0531  0.1157
  270MOL0     C36338  10.617   1.477   5.669  0.0564 -0.0192 -0.8451
  270MOL0     O36339  10.560   1.595   5.620  0.0330 -0.5884  0.0145
  270MOL0     C36340  10.618   1.655   5.517 -0.0107 -0.2807  0.0707
  270MOL0     C36341  10.591   1.791   5.489 -0.5313  1.0335  0.0423
  270MOL0     C36342  10.648   1.851   5.375 -0.2551 -0.2239 -0.3541
  270MOL0     C36343  10.726   1.779   5.288 -0.7816 -0.5909 -0.0419
  270MOL0     C36344  10.785   1.840   5.166  0.3181 -0.5179  0.6328
  270MOL0     O36345  10.718   1.954   5.114  0.3935 -0.3455  0.1892
  270MOL0     C36346  10.758   2.000   4.989 -0.9136  0.1620 -0.5163
  270MOL0     C36347  10.858   2.101   4.973 -0.0026 -0.0101 -0.5823
  270MOL0     C36348  10.892   2.144   4.838  0.1190  0.2931  0.3435
  270MOL0     C36349  10.838   2.078   4.726  0.4366 -0.1884  0.6946
  270MOL0     O36350  10.865   2.105   4.600  0.0670 -0.1131  0.6492
  270MOL0     C36351  10.975   2.027   4.552  0.3193 -0.2317 -0.8187
  270MOL0     C36352  10.973   2.006   4.405  0.0861 -1.6731  0.5571
  270MOL0     C36353  11.014   2.146   4.339  0.2409 -0.0638  0.0851
  270MOL0     C36354  11.063   2.125   4.193  0.6145 -0.6435  0.0020
  270MOL0     C36355  11.134   2.250   4.132  0.3553  0.5092  0.2897
  270MOL0     C36356  11.170   2.231   3.983  0.2330  0.7983 -0.2550
  270MOL0     C36357  11.190   2.361   3.901 -0.2145  1.0592 -0.1955
  270MOL0     C36358  11.211   2.329   3.754 -0.6127  0.1802  0.6806
  270MOL0    Cl36359  11.363   2.240   3.710  0.1963 -0.0675 -0.0271
  270MOL0     C36360  10.741   1.984   4.751 -0.0809 -0.3442  0.5621
  270MOL0     C36361  10.702   1.946   4.882  0.7640 -0.6347  0.4389
  270MOL0     O36362  10.877   1.790   5.105  0.1866  0.0414  0.0086
  270MOL0     C36363  10.769   1.652   5.319  0.0653 -0.5222 -0.4253
  270MOL0     C36364  10.709   1.587   5.429 -0.6571  0.0078 -0.8852
  270MOL0     N36365  10.323   1.176   5.921 -0.2543  0.0109 -0.3195
  270MOL0     N36366  10.209   1.179   5.978  0.1817 -0.7346  0.0799
  270MOL0     C36367   9.136   1.210   6.297 -0.5911 -0.9565  0.4379
  270MOL0     C36368   9.020   1.147   6.362 -0.3982 -0.1040  0.2468
  270MOL0     C36369   8.801   0.846   6.657 -0.6786 -0.7819  0.0091
  270MOL0     C36370   8.698   0.826   6.558 -0.2445 -0.2612 -0.4223
  270MOL0     C36371   8.588   0.747   6.587  0.0720  0.3801 -0.1960
  270MOL0     C36372   8.564   0.700   6.716 -0.0500 -0.4471 -0.1931
  270MOL0     O36373   8.445   0.641   6.732 -0.3019 -0.1942  0.0219
  270MOL0     C36374   8.396   0.631   6.868 -0.1067 -0.5388 -1.7698
  270MOL0     C36375   8.242   0.614   6.870 -0.0616  0.2928 -0.5531
  270MOL0     C36376   8.198   0.577   7.015 -0.1868  1.6386  0.2964
  270MOL0     C36377   8.170   0.682   7.122  0.1679  0.0680  0.5845
  270MOL0     C36378   8.295   0.714   7.188  0.6943 -0.5753  0.0364
  270MOL0     C36379   8.393   0.730   7.257 -0.4882 -0.1389  0.7634
  270MOL0     C36380   8.665   0.712   6.807  0.3485  0.3532  0.2835
  270MOL0     C36381   8.787   0.788   6.785  0.2947 -0.1598  0.4445
  270MOL0     C36382   8.870   0.788   6.905 -1.1423  0.3035  0.7972
  270MOL0     H36383   9.171   0.858   6.479  0.4171 -0.9475 -1.1709
  270MOL0     H36384   9.363   0.963   6.336  0.8498 -1.1563 -0.2694
  270MOL0     H36385   9.331   1.373   6.174 -1.2062  0.1639  1.8328
  270MOL0     H36386   9.379   1.355   6.343  0.5631  0.6857 -0.2717
  270MOL0     H36387   9.550   1.465   6.199  4.1981 -1.7231  1.0006
  270MOL0     H36388   9.558   1.315   6.112 -2.1953  0.8827 -1.7007
  270MOL0     H36389   9.678   1.201   6.296  1.9206  0.6632 -2.3187
  270MOL0     H36390   9.622   1.312   6.411  0.9393 -4.2436  1.9303
  270MOL0     H36391   9.797   1.403   6.180 -2.1263  1.3438 -0.5669
  270MOL0     H36392   9.774   1.494   6.326  0.0824 -0.7910  0.7461
  270MOL0     H36393   9.877   1.358   6.487 -3.6121 -2.2167 -0.7490
  270MOL0     H36394   9.929   1.241   6.360 -1.3939  1.2219 -3.8218
  270MOL0     H36395  10.002   1.541   6.353  3.4317  1.3408 -0.7837
  270MOL0     H36396  10.110   1.420   6.422  0.0460 -2.5739  0.0358
  270MOL0     H36397  10.173   1.483   6.191 -0.5643 -0.1902 -1.4467
  270MOL0     H36398  10.017   1.435   6.132 -0.6159 -0.4523  1.3138
  270MOL0     H36399  10.161   1.234   6.293  0.8534 -1.1060 -0.5497
  270MOL0     H36400  10.029   1.211   6.184  0.0372 -0.0011  1.1318
  270MOL0     H36401  10.413   1.330   6.185  0.0083 -0.8649 -0.8123
  270MOL0     H36402  10.595   1.345   6.043  0.1496  1.4995 -0.7023
  270MOL0     H36403  10.621   1.180   5.993  0.8380  1.5225 -0.2124
  270MOL0     H36404  10.708   1.320   5.839 -0.2141  0.4897  0.0280
  270MOL0     H36405  10.574   1.236   5.761  0.0761  1.4050 -1.7176
  270MOL0     H36406  10.555   1.515   5.873  0.1993 -1.1416  2.4284
  270MOL0     H36407  10.442   1.427   5.777  0.0458 -3.1969  1.8379
  270MOL0     H36408  10.597   1.401   5.593 -0.1948  0.0759 -0.8760
  270MOL0     H36409  10.723   1.491   5.695  0.7072 -2.0236 -2.2394
  270MOL0     H36410  10.531   1.858   5.551 -2.7775  2.9771 -3.8279
  270MOL0     H36411  10.630   1.956   5.355 -0.8461  0.2566  2.3475
  270MOL0     H36412  10.908   2.147   5.058  2.1534  0.0989 -1.8486
  270MOL0     H36413  10.954   2.232   4.823 -0.3739  0.7934  1.1786
  270MOL0     H36414  11.070   2.072   4.582  0.0337 -1.5630  2.4680
  270MOL0     H36415  10.972   1.926   4.594 -3.0767 -0.2745 -0.9611
  270MOL0     H36416  11.045   1.927   4.381  0.3836 -2.1149  2.6997
  270MOL0     H36417  10.875   1.967   4.379 -0.6043 -0.7588  1.6745
  270MOL0     H36418  10.930   2.214   4.351  1.1432  1.7123 -2.7923
  270MOL0     H36419  11.107   2.184   4.384  0.6507  0.5363 -1.2239
  270MOL0     H36420  10.976   2.106   4.130  0.4217  1.8621 -0.5962
  270MOL0     H36421  11.136   2.044   4.201  1.1192 -0.0169  2.8319
  270MOL0     H36422  11.224   2.271   4.191  0.0490  0.4391  0.7896
  270MOL0     H36423  11.066   2.334   4.147 -1.3560 -0.1254 -3.0077
  270MOL0     H36424  11.260   2.170   3.975 -0.1019 -0.2716  2.8130
  270MOL0     H36425  11.081   2.190   3.934  0.9258  0.5618 -1.3631
  270MOL0     H36426  11.268   2.426   3.941  1.3647  0.6194 -2.3696
  270MOL0     H36427  11.098   2.421   3.907 -1.4357 -0.8028  0.8715
  270MOL0     H36428  11.130   2.271   3.708  0.1418  1.5336 -2.6598
  270MOL0     H36429  11.215   2.423   3.697  3.0812 -0.7097 -0.8713
  270MOL0     H36430  10.692   1.923   4.676 -0.8272 -2.0028  2.3161
  270MOL0     H36431  10.643   1.856   4.890 -0.3908  0.0294 -0.3013
  270MOL0     H36432  10.849   1.598   5.271 -1.0415 -3.9537  1.3072
  270MOL0     H36433  10.732   1.482   5.443 -1.9464 -0.6498 -3.1979
  270MOL0     H36434   9.118   1.288   6.223 -0.3984 -1.4257 -0.1121
  270MOL0     H36435   8.918   1.179   6.349 -0.1762  0.3986 -0.3373
  270MOL0     H36436   8.709   0.869   6.459  0.1106 -1.8050 -1.0908
  270MOL0     H36437   8.513   0.733   6.509  1.1269 -0.9743 -1.0127
  270MOL0     H36438   8.416   0.728   6.914  1.5631 -2.4761  2.0561
  270MOL0     H36439   8.453   0.558   6.926 -2.0828 -3.1887 -2.9120
  270MOL0     H36440   8.236   0.528   6.803  3.1176 -0.5885  0.1224
  270MOL0     H36441   8.191   0.705   6.837 -2.0206 -1.0725 -1.4374
  270MOL0     H36442   8.259   0.505   7.070  0.0580  1.8156  0.2589
  270MOL0     H36443   8.104   0.523   6.996  2.2923 -2.5426 -1.3559
  270MOL0     H36444   8.139   0.771   7.066 -0.6682 -0.9487 -0.6180
  270MOL0     H36445   8.105   0.649   7.204 -0.3192 -1.0697 -0.2373
  270MOL0     H36446   8.477   0.758   7.318 -1.4142  1.9541  1.1619
  270MOL0     H36447   8.646   0.653   6.896  1.1987 -0.4810 -0.0654
  270MOL0     H36448   8.850   0.694   6.957  0.5526 -1.6973 -1.9180
  270MOL0     H36449   8.978   0.775   6.890 -0.7648 -0.5788  3.7009
  270MOL0     H36450   8.849   0.874   6.968  2.4745  1.9543  0.0060
  271MOL0     O36451   7.109   6.972   3.829  0.3731  0.0506 -0.4038
  271MOL0     C36452   7.025   7.010   3.918 -1.1873  0.3184  0.5632
  271MOL0     O36453   7.042   7.112   4.010  0.1780 -0.3215 -0.0257
  271MOL0     C36454   7.167   7.171   4.041  0.3037  0.3046 -0.6627
  271MOL0     C36455   7.150   7.304   4.093 -0.3389 -0.0483 -0.9337
  271MOL0     C36456   7.273   7.376   4.123  0.0428  0.3650 -0.4979
  271MOL0     C36457   7.403   7.314   4.108 -0.8692  0.7287 -0.5760
  271MOL0     O36458   7.525   7.368   4.143  0.0995  0.0216  0.0998
  271MOL0     C36459   7.515   7.455   4.262 -0.6252 -0.0894  0.3523
  271MOL0     C36460   7.636   7.433   4.355 -0.5265  0.4442 -0.7109
  271MOL0     C36461   7.769   7.455   4.283 -0.0002 -0.2864  0.1490
  271MOL0     C36462   7.891   7.459   4.363  0.5782 -0.2255 -0.4786
  271MOL0     C36463   7.898   7.555   4.486  0.6804  0.3616  0.1425
  271MOL0     C36464   8.034   7.565   4.557 -0.1935  0.3052  0.4253
  271MOL0     C36465   8.058   7.702   4.619 -0.2293 -0.1027 -0.9471
  271MOL0     C36466   8.208   7.708   4.669  0.0259 -0.9970  0.5394
  271MOL0     N36467   8.282   7.739   4.549 -0.4338 -0.4125 -0.2700
  271MOL0     C36468   8.308   7.860   4.501 -0.3083  0.2028 -0.5697
  271MOL0     C36469   8.392   7.841   4.390  1.5861  0.1649 -0.7074
  271MOL0     C36470   8.470   7.954   4.331  0.6881 -1.0002  0.0755
  271MOL0     C36471   8.605   7.971   4.406 -0.3783 -0.5770 -0.0306
  271MOL0     C36472   8.675   8.100   4.369  0.2146  0.2361 -0.9708
  271MOL0     C36473   8.821   8.124   4.417 -0.0929  0.0642  0.3654
  271MOL0     O36474   8.871   8.259   4.403  1.0600 -0.2676  0.7067
  271MOL0     C36475   9.003   8.288   4.395 -0.2630 -0.2352 -0.1691
  271MOL0     C36476   9.104   8.194   4.369 -1.1374 -0.0441 -0.5858
  271MOL0     C36477   9.239   8.237   4.355 -0.2371  1.2143 -0.6679
  271MOL0     C36478   9.268   8.377   4.360 -0.2409 -0.1132 -1.1686
  271MOL0     C36479   9.405   8.432   4.340 -0.3179  0.4933  0.0434
  271MOL0     O36480   9.482   8.392   4.227 -0.0115 -0.3075 -0.7584
  271MOL0     C36481   9.610   8.447   4.212 -0.6663  0.1814  0.3144
  271MOL0     C36482   9.716   8.416   4.300  0.3366  0.3566 -0.2656
  271MOL0     C36483   9.842   8.464   4.283 -0.2388 -1.0413  0.5626
  271MOL0     C36484   9.869   8.564   4.179  0.4339 -0.3885  0.5735
  271MOL0     O36485   9.988   8.629   4.153  0.1567  0.0843 -0.0473
  271MOL0     C36486  10.095   8.626   4.249  0.3390 -0.3422  0.0299
  271MOL0     C36487  10.233   8.640   4.180  0.3499 -0.5977  0.1671
  271MOL0     C36488  10.348   8.636   4.283 -0.4039 -0.3561  0.0799
  271MOL0     C36489  10.480   8.675   4.218 -0.5280  0.1153  1.1540
  271MOL0     C36490  10.596   8.651   4.309 -0.1213  0.0770 -0.3744
  271MOL0     C36491  10.728   8.700   4.252 -0.4740  0.3036  0.4313
  271MOL0     C36492  10.791   8.617   4.143 -0.0513  0.4958 -0.1475
  271MOL0     C36493  10.917   8.560   4.192 -1.1504 -0.3899  0.1538
  271MOL0    Cl36494  10.968   8.428   4.092 -0.1223 -0.5976 -0.0689
  271MOL0     C36495   9.768   8.603   4.089 -0.1926  0.1333 -0.4103
  271MOL0     C36496   9.646   8.537   4.104  1.4191 -0.6905  0.9449
  271MOL0     O36497   9.441   8.518   4.415 -0.1972 -0.3007 -0.1975
  271MOL0     C36498   9.163   8.474   4.385 -0.4264  0.4203  0.0507
  271MOL0     C36499   9.032   8.425   4.409 -0.3887 -1.3160 -0.2557
  271MOL0     N36500   8.436   7.715   4.403  0.1020  0.0081 -0.7203
  271MOL0     N36501   8.367   7.645   4.494  0.0101  0.0313  0.4881
  271MOL0     C36502   7.409   7.195   4.045 -0.1094 -1.1521  0.1958
  271MOL0     C36503   7.294   7.122   4.013  0.1914 -0.0823  0.9662
  271MOL0     C36504   6.891   6.941   3.913 -0.3823 -1.1966 -0.6044
  271MOL0     C36505   6.853   6.852   3.814  0.1204  1.1964  0.8542
  271MOL0     C36506   6.737   6.772   3.824  0.2192 -0.6380  0.6475
  271MOL0     C36507   6.648   6.790   3.928 -0.6836  0.1226  0.0149
  271MOL0     O36508   6.527   6.709   3.938 -0.1064  0.9387  0.2553
  271MOL0     C36509   6.499   6.594   3.844  0.2955 -0.7101 -0.1030
  271MOL0     C36510   6.371   6.526   3.889 -0.0995 -0.1108  0.0394
  271MOL0     C36511   6.266   6.632   3.934 -0.4837  0.5515  0.1266
  271MOL0     C36512   6.119   6.591   3.945  0.2745  0.0703  0.2694
  271MOL0     C36513   6.113   6.451   4.000  0.7310  0.6557 -0.1620
  271MOL0     C36514   6.121   6.333   4.036 -0.0703 -1.3055  0.1502
  271MOL0     C36515   6.681   6.880   4.026 -0.0733 -0.8836 -0.5803
  271MOL0     C36516   6.799   6.964   4.017  0.9152  0.2336 -0.3128
  271MOL0     C36517   6.801   7.073   4.134  0.5230  0.0574 -0.2072
  271MOL0     H36518   7.052   7.344   4.116  0.8746  2.4600  0.2175
  271MOL0     H36519   7.261   7.475   4.165 -3.1617 -0.7212  1.5645
  271MOL0     H36520   7.513   7.557   4.223  2.8276  0.1739  0.6251
  271MOL0     H36521   7.428   7.442   4.328 -0.5339  0.4546  0.5848
  271MOL0     H36522   7.644   7.331   4.393  5.0778  1.4625  1.7675
  271MOL0     H36523   7.624   7.506   4.435 -2.7090 -0.2341 -0.3641
  271MOL0     H36524   7.759   7.540   4.216  0.7379 -1.2522 -1.2391
  271MOL0     H36525   7.796   7.384   4.204 -0.7856  1.8050 -2.1172
  271MOL0     H36526   7.903   7.359   4.406 -2.2794 -0.4815 -0.1152
  271MOL0     H36527   7.978   7.485   4.301  1.3348 -1.3202  0.0844
  271MOL0     H36528   7.887   7.652   4.436 -1.1029 -0.8496 -2.0442
  271MOL0     H36529   7.808   7.540   4.547 -1.8849  2.5782 -2.7538
  271MOL0     H36530   8.037   7.491   4.637  2.7478 -1.0849 -0.8104
  271MOL0     H36531   8.115   7.534   4.490 -1.0117 -0.7426 -0.1143
  271MOL0     H36532   8.007   7.713   4.715  1.1710  0.6101 -0.2511
  271MOL0     H36533   8.033   7.782   4.549  0.2910 -1.2615 -2.5164
  271MOL0     H36534   8.211   7.798   4.732 -2.4591 -0.9000  0.6057
  271MOL0     H36535   8.260   7.622   4.713  4.0441  0.4074 -0.9749
  271MOL0     H36536   8.283   7.959   4.538 -1.3847 -0.3214  0.1440
  271MOL0     H36537   8.494   7.919   4.230 -1.5454  0.3202 -0.9928
  271MOL0     H36538   8.407   8.043   4.321 -0.5333 -1.8865 -0.5246
  271MOL0     H36539   8.581   7.973   4.513 -1.7014 -1.1706 -0.2994
  271MOL0     H36540   8.664   7.885   4.375  0.0357  0.0697 -1.0877
  271MOL0     H36541   8.611   8.175   4.418 -0.0358  0.6421 -1.9034
  271MOL0     H36542   8.663   8.115   4.261 -2.3511  0.7440 -0.6962
  271MOL0     H36543   8.873   8.060   4.345  1.7722  1.8353  0.0501
  271MOL0     H36544   8.835   8.098   4.523  2.3791  3.5259  1.0650
  271MOL0     H36545   9.097   8.086   4.359  0.7519 -0.1720 -0.8546
  271MOL0     H36546   9.311   8.161   4.326 -0.7326  0.3753  0.2942
  271MOL0     H36547   9.708   8.353   4.388  0.0528 -1.4020 -1.4948
  271MOL0     H36548   9.919   8.439   4.356 -1.7786 -2.0827  1.8838
  271MOL0     H36549  10.077   8.704   4.323  1.8161  0.9677 -0.9122
  271MOL0     H36550  10.096   8.535   4.309 -1.4046 -0.9399 -0.7817
  271MOL0     H36551  10.240   8.549   4.120 -0.7939  0.3836 -1.5176
  271MOL0     H36552  10.251   8.734   4.128  1.8765  0.2796  2.1347
  271MOL0     H36553  10.338   8.705   4.368  0.9200 -0.9014  0.7045
  271MOL0     H36554  10.359   8.536   4.326 -1.2906  0.3843  2.1369
  271MOL0     H36555  10.478   8.781   4.188 -0.1515 -0.3545 -0.6243
  271MOL0     H36556  10.482   8.625   4.120 -2.3774  0.2904  0.9951
  271MOL0     H36557  10.603   8.544   4.332 -0.7759  0.3757  1.3793
  271MOL0     H36558  10.583   8.709   4.401  0.0298 -1.1247  0.4367
  271MOL0     H36559  10.717   8.805   4.224 -2.4205  0.1136  0.3647
  271MOL0     H36560  10.796   8.700   4.337 -1.4215  0.1607  1.2102
  271MOL0     H36561  10.793   8.674   4.049 -0.4740 -0.0310 -0.4763
  271MOL0     H36562  10.727   8.532   4.119  1.0607 -0.4420  0.1489
  271MOL0     H36563  10.994   8.637   4.195 -1.3888 -0.0240 -1.9743
  271MOL0     H36564  10.893   8.520   4.291 -1.5824 -0.7527 -0.0918
  271MOL0     H36565   9.780   8.671   4.006 -0.3087 -3.5379 -3.7235
  271MOL0     H36566   9.563   8.566   4.040  1.8952 -0.2967  0.5006
  271MOL0     H36567   9.174   8.581   4.398 -1.0874  0.5982 -0.7615
  271MOL0     H36568   8.957   8.501   4.425 -2.6349 -3.4083 -0.2438
  271MOL0     H36569   7.507   7.153   4.027  0.2312 -0.3886  0.2437
  271MOL0     H36570   7.295   7.019   3.979  1.4742 -0.3669  1.8009
  271MOL0     H36571   6.908   6.845   3.721 -1.2114 -2.0360  0.1630
  271MOL0     H36572   6.728   6.698   3.745  2.0412 -1.1207  0.8335
  271MOL0     H36573   6.590   6.534   3.840  1.8823  1.5605  0.1419
  271MOL0     H36574   6.479   6.617   3.739 -1.5675  2.2660  0.7700
  271MOL0     H36575   6.396   6.460   3.973 -0.6759 -0.5360 -0.1206
  271MOL0     H36576   6.333   6.471   3.803  2.7186 -1.1735 -0.6157
  271MOL0     H36577   6.268   6.718   3.867 -0.6016  0.7994  0.4359
  271MOL0     H36578   6.305   6.672   4.029 -0.7763 -0.4142  0.6692
  271MOL0     H36579   6.063   6.649   4.018  1.8519  0.2207  1.4165
  271MOL0     H36580   6.069   6.585   3.848 -0.5990 -2.2068  0.7965
  271MOL0     H36581   6.137   6.232   4.068  1.7456 -1.0158  0.2925
  271MOL0     H36582   6.617   6.886   4.114 -1.6258  1.1710 -1.7562
  271MOL0     H36583   6.892   7.051   4.190  1.0066 -0.3208 -1.1302
  271MOL0     H36584   6.797   7.178   4.103 -0.8171  1.3604  3.8051
  271MOL0     H36585   6.717   7.061   4.203 -0.1496 -0.2943 -1.0629
  272MOL0     O36586   0.853   3.498   6.677 -0.2289  0.4073  0.2273
  272MOL0     C36587   0.794   3.390   6.671 -0.1240 -0.5637 -0.1013
  272MOL0     O36588   0.664   3.367   6.705 -0.1685 -0.6755  0.3436
  272MOL0     C36589   0.579   3.450   6.784 -0.3950 -0.0217 -0.1373
  272MOL0     C36590   0.462   3.384   6.832 -0.0577 -0.7395  0.8465
  272MOL0     C36591   0.368   3.451   6.896 -0.0398 -0.4542  0.4601
  272MOL0     C36592   0.378   3.589   6.919  0.5936 -0.2285 -0.6806
  272MOL0     O36593   0.280   3.658   6.985  0.2989 -0.3969  0.5539
  272MOL0     C36594   0.323   3.738   7.103 -0.8523  0.4238  0.1633
  272MOL0     C36595   0.349   3.643   7.219  0.0787  0.2049  0.2128
  272MOL0     C36596   0.395   3.719   7.345 -0.3838  0.5612 -0.3509
  272MOL0     C36597   0.490   3.637   7.443  0.6391  0.4550 -0.2817
  272MOL0     C36598   0.432   3.506   7.495  0.6998  0.0158  1.1983
  272MOL0     C36599   0.345   3.513   7.620 -0.7992 -0.1505  0.8378
  272MOL0     C36600   0.276   3.379   7.646 -0.3956 -0.6494  0.3375
  272MOL0     C36601   0.152   3.352   7.553  0.3141  0.3931 -0.1831
  272MOL0     N36602   0.060   3.258   7.623 -0.1373  0.9946  0.0557
  272MOL0     C36603   0.004   3.288   7.737  0.7776 -0.4273 -0.6049
  272MOL0     C36604  -0.044   3.174   7.789  0.3750 -0.7987  0.0931
  272MOL0     C36605  -0.096   3.160   7.933  0.2389  0.5743 -0.3321
  272MOL0     C36606  -0.240   3.131   7.937 -0.1217  0.0651 -0.3701
  272MOL0     C36607  -0.305   3.253   7.869  0.5607 -0.2455  0.3312
  272MOL0     C36608  -0.447   3.264   7.921  0.5090  0.3509 -0.0826
  272MOL0     O36609  -0.504   3.389   7.880  0.4677  0.1702  0.3532
  272MOL0     C36610  -0.637   3.420   7.920 -1.3826 -0.9045  0.2597
  272MOL0     C36611  -0.747   3.329   7.924  0.5770  0.2178  0.0826
  272MOL0     C36612  -0.880   3.374   7.941 -0.1314 -0.1141  0.0900
  272MOL0     C36613  -0.907   3.511   7.958 -0.2734 -0.5737 -1.1649
  272MOL0     C36614  -1.039   3.558   7.988 -0.3491 -0.1182  0.3026
  272MOL0     O36615  -1.135   3.466   8.010  0.0675  0.4639 -0.2502
  272MOL0     C36616  -1.266   3.504   8.003  0.3965  0.0469  0.2101
  272MOL0     C36617  -1.331   3.595   8.087 -0.7979  0.3793  0.5008
  272MOL0     C36618  -1.471   3.613   8.065 -0.2450 -0.0831 -0.1494
  272MOL0     C36619  -1.558   3.538   7.976  0.6186  0.0252 -1.1791
  272MOL0     O36620  -1.697   3.546   7.998 -0.3643  0.1674 -0.1895
  272MOL0     C36621  -1.778   3.472   7.906  0.2526 -0.1854 -0.0898
  272MOL0     C36622  -1.790   3.552   7.785  0.0756  0.0936 -0.5925
  272MOL0     C36623  -1.832   3.694   7.802 -0.2042 -0.0255  0.1361
  272MOL0     C36624  -1.963   3.727   7.892  0.6548 -0.4932  0.6582
  272MOL0     C36625  -2.079   3.654   7.828  0.2907  0.5670 -0.2915
  272MOL0     C36626  -2.225   3.716   7.857 -0.2120 -0.1958 -0.3822
  272MOL0     C36627  -2.282   3.804   7.747  0.1575 -0.2536  0.0972
  272MOL0     C36628  -2.342   3.734   7.635 -0.1178  0.2128  0.2170
  272MOL0    Cl36629  -2.234   3.624   7.532 -0.5186  0.2591  0.0596
  272MOL0     C36630  -1.491   3.455   7.897  0.6783  0.8590 -0.1344
  272MOL0     C36631  -1.348   3.433   7.907 -0.4911 -0.0948 -0.4305
  272MOL0     O36632  -1.055   3.680   7.987 -0.0572  0.4304  0.3075
  272MOL0     C36633  -0.798   3.601   7.964 -0.3986 -1.3469 -0.0578
  272MOL0     C36634  -0.662   3.559   7.939  0.0795  0.5977  0.8702
  272MOL0     N36635  -0.019   3.074   7.707  0.8345  0.4600 -0.2409
  272MOL0     N36636   0.059   3.119   7.616  1.0085 -0.2589  0.2342
  272MOL0     C36637   0.496   3.658   6.887 -0.1725  0.5200  0.7726
  272MOL0     C36638   0.598   3.584   6.823 -0.5433  0.8084 -0.1530
  272MOL0     C36639   0.879   3.276   6.623  0.3287 -0.1488  1.2960
  272MOL0     C36640   1.002   3.306   6.554 -0.4494 -0.3505 -0.7001
  272MOL0     C36641   1.080   3.203   6.501  0.3426  1.0331  0.3573
  272MOL0     C36642   1.036   3.064   6.493 -0.7638 -0.3373  0.0320
  272MOL0     O36643   1.119   2.980   6.434 -0.5909 -0.0338 -0.1289
  272MOL0     C36644   1.116   2.842   6.468 -0.8166 -0.5776 -0.6141
  272MOL0     C36645   1.178   2.758   6.358  0.7743  0.2997 -0.1750
  272MOL0     C36646   1.085   2.739   6.235 -0.1368 -0.3767  0.0771
  272MOL0     C36647   0.941   2.696   6.272 -0.3505 -0.2998  0.8691
  272MOL0     C36648   0.942   2.578   6.359  0.1554  0.1397  0.0459
  272MOL0     C36649   0.946   2.485   6.436  1.3642  0.5620 -0.1587
  272MOL0     C36650   0.910   3.039   6.549  0.0369 -0.4703  0.2980
  272MOL0     C36651   0.838   3.136   6.619  0.4785 -0.7516  0.3225
  272MOL0     C36652   0.705   3.093   6.678  0.1781 -0.1685  0.2061
  272MOL0     H36653   0.451   3.277   6.820 -0.8606 -0.3887 -3.2000
  272MOL0     H36654   0.276   3.402   6.927  1.7363 -2.4779  3.0359
  272MOL0     H36655   0.409   3.799   7.076 -0.7719  1.3673  2.3343
  272MOL0     H36656   0.243   3.810   7.124 -2.1162 -0.9440  0.2119
  272MOL0     H36657   0.422   3.568   7.185 -1.6615 -0.2149 -2.9783
  272MOL0     H36658   0.260   3.583   7.238  1.6739 -2.8981 -1.3191
  272MOL0     H36659   0.295   3.739   7.386 -1.3837 -1.1532 -1.8176
  272MOL0     H36660   0.445   3.813   7.322 -0.0000  0.8703  1.5543
  272MOL0     H36661   0.573   3.603   7.381 -1.9712 -2.5223 -2.4702
  272MOL0     H36662   0.515   3.703   7.527 -1.4280 -0.1362  0.8932
  272MOL0     H36663   0.362   3.462   7.423  1.4601  0.1633  0.3455
  272MOL0     H36664   0.511   3.431   7.497 -0.3734 -1.2496 -0.6273
  272MOL0     H36665   0.398   3.544   7.711 -1.4355  1.8904  0.5451
  272MOL0     H36666   0.267   3.590   7.612 -1.2561 -0.7538 -0.8920
  272MOL0     H36667   0.238   3.398   7.747  0.0277  1.2400  0.1773
  272MOL0     H36668   0.338   3.289   7.644 -1.0950 -1.1250 -0.1650
  272MOL0     H36669   0.117   3.456   7.542  2.4368  1.4023  1.8249
  272MOL0     H36670   0.182   3.316   7.454 -1.0057 -1.0432 -0.0859
  272MOL0     H36671   0.004   3.387   7.782 -0.1124  0.5352 -2.5785
  272MOL0     H36672  -0.040   3.079   7.981  0.9293 -0.6680 -3.0475
  272MOL0     H36673  -0.067   3.242   8.000  2.6022  0.3378 -0.9856
  272MOL0     H36674  -0.266   3.037   7.888  1.7786  1.0982 -3.6513
  272MOL0     H36675  -0.264   3.130   8.044  1.2073 -0.3114 -0.0518
  272MOL0     H36676  -0.314   3.253   7.760  0.6358  2.3870  0.2613
  272MOL0     H36677  -0.256   3.347   7.897  0.3113 -0.0962  0.2638
  272MOL0     H36678  -0.434   3.269   8.029  2.1412 -0.9408 -0.1801
  272MOL0     H36679  -0.504   3.175   7.894 -1.4947  1.0225  1.6955
  272MOL0     H36680  -0.730   3.224   7.906 -2.5362 -0.3205 -0.2318
  272MOL0     H36681  -0.958   3.301   7.958  0.0771 -0.6991 -1.3208
  272MOL0     H36682  -1.273   3.644   8.163  0.2982  1.1231 -0.7678
  272MOL0     H36683  -1.515   3.678   8.140  0.0703  0.5678 -0.5186
  272MOL0     H36684  -1.742   3.368   7.902  4.4042  1.0690 -0.1048
  272MOL0     H36685  -1.878   3.466   7.949 -0.7611  0.0382 -2.2853
  272MOL0     H36686  -1.700   3.563   7.723  1.5607 -3.1951  0.7718
  272MOL0     H36687  -1.860   3.503   7.716 -0.5222  1.2384 -0.8311
  272MOL0     H36688  -1.752   3.755   7.846 -1.3979 -0.2907  2.8573
  272MOL0     H36689  -1.848   3.744   7.706  3.7064  0.3707 -0.4664
  272MOL0     H36690  -1.980   3.835   7.894  1.5128 -0.2573 -1.9520
  272MOL0     H36691  -1.965   3.691   7.996  0.5561 -2.3599  0.0444
  272MOL0     H36692  -2.073   3.551   7.863 -0.9584  0.6065  0.0662
  272MOL0     H36693  -2.057   3.637   7.722  1.1476 -0.3502  0.0155
  272MOL0     H36694  -2.293   3.631   7.871 -0.5156  0.3035  1.3423
  272MOL0     H36695  -2.228   3.785   7.941  0.2735 -1.2735  0.5475
  272MOL0     H36696  -2.210   3.880   7.714  1.7722 -0.6119  2.5255
  272MOL0     H36697  -2.370   3.853   7.789 -1.4871 -1.9536 -1.1685
  272MOL0     H36698  -2.436   3.685   7.661  0.6224 -2.0334 -1.0513
  272MOL0     H36699  -2.378   3.816   7.570  0.0706  1.3784  1.5375
  272MOL0     H36700  -1.546   3.387   7.832  0.0249  2.0349 -0.8525
  272MOL0     H36701  -1.296   3.372   7.833  0.3138  1.7134 -1.4165
  272MOL0     H36702  -0.812   3.707   7.982 -1.6679 -1.8033  2.0361
  272MOL0     H36703  -0.586   3.637   7.943  1.6915 -0.7412 -1.1593
  272MOL0     H36704   0.523   3.763   6.895  2.2107 -0.1090  2.1694
  272MOL0     H36705   0.690   3.635   6.797 -0.2038  0.4874  0.3870
  272MOL0     H36706   1.045   3.406   6.552  0.2666 -0.6320  0.0197
  272MOL0     H36707   1.173   3.237   6.457  0.9553 -2.1807 -1.0580
  272MOL0     H36708   1.010   2.815   6.479 -1.2699 -0.5804 -3.8531
  272MOL0     H36709   1.173   2.835   6.561  0.6489 -0.9329 -1.5071
  272MOL0     H36710   1.208   2.659   6.393  0.9168  0.3443 -0.1684
  272MOL0     H36711   1.271   2.809   6.328  0.9465 -0.2338 -0.5673
  272MOL0     H36712   1.132   2.670   6.164  0.3007  1.1758 -1.2364
  272MOL0     H36713   1.080   2.838   6.187  1.3590 -0.9388 -1.3572
  272MOL0     H36714   0.886   2.783   6.310 -1.1756  0.0317 -0.9672
  272MOL0     H36715   0.894   2.671   6.177  1.6580 -2.3226  0.3314
  272MOL0     H36716   0.964   2.399   6.496 -2.4716 -0.6553 -0.5236
  272MOL0     H36717   0.865   2.941   6.541  2.5455 -1.5902 -1.1167
  272MOL0     H36718   0.696   2.984   6.688 -4.2340 -0.1995 -1.7661
  272MOL0     H36719   0.691   3.144   6.774 -0.0443  1.6566 -0.7672
  272MOL0     H36720   0.626   3.125   6.610  1.8046 -2.3232 -2.9423
  273MOL0     O36721   6.530   4.024   9.199 -0.5006  0.2583  0.2930
  273MOL0     C36722   6.484   3.910   9.228 -0.3598 -0.0350 -0.0763
  273MOL0     O36723   6.357   3.882   9.270  0.6363 -0.7777 -0.1146
  273MOL0     C36724   6.281   3.989   9.306  0.2476  0.1769 -0.6062
  273MOL0     C36725   6.237   4.012   9.438 -0.8939 -0.1062  0.6537
  273MOL0     C36726   6.147   4.114   9.473  0.4586 -1.0523 -0.0746
  273MOL0     C36727   6.118   4.215   9.377 -0.1000 -0.0405 -0.4057
  273MOL0     O36728   6.056   4.334   9.418  0.4456  0.6162  0.0405
  273MOL0     C36729   6.053   4.449   9.332 -0.0736  0.2256 -0.4057
  273MOL0     C36730   5.956   4.548   9.392 -0.2383  0.5516  1.1125
  273MOL0     C36731   5.973   4.686   9.316  0.3331  0.9373 -0.1663
  273MOL0     C36732   5.946   4.676   9.169  0.0355 -0.2163  0.0354
  273MOL0     C36733   5.817   4.646   9.117  0.0530  0.4236  0.3371
  273MOL0     C36734   5.704   4.725   9.184 -0.4982  1.1103 -0.1863
  273MOL0     C36735   5.687   4.867   9.147 -0.1143 -0.0759 -1.3863
  273MOL0     C36736   5.701   4.902   8.991 -0.8713  0.7686 -0.3778
  273MOL0     N36737   5.695   5.043   8.964  0.5089 -0.0175  0.2087
  273MOL0     C36738   5.680   5.154   9.049  0.1648 -0.5448 -1.0854
  273MOL0     C36739   5.679   5.262   8.967  0.0190  0.6581 -0.7915
  273MOL0     C36740   5.675   5.412   8.980 -0.4411 -0.0481 -0.4925
  273MOL0     C36741   5.533   5.459   8.988  0.5354  0.8297 -0.8782
  273MOL0     C36742   5.540   5.607   8.962 -0.4278 -0.6847  0.2259
  273MOL0     C36743   5.412   5.678   9.001  0.4269  0.0648  1.0949
  273MOL0     O36744   5.429   5.811   8.984 -0.6453  0.1121  0.3481
  273MOL0     C36745   5.315   5.872   8.945  0.8875 -0.0671  0.3604
  273MOL0     C36746   5.185   5.856   9.011  0.2559 -0.0814  0.0879
  273MOL0     C36747   5.079   5.933   8.964 -0.1692  0.5404  0.1677
  273MOL0     C36748   5.094   6.034   8.875  0.5086 -0.0711 -0.2833
  273MOL0     C36749   4.975   6.126   8.845  0.5338 -0.4131 -0.1810
  273MOL0     O36750   5.003   6.233   8.774 -0.5302 -0.1051 -0.4248
  273MOL0     C36751   4.921   6.322   8.719 -0.3859  0.3532  0.8296
  273MOL0     C36752   4.781   6.317   8.735  0.3916  0.9359 -0.2409
  273MOL0     C36753   4.698   6.411   8.662 -0.0420  0.2834  0.3778
  273MOL0     C36754   4.751   6.507   8.568 -0.7601  0.8985 -0.1100
  273MOL0     O36755   4.666   6.586   8.499  0.0855 -0.0774  0.4021
  273MOL0     C36756   4.720   6.690   8.414  0.3486  0.7722  0.0333
  273MOL0     C36757   4.608   6.747   8.326 -0.9312 -1.0166 -0.1819
  273MOL0     C36758   4.653   6.835   8.207 -0.3049 -0.5250  0.2178
  273MOL0     C36759   4.725   6.964   8.258 -0.3386  0.9520 -0.7775
  273MOL0     C36760   4.622   7.057   8.319  0.0249 -0.0637  0.3793
  273MOL0     C36761   4.661   7.200   8.313  0.5661  0.1013 -0.9006
  273MOL0     C36762   4.774   7.232   8.412  0.8542 -0.6492 -0.1215
  273MOL0     C36763   4.786   7.378   8.461 -0.1648  0.5093 -0.3532
  273MOL0    Cl36764   4.645   7.425   8.554  0.0087 -0.2276  0.0940
  273MOL0     C36765   4.885   6.506   8.553  0.1994  0.1679 -0.0216
  273MOL0     C36766   4.965   6.410   8.621  0.0384  0.1061  0.1613
  273MOL0     O36767   4.867   6.098   8.896  1.3314  0.0057 -0.5794
  273MOL0     C36768   5.222   6.066   8.830 -0.5220  0.0097  0.1554
  273MOL0     C36769   5.331   5.984   8.866 -0.1075  0.8220  0.3526
  273MOL0     N36770   5.695   5.212   8.838 -0.2760 -0.6818  0.4545
  273MOL0     N36771   5.719   5.089   8.838  0.8053  0.4631  0.3742
  273MOL0     C36772   6.171   4.201   9.249 -1.0795 -1.1054  0.0312
  273MOL0     C36773   6.252   4.092   9.217 -0.2558 -0.7691 -0.0174
  273MOL0     C36774   6.583   3.798   9.204  0.4521  0.8315  0.2973
  273MOL0     C36775   6.704   3.826   9.123  0.0547 -0.3887 -0.1562
  273MOL0     C36776   6.801   3.730   9.098  0.1138  0.3187  0.5007
  273MOL0     C36777   6.787   3.602   9.148  1.0362  0.5713 -0.6508
  273MOL0     O36778   6.876   3.499   9.122 -0.1226  0.1957 -0.3446
  273MOL0     C36779   6.982   3.500   9.031 -0.0838  0.5651  0.1118
  273MOL0     C36780   6.941   3.476   8.888 -0.4797  0.6730  0.1809
  273MOL0     C36781   7.026   3.381   8.808  0.1015  0.0413 -0.2204
  273MOL0     C36782   7.177   3.427   8.804  0.4393  0.7876 -0.2658
  273MOL0     C36783   7.238   3.381   8.687 -1.0565  0.9535  0.7645
  273MOL0     C36784   7.303   3.317   8.602 -0.5003  0.0314  0.1994
  273MOL0     C36785   6.677   3.573   9.227 -0.0436 -0.6600  0.2962
  273MOL0     C36786   6.571   3.667   9.253 -0.3937  0.6407 -0.4345
  273MOL0     C36787   6.448   3.626   9.331  0.7409  0.1299  0.1102
  273MOL0     H36788   6.263   3.938   9.514  0.1790 -0.8667 -0.4028
  273MOL0     H36789   6.090   4.110   9.566 -1.9839 -0.0812 -1.4282
  273MOL0     H36790   6.154   4.486   9.314 -0.1375  0.0613 -1.1722
  273MOL0     H36791   6.009   4.423   9.234 -0.0029 -0.6760 -0.2101
  273MOL0     H36792   5.979   4.558   9.498 -2.0497  0.2995  1.5543
  273MOL0     H36793   5.853   4.520   9.369  0.0785  0.9816 -1.0471
  273MOL0     H36794   6.076   4.719   9.335  1.1209 -1.9764  1.1804
  273MOL0     H36795   5.906   4.760   9.362 -1.6221 -0.9494  0.1975
  273MOL0     H36796   5.972   4.776   9.133  1.4710 -0.7551 -0.5250
  273MOL0     H36797   6.015   4.606   9.121  1.4007  1.9667 -1.3513
  273MOL0     H36798   5.803   4.646   9.008 -0.6415 -1.5474  0.3699
  273MOL0     H36799   5.802   4.541   9.144 -0.7052 -0.4050 -2.8672
  273MOL0     H36800   5.609   4.679   9.156  0.2678  0.0016 -1.0334
  273MOL0     H36801   5.715   4.714   9.292  1.4031  1.2209 -0.3290
  273MOL0     H36802   5.775   4.915   9.192  1.0358 -0.7510 -2.8674
  273MOL0     H36803   5.599   4.920   9.186 -2.2923 -2.7852 -2.3615
  273MOL0     H36804   5.800   4.877   8.952 -0.7727  0.7363 -0.1089
  273MOL0     H36805   5.623   4.841   8.943 -1.0889 -0.5745  1.5552
  273MOL0     H36806   5.666   5.146   9.156  3.4028 -0.1648 -0.5320
  273MOL0     H36807   5.742   5.440   9.062 -0.1577  2.5097 -1.5038
  273MOL0     H36808   5.724   5.458   8.894 -0.0503 -0.9535 -0.7575
  273MOL0     H36809   5.471   5.407   8.914  0.2024 -1.4495  0.8882
  273MOL0     H36810   5.504   5.438   9.091  2.1992  1.3792 -0.2693
  273MOL0     H36811   5.549   5.629   8.855  1.2792  1.8360  0.8075
  273MOL0     H36812   5.615   5.659   9.022 -1.0732  0.4635  0.0713
  273MOL0     H36813   5.387   5.660   9.106 -0.6602  0.4442  0.9208
  273MOL0     H36814   5.328   5.635   8.945  2.4161 -0.0670 -1.9803
  273MOL0     H36815   5.160   5.771   9.074 -1.8514  1.8791  2.0485
  273MOL0     H36816   4.979   5.911   9.002 -0.5644 -2.5726 -2.2286
  273MOL0     H36817   4.718   6.256   8.799 -1.3440  1.2978 -1.5392
  273MOL0     H36818   4.592   6.407   8.683 -0.3546 -0.8896 -1.2806
  273MOL0     H36819   4.758   6.761   8.489 -3.4147  2.0698  0.9188
  273MOL0     H36820   4.804   6.665   8.349 -0.2466  1.8234 -1.1842
  273MOL0     H36821   4.554   6.660   8.289 -1.3317 -0.9364  0.2011
  273MOL0     H36822   4.540   6.804   8.391  0.7405  1.0042 -0.1095
  273MOL0     H36823   4.719   6.777   8.142  0.6196 -0.9340  1.4784
  273MOL0     H36824   4.561   6.854   8.152 -1.1117 -0.5358  1.5085
  273MOL0     H36825   4.779   7.021   8.182 -1.3595  2.7386 -0.2279
  273MOL0     H36826   4.806   6.937   8.326  0.5391 -3.2036 -3.1391
  273MOL0     H36827   4.587   7.028   8.418 -2.4402 -1.6315 -0.8424
  273MOL0     H36828   4.532   7.051   8.257 -0.4319 -4.3926  1.1771
  273MOL0     H36829   4.687   7.216   8.208  2.0169 -3.0693 -1.1411
  273MOL0     H36830   4.578   7.267   8.339  2.2044  2.2229 -0.8602
  273MOL0     H36831   4.855   7.218   8.340 -1.4043 -0.7554 -2.8274
  273MOL0     H36832   4.788   7.169   8.500  0.4758  1.8555  1.8649
  273MOL0     H36833   4.876   7.390   8.522  0.3690  0.0109 -1.0301
  273MOL0     H36834   4.785   7.450   8.379 -1.1259  1.3541  0.3837
  273MOL0     H36835   4.926   6.575   8.480  0.9336  0.5425  0.7401
  273MOL0     H36836   5.071   6.404   8.601  0.7356  2.7465  2.4673
  273MOL0     H36837   5.225   6.157   8.772 -1.6843  0.6017  0.9751
  273MOL0     H36838   5.429   6.007   8.826  0.5272 -1.8282  0.1937
  273MOL0     H36839   6.142   4.269   9.170 -0.8145  1.6300  2.1597
  273MOL0     H36840   6.294   4.083   9.117 -0.5161 -2.6850  0.0081
  273MOL0     H36841   6.714   3.922   9.073  0.0926 -0.6982 -0.7502
  273MOL0     H36842   6.877   3.760   9.027  1.5671 -2.0948  0.9582
  273MOL0     H36843   7.023   3.400   9.044 -0.0951  0.5702  0.1881
  273MOL0     H36844   7.051   3.585   9.035 -1.9894  2.1270  1.5059
  273MOL0     H36845   6.950   3.574   8.841 -1.8662  2.0125  2.4843
  273MOL0     H36846   6.835   3.445   8.887  0.4446 -3.0345  0.6354
  273MOL0     H36847   6.976   3.376   8.711 -0.5863 -0.8947  0.1649
  273MOL0     H36848   7.023   3.278   8.845  1.2530 -0.0728 -0.4174
  273MOL0     H36849   7.186   3.536   8.797  1.7895  0.7296  0.3027
  273MOL0     H36850   7.237   3.398   8.891  0.3431  2.0813  0.2499
  273MOL0     H36851   7.345   3.252   8.528 -0.1953 -2.7145  2.5984
  273MOL0     H36852   6.665   3.476   9.274  1.1645 -1.2119 -0.4970
  273MOL0     H36853   6.364   3.637   9.262  0.4014 -0.8018  0.3584
  273MOL0     H36854   6.437   3.524   9.369 -1.1480 -0.5366 -2.0209
  273MOL0     H36855   6.439   3.696   9.414  3.3907  0.3964  0.2737
  274MOL0     O36856   6.326  10.683   0.371  0.7467 -0.0318  0.1279
  274MOL0     C36857   6.225  10.677   0.446  0.2866  0.6377  0.3184
  274MOL0     O36858   6.120  10.763   0.444 -0.4687  0.0799  0.8650
  274MOL0     C36859   6.099  10.845   0.333 -0.6030 -0.6440 -0.2489
  274MOL0     C36860   6.156  10.827   0.201 -0.0826  0.8442  0.3992
  274MOL0     C36861   6.119  10.914   0.102  0.0179  0.5347  0.9841
  274MOL0     C36862   6.034  11.022   0.132 -0.2141 -0.0428 -0.7009
  274MOL0     O36863   5.987  11.104   0.034 -0.1586 -0.4036  0.0473
  274MOL0     C36864   6.025  11.085  -0.105  0.2931  0.1320  0.1004
  274MOL0     C36865   5.981  11.215  -0.180  0.1207 -0.1995  0.5046
  274MOL0     C36866   6.014  11.357  -0.116  1.1573  0.4693  0.2198
  274MOL0     C36867   6.047  11.463  -0.225 -0.7139  0.2113  1.2054
  274MOL0     C36868   6.096  11.596  -0.160 -0.8226  0.5794 -0.3108
  274MOL0     C36869   6.236  11.582  -0.104  0.7616 -0.6011  0.4178
  274MOL0     C36870   6.285  11.711  -0.031 -0.4238 -0.2581 -0.5444
  274MOL0     C36871   6.404  11.682   0.058  0.1950 -0.7979  0.3256
  274MOL0     N36872   6.515  11.600  -0.010  0.4724  0.2113 -0.0581
  274MOL0     C36873   6.551  11.481   0.042 -0.0770  0.2376 -0.4264
  274MOL0     C36874   6.676  11.457   0.000 -0.2332 -0.7436 -0.0068
  274MOL0     C36875   6.771  11.344   0.025  0.1098  0.7658  0.2256
  274MOL0     C36876   6.838  11.358   0.160 -0.0000 -0.0701  0.3811
  274MOL0     C36877   6.795  11.259   0.261  0.2234  0.6116  0.0035
  274MOL0     C36878   6.860  11.128   0.243 -0.4932  1.3893  1.4142
  274MOL0     O36879   6.984  11.142   0.303  0.0583 -0.4728  0.0793
  274MOL0     C36880   7.070  11.033   0.296  0.5806 -0.9406 -0.0064
  274MOL0     C36881   7.197  11.062   0.344 -0.8816  0.3911 -0.2882
  274MOL0     C36882   7.308  10.972   0.347  0.2578 -0.6588 -0.0426
  274MOL0     C36883   7.299  10.855   0.266  0.9016  0.2361  0.7381
  274MOL0     C36884   7.403  10.757   0.240  0.7148  0.4727 -1.4024
  274MOL0     O36885   7.530  10.792   0.280 -0.0269  0.1395  0.0331
  274MOL0     C36886   7.630  10.697   0.271  0.6243 -0.2125 -0.2166
  274MOL0     C36887   7.676  10.639   0.151 -0.3732 -0.1977 -0.1309
  274MOL0     C36888   7.782  10.544   0.158 -0.0117  0.3545 -1.1663
  274MOL0     C36889   7.822  10.483   0.279 -0.6280  0.0249  0.4379
  274MOL0     O36890   7.917  10.378   0.282  0.7241 -0.4128  0.1732
  274MOL0     C36891   7.927  10.306   0.403  0.0830  0.4792  0.1125
  274MOL0     C36892   8.019  10.185   0.397 -0.5808  0.5487 -0.5861
  274MOL0     C36893   8.143  10.221   0.329 -0.4213  0.2233  0.0605
  274MOL0     C36894   8.246  10.121   0.325  0.5885  0.7778  0.0599
  274MOL0     C36895   8.387  10.183   0.325 -0.4153 -1.0538  0.0277
  274MOL0     C36896   8.493  10.074   0.303  0.2832  0.7371 -0.6795
  274MOL0     C36897   8.635  10.136   0.290  0.1633 -0.3505  0.0940
  274MOL0     C36898   8.739  10.031   0.304 -0.6166  0.6029 -0.3499
  274MOL0    Cl36899   8.768   9.973   0.471  0.0675  0.3921  0.1491
  274MOL0     C36900   7.780  10.552   0.397 -0.1903  0.4524 -0.3386
  274MOL0     C36901   7.682  10.657   0.395 -1.0770  0.1635 -0.3814
  274MOL0     O36902   7.378  10.645   0.195  0.1186 -0.7271 -0.2803
  274MOL0     C36903   7.173  10.828   0.217  0.7956  0.4933 -0.9743
  274MOL0     C36904   7.055  10.914   0.231 -0.0274 -0.3836  0.0647
  274MOL0     N36905   6.711  11.541  -0.096 -0.5699 -0.0973  0.4308
  274MOL0     N36906   6.612  11.635  -0.097  0.3524 -0.0314  0.5393
  274MOL0     C36907   5.979  11.042   0.260  0.4378  0.4086 -0.0289
  274MOL0     C36908   6.017  10.959   0.368 -0.4779  0.6630  0.9123
  274MOL0     C36909   6.218  10.573   0.546 -0.5707  0.0331 -0.4541
  274MOL0     C36910   6.103  10.497   0.556 -0.1384 -0.0831 -0.0928
  274MOL0     C36911   6.099  10.380   0.637 -0.0403  0.8621  0.0179
  274MOL0     C36912   6.213  10.356   0.717  0.7387  0.5873 -1.0043
  274MOL0     O36913   6.212  10.257   0.809  0.0427 -0.4860  0.1544
  274MOL0     C36914   6.320  10.165   0.799  1.1289 -0.5058  0.1830
  274MOL0     C36915   6.375  10.133   0.938  0.6073  1.2483  0.1287
  274MOL0     C36916   6.455  10.009   0.938  0.8597  0.3227 -0.7735
  274MOL0     C36917   6.371   9.879   0.894  0.2944  0.6899  0.3297
  274MOL0     C36918   6.453   9.761   0.923 -0.0717  0.2236  0.8028
  274MOL0     C36919   6.522   9.663   0.942 -0.2200 -0.0295  0.9065
  274MOL0     C36920   6.316  10.445   0.731 -0.6512  0.1250  0.4676
  274MOL0     C36921   6.331  10.544   0.630 -0.0870 -0.0247  0.1153
  274MOL0     C36922   6.454  10.634   0.638 -1.2998  0.5934  0.7731
  274MOL0     H36923   6.220  10.743   0.179  0.9491  1.6987  0.0217
  274MOL0     H36924   6.174  10.893   0.010  1.5186  3.0949  1.1978
  274MOL0     H36925   6.131  11.062  -0.115  0.7657  2.1297  0.1110
  274MOL0     H36926   5.960  11.005  -0.144  0.2437  0.2789 -0.1176
  274MOL0     H36927   5.875  11.212  -0.205  0.4062 -0.4405 -0.7569
  274MOL0     H36928   6.038  11.215  -0.274 -2.1380 -0.3935 -0.9335
  274MOL0     H36929   6.096  11.330  -0.048  1.7808  1.3940 -0.1424
  274MOL0     H36930   5.932  11.400  -0.057  0.5843 -2.2846  1.5852
  274MOL0     H36931   6.138  11.425  -0.271 -0.8811 -1.3403  2.0939
  274MOL0     H36932   5.963  11.473  -0.294 -1.7054  1.3180  2.5148
  274MOL0     H36933   6.095  11.686  -0.222 -0.2950  1.6251  1.1200
  274MOL0     H36934   6.027  11.626  -0.080 -3.3254  0.2063 -2.2320
  274MOL0     H36935   6.225  11.505  -0.027  1.2507 -0.6757  0.4148
  274MOL0     H36936   6.315  11.561  -0.177 -0.7177 -0.7040 -1.2209
  274MOL0     H36937   6.200  11.754   0.025  1.7429  0.0941  2.7288
  274MOL0     H36938   6.307  11.792  -0.102 -2.6159  0.3236 -0.6519
  274MOL0     H36939   6.450  11.779   0.083 -1.3718 -0.2449  1.1578
  274MOL0     H36940   6.366  11.624   0.142 -3.7954  0.0102 -0.6893
  274MOL0     H36941   6.501  11.415   0.113 -1.2493  0.6094 -0.8842
  274MOL0     H36942   6.731  11.242   0.025 -0.6722  1.0643 -0.0143
  274MOL0     H36943   6.844  11.359  -0.055 -1.1696  0.3962 -1.0682
  274MOL0     H36944   6.946  11.348   0.150 -0.0681 -2.1466  1.2768
  274MOL0     H36945   6.820  11.459   0.200 -0.6907  1.0294 -2.4706
  274MOL0     H36946   6.686  11.247   0.261  0.4189 -3.1500  3.3825
  274MOL0     H36947   6.811  11.306   0.359 -1.4228  0.3279  0.4366
  274MOL0     H36948   6.867  11.095   0.139 -0.6878 -1.0898  2.1245
  274MOL0     H36949   6.810  11.058   0.310  2.1506 -0.8243  1.2736
  274MOL0     H36950   7.223  11.155   0.394  0.6884  1.0601 -2.2189
  274MOL0     H36951   7.402  10.993   0.397 -0.1395 -0.0248  0.4616
  274MOL0     H36952   7.633  10.658   0.053 -2.5168  0.0402  0.7903
  274MOL0     H36953   7.820  10.501   0.066  0.3219  0.2323 -0.9743
  274MOL0     H36954   7.972  10.375   0.475 -0.5430  1.6185 -0.5684
  274MOL0     H36955   7.827  10.284   0.441 -1.4641  2.2482 -2.6148
  274MOL0     H36956   8.049  10.144   0.494  0.4478 -3.6252 -2.4466
  274MOL0     H36957   7.971  10.105   0.341 -0.5167 -0.9271  1.3720
  274MOL0     H36958   8.115  10.233   0.224  0.4352  0.6764 -0.1256
  274MOL0     H36959   8.178  10.322   0.351  1.6734 -0.1006 -1.4693
  274MOL0     H36960   8.231  10.059   0.236  0.2234 -0.7174  1.1188
  274MOL0     H36961   8.237  10.064   0.418 -1.0262  1.2336  0.2089
  274MOL0     H36962   8.408  10.232   0.420  1.3364  1.0277 -1.3296
  274MOL0     H36963   8.419  10.262   0.257  1.3282 -1.3383  0.4631
  274MOL0     H36964   8.488  10.017   0.396 -0.6492 -0.2108 -1.2788
  274MOL0     H36965   8.471  10.000   0.225 -1.3584 -0.6674  1.0229
  274MOL0     H36966   8.650  10.221   0.357  0.5625 -0.8492  0.6518
  274MOL0     H36967   8.641  10.196   0.199 -0.0268  1.2772  1.1228
  274MOL0     H36968   8.717   9.947   0.237 -1.1213  0.6485 -0.2408
  274MOL0     H36969   8.833  10.073   0.268  0.6210 -0.3263  1.6330
  274MOL0     H36970   7.807  10.522   0.498  2.1579  2.8803 -0.1413
  274MOL0     H36971   7.634  10.699   0.483 -2.9295 -0.5688 -0.9896
  274MOL0     H36972   7.163  10.740   0.153 -1.5773  1.9538 -2.8003
  274MOL0     H36973   6.969  10.875   0.178 -1.1860  0.0359  1.5622
  274MOL0     H36974   5.899  11.112   0.279 -0.3942 -0.6849  0.5691
  274MOL0     H36975   5.961  10.945   0.461  0.2509  0.8276  1.3852
  274MOL0     H36976   6.031  10.513   0.476  0.6389 -0.4911 -0.8966
  274MOL0     H36977   6.013  10.313   0.634  1.4799 -1.1741 -0.0676
  274MOL0     H36978   6.403  10.207   0.741 -0.3869  1.4909 -0.6752
  274MOL0     H36979   6.286  10.081   0.739  2.0959 -0.8359  0.0887
  274MOL0     H36980   6.297  10.132   1.015  0.2274 -0.2868 -0.2380
  274MOL0     H36981   6.448  10.211   0.959  0.3243  0.6827  3.8070
  274MOL0     H36982   6.501   9.999   1.037  0.8601  0.1097 -0.7933
  274MOL0     H36983   6.539  10.014   0.868  1.3745 -0.9289 -0.2914
  274MOL0     H36984   6.279   9.869   0.951  2.5264  1.3711  4.4394
  274MOL0     H36985   6.357   9.883   0.785  3.3147 -0.3107 -0.2070
  274MOL0     H36986   6.582   9.576   0.960  0.7498  0.6298  0.9726
  274MOL0     H36987   6.388  10.415   0.806 -2.4364 -0.9493  1.8375
  274MOL0     H36988   6.487  10.650   0.741 -3.4045  1.9578  1.3012
  274MOL0     H36989   6.538  10.577   0.598 -0.3481  1.2072  1.8769
  274MOL0     H36990   6.456  10.729   0.584  1.6875 -0.6589 -1.6144
  275MOL0     O36991   9.447   4.665   4.530 -0.7020  0.9990  1.0289
  275MOL0     C36992   9.415   4.673   4.409  0.7011 -0.4132 -0.3550
  275MOL0     O36993   9.375   4.568   4.325 -0.2627  0.1042  0.3791
  275MOL0     C36994   9.415   4.438   4.345 -0.3893  0.0831  0.3726
  275MOL0     C36995   9.524   4.397   4.416  0.4514 -0.2258  0.3677
  275MOL0     C36996   9.554   4.259   4.431  0.0781 -0.1108 -0.2878
  275MOL0     C36997   9.476   4.159   4.369  0.0282  0.1834  0.7517
  275MOL0     O36998   9.513   4.025   4.364  0.4654  0.1383 -0.3809
  275MOL0     C36999   9.562   3.966   4.484 -0.3159  0.4131  0.4377
  275MOL0     C37000   9.457   3.927   4.588  0.5883  0.6267 -0.7041
  275MOL0     C37001   9.341   3.846   4.542  0.7394 -0.8216  0.2802
  275MOL0     C37002   9.370   3.718   4.462  0.4015  0.6312  0.2271
  275MOL0     C37003   9.243   3.624   4.454 -0.5209 -0.1987 -1.1922
  275MOL0     C37004   9.208   3.559   4.588 -0.9207 -0.4999 -0.3029
  275MOL0     C37005   9.326   3.511   4.680  0.0040 -0.0886  0.2986
  275MOL0     C37006   9.270   3.410   4.787 -1.0830  0.3399 -0.0610
  275MOL0     N37007   9.378   3.344   4.863  0.3007 -0.0758  0.8661
  275MOL0     C37008   9.381   3.316   4.995  0.3974 -1.0437 -0.9886
  275MOL0     C37009   9.501   3.249   5.013 -0.8246  0.4189  0.2422
  275MOL0     C37010   9.574   3.206   5.139  0.4115 -1.1526  0.9637
  275MOL0     C37011   9.467   3.175   5.248 -0.9071  0.0629  0.3213
  275MOL0     C37012   9.522   3.082   5.348 -0.1750  0.7336 -0.6538
  275MOL0     C37013   9.511   2.935   5.301 -0.0773 -0.6659 -0.6370
  275MOL0     O37014   9.566   2.868   5.416 -0.5241  0.0437  0.1590
  275MOL0     C37015   9.703   2.850   5.420  0.5747 -0.4281  0.1411
  275MOL0     C37016   9.768   2.865   5.541 -0.0533  0.1079  0.1801
  275MOL0     C37017   9.902   2.835   5.556 -0.7239 -0.4550 -0.5588
  275MOL0     C37018   9.981   2.772   5.456  1.1502 -0.1066  0.3666
  275MOL0     C37019  10.110   2.700   5.479  0.3847  0.5136 -0.4417
  275MOL0     O37020  10.141   2.686   5.605 -0.8921  0.1402  0.1151
  275MOL0     C37021  10.267   2.647   5.644 -0.7285 -0.3437  0.0458
  275MOL0     C37022  10.374   2.591   5.563  0.6584 -0.0695 -0.3858
  275MOL0     C37023  10.498   2.563   5.626  0.0599  0.2626 -0.5766
  275MOL0     C37024  10.525   2.591   5.757 -0.3946 -0.1435 -0.3529
  275MOL0     O37025  10.643   2.552   5.821 -0.8552  0.1036 -0.4293
  275MOL0     C37026  10.753   2.537   5.737 -0.6023 -0.8054  0.2748
  275MOL0     C37027  10.887   2.586   5.795 -0.6882  0.0297 -0.3134
  275MOL0     C37028  11.015   2.535   5.707  1.2695 -0.8252  0.1081
  275MOL0     C37029  11.141   2.548   5.788 -0.3013  0.4076  0.1045
  275MOL0     C37030  11.167   2.442   5.892  0.0033 -1.2851  0.0275
  275MOL0     C37031  11.250   2.325   5.826 -0.9998 -0.9563  0.7040
  275MOL0     C37032  11.266   2.199   5.912 -0.0010  0.6084 -0.2170
  275MOL0     C37033  11.404   2.195   5.983 -0.0235 -0.5731 -0.6902
  275MOL0    Cl37034  11.409   2.038   6.074  0.3044  0.0883 -0.0870
  275MOL0     C37035  10.421   2.652   5.832 -0.6941 -0.4118 -0.2791
  275MOL0     C37036  10.293   2.677   5.776 -0.5131  0.1210  0.4755
  275MOL0     O37037  10.175   2.669   5.380  0.0605 -0.6906 -0.6230
  275MOL0     C37038   9.914   2.765   5.330 -0.6915 -0.1304 -0.0642
  275MOL0     C37039   9.777   2.795   5.317 -0.8492 -0.6561 -0.1362
  275MOL0     N37040   9.572   3.236   4.893 -0.6058 -0.1127 -0.1987
  275MOL0     N37041   9.490   3.298   4.809 -1.1434 -0.2576  0.2220
  275MOL0     C37042   9.361   4.206   4.299 -0.1379  0.2340 -0.5479
  275MOL0     C37043   9.332   4.338   4.288  0.4701  0.9876 -0.3450
  275MOL0     C37044   9.416   4.810   4.350 -0.3247  0.5487 -0.8981
  275MOL0     C37045   9.473   4.825   4.224  0.0068  0.1819 -0.0969
  275MOL0     C37046   9.479   4.950   4.171 -0.7265  0.0209 -0.0066
  275MOL0     C37047   9.458   5.070   4.238 -0.0595 -0.4510 -0.7733
  275MOL0     O37048   9.480   5.197   4.185 -0.5040  0.7844 -0.1490
  275MOL0     C37049   9.532   5.303   4.266  0.3689 -0.3743 -0.6982
  275MOL0     C37050   9.677   5.278   4.315  0.2031  0.6783 -0.5353
  275MOL0     C37051   9.783   5.303   4.200  0.4796 -0.6690  0.6829
  275MOL0     C37052   9.798   5.183   4.102 -0.4277  0.0931 -0.3985
  275MOL0     C37053   9.852   5.060   4.167 -0.3501  0.1870 -0.8762
  275MOL0     C37054   9.900   4.967   4.220  0.5564  0.6831 -0.1770
  275MOL0     C37055   9.409   5.049   4.367  0.5200  0.3783 -0.0602
  275MOL0     C37056   9.391   4.927   4.422 -0.5268 -0.3892  0.0590
  275MOL0     C37057   9.324   4.929   4.551  0.8937 -0.3914  0.0676
  275MOL0     H37058   9.584   4.475   4.462 -0.4469  1.1314 -0.6948
  275MOL0     H37059   9.644   4.235   4.486 -0.9852  1.2088  2.2061
  275MOL0     H37060   9.628   3.882   4.462  1.6657  1.5712  1.7109
  275MOL0     H37061   9.638   4.025   4.536  0.7783 -2.2911  2.1341
  275MOL0     H37062   9.410   4.021   4.619 -0.3484 -0.2340  0.6057
  275MOL0     H37063   9.496   3.883   4.680  0.2794  2.6780  0.4840
  275MOL0     H37064   9.284   3.911   4.474  0.7785 -2.4762 -1.4144
  275MOL0     H37065   9.279   3.824   4.629  2.0622 -2.7907  0.7800
  275MOL0     H37066   9.402   3.752   4.363 -0.7409  1.0922  0.0026
  275MOL0     H37067   9.443   3.654   4.512  0.0054  1.4139  1.8889
  275MOL0     H37068   9.154   3.677   4.417 -2.7259 -1.2892  2.0775
  275MOL0     H37069   9.263   3.554   4.372  1.8650  0.1847 -0.9987
  275MOL0     H37070   9.151   3.638   4.638 -1.1838  1.2208 -3.1279
  275MOL0     H37071   9.149   3.469   4.573  0.5584 -2.1391  2.7262
  275MOL0     H37072   9.391   3.589   4.720 -2.1844  0.3587  3.4068
  275MOL0     H37073   9.386   3.454   4.609 -0.6581  1.8257 -1.9160
  275MOL0     H37074   9.213   3.466   4.862  0.5892  2.7198 -0.4535
  275MOL0     H37075   9.199   3.336   4.747 -1.0832  2.0748 -3.6595
  275MOL0     H37076   9.317   3.349   5.076 -0.3117 -0.9756 -1.5650
  275MOL0     H37077   9.632   3.114   5.132  0.5524 -0.9744 -0.3729
  275MOL0     H37078   9.646   3.285   5.163 -1.1711  0.8616 -0.6159
  275MOL0     H37079   9.433   3.271   5.288  1.2401  1.5893 -1.2876
  275MOL0     H37080   9.380   3.124   5.203 -0.4876 -0.9733  0.6519
  275MOL0     H37081   9.456   3.080   5.435 -1.7878 -1.9522 -1.8069
  275MOL0     H37082   9.621   3.116   5.378 -0.6910  1.4591  0.2758
  275MOL0     H37083   9.558   2.908   5.206 -0.6871 -3.4775 -0.2298
  275MOL0     H37084   9.406   2.913   5.279 -0.0202  1.0423 -3.0143
  275MOL0     H37085   9.710   2.898   5.626  3.3918 -0.2059  2.8656
  275MOL0     H37086   9.941   2.845   5.657  2.4283 -2.4389 -1.4240
  275MOL0     H37087  10.345   2.557   5.464 -0.6413  1.2082 -0.4763
  275MOL0     H37088  10.566   2.512   5.559 -1.1764 -2.3962  0.0541
  275MOL0     H37089  10.761   2.435   5.699  1.0962  0.6444 -3.8556
  275MOL0     H37090  10.733   2.610   5.658 -3.0946 -0.5295  1.0684
  275MOL0     H37091  10.876   2.695   5.798 -1.6207 -0.0493 -0.3965
  275MOL0     H37092  10.901   2.542   5.894 -0.9143  0.0934 -0.2536
  275MOL0     H37093  11.001   2.436   5.664 -1.6532 -0.1666 -0.7263
  275MOL0     H37094  11.020   2.597   5.617  1.0225 -1.4659 -0.3573
  275MOL0     H37095  11.136   2.645   5.839 -0.3683 -0.3509  1.5908
  275MOL0     H37096  11.218   2.544   5.710 -0.9362  0.9553 -0.5667
  275MOL0     H37097  11.066   2.412   5.921 -0.8508 -1.1290 -2.5164
  275MOL0     H37098  11.225   2.479   5.977 -1.8507  2.3634 -0.0988
  275MOL0     H37099  11.208   2.292   5.731  1.8263  0.2111 -1.1160
  275MOL0     H37100  11.347   2.370   5.800 -2.5217  3.8061  2.2436
  275MOL0     H37101  11.250   2.111   5.850 -1.9763  0.4562  0.4402
  275MOL0     H37102  11.194   2.209   5.995  1.3734 -2.1628  1.4388
  275MOL0     H37103  11.484   2.205   5.909 -0.7228  1.0377 -1.2858
  275MOL0     H37104  11.423   2.273   6.057  1.0126 -1.6637  0.2356
  275MOL0     H37105  10.442   2.680   5.935  0.0941  2.1734 -1.0788
  275MOL0     H37106  10.220   2.706   5.851  0.0424  0.1447  1.0207
  275MOL0     H37107   9.963   2.707   5.252 -1.5395 -1.0135  0.0403
  275MOL0     H37108   9.730   2.766   5.223 -2.4053  3.1946 -0.7242
  275MOL0     H37109   9.298   4.142   4.238 -1.5307  1.8077 -0.8372
  275MOL0     H37110   9.242   4.361   4.232  1.5327  2.3015 -1.5937
  275MOL0     H37111   9.494   4.735   4.167 -0.3454  0.6662 -0.9966
  275MOL0     H37112   9.519   4.952   4.070 -2.7641 -0.2869 -0.8682
  275MOL0     H37113   9.469   5.318   4.354  1.0260 -1.0108 -0.1193
  275MOL0     H37114   9.518   5.404   4.225  0.5432  0.3145  0.8615
  275MOL0     H37115   9.696   5.173   4.340  1.4217  0.3352 -2.6417
  275MOL0     H37116   9.696   5.337   4.405 -0.2296  1.0670 -0.6965
  275MOL0     H37117   9.882   5.335   4.233  0.1221  1.7604 -0.3348
  275MOL0     H37118   9.749   5.388   4.139 -1.3661 -1.8542 -0.0217
  275MOL0     H37119   9.700   5.167   4.055 -0.4095  0.6680 -0.6313
  275MOL0     H37120   9.865   5.213   4.021  0.8016 -1.7859 -0.1568
  275MOL0     H37121   9.943   4.877   4.262 -0.2517  0.0273 -0.7234
  275MOL0     H37122   9.380   5.142   4.415  3.1108  2.2429 -1.8927
  275MOL0     H37123   9.228   4.981   4.548  0.1202 -1.6862  1.0214
  275MOL0     H37124   9.306   4.829   4.593  1.4386  0.7835  3.4047
  275MOL0     H37125   9.383   4.985   4.624 -2.0367  3.3315 -0.1210
  276MOL0     O37126   6.673   9.506   2.308 -0.5896  0.1481  0.2871
  276MOL0     C37127   6.623   9.442   2.399 -0.4553  0.1713  0.3540
  276MOL0     O37128   6.699   9.375   2.499 -0.0005 -0.7377  0.6706
  276MOL0     C37129   6.831   9.379   2.510 -0.6156 -0.0334  0.6697
  276MOL0     C37130   6.916   9.475   2.445 -0.7878 -0.4135 -0.0757
  276MOL0     C37131   7.060   9.458   2.453  1.2629  0.1271 -0.0508
  276MOL0     C37132   7.108   9.353   2.541 -0.3220  0.6490 -0.0301
  276MOL0     O37133   7.245   9.329   2.546  0.2731  0.4108  0.1959
  276MOL0     C37134   7.315   9.366   2.428  0.3298 -0.5514  0.9845
  276MOL0     C37135   7.460   9.321   2.420  0.8471  0.3249  0.5165
  276MOL0     C37136   7.539   9.363   2.299 -0.7042 -0.6950 -0.2858
  276MOL0     C37137   7.679   9.295   2.300  0.5480  1.2553  1.4117
  276MOL0     C37138   7.767   9.343   2.183 -0.3704  0.0676 -0.2121
  276MOL0     C37139   7.733   9.270   2.054  0.0174  0.1541 -0.2972
  276MOL0     C37140   7.843   9.283   1.947 -0.0142  0.3129  1.3084
  276MOL0     C37141   7.797   9.204   1.817 -0.2197  0.2061 -0.1232
  276MOL0     N37142   7.891   9.215   1.700 -0.5323  0.7648 -0.1499
  276MOL0     C37143   7.979   9.323   1.681  0.3038 -0.0232 -0.7567
  276MOL0     C37144   8.036   9.294   1.563 -0.4119  0.1866 -0.2784
  276MOL0     C37145   8.123   9.379   1.477 -0.4178 -0.4119 -0.2986
  276MOL0     C37146   8.193   9.296   1.368  0.2032  0.4092  0.4004
  276MOL0     C37147   8.300   9.390   1.307  0.0706 -0.3440 -0.6437
  276MOL0     C37148   8.362   9.324   1.185 -0.9121  0.4013  0.0375
  276MOL0     O37149   8.486   9.384   1.157  0.2560 -0.1299 -0.5917
  276MOL0     C37150   8.566   9.340   1.056  0.4060  0.0041  0.0132
  276MOL0     C37151   8.696   9.385   1.037  0.8815  0.3151 -0.1410
  276MOL0     C37152   8.781   9.331   0.940  0.5389  0.8220 -0.4303
  276MOL0     C37153   8.732   9.239   0.849 -0.0834 -0.0370 -0.0242
  276MOL0     C37154   8.820   9.194   0.742  0.7026 -0.2640  0.1233
  276MOL0     O37155   8.942   9.263   0.726  0.9764 -0.2444 -0.1361
  276MOL0     C37156   9.043   9.225   0.647 -0.3050 -0.3906 -0.0063
  276MOL0     C37157   9.143   9.328   0.635  0.4878  0.8984  0.2182
  276MOL0     C37158   9.253   9.311   0.554  0.1923  0.6291  0.7361
  276MOL0     C37159   9.264   9.201   0.472 -0.3273  0.2104 -0.0473
  276MOL0     O37160   9.382   9.187   0.400 -0.3748  0.4129 -0.1337
  276MOL0     C37161   9.425   9.062   0.338  0.6003  0.1879 -0.5304
  276MOL0     C37162   9.439   8.951   0.454  0.0819 -0.0984  0.1762
  276MOL0     C37163   9.448   8.997   0.607  0.2274 -0.2514  0.1373
  276MOL0     C37164   9.527   8.895   0.686 -0.8967 -0.3577 -0.3694
  276MOL0     C37165   9.564   8.937   0.828  0.3328 -0.2402 -0.0225
  276MOL0     C37166   9.638   8.833   0.920 -0.1646 -0.7061  0.2016
  276MOL0     C37167   9.685   8.907   1.048 -0.3001 -1.0204  0.9987
  276MOL0     C37168   9.716   8.833   1.174  0.1962 -0.3337  0.2739
  276MOL0    Cl37169   9.860   8.735   1.125 -0.4091 -0.6564 -0.1775
  276MOL0     C37170   9.158   9.104   0.467 -0.4670 -0.3884 -0.2645
  276MOL0     C37171   9.051   9.114   0.560  0.9633 -0.5347 -0.5550
  276MOL0     O37172   8.770   9.108   0.670 -0.4459 -0.8758 -0.1942
  276MOL0     C37173   8.598   9.200   0.855  0.4520  0.4783  0.3415
  276MOL0     C37174   8.515   9.248   0.958  0.7848 -0.5321  0.2639
  276MOL0     N37175   7.986   9.173   1.513  0.1258 -1.0259  0.5781
  276MOL0     N37176   7.899   9.125   1.603 -0.3685  0.4587 -1.2196
  276MOL0     C37177   7.025   9.268   2.609  1.1669  0.5110  0.3961
  276MOL0     C37178   6.884   9.285   2.595 -0.6163  0.5986  0.8333
  276MOL0     C37179   6.478   9.427   2.421  0.2583  0.5136 -1.2481
  276MOL0     C37180   6.423   9.324   2.496 -0.0367  0.3233 -0.5730
  276MOL0     C37181   6.288   9.308   2.516 -0.0853 -0.7943 -0.9882
  276MOL0     C37182   6.203   9.407   2.453  0.2207  1.4236 -0.9864
  276MOL0     O37183   6.067   9.387   2.480  0.4134  0.1417 -0.0384
  276MOL0     C37184   5.965   9.486   2.438 -0.4896 -0.2385 -0.1759
  276MOL0     C37185   5.836   9.487   2.518 -0.6730 -0.1608 -0.1399
  276MOL0     C37186   5.748   9.370   2.479 -0.3643  0.6925 -0.0236
  276MOL0     C37187   5.657   9.331   2.590  0.1627  0.5993 -0.7138
  276MOL0     C37188   5.520   9.321   2.552  0.3244 -0.2204 -0.1352
  276MOL0     C37189   5.402   9.302   2.551  0.1121  0.1894  0.1190
  276MOL0     C37190   6.250   9.506   2.370 -0.5676  1.2598 -0.5111
  276MOL0     C37191   6.389   9.512   2.355  0.5195  0.2991 -0.3310
  276MOL0     C37192   6.434   9.616   2.256 -0.1367 -0.0615  0.2967
  276MOL0     H37193   6.876   9.556   2.386 -2.3873 -1.1505 -0.0448
  276MOL0     H37194   7.124   9.526   2.398  1.2524 -0.8298 -1.2963
  276MOL0     H37195   7.270   9.319   2.340  0.9987 -2.7212  1.7261
  276MOL0     H37196   7.330   9.473   2.415 -1.2941 -0.1436  2.1331
  276MOL0     H37197   7.472   9.212   2.425 -1.6320  0.0231  1.2903
  276MOL0     H37198   7.511   9.365   2.506  2.3477 -0.7481  0.2311
  276MOL0     H37199   7.541   9.472   2.292  0.4606 -0.7036 -0.1331
  276MOL0     H37200   7.486   9.326   2.211 -2.2621 -0.4246  0.4994
  276MOL0     H37201   7.740   9.334   2.383  4.4209  1.6275 -1.3239
  276MOL0     H37202   7.671   9.186   2.297 -0.9695  1.3551 -1.4742
  276MOL0     H37203   7.769   9.451   2.166  5.4939  0.0011 -2.1851
  276MOL0     H37204   7.873   9.321   2.199 -0.9364 -3.2070 -0.3617
  276MOL0     H37205   7.729   9.161   2.064 -1.5483 -0.0191 -2.1037
  276MOL0     H37206   7.636   9.305   2.016 -0.7131 -1.2614  0.1926
  276MOL0     H37207   7.937   9.246   1.989  0.7890  1.9508  1.0096
  276MOL0     H37208   7.850   9.389   1.921  2.6734 -0.5851 -2.3226
  276MOL0     H37209   7.783   9.101   1.849  2.3135 -0.3900 -0.6798
  276MOL0     H37210   7.699   9.232   1.777 -2.5385 -2.4868  3.1531
  276MOL0     H37211   8.000   9.406   1.748  1.1759 -0.8340 -0.0013
  276MOL0     H37212   8.064   9.460   1.431  0.4743  0.9640  0.8813
  276MOL0     H37213   8.205   9.434   1.523  1.2945  0.3153 -3.8668
  276MOL0     H37214   8.241   9.204   1.403  2.1097  0.9711 -0.6284
  276MOL0     H37215   8.111   9.278   1.298 -1.3896  0.6601  2.1081
  276MOL0     H37216   8.385   9.412   1.372  1.1374  0.6093 -2.2785
  276MOL0     H37217   8.247   9.485   1.293  1.1588  0.3923  0.0978
  276MOL0     H37218   8.296   9.321   1.098 -1.8910  2.2003  0.6432
  276MOL0     H37219   8.391   9.225   1.221  2.9295  1.4717  0.3362
  276MOL0     H37220   8.742   9.458   1.102  1.5662 -0.2426  0.0073
  276MOL0     H37221   8.881   9.371   0.944  1.0780 -0.6127  2.0692
  276MOL0     H37222   9.127   9.414   0.699 -0.6679  0.3493  0.6916
  276MOL0     H37223   9.338   9.378   0.557  1.8805 -1.2842 -1.0370
  276MOL0     H37224   9.370   9.025   0.251 -1.0315 -2.3008  1.4055
  276MOL0     H37225   9.521   9.087   0.292  0.8444  1.9967  0.8530
  276MOL0     H37226   9.369   8.867   0.452 -0.0796 -0.0212  1.3487
  276MOL0     H37227   9.534   8.902   0.431 -0.5861 -2.4574  1.9900
  276MOL0     H37228   9.500   9.093   0.620  2.9190 -1.1592 -2.6639
  276MOL0     H37229   9.350   9.014   0.652 -0.0071  1.3506 -0.8757
  276MOL0     H37230   9.614   8.854   0.636 -1.8323 -1.1073 -1.4316
  276MOL0     H37231   9.472   8.801   0.690  0.3373 -1.0958  3.1414
  276MOL0     H37232   9.465   8.961   0.866 -1.0071 -2.3137 -1.9600
  276MOL0     H37233   9.629   9.025   0.829  0.4236 -0.2976  1.3018
  276MOL0     H37234   9.582   8.741   0.943 -1.3365  0.0825  0.5968
  276MOL0     H37235   9.727   8.796   0.868  0.5169  0.4218  0.5412
  276MOL0     H37236   9.606   8.975   1.081  1.0281  1.2209 -0.2142
  276MOL0     H37237   9.769   8.968   1.014 -0.5340 -1.8815 -1.2997
  276MOL0     H37238   9.741   8.905   1.252 -1.1042  2.1600 -1.4578
  276MOL0     H37239   9.631   8.769   1.199  0.9363 -2.3826 -2.0181
  276MOL0     H37240   9.165   9.016   0.403  0.2688 -0.8451  0.4236
  276MOL0     H37241   8.979   9.033   0.564  2.2365 -1.9385 -3.2302
  276MOL0     H37242   8.563   9.126   0.784 -1.7364  1.7492  0.0231
  276MOL0     H37243   8.409   9.226   0.948 -0.8975  4.5393  3.3101
  276MOL0     H37244   7.069   9.195   2.676 -1.4375 -0.9859  0.6296
  276MOL0     H37245   6.821   9.219   2.653 -0.0698 -0.9596 -0.2707
  276MOL0     H37246   6.485   9.243   2.534 -0.5611 -1.4209 -3.1232
  276MOL0     H37247   6.236   9.231   2.571  2.3744 -0.4430  2.1444
  276MOL0     H37248   5.934   9.492   2.334 -1.3865 -1.0392  0.0363
  276MOL0     H37249   6.019   9.579   2.462  3.4074 -2.6913  1.5742
  276MOL0     H37250   5.765   9.571   2.517 -2.2606 -1.4045  1.5190
  276MOL0     H37251   5.867   9.467   2.620 -1.0743 -2.3006 -0.3909
  276MOL0     H37252   5.807   9.288   2.437 -1.3960  0.2903 -0.7240
  276MOL0     H37253   5.678   9.382   2.396  1.2546 -2.4469 -2.0483
  276MOL0     H37254   5.687   9.233   2.629 -0.3116  0.2488 -1.2138
  276MOL0     H37255   5.672   9.398   2.675 -0.6265  1.6101 -1.3439
  276MOL0     H37256   5.304   9.264   2.533 -0.4196  1.6894 -0.3274
  276MOL0     H37257   6.179   9.567   2.314 -1.9113  0.5054  0.3050
  276MOL0     H37258   6.500   9.689   2.304 -2.4548  1.2489  1.7150
  276MOL0     H37259   6.472   9.572   2.164  3.9030  0.0693  1.7112
  276MOL0     H37260   6.343   9.674   2.236 -0.6870 -0.4901  1.4557
  277MOL0     O37261   1.216   4.215   8.127 -0.8487  0.0293  0.0281
  277MOL0     C37262   1.126   4.142   8.171  0.2889 -0.3333  0.7614
  277MOL0     O37263   1.133   4.050   8.278  0.0002 -0.2913  0.9458
  277MOL0     C37264   1.256   4.044   8.331  0.4139  0.3736  0.3339
  277MOL0     C37265   1.273   4.125   8.450 -0.0182  0.2458  0.4268
  277MOL0     C37266   1.393   4.114   8.510 -0.4073 -0.3549  0.0071
  277MOL0     C37267   1.498   4.031   8.470  1.0795  0.3503 -0.9469
  277MOL0     O37268   1.607   4.029   8.544  0.1952  0.9870 -0.3999
  277MOL0     C37269   1.702   3.927   8.535  0.7124  0.0607 -0.1327
  277MOL0     C37270   1.827   3.954   8.620 -0.1731 -0.9711 -0.3155
  277MOL0     C37271   1.790   4.015   8.762  0.8480  0.3134  0.1036
  277MOL0     C37272   1.909   4.056   8.845  0.0860 -0.0816 -0.6380
  277MOL0     C37273   1.963   3.931   8.912 -0.0933 -0.2203  1.1399
  277MOL0     C37274   2.050   3.948   9.041 -0.3534 -0.0984  0.6344
  277MOL0     C37275   2.112   3.819   9.113  0.6988 -0.1830 -0.7382
  277MOL0     C37276   2.213   3.744   9.028 -0.1660  0.2070 -0.0411
  277MOL0     N37277   2.347   3.805   9.015 -0.5743 -0.0746  0.7928
  277MOL0     C37278   2.459   3.769   9.087 -0.0804 -0.3115  0.1940
  277MOL0     C37279   2.550   3.861   9.050  0.5671 -0.0804  0.1760
  277MOL0     C37280   2.695   3.867   9.087  0.9273 -0.2528 -0.6925
  277MOL0     C37281   2.688   3.952   9.214 -0.8501 -0.2897 -1.0265
  277MOL0     C37282   2.832   3.980   9.259 -0.9616 -0.5654 -0.2915
  277MOL0     C37283   2.892   4.113   9.194 -0.0923  0.3151  0.6228
  277MOL0     O37284   3.030   4.093   9.191 -0.9423 -0.4418 -0.1056
  277MOL0     C37285   3.111   4.178   9.127 -0.5165 -0.2276  0.1341
  277MOL0     C37286   3.244   4.144   9.097  0.2969  0.8609  0.5243
  277MOL0     C37287   3.336   4.223   9.028 -0.4538  0.7008  0.0086
  277MOL0     C37288   3.291   4.343   8.976  0.4343 -0.3170  0.3740
  277MOL0     C37289   3.365   4.430   8.897  0.2425  0.1231  0.6826
  277MOL0     O37290   3.348   4.570   8.906 -0.5270 -0.7958 -0.1400
  277MOL0     C37291   3.426   4.651   8.825 -0.5343  0.1969  0.4357
  277MOL0     C37292   3.413   4.633   8.688 -0.1549  0.5189 -0.3818
  277MOL0     C37293   3.480   4.714   8.594  0.7811 -0.1826  0.0310
  277MOL0     C37294   3.551   4.821   8.646 -0.6332 -0.1877  0.1707
  277MOL0     O37295   3.611   4.927   8.581  0.5024  0.5385 -0.7097
  277MOL0     C37296   3.597   4.931   8.435  0.3096  0.4866  0.1291
  277MOL0     C37297   3.688   5.043   8.382 -0.0755  0.2354  0.1609
  277MOL0     C37298   3.643   5.174   8.453  0.7822 -0.0212  0.1138
  277MOL0     C37299   3.739   5.288   8.421 -0.6242 -0.0272  0.4472
  277MOL0     C37300   3.722   5.414   8.509 -0.2982 -0.0893  0.0920
  277MOL0     C37301   3.563   5.452   8.531 -0.3849 -0.1009  0.3051
  277MOL0     C37302   3.540   5.587   8.593 -0.4868  0.1179  0.2298
  277MOL0     C37303   3.569   5.596   8.737 -0.4283 -0.0415 -0.4168
  277MOL0    Cl37304   3.446   5.543   8.842  0.5976 -0.0888 -0.0093
  277MOL0     C37305   3.554   4.848   8.784 -0.5334 -0.2530 -0.2302
  277MOL0     C37306   3.494   4.761   8.877 -0.0292 -0.1563  1.3030
  277MOL0     O37307   3.444   4.376   8.810  1.4983  0.2980 -0.0024
  277MOL0     C37308   3.161   4.380   9.005 -0.1141 -0.5463  0.4771
  277MOL0     C37309   3.073   4.300   9.075  0.2743 -0.0703  0.1749
  277MOL0     N37310   2.495   3.945   8.961  0.0093  0.5141 -0.7881
  277MOL0     N37311   2.378   3.908   8.936 -0.5269  0.2690 -0.4632
  277MOL0     C37312   1.472   3.961   8.356 -0.1060  0.7164  0.3007
  277MOL0     C37313   1.357   3.954   8.287 -0.3142 -0.7463 -0.0788
  277MOL0     C37314   0.997   4.135   8.093 -0.8955 -0.2196 -0.3701
  277MOL0     C37315   0.882   4.059   8.140 -0.0769  0.2859 -0.1700
  277MOL0     C37316   0.761   4.032   8.070  0.0583  0.4119 -0.5772
  277MOL0     C37317   0.738   4.103   7.949 -1.2720 -0.6448  0.8835
  277MOL0     O37318   0.613   4.106   7.890  0.1832 -0.1475 -0.2275
  277MOL0     C37319   0.598   4.119   7.751  0.5663 -0.2123  0.0056
  277MOL0     C37320   0.541   4.253   7.694  0.3117  0.2561  0.6544
  277MOL0     C37321   0.525   4.262   7.540 -0.8581  0.4214 -0.1514
  277MOL0     C37322   0.450   4.383   7.498 -0.2953 -0.4363 -0.6569
  277MOL0     C37323   0.464   4.391   7.355  0.6719 -0.5345  0.4126
  277MOL0     C37324   0.464   4.414   7.234  0.3772  0.5319 -0.1513
  277MOL0     C37325   0.853   4.179   7.896  1.0344  0.2963 -0.3118
  277MOL0     C37326   0.976   4.201   7.963  0.1410  0.0398  0.5925
  277MOL0     C37327   1.088   4.263   7.882 -0.5088 -0.3437  0.8035
  277MOL0     H37328   1.199   4.190   8.496 -1.0032 -0.3895 -0.2243
  277MOL0     H37329   1.403   4.173   8.600 -0.0533 -0.4172  0.0078
  277MOL0     H37330   1.662   3.830   8.566 -2.7931  1.6611  0.9029
  277MOL0     H37331   1.727   3.921   8.429  1.2849  2.0888 -0.1618
  277MOL0     H37332   1.909   4.006   8.569 -0.1378 -0.0374  0.6554
  277MOL0     H37333   1.875   3.858   8.641 -2.9017 -1.7865  3.2087
  277MOL0     H37334   1.723   3.945   8.812 -0.5826  0.2438 -1.7699
  277MOL0     H37335   1.730   4.105   8.744  0.0860 -0.6599 -2.7421
  277MOL0     H37336   1.982   4.101   8.778 -0.2995  2.0638  0.3030
  277MOL0     H37337   1.892   4.121   8.931  1.4160 -2.4271  1.5088
  277MOL0     H37338   1.881   3.863   8.938  0.2573 -1.1698 -0.1249
  277MOL0     H37339   2.026   3.876   8.842 -3.6851 -0.2210 -2.4167
  277MOL0     H37340   2.128   4.018   9.010 -0.0925 -1.6544 -2.6229
  277MOL0     H37341   1.978   3.995   9.109 -1.7905 -3.1309  1.4075
  277MOL0     H37342   2.047   3.743   9.158  2.1409 -2.2137 -1.9612
  277MOL0     H37343   2.168   3.863   9.196  0.8584 -1.6428 -0.0385
  277MOL0     H37344   2.222   3.649   9.083 -3.3693 -0.0396  0.2748
  277MOL0     H37345   2.164   3.718   8.934  2.4555  0.8297 -1.6729
  277MOL0     H37346   2.480   3.685   9.153  0.5292 -0.9212 -0.7570
  277MOL0     H37347   2.745   3.772   9.107  1.5102 -0.2002 -1.8233
  277MOL0     H37348   2.750   3.915   9.005  2.8109  5.1508  3.1469
  277MOL0     H37349   2.632   4.044   9.196  0.7056  0.6523 -1.2568
  277MOL0     H37350   2.642   3.895   9.295 -0.3380 -0.1032 -0.6027
  277MOL0     H37351   2.897   3.892   9.254 -0.1314 -0.0891  1.4262
  277MOL0     H37352   2.823   4.004   9.365  0.2854  0.6091 -0.4188
  277MOL0     H37353   2.865   4.199   9.256 -2.4727  0.2578 -0.2214
  277MOL0     H37354   2.855   4.122   9.091 -0.0725  0.0549  0.5912
  277MOL0     H37355   3.280   4.047   9.127 -1.7562  0.8123  3.1608
  277MOL0     H37356   3.435   4.183   9.010  0.2571  1.0372  2.6848
  277MOL0     H37357   3.353   4.551   8.647  1.6490  0.2634 -2.7382
  277MOL0     H37358   3.495   4.686   8.490 -0.5731  1.7465 -0.7419
  277MOL0     H37359   3.630   4.840   8.384 -1.5558  1.8603 -4.0048
  277MOL0     H37360   3.496   4.952   8.399  0.2585  0.8067  0.4661
  277MOL0     H37361   3.792   5.020   8.403 -0.1490 -0.2274  0.0204
  277MOL0     H37362   3.676   5.052   8.274 -1.9374  1.3026  0.4047
  277MOL0     H37363   3.549   5.216   8.417  2.8690  3.9828 -1.3869
  277MOL0     H37364   3.641   5.167   8.562 -1.6631  0.2620  0.1454
  277MOL0     H37365   3.720   5.311   8.315 -1.2950 -0.5761  0.4442
  277MOL0     H37366   3.841   5.250   8.425  0.1644  1.9764  0.4085
  277MOL0     H37367   3.771   5.499   8.461 -2.9933  0.6959 -1.5058
  277MOL0     H37368   3.765   5.393   8.608  0.2968 -0.0688 -0.1564
  277MOL0     H37369   3.518   5.455   8.431  0.5447 -1.0020 -0.1650
  277MOL0     H37370   3.521   5.367   8.585  0.6488 -0.7758  0.0950
  277MOL0     H37371   3.444   5.624   8.558  0.2908  1.4155 -0.6173
  277MOL0     H37372   3.601   5.658   8.536  0.1386 -0.2592  0.4083
  277MOL0     H37373   3.659   5.539   8.762  0.7879  1.5544 -0.9960
  277MOL0     H37374   3.600   5.701   8.746  1.6827 -0.7496  1.5698
  277MOL0     H37375   3.595   4.937   8.830 -1.1974 -0.5773  1.0598
  277MOL0     H37376   3.494   4.769   8.985 -2.7563  0.0363  1.3559
  277MOL0     H37377   3.127   4.474   8.964 -2.8805 -1.6234  0.0825
  277MOL0     H37378   2.979   4.354   9.083 -2.7723 -4.4380 -1.8926
  277MOL0     H37379   1.540   3.882   8.328 -1.8096 -1.8919  2.8788
  277MOL0     H37380   1.339   3.894   8.199 -1.5199 -0.3837 -0.0965
  277MOL0     H37381   0.888   4.020   8.241  2.0479 -0.6530 -0.6170
  277MOL0     H37382   0.675   3.973   8.100 -0.6497  0.6639 -2.0374
  277MOL0     H37383   0.544   4.032   7.713  0.3492 -0.8756  1.7890
  277MOL0     H37384   0.695   4.099   7.703  0.2736 -2.6689  0.3028
  277MOL0     H37385   0.593   4.343   7.727  1.3182  1.7318 -4.1779
  277MOL0     H37386   0.443   4.282   7.733  0.4887  3.0141 -0.7008
  277MOL0     H37387   0.475   4.170   7.509 -1.6821  0.6463  0.4515
  277MOL0     H37388   0.625   4.258   7.497 -1.0230  3.9812 -1.1895
  277MOL0     H37389   0.345   4.362   7.523 -0.3588 -0.2941 -0.7931
  277MOL0     H37390   0.482   4.478   7.542 -0.2066 -0.5603 -0.4536
  277MOL0     H37391   0.461   4.431   7.129  0.0192 -3.9430 -1.0717
  277MOL0     H37392   0.832   4.230   7.802 -1.6223  0.3958  0.2544
  277MOL0     H37393   1.147   4.338   7.934  0.3477  1.0646 -1.9927
  277MOL0     H37394   1.148   4.179   7.846 -1.8808  0.0051 -2.7414
  277MOL0     H37395   1.049   4.309   7.791 -1.1226 -0.1229  1.1726
  278MOL0     O37396   3.378   0.862   1.048 -0.5223 -0.3038 -0.1223
  278MOL0     C37397   3.370   0.831   1.165 -0.1200  0.2381 -0.6920
  278MOL0     O37398   3.477   0.809   1.252 -0.5542 -0.2084 -0.2021
  278MOL0     C37399   3.608   0.840   1.215  0.0557  0.7638 -0.1189
  278MOL0     C37400   3.694   0.754   1.280  0.0251 -0.9201  0.5276
  278MOL0     C37401   3.832   0.781   1.247 -0.4011 -0.0529 -0.3235
  278MOL0     C37402   3.887   0.886   1.180 -0.2925 -0.5573  0.4680
  278MOL0     O37403   4.029   0.901   1.171  0.1094  0.6128  0.0854
  278MOL0     C37404   4.081   0.893   1.033  0.1774  0.8703  0.4861
  278MOL0     C37405   4.230   0.859   1.020 -0.0626  0.8322 -0.0784
  278MOL0     C37406   4.272   0.837   0.877  0.5375  0.2453 -0.7956
  278MOL0     C37407   4.422   0.800   0.865  0.2485 -0.8131  0.0437
  278MOL0     C37408   4.512   0.923   0.841  0.8594  0.4935 -0.7228
  278MOL0     C37409   4.665   0.882   0.813  0.3450  0.4838 -0.4033
  278MOL0     C37410   4.760   1.004   0.785 -0.2482 -0.2949  0.1329
  278MOL0     C37411   4.909   0.964   0.775 -0.4320  0.3957 -0.2427
  278MOL0     N37412   4.992   1.074   0.731 -0.0482 -0.5999  0.5788
  278MOL0     C37413   5.062   1.167   0.802  0.2993 -0.6729  0.1021
  278MOL0     C37414   5.140   1.227   0.710  0.3480  0.2124  0.3229
  278MOL0     C37415   5.243   1.333   0.743  0.5455  0.3417  0.3564
  278MOL0     C37416   5.288   1.424   0.635 -0.6176 -0.4492 -0.5107
  278MOL0     C37417   5.178   1.501   0.566  0.0074  0.1144 -0.2807
  278MOL0     C37418   5.139   1.634   0.629 -0.9799  0.5126 -0.4002
  278MOL0     O37419   5.049   1.705   0.545  0.2132 -0.8590  0.0428
  278MOL0     C37420   4.921   1.658   0.541 -0.3589  0.5437  0.0188
  278MOL0     C37421   4.841   1.708   0.437  0.7317  0.2037 -0.1571
  278MOL0     C37422   4.708   1.668   0.430  0.9295  1.1109 -0.8857
  278MOL0     C37423   4.653   1.572   0.512  0.3969 -1.0272 -0.3034
  278MOL0     C37424   4.512   1.520   0.485 -0.1867 -0.7731 -0.1583
  278MOL0     O37425   4.471   1.399   0.543  0.4577 -0.0211  0.3083
  278MOL0     C37426   4.341   1.369   0.557  0.2934  0.6849 -0.1960
  278MOL0     C37427   4.242   1.456   0.618 -0.9387 -0.2819  0.4706
  278MOL0     C37428   4.117   1.411   0.664  0.2550 -0.3859  0.8351
  278MOL0     C37429   4.089   1.280   0.625  0.5781 -0.0542  0.5825
  278MOL0     O37430   3.963   1.237   0.662 -0.2300  0.1139 -0.5646
  278MOL0     C37431   3.858   1.298   0.585  1.1511  0.5657  0.1824
  278MOL0     C37432   3.726   1.220   0.632 -0.0942  0.7246  0.1257
  278MOL0     C37433   3.688   1.238   0.778 -0.0879  0.2532 -0.0564
  278MOL0     C37434   3.670   1.388   0.808  0.2343  0.1482  0.0541
  278MOL0     C37435   3.670   1.413   0.962  0.8147  0.4976 -0.1245
  278MOL0     C37436   3.811   1.427   1.010 -0.9932  0.2811  0.4297
  278MOL0     C37437   3.834   1.395   1.161  0.0430 -0.4548 -0.3344
  278MOL0     C37438   3.979   1.421   1.195  0.9355 -0.4003  0.7032
  278MOL0    Cl37439   4.073   1.279   1.169  0.3159 -0.1022  0.2806
  278MOL0     C37440   4.184   1.194   0.560  0.4192  0.8132 -0.3773
  278MOL0     C37441   4.309   1.241   0.522 -0.4959 -0.3640  0.0227
  278MOL0     O37442   4.440   1.592   0.420  0.7314  0.2676 -0.4130
  278MOL0     C37443   4.738   1.515   0.615  0.5460 -0.8093  0.3902
  278MOL0     C37444   4.867   1.559   0.633 -0.4358  1.3134  0.5651
  278MOL0     N37445   5.114   1.180   0.585 -0.2834 -0.4892  0.4941
  278MOL0     N37446   5.023   1.089   0.599  0.1850 -0.1308 -0.3712
  278MOL0     C37447   3.797   0.970   1.118  0.3264 -0.1542  0.2068
  278MOL0     C37448   3.657   0.948   1.131  0.6889  0.2315  0.9450
  278MOL0     C37449   3.237   0.800   1.219  0.2889 -0.6282 -0.5918
  278MOL0     C37450   3.128   0.884   1.193  0.4198  0.1932 -0.1788
  278MOL0     C37451   2.995   0.838   1.217 -0.5472 -0.5795  0.1751
  278MOL0     C37452   2.980   0.726   1.299  0.1207 -0.7475 -0.2774
  278MOL0     O37453   2.862   0.685   1.352 -0.1656  1.2704 -0.5710
  278MOL0     C37454   2.732   0.739   1.322 -0.6290 -0.5035  1.3185
  278MOL0     C37455   2.634   0.638   1.378 -0.8127  0.6857 -0.4358
  278MOL0     C37456   2.506   0.709   1.428 -0.1184  0.2351  0.7459
  278MOL0     C37457   2.384   0.633   1.392 -0.6703 -0.7610  0.5447
  278MOL0     C37458   2.256   0.712   1.404 -0.5779  0.5377 -0.3511
  278MOL0     C37459   2.144   0.751   1.434 -0.1280 -0.5231 -0.0147
  278MOL0     C37460   3.088   0.644   1.323  1.2609  0.0450  0.8522
  278MOL0     C37461   3.214   0.678   1.279  0.2784  0.9170  0.0476
  278MOL0     C37462   3.320   0.565   1.305  0.2651 -0.2336  0.0525
  278MOL0     H37463   3.665   0.680   1.353  0.1050 -0.3479  1.1421
  278MOL0     H37464   3.886   0.703   1.300 -1.9476 -1.5546 -0.8575
  278MOL0     H37465   4.022   0.812   0.988  0.0934  0.2007  1.7773
  278MOL0     H37466   4.062   0.986   0.979 -0.4197 -0.8903 -2.5992
  278MOL0     H37467   4.263   0.780   1.089 -2.2226 -1.3687 -1.4100
  278MOL0     H37468   4.278   0.952   1.051 -0.2403  1.0441 -0.4440
  278MOL0     H37469   4.258   0.932   0.825  1.5728  0.2840 -1.0189
  278MOL0     H37470   4.206   0.767   0.823 -0.1375  2.4657 -3.0518
  278MOL0     H37471   4.453   0.770   0.966  0.1438  1.1895  0.7132
  278MOL0     H37472   4.434   0.724   0.788 -4.4056 -1.1773 -0.6358
  278MOL0     H37473   4.464   0.980   0.761 -1.5899 -0.2681  0.1349
  278MOL0     H37474   4.511   0.985   0.932 -5.2222  0.7992 -0.5663
  278MOL0     H37475   4.694   0.823   0.900  1.7284  0.2408 -0.9915
  278MOL0     H37476   4.656   0.814   0.727 -0.8025 -0.0150  0.1058
  278MOL0     H37477   4.749   1.079   0.864  0.7022  0.3697 -0.3421
  278MOL0     H37478   4.722   1.056   0.697  2.6076 -0.9928 -1.6629
  278MOL0     H37479   4.938   0.924   0.872  0.6899  1.2937 -0.1765
  278MOL0     H37480   4.923   0.891   0.695  0.1304 -0.0888  0.2861
  278MOL0     H37481   5.061   1.181   0.909 -1.3493 -0.4914  0.0953
  278MOL0     H37482   5.227   1.404   0.826  2.3070  1.5325 -0.2625
  278MOL0     H37483   5.334   1.272   0.750  2.5958  2.8322 -2.2278
  278MOL0     H37484   5.348   1.505   0.678  0.4553 -0.8569 -1.1944
  278MOL0     H37485   5.354   1.364   0.571 -0.9931 -2.5779  0.9780
  278MOL0     H37486   5.081   1.452   0.550 -1.0041  2.5103 -2.2104
  278MOL0     H37487   5.221   1.532   0.470  0.8117 -2.5653 -0.8797
  278MOL0     H37488   5.229   1.696   0.624 -1.9546  1.9273 -1.1154
  278MOL0     H37489   5.106   1.621   0.733 -0.8747  0.8659 -0.3229
  278MOL0     H37490   4.880   1.784   0.371  2.1204 -1.1078 -0.9331
  278MOL0     H37491   4.652   1.703   0.344 -1.0329  0.6535  0.1594
  278MOL0     H37492   4.281   1.556   0.634  0.9655 -0.3447 -2.7554
  278MOL0     H37493   4.043   1.479   0.705 -1.8913 -2.0657 -0.0569
  278MOL0     H37494   3.844   1.406   0.596  0.8304  0.3520  2.4776
  278MOL0     H37495   3.880   1.275   0.481  4.1112 -0.2545  0.8909
  278MOL0     H37496   3.642   1.253   0.569  1.7209  0.3812 -2.6830
  278MOL0     H37497   3.738   1.115   0.606  1.8436  0.6331  1.1835
  278MOL0     H37498   3.597   1.181   0.798 -0.3530  1.0196  0.9541
  278MOL0     H37499   3.770   1.196   0.837 -0.9285  3.0217  3.3634
  278MOL0     H37500   3.570   1.405   0.767  0.7244  0.7504 -0.9250
  278MOL0     H37501   3.747   1.447   0.758  1.1841 -1.7458 -0.8031
  278MOL0     H37502   3.607   1.333   1.002 -1.4358  2.6716  0.9250
  278MOL0     H37503   3.613   1.504   0.981 -1.2255 -1.0355  1.6188
  278MOL0     H37504   3.873   1.373   0.938  0.3906  3.4317 -0.9611
  278MOL0     H37505   3.841   1.529   0.983 -1.1490  0.5608  1.2633
  278MOL0     H37506   3.807   1.295   1.194  3.0338 -1.1695  0.2282
  278MOL0     H37507   3.773   1.467   1.217 -1.2245  1.5305 -3.9157
  278MOL0     H37508   4.025   1.502   1.139  2.8516 -3.1413 -1.9825
  278MOL0     H37509   3.963   1.444   1.301  1.5380  1.9792  0.3238
  278MOL0     H37510   4.152   1.096   0.526 -2.7025  1.3108  0.7763
  278MOL0     H37511   4.383   1.181   0.470  0.0869  0.4881 -0.1597
  278MOL0     H37512   4.692   1.433   0.670  0.0979 -0.3305  0.7366
  278MOL0     H37513   4.923   1.515   0.715 -0.3323 -1.1823 -0.7392
  278MOL0     H37514   3.840   1.049   1.058 -2.4405  2.7477  1.7676
  278MOL0     H37515   3.588   1.017   1.082  2.0048 -0.7816 -2.6360
  278MOL0     H37516   3.144   0.979   1.143 -0.5529  0.7973  0.6198
  278MOL0     H37517   2.911   0.902   1.194 -0.1756 -0.2136 -0.1907
  278MOL0     H37518   2.709   0.745   1.216 -2.3533  2.9258  1.7482
  278MOL0     H37519   2.721   0.842   1.357 -4.4570 -0.6589  1.0134
  278MOL0     H37520   2.675   0.584   1.464 -0.4423 -0.7052 -1.4433
  278MOL0     H37521   2.619   0.558   1.305 -1.3716  0.8163 -0.4644
  278MOL0     H37522   2.500   0.810   1.387 -0.4947  0.1096  0.4906
  278MOL0     H37523   2.500   0.708   1.537  1.0909 -1.1632  0.8383
  278MOL0     H37524   2.392   0.610   1.285 -0.2077  1.7675 -0.0361
  278MOL0     H37525   2.366   0.544   1.453 -0.1633 -1.9408 -0.9488
  278MOL0     H37526   2.046   0.781   1.465 -0.5107 -2.0863  0.4062
  278MOL0     H37527   3.062   0.560   1.386 -0.4109 -0.3124 -0.2415
  278MOL0     H37528   3.286   0.471   1.350 -2.3320  0.9462  0.7455
  278MOL0     H37529   3.353   0.530   1.207 -1.6475 -1.2996 -0.2643
  278MOL0     H37530   3.395   0.605   1.374  1.0285 -1.7627  0.1639
  279MOL0     O37531  10.715  11.171   0.643 -0.2955  0.0755  0.3194
  279MOL0     C37532  10.615  11.123   0.696  0.3515  0.2257 -0.4045
  279MOL0     O37533  10.608  11.032   0.795 -0.9572 -0.5085 -0.2162
  279MOL0     C37534  10.708  11.006   0.897  0.7139  0.5789  0.3904
  279MOL0     C37535  10.794  11.106   0.948 -0.0775 -1.0574  0.3312
  279MOL0     C37536  10.885  11.082   1.044  0.4199  0.9951 -0.1911
  279MOL0     C37537  10.910  10.951   1.094  0.0439 -0.1648  0.3110
  279MOL0     O37538  11.000  10.924   1.184  0.9819 -0.1480  0.1831
  279MOL0     C37539  10.980  10.989   1.307  0.4797 -0.4741 -0.5126
  279MOL0     C37540  11.096  10.954   1.406 -0.7281 -0.0601  0.0288
  279MOL0     C37541  11.231  10.998   1.348 -1.7454  0.8457  0.3042
  279MOL0     C37542  11.352  10.918   1.414  0.5824  0.7035  0.3137
  279MOL0     C37543  11.497  10.961   1.366 -0.3834  0.1922 -0.3947
  279MOL0     C37544  11.602  10.854   1.395 -0.9981  0.3351 -0.0601
  279MOL0     C37545  11.725  10.866   1.309  0.1674  0.6499  1.3763
  279MOL0     C37546  11.799  10.730   1.308  0.1349  0.9288  0.7744
  279MOL0     N37547  11.921  10.730   1.219 -0.4206 -0.4477  0.9222
  279MOL0     C37548  11.984  10.830   1.138 -0.2449  0.6923 -0.5191
  279MOL0     C37549  12.097  10.776   1.096 -0.5034 -0.1269 -0.0682
  279MOL0     C37550  12.191  10.823   0.994 -0.4396  0.4956  0.9061
  279MOL0     C37551  12.327  10.765   1.000  0.1134 -0.0485 -0.2437
  279MOL0     C37552  12.418  10.831   1.111  0.0160  0.0707 -0.0137
  279MOL0     C37553  12.554  10.770   1.082  0.6125  0.9532 -0.4982
  279MOL0     O37554  12.657  10.860   1.133 -0.0651 -0.1003 -0.2123
  279MOL0     C37555  12.769  10.807   1.191  0.4365  1.0536  0.0134
  279MOL0     C37556  12.846  10.891   1.260 -0.1397 -0.8626  0.8522
  279MOL0     C37557  12.966  10.853   1.318 -0.3370 -0.0767  0.6887
  279MOL0     C37558  13.015  10.721   1.300 -0.6058 -0.0263 -0.1240
  279MOL0     C37559  13.152  10.682   1.350 -0.3479  0.3310 -0.3386
  279MOL0     O37560  13.157  10.568   1.427  0.5595  0.4439 -0.0474
  279MOL0     C37561  13.281  10.538   1.486  0.0812  0.1678  0.3983
  279MOL0     C37562  13.384  10.489   1.411 -0.7442 -0.4448 -0.3126
  279MOL0     C37563  13.507  10.461   1.465  0.2958  0.0348 -0.1949
  279MOL0     C37564  13.527  10.466   1.601 -0.3951  0.4091 -0.0504
  279MOL0     O37565  13.654  10.443   1.653  0.5282  0.8492  0.2929
  279MOL0     C37566  13.675  10.441   1.804 -0.4459 -0.8876 -0.5011
  279MOL0     C37567  13.807  10.382   1.856 -0.7638  0.4595 -0.3598
  279MOL0     C37568  13.814  10.233   1.817  0.0101 -0.4389 -0.0146
  279MOL0     C37569  13.929  10.151   1.877  0.5482  0.1966  0.9827
  279MOL0     C37570  13.891  10.004   1.866 -0.4616 -1.1012  0.1876
  279MOL0     C37571  14.022   9.911   1.888 -0.2192  0.5860 -0.1060
  279MOL0     C37572  14.073   9.921   2.038 -0.8032 -0.3219 -0.0409
  279MOL0     C37573  14.188  10.024   2.046 -0.5697 -0.0195  0.3043
  279MOL0    Cl37574  14.244  10.036   2.223 -0.0919  0.5983 -0.0884
  279MOL0     C37575  13.418  10.508   1.684 -0.5903 -0.0517  0.4610
  279MOL0     C37576  13.298  10.541   1.621 -0.1228 -0.3686  0.1739
  279MOL0     O37577  13.250  10.762   1.335  0.5650 -0.1456  0.8173
  279MOL0     C37578  12.947  10.628   1.223  0.3725 -0.5767  0.8814
  279MOL0     C37579  12.819  10.671   1.185  0.4896 -0.1110  1.2912
  279MOL0     N37580  12.109  10.652   1.154 -0.0580  0.4610  0.5156
  279MOL0     N37581  12.010  10.629   1.234  0.1848  0.3131 -0.6858
  279MOL0     C37582  10.825  10.850   1.044 -0.6234 -0.1023 -0.5880
  279MOL0     C37583  10.726  10.876   0.954  1.1629 -0.9544 -0.9558
  279MOL0     C37584  10.473  11.156   0.649 -0.2279  0.0591  0.1998
  279MOL0     C37585  10.462  11.275   0.585 -0.4314 -0.7345 -1.0943
  279MOL0     C37586  10.339  11.325   0.547 -0.2507 -0.4301 -0.2976
  279MOL0     C37587  10.220  11.250   0.560  0.2734  0.0902 -0.1469
  279MOL0     O37588  10.108  11.323   0.521  0.1313  0.1995  0.3322
  279MOL0     C37589   9.978  11.269   0.572  0.0140 -0.9899  0.3595
  279MOL0     C37590   9.865  11.389   0.579  0.6671  0.9867 -0.3445
  279MOL0     C37591   9.897  11.513   0.671 -0.5639 -0.2169 -0.3329
  279MOL0     C37592  10.027  11.582   0.641 -0.5373  0.2449 -0.0153
  279MOL0     C37593  10.012  11.723   0.683 -0.3710  0.0635  0.2300
  279MOL0     C37594  10.007  11.840   0.716  0.3868 -0.0827 -0.2670
  279MOL0     C37595  10.228  11.122   0.605  0.9857 -0.5533 -0.5340
  279MOL0     C37596  10.356  11.068   0.635  0.4292 -0.2268 -0.1861
  279MOL0     C37597  10.361  10.928   0.681 -0.5949 -0.0494 -0.1924
  279MOL0     H37598  10.802  11.211   0.919 -0.8779 -0.9286  0.5420
  279MOL0     H37599  10.936  11.166   1.091  2.0914 -0.3532  0.4901
  279MOL0     H37600  10.982  11.098   1.295 -0.6492 -0.2926  0.8090
  279MOL0     H37601  10.885  10.966   1.355 -0.5121  3.5603 -0.1549
  279MOL0     H37602  11.096  10.851   1.443  0.1381  0.6353  2.0701
  279MOL0     H37603  11.082  11.007   1.501 -2.2220 -0.3378 -0.0005
  279MOL0     H37604  11.254  11.105   1.360  0.8487  0.6663 -2.0881
  279MOL0     H37605  11.226  10.990   1.239 -1.1951  2.3993  0.1361
  279MOL0     H37606  11.336  10.927   1.522 -1.6525 -0.4228  0.1316
  279MOL0     H37607  11.335  10.814   1.384  0.2355  1.1484 -1.0996
  279MOL0     H37608  11.490  10.981   1.258 -0.6158 -3.1405 -1.1176
  279MOL0     H37609  11.515  11.054   1.419 -2.4017  0.7225 -0.5391
  279MOL0     H37610  11.629  10.877   1.499  3.6959  2.5121 -1.5312
  279MOL0     H37611  11.555  10.755   1.384  0.7205 -0.3845 -1.2332
  279MOL0     H37612  11.791  10.946   1.342 -0.2691 -0.0320  4.1847
  279MOL0     H37613  11.698  10.900   1.209  0.0870  0.6147  1.3864
  279MOL0     H37614  11.844  10.719   1.407 -0.1774 -0.9840  0.7438
  279MOL0     H37615  11.739  10.643   1.281  2.0102 -1.1775  2.8657
  279MOL0     H37616  11.947  10.925   1.103 -0.9393  0.1076 -1.4137
  279MOL0     H37617  12.143  10.806   0.897 -0.1525  1.7539  0.5226
  279MOL0     H37618  12.191  10.932   1.005  0.2886  0.9808 -2.5714
  279MOL0     H37619  12.320  10.657   1.018 -1.5028  0.0178 -0.3816
  279MOL0     H37620  12.373  10.780   0.902  3.4825 -3.9927  0.4458
  279MOL0     H37621  12.380  10.807   1.211 -1.9571  0.6879 -0.5756
  279MOL0     H37622  12.424  10.940   1.105  0.0976  0.0044 -3.7592
  279MOL0     H37623  12.563  10.747   0.975 -3.5405  1.6667 -1.1297
  279MOL0     H37624  12.571  10.674   1.133 -1.5271 -1.0899 -3.3091
  279MOL0     H37625  12.816  10.994   1.270 -0.7097 -1.0739  1.3545
  279MOL0     H37626  13.026  10.930   1.364  1.3323 -0.0314 -1.4224
  279MOL0     H37627  13.376  10.470   1.304 -0.1087 -0.4126 -0.3660
  279MOL0     H37628  13.586  10.433   1.396 -1.2384 -1.4339 -1.4373
  279MOL0     H37629  13.669  10.543   1.841 -3.7621 -1.9378  2.4669
  279MOL0     H37630  13.595  10.382   1.851  0.7945 -1.5765  0.8456
  279MOL0     H37631  13.894  10.440   1.823  0.3503 -0.5216  0.7337
  279MOL0     H37632  13.821  10.388   1.965  3.8934  0.7133 -0.7545
  279MOL0     H37633  13.718  10.187   1.842 -0.2500  0.6212  1.0625
  279MOL0     H37634  13.827  10.241   1.709 -1.5691  2.5514 -0.1009
  279MOL0     H37635  13.947  10.162   1.984  2.0471 -1.9048  1.0214
  279MOL0     H37636  14.022  10.155   1.819  1.0354 -1.1968  1.6219
  279MOL0     H37637  13.844   9.985   1.769  0.1513 -1.3088 -0.0751
  279MOL0     H37638  13.806   9.982   1.931 -0.2065 -2.0753  0.2112
  279MOL0     H37639  13.998   9.806   1.867  1.6809  0.4119 -1.7862
  279MOL0     H37640  14.103   9.938   1.819  1.7324 -2.7247  0.6852
  279MOL0     H37641  14.101   9.818   2.064 -0.3928  0.6303  4.1071
  279MOL0     H37642  14.000   9.947   2.115 -1.5153 -0.1651 -0.7621
  279MOL0     H37643  14.269   9.985   1.984 -0.7967  2.2808 -1.5556
  279MOL0     H37644  14.175  10.122   1.999  0.9817 -1.0133 -2.4324
  279MOL0     H37645  13.420  10.512   1.793 -0.1363 -2.0155  0.5575
  279MOL0     H37646  13.218  10.580   1.684 -1.4409  1.8755 -2.6357
  279MOL0     H37647  12.988  10.534   1.188  2.3526  0.9873 -1.2784
  279MOL0     H37648  12.761  10.597   1.130  0.6620 -1.4562  2.8103
  279MOL0     H37649  10.823  10.754   1.095  1.8849 -0.3814 -0.8906
  279MOL0     H37650  10.663  10.795   0.917 -2.2810  2.2523 -2.7499
  279MOL0     H37651  10.545  11.344   0.582 -2.1668  1.5460  0.4194
  279MOL0     H37652  10.341  11.424   0.501  1.2303  0.5276  1.6665
  279MOL0     H37653   9.992  11.235   0.675  3.3629  1.3731  0.8857
  279MOL0     H37654   9.943  11.196   0.499  1.7093 -1.4399 -0.0367
  279MOL0     H37655   9.773  11.341   0.614  1.5021  0.0948  0.6786
  279MOL0     H37656   9.850  11.426   0.477 -1.3676 -1.8121 -1.1786
  279MOL0     H37657   9.886  11.495   0.779  2.4104  1.6938  0.4389
  279MOL0     H37658   9.818  11.584   0.644  0.9706  1.2915 -1.0253
  279MOL0     H37659  10.111  11.534   0.693 -1.0163 -0.7825 -0.1622
  279MOL0     H37660  10.043  11.581   0.533  0.2717  1.7165  0.0723
  279MOL0     H37661   9.982  11.942   0.740 -2.3836 -0.9815  1.0396
  279MOL0     H37662  10.143  11.054   0.606 -0.7091  1.4243 -0.9304
  279MOL0     H37663  10.290  10.865   0.628 -0.9486 -0.2248  0.4820
  279MOL0     H37664  10.457  10.881   0.661 -0.5042 -1.2060  2.5613
  279MOL0     H37665  10.341  10.922   0.788  0.0331 -2.3413 -0.1686
  280MOL0     O37666   7.850   3.714   1.985 -0.2181  0.1015 -0.3179
  280MOL0     C37667   7.921   3.616   1.945  0.6667  0.2631 -1.2315
  280MOL0     O37668   8.044   3.630   1.883 -0.0825  0.1895 -0.0744
  280MOL0     C37669   8.130   3.728   1.911 -0.3678 -0.3858  1.0052
  280MOL0     C37670   8.131   3.797   2.030  0.3853  0.6223  0.5636
  280MOL0     C37671   8.225   3.906   2.042  0.2474  0.1328 -0.7372
  280MOL0     C37672   8.311   3.942   1.939  0.3289  0.6470 -0.4954
  280MOL0     O37673   8.402   4.041   1.975  0.6429 -0.2190  0.6818
  280MOL0     C37674   8.474   4.110   1.869  0.7313  0.5579 -0.4859
  280MOL0     C37675   8.601   4.042   1.821 -1.1153 -0.1931  0.4211
  280MOL0     C37676   8.680   4.142   1.736 -0.5674  0.2586 -0.6068
  280MOL0     C37677   8.827   4.091   1.723  0.5539  0.2238 -0.8253
  280MOL0     C37678   8.903   4.182   1.629  1.3264 -0.6230  0.7003
  280MOL0     C37679   9.055   4.171   1.641 -0.1055  0.2502  0.1985
  280MOL0     C37680   9.131   4.291   1.577  0.0705  0.2622 -0.3788
  280MOL0     C37681   9.149   4.279   1.427  0.4760 -0.3303  0.0116
  280MOL0     N37682   9.241   4.388   1.384 -0.4882  0.4956  0.0975
  280MOL0     C37683   9.326   4.374   1.273  0.6706  0.0405 -0.4040
  280MOL0     C37684   9.359   4.498   1.245 -0.3302 -0.5871  0.3735
  280MOL0     C37685   9.468   4.524   1.144  0.4658  1.0805  0.2308
  280MOL0     C37686   9.559   4.638   1.185  0.7347  0.5896  0.6818
  280MOL0     C37687   9.685   4.592   1.263  0.4382 -0.9847  0.4048
  280MOL0     C37688   9.739   4.726   1.326  1.0190  0.6413 -0.1756
  280MOL0     O37689   9.888   4.712   1.349  0.4620  0.1627  0.8461
  280MOL0     C37690   9.956   4.778   1.451  0.1260 -0.9287  0.6681
  280MOL0     C37691  10.080   4.733   1.493 -0.0632  1.3362 -0.2488
  280MOL0     C37692  10.161   4.806   1.585  0.7350 -0.0761 -0.3570
  280MOL0     C37693  10.118   4.924   1.640 -0.2414 -1.1179 -0.5030
  280MOL0     C37694  10.196   5.011   1.733 -0.4203  0.1096  0.4243
  280MOL0     O37695  10.153   5.133   1.768  0.0200 -0.7908 -0.5603
  280MOL0     C37696  10.249   5.211   1.836 -0.2001 -0.3128 -0.2269
  280MOL0     C37697  10.236   5.238   1.969  1.2031  0.0481 -0.8468
  280MOL0     C37698  10.325   5.317   2.042 -1.0231 -0.6023 -0.6171
  280MOL0     C37699  10.417   5.394   1.969 -0.2659 -1.2873 -0.7191
  280MOL0     O37700  10.504   5.479   2.031 -0.6495 -0.8448  0.1132
  280MOL0     C37701  10.632   5.428   2.066 -0.7750  0.1521  0.1755
  280MOL0     C37702  10.734   5.470   1.963 -0.1504 -0.6543 -0.0264
  280MOL0     C37703  10.745   5.629   1.971 -0.3049  0.7171 -0.1212
  280MOL0     C37704  10.850   5.680   1.883 -0.1487  0.3485 -0.2705
  280MOL0     C37705  10.891   5.825   1.904  0.4802 -0.6225  0.0265
  280MOL0     C37706  10.988   5.872   1.789  0.5000  0.5491 -0.3091
  280MOL0     C37707  10.993   6.030   1.769  0.5956  0.6915  0.2110
  280MOL0     C37708  11.050   6.133   1.864  0.3125  0.2753 -1.3355
  280MOL0    Cl37709  10.996   6.306   1.815 -0.2117  0.1973 -0.0154
  280MOL0     C37710  10.421   5.388   1.831  0.1276  0.2151  0.8114
  280MOL0     C37711  10.343   5.287   1.766  0.1171 -0.5513  0.0382
  280MOL0     O37712  10.288   4.945   1.776  0.4985 -0.2537 -0.2555
  280MOL0     C37713   9.991   4.964   1.593  0.3945 -0.4798 -0.1312
  280MOL0     C37714   9.904   4.894   1.514 -0.2887  0.7186  0.0394
  280MOL0     N37715   9.303   4.581   1.333  0.7179  0.1407 -0.1927
  280MOL0     N37716   9.227   4.515   1.419  0.4397 -0.5570  0.1472
  280MOL0     C37717   8.280   3.885   1.813 -0.0904  0.3803  0.6873
  280MOL0     C37718   8.206   3.775   1.799 -0.0153 -0.0802 -0.7888
  280MOL0     C37719   7.869   3.476   1.967 -0.2164  0.8637  0.2939
  280MOL0     C37720   7.934   3.374   1.885 -0.1483  0.0838  0.6846
  280MOL0     C37721   7.882   3.243   1.893  1.4205 -0.6495 -0.5251
  280MOL0     C37722   7.754   3.221   1.940 -0.2518  0.3084  0.4410
  280MOL0     O37723   7.705   3.091   1.910  0.6847 -0.0468 -0.3827
  280MOL0     C37724   7.565   3.066   1.938  0.6347 -1.5677 -0.1583
  280MOL0     C37725   7.561   3.024   2.085 -1.1855  0.5570  0.7166
  280MOL0     C37726   7.430   2.985   2.156  0.1745 -0.5812  0.1533
  280MOL0     C37727   7.340   3.115   2.166  0.6903  0.5456  0.0796
  280MOL0     C37728   7.235   3.126   2.069  0.2352 -0.8459 -0.6205
  280MOL0     C37729   7.146   3.159   1.992 -0.1891  0.6684  1.1370
  280MOL0     C37730   7.696   3.318   2.022  0.5166  0.2004  0.2943
  280MOL0     C37731   7.749   3.446   2.039 -1.0414  0.2469 -0.1263
  280MOL0     C37732   7.661   3.546   2.109  0.6079 -0.8952 -0.8838
  280MOL0     H37733   8.073   3.765   2.116  0.5483  0.3658  0.5805
  280MOL0     H37734   8.236   3.954   2.138 -2.5568 -0.5868  0.0275
  280MOL0     H37735   8.407   4.140   1.788 -1.2681  0.0074  0.8915
  280MOL0     H37736   8.505   4.202   1.919 -1.1380  1.1243 -0.3010
  280MOL0     H37737   8.578   3.970   1.742 -0.0211 -0.0979 -0.0094
  280MOL0     H37738   8.666   3.988   1.890 -1.4103 -0.5677  0.4089
  280MOL0     H37739   8.682   4.243   1.778 -1.7592  0.6018 -1.3164
  280MOL0     H37740   8.631   4.147   1.638 -0.3383  0.8125 -0.6977
  280MOL0     H37741   8.882   4.096   1.817 -1.5337  0.8954  0.4113
  280MOL0     H37742   8.822   3.985   1.697  1.0951 -0.7099  2.4390
  280MOL0     H37743   8.869   4.171   1.526 -0.6613 -0.7831  1.3420
  280MOL0     H37744   8.877   4.284   1.659  2.5059 -0.6335  1.8313
  280MOL0     H37745   9.082   4.170   1.747  1.3218 -0.3408 -0.1469
  280MOL0     H37746   9.087   4.076   1.597  0.7422 -0.0102  1.3426
  280MOL0     H37747   9.231   4.277   1.620 -0.5465 -0.1471  0.9649
  280MOL0     H37748   9.106   4.392   1.612  0.9498  0.7503 -1.1127
  280MOL0     H37749   9.193   4.182   1.400  1.3607  0.0980 -0.1128
  280MOL0     H37750   9.053   4.283   1.376 -0.5959 -0.5784  1.9532
  280MOL0     H37751   9.353   4.280   1.225  1.4894 -0.4005  0.8605
  280MOL0     H37752   9.512   4.429   1.111 -4.2103 -1.3069  0.0382
  280MOL0     H37753   9.422   4.558   1.050  0.6676  1.5276  0.2940
  280MOL0     H37754   9.601   4.682   1.094  0.9085  0.8439  0.8852
  280MOL0     H37755   9.503   4.713   1.241 -0.8505 -3.1290  4.6296
  280MOL0     H37756   9.757   4.537   1.202  1.1791 -0.6098  0.9205
  280MOL0     H37757   9.644   4.523   1.338 -3.6194  2.2577  1.5794
  280MOL0     H37758   9.680   4.736   1.417 -4.0463 -1.5756 -2.7733
  280MOL0     H37759   9.706   4.811   1.264 -2.6238  2.5512  3.8328
  280MOL0     H37760  10.106   4.634   1.457  0.9781  0.3706  2.8221
  280MOL0     H37761  10.256   4.765   1.618  0.4457 -1.3737 -1.0764
  280MOL0     H37762  10.182   5.177   2.040  0.1802  1.0802 -0.7288
  280MOL0     H37763  10.326   5.324   2.150  3.7999 -3.1024 -0.1896
  280MOL0     H37764  10.672   5.477   2.156 -0.8279 -0.9755  0.8353
  280MOL0     H37765  10.632   5.320   2.085 -2.2461 -0.0337 -0.7977
  280MOL0     H37766  10.831   5.427   1.992 -0.6136 -0.5311  1.8365
  280MOL0     H37767  10.703   5.432   1.866 -1.1549  2.0050 -0.8191
  280MOL0     H37768  10.649   5.672   1.941 -1.0323 -0.4061  0.5071
  280MOL0     H37769  10.761   5.656   2.076 -3.6021  2.0654  0.1745
  280MOL0     H37770  10.831   5.667   1.776  1.6843  0.1568 -0.6115
  280MOL0     H37771  10.944   5.624   1.894  0.7359  0.6402 -4.7004
  280MOL0     H37772  10.947   5.829   1.998  1.1820 -1.9424 -0.3282
  280MOL0     H37773  10.801   5.887   1.894 -1.4725 -3.4471 -1.1124
  280MOL0     H37774  11.091   5.836   1.793  0.5732  0.5242 -1.7485
  280MOL0     H37775  10.958   5.832   1.691 -1.3181  2.5626 -0.6798
  280MOL0     H37776  10.887   6.055   1.757 -0.2282 -2.4046 -0.0031
  280MOL0     H37777  11.041   6.048   1.672  1.4578 -0.3604  0.4252
  280MOL0     H37778  11.010   6.115   1.964  2.2398 -0.3753 -0.6332
  280MOL0     H37779  11.159   6.129   1.865  0.3170 -0.1528  0.8569
  280MOL0     H37780  10.484   5.458   1.777  2.1341 -3.2310 -1.7032
  280MOL0     H37781  10.360   5.277   1.659 -1.0176  1.7378 -0.4234
  280MOL0     H37782   9.944   5.052   1.635  2.3627  0.3457  0.4307
  280MOL0     H37783   9.802   4.928   1.501  0.2341  1.8320 -1.5426
  280MOL0     H37784   8.341   3.916   1.729 -1.8601  1.5633 -0.2410
  280MOL0     H37785   8.192   3.736   1.699 -2.2537  0.2286 -0.6392
  280MOL0     H37786   8.025   3.387   1.827 -0.6792 -2.4518 -0.8691
  280MOL0     H37787   7.932   3.162   1.841  2.1161 -0.5379 -0.0497
  280MOL0     H37788   7.533   2.980   1.878 -1.3605 -3.2243  2.9777
  280MOL0     H37789   7.498   3.151   1.921  0.1934 -1.9823 -0.5422
  280MOL0     H37790   7.612   3.096   2.150 -1.2020  2.3699 -1.1636
  280MOL0     H37791   7.620   2.933   2.082  0.7090  1.7612 -0.6566
  280MOL0     H37792   7.437   2.945   2.258 -2.1118  2.1689  1.5208
  280MOL0     H37793   7.375   2.918   2.090  1.1303  0.4684 -1.7804
  280MOL0     H37794   7.295   3.124   2.265  1.5119 -0.9017  0.6182
  280MOL0     H37795   7.403   3.204   2.157 -1.4505  2.0400 -0.8550
  280MOL0     H37796   7.060   3.210   1.953 -0.2287  0.7426  1.3184
  280MOL0     H37797   7.600   3.288   2.062 -0.3267 -1.3677 -2.5480
  280MOL0     H37798   7.730   3.595   2.178 -0.9057  1.2068 -0.7769
  280MOL0     H37799   7.642   3.619   2.031  2.5917 -2.5678 -3.1047
  280MOL0     H37800   7.569   3.521   2.162 -1.0684  4.4908 -0.7149
  281MOL0     O37801   6.072   9.836   7.043  0.1754  0.4046 -0.4032
  281MOL0     C37802   5.989   9.825   6.959  0.1989 -0.1320  0.1862
  281MOL0     O37803   5.860   9.800   6.975  0.6576  0.1185  0.6175
  281MOL0     C37804   5.815   9.774   7.099  0.4446 -0.1319 -0.0700
  281MOL0     C37805   5.775   9.651   7.140  0.1529  0.6429 -0.4660
  281MOL0     C37806   5.737   9.628   7.271 -0.5552  0.1771 -0.1142
  281MOL0     C37807   5.730   9.731   7.368 -0.3189  0.0258  0.7018
  281MOL0     O37808   5.750   9.698   7.498  0.0856 -0.3265  0.0514
  281MOL0     C37809   5.790   9.564   7.535 -0.2950  0.8917  0.3204
  281MOL0     C37810   5.821   9.538   7.677  0.3605 -1.0972 -1.8280
  281MOL0     C37811   5.703   9.580   7.768 -0.3948  0.0358 -0.0674
  281MOL0     C37812   5.733   9.537   7.913  0.0549 -0.3692  1.4585
  281MOL0     C37813   5.646   9.597   8.016  1.1142  0.2532  0.6366
  281MOL0     C37814   5.671   9.747   8.048  0.2875 -0.0860 -0.3534
  281MOL0     C37815   5.554   9.787   8.143  0.0078  0.8584  0.2667
  281MOL0     C37816   5.551   9.718   8.277 -0.3806 -0.0146 -0.9354
  281MOL0     N37817   5.477   9.813   8.360 -0.2443 -0.4671 -0.9916
  281MOL0     C37818   5.521   9.908   8.447 -0.2747  0.3393 -0.1893
  281MOL0     C37819   5.409   9.966   8.498 -0.2684 -0.2217  0.4271
  281MOL0     C37820   5.414  10.090   8.592 -0.3101  0.8660  0.6278
  281MOL0     C37821   5.307  10.080   8.698 -0.0328 -0.0078  1.1597
  281MOL0     C37822   5.336   9.959   8.795  0.6350 -0.7526 -0.4231
  281MOL0     C37823   5.231   9.962   8.907  0.2097 -0.4851 -0.3988
  281MOL0     O37824   5.266   9.873   9.006  0.3998  0.7735  0.2362
  281MOL0     C37825   5.187   9.870   9.116 -0.4496 -0.3857 -0.2297
  281MOL0     C37826   5.224   9.781   9.215 -0.8324 -0.6411 -0.9293
  281MOL0     C37827   5.157   9.783   9.337  0.6910 -0.5911  0.4807
  281MOL0     C37828   5.036   9.863   9.364 -0.4815 -0.5496  0.5275
  281MOL0     C37829   4.969   9.886   9.497  0.8138  0.3795 -0.3587
  281MOL0     O37830   4.896   9.998   9.525  0.4032 -0.1917  0.4754
  281MOL0     C37831   4.779   9.992   9.607  0.5168  0.2394 -0.7742
  281MOL0     C37832   4.734  10.117   9.656  0.1735  0.2475 -0.6123
  281MOL0     C37833   4.617  10.124   9.742 -0.2229 -0.1701  0.0247
  281MOL0     C37834   4.532  10.013   9.757  0.1893  0.1553  0.3157
  281MOL0     O37835   4.420  10.023   9.833  0.1547  0.2129  0.3648
  281MOL0     C37836   4.301  10.026   9.747 -1.2912 -0.2337 -0.9292
  281MOL0     C37837   4.176  10.024   9.827  0.0918  0.3172  0.5184
  281MOL0     C37838   4.158   9.891   9.900  0.1749  0.2536 -0.2298
  281MOL0     C37839   4.022   9.892   9.966  0.0782  0.0776  0.1336
  281MOL0     C37840   3.910   9.851   9.866  0.7784  0.1283 -0.2023
  281MOL0     C37841   3.790   9.822   9.947  0.1832 -0.0160 -0.4926
  281MOL0     C37842   3.673   9.761   9.882 -0.5675 -0.2304  0.4146
  281MOL0     C37843   3.539   9.779   9.955  0.4494  0.2829  0.0557
  281MOL0    Cl37844   3.410   9.666   9.879  0.1589 -0.2672 -0.0479
  281MOL0     C37845   4.575   9.893   9.700 -0.4039  0.4340 -0.3623
  281MOL0     C37846   4.692   9.878   9.623 -0.0919 -0.5509  0.4726
  281MOL0     O37847   4.986   9.795   9.579 -0.2629  0.1354  0.7419
  281MOL0     C37848   5.009   9.961   9.268 -0.2963 -0.4269  0.5902
  281MOL0     C37849   5.081   9.958   9.148  0.5776 -0.3333  0.3590
  281MOL0     N37850   5.299   9.908   8.434  0.5972  0.2665 -0.2730
  281MOL0     N37851   5.340   9.817   8.353 -0.8458 -0.3704 -0.0608
  281MOL0     C37852   5.773   9.854   7.325  0.3047 -0.1458  0.2825
  281MOL0     C37853   5.808   9.878   7.189 -0.1029 -0.1810 -0.2709
  281MOL0     C37854   6.025   9.842   6.820 -0.2430 -0.2108 -0.2805
  281MOL0     C37855   6.128   9.935   6.789  0.1073 -0.6145  0.1001
  281MOL0     C37856   6.180   9.932   6.662  0.5539 -0.5775 -0.9028
  281MOL0     C37857   6.140   9.860   6.554 -0.3662 -0.5293  0.8162
  281MOL0     O37858   6.206   9.835   6.430 -0.6668 -0.2492  0.5552
  281MOL0     C37859   6.350   9.864   6.431  0.6974 -0.8230  0.4637
  281MOL0     C37860   6.411   9.759   6.335  0.8614  0.5586 -0.4215
  281MOL0     C37861   6.554   9.804   6.315  0.4080  0.4999  0.8659
  281MOL0     C37862   6.572   9.908   6.208 -0.3030 -1.1643 -0.3479
  281MOL0     C37863   6.724   9.929   6.183  0.7975  0.7424  0.2704
  281MOL0     C37864   6.842   9.947   6.173 -0.0817 -0.0241 -0.5298
  281MOL0     C37865   6.030   9.778   6.586  1.0484  0.0283  1.0317
  281MOL0     C37866   5.970   9.764   6.715 -0.0079 -0.7735  0.7485
  281MOL0     C37867   5.860   9.657   6.739 -1.0908 -0.4279  0.5457
  281MOL0     H37868   5.789   9.565   7.076  0.3402  0.3175  0.0037
  281MOL0     H37869   5.708   9.526   7.294  0.3326  0.4726  2.6511
  281MOL0     H37870   5.715   9.488   7.510 -0.6688  1.4219 -0.2098
  281MOL0     H37871   5.876   9.519   7.486 -0.9591 -2.6409  2.0330
  281MOL0     H37872   5.910   9.591   7.714 -0.4995 -3.1275  4.2098
  281MOL0     H37873   5.848   9.434   7.695  2.2302 -0.3186  0.4191
  281MOL0     H37874   5.603   9.542   7.747  0.1166 -0.7315 -1.2077
  281MOL0     H37875   5.711   9.689   7.779  1.4402 -0.0219 -0.5002
  281MOL0     H37876   5.722   9.428   7.918  1.1271 -0.4872  1.4953
  281MOL0     H37877   5.838   9.561   7.929  0.5759 -0.2299 -1.5191
  281MOL0     H37878   5.542   9.582   7.986  0.1706  0.3208  3.5965
  281MOL0     H37879   5.653   9.552   8.115 -2.0867 -2.4387 -0.1818
  281MOL0     H37880   5.769   9.758   8.095  0.3060  1.7550 -0.7256
  281MOL0     H37881   5.672   9.808   7.957  1.6174  1.1975  0.4816
  281MOL0     H37882   5.455   9.776   8.099 -0.1333  0.6054  0.6420
  281MOL0     H37883   5.566   9.894   8.163 -0.6128  0.7264  1.4605
  281MOL0     H37884   5.503   9.620   8.273 -1.3452  0.4252 -0.6631
  281MOL0     H37885   5.652   9.711   8.317 -1.0760  1.7124  1.3681
  281MOL0     H37886   5.623   9.931   8.475 -0.1788  0.6432 -0.7764
  281MOL0     H37887   5.510  10.089   8.644  1.4313  0.9294 -2.3419
  281MOL0     H37888   5.412  10.181   8.530  3.8244  1.7626  1.5129
  281MOL0     H37889   5.289  10.174   8.750  0.8023 -0.1161  1.6690
  281MOL0     H37890   5.214  10.057   8.644  0.8048 -0.6062 -0.0956
  281MOL0     H37891   5.436   9.956   8.840 -0.1314 -2.9885  1.3121
  281MOL0     H37892   5.335   9.866   8.739  2.2501 -3.4597  3.6008
  281MOL0     H37893   5.137   9.930   8.860  1.0470  0.1839 -2.6447
  281MOL0     H37894   5.220  10.060   8.953  0.1094 -1.0117  0.7246
  281MOL0     H37895   5.312   9.720   9.194  0.5444  1.1512 -0.6753
  281MOL0     H37896   5.190   9.714   9.414  0.7571 -0.0809  0.9176
  281MOL0     H37897   4.800  10.203   9.647  2.8859 -1.6740 -0.1104
  281MOL0     H37898   4.603  10.221   9.788 -1.4815 -0.6738  0.7644
  281MOL0     H37899   4.309  10.123   9.698  0.6971  1.8287  2.9896
  281MOL0     H37900   4.296   9.946   9.672  1.6076 -3.2389  1.7777
  281MOL0     H37901   4.181  10.108   9.897  0.6788 -0.4013  1.3580
  281MOL0     H37902   4.094  10.043   9.757  0.9432 -3.0780 -1.6675
  281MOL0     H37903   4.159   9.806   9.831 -3.3305 -1.3650  1.4351
  281MOL0     H37904   4.238   9.886   9.974 -1.0663  0.0134  1.1486
  281MOL0     H37905   3.995   9.980  10.024  0.4103 -1.2149  2.3867
  281MOL0     H37906   4.037   9.820  10.048 -0.6280  2.2689  2.2917
  281MOL0     H37907   3.936   9.765   9.805 -1.2395  0.6894 -1.9973
  281MOL0     H37908   3.888   9.938   9.803  0.9823  1.0184  0.9140
  281MOL0     H37909   3.818   9.745  10.020  1.2867 -0.4389 -1.3378
  281MOL0     H37910   3.757   9.914   9.997 -2.7010 -0.4420 -1.4183
  281MOL0     H37911   3.695   9.654   9.874  2.4390  0.2546  0.9267
  281MOL0     H37912   3.659   9.807   9.784 -1.1920  0.6207  0.8881
  281MOL0     H37913   3.548   9.760  10.063  0.2168 -0.6188 -0.0797
  281MOL0     H37914   3.497   9.880   9.943  1.7156  0.9429  0.9324
  281MOL0     H37915   4.510   9.808   9.713  1.6464 -1.2240 -0.4863
  281MOL0     H37916   4.736   9.799   9.564  0.7180  0.3976 -0.2358
  281MOL0     H37917   4.937  10.043   9.259  2.8973  2.5907  0.3443
  281MOL0     H37918   5.045  10.030   9.074  0.6458  0.2061  0.8416
  281MOL0     H37919   5.768   9.935   7.398  0.2465  1.9642 -1.9463
  281MOL0     H37920   5.838   9.979   7.164  3.8070 -1.1073  0.0619
  281MOL0     H37921   6.173  10.007   6.857  0.0896 -0.3478 -0.1663
  281MOL0     H37922   6.264  10.001   6.655 -1.1563  1.7191 -0.2543
  281MOL0     H37923   6.394   9.850   6.530  0.7049  2.7968  1.1002
  281MOL0     H37924   6.373   9.965   6.397 -1.3765 -0.9719 -1.6333
  281MOL0     H37925   6.347   9.777   6.248 -1.2750  0.2206  0.9975
  281MOL0     H37926   6.402   9.655   6.367 -0.8014 -0.0483 -2.6379
  281MOL0     H37927   6.622   9.720   6.299  1.5218  1.9231 -2.5917
  281MOL0     H37928   6.590   9.843   6.411  1.7469 -1.8771  1.4256
  281MOL0     H37929   6.533   9.869   6.113  0.8447  1.1288 -1.8389
  281MOL0     H37930   6.531  10.004   6.240  1.4970 -0.1833 -0.8761
  281MOL0     H37931   6.947   9.956   6.154  0.2407 -1.2996  0.5222
  281MOL0     H37932   5.994   9.715   6.506  2.1431  2.4431 -1.5155
  281MOL0     H37933   5.842   9.596   6.650 -0.1747  0.9958 -0.6799
  281MOL0     H37934   5.880   9.588   6.821  0.0870 -0.8114 -0.0391
  281MOL0     H37935   5.760   9.699   6.752 -2.1591 -2.5906 -0.1620
  282MOL0     O37936   7.695  11.364   3.018  0.4745 -0.1201 -0.2067
  282MOL0     C37937   7.755  11.285   3.086 -0.5694  0.4549 -0.4942
  282MOL0     O37938   7.800  11.163   3.038 -0.4777  0.0444 -0.7794
  282MOL0     C37939   7.790  11.135   2.904  0.0250 -0.4103 -1.0778
  282MOL0     C37940   7.706  11.035   2.861 -0.4359 -0.7907 -0.2927
  282MOL0     C37941   7.686  11.001   2.726 -0.1967 -0.3733 -0.2879
  282MOL0     C37942   7.751  11.074   2.626  0.0437 -0.6902  0.1924
  282MOL0     O37943   7.738  11.052   2.487  0.9344  0.0484  0.7227
  282MOL0     C37944   7.636  10.959   2.442 -0.5709 -0.2334  0.1987
  282MOL0     C37945   7.618  10.975   2.295 -0.4022  0.4718  0.3609
  282MOL0     C37946   7.533  11.097   2.270 -0.5797 -0.3666  0.4245
  282MOL0     C37947   7.524  11.113   2.115  1.0590  0.3275  0.0019
  282MOL0     C37948   7.423  11.215   2.063  0.8433  0.3998  0.0394
  282MOL0     C37949   7.437  11.218   1.906 -0.9688 -0.3789  0.4164
  282MOL0     C37950   7.321  11.288   1.830 -0.5052  0.1207 -0.8468
  282MOL0     C37951   7.224  11.194   1.771  0.2638  0.1234  0.8752
  282MOL0     N37952   7.102  11.262   1.718  1.1654  0.0777 -0.1348
  282MOL0     C37953   6.975  11.276   1.765  0.8235  0.7254  0.7129
  282MOL0     C37954   6.897  11.316   1.668  0.9088  0.7422 -0.1578
  282MOL0     C37955   6.755  11.354   1.677 -0.9222 -1.2464  0.5578
  282MOL0     C37956   6.649  11.252   1.652 -0.7391 -0.0967  0.0071
  282MOL0     C37957   6.620  11.197   1.509  0.2358 -0.5477  0.0937
  282MOL0     C37958   6.480  11.137   1.510 -0.1643 -0.0540 -0.7530
  282MOL0     O37959   6.393  11.246   1.479  0.0362  0.2026  0.2418
  282MOL0     C37960   6.270  11.199   1.455 -0.1351 -0.0796 -0.0789
  282MOL0     C37961   6.183  11.150   1.553 -0.2464  0.3623 -0.4695
  282MOL0     C37962   6.058  11.108   1.516 -0.0221 -0.9362  0.4634
  282MOL0     C37963   6.015  11.120   1.386  0.3899  0.0307 -0.0717
  282MOL0     C37964   5.870  11.091   1.355 -0.8718  0.7051 -0.1796
  282MOL0     O37965   5.777  11.089   1.452 -0.1227  0.2163  0.0791
  282MOL0     C37966   5.644  11.095   1.403  0.6612  0.4531  0.3726
  282MOL0     C37967   5.594  10.978   1.335  0.0943  0.1151 -0.0227
  282MOL0     C37968   5.460  10.974   1.298  0.3082  0.7337 -0.8238
  282MOL0     C37969   5.376  11.083   1.326 -0.8373  0.3919 -0.6652
  282MOL0     O37970   5.248  11.094   1.284 -0.4111 -0.1984  0.5816
  282MOL0     C37971   5.202  10.998   1.187  0.0351  1.0218  0.4259
  282MOL0     C37972   5.059  11.023   1.157  0.5865 -0.6028 -0.6861
  282MOL0     C37973   5.004  10.907   1.075 -0.2349 -1.0391 -0.5658
  282MOL0     C37974   4.865  10.853   1.112  0.6096  0.8710 -0.2301
  282MOL0     C37975   4.818  10.789   0.983  0.5337  0.3773 -0.4355
  282MOL0     C37976   4.665  10.769   1.001 -0.1236  0.3696  0.0775
  282MOL0     C37977   4.590  10.691   0.882  0.2538  0.6365  0.0031
  282MOL0     C37978   4.441  10.655   0.915 -0.6199  0.5248  0.4038
  282MOL0    Cl37979   4.369  10.523   0.809 -0.5089  0.3720 -0.0809
  282MOL0     C37980   5.423  11.191   1.403  0.5346 -0.6516  0.2273
  282MOL0     C37981   5.559  11.201   1.439 -0.8308 -1.0043  0.2380
  282MOL0     O37982   5.845  11.067   1.232 -0.3148 -0.2053  0.5261
  282MOL0     C37983   6.103  11.163   1.290  0.1251  0.2899  0.2632
  282MOL0     C37984   6.232  11.197   1.327  0.2240  0.1230  0.2874
  282MOL0     N37985   6.976  11.338   1.558  0.0565  0.3648 -0.4216
  282MOL0     N37986   7.098  11.305   1.588 -0.0828 -0.5733  0.3145
  282MOL0     C37987   7.845  11.174   2.668  0.0601 -0.0875 -0.1532
  282MOL0     C37988   7.859  11.211   2.806  0.8711  0.8822 -0.2881
  282MOL0     C37989   7.811  11.353   3.209  0.2815 -0.6849 -0.0264
  282MOL0     C37990   7.807  11.492   3.237 -1.0752 -0.1973  1.2487
  282MOL0     C37991   7.861  11.549   3.349 -0.2873 -0.4003 -0.8072
  282MOL0     C37992   7.902  11.474   3.456  0.0233  1.0126  0.5188
  282MOL0     O37993   7.944  11.515   3.581  0.0773 -0.2743 -0.3122
  282MOL0     C37994   7.915  11.646   3.615  0.6910 -0.3395  0.2185
  282MOL0     C37995   7.940  11.674   3.770 -0.8090  0.1425  0.5152
  282MOL0     C37996   7.841  11.767   3.827  0.3786 -0.1110  0.5733
  282MOL0     C37997   7.707  11.718   3.865  0.4086  0.3787 -0.5752
  282MOL0     C37998   7.614  11.820   3.911 -0.8651 -0.7503 -0.2942
  282MOL0     C37999   7.552  11.921   3.941 -0.9644 -0.2415 -0.0138
  282MOL0     C38000   7.900  11.336   3.435 -0.1167  0.2922  0.1272
  282MOL0     C38001   7.857  11.278   3.321  0.3396 -0.5400  1.2144
  282MOL0     C38002   7.854  11.128   3.318  0.5050  0.3010 -0.7331
  282MOL0     H38003   7.649  10.978   2.933 -0.9479 -2.3187 -1.8252
  282MOL0     H38004   7.620  10.915   2.718  0.2932 -0.8165  0.2642
  282MOL0     H38005   7.669  10.858   2.471 -0.5743 -0.1144  0.6280
  282MOL0     H38006   7.537  10.971   2.487 -0.3311 -0.5506  0.8272
  282MOL0     H38007   7.571  10.885   2.255  0.7266 -0.6802  1.5513
  282MOL0     H38008   7.719  10.977   2.253  0.0578 -0.2909  1.3931
  282MOL0     H38009   7.566  11.188   2.321 -0.3076  1.0888 -2.1359
  282MOL0     H38010   7.436  11.072   2.314  1.4891 -2.5826  4.1873
  282MOL0     H38011   7.620  11.155   2.084  0.8603  0.7378 -0.0750
  282MOL0     H38012   7.513  11.016   2.067  0.7318 -0.9429  2.5133
  282MOL0     H38013   7.320  11.182   2.082  0.7816 -0.4061 -1.4778
  282MOL0     H38014   7.449  11.313   2.102 -0.9577  0.6782  0.6503
  282MOL0     H38015   7.528  11.272   1.879  0.2788 -2.5924 -0.0293
  282MOL0     H38016   7.449  11.118   1.864 -0.6497 -0.1724  0.0155
  282MOL0     H38017   7.354  11.365   1.759 -0.9051  0.7779 -0.3325
  282MOL0     H38018   7.276  11.345   1.912 -0.3424 -2.0815  0.8649
  282MOL0     H38019   7.272  11.148   1.685 -2.4475  0.9757 -1.2562
  282MOL0     H38020   7.189  11.119   1.842 -3.1456 -0.4129 -1.1717
  282MOL0     H38021   6.947  11.269   1.870 -0.1590 -1.0021  0.3823
  282MOL0     H38022   6.747  11.391   1.780  3.4674  0.3389  0.5611
  282MOL0     H38023   6.746  11.444   1.615 -1.5976 -0.2431  2.0336
  282MOL0     H38024   6.683  11.173   1.720  1.2006  1.5895  1.1061
  282MOL0     H38025   6.564  11.297   1.705 -0.0920  2.0167 -0.6646
  282MOL0     H38026   6.698  11.127   1.479  3.0857  2.1138  0.7421
  282MOL0     H38027   6.624  11.282   1.441 -0.1004  0.5066  1.3570
  282MOL0     H38028   6.459  11.089   1.606 -0.1063 -0.9264 -1.1729
  282MOL0     H38029   6.479  11.050   1.444  0.1597 -2.4456  2.1882
  282MOL0     H38030   6.208  11.172   1.656  0.2631  1.3522 -0.7962
  282MOL0     H38031   5.978  11.095   1.587 -0.6915  1.2281  0.1853
  282MOL0     H38032   5.660  10.896   1.309  3.2475  2.4920 -0.1647
  282MOL0     H38033   5.423  10.878   1.263 -1.3968  0.9342  0.3244
  282MOL0     H38034   5.263  11.000   1.096 -0.6866  1.1171 -0.0662
  282MOL0     H38035   5.203  10.903   1.241 -2.2353  0.8730  0.2920
  282MOL0     H38036   5.006  11.024   1.252  1.6766 -0.3278 -0.0610
  282MOL0     H38037   5.049  11.125   1.117 -1.0658  1.0462  3.3573
  282MOL0     H38038   5.010  10.944   0.972  3.1156 -0.6641 -0.3489
  282MOL0     H38039   5.071  10.821   1.060 -2.0519 -2.7282  0.4850
  282MOL0     H38040   4.799  10.934   1.145 -0.9511  0.4491 -2.0883
  282MOL0     H38041   4.881  10.782   1.193 -0.5993 -3.4950 -3.3892
  282MOL0     H38042   4.863  10.689   0.973  1.7415  0.7335  1.0498
  282MOL0     H38043   4.827  10.844   0.889  0.7214 -1.4531 -1.5448
  282MOL0     H38044   4.648  10.723   1.099 -1.2875  2.7609  1.0854
  282MOL0     H38045   4.605  10.859   1.018  1.2283  1.1933  0.6577
  282MOL0     H38046   4.640  10.594   0.868 -0.3335 -0.1034  2.3626
  282MOL0     H38047   4.585  10.751   0.791 -1.3828  0.6851  0.0987
  282MOL0     H38048   4.441  10.619   1.019  0.6132  1.5641  0.7829
  282MOL0     H38049   4.377  10.742   0.901 -1.2339  0.0078 -0.0793
  282MOL0     H38050   5.361  11.279   1.416  2.8265  1.2027 -0.5083
  282MOL0     H38051   5.590  11.293   1.488 -5.1989  0.8321 -0.0349
  282MOL0     H38052   6.073  11.160   1.186  1.9743 -0.9441 -0.2930
  282MOL0     H38053   6.306  11.230   1.255 -1.0595 -3.0319 -2.7663
  282MOL0     H38054   7.902  11.216   2.586 -2.5869  2.1384 -1.0069
  282MOL0     H38055   7.934  11.283   2.838  1.7104  0.2540 -0.7968
  282MOL0     H38056   7.774  11.555   3.155  1.6640 -1.5699 -1.1037
  282MOL0     H38057   7.862  11.656   3.365 -2.1830 -0.2125 -1.7940
  282MOL0     H38058   7.814  11.677   3.585  1.1793  2.4536  1.0990
  282MOL0     H38059   7.982  11.705   3.551  1.1559 -0.4194  0.6304
  282MOL0     H38060   8.036  11.726   3.763  0.0171 -1.3274  0.4712
  282MOL0     H38061   7.940  11.582   3.829  2.1017  0.2006  0.7437
  282MOL0     H38062   7.825  11.834   3.741 -0.0106 -0.0949  0.6550
  282MOL0     H38063   7.888  11.825   3.907 -2.5801  0.0857  2.2970
  282MOL0     H38064   7.667  11.667   3.776  2.8798 -1.8432 -0.5630
  282MOL0     H38065   7.716  11.654   3.954  2.0253  2.7602  1.0741
  282MOL0     H38066   7.491  12.003   3.973 -1.1831 -1.2722  2.4205
  282MOL0     H38067   7.916  11.270   3.519 -2.0002 -2.7492 -1.7355
  282MOL0     H38068   7.927  11.079   3.253 -0.4028 -3.4839  0.8188
  282MOL0     H38069   7.862  11.078   3.415 -0.8287  2.0890  0.3596
  282MOL0     H38070   7.755  11.094   3.288  0.1051  1.2063 -0.4538
  283MOL0     O38071  10.679   6.856   0.382 -0.2391 -0.0711  0.1859
  283MOL0     C38072  10.650   6.878   0.268 -0.4027 -0.7408 -0.6136
  283MOL0     O38073  10.602   6.991   0.219 -0.1528 -0.2757  0.1123
  283MOL0     C38074  10.578   7.096   0.303 -0.0617 -0.8875  0.8031
  283MOL0     C38075  10.658   7.217   0.289 -0.0398 -0.8135  0.5597
  283MOL0     C38076  10.635   7.327   0.376  0.9572  0.1332  0.6568
  283MOL0     C38077  10.535   7.317   0.469  0.6000 -0.0331 -0.3608
  283MOL0     O38078  10.482   7.423   0.539 -0.2993  0.0888  0.0665
  283MOL0     C38079  10.554   7.458   0.652 -0.4685  0.3554 -0.6224
  283MOL0     C38080  10.460   7.468   0.770 -0.5637 -0.2073  0.3135
  283MOL0     C38081  10.319   7.525   0.749  0.3172  0.1924  0.5800
  283MOL0     C38082  10.245   7.532   0.878 -0.7390  0.0212 -0.2155
  283MOL0     C38083  10.103   7.593   0.870  0.6657  0.0687 -0.0691
  283MOL0     C38084  10.047   7.615   1.005 -0.5700  0.9824 -0.2344
  283MOL0     C38085  10.013   7.489   1.079  1.3292  0.4465 -0.0637
  283MOL0     C38086   9.890   7.427   1.029  0.3327  0.8256 -0.4598
  283MOL0     N38087   9.862   7.301   1.106  0.8066  0.1184 -0.3731
  283MOL0     C38088   9.901   7.173   1.076  0.3618  0.1063 -0.1566
  283MOL0     C38089   9.835   7.088   1.160 -0.1029  1.0327 -0.1300
  283MOL0     C38090   9.843   6.929   1.170  0.1939 -0.3531 -0.6432
  283MOL0     C38091   9.742   6.845   1.097 -0.2281  0.8495 -1.0887
  283MOL0     C38092   9.594   6.889   1.137  0.3211  0.0589  0.8304
  283MOL0     C38093   9.482   6.792   1.080 -0.8818 -1.2137 -1.3208
  283MOL0     O38094   9.358   6.783   1.163 -0.2747  0.3322 -0.4491
  283MOL0     C38095   9.379   6.743   1.293 -0.2547  0.7165  0.2992
  283MOL0     C38096   9.499   6.681   1.334 -0.6010 -0.0782  1.3470
  283MOL0     C38097   9.513   6.630   1.466  0.2023  0.0581  0.0224
  283MOL0     C38098   9.410   6.640   1.560 -0.6902  0.3051 -0.2850
  283MOL0     C38099   9.432   6.567   1.689 -0.0011  1.1079  0.3384
  283MOL0     O38100   9.546   6.491   1.700  0.3161  0.2162  0.6411
  283MOL0     C38101   9.572   6.415   1.816 -1.0522  0.3846 -0.0069
  283MOL0     C38102   9.583   6.474   1.943 -0.4545 -0.7517  0.3406
  283MOL0     C38103   9.609   6.398   2.051 -0.1194  0.6231  0.1947
  283MOL0     C38104   9.659   6.266   2.037  0.2123  0.0818  0.2714
  283MOL0     O38105   9.705   6.200   2.145  0.4550 -0.3480  0.5567
  283MOL0     C38106   9.799   6.101   2.115 -0.2360 -0.0154  0.7435
  283MOL0     C38107   9.869   6.059   2.246 -0.7634 -0.3736  0.3846
  283MOL0     C38108   9.771   5.993   2.348 -0.3136 -0.3146  0.3104
  283MOL0     C38109   9.850   5.933   2.463 -1.1314 -0.0062  0.3037
  283MOL0     C38110   9.758   5.897   2.581  0.6453 -0.3904  0.5134
  283MOL0     C38111   9.849   5.825   2.682  0.3267  0.0170 -0.1449
  283MOL0     C38112   9.756   5.762   2.781 -1.3368 -0.4823 -1.1877
  283MOL0     C38113   9.847   5.707   2.886 -0.5264  0.3596 -0.2978
  283MOL0    Cl38114   9.926   5.556   2.831 -0.3265  0.1736  0.5527
  283MOL0     C38115   9.661   6.207   1.911  0.1736  0.1902  0.8534
  283MOL0     C38116   9.613   6.282   1.798  0.6270 -0.4045 -0.4191
  283MOL0     O38117   9.345   6.570   1.769 -0.0574  0.5239 -0.4357
  283MOL0     C38118   9.300   6.711   1.518  0.0208  0.1848 -0.1962
  283MOL0     C38119   9.281   6.764   1.389  0.4681 -0.2295 -0.6353
  283MOL0     N38120   9.760   7.169   1.247  0.7474 -0.3368 -0.1465
  283MOL0     N38121   9.771   7.292   1.214 -0.1604 -0.4661  0.8174
  283MOL0     C38122  10.471   7.199   0.492  0.0053  0.4624 -0.1116
  283MOL0     C38123  10.491   7.088   0.412  1.0353 -0.6039  1.1694
  283MOL0     C38124  10.643   6.765   0.182 -1.0268 -0.6186  0.7693
  283MOL0     C38125  10.525   6.739   0.119  0.9291 -0.5829  0.8148
  283MOL0     C38126  10.505   6.630   0.027  0.2609 -0.6333 -0.1734
  283MOL0     C38127  10.613   6.542   0.009 -0.3107  0.4468 -0.8167
  283MOL0     O38128  10.587   6.435  -0.073  0.5409  0.1707  0.2319
  283MOL0     C38129  10.647   6.313  -0.031  0.4431 -0.1265  0.1387
  283MOL0     C38130  10.573   6.195  -0.093  0.1058  0.1853  0.1131
  283MOL0     C38131  10.553   6.205  -0.244  0.0794 -0.2845  0.0936
  283MOL0     C38132  10.469   6.089  -0.307 -1.2753  0.2028 -0.3358
  283MOL0     C38133  10.526   5.959  -0.270  0.0853 -0.5958  1.2229
  283MOL0     C38134  10.588   5.858  -0.256 -0.0469 -0.1173 -0.1938
  283MOL0     C38135  10.730   6.571   0.069  0.1202 -0.1504 -0.7000
  283MOL0     C38136  10.759   6.684   0.153  0.6859 -0.5386  0.5656
  283MOL0     C38137  10.893   6.714   0.202 -0.7452  0.8252  0.6663
  283MOL0     H38138  10.725   7.233   0.205  0.8541 -1.0183  1.2242
  283MOL0     H38139  10.696   7.417   0.375  1.8016 -0.3954 -1.5363
  283MOL0     H38140  10.621   7.380   0.686 -2.0249 -0.0607  1.7180
  283MOL0     H38141  10.595   7.558   0.636  0.8952 -0.2482 -1.0472
  283MOL0     H38142  10.511   7.523   0.850 -1.7857  1.9733 -0.3239
  283MOL0     H38143  10.447   7.364   0.800 -0.4948 -1.3942 -3.2874
  283MOL0     H38144  10.263   7.471   0.671  0.8175  2.2313 -1.2692
  283MOL0     H38145  10.325   7.621   0.697 -1.3264 -1.5400 -3.2170
  283MOL0     H38146  10.243   7.427   0.910 -1.8942  0.5421  1.5847
  283MOL0     H38147  10.302   7.592   0.949 -0.9502  0.2189 -0.2106
  283MOL0     H38148  10.092   7.691   0.822 -5.8182  1.0659  2.4676
  283MOL0     H38149  10.042   7.525   0.809  0.0767  1.1047 -0.6573
  283MOL0     H38150  10.101   7.688   1.065 -0.0543 -0.7895  1.5591
  283MOL0     H38151   9.952   7.664   0.982 -1.0441  0.2654  0.1501
  283MOL0     H38152   9.991   7.515   1.183 -3.6846 -1.4562 -0.3680
  283MOL0     H38153  10.100   7.423   1.091  0.2325 -0.9855  0.3401
  283MOL0     H38154   9.806   7.496   1.045 -0.6189 -0.2820 -0.6114
  283MOL0     H38155   9.892   7.399   0.924  0.2058  0.5875 -0.3977
  283MOL0     H38156   9.971   7.157   0.995  1.5543 -1.9359  1.2035
  283MOL0     H38157   9.942   6.911   1.125 -1.3164  3.4536 -6.6734
  283MOL0     H38158   9.836   6.903   1.276 -0.1275  2.8934  0.2530
  283MOL0     H38159   9.756   6.842   0.989 -0.6039  0.1317 -1.1223
  283MOL0     H38160   9.760   6.742   1.128  2.8854  0.8154 -2.6930
  283MOL0     H38161   9.577   6.988   1.094  0.9419 -0.6530 -1.1702
  283MOL0     H38162   9.584   6.892   1.245  1.4777 -0.5394  0.9769
  283MOL0     H38163   9.528   6.695   1.062 -0.2107 -0.8610 -1.5232
  283MOL0     H38164   9.455   6.836   0.984 -1.2697  2.6049  0.3386
  283MOL0     H38165   9.585   6.675   1.268 -0.6003  0.9994  1.2437
  283MOL0     H38166   9.606   6.576   1.478  1.0792  0.9291 -2.3203
  283MOL0     H38167   9.555   6.578   1.955 -0.6588 -0.9608  1.8438
  283MOL0     H38168   9.606   6.453   2.144 -2.3901  2.4042 -0.8241
  283MOL0     H38169   9.746   6.013   2.079  2.8234 -0.4056 -3.4174
  283MOL0     H38170   9.872   6.141   2.045 -0.1740 -0.9216  0.2847
  283MOL0     H38171   9.961   6.003   2.228  0.1733  1.3182 -0.3020
  283MOL0     H38172   9.904   6.146   2.303  0.1117 -0.4447 -0.0321
  283MOL0     H38173   9.703   6.066   2.392 -0.3983 -0.1025 -0.1598
  283MOL0     H38174   9.703   5.919   2.304 -1.0429  0.8400 -0.5828
  283MOL0     H38175   9.925   6.008   2.492 -0.4556 -0.6014  0.1198
  283MOL0     H38176   9.903   5.846   2.423 -2.8956  0.0914 -2.5001
  283MOL0     H38177   9.673   5.833   2.554 -1.4774  2.4449  0.0475
  283MOL0     H38178   9.717   5.986   2.629 -1.5533 -1.4038  0.6495
  283MOL0     H38179   9.907   5.747   2.631 -0.9979 -0.0244 -1.6694
  283MOL0     H38180   9.908   5.906   2.726 -1.5889  2.5211 -1.8531
  283MOL0     H38181   9.689   5.689   2.733 -0.2800 -1.1872 -1.6135
  283MOL0     H38182   9.702   5.840   2.835 -0.0062 -1.6568  2.0596
  283MOL0     H38183   9.930   5.771   2.918  0.4785 -1.9426  2.0417
  283MOL0     H38184   9.791   5.683   2.977  0.5521  2.1282  0.9032
  283MOL0     H38185   9.672   6.101   1.892 -4.2490 -0.2988 -0.0272
  283MOL0     H38186   9.597   6.234   1.702 -2.9827 -2.7063  1.1322
  283MOL0     H38187   9.207   6.693   1.570  2.1125 -2.6429  3.0273
  283MOL0     H38188   9.182   6.805   1.374 -0.3467 -2.1704 -0.8007
  283MOL0     H38189  10.390   7.190   0.564 -0.6401 -0.3588 -0.9040
  283MOL0     H38190  10.428   7.000   0.421 -3.4764  2.0501 -0.6946
  283MOL0     H38191  10.433   6.794   0.138  0.5867 -1.5788  2.1820
  283MOL0     H38192  10.407   6.603  -0.012  0.2756 -0.1615 -0.5517
  283MOL0     H38193  10.624   6.307   0.076 -0.7582  2.6134  0.1077
  283MOL0     H38194  10.756   6.314  -0.027  0.4684  1.6489 -0.0639
  283MOL0     H38195  10.472   6.190  -0.052  0.6119 -1.3732  1.2630
  283MOL0     H38196  10.630   6.108  -0.060  0.3690  1.3004  2.9728
  283MOL0     H38197  10.648   6.212  -0.299 -0.0227 -1.3025 -0.2265
  283MOL0     H38198  10.509   6.300  -0.274 -0.3125 -1.0182 -1.7967
  283MOL0     H38199  10.366   6.104  -0.273 -1.3142  1.7400 -1.0361
  283MOL0     H38200  10.477   6.100  -0.416  1.0620 -1.1260 -0.3579
  283MOL0     H38201  10.644   5.767  -0.251 -1.7567 -1.1977  0.2735
  283MOL0     H38202  10.814   6.504   0.052 -0.3233 -1.3329  1.4301
  283MOL0     H38203  10.910   6.647   0.287  0.2100 -1.9788 -1.5558
  283MOL0     H38204  10.969   6.682   0.130 -1.7952  1.0307 -0.5521
  283MOL0     H38205  10.899   6.821   0.220 -2.6665  0.8936  1.1117
  284MOL0     O38206   3.228   3.210  11.219  0.0717  0.6566 -0.2506
  284MOL0     C38207   3.193   3.098  11.218 -0.2386  0.1324 -0.3118
  284MOL0     O38208   3.271   2.987  11.240  0.6608  0.1594  0.2445
  284MOL0     C38209   3.399   3.003  11.274  0.1176  0.5273 -0.6201
  284MOL0     C38210   3.442   3.000  11.402 -0.0760 -0.3703 -0.4013
  284MOL0     C38211   3.580   3.014  11.436  0.5873  0.0630  1.4628
  284MOL0     C38212   3.668   3.035  11.329  0.4999 -0.3686 -0.2558
  284MOL0     O38213   3.800   3.050  11.365 -0.9561  0.2503  0.2552
  284MOL0     C38214   3.853   2.968  11.469  0.5706 -0.4810 -0.1164
  284MOL0     C38215   4.008   2.969  11.455 -0.5086 -0.4018 -0.3741
  284MOL0     C38216   4.078   3.099  11.523 -0.2129 -1.3366  0.1286
  284MOL0     C38217   4.233   3.100  11.529 -0.2450 -0.5310 -0.3878
  284MOL0     C38218   4.302   3.221  11.607  0.1446 -0.3763 -0.1103
  284MOL0     C38219   4.331   3.332  11.523 -0.4869  0.4865  1.0486
  284MOL0     C38220   4.409   3.442  11.587 -0.2013 -0.9929 -0.7171
  284MOL0     C38221   4.490   3.522  11.486 -0.3203 -0.0664  0.1407
  284MOL0     N38222   4.496   3.662  11.527 -0.3810 -0.4047 -0.1508
  284MOL0     C38223   4.389   3.747  11.502  0.2886  0.0741  0.1708
  284MOL0     C38224   4.452   3.871  11.496  0.6162  0.2201 -0.9623
  284MOL0     C38225   4.396   4.005  11.465  0.3702 -0.0992  0.5502
  284MOL0     C38226   4.398   4.023  11.313  0.0218 -0.6221 -1.2638
  284MOL0     C38227   4.340   4.163  11.274  0.4885  0.1256 -0.1493
  284MOL0     C38228   4.332   4.180  11.122 -0.9926 -0.1251 -0.8131
  284MOL0     O38229   4.285   4.317  11.105 -0.3298 -0.8383 -0.4780
  284MOL0     C38230   4.156   4.356  11.132  0.5693  0.1477  0.0352
  284MOL0     C38231   4.053   4.265  11.170  0.9687 -0.1271  0.0342
  284MOL0     C38232   3.921   4.303  11.188  0.1557 -0.0506  0.2131
  284MOL0     C38233   3.888   4.435  11.178 -0.4869 -0.1677  0.7448
  284MOL0     C38234   3.747   4.490  11.190  0.6739 -0.0138  0.0203
  284MOL0     O38235   3.725   4.627  11.179 -0.1858 -0.2001  0.0822
  284MOL0     C38236   3.602   4.674  11.184 -0.9696  0.9764  0.5913
  284MOL0     C38237   3.554   4.762  11.279 -0.1167 -0.0213  0.4312
  284MOL0     C38238   3.426   4.804  11.290  0.2146  0.0072 -0.5251
  284MOL0     C38239   3.325   4.764  11.191 -0.1205  0.1590  0.9940
  284MOL0     O38240   3.189   4.805  11.190  0.1413  0.9959 -0.4656
  284MOL0     C38241   3.148   4.904  11.281  0.4142 -0.6942  0.9293
  284MOL0     C38242   3.203   5.050  11.262  0.3115 -0.4174 -0.2095
  284MOL0     C38243   3.112   5.144  11.182 -0.6390 -0.7650 -0.6936
  284MOL0     C38244   3.166   5.291  11.196 -0.5758  0.6220 -0.5598
  284MOL0     C38245   3.072   5.400  11.130 -0.1796  0.4436  0.5296
  284MOL0     C38246   3.121   5.552  11.141  0.1548 -0.7647 -0.1943
  284MOL0     C38247   3.004   5.654  11.107 -0.6273 -0.1624  0.2738
  284MOL0     C38248   2.961   5.665  10.967  0.6938  1.3877 -0.7423
  284MOL0    Cl38249   3.090   5.709  10.848  0.1416  0.1077 -0.3974
  284MOL0     C38250   3.380   4.695  11.079 -0.0207 -0.3757 -0.6214
  284MOL0     C38251   3.515   4.648  11.075  0.0872 -0.0047  0.2419
  284MOL0     O38252   3.659   4.407  11.217 -0.2338 -0.2211  0.5590
  284MOL0     C38253   3.990   4.526  11.144  0.2588 -0.3836  0.3025
  284MOL0     C38254   4.123   4.494  11.124 -0.4235 -0.5663 -0.6543
  284MOL0     N38255   4.585   3.852  11.526  0.0597 -0.6309 -0.5330
  284MOL0     N38256   4.607   3.728  11.541  0.4672  0.0507  0.4716
  284MOL0     C38257   3.627   3.027  11.199 -0.2724  0.3619  0.5286
  284MOL0     C38258   3.490   3.009  11.168 -0.1311  0.3768 -0.1561
  284MOL0     C38259   3.062   3.062  11.164 -0.4081  0.1853  0.4506
  284MOL0     C38260   3.035   2.936  11.106  0.1889 -0.5773  0.5279
  284MOL0     C38261   2.914   2.920  11.043  0.2648 -0.0174  0.7474
  284MOL0     C38262   2.821   3.015  11.033  0.5770 -0.5626  0.7026
  284MOL0     O38263   2.705   2.984  10.960  0.5634  1.2445 -0.7171
  284MOL0     C38264   2.598   3.069  10.974 -0.7473  0.0366  0.6230
  284MOL0     C38265   2.473   2.998  10.908  0.1948  0.1801  0.1249
  284MOL0     C38266   2.431   2.869  10.997  0.7718 -0.4444  0.1668
  284MOL0     C38267   2.345   2.777  10.906  1.3702 -0.3000 -0.0603
  284MOL0     C38268   2.235   2.867  10.846  0.8360  0.3888  0.6579
  284MOL0     C38269   2.134   2.920  10.810  1.0681  0.2590  0.5686
  284MOL0     C38270   2.849   3.139  11.083  0.7694 -0.0853 -0.3206
  284MOL0     C38271   2.958   3.168  11.157  0.0993 -0.6662  0.2428
  284MOL0     C38272   2.963   3.305  11.226 -0.5057 -0.3390 -0.1856
  284MOL0     H38273   3.370   2.980  11.480  0.8466 -0.6595  0.4003
  284MOL0     H38274   3.602   3.012  11.542 -2.5562 -2.8239  2.2354
  284MOL0     H38275   3.805   2.999  11.562  0.7876 -0.1414 -0.1157
  284MOL0     H38276   3.815   2.867  11.451 -0.0889 -0.1242 -0.7843
  284MOL0     H38277   4.036   2.977  11.350  0.4477  0.2849 -0.0759
  284MOL0     H38278   4.046   2.879  11.505  1.1575  1.3740  1.7927
  284MOL0     H38279   4.038   3.103  11.625  0.8219 -2.7870  0.6260
  284MOL0     H38280   4.045   3.182  11.460 -1.1317 -1.2051  0.7593
  284MOL0     H38281   4.257   3.010  11.585  1.7976  0.5970  0.6632
  284MOL0     H38282   4.287   3.090  11.434  2.4827  1.0401  0.8557
  284MOL0     H38283   4.238   3.262  11.685 -0.3402 -0.0580 -0.6712
  284MOL0     H38284   4.395   3.194  11.659  2.3161  2.6542 -2.0152
  284MOL0     H38285   4.390   3.280  11.447  0.0165  0.1435  1.6734
  284MOL0     H38286   4.243   3.377  11.476  0.6847  3.5255  1.5391
  284MOL0     H38287   4.470   3.408  11.671  2.2147  0.1389 -1.9392
  284MOL0     H38288   4.337   3.510  11.634  0.6431  0.8893 -2.0403
  284MOL0     H38289   4.590   3.478  11.474  0.1543  1.3855 -1.6127
  284MOL0     H38290   4.443   3.521  11.387  0.6473 -2.1420 -0.3525
  284MOL0     H38291   4.286   3.716  11.484  0.2719  0.5293 -0.5367
  284MOL0     H38292   4.298   4.016  11.513  0.8702  0.8471  1.3867
  284MOL0     H38293   4.470   4.078  11.499  1.0488  0.4288 -1.8404
  284MOL0     H38294   4.500   4.020  11.272  1.4631 -2.5988  2.0474
  284MOL0     H38295   4.345   3.940  11.264 -1.6327 -0.9100  0.8885
  284MOL0     H38296   4.410   4.236  11.314  0.9262 -0.0574 -0.5654
  284MOL0     H38297   4.240   4.172  11.318  0.1849 -3.0540  0.0786
  284MOL0     H38298   4.275   4.103  11.070  0.5120 -1.0790 -1.1055
  284MOL0     H38299   4.431   4.168  11.076 -0.2727 -0.1179  0.6942
  284MOL0     H38300   4.086   4.162  11.181  2.4649  0.3794  0.5033
  284MOL0     H38301   3.844   4.227  11.196 -1.6646  1.5054 -1.5079
  284MOL0     H38302   3.621   4.779  11.362  0.4246 -0.8072  0.1700
  284MOL0     H38303   3.406   4.852  11.385  0.6355  0.2669 -0.5686
  284MOL0     H38304   3.039   4.915  11.274  0.2953 -1.0761  1.9478
  284MOL0     H38305   3.164   4.862  11.380 -0.0776 -2.4360  0.3079
  284MOL0     H38306   3.237   5.084  11.360 -1.3762 -2.3011  1.1240
  284MOL0     H38307   3.292   5.037  11.200 -0.4161 -1.0804 -1.1641
  284MOL0     H38308   3.118   5.128  11.074  3.2342 -1.3895 -0.5458
  284MOL0     H38309   3.011   5.139  11.223  0.5448  1.7163  3.1152
  284MOL0     H38310   3.263   5.297  11.144  0.2494 -1.1558  0.6899
  284MOL0     H38311   3.185   5.319  11.300  1.4617 -2.8583  0.1543
  284MOL0     H38312   2.973   5.381  11.172 -0.7104 -2.5351 -1.7286
  284MOL0     H38313   3.061   5.377  11.024  0.5359  1.7951  0.1442
  284MOL0     H38314   3.152   5.576  11.243  3.3627  1.1620 -1.4840
  284MOL0     H38315   3.209   5.582  11.084  0.9880  0.6382  1.7426
  284MOL0     H38316   3.039   5.756  11.126  1.5510 -0.5567 -1.1445
  284MOL0     H38317   2.914   5.643  11.168 -1.7247 -0.7358 -1.3980
  284MOL0     H38318   2.921   5.568  10.939  0.6289  1.5208 -1.1282
  284MOL0     H38319   2.875   5.732  10.962 -0.2699  0.7518  3.5606
  284MOL0     H38320   3.317   4.672  10.994 -0.5721 -0.2599 -0.2505
  284MOL0     H38321   3.553   4.595  10.988 -0.8172  1.3526 -1.0319
  284MOL0     H38322   3.963   4.630  11.129  1.0848 -0.4288 -1.9217
  284MOL0     H38323   4.201   4.559  11.086  1.0959 -2.9126 -1.7876
  284MOL0     H38324   3.704   3.018  11.122 -1.5491 -2.7331 -0.5368
  284MOL0     H38325   3.466   3.009  11.062 -1.2179  1.4197  0.0639
  284MOL0     H38326   3.108   2.857  11.123  1.8938  0.5523 -1.0673
  284MOL0     H38327   2.890   2.822  11.002 -3.7920 -0.1508  2.9492
  284MOL0     H38328   2.610   3.158  10.911 -2.1089  1.8759  2.8206
  284MOL0     H38329   2.585   3.096  11.079  2.2738  0.4503  0.9850
  284MOL0     H38330   2.492   2.961  10.807 -0.2384  0.1146  0.0659
  284MOL0     H38331   2.388   3.062  10.884  0.7216 -0.0608 -2.7281
  284MOL0     H38332   2.374   2.897  11.086 -1.2004 -1.3632 -0.7460
  284MOL0     H38333   2.514   2.810  11.037  0.1491 -2.4933 -1.3937
  284MOL0     H38334   2.407   2.735  10.827  1.3143  0.5081 -0.5513
  284MOL0     H38335   2.298   2.703  10.972  1.5246  0.4337  0.9047
  284MOL0     H38336   2.036   2.956  10.787  1.8684  2.5010  0.4156
  284MOL0     H38337   2.772   3.216  11.076 -0.0801 -0.9419 -0.6165
  284MOL0     H38338   2.864   3.344  11.254 -1.2046 -1.0586 -1.5467
  284MOL0     H38339   3.012   3.299  11.324  4.1898  0.8957 -2.2266
  284MOL0     H38340   3.025   3.379  11.176 -0.5698  0.4566  0.8708
  285MOL0     O38341  10.603   0.846   1.728 -0.5470 -0.3793 -0.5269
  285MOL0     C38342  10.527   0.773   1.796  0.1392 -0.5447 -0.1513
  285MOL0     O38343  10.393   0.771   1.780 -0.1492 -0.1081  0.0865
  285MOL0     C38344  10.325   0.653   1.744 -0.3763  0.2844  0.5176
  285MOL0     C38345  10.187   0.641   1.765  0.1527 -0.2481  1.2601
  285MOL0     C38346  10.115   0.535   1.703 -0.8744 -0.1709  0.8464
  285MOL0     C38347  10.185   0.434   1.633 -0.3842 -0.7055  0.0896
  285MOL0     O38348  10.105   0.340   1.580  0.2524  0.7980  0.6481
  285MOL0     C38349  10.167   0.236   1.509  0.2970 -0.1460 -0.0975
  285MOL0     C38350  10.227   0.125   1.589 -0.1389 -0.9057  0.0322
  285MOL0     C38351  10.268   0.003   1.507  0.3837  0.4661  0.1366
  285MOL0     C38352  10.263  -0.138   1.584 -0.3358 -0.7684 -1.3057
  285MOL0     C38353  10.131  -0.193   1.628  0.0611 -0.2887  0.0951
  285MOL0     C38354  10.020  -0.200   1.516 -1.4234  0.1131  0.4543
  285MOL0     C38355   9.877  -0.212   1.574  0.3827  0.3077 -0.2127
  285MOL0     C38356   9.807  -0.312   1.488 -0.4373  0.2252 -0.1141
  285MOL0     N38357   9.676  -0.350   1.534  0.6019 -0.8151 -1.1930
  285MOL0     C38358   9.564  -0.267   1.507  0.7421  0.8569 -0.5402
  285MOL0     C38359   9.464  -0.335   1.574 -0.6018 -0.4744 -0.0819
  285MOL0     C38360   9.326  -0.285   1.601 -0.4341  0.1732  0.7131
  285MOL0     C38361   9.228  -0.340   1.491  0.0292 -0.0277  0.1511
  285MOL0     C38362   9.259  -0.273   1.353 -0.8592 -0.3573 -0.4184
  285MOL0     C38363   9.140  -0.302   1.262 -0.0405 -0.2611  0.6156
  285MOL0     O38364   9.172  -0.256   1.132 -0.7791  0.0091 -0.4735
  285MOL0     C38365   9.068  -0.241   1.047  0.1921 -0.1340 -0.4284
  285MOL0     C38366   9.075  -0.156   0.941 -0.1370  0.0565  0.0570
  285MOL0     C38367   8.969  -0.136   0.853 -0.6784 -0.8470 -0.1226
  285MOL0     C38368   8.850  -0.211   0.870  0.0570 -1.1910  0.9819
  285MOL0     C38369   8.729  -0.200   0.777  0.4076 -0.5164 -0.3834
  285MOL0     O38370   8.621  -0.269   0.822  0.4492  0.6738  0.7208
  285MOL0     C38371   8.522  -0.295   0.731  0.3130  0.6526  1.2141
  285MOL0     C38372   8.523  -0.415   0.652 -0.0646  0.1572  1.2839
  285MOL0     C38373   8.421  -0.438   0.555  1.1701 -0.3255  0.0738
  285MOL0     C38374   8.314  -0.356   0.532 -0.8416 -0.3233 -0.5751
  285MOL0     O38375   8.207  -0.369   0.450 -0.8518  0.9133  0.1777
  285MOL0     C38376   8.236  -0.452   0.330  0.4061  0.3540  0.2227
  285MOL0     C38377   8.106  -0.465   0.238 -0.0323 -0.0399 -0.4376
  285MOL0     C38378   7.988  -0.534   0.312  0.8509 -0.0518  0.3843
  285MOL0     C38379   7.850  -0.458   0.311 -0.1952  0.3383 -0.3933
  285MOL0     C38380   7.858  -0.324   0.388 -0.6133  0.8389  0.2605
  285MOL0     C38381   7.716  -0.273   0.430 -0.5179 -0.4305  0.1302
  285MOL0     C38382   7.728  -0.146   0.523 -0.1585  0.3932 -0.0125
  285MOL0     C38383   7.735  -0.015   0.436  0.0895  0.3666 -0.2919
  285MOL0    Cl38384   7.726   0.121   0.548 -0.2278  0.0781 -0.1094
  285MOL0     C38385   8.316  -0.235   0.609  0.3862 -0.0314 -0.4256
  285MOL0     C38386   8.415  -0.209   0.707 -0.7528 -0.1026 -0.6968
  285MOL0     O38387   8.728  -0.138   0.674  0.1846  0.2144  0.4564
  285MOL0     C38388   8.845  -0.307   0.976 -0.7809  1.1872 -0.1563
  285MOL0     C38389   8.952  -0.318   1.064  0.0743 -0.4082  0.5423
  285MOL0     N38390   9.518  -0.445   1.632  0.0017 -0.3196  0.1649
  285MOL0     N38391   9.644  -0.451   1.607 -0.6437  0.4647 -0.0473
  285MOL0     C38392  10.327   0.445   1.628  0.3313  1.2995 -0.5076
  285MOL0     C38393  10.397   0.554   1.675  0.4821 -0.5254 -0.4895
  285MOL0     C38394  10.591   0.715   1.918 -0.8143 -0.2206  1.2852
  285MOL0     C38395  10.502   0.669   2.012 -0.3978 -0.0246 -0.3237
  285MOL0     C38396  10.553   0.584   2.108 -0.1905 -0.1159  0.1858
  285MOL0     C38397  10.687   0.566   2.139  0.3455  0.7212  0.8634
  285MOL0     O38398  10.724   0.492   2.248  0.0460 -0.2023  0.1040
  285MOL0     C38399  10.868   0.459   2.254  0.1914 -0.5163 -0.4957
  285MOL0     C38400  10.886   0.421   2.397 -0.3883 -0.7331  0.4704
  285MOL0     C38401  10.799   0.291   2.443  0.7022 -0.0118 -0.2059
  285MOL0     C38402  10.653   0.317   2.472 -0.5963  0.6032  0.1678
  285MOL0     C38403  10.598   0.233   2.578  0.5429  0.1820  0.2573
  285MOL0     C38404  10.566   0.139   2.651  0.2607 -0.0773  0.1323
  285MOL0     C38405  10.779   0.609   2.044 -0.7182 -0.6564 -0.6852
  285MOL0     C38406  10.734   0.682   1.933  0.3189  0.0431 -0.1259
  285MOL0     C38407  10.822   0.715   1.828 -0.7471  0.5099  0.0620
  285MOL0     H38408  10.144   0.706   1.841  0.0727  0.4288  0.6383
  285MOL0     H38409  10.008   0.521   1.718 -0.7587 -1.5313  0.5159
  285MOL0     H38410  10.091   0.185   1.449  0.6286  0.8965 -1.4499
  285MOL0     H38411  10.222   0.271   1.421 -0.1026 -0.0369 -0.3068
  285MOL0     H38412  10.152   0.091   1.661 -1.2469 -0.2170 -0.7559
  285MOL0     H38413  10.310   0.166   1.647  0.9458  0.5990 -2.3862
  285MOL0     H38414  10.366   0.025   1.464 -0.4204  1.2188 -1.3634
  285MOL0     H38415  10.208  -0.000   1.416  0.3723 -0.1420  0.1636
  285MOL0     H38416  10.306  -0.213   1.517  1.7832 -1.4047  0.6225
  285MOL0     H38417  10.322  -0.124   1.675 -2.5441  1.6506 -0.1174
  285MOL0     H38418  10.143  -0.289   1.678 -5.3063 -1.2490  0.1435
  285MOL0     H38419  10.098  -0.137   1.716 -0.9681  0.0595 -0.4843
  285MOL0     H38420  10.017  -0.108   1.458 -1.2749  0.5304  1.0914
  285MOL0     H38421  10.039  -0.281   1.445  1.5667  0.2477  0.9967
  285MOL0     H38422   9.796  -0.138   1.582 -2.4115 -2.4988 -0.4378
  285MOL0     H38423   9.877  -0.227   1.683  3.3353  0.4653 -0.0973
  285MOL0     H38424   9.810  -0.268   1.389  2.8321  2.2076  0.7180
  285MOL0     H38425   9.870  -0.402   1.477 -2.9379 -1.3459 -2.8728
  285MOL0     H38426   9.562  -0.174   1.450  4.1123  2.0600  1.0634
  285MOL0     H38427   9.288  -0.309   1.701 -2.1185 -3.7006 -0.6645
  285MOL0     H38428   9.322  -0.177   1.583 -1.5762  0.3289  1.7503
  285MOL0     H38429   9.247  -0.445   1.468 -0.6415 -0.2616  0.6076
  285MOL0     H38430   9.124  -0.340   1.527  0.4902 -1.9149  1.6305
  285MOL0     H38431   9.342  -0.320   1.300 -1.3233  1.9601 -3.4461
  285MOL0     H38432   9.263  -0.166   1.370 -3.2828 -0.0873 -1.1695
  285MOL0     H38433   9.051  -0.247   1.293  0.1194  1.7943 -2.1377
  285MOL0     H38434   9.133  -0.411   1.251 -0.0484 -0.2234  0.2292
  285MOL0     H38435   9.164  -0.094   0.933 -1.1305  1.6435  0.7299
  285MOL0     H38436   8.982  -0.051   0.786 -0.2142  0.1458  1.1875
  285MOL0     H38437   8.599  -0.492   0.663 -1.9942 -1.7121  2.3872
  285MOL0     H38438   8.434  -0.524   0.490  1.6399  1.0707 -1.7236
  285MOL0     H38439   8.310  -0.399   0.270  0.6422  1.6881  1.6170
  285MOL0     H38440   8.286  -0.547   0.352  1.6623  0.7093 -0.9704
  285MOL0     H38441   8.076  -0.365   0.205  0.2461  1.4840  3.3749
  285MOL0     H38442   8.124  -0.521   0.146 -3.0968 -2.0439  0.0507
  285MOL0     H38443   7.960  -0.615   0.244  0.2793  0.8984 -0.5460
  285MOL0     H38444   8.030  -0.563   0.409  2.7661 -1.0143 -0.6715
  285MOL0     H38445   7.775  -0.515   0.367 -0.2956  3.2824  2.8123
  285MOL0     H38446   7.802  -0.445   0.213 -3.1233 -0.9899  0.7385
  285MOL0     H38447   7.906  -0.252   0.321  0.7522  2.7987  3.1575
  285MOL0     H38448   7.932  -0.332   0.468  0.9341  1.1645 -1.0796
  285MOL0     H38449   7.660  -0.249   0.340  2.5215 -0.3517 -1.8911
  285MOL0     H38450   7.666  -0.342   0.498  0.3916  1.3317  2.7866
  285MOL0     H38451   7.823  -0.159   0.575  1.2738 -0.7255 -2.6723
  285MOL0     H38452   7.649  -0.138   0.598 -2.2605 -3.0937 -1.5949
  285MOL0     H38453   7.830  -0.022   0.382 -0.1166 -2.3729 -0.4541
  285MOL0     H38454   7.664  -0.019   0.353  1.6037 -1.8635 -1.5816
  285MOL0     H38455   8.237  -0.162   0.591  0.7874  0.8566  1.1959
  285MOL0     H38456   8.418  -0.113   0.757  0.5078 -0.3639 -0.2352
  285MOL0     H38457   8.755  -0.366   0.994 -1.1370  1.5553 -0.6890
  285MOL0     H38458   8.942  -0.389   1.145 -3.8767 -3.3332 -2.0783
  285MOL0     H38459  10.382   0.374   1.567  2.0272  1.1719  1.0804
  285MOL0     H38460  10.498   0.570   1.638 -0.1178 -2.0858 -3.0697
  285MOL0     H38461  10.396   0.693   2.007 -0.1600  1.9474  1.9976
  285MOL0     H38462  10.476   0.548   2.175 -0.8503 -5.2592 -2.8522
  285MOL0     H38463  10.923   0.550   2.228  0.3208 -0.9725 -1.9334
  285MOL0     H38464  10.895   0.376   2.188  4.9547 -1.7858  2.6326
  285MOL0     H38465  10.853   0.502   2.462  1.4516  0.0111  0.5319
  285MOL0     H38466  10.993   0.415   2.419  0.0595  0.0612 -1.3173
  285MOL0     H38467  10.843   0.238   2.529  0.6262 -3.8133 -2.2673
  285MOL0     H38468  10.806   0.214   2.366  1.8042 -0.1641  0.0212
  285MOL0     H38469  10.634   0.424   2.486  1.0075  1.2986 -2.3493
  285MOL0     H38470  10.597   0.297   2.380 -2.3074  1.7903  0.9035
  285MOL0     H38471  10.538   0.052   2.707 -1.0537 -0.8814 -1.6878
  285MOL0     H38472  10.887   0.593   2.046 -0.7806 -1.0017  0.3121
  285MOL0     H38473  10.918   0.664   1.844 -1.6036 -1.7889 -1.5815
  285MOL0     H38474  10.772   0.680   1.737  0.1895  1.7734 -0.9869
  285MOL0     H38475  10.840   0.822   1.816  1.8309  0.4140  2.1796
  286MOL0     O38476   7.785   0.760   1.262  0.9525  0.0392 -0.3235
  286MOL0     C38477   7.710   0.675   1.206 -0.3563 -0.1981 -0.1402
  286MOL0     O38478   7.745   0.540   1.197 -0.3638  0.0348  0.5439
  286MOL0     C38479   7.859   0.508   1.261 -0.8954 -0.2150  0.4426
  286MOL0     C38480   7.977   0.503   1.181  0.5373 -0.1199  0.1530
  286MOL0     C38481   8.093   0.451   1.233 -0.3439  0.2012  0.6502
  286MOL0     C38482   8.097   0.413   1.366 -0.4644  0.2394  0.8679
  286MOL0     O38483   8.220   0.367   1.420 -0.4938 -0.3633  0.4285
  286MOL0     C38484   8.239   0.352   1.556  1.0769 -0.5137 -0.7079
  286MOL0     C38485   8.383   0.307   1.592 -0.3372  0.1710  0.6029
  286MOL0     C38486   8.391   0.267   1.736 -0.5670 -0.1978  0.3190
  286MOL0     C38487   8.534   0.270   1.778 -0.4648  0.6001 -0.0724
  286MOL0     C38488   8.607   0.405   1.790  0.5234 -0.1016 -0.4948
  286MOL0     C38489   8.546   0.520   1.867 -0.1172 -0.8686  0.8458
  286MOL0     C38490   8.615   0.658   1.828 -0.2181  0.7297 -0.0277
  286MOL0     C38491   8.570   0.728   1.696 -0.2678  0.4405 -0.1202
  286MOL0     N38492   8.427   0.767   1.697 -0.1374 -0.5615 -0.3607
  286MOL0     C38493   8.319   0.720   1.624 -1.0231 -0.0688  0.8506
  286MOL0     C38494   8.219   0.811   1.648  0.1361 -0.8575  0.1844
  286MOL0     C38495   8.077   0.801   1.599 -0.2500  0.1099 -0.0857
  286MOL0     C38496   8.001   0.935   1.619  0.3062 -0.0557 -0.2253
  286MOL0     C38497   7.848   0.918   1.628  0.6521 -0.3097  1.3681
  286MOL0     C38498   7.769   1.045   1.587 -0.4632  0.3811  0.1773
  286MOL0     O38499   7.639   1.051   1.658 -0.2273 -0.1156  0.5090
  286MOL0     C38500   7.531   0.986   1.598  0.6586  0.0739  0.8177
  286MOL0     C38501   7.405   1.007   1.655 -1.1188 -0.4299 -0.6186
  286MOL0     C38502   7.289   0.973   1.593  0.6160  0.5717 -0.2528
  286MOL0     C38503   7.289   0.897   1.472 -1.2315  0.3342  0.1136
  286MOL0     C38504   7.164   0.867   1.396 -0.2421  0.1515  0.6066
  286MOL0     O38505   7.047   0.899   1.460  0.2305 -0.0408 -0.0878
  286MOL0     C38506   6.934   0.877   1.387 -0.3857 -0.3185 -0.2991
  286MOL0     C38507   6.897   0.954   1.282  0.1555 -0.2313  0.1968
  286MOL0     C38508   6.772   0.937   1.213 -0.6541 -0.8869 -0.3083
  286MOL0     C38509   6.687   0.844   1.248  0.3908 -0.0224  0.0354
  286MOL0     O38510   6.564   0.842   1.185 -0.0400  0.3800  0.4661
  286MOL0     C38511   6.501   0.707   1.193 -0.2585 -0.6948 -0.5008
  286MOL0     C38512   6.394   0.683   1.096  0.0231  0.1861 -0.6174
  286MOL0     C38513   6.445   0.688   0.953 -1.0402 -1.5184  0.0483
  286MOL0     C38514   6.349   0.653   0.847 -0.5140 -0.4616  0.9809
  286MOL0     C38515   6.428   0.640   0.716 -0.3696  0.8208 -0.1410
  286MOL0     C38516   6.311   0.636   0.599  0.0303 -0.4314 -0.3030
  286MOL0     C38517   6.359   0.548   0.479  0.0294  0.0283  0.7645
  286MOL0     C38518   6.490   0.591   0.413  0.0774  0.1381  0.3969
  286MOL0    Cl38519   6.502   0.505   0.260  0.3816 -0.1427  0.4052
  286MOL0     C38520   6.717   0.764   1.362  0.1172 -0.5438 -1.1509
  286MOL0     C38521   6.841   0.780   1.418  0.5691  0.4605  0.7789
  286MOL0     O38522   7.172   0.809   1.285  0.0470  0.6594 -0.2911
  286MOL0     C38523   7.404   0.858   1.423 -1.3976 -0.3544  0.3201
  286MOL0     C38524   7.533   0.901   1.477  0.5094 -0.5926 -1.3099
  286MOL0     N38525   8.267   0.918   1.717 -0.3972  0.4885 -0.7959
  286MOL0     N38526   8.390   0.885   1.765 -0.2934 -0.0898  0.6173
  286MOL0     C38527   7.988   0.432   1.449  1.4306 -0.0320 -0.3991
  286MOL0     C38528   7.868   0.475   1.397  0.3819  0.4505  0.4227
  286MOL0     C38529   7.593   0.723   1.119 -0.0191  0.3688  0.5323
  286MOL0     C38530   7.585   0.858   1.102  0.6165  0.7646  0.5070
  286MOL0     C38531   7.498   0.906   1.011 -1.2267  0.4258 -0.6276
  286MOL0     C38532   7.426   0.828   0.921  0.5953 -0.6240  0.4700
  286MOL0     O38533   7.351   0.880   0.822  0.5152 -0.1720 -0.3574
  286MOL0     C38534   7.241   0.965   0.859 -0.6939  0.9657  0.4442
  286MOL0     C38535   7.132   0.895   0.938 -0.0207 -0.1252  0.0947
  286MOL0     C38536   7.102   0.743   0.896  0.5807  1.4536 -0.1873
  286MOL0     C38537   7.015   0.751   0.761 -0.2590 -0.1557  0.2104
  286MOL0     C38538   6.889   0.814   0.785  0.9194 -0.1067 -0.1256
  286MOL0     C38539   6.789   0.880   0.804 -0.7803  0.2563  0.0152
  286MOL0     C38540   7.444   0.687   0.929  0.3686 -0.1035 -0.5330
  286MOL0     C38541   7.519   0.632   1.031  0.4809  0.0060  0.0222
  286MOL0     C38542   7.520   0.480   1.024 -0.5365 -1.2867 -0.0730
  286MOL0     H38543   7.978   0.543   1.080  2.8932  4.4910  1.7083
  286MOL0     H38544   8.186   0.463   1.180 -0.5306 -0.9927  0.0307
  286MOL0     H38545   8.221   0.446   1.609  0.6273  0.8902 -3.1992
  286MOL0     H38546   8.167   0.280   1.597  0.1234  0.6208 -0.3463
  286MOL0     H38547   8.451   0.386   1.562  0.0194 -0.0979  0.6971
  286MOL0     H38548   8.404   0.216   1.534 -0.4975 -1.3226  2.7670
  286MOL0     H38549   8.355   0.164   1.738  0.2414 -0.4776  1.9764
  286MOL0     H38550   8.333   0.327   1.806  0.4532  2.0106 -0.6197
  286MOL0     H38551   8.522   0.226   1.878  2.8630 -2.6709 -0.8944
  286MOL0     H38552   8.590   0.197   1.719 -0.2478  1.7898 -1.3882
  286MOL0     H38553   8.693   0.376   1.850  0.4084  0.9869  0.2165
  286MOL0     H38554   8.639   0.424   1.687 -3.2507 -0.7965 -1.9795
  286MOL0     H38555   8.437   0.519   1.868 -0.1687  0.3084 -0.2989
  286MOL0     H38556   8.564   0.505   1.974  0.5746 -1.5056  0.6523
  286MOL0     H38557   8.720   0.636   1.806 -0.4442  0.9724 -1.4061
  286MOL0     H38558   8.597   0.727   1.911 -2.2965  2.3005 -1.6932
  286MOL0     H38559   8.636   0.813   1.676  0.6829 -0.3780 -0.5307
  286MOL0     H38560   8.567   0.666   1.606 -2.5832  1.4853 -0.8342
  286MOL0     H38561   8.301   0.619   1.587 -0.0622 -0.6446  1.8937
  286MOL0     H38562   8.070   0.769   1.494  0.8688 -2.9998  0.6645
  286MOL0     H38563   8.026   0.730   1.664 -2.7013  1.7496 -0.0912
  286MOL0     H38564   8.029   0.986   1.712 -0.7085  2.2723 -1.1261
  286MOL0     H38565   8.028   1.014   1.549 -1.8818  2.4889  1.5980
  286MOL0     H38566   7.822   0.893   1.732 -1.0488 -0.6457  0.8917
  286MOL0     H38567   7.815   0.838   1.561 -1.9031  0.8954  1.0814
  286MOL0     H38568   7.759   1.041   1.478  2.7125 -3.0927 -0.2041
  286MOL0     H38569   7.836   1.129   1.608  0.1211 -0.6889  3.0392
  286MOL0     H38570   7.379   1.078   1.733 -1.9144 -0.3800 -0.9126
  286MOL0     H38571   7.196   0.993   1.645 -0.0898 -2.3831 -0.1612
  286MOL0     H38572   6.973   1.020   1.240  1.1876 -1.3323  0.2605
  286MOL0     H38573   6.751   0.997   1.125  0.8845 -1.6210 -1.2232
  286MOL0     H38574   6.578   0.632   1.173  1.7015  0.6896  1.4105
  286MOL0     H38575   6.465   0.701   1.296  1.4163  1.3294  0.2857
  286MOL0     H38576   6.358   0.581   1.110 -0.0599  0.3371  0.3199
  286MOL0     H38577   6.318   0.762   1.093  0.1821  0.4235  1.0513
  286MOL0     H38578   6.497   0.784   0.946  0.3866 -1.6153  5.1798
  286MOL0     H38579   6.538   0.629   0.952  0.8692  1.1941  1.8722
  286MOL0     H38580   6.277   0.736   0.840 -0.9425 -0.7885  1.5093
  286MOL0     H38581   6.291   0.562   0.862 -1.1484 -0.7649 -2.4548
  286MOL0     H38582   6.484   0.547   0.732  0.6881  1.6011  0.8184
  286MOL0     H38583   6.501   0.721   0.710 -0.0502  0.7825  2.3890
  286MOL0     H38584   6.222   0.588   0.642 -0.2862  0.6066  0.2203
  286MOL0     H38585   6.289   0.736   0.562 -2.9783 -0.2333  1.6553
  286MOL0     H38586   6.285   0.536   0.399  0.5484 -3.4232  0.6550
  286MOL0     H38587   6.384   0.450   0.521  1.8969  1.3167  2.8494
  286MOL0     H38588   6.485   0.699   0.397 -0.6004 -0.0146 -0.5580
  286MOL0     H38589   6.577   0.562   0.472  1.9015  0.6483 -1.8740
  286MOL0     H38590   6.650   0.690   1.405 -0.8328 -0.6210 -2.6960
  286MOL0     H38591   6.864   0.712   1.500  1.8210 -0.1780 -0.0785
  286MOL0     H38592   7.405   0.808   1.327  0.2776 -1.9621  1.0936
  286MOL0     H38593   7.625   0.885   1.422  2.4681  1.2104  1.1954
  286MOL0     H38594   7.982   0.425   1.557  1.1833 -0.0227 -0.4117
  286MOL0     H38595   7.786   0.477   1.467  1.3076 -0.6349  1.5729
  286MOL0     H38596   7.627   0.935   1.165 -1.9335  2.6255  0.1152
  286MOL0     H38597   7.492   1.013   0.999  1.6207  0.8560  0.9197
  286MOL0     H38598   7.199   0.997   0.763  1.7455 -0.5183 -1.2159
  286MOL0     H38599   7.280   1.050   0.916  0.9766  1.8981 -1.9308
  286MOL0     H38600   7.042   0.956   0.946  0.6217  0.6572  2.3756
  286MOL0     H38601   7.162   0.897   1.044 -0.0868  0.4596  0.1070
  286MOL0     H38602   7.031   0.695   0.965 -3.2928  1.0780 -4.0137
  286MOL0     H38603   7.198   0.693   0.882  1.3429  3.1800 -1.3761
  286MOL0     H38604   7.075   0.806   0.687 -1.6427 -1.3380 -1.8794
  286MOL0     H38605   6.992   0.653   0.720  0.6231 -1.0786  1.8092
  286MOL0     H38606   6.697   0.933   0.817 -1.2267 -0.3235 -0.6846
  286MOL0     H38607   7.386   0.632   0.856 -1.5726 -0.9223  1.5030
  286MOL0     H38608   7.606   0.441   0.968 -1.3235 -1.8616 -0.9040
  286MOL0     H38609   7.526   0.454   1.131 -3.2441 -1.0883  0.1941
  286MOL0     H38610   7.431   0.437   0.978 -1.5335 -0.0612  0.6471
  287MOL0     O38611   3.879   1.367   9.405  0.5824 -0.3463 -0.6404
  287MOL0     C38612   3.975   1.414   9.348  0.5183  0.4703  0.7493
  287MOL0     O38613   3.993   1.408   9.212  0.3939 -0.0240 -0.4820
  287MOL0     C38614   3.898   1.378   9.114  0.4343 -0.5374  0.5400
  287MOL0     C38615   3.756   1.417   9.119 -0.3924 -0.6084 -0.1915
  287MOL0     C38616   3.671   1.361   9.027  0.7749  0.1277 -0.0300
  287MOL0     C38617   3.716   1.260   8.939  0.3476  0.4201 -0.7699
  287MOL0     O38618   3.626   1.198   8.862 -0.5016 -0.2281  0.3212
  287MOL0     C38619   3.489   1.242   8.850 -0.5740  0.1600  0.4447
  287MOL0     C38620   3.409   1.173   8.736  1.1467  0.4636  0.2413
  287MOL0     C38621   3.430   1.012   8.750  0.2709 -0.5592 -0.3677
  287MOL0     C38622   3.412   0.961   8.604 -0.5996  0.2393  1.1658
  287MOL0     C38623   3.271   0.922   8.576 -0.5732  0.4228  0.1524
  287MOL0     C38624   3.256   0.848   8.441 -0.7687  0.0837 -1.0949
  287MOL0     C38625   3.102   0.844   8.410 -0.5747 -0.9639 -0.0827
  287MOL0     C38626   3.094   0.781   8.266 -0.6690 -0.2724 -0.0434
  287MOL0     N38627   2.962   0.797   8.213  0.9107  0.6137 -0.3771
  287MOL0     C38628   2.926   0.828   8.084  0.0822 -0.1475  0.3115
  287MOL0     C38629   2.790   0.794   8.077  0.4124  0.5658 -0.0022
  287MOL0     C38630   2.700   0.771   7.957 -0.7806 -0.1445 -0.3248
  287MOL0     C38631   2.618   0.895   7.924  0.5820 -0.7026 -0.5148
  287MOL0     C38632   2.566   0.895   7.778  0.0722  0.3743  0.1132
  287MOL0     C38633   2.462   0.783   7.755 -0.0685 -0.0169  0.0992
  287MOL0     O38634   2.364   0.784   7.867  0.7177 -0.6665  0.3119
  287MOL0     C38635   2.235   0.817   7.827  1.1375 -0.3209 -0.0305
  287MOL0     C38636   2.186   0.934   7.878 -0.4019 -0.6305 -0.2161
  287MOL0     C38637   2.069   1.001   7.830  0.2054 -0.5825  0.0799
  287MOL0     C38638   1.993   0.932   7.735 -0.0432 -0.7274  0.9101
  287MOL0     C38639   1.872   0.989   7.661  0.2780  0.4768  0.0003
  287MOL0     O38640   1.840   1.116   7.689 -0.6030  0.2342 -0.0087
  287MOL0     C38641   1.740   1.187   7.634  0.9335  0.3732  0.4403
  287MOL0     C38642   1.616   1.135   7.598  0.9002  0.3258  0.0398
  287MOL0     C38643   1.516   1.223   7.561  0.4794  0.1793  0.3669
  287MOL0     C38644   1.530   1.358   7.531  0.0620  1.1835  0.3204
  287MOL0     O38645   1.412   1.423   7.515 -0.2482  0.3107 -0.9375
  287MOL0     C38646   1.346   1.461   7.632  0.0673 -1.4026 -0.8354
  287MOL0     C38647   1.204   1.450   7.609 -0.0598 -0.3981 -1.2271
  287MOL0     C38648   1.148   1.550   7.500 -0.6867  0.4625 -0.6251
  287MOL0     C38649   1.054   1.653   7.545  0.1060  0.6964 -0.0490
  287MOL0     C38650   1.109   1.741   7.665 -0.4225 -0.1495 -0.8494
  287MOL0     C38651   1.039   1.867   7.685  0.1613 -0.5771 -0.2985
  287MOL0     C38652   1.090   1.943   7.805  0.3518  0.7916 -0.8370
  287MOL0     C38653   1.043   2.082   7.803 -0.5302 -0.7072 -0.6980
  287MOL0    Cl38654   1.095   2.191   7.683  0.0846  0.4733 -0.4309
  287MOL0     C38655   1.652   1.408   7.564  0.7700 -0.2252 -0.3531
  287MOL0     C38656   1.757   1.322   7.613  0.6179 -0.6785  0.2200
  287MOL0     O38657   1.826   0.931   7.560 -0.1910  0.0014  0.5465
  287MOL0     C38658   2.040   0.806   7.695  0.6584 -0.4472  0.4046
  287MOL0     C38659   2.164   0.750   7.723 -0.4917 -0.5161  0.0972
  287MOL0     N38660   2.751   0.754   8.200 -0.1524 -0.2725 -0.6692
  287MOL0     N38661   2.853   0.758   8.281 -0.1911  1.7208  0.7808
  287MOL0     C38662   3.848   1.224   8.933  0.8812 -0.2719 -0.6594
  287MOL0     C38663   3.936   1.281   9.021 -0.2600  0.2878  1.3266
  287MOL0     C38664   4.078   1.474   9.442 -1.1599  0.6879  0.1094
  287MOL0     C38665   4.038   1.528   9.571 -0.5346  0.1878  0.2567
  287MOL0     C38666   4.131   1.598   9.659  0.2351 -0.6251 -0.3362
  287MOL0     C38667   4.259   1.621   9.621 -0.1147  0.3142 -0.2533
  287MOL0     O38668   4.336   1.688   9.703 -0.2671 -0.7991 -0.3933
  287MOL0     C38669   4.432   1.781   9.639 -0.8408 -0.1015 -0.5978
  287MOL0     C38670   4.570   1.734   9.639  0.6529  0.7483 -0.1365
  287MOL0     C38671   4.618   1.683   9.775  0.2586  0.4225 -0.1335
  287MOL0     C38672   4.766   1.662   9.785 -0.6311  0.7256  0.1013
  287MOL0     C38673   4.819   1.675   9.915  0.6483  0.2960 -0.8829
  287MOL0     C38674   4.875   1.684  10.021 -0.5030  0.0105  0.3883
  287MOL0     C38675   4.304   1.563   9.499  0.7121  0.8837 -1.2976
  287MOL0     C38676   4.220   1.486   9.413 -0.5367 -0.0969  0.4175
  287MOL0     C38677   4.292   1.431   9.294  0.1670  0.4784  0.3546
  287MOL0     H38678   3.729   1.493   9.192  0.9407  1.3354 -1.6234
  287MOL0     H38679   3.567   1.388   9.039  0.4410 -0.5160 -1.2882
  287MOL0     H38680   3.435   1.219   8.942 -0.5528 -1.0230  0.1867
  287MOL0     H38681   3.498   1.347   8.823  0.4189 -0.5281 -2.3314
  287MOL0     H38682   3.452   1.201   8.640  1.4510 -2.2871 -0.5113
  287MOL0     H38683   3.303   1.203   8.738  0.6210 -1.1805 -0.7568
  287MOL0     H38684   3.361   0.966   8.821  2.9034 -1.1935  1.9492
  287MOL0     H38685   3.528   0.999   8.798  0.7489  2.5848 -0.2534
  287MOL0     H38686   3.457   1.030   8.533  1.5028 -3.7325 -1.7980
  287MOL0     H38687   3.468   0.870   8.581  2.1444  2.1616 -0.3114
  287MOL0     H38688   3.230   0.852   8.649 -2.3658 -1.4691 -2.4682
  287MOL0     H38689   3.200   1.005   8.576  0.8627  1.6847  0.8438
  287MOL0     H38690   3.308   0.904   8.362 -2.3968  2.7441 -0.4248
  287MOL0     H38691   3.280   0.742   8.453 -1.9250 -0.2711 -1.7409
  287MOL0     H38692   3.074   0.950   8.409  1.3664 -0.4200  0.1649
  287MOL0     H38693   3.054   0.792   8.494 -1.6965  0.8768  0.4689
  287MOL0     H38694   3.162   0.827   8.194  0.6169  1.1016  1.9428
  287MOL0     H38695   3.116   0.674   8.275 -0.2306 -0.0656  1.6310
  287MOL0     H38696   2.989   0.855   8.000  1.8084 -2.8438  0.6441
  287MOL0     H38697   2.769   0.765   7.872 -0.0324  2.3169  0.0211
  287MOL0     H38698   2.633   0.686   7.968 -2.0312  1.0693  2.3128
  287MOL0     H38699   2.533   0.909   7.991  0.2445 -0.8064 -0.9208
  287MOL0     H38700   2.681   0.983   7.938 -0.1798 -0.3827  1.2778
  287MOL0     H38701   2.647   0.875   7.706 -1.6572 -0.4463 -1.7024
  287MOL0     H38702   2.515   0.991   7.761  0.1584 -0.1041 -3.7065
  287MOL0     H38703   2.501   0.681   7.755 -1.8190 -0.7438  1.5260
  287MOL0     H38704   2.424   0.796   7.653 -1.8253 -0.7330  0.6292
  287MOL0     H38705   2.246   0.975   7.958  0.0076  0.6761 -1.1575
  287MOL0     H38706   2.034   1.092   7.878 -0.9014 -0.4620 -0.9044
  287MOL0     H38707   1.593   1.029   7.600 -1.7517  0.8351 -0.4139
  287MOL0     H38708   1.421   1.184   7.525  0.8779  0.3549 -0.9340
  287MOL0     H38709   1.367   1.409   7.727 -3.3661 -0.4059  0.6350
  287MOL0     H38710   1.372   1.565   7.653 -2.9755 -1.2865  4.0998
  287MOL0     H38711   1.171   1.350   7.579  0.6029 -0.4375 -1.8385
  287MOL0     H38712   1.148   1.479   7.699 -1.3476 -0.7244 -1.8965
  287MOL0     H38713   1.226   1.614   7.457 -1.2137  1.8207  0.3481
  287MOL0     H38714   1.103   1.493   7.418  1.7299 -1.4552 -0.7050
  287MOL0     H38715   0.960   1.608   7.579 -1.0452  1.8088 -1.5432
  287MOL0     H38716   1.040   1.720   7.459  1.7805 -0.7907 -1.5378
  287MOL0     H38717   1.215   1.765   7.652 -0.5530  0.5708 -0.6333
  287MOL0     H38718   1.095   1.690   7.760 -0.4753  0.8837 -0.2899
  287MOL0     H38719   1.059   1.934   7.600 -2.2586 -0.9617 -1.2568
  287MOL0     H38720   0.931   1.856   7.692 -0.1592  2.2075  0.5545
  287MOL0     H38721   1.199   1.941   7.819  0.3927  0.8137 -1.1468
  287MOL0     H38722   1.067   1.892   7.899  1.7897 -2.1345 -1.9269
  287MOL0     H38723   0.936   2.082   7.825 -0.3416  0.4267  0.3451
  287MOL0     H38724   1.073   2.124   7.900  0.2590 -3.8274  0.5413
  287MOL0     H38725   1.664   1.514   7.580  0.7841 -0.2840  0.0525
  287MOL0     H38726   1.845   1.373   7.651  0.7130  1.4543 -2.5796
  287MOL0     H38727   1.977   0.750   7.626  2.4667 -2.2551  0.1239
  287MOL0     H38728   2.183   0.653   7.678 -1.6806  0.6957 -3.3128
  287MOL0     H38729   3.880   1.156   8.855  1.9173 -2.7350  1.7510
  287MOL0     H38730   4.038   1.244   9.022  0.1319  1.3301  1.0008
  287MOL0     H38731   3.931   1.529   9.589 -0.8321 -0.1432 -1.3287
  287MOL0     H38732   4.089   1.635   9.753 -1.4657 -4.4668  0.5853
  287MOL0     H38733   4.443   1.870   9.702 -1.7809 -1.0657  1.0172
  287MOL0     H38734   4.394   1.818   9.543 -0.6598  0.7553 -0.3452
  287MOL0     H38735   4.632   1.818   9.607 -1.6573  2.0420 -1.4584
  287MOL0     H38736   4.580   1.645   9.575  0.0757  0.4315  0.2022
  287MOL0     H38737   4.578   1.583   9.794  0.7261  0.1606 -0.4960
  287MOL0     H38738   4.585   1.760   9.845 -0.8245  0.8459 -1.0670
  287MOL0     H38739   4.791   1.563   9.747  0.5330  0.3284  1.8183
  287MOL0     H38740   4.817   1.726   9.713 -1.5277  1.6389  0.2518
  287MOL0     H38741   4.927   1.671  10.113 -0.9951 -1.9696  0.4331
  287MOL0     H38742   4.406   1.567   9.462  0.6775 -1.3285 -1.8012
  287MOL0     H38743   4.274   1.323   9.295 -2.1627  0.8197  1.4412
  287MOL0     H38744   4.249   1.462   9.199 -0.3258 -2.4928 -0.5119
  287MOL0     H38745   4.401   1.443   9.285  0.4408 -2.3542 -1.6542
  288MOL0     O38746   0.447  10.404   0.100 -0.1226  0.9747  1.0616
  288MOL0     C38747   0.503  10.328   0.022  0.1975 -0.9349 -0.5269
  288MOL0     O38748   0.478  10.193   0.006  0.7806 -0.4964 -0.1727
  288MOL0     C38749   0.397  10.123   0.096 -0.9967  1.0827 -0.2926
  288MOL0     C38750   0.326  10.171   0.206 -0.6735  0.4580 -0.0043
  288MOL0     C38751   0.272  10.087   0.306  0.0527 -0.1299  0.8454
  288MOL0     C38752   0.267   9.949   0.286  0.1444  0.4417  0.3819
  288MOL0     O38753   0.214   9.854   0.363  0.0825 -0.2918  0.0765
  288MOL0     C38754   0.186   9.887   0.500  0.2119 -0.2494  0.5244
  288MOL0     C38755   0.111   9.770   0.561  0.3613  1.7974 -0.1166
  288MOL0     C38756   0.036   9.797   0.691 -0.4534  0.8115 -0.4336
  288MOL0     C38757  -0.013   9.664   0.751  0.1151  0.1260 -0.4544
  288MOL0     C38758  -0.125   9.687   0.858 -0.1262  1.2481 -0.7290
  288MOL0     C38759  -0.185   9.549   0.884  0.7600 -0.2243 -0.8162
  288MOL0     C38760  -0.262   9.563   1.016 -1.1068  1.0790 -0.3229
  288MOL0     C38761  -0.374   9.658   1.011  0.8273  0.1689 -0.7936
  288MOL0     N38762  -0.477   9.639   0.908 -0.3128 -0.1331  0.4163
  288MOL0     C38763  -0.558   9.727   0.843  0.1249 -0.6289  0.1901
  288MOL0     C38764  -0.631   9.653   0.749  0.1045 -0.8184  0.3417
  288MOL0     C38765  -0.722   9.714   0.646  0.4945 -0.8033 -0.0838
  288MOL0     C38766  -0.879   9.703   0.663 -1.0285  0.9613 -0.9049
  288MOL0     C38767  -0.931   9.778   0.785  0.2209  0.0332  0.1591
  288MOL0     C38768  -0.922   9.926   0.769 -0.1297  1.0269 -0.2505
  288MOL0     O38769  -0.995   9.992   0.869 -0.1012 -0.4885  0.1429
  288MOL0     C38770  -1.132  10.009   0.845 -0.4253  0.6527 -0.2773
  288MOL0     C38771  -1.223   9.918   0.895  0.5278  0.1753 -1.4933
  288MOL0     C38772  -1.367   9.944   0.888  0.5068  0.6671  0.0746
  288MOL0     C38773  -1.405  10.071   0.840 -0.0915 -0.4702 -0.2704
  288MOL0     C38774  -1.546  10.111   0.821  0.7010 -0.3644  1.0988
  288MOL0     O38775  -1.633  10.004   0.806  0.3866  0.5279 -0.1335
  288MOL0     C38776  -1.769  10.022   0.829  0.5111 -0.0675 -0.0850
  288MOL0     C38777  -1.826   9.986   0.952  0.1050  0.3007  0.1146
  288MOL0     C38778  -1.962  10.019   0.977 -1.0493  0.1349 -0.9201
  288MOL0     C38779  -2.042  10.064   0.870  0.2346 -0.5643 -1.0518
  288MOL0     O38780  -2.172  10.103   0.878  0.0315  0.5324 -0.9239
  288MOL0     C38781  -2.273  10.000   0.889  0.2039 -0.2113 -0.0324
  288MOL0     C38782  -2.412  10.054   0.858 -0.7728 -0.2142 -0.0949
  288MOL0     C38783  -2.517   9.941   0.858 -0.9372 -0.5247 -0.0161
  288MOL0     C38784  -2.659  10.003   0.834 -0.3250 -0.0604  0.1009
  288MOL0     C38785  -2.767   9.885   0.841 -0.3499  0.0243 -0.8890
  288MOL0     C38786  -2.887   9.929   0.762  0.1125 -0.3802  0.2045
  288MOL0     C38787  -3.007   9.836   0.784  0.0827 -0.5326 -0.2805
  288MOL0     C38788  -3.130   9.885   0.716 -0.2907 -0.1359  0.0907
  288MOL0    Cl38789  -3.248   9.753   0.747  0.0576 -0.4563 -0.0756
  288MOL0     C38790  -1.985  10.087   0.744 -0.6421  0.0671 -0.7602
  288MOL0     C38791  -1.847  10.067   0.728 -0.2591  0.1282 -0.0456
  288MOL0     O38792  -1.574  10.229   0.833 -0.2329  0.1470  0.1207
  288MOL0     C38793  -1.308  10.154   0.780  0.8958 -0.4862  0.1409
  288MOL0     C38794  -1.175  10.128   0.792 -0.0993 -1.1833 -0.0066
  288MOL0     N38795  -0.592   9.518   0.757  0.2934 -0.9553 -0.4962
  288MOL0     N38796  -0.506   9.513   0.858  0.5049  0.0175  0.4829
  288MOL0     C38797   0.325   9.897   0.170 -0.1645 -0.3227  0.0590
  288MOL0     C38798   0.401   9.982   0.080 -0.2809  0.7666  0.1826
  288MOL0     C38799   0.604  10.387  -0.075 -0.1090 -0.4335  0.4551
  288MOL0     C38800   0.648  10.316  -0.189  0.6230 -0.6670 -0.0385
  288MOL0     C38801   0.750  10.360  -0.274  0.8791  0.2850  0.1071
  288MOL0     C38802   0.805  10.484  -0.257  0.6236 -0.1849  0.1842
  288MOL0     O38803   0.898  10.529  -0.348 -0.3060 -0.8350  0.1923
  288MOL0     C38804   0.911  10.458  -0.468  0.3877  0.4977 -0.2063
  288MOL0     C38805   1.008  10.520  -0.569 -0.3936 -0.2244  0.6165
  288MOL0     C38806   1.011  10.450  -0.693 -0.0972  0.6781 -0.3885
  288MOL0     C38807   1.097  10.523  -0.800 -1.2678  0.2771  0.0341
  288MOL0     C38808   1.149  10.413  -0.887 -0.1972 -1.1328 -0.0804
  288MOL0     C38809   1.185  10.314  -0.943 -0.1781  0.1198 -0.1301
  288MOL0     C38810   0.765  10.569  -0.157  0.9221  1.1691 -0.2803
  288MOL0     C38811   0.661  10.519  -0.067 -0.0289 -1.2370 -0.8080
  288MOL0     C38812   0.624  10.619   0.034  0.5987 -0.5264  0.1661
  288MOL0     H38813   0.326  10.277   0.233 -1.5772  0.8445 -1.4554
  288MOL0     H38814   0.237  10.150   0.387  1.8117  3.6642 -1.0776
  288MOL0     H38815   0.287   9.906   0.537  1.3656  0.8164 -2.8136
  288MOL0     H38816   0.140   9.984   0.519  0.2900  0.0940 -0.9456
  288MOL0     H38817   0.178   9.684   0.566  0.4949  1.6914 -2.5133
  288MOL0     H38818   0.035   9.744   0.486 -0.8470  1.5985  1.1436
  288MOL0     H38819  -0.045   9.865   0.661 -1.9037  1.0160  3.3686
  288MOL0     H38820   0.107   9.851   0.754 -0.4107  2.2309 -1.6596
  288MOL0     H38821  -0.062   9.608   0.671 -0.2545  1.3232 -1.0863
  288MOL0     H38822   0.074   9.607   0.785  1.2031  1.4646 -0.8940
  288MOL0     H38823  -0.090   9.731   0.952 -2.6929  2.2082 -0.1329
  288MOL0     H38824  -0.199   9.754   0.814 -0.4575  0.5792 -1.2122
  288MOL0     H38825  -0.252   9.514   0.806 -1.1264 -1.4351  1.2328
  288MOL0     H38826  -0.100   9.481   0.896  0.9154  0.0171 -0.5211
  288MOL0     H38827  -0.196   9.587   1.100 -0.6353 -1.5349  0.1478
  288MOL0     H38828  -0.301   9.467   1.051 -1.0542  1.0265 -0.4090
  288MOL0     H38829  -0.422   9.662   1.110 -0.1479  1.1379 -1.2812
  288MOL0     H38830  -0.329   9.757   1.003 -1.7455  2.0934  4.2327
  288MOL0     H38831  -0.556   9.833   0.864 -1.3716 -0.7352  1.0375
  288MOL0     H38832  -0.707   9.822   0.650 -2.8249 -0.1400 -2.0064
  288MOL0     H38833  -0.694   9.689   0.544 -1.8669  1.3689 -1.3631
  288MOL0     H38834  -0.918   9.729   0.564 -0.9545 -0.8685 -1.4540
  288MOL0     H38835  -0.899   9.597   0.679  2.5455  0.2211 -0.3679
  288MOL0     H38836  -0.877   9.751   0.876  0.5654 -0.3771 -0.1658
  288MOL0     H38837  -1.031   9.740   0.808 -1.0334  0.7184 -3.5231
  288MOL0     H38838  -0.947   9.951   0.665  1.2362 -0.6049 -1.0215
  288MOL0     H38839  -0.817   9.957   0.774 -0.3151  2.1570 -2.0573
  288MOL0     H38840  -1.181   9.841   0.959  0.6029  1.8265  0.5319
  288MOL0     H38841  -1.436   9.891   0.953  0.3218  3.9165  2.7567
  288MOL0     H38842  -1.761   9.957   1.034  1.5104  1.5385 -0.5156
  288MOL0     H38843  -2.003  10.021   1.078  1.9581  1.2648  0.4182
  288MOL0     H38844  -2.246   9.918   0.823 -1.5543 -1.0899  0.2746
  288MOL0     H38845  -2.290   9.965   0.991 -3.5457  2.7606  0.6069
  288MOL0     H38846  -2.443  10.124   0.936  0.0139  0.2591 -0.1819
  288MOL0     H38847  -2.401  10.104   0.761  3.1542  0.4808  0.5312
  288MOL0     H38848  -2.492   9.865   0.784 -0.6476 -1.3113  0.8773
  288MOL0     H38849  -2.510   9.898   0.958  1.6740  3.8241  1.9631
  288MOL0     H38850  -2.655  10.049   0.735  1.1669  0.6010  0.4527
  288MOL0     H38851  -2.685  10.079   0.908  0.7057 -0.3746  0.8072
  288MOL0     H38852  -2.793   9.851   0.942  2.1471 -1.8299 -0.7825
  288MOL0     H38853  -2.720   9.797   0.796  1.5193 -0.9391  2.6076
  288MOL0     H38854  -2.908  10.031   0.793  1.3836  0.0043 -0.1514
  288MOL0     H38855  -2.868   9.929   0.654 -0.3690 -1.0261  0.1129
  288MOL0     H38856  -3.028   9.835   0.891  2.3616  1.6366  0.2874
  288MOL0     H38857  -2.989   9.735   0.745 -1.3386 -0.3407 -1.5149
  288MOL0     H38858  -3.176   9.979   0.749  2.1695  1.5932 -1.1269
  288MOL0     H38859  -3.114   9.881   0.608  0.4158 -3.3492  0.2241
  288MOL0     H38860  -2.040  10.135   0.664 -1.3069  0.9612  0.2102
  288MOL0     H38861  -1.803  10.090   0.631  0.2878 -2.8228 -0.5980
  288MOL0     H38862  -1.336  10.250   0.738 -1.6273 -0.0386  2.5459
  288MOL0     H38863  -1.097  10.188   0.746 -0.3283 -1.2980 -0.5528
  288MOL0     H38864   0.318   9.790   0.153  0.3724 -0.3321 -0.1276
  288MOL0     H38865   0.452   9.937  -0.005 -0.1755  1.4387 -0.1187
  288MOL0     H38866   0.602  10.219  -0.208 -2.0153  0.2346  1.3119
  288MOL0     H38867   0.759  10.293  -0.360 -3.4698  1.3342 -1.4293
  288MOL0     H38868   0.810  10.445  -0.508  0.1141  0.0435  0.6090
  288MOL0     H38869   0.955  10.360  -0.445  0.4393 -0.0324 -2.3492
  288MOL0     H38870   1.113  10.521  -0.536  0.7238  1.8960 -2.5071
  288MOL0     H38871   0.971  10.620  -0.593 -1.6412 -1.1506 -1.5167
  288MOL0     H38872   0.913  10.453  -0.743 -0.7384  4.3737  0.7432
  288MOL0     H38873   1.035  10.344  -0.685 -0.9789  0.6336  3.4518
  288MOL0     H38874   1.038  10.602  -0.846 -2.1399  0.3785  1.2709
  288MOL0     H38875   1.180  10.563  -0.741 -1.7157  2.9228 -1.0219
  288MOL0     H38876   1.222  10.228  -0.995 -2.0313 -0.7330 -0.1207
  288MOL0     H38877   0.803  10.671  -0.154  1.2528  1.1722 -2.5809
  288MOL0     H38878   0.668  10.714   0.002 -0.0743 -0.2062  0.1825
  288MOL0     H38879   0.515  10.620   0.029  0.6358 -1.0784 -2.7509
  288MOL0     H38880   0.637  10.588   0.138 -1.1692 -4.2840 -0.5677
  289MOL0     O38881   6.948   8.837   4.660 -0.0721  0.2660  0.5771
  289MOL0     C38882   6.998   8.940   4.712  0.9319 -0.0661  0.3670
  289MOL0     O38883   6.928   9.034   4.784  0.2756  0.1658 -0.1342
  289MOL0     C38884   6.812   9.019   4.853  0.5887 -0.5171  0.5749
  289MOL0     C38885   6.755   9.140   4.898  0.2998  0.1190  0.6815
  289MOL0     C38886   6.632   9.130   4.964  0.8853 -0.2639  0.2231
  289MOL0     C38887   6.568   9.012   4.987 -0.4982 -0.0143 -0.5260
  289MOL0     O38888   6.452   9.039   5.051  0.3313  0.3894  0.2483
  289MOL0     C38889   6.370   8.923   5.080  0.1960  0.0824 -0.2345
  289MOL0     C38890   6.247   8.956   5.172 -0.0209 -0.3950  0.2572
  289MOL0     C38891   6.166   9.073   5.136 -0.2479  0.4701  0.3470
  289MOL0     C38892   6.057   9.075   5.242  0.4226  0.1907  0.6200
  289MOL0     C38893   5.976   9.196   5.220  0.3091 -0.1167 -0.3996
  289MOL0     C38894   5.890   9.186   5.095 -0.0858  0.0608  0.3216
  289MOL0     C38895   5.756   9.258   5.128  0.0832  0.2304 -0.2030
  289MOL0     C38896   5.666   9.159   5.215 -0.6673  0.7891 -0.4203
  289MOL0     N38897   5.523   9.177   5.203 -0.2946  0.0314  0.4367
  289MOL0     C38898   5.472   9.287   5.155 -0.5905 -0.2839  0.3717
  289MOL0     C38899   5.355   9.255   5.101  0.8771  0.2286  0.8867
  289MOL0     C38900   5.260   9.348   5.026 -0.2542  0.1193 -0.8150
  289MOL0     C38901   5.129   9.282   4.989 -0.2142  0.0907 -0.7419
  289MOL0     C38902   5.020   9.384   4.976 -0.1278 -0.4670  0.9224
  289MOL0     C38903   4.912   9.335   4.885 -0.4313 -0.2696 -0.9247
  289MOL0     O38904   4.835   9.224   4.941 -0.4749  0.0323  0.7946
  289MOL0     C38905   4.702   9.207   4.924 -0.5166  0.3259 -0.2865
  289MOL0     C38906   4.652   9.080   4.947 -0.3578  0.0441  0.1995
  289MOL0     C38907   4.519   9.047   4.934  0.0744  0.2730 -0.6569
  289MOL0     C38908   4.437   9.139   4.869 -0.0270 -0.5409 -0.8558
  289MOL0     C38909   4.299   9.113   4.827 -0.1199  0.5748  0.0830
  289MOL0     O38910   4.218   9.204   4.779 -0.1869  0.0891 -0.3129
  289MOL0     C38911   4.083   9.172   4.759  0.3995  0.7522  0.0318
  289MOL0     C38912   4.038   9.146   4.623  0.1969 -0.4038 -0.2171
  289MOL0     C38913   3.905   9.111   4.602  0.2833  0.7270 -0.3993
  289MOL0     C38914   3.813   9.109   4.710  0.7299  0.6561  0.0187
  289MOL0     O38915   3.676   9.105   4.696 -0.4379  0.5361 -0.3924
  289MOL0     C38916   3.612   9.226   4.656 -0.2805 -0.3013 -0.9033
  289MOL0     C38917   3.533   9.286   4.767  0.4757  1.1427 -0.4685
  289MOL0     C38918   3.419   9.194   4.819 -0.3806 -0.8786 -0.5280
  289MOL0     C38919   3.380   9.230   4.968 -0.9411  0.0306 -0.3847
  289MOL0     C38920   3.437   9.131   5.068  0.0325  0.4128  0.2400
  289MOL0     C38921   3.384   9.151   5.213 -0.2375 -0.1360  0.4418
  289MOL0     C38922   3.248   9.121   5.234  0.3821  0.0229 -0.4140
  289MOL0     C38923   3.215   9.136   5.388 -0.2210 -0.5406 -0.1244
  289MOL0    Cl38924   3.234   9.305   5.438  0.0727  0.5670  0.3811
  289MOL0     C38925   3.856   9.132   4.843  0.1222  0.1681 -0.3162
  289MOL0     C38926   3.993   9.161   4.866  0.8752  0.5876 -0.2672
  289MOL0     O38927   4.266   8.991   4.851 -0.6578  0.0387 -0.7353
  289MOL0     C38928   4.494   9.269   4.837  0.0929  0.3386 -0.1464
  289MOL0     C38929   4.624   9.302   4.870 -0.3306  0.5137  0.3904
  289MOL0     N38930   5.341   9.121   5.106 -0.4822  0.8338 -0.5592
  289MOL0     N38931   5.439   9.074   5.174  0.2477 -0.3448  0.0407
  289MOL0     C38932   6.629   8.888   4.948  0.0002 -0.3014  0.4009
  289MOL0     C38933   6.752   8.902   4.888  0.3905  0.5087  0.0296
  289MOL0     C38934   7.137   8.969   4.690  0.4447  0.7662  0.5744
  289MOL0     C38935   7.184   9.098   4.686 -0.9599 -0.2616 -0.0746
  289MOL0     C38936   7.327   9.118   4.661  0.0614  0.1410 -0.9200
  289MOL0     C38937   7.417   9.024   4.625 -0.4253 -0.2947 -0.7631
  289MOL0     O38938   7.542   9.081   4.600  0.4545 -0.3268 -0.0343
  289MOL0     C38939   7.646   8.981   4.604 -0.3331 -0.0268 -0.5598
  289MOL0     C38940   7.790   9.021   4.569  0.4981  0.2450  0.1309
  289MOL0     C38941   7.792   9.125   4.450 -0.7989 -0.3944 -0.4331
  289MOL0     C38942   7.924   9.175   4.419  0.2458  0.1803  0.3395
  289MOL0     C38943   8.009   9.065   4.372  0.7058  0.0882  0.8913
  289MOL0     C38944   8.080   8.977   4.322  1.2117  0.0264 -0.1369
  289MOL0     C38945   7.368   8.893   4.615  0.7027  0.7535 -0.4929
  289MOL0     C38946   7.230   8.863   4.650 -0.1221 -0.0401 -0.1026
  289MOL0     C38947   7.204   8.716   4.668  0.5514  0.3870 -0.6736
  289MOL0     H38948   6.796   9.238   4.875 -0.3703 -0.0718 -1.5105
  289MOL0     H38949   6.578   9.223   4.982  1.6718  0.3513 -0.5641
  289MOL0     H38950   6.334   8.882   4.986  0.9883  0.1443 -0.5783
  289MOL0     H38951   6.440   8.856   5.131  0.2248 -0.5655 -1.1158
  289MOL0     H38952   6.286   8.971   5.273 -0.0556 -3.8293  0.8861
  289MOL0     H38953   6.185   8.866   5.180  1.0588 -1.2246 -0.4726
  289MOL0     H38954   6.124   9.062   5.035  1.1614 -1.7067 -0.0832
  289MOL0     H38955   6.235   9.157   5.129  0.1841 -0.0117 -2.7473
  289MOL0     H38956   5.986   8.991   5.242 -2.5064  2.4265  2.8885
  289MOL0     H38957   6.097   9.105   5.339  0.1573  4.7223 -0.4340
  289MOL0     H38958   5.918   9.213   5.311  0.5882  2.6656 -0.6638
  289MOL0     H38959   6.035   9.288   5.220  0.4648 -0.1619  1.6425
  289MOL0     H38960   5.937   9.219   5.002 -2.2483 -0.3774 -0.9914
  289MOL0     H38961   5.867   9.080   5.082  1.2340 -0.1399 -0.5314
  289MOL0     H38962   5.700   9.265   5.034 -2.2430  0.2737  1.1029
  289MOL0     H38963   5.762   9.357   5.174  0.0275 -0.2912  0.9334
  289MOL0     H38964   5.683   9.055   5.185  0.6256  1.3631 -1.8088
  289MOL0     H38965   5.702   9.152   5.318  0.0317 -0.6881 -0.7256
  289MOL0     H38966   5.504   9.391   5.156 -1.8678  0.1131  1.3856
  289MOL0     H38967   5.243   9.431   5.096  0.7291 -0.7822  0.5350
  289MOL0     H38968   5.316   9.374   4.936  3.8524 -0.6480  1.3076
  289MOL0     H38969   5.143   9.233   4.892 -0.6458 -1.2471 -0.1525
  289MOL0     H38970   5.095   9.198   5.049 -0.7580  1.1902  0.5476
  289MOL0     H38971   5.065   9.472   4.928  0.3661  0.6607  3.3185
  289MOL0     H38972   4.982   9.407   5.076 -0.9159 -0.4687  0.6323
  289MOL0     H38973   4.968   9.316   4.793  0.0687  1.0121 -0.9018
  289MOL0     H38974   4.847   9.421   4.868 -0.3101 -0.2494 -1.3029
  289MOL0     H38975   4.726   9.005   4.975 -1.0593 -0.2604  1.2964
  289MOL0     H38976   4.470   8.963   4.982 -1.2152  1.1589 -0.3552
  289MOL0     H38977   4.107   9.150   4.540 -1.7066 -1.1586 -1.8899
  289MOL0     H38978   3.871   9.099   4.499 -1.8306  0.3109  0.3003
  289MOL0     H38979   3.686   9.298   4.620 -1.2780  0.6633 -1.0667
  289MOL0     H38980   3.538   9.206   4.578  0.9528  1.5264 -2.6466
  289MOL0     H38981   3.605   9.301   4.849  0.1342  0.5509 -0.0555
  289MOL0     H38982   3.494   9.381   4.730 -2.3516 -0.4017 -1.7029
  289MOL0     H38983   3.333   9.199   4.752  0.6801  1.5223 -1.8377
  289MOL0     H38984   3.458   9.092   4.828 -0.7335 -0.8371  2.2724
  289MOL0     H38985   3.272   9.226   4.980 -0.9598  1.8548  0.3450
  289MOL0     H38986   3.413   9.333   4.987 -0.8633 -0.0072 -0.3114
  289MOL0     H38987   3.545   9.148   5.074  0.3591 -1.6042  0.8189
  289MOL0     H38988   3.410   9.031   5.034  0.1001  1.2167 -2.3664
  289MOL0     H38989   3.443   9.079   5.270 -0.5125 -2.9588 -2.5948
  289MOL0     H38990   3.403   9.253   5.250 -1.9860 -0.7841  3.5574
  289MOL0     H38991   3.209   9.025   5.198 -4.5359  2.1852 -1.6093
  289MOL0     H38992   3.185   9.193   5.181 -2.0390 -0.3372  1.7745
  289MOL0     H38993   3.115   9.104   5.417 -1.1120  2.2912  0.2395
  289MOL0     H38994   3.294   9.077   5.436  0.3891 -1.3630 -2.0247
  289MOL0     H38995   3.791   9.124   4.929  1.2761  0.9023  0.6680
  289MOL0     H38996   4.037   9.157   4.965 -0.1688 -2.1681  0.1611
  289MOL0     H38997   4.443   9.342   4.774 -0.9225  2.4558  2.8970
  289MOL0     H38998   4.659   9.399   4.836  0.5866  0.0273 -0.0857
  289MOL0     H38999   6.598   8.784   4.955  0.9635 -0.7363 -1.2177
  289MOL0     H39000   6.785   8.804   4.856 -5.9759 -1.0148 -3.6398
  289MOL0     H39001   7.128   9.188   4.706 -0.3198  0.1659 -0.1841
  289MOL0     H39002   7.353   9.223   4.665 -0.7845  0.3319 -0.2660
  289MOL0     H39003   7.620   8.918   4.518  1.9762 -1.0411 -0.5715
  289MOL0     H39004   7.649   8.928   4.699  1.3578 -1.1188 -1.1863
  289MOL0     H39005   7.843   8.928   4.546 -2.6027 -2.1865  1.9974
  289MOL0     H39006   7.836   9.065   4.658  1.3778 -1.0977  0.3835
  289MOL0     H39007   7.739   9.215   4.481 -0.9888 -0.3673 -0.8308
  289MOL0     H39008   7.728   9.090   4.368 -1.6332  0.1642 -0.0364
  289MOL0     H39009   7.921   9.243   4.333 -2.3524  0.6480  0.7361
  289MOL0     H39010   7.978   9.229   4.497  0.8201 -2.7377  2.0829
  289MOL0     H39011   8.148   8.903   4.286  0.2736 -2.1191  2.1854
  289MOL0     H39012   7.433   8.810   4.590 -0.0038 -0.5365  1.7044
  289MOL0     H39013   7.296   8.657   4.682  0.0927  0.3139  3.1678
  289MOL0     H39014   7.154   8.709   4.765  0.5585 -0.9228 -0.7438
  289MOL0     H39015   7.147   8.675   4.585 -1.7459 -0.0887  1.0314
  290MOL0     O39016   4.891   5.953   6.244  0.8834 -0.9087  0.0411
  290MOL0     C39017   4.808   5.920   6.330 -0.9618 -0.7875  0.5240
  290MOL0     O39018   4.817   5.969   6.459  0.7133 -0.7107  0.2710
  290MOL0     C39019   4.919   6.049   6.513  1.3290  0.6478  1.2237
  290MOL0     C39020   5.054   6.006   6.502  0.9422  0.2822  0.5456
  290MOL0     C39021   5.143   6.077   6.583  0.1582  0.3506  0.0261
  290MOL0     C39022   5.101   6.186   6.665 -0.6009  0.8897  0.6538
  290MOL0     O39023   5.200   6.244   6.741  0.1769 -0.5284  0.0590
  290MOL0     C39024   5.162   6.253   6.879  0.6256  0.5276 -0.0832
  290MOL0     C39025   5.290   6.232   6.966  0.9817 -0.2516 -0.5774
  290MOL0     C39026   5.269   6.279   7.109 -0.1290 -0.0356 -0.0077
  290MOL0     C39027   5.299   6.429   7.127  0.5296  0.8740  0.2554
  290MOL0     C39028   5.267   6.481   7.269  0.0494 -0.3904 -0.5636
  290MOL0     C39029   5.114   6.494   7.299  0.0158  0.2110 -0.0667
  290MOL0     C39030   5.061   6.619   7.217 -0.9086  0.2525 -0.0963
  290MOL0     C39031   4.913   6.607   7.177 -0.0057 -0.1936 -0.2402
  290MOL0     N39032   4.858   6.733   7.119  0.3236  0.2013  0.9490
  290MOL0     C39033   4.804   6.748   6.996  0.6942 -0.8697 -0.7459
  290MOL0     C39034   4.796   6.886   6.972 -0.4779  0.5479  0.3027
  290MOL0     C39035   4.736   6.946   6.849 -0.0574  0.8740 -0.6356
  290MOL0     C39036   4.622   7.057   6.877  0.6148  0.9942 -0.0809
  290MOL0     C39037   4.568   7.104   6.736 -0.0862  0.4557  0.2734
  290MOL0     C39038   4.444   7.203   6.746 -0.5139  0.7099 -0.5531
  290MOL0     O39039   4.325   7.131   6.800 -0.0278  0.4396  0.2223
  290MOL0     C39040   4.255   7.038   6.719 -0.3690 -0.9792 -1.4769
  290MOL0     C39041   4.151   6.973   6.786  0.2187 -0.2065  0.5935
  290MOL0     C39042   4.070   6.891   6.699 -0.1853 -0.4732  0.5214
  290MOL0     C39043   4.096   6.860   6.562 -0.4820 -0.0304 -0.0652
  290MOL0     C39044   4.020   6.770   6.476  0.4720  0.3849 -0.0445
  290MOL0     O39045   3.901   6.720   6.515  0.2635  0.0986 -0.7469
  290MOL0     C39046   3.836   6.650   6.420 -0.1889  1.0685 -0.1932
  290MOL0     C39047   3.867   6.513   6.396  0.2112 -0.9089 -0.6252
  290MOL0     C39048   3.813   6.446   6.288  0.5031 -0.2741  0.2540
  290MOL0     C39049   3.727   6.520   6.199  0.0760  0.8631 -0.8320
  290MOL0     O39050   3.668   6.453   6.096 -0.5212  0.3936  0.2636
  290MOL0     C39051   3.524   6.452   6.110 -0.2986  1.0127  0.1600
  290MOL0     C39052   3.451   6.467   5.980  0.1901  0.8391 -0.0761
  290MOL0     C39053   3.308   6.518   5.987 -0.0055  0.0798 -0.2373
  290MOL0     C39054   3.225   6.514   5.853  0.0073 -0.3512  0.3593
  290MOL0     C39055   3.288   6.567   5.725 -0.3015 -0.1943 -0.4466
  290MOL0     C39056   3.343   6.712   5.729 -0.0761  0.5729 -0.5013
  290MOL0     C39057   3.358   6.782   5.591 -0.4058 -0.3035 -0.1580
  290MOL0     C39058   3.454   6.913   5.594  0.2303  0.0297 -0.3552
  290MOL0    Cl39059   3.405   7.005   5.741 -0.2306  0.5413  0.2922
  290MOL0     C39060   3.696   6.660   6.225  1.0391  0.3988  0.2745
  290MOL0     C39061   3.752   6.715   6.340  0.5818 -0.6371  0.1371
  290MOL0     O39062   4.081   6.733   6.375  0.6728  0.3072 -0.3406
  290MOL0     C39063   4.203   6.936   6.504 -0.1270  0.5470 -0.5556
  290MOL0     C39064   4.287   7.024   6.584  0.4025  0.4195 -1.3581
  290MOL0     N39065   4.849   6.952   7.080  0.3588  0.0271 -0.0564
  290MOL0     N39066   4.894   6.862   7.166 -0.3951  0.1708 -0.0141
  290MOL0     C39067   4.965   6.213   6.672  0.8115  0.4645  0.0546
  290MOL0     C39068   4.875   6.142   6.603  0.6118  0.3661 -0.9436
  290MOL0     C39069   4.692   5.829   6.303 -0.6272  0.5391  0.1368
  290MOL0     C39070   4.616   5.783   6.411 -0.2478 -0.4666 -0.3194
  290MOL0     C39071   4.499   5.704   6.393 -0.3181  0.1720  0.1730
  290MOL0     C39072   4.473   5.656   6.261 -1.0282 -0.7963 -1.4747
  290MOL0     O39073   4.375   5.575   6.231  0.2561  0.2147  0.1688
  290MOL0     C39074   4.313   5.498   6.330  0.7402 -0.0427  0.1623
  290MOL0     C39075   4.198   5.425   6.272  0.6936 -0.0497  0.5561
  290MOL0     C39076   4.156   5.312   6.368  0.6401  0.2333  0.3177
  290MOL0     C39077   4.055   5.219   6.292  0.1830 -0.6315 -0.2645
  290MOL0     C39078   3.921   5.276   6.287  0.1502  0.8969 -0.2916
  290MOL0     C39079   3.804   5.316   6.287  0.7131 -0.0717  0.7129
  290MOL0     C39080   4.547   5.699   6.150  0.3213  0.3840 -0.3821
  290MOL0     C39081   4.651   5.781   6.173 -0.8206  0.2913  0.2493
  290MOL0     C39082   4.724   5.828   6.050  0.1056 -0.2557  0.5318
  290MOL0     H39083   5.090   5.925   6.439  1.0974 -1.3391  2.5925
  290MOL0     H39084   5.248   6.066   6.562 -0.3309 -1.1474 -1.8770
  290MOL0     H39085   5.112   6.349   6.895 -0.4529  0.3081 -1.9122
  290MOL0     H39086   5.090   6.177   6.911 -0.3436  2.3558  2.4012
  290MOL0     H39087   5.382   6.277   6.929  1.1958 -1.6653 -1.8234
  290MOL0     H39088   5.308   6.125   6.961 -0.3751 -0.4393 -4.8370
  290MOL0     H39089   5.346   6.229   7.168  0.7659  0.5485 -0.6620
  290MOL0     H39090   5.172   6.249   7.150  0.2857 -0.9930  0.2998
  290MOL0     H39091   5.407   6.434   7.113  0.6170 -2.3540 -1.1293
  290MOL0     H39092   5.239   6.492   7.061 -3.0502 -0.3298  2.0776
  290MOL0     H39093   5.314   6.419   7.347 -1.8844 -1.2804 -0.0208
  290MOL0     H39094   5.311   6.579   7.288 -3.5912  1.2286  0.4614
  290MOL0     H39095   5.060   6.407   7.261  1.1311 -1.5865  2.1977
  290MOL0     H39096   5.092   6.514   7.404 -2.8213  2.4385 -0.9540
  290MOL0     H39097   5.116   6.649   7.127  1.5392 -1.7021  0.6451
  290MOL0     H39098   5.067   6.699   7.291 -2.3129  1.0553 -0.8055
  290MOL0     H39099   4.908   6.529   7.100 -0.0968 -1.9776  1.5070
  290MOL0     H39100   4.848   6.570   7.257  1.6782 -1.5543  0.5683
  290MOL0     H39101   4.770   6.668   6.931 -0.5828  0.2341 -1.5080
  290MOL0     H39102   4.816   6.990   6.789  0.4197  1.2611  0.2680
  290MOL0     H39103   4.689   6.873   6.783  0.5301  2.2032 -2.5988
  290MOL0     H39104   4.542   7.002   6.928  1.5873 -0.5676 -0.1720
  290MOL0     H39105   4.659   7.139   6.939  0.4665  0.2536  1.0016
  290MOL0     H39106   4.540   7.017   6.677 -0.4359 -0.0928  1.2221
  290MOL0     H39107   4.650   7.153   6.682  2.6055 -0.9989  2.7378
  290MOL0     H39108   4.416   7.249   6.650  1.6242  0.3796 -1.3962
  290MOL0     H39109   4.464   7.286   6.814 -1.1351 -1.7401  2.8617
  290MOL0     H39110   4.113   6.987   6.887  0.0975 -4.4485  1.2914
  290MOL0     H39111   3.989   6.843   6.752 -1.2309  0.0648 -0.5509
  290MOL0     H39112   3.910   6.461   6.481 -0.0622  0.4143  0.3610
  290MOL0     H39113   3.827   6.341   6.263 -0.5192 -0.1357 -1.0270
  290MOL0     H39114   3.499   6.353   6.150  2.4100 -0.0082 -0.4499
  290MOL0     H39115   3.493   6.523   6.186 -1.2377  1.8225 -0.9486
  290MOL0     H39116   3.499   6.539   5.913  1.3559 -0.6843 -0.9522
  290MOL0     H39117   3.439   6.370   5.931 -0.3378 -0.4806  2.5394
  290MOL0     H39118   3.260   6.454   6.062  1.1013  1.4241  1.7148
  290MOL0     H39119   3.311   6.622   6.020  1.2488 -0.1368  0.4249
  290MOL0     H39120   3.134   6.573   5.870  0.5939  0.6074  0.2629
  290MOL0     H39121   3.182   6.414   5.840  3.4377 -2.0760  1.1080
  290MOL0     H39122   3.202   6.557   5.658 -1.7118  0.2839  1.2427
  290MOL0     H39123   3.373   6.507   5.691 -0.7367 -1.7349  1.0703
  290MOL0     H39124   3.284   6.773   5.798  2.3099  2.5759 -0.0807
  290MOL0     H39125   3.442   6.693   5.773 -1.3001 -1.9502  1.4922
  290MOL0     H39126   3.259   6.820   5.567 -0.6071 -2.4972 -3.5991
  290MOL0     H39127   3.393   6.719   5.508 -0.8781  0.9319 -1.3429
  290MOL0     H39128   3.556   6.874   5.604 -0.6648 -2.8170 -1.2111
  290MOL0     H39129   3.443   6.956   5.494  1.3470  1.3153  0.0579
  290MOL0     H39130   3.626   6.712   6.160 -2.0842  0.5629  3.4893
  290MOL0     H39131   3.739   6.819   6.369  2.3203 -0.3035 -0.1249
  290MOL0     H39132   4.231   6.916   6.401  1.8919 -1.3141  0.2827
  290MOL0     H39133   4.356   7.085   6.527  1.4947 -0.2674 -0.7832
  290MOL0     H39134   4.938   6.294   6.739  1.2836 -0.3448  1.2642
  290MOL0     H39135   4.768   6.153   6.619  0.4095 -0.7274 -1.4633
  290MOL0     H39136   4.642   5.820   6.509  0.7615 -1.9847  0.0167
  290MOL0     H39137   4.440   5.703   6.484  0.1438  0.9851  0.4895
  290MOL0     H39138   4.290   5.555   6.420  4.3006  1.3262  0.3830
  290MOL0     H39139   4.390   5.424   6.351  2.0981  0.8945 -1.2551
  290MOL0     H39140   4.229   5.372   6.181  1.0392 -1.1817  1.3106
  290MOL0     H39141   4.112   5.491   6.256  1.8235  1.5338  0.7473
  290MOL0     H39142   4.100   5.362   6.448  1.1994  1.9582 -0.3200
  290MOL0     H39143   4.243   5.258   6.407 -0.6088  0.6211  3.9930
  290MOL0     H39144   4.087   5.194   6.190 -1.5947  0.9197 -1.2627
  290MOL0     H39145   4.051   5.128   6.352 -1.3727 -1.0711 -0.9783
  290MOL0     H39146   3.702   5.347   6.283 -0.4194 -3.4285  0.7350
  290MOL0     H39147   4.508   5.673   6.052  3.2781  1.2760 -1.8934
  290MOL0     H39148   4.683   5.784   5.959  1.1735 -0.4508  0.1255
  290MOL0     H39149   4.725   5.938   6.049  1.0035 -0.2488 -0.7726
  290MOL0     H39150   4.829   5.797   6.059  0.7711  0.0193 -3.8858
  291MOL0     O39151   8.311   8.666   4.742  0.5279  0.5935  0.4412
  291MOL0     C39152   8.430   8.641   4.713  0.2478 -0.2792 -0.4853
  291MOL0     O39153   8.521   8.584   4.801 -0.2877 -0.0632  0.3422
  291MOL0     C39154   8.495   8.557   4.931 -0.6085  0.7319  0.4258
  291MOL0     C39155   8.397   8.622   5.008  0.1080  0.2461 -0.5253
  291MOL0     C39156   8.366   8.590   5.140  0.2548  1.0463  0.1772
  291MOL0     C39157   8.437   8.493   5.209  0.1258 -0.7964  0.0895
  291MOL0     O39158   8.405   8.479   5.341 -0.5768  0.3113 -0.4366
  291MOL0     C39159   8.453   8.365   5.413  0.5613  0.5210  0.2496
  291MOL0     C39160   8.389   8.355   5.553  0.2321 -0.3263 -0.4757
  291MOL0     C39161   8.447   8.238   5.642  0.3356  0.2645  0.2981
  291MOL0     C39162   8.400   8.102   5.602  1.0351 -0.6599  0.5851
  291MOL0     C39163   8.428   8.005   5.723 -0.2800  0.5620  0.8406
  291MOL0     C39164   8.577   8.005   5.775  0.2578  0.4309 -0.2215
  291MOL0     C39165   8.603   7.891   5.877  1.3486 -0.1571 -0.4309
  291MOL0     C39166   8.737   7.829   5.882  0.1740 -0.4842 -0.0902
  291MOL0     N39167   8.757   7.786   6.016 -0.7346  0.4128 -0.8519
  291MOL0     C39168   8.748   7.862   6.130 -0.2294 -0.2068 -0.2504
  291MOL0     C39169   8.773   7.774   6.231  0.1639 -0.2581  1.6967
  291MOL0     C39170   8.791   7.810   6.369  0.5509  0.0745 -0.5964
  291MOL0     C39171   8.913   7.901   6.389  0.3463  0.4387 -0.5782
  291MOL0     C39172   9.048   7.831   6.384  0.1908  0.0793 -0.1332
  291MOL0     C39173   9.159   7.926   6.361 -0.0024 -0.4880 -0.4716
  291MOL0     O39174   9.280   7.852   6.395 -0.3336  0.2169  0.1038
  291MOL0     C39175   9.402   7.922   6.368 -0.9744  0.6399 -0.3208
  291MOL0     C39176   9.418   8.042   6.303 -0.1338 -0.8713 -0.1024
  291MOL0     C39177   9.554   8.100   6.294 -0.1987 -0.2177  0.5211
  291MOL0     C39178   9.664   8.029   6.349  0.4249 -0.2494  0.3607
  291MOL0     C39179   9.798   8.092   6.341  0.4520 -0.1031  0.5742
  291MOL0     O39180   9.794   8.226   6.313 -0.0024  0.2125  0.5413
  291MOL0     C39181   9.914   8.296   6.299 -0.4602 -0.1573  0.0690
  291MOL0     C39182  10.002   8.316   6.406 -0.2377  0.2020  0.0408
  291MOL0     C39183  10.106   8.406   6.390 -0.0499  0.6259  0.5331
  291MOL0     C39184  10.125   8.484   6.275  0.3026  0.3525  0.1404
  291MOL0     O39185  10.232   8.571   6.273 -1.0070 -0.2021 -0.6406
  291MOL0     C39186  10.284   8.630   6.148  0.6484  0.1725  0.8390
  291MOL0     C39187  10.429   8.665   6.183  0.3614 -1.0795 -0.1533
  291MOL0     C39188  10.489   8.730   6.060  0.2116 -0.3840 -0.0547
  291MOL0     C39189  10.508   8.877   6.068 -0.1913 -0.1550 -0.1282
  291MOL0     C39190  10.533   8.944   5.935  0.6608  0.3418  0.7573
  291MOL0     C39191  10.408   8.947   5.837 -0.6417 -0.6287 -0.0235
  291MOL0     C39192  10.429   8.842   5.724  0.0992 -0.0997  0.0296
  291MOL0     C39193  10.504   8.897   5.599  0.7251  0.5149 -0.5536
  291MOL0    Cl39194  10.377   8.960   5.490  0.5441 -0.0071  0.0726
  291MOL0     C39195  10.030   8.472   6.170  0.1888 -0.1917 -0.1675
  291MOL0     C39196   9.919   8.377   6.186 -0.2659 -0.4928 -0.6613
  291MOL0     O39197   9.896   8.023   6.369  0.6417  0.4146  0.4518
  291MOL0     C39198   9.643   7.909   6.417 -0.6034 -0.4231 -0.3472
  291MOL0     C39199   9.513   7.852   6.423 -0.0724  0.3089  0.9972
  291MOL0     N39200   8.812   7.654   6.171  0.1158 -0.5210  0.2366
  291MOL0     N39201   8.787   7.654   6.054 -0.1783  0.5664 -0.5116
  291MOL0     C39202   8.530   8.417   5.134  0.7269 -0.7650 -0.6228
  291MOL0     C39203   8.562   8.451   5.003  0.1840  0.6719 -0.0787
  291MOL0     C39204   8.493   8.651   4.579 -0.0653 -0.8142  0.3574
  291MOL0     C39205   8.572   8.541   4.544 -0.9185  0.2081 -0.2577
  291MOL0     C39206   8.640   8.541   4.422 -0.2363  0.3378 -0.8248
  291MOL0     C39207   8.638   8.664   4.341 -0.6271  1.0367  0.0251
  291MOL0     O39208   8.713   8.680   4.222  1.0080 -0.1578 -0.2363
  291MOL0     C39209   8.830   8.762   4.241 -0.0136  0.2530  0.2778
  291MOL0     C39210   8.922   8.752   4.115  0.5171 -0.6729  0.3981
  291MOL0     C39211   9.056   8.814   4.141 -0.8208  0.3557  0.1031
  291MOL0     C39212   9.142   8.789   4.011 -0.0289 -0.0420  0.6168
  291MOL0     C39213   9.198   8.655   4.009  0.1912 -0.7196 -0.7291
  291MOL0     C39214   9.230   8.542   4.027  0.0394  0.6459  1.0187
  291MOL0     C39215   8.559   8.775   4.380  0.4819  0.5210 -0.6794
  291MOL0     C39216   8.489   8.764   4.505  1.0796 -0.3916  0.1495
  291MOL0     C39217   8.404   8.886   4.533 -0.0168 -0.9577 -0.5969
  291MOL0     H39218   8.348   8.711   4.970  0.7452 -0.2795 -2.7160
  291MOL0     H39219   8.308   8.667   5.190  0.1042  1.4561 -0.6054
  291MOL0     H39220   8.421   8.271   5.368  0.0812  0.2186  1.2067
  291MOL0     H39221   8.562   8.356   5.417  0.7626  2.7291  2.6417
  291MOL0     H39222   8.281   8.343   5.544 -0.1134 -0.8702  2.9228
  291MOL0     H39223   8.392   8.451   5.605 -1.0612 -0.5654  0.0838
  291MOL0     H39224   8.401   8.250   5.741  1.9663  2.6978  0.8487
  291MOL0     H39225   8.554   8.257   5.653  0.0667  2.7384 -0.6632
  291MOL0     H39226   8.292   8.098   5.587  0.8488 -0.6734  1.7981
  291MOL0     H39227   8.446   8.069   5.508  0.3391  0.4086 -0.1469
  291MOL0     H39228   8.360   8.022   5.806 -1.8489  0.1413 -0.3084
  291MOL0     H39229   8.415   7.901   5.692 -0.8980  0.9171 -0.1329
  291MOL0     H39230   8.648   7.995   5.693 -1.7130 -1.4626 -1.8364
  291MOL0     H39231   8.595   8.097   5.831 -2.7989 -0.0118  1.8066
  291MOL0     H39232   8.539   7.805   5.856 -1.3620  1.2590  1.3742
  291MOL0     H39233   8.573   7.922   5.978  0.1244  2.0453 -1.3969
  291MOL0     H39234   8.737   7.742   5.816 -0.5165 -0.5828  0.0360
  291MOL0     H39235   8.813   7.907   5.865 -0.1161  0.3229  1.9677
  291MOL0     H39236   8.712   7.961   6.156 -0.3796 -0.5414  0.8805
  291MOL0     H39237   8.702   7.863   6.404  1.9425  1.0458  1.7666
  291MOL0     H39238   8.797   7.720   6.430 -1.8574  1.1348  1.3786
  291MOL0     H39239   8.905   7.986   6.320 -2.5777  2.2163  1.6973
  291MOL0     H39240   8.893   7.942   6.489 -3.1917  0.8605 -1.3270
  291MOL0     H39241   9.059   7.760   6.302  3.3726  0.3716 -0.0962
  291MOL0     H39242   9.068   7.778   6.478  1.3782 -2.3400 -1.6548
  291MOL0     H39243   9.164   8.007   6.434  1.0519 -0.9148 -0.0386
  291MOL0     H39244   9.169   7.974   6.263 -0.9771  3.0477  0.9935
  291MOL0     H39245   9.334   8.100   6.265  1.4271 -0.1155 -2.6496
  291MOL0     H39246   9.571   8.201   6.260  0.6388 -0.1090  1.2490
  291MOL0     H39247   9.977   8.262   6.497  0.1246 -0.9814 -0.5385
  291MOL0     H39248  10.173   8.413   6.475  0.7337 -0.9463  0.0703
  291MOL0     H39249  10.276   8.563   6.062  0.8630 -1.2595  1.8809
  291MOL0     H39250  10.238   8.727   6.127 -2.0085 -0.9442  1.1273
  291MOL0     H39251  10.441   8.722   6.276 -1.9797 -3.3245  1.6778
  291MOL0     H39252  10.474   8.570   6.214  0.8205 -0.1783  2.1406
  291MOL0     H39253  10.587   8.687   6.040  0.7700  1.9147 -3.0326
  291MOL0     H39254  10.430   8.714   5.969 -0.2318 -0.9294  0.3175
  291MOL0     H39255  10.587   8.904   6.140  1.2183  0.2380 -1.7410
  291MOL0     H39256  10.430   8.928   6.125  1.8539  2.8316  0.2416
  291MOL0     H39257  10.610   8.894   5.874 -1.9512 -3.0206 -0.0851
  291MOL0     H39258  10.554   9.050   5.952 -1.6305  0.8107  0.8797
  291MOL0     H39259  10.314   8.930   5.891 -2.8341  0.7495 -3.1206
  291MOL0     H39260  10.411   9.050   5.800  0.7310 -1.1330 -1.3944
  291MOL0     H39261  10.336   8.791   5.697 -0.2185  1.2584 -1.6478
  291MOL0     H39262  10.490   8.762   5.767  0.8730  1.3481  1.7151
  291MOL0     H39263  10.572   8.971   5.641  0.1902  0.0440  1.2229
  291MOL0     H39264  10.547   8.818   5.536  0.0992 -1.1607  1.0068
  291MOL0     H39265  10.023   8.535   6.082 -4.3840  1.0986  0.8480
  291MOL0     H39266   9.847   8.383   6.104  0.1440 -0.5123 -1.0279
  291MOL0     H39267   9.728   7.857   6.461  0.7437  0.0781 -2.2242
  291MOL0     H39268   9.475   7.757   6.460  0.8388 -0.2342  0.5763
  291MOL0     H39269   8.579   8.328   5.171  2.4614  1.3207  2.6222
  291MOL0     H39270   8.625   8.383   4.948 -4.2341 -1.1868 -3.4098
  291MOL0     H39271   8.565   8.450   4.603 -1.8505 -0.4538 -1.3506
  291MOL0     H39272   8.692   8.452   4.389 -1.3714 -0.5779 -0.2064
  291MOL0     H39273   8.879   8.722   4.330  1.5438  1.7213  0.1237
  291MOL0     H39274   8.817   8.869   4.261 -0.7002  0.5786 -1.6879
  291MOL0     H39275   8.862   8.792   4.033 -1.0144  0.9677  2.2276
  291MOL0     H39276   8.938   8.644   4.102  3.0740 -0.3157  0.0292
  291MOL0     H39277   9.110   8.786   4.232 -0.5281  1.3157  0.2391
  291MOL0     H39278   9.038   8.920   4.162  0.8158  0.3552  1.7595
  291MOL0     H39279   9.072   8.807   3.930 -0.3873 -0.3735  0.8509
  291MOL0     H39280   9.224   8.862   4.005 -2.2096  2.5120  0.0135
  291MOL0     H39281   9.267   8.442   4.034 -2.5284 -0.3933  1.0795
  291MOL0     H39282   8.574   8.871   4.332  1.4835  1.6783  1.7845
  291MOL0     H39283   8.364   8.938   4.446  1.3864  0.2782 -0.5457
  291MOL0     H39284   8.321   8.849   4.594  0.5276 -3.0523 -1.0352
  291MOL0     H39285   8.465   8.957   4.590 -0.3143 -0.4485 -0.9127
  292MOL0     O39286   9.345   1.763   8.809 -0.3792 -0.5125  0.2671
  292MOL0     C39287   9.248   1.787   8.881 -0.3540 -0.8139  0.0603
  292MOL0     O39288   9.225   1.731   9.006  0.3097 -0.0740 -0.2367
  292MOL0     C39289   9.311   1.645   9.062  0.0029  0.3747  0.8165
  292MOL0     C39290   9.359   1.537   8.989 -0.7066  0.4843  0.4717
  292MOL0     C39291   9.461   1.453   9.050  0.5170 -0.7222 -0.0238
  292MOL0     C39292   9.491   1.473   9.185 -0.4751 -0.3648 -0.3119
  292MOL0     O39293   9.591   1.409   9.258  0.2571  0.0337 -0.0604
  292MOL0     C39294   9.712   1.406   9.192 -0.6889  0.3982 -0.7959
  292MOL0     C39295   9.735   1.252   9.153 -0.1991  0.3334 -0.5223
  292MOL0     C39296   9.842   1.243   9.046 -0.1417 -0.7023 -0.4850
  292MOL0     C39297   9.857   1.100   8.990 -0.0331  0.1318  0.5015
  292MOL0     C39298   9.946   1.009   9.092  0.3661 -0.0486  0.8562
  292MOL0     C39299  10.089   1.042   9.074 -1.0689  0.8331  0.7993
  292MOL0     C39300  10.197   0.939   9.119  0.0668  0.7595 -0.3022
  292MOL0     C39301  10.169   0.798   9.066  0.0619  0.8045  0.8105
  292MOL0     N39302  10.156   0.798   8.916  0.2554 -1.2859 -0.0291
  292MOL0     C39303  10.259   0.832   8.838 -0.3180  0.7641  0.3141
  292MOL0     C39304  10.201   0.825   8.717 -1.1910  0.4343 -0.3625
  292MOL0     C39305  10.270   0.861   8.586 -0.2601 -0.2422 -0.2717
  292MOL0     C39306  10.235   1.018   8.558  0.7375 -0.4039  0.4966
  292MOL0     C39307  10.289   1.071   8.428 -0.5305  0.3471 -0.4047
  292MOL0     C39308  10.283   1.222   8.416 -0.8991 -0.6249 -0.5867
  292MOL0     O39309  10.144   1.258   8.399  0.0649  0.3461 -0.7392
  292MOL0     C39310  10.103   1.358   8.481  0.3391  0.1982 -0.4022
  292MOL0     C39311  10.028   1.324   8.593  0.7127 -0.5296 -0.6592
  292MOL0     C39312  10.000   1.428   8.688 -1.2467 -0.0456 -0.3523
  292MOL0     C39313  10.026   1.562   8.667 -0.6347 -0.1979 -0.0463
  292MOL0     C39314   9.996   1.658   8.770  0.0191 -0.6329  1.1115
  292MOL0     O39315   9.890   1.654   8.845  0.2608 -0.4221  0.2176
  292MOL0     C39316   9.853   1.763   8.921  1.1279  0.2413 -0.1064
  292MOL0     C39317   9.778   1.856   8.857  0.0250 -0.7607  0.9060
  292MOL0     C39318   9.724   1.973   8.914 -1.3131 -0.4780 -0.4208
  292MOL0     C39319   9.733   1.990   9.056 -0.1459 -0.7789  0.3361
  292MOL0     O39320   9.664   2.106   9.106  0.6446 -0.1974  0.3524
  292MOL0     C39321   9.657   2.131   9.245 -0.2059  0.4660 -0.2760
  292MOL0     C39322   9.598   2.266   9.273  0.4740 -0.4346 -1.1471
  292MOL0     C39323   9.466   2.297   9.199  0.0591  0.7173 -0.3669
  292MOL0     C39324   9.323   2.243   9.243  0.6631  0.2041  0.1055
  292MOL0     C39325   9.211   2.320   9.169  0.7112  0.6652 -0.7278
  292MOL0     C39326   9.062   2.304   9.224  0.1459 -0.5522 -0.0020
  292MOL0     C39327   8.972   2.348   9.108  1.3370 -0.3119 -0.6493
  292MOL0     C39328   8.834   2.362   9.165  0.2175 -0.4415  0.3228
  292MOL0    Cl39329   8.762   2.219   9.242 -0.3951 -0.0297  0.6159
  292MOL0     C39330   9.803   1.883   9.126  0.6025  1.0576  0.6882
  292MOL0     C39331   9.864   1.776   9.063 -0.4815  0.1680  0.6809
  292MOL0     O39332  10.082   1.747   8.772  0.1082  0.2650  0.2465
  292MOL0     C39333  10.090   1.589   8.543  0.3573 -0.1849  0.9317
  292MOL0     C39334  10.124   1.497   8.449  0.2628  0.4576  0.9001
  292MOL0     N39335  10.081   0.765   8.728  0.1831 -0.5504  0.4743
  292MOL0     N39336  10.047   0.762   8.851 -0.2507  0.1970  0.6257
  292MOL0     C39337   9.432   1.583   9.256 -1.2010 -0.5079 -0.1416
  292MOL0     C39338   9.344   1.672   9.193 -0.3964 -0.0816 -0.3307
  292MOL0     C39339   9.172   1.916   8.837  0.2945  0.5512  0.1152
  292MOL0     C39340   9.213   1.990   8.731 -0.2859  0.5667  0.2636
  292MOL0     C39341   9.122   2.087   8.669 -0.1794 -0.0411  0.3398
  292MOL0     C39342   9.009   2.130   8.735  0.1030  0.1761 -0.0031
  292MOL0     O39343   8.940   2.227   8.682 -0.4694 -0.5301 -0.1005
  292MOL0     C39344   8.806   2.268   8.722  0.6608 -0.0675  0.8889
  292MOL0     C39345   8.788   2.419   8.730  0.2462  0.2602 -1.3006
  292MOL0     C39346   8.638   2.453   8.737  0.4281 -0.1079  0.3847
  292MOL0     C39347   8.607   2.594   8.778  0.4551 -0.4540 -0.0669
  292MOL0     C39348   8.648   2.647   8.915  0.3041  0.6304  0.3070
  292MOL0     C39349   8.701   2.664   9.028  0.3950 -0.3566 -0.6031
  292MOL0     C39350   8.970   2.066   8.852 -0.7241  0.0073  0.7734
  292MOL0     C39351   9.048   1.950   8.895  0.1593 -0.2829  0.2514
  292MOL0     C39352   8.997   1.889   9.029 -0.8212 -0.0421  0.2655
  292MOL0     H39353   9.325   1.519   8.887  0.9559 -2.7874  0.3654
  292MOL0     H39354   9.524   1.388   8.990  3.0614 -0.5395  2.2524
  292MOL0     H39355   9.719   1.466   9.101 -0.0814 -0.9443 -1.6795
  292MOL0     H39356   9.792   1.444   9.256  1.1876  0.1776 -2.8972
  292MOL0     H39357   9.642   1.202   9.126  0.5496 -0.7303 -1.2156
  292MOL0     H39358   9.765   1.201   9.246  0.1221 -0.2405 -0.9302
  292MOL0     H39359   9.938   1.271   9.090 -0.2632 -2.7003  1.2436
  292MOL0     H39360   9.817   1.307   8.961 -0.5510 -1.9243 -1.3173
  292MOL0     H39361   9.756   1.063   8.966  0.2014 -1.0870  1.3093
  292MOL0     H39362   9.905   1.100   8.892  0.9221 -0.0645  0.9655
  292MOL0     H39363   9.916   1.021   9.197  0.3093 -0.7905  0.9275
  292MOL0     H39364   9.927   0.905   9.064  0.2729  0.9986 -3.7956
  292MOL0     H39365  10.117   1.068   8.971  1.2885 -3.2130  0.1778
  292MOL0     H39366  10.119   1.135   9.122  1.2737  1.6640 -1.9917
  292MOL0     H39367  10.190   0.927   9.228 -3.4843 -2.4767 -0.6840
  292MOL0     H39368  10.293   0.985   9.094  1.2840 -0.6537  1.5351
  292MOL0     H39369  10.261   0.741   9.082 -1.1634 -1.0697  1.5562
  292MOL0     H39370  10.081   0.752   9.112  0.0932  1.7045  1.8358
  292MOL0     H39371  10.357   0.868   8.868 -0.2158  1.5294 -0.8504
  292MOL0     H39372  10.377   0.841   8.596 -0.4035 -1.3148 -0.8332
  292MOL0     H39373  10.241   0.798   8.502  0.6982 -1.1155  0.0327
  292MOL0     H39374  10.127   1.035   8.562  0.7943 -0.2409  3.1834
  292MOL0     H39375  10.279   1.070   8.644  1.1795 -1.9931  1.2782
  292MOL0     H39376  10.236   1.018   8.349 -1.7028  0.0522  0.5439
  292MOL0     H39377  10.391   1.037   8.409  0.0788  1.6192  0.4319
  292MOL0     H39378  10.345   1.246   8.329 -0.0516 -0.3787  0.0752
  292MOL0     H39379  10.324   1.277   8.500  0.6289 -1.2241 -0.8934
  292MOL0     H39380   9.997   1.223   8.616 -1.0041  0.4712  1.9086
  292MOL0     H39381   9.947   1.402   8.780 -0.5007 -3.5792 -0.8005
  292MOL0     H39382   9.763   1.856   8.750  3.6087  3.1812  0.1160
  292MOL0     H39383   9.681   2.043   8.843  1.4171 -1.1715 -2.9860
  292MOL0     H39384   9.594   2.048   9.281  0.7440  0.5421  1.7170
  292MOL0     H39385   9.751   2.128   9.301 -1.6737  0.9755  2.4019
  292MOL0     H39386   9.568   2.267   9.378  0.5624 -3.2688 -1.0253
  292MOL0     H39387   9.669   2.344   9.244  1.5755  0.2811  2.9521
  292MOL0     H39388   9.460   2.406   9.187 -3.4636  0.4057 -2.8512
  292MOL0     H39389   9.489   2.280   9.093  1.6153 -0.3578  0.1003
  292MOL0     H39390   9.314   2.261   9.351  2.0468  0.8845  0.1253
  292MOL0     H39391   9.305   2.138   9.218 -1.0193  1.1665 -3.4350
  292MOL0     H39392   9.218   2.277   9.069  0.2120 -1.0900 -0.0585
  292MOL0     H39393   9.220   2.428   9.166  1.5161  0.6677  0.7968
  292MOL0     H39394   9.034   2.205   9.261 -3.5147  1.1255  2.2326
  292MOL0     H39395   9.057   2.371   9.310  2.1149 -1.1221  0.6162
  292MOL0     H39396   8.967   2.267   9.034  2.1281 -1.5364  0.5869
  292MOL0     H39397   8.999   2.442   9.060  0.2552 -0.2864 -1.2279
  292MOL0     H39398   8.819   2.445   9.235 -0.2173 -0.9732  0.8645
  292MOL0     H39399   8.774   2.388   9.077 -2.0742 -1.6420  1.4658
  292MOL0     H39400   9.794   1.881   9.234 -0.1756 -0.7110  0.6107
  292MOL0     H39401   9.914   1.696   9.116  1.0656 -0.0279 -0.9879
  292MOL0     H39402  10.117   1.692   8.521 -1.9559  0.3757  0.5019
  292MOL0     H39403  10.177   1.511   8.355 -0.2362  1.0891  0.7108
  292MOL0     H39404   9.454   1.600   9.361  1.8014 -1.5575 -0.4942
  292MOL0     H39405   9.311   1.763   9.242 -4.2528 -1.3947 -0.1603
  292MOL0     H39406   9.296   1.956   8.670 -1.1420 -0.6616 -0.2339
  292MOL0     H39407   9.151   2.134   8.576 -0.8239  1.1057  0.6967
  292MOL0     H39408   8.786   2.229   8.822  1.2532  2.3147  2.0184
  292MOL0     H39409   8.727   2.229   8.657 -0.0191  0.3741  1.4289
  292MOL0     H39410   8.841   2.458   8.642  0.9072 -1.7798 -1.8703
  292MOL0     H39411   8.840   2.448   8.822  1.5059 -3.8433 -0.4987
  292MOL0     H39412   8.583   2.396   8.812 -1.0359  0.1337 -0.4673
  292MOL0     H39413   8.585   2.435   8.643  1.1919 -0.2191 -0.0380
  292MOL0     H39414   8.647   2.669   8.709  3.9115  2.2358  4.3117
  292MOL0     H39415   8.498   2.597   8.768  0.5368  0.0129 -0.9953
  292MOL0     H39416   8.752   2.675   9.122 -0.7830  0.5524 -0.0486
  292MOL0     H39417   8.887   2.099   8.913  0.0336  0.6771  1.4782
  292MOL0     H39418   8.999   1.779   9.032  0.1597 -0.0563 -0.4249
  292MOL0     H39419   9.057   1.935   9.107 -0.4161  2.7446 -1.5545
  292MOL0     H39420   8.895   1.930   9.030 -0.0010  2.1619 -0.6578
  293MOL0     O39421  10.600   7.876   2.106 -0.2032 -0.5730 -0.2515
  293MOL0     C39422  10.608   7.759   2.156  0.4901 -0.0328  0.1758
  293MOL0     O39423  10.618   7.648   2.077 -0.1019  0.0321  0.4604
  293MOL0     C39424  10.600   7.649   1.935  0.2163 -0.6126  0.1766
  293MOL0     C39425  10.472   7.690   1.881 -0.5345  0.2311  0.5812
  293MOL0     C39426  10.461   7.699   1.743  0.0638 -0.0619  0.5704
  293MOL0     C39427  10.561   7.651   1.657  0.3471  0.0522 -0.6957
  293MOL0     O39428  10.522   7.658   1.522 -0.2626 -0.1586 -0.4316
  293MOL0     C39429  10.635   7.622   1.429  0.2412  0.8033 -0.4085
  293MOL0     C39430  10.568   7.564   1.302 -0.6834  0.0592 -0.9277
  293MOL0     C39431  10.564   7.409   1.287 -0.5875 -0.6060 -0.6078
  293MOL0     C39432  10.549   7.364   1.148 -0.2183  0.3810  0.8488
  293MOL0     C39433  10.504   7.215   1.149 -0.2260 -0.2037  0.2392
  293MOL0     C39434  10.357   7.201   1.167 -0.1964 -0.2201  0.4272
  293MOL0     C39435  10.309   7.059   1.198  0.2744  0.2200 -0.6888
  293MOL0     C39436  10.366   7.023   1.329 -0.1560 -0.0330 -0.0779
  293MOL0     N39437  10.314   7.106   1.443 -0.8109  0.7153  0.4224
  293MOL0     C39438  10.192   7.073   1.502 -0.6596  0.0554  1.3191
  293MOL0     C39439  10.173   7.173   1.587 -0.4429  0.3594  0.5730
  293MOL0     C39440  10.047   7.189   1.677 -0.1519 -0.4314  0.1226
  293MOL0     C39441  10.022   7.338   1.726 -1.0187  0.3939 -0.3167
  293MOL0     C39442   9.892   7.357   1.798 -0.5493 -0.1850  1.3087
  293MOL0     C39443   9.896   7.304   1.940 -0.4857  0.0071  0.4220
  293MOL0     O39444   9.764   7.331   1.996  0.1793  0.6372  0.0584
  293MOL0     C39445   9.721   7.256   2.103  0.0502  0.3986 -0.4211
  293MOL0     C39446   9.585   7.206   2.095 -1.3581 -0.1500  0.3664
  293MOL0     C39447   9.527   7.121   2.191 -1.1305  0.6868 -0.6422
  293MOL0     C39448   9.612   7.083   2.301  0.0558 -0.0068 -0.6196
  293MOL0     C39449   9.541   7.013   2.412  0.0788 -0.0069 -0.0809
  293MOL0     O39450   9.412   6.950   2.388  0.0145  0.0294 -0.4035
  293MOL0     C39451   9.341   6.881   2.490  0.1576  0.4780  0.5881
  293MOL0     C39452   9.335   6.747   2.485 -0.5279 -0.3903  0.3389
  293MOL0     C39453   9.269   6.674   2.582  1.2545  0.5338  0.0619
  293MOL0     C39454   9.199   6.738   2.689 -0.6551  0.0152  0.7437
  293MOL0     O39455   9.116   6.660   2.756 -0.2832 -0.2841 -0.0687
  293MOL0     C39456   9.051   6.723   2.870  0.6874 -0.2953 -0.5474
  293MOL0     C39457   8.954   6.628   2.922 -0.5570  0.5221  0.2343
  293MOL0     C39458   8.864   6.683   3.024 -0.9539  0.4990 -0.1168
  293MOL0     C39459   8.930   6.734   3.152  0.4553 -0.3874 -1.0743
  293MOL0     C39460   8.816   6.778   3.248 -0.4202  0.2479  0.0241
  293MOL0     C39461   8.752   6.668   3.333 -0.0347 -0.1471 -0.4047
  293MOL0     C39462   8.645   6.704   3.430  0.5466 -0.5525  0.1496
  293MOL0     C39463   8.675   6.780   3.550 -0.2372 -0.1568 -0.6471
  293MOL0    Cl39464   8.523   6.818   3.641 -0.0561  0.3888 -0.6021
  293MOL0     C39465   9.203   6.883   2.689  0.6677 -0.3394  0.7676
  293MOL0     C39466   9.279   6.949   2.589  0.1678  0.2989 -0.2581
  293MOL0     O39467   9.595   7.019   2.524  0.3553  0.1041  0.2256
  293MOL0     C39468   9.744   7.122   2.316  0.0890 -0.0180  0.7454
  293MOL0     C39469   9.801   7.209   2.213 -0.3069  0.0516  0.8651
  293MOL0     N39470  10.280   7.256   1.583  0.2231 -0.3977  0.0898
  293MOL0     N39471  10.371   7.212   1.497 -0.0356  0.7139 -0.6082
  293MOL0     C39472  10.688   7.624   1.713  0.3346  1.0259 -0.4658
  293MOL0     C39473  10.702   7.609   1.850 -0.2789 -1.0408  0.5990
  293MOL0     C39474  10.600   7.757   2.312 -0.1142 -0.8639 -0.5244
  293MOL0     C39475  10.528   7.646   2.359 -0.6892  0.0952 -0.4245
  293MOL0     C39476  10.502   7.650   2.491  0.6846  0.8473 -0.3405
  293MOL0     C39477  10.554   7.730   2.583  0.4201 -0.1116 -0.1195
  293MOL0     O39478  10.512   7.733   2.716  0.2321 -0.4485 -0.3907
  293MOL0     C39479  10.418   7.645   2.772 -0.4829  0.6656  1.1709
  293MOL0     C39480  10.387   7.671   2.920 -0.8083  0.6182 -0.2580
  293MOL0     C39481  10.510   7.708   3.008 -0.8021  0.3835 -0.1050
  293MOL0     C39482  10.613   7.590   3.009  0.6508 -0.4590  0.0247
  293MOL0     C39483  10.739   7.655   3.055  1.4380 -0.3101 -0.4279
  293MOL0     C39484  10.827   7.718   3.107  0.1709  0.3240 -0.1504
  293MOL0     C39485  10.646   7.822   2.536  0.1001 -0.5931  0.6739
  293MOL0     C39486  10.661   7.845   2.400  0.1119  1.0021 -1.1751
  293MOL0     C39487  10.741   7.968   2.372 -0.0537 -0.7652 -0.2555
  293MOL0     H39488  10.393   7.708   1.953  0.9982  3.6803  1.6230
  293MOL0     H39489  10.376   7.745   1.694 -1.2604 -3.2414 -0.3995
  293MOL0     H39490  10.696   7.710   1.407  1.1290  0.8079  1.8321
  293MOL0     H39491  10.714   7.551   1.455 -0.0180  0.0474 -1.5653
  293MOL0     H39492  10.621   7.607   1.216 -0.6609 -1.0948 -1.5182
  293MOL0     H39493  10.468   7.607   1.296 -1.3217 -0.6992  2.4809
  293MOL0     H39494  10.479   7.373   1.345 -0.4102  0.2609  0.2229
  293MOL0     H39495  10.652   7.370   1.340 -0.3600  2.3955  1.5044
  293MOL0     H39496  10.469   7.421   1.101  0.7260  0.5027 -0.6775
  293MOL0     H39497  10.638   7.368   1.085 -1.0472  1.3001 -0.2921
  293MOL0     H39498  10.530   7.156   1.061 -0.7755 -0.6169  0.3463
  293MOL0     H39499  10.566   7.173   1.229 -0.3342 -1.8622 -0.4880
  293MOL0     H39500  10.314   7.263   1.246 -2.2059 -1.3253  0.2749
  293MOL0     H39501  10.300   7.237   1.080 -2.9401 -0.8668  1.8389
  293MOL0     H39502  10.343   6.984   1.127 -0.3766  2.3390 -3.4364
  293MOL0     H39503  10.200   7.050   1.211  0.3422 -1.6750 -1.1836
  293MOL0     H39504  10.332   6.922   1.353 -0.3325 -0.5636 -2.3345
  293MOL0     H39505  10.475   7.028   1.333 -0.0726 -1.5335  0.1051
  293MOL0     H39506  10.126   6.991   1.476 -0.7199  0.2745  0.7879
  293MOL0     H39507   9.959   7.156   1.621 -1.2197  2.0530  0.1807
  293MOL0     H39508  10.049   7.123   1.763  0.6996 -1.9287 -0.9989
  293MOL0     H39509  10.104   7.373   1.790 -2.1000  1.4533  0.5282
  293MOL0     H39510  10.028   7.387   1.629 -0.0395 -1.7291 -1.4134
  293MOL0     H39511   9.816   7.318   1.730  1.2993  1.3240 -1.8317
  293MOL0     H39512   9.865   7.463   1.795  2.3467  0.6515  1.0941
  293MOL0     H39513   9.972   7.359   1.996 -3.2954  0.0509  4.6813
  293MOL0     H39514   9.923   7.198   1.936  1.7114  0.4839  1.1448
  293MOL0     H39515   9.530   7.227   2.004 -0.8724 -2.6429 -0.5940
  293MOL0     H39516   9.423   7.099   2.167 -1.3704  1.1714 -0.0530
  293MOL0     H39517   9.388   6.690   2.408  0.4874  2.1838 -0.9899
  293MOL0     H39518   9.263   6.566   2.569  1.5069  0.2355  2.1357
  293MOL0     H39519   9.118   6.746   2.953  1.8027  1.2463 -1.8051
  293MOL0     H39520   8.998   6.813   2.836 -2.1884 -0.4556  3.0163
  293MOL0     H39521   8.891   6.601   2.837 -0.3864 -0.4138  0.3891
  293MOL0     H39522   8.982   6.532   2.969 -2.1410 -0.3665 -0.5740
  293MOL0     H39523   8.804   6.765   2.983 -2.4840 -0.1928  0.6414
  293MOL0     H39524   8.786   6.609   3.043  0.4335 -2.0786 -3.4240
  293MOL0     H39525   8.990   6.824   3.135  0.4922  0.0715  1.0940
  293MOL0     H39526   8.998   6.663   3.201  1.1054  0.9873  0.0992
  293MOL0     H39527   8.739   6.822   3.184 -2.4158 -2.6184  0.2608
  293MOL0     H39528   8.841   6.854   3.322 -1.7622 -2.4765  3.5983
  293MOL0     H39529   8.736   6.588   3.260  0.9050  0.4618 -1.3158
  293MOL0     H39530   8.825   6.605   3.386 -2.4193 -2.6174  0.2068
  293MOL0     H39531   8.608   6.604   3.456 -2.5932 -0.2178 -2.4666
  293MOL0     H39532   8.570   6.753   3.368 -2.0553 -1.8529  2.0882
  293MOL0     H39533   8.731   6.715   3.618 -3.2306 -1.8811  0.3735
  293MOL0     H39534   8.731   6.872   3.532  1.4360 -0.9616  0.1557
  293MOL0     H39535   9.154   6.939   2.768 -3.8121  0.2943 -2.1144
  293MOL0     H39536   9.306   7.054   2.603 -0.8312  0.2173  3.4571
  293MOL0     H39537   9.794   7.084   2.405 -3.4374 -0.6664  2.6811
  293MOL0     H39538   9.906   7.233   2.222  0.2068 -1.5824 -0.2532
  293MOL0     H39539  10.772   7.593   1.652 -1.2914 -1.0398 -1.7922
  293MOL0     H39540  10.799   7.579   1.891  1.5203  0.6152 -2.1518
  293MOL0     H39541  10.491   7.579   2.283 -1.6533  2.0741 -1.7748
  293MOL0     H39542  10.452   7.557   2.517 -0.7298  1.9399  0.9853
  293MOL0     H39543  10.455   7.544   2.754 -0.3473  0.6173  1.7110
  293MOL0     H39544  10.329   7.653   2.707  0.8414  4.2423 -0.5128
  293MOL0     H39545  10.327   7.594   2.969  1.1037 -0.0365  1.1758
  293MOL0     H39546  10.313   7.751   2.934 -1.4787 -0.0008 -0.2086
  293MOL0     H39547  10.464   7.728   3.105  1.4258  0.2206  1.0478
  293MOL0     H39548  10.565   7.800   2.986 -0.6763  0.0911 -1.0508
  293MOL0     H39549  10.572   7.512   3.074 -2.3142  1.2644  0.3920
  293MOL0     H39550  10.639   7.550   2.910  0.2928  1.8225 -1.0493
  293MOL0     H39551  10.913   7.772   3.140 -0.0642  2.4523 -2.6774
  293MOL0     H39552  10.697   7.889   2.604  0.1553 -0.9031  0.9366
  293MOL0     H39553  10.829   7.939   2.313  1.5246 -0.2264  1.7477
  293MOL0     H39554  10.679   8.031   2.307  1.0081  1.0958  0.4913
  293MOL0     H39555  10.769   8.026   2.459 -0.6479  3.5623 -2.6754
  294MOL0     O39556   6.248   2.988   1.916 -0.8715  0.4730  0.6123
  294MOL0     C39557   6.194   3.062   1.825  0.2946  0.9138  0.1360
  294MOL0     O39558   6.255   3.083   1.699  0.0981 -0.3636  0.5588
  294MOL0     C39559   6.387   3.046   1.683  0.5384 -0.2862  0.1613
  294MOL0     C39560   6.417   3.003   1.551 -0.3835  0.3373 -0.1956
  294MOL0     C39561   6.550   2.979   1.520 -0.4672  0.0152 -0.1590
  294MOL0     C39562   6.658   3.004   1.610 -0.3641 -0.6986  0.4645
  294MOL0     O39563   6.792   2.986   1.569  0.4611  0.0082  0.3940
  294MOL0     C39564   6.910   3.050   1.617  0.1310 -0.6464 -0.0395
  294MOL0     C39565   7.019   3.016   1.525 -0.3031  0.0839  0.4625
  294MOL0     C39566   7.148   3.091   1.559  0.3325 -0.5832 -0.4409
  294MOL0     C39567   7.266   3.061   1.464  0.5381  1.2542 -0.5942
  294MOL0     C39568   7.255   3.141   1.328 -0.1016  0.2817 -0.0957
  294MOL0     C39569   7.227   3.291   1.354 -0.0157 -0.0453  0.4712
  294MOL0     C39570   7.212   3.367   1.225 -1.0419  0.0246 -0.1652
  294MOL0     C39571   7.345   3.394   1.141 -0.4557  0.0989  0.5793
  294MOL0     N39572   7.325   3.469   1.013 -0.0570  0.5844 -0.4475
  294MOL0     C39573   7.243   3.438   0.911 -0.2805  0.1664  0.2658
  294MOL0     C39574   7.262   3.547   0.831  0.4193  0.0510  0.9976
  294MOL0     C39575   7.184   3.558   0.695 -0.0578  0.0586  0.3900
  294MOL0     C39576   7.231   3.665   0.600  0.0312  0.8338 -0.7049
  294MOL0     C39577   7.221   3.623   0.450 -0.3318  0.0688  0.3146
  294MOL0     C39578   7.270   3.723   0.339  0.0502  0.4398 -0.0656
  294MOL0     O39579   7.324   3.648   0.236 -0.1122 -1.0863  0.0939
  294MOL0     C39580   7.398   3.713   0.140  0.1133  0.1771  0.0796
  294MOL0     C39581   7.408   3.645   0.014 -0.0396 -0.2998 -0.3522
  294MOL0     C39582   7.484   3.696  -0.085 -0.4486  0.0303 -0.1686
  294MOL0     C39583   7.551   3.827  -0.073 -0.1708  0.4398 -0.8989
  294MOL0     C39584   7.634   3.874  -0.180  0.5740  0.3991 -1.2110
  294MOL0     O39585   7.755   3.928  -0.139  0.3188  0.1512  0.0507
  294MOL0     C39586   7.852   3.959  -0.233 -0.0600 -0.7919  0.2615
  294MOL0     C39587   7.909   3.865  -0.317 -0.1823  0.7070 -0.3254
  294MOL0     C39588   8.033   3.896  -0.377  0.1784 -0.1139 -0.0299
  294MOL0     C39589   8.085   4.026  -0.370  0.4765 -0.1473 -0.1821
  294MOL0     O39590   8.210   4.040  -0.422  0.2809  0.0320  0.3118
  294MOL0     C39591   8.269   4.168  -0.434  0.0475  0.2898 -0.3846
  294MOL0     C39592   8.401   4.163  -0.514 -0.8072  1.0470  0.6363
  294MOL0     C39593   8.504   4.058  -0.454 -0.7158  0.2199 -0.1362
  294MOL0     C39594   8.642   4.107  -0.481  0.2246  0.4101  0.1662
  294MOL0     C39595   8.750   4.001  -0.448  0.5033  0.1596  0.3270
  294MOL0     C39596   8.888   4.058  -0.475  0.6996  0.7548 -0.1933
  294MOL0     C39597   8.987   3.947  -0.439 -0.0590  0.0957  1.4386
  294MOL0     C39598   9.134   4.003  -0.413  0.3403  0.0766  0.0667
  294MOL0    Cl39599   9.249   3.871  -0.382  0.5069  0.0878  0.3988
  294MOL0     C39600   8.025   4.116  -0.294  1.5412 -1.3300 -0.0266
  294MOL0     C39601   7.907   4.083  -0.229 -0.0403  0.1882  0.3720
  294MOL0     O39602   7.596   3.850  -0.290  0.0454 -1.5258 -0.3072
  294MOL0     C39603   7.536   3.899   0.051  0.2158  0.7999  0.4094
  294MOL0     C39604   7.459   3.841   0.148  0.4862 -0.3365  0.0414
  294MOL0     N39605   7.362   3.627   0.879  0.2332 -0.4592  0.6158
  294MOL0     N39606   7.399   3.579   0.991  0.4427  0.5872  1.1169
  294MOL0     C39607   6.632   3.054   1.742 -0.2830 -0.4919 -0.1097
  294MOL0     C39608   6.497   3.081   1.771 -0.0315 -0.0186  0.5032
  294MOL0     C39609   6.047   3.088   1.833 -0.0780 -0.6335  1.0904
  294MOL0     C39610   5.988   3.131   1.717  0.2194  1.0582  0.6170
  294MOL0     C39611   5.847   3.164   1.709  0.2847 -0.0337  0.0509
  294MOL0     C39612   5.768   3.157   1.821 -0.3923  0.2730 -0.1861
  294MOL0     O39613   5.639   3.188   1.839  0.1070 -0.2374  0.3478
  294MOL0     C39614   5.564   3.236   1.731  0.0428  0.5662 -0.1795
  294MOL0     C39615   5.417   3.196   1.744  0.0426 -0.1151  0.1662
  294MOL0     C39616   5.345   3.236   1.870 -0.3075  0.3796  0.6432
  294MOL0     C39617   5.198   3.184   1.880 -0.4239 -0.0812  0.8282
  294MOL0     C39618   5.117   3.249   1.983 -1.1208 -0.0656  0.0957
  294MOL0     C39619   5.030   3.284   2.062 -0.1762 -0.6829  1.3091
  294MOL0     C39620   5.828   3.106   1.940 -0.1739 -1.2878  0.4449
  294MOL0     C39621   5.969   3.066   1.939  0.2653  0.3450 -0.8169
  294MOL0     C39622   6.017   3.013   2.069 -0.2535 -0.4349 -0.3019
  294MOL0     H39623   6.335   2.997   1.479 -2.2831 -0.5712  1.9174
  294MOL0     H39624   6.567   2.943   1.419 -0.2359  1.3582 -0.6209
  294MOL0     H39625   6.892   3.158   1.610 -1.2323 -0.7860  0.8233
  294MOL0     H39626   6.926   3.030   1.724 -0.4694  3.1081  0.9144
  294MOL0     H39627   6.992   3.051   1.425 -3.9661 -3.1389  0.0928
  294MOL0     H39628   7.053   2.912   1.528  3.9188  1.2633 -0.2857
  294MOL0     H39629   7.188   3.050   1.652  0.7810 -0.7045 -0.6842
  294MOL0     H39630   7.118   3.194   1.577  0.8135 -0.0362 -2.5355
  294MOL0     H39631   7.360   3.084   1.514  1.9153  0.6357 -2.8063
  294MOL0     H39632   7.260   2.953   1.445 -1.6428  0.9696  1.1976
  294MOL0     H39633   7.353   3.117   1.285 -0.1362 -1.4814  0.7391
  294MOL0     H39634   7.179   3.095   1.264 -0.8580  2.7617 -1.1043
  294MOL0     H39635   7.132   3.297   1.408  0.5141 -0.9425  1.5427
  294MOL0     H39636   7.304   3.336   1.418  0.0504 -2.1630  1.9907
  294MOL0     H39637   7.178   3.466   1.256 -1.3386 -0.2805  0.5158
  294MOL0     H39638   7.144   3.328   1.149 -1.0971  2.0911 -1.2485
  294MOL0     H39639   7.414   3.462   1.190  2.6142 -0.3844 -2.6489
  294MOL0     H39640   7.394   3.301   1.110  1.0990  1.8574 -2.7621
  294MOL0     H39641   7.179   3.350   0.905  2.3633 -1.8153 -0.8469
  294MOL0     H39642   7.200   3.460   0.648 -0.1311  0.9239 -1.5362
  294MOL0     H39643   7.079   3.577   0.717  0.0328  0.0297  0.8557
  294MOL0     H39644   7.170   3.755   0.610  0.9819  1.5337 -1.0131
  294MOL0     H39645   7.338   3.684   0.616 -0.0258 -0.8500  2.5495
  294MOL0     H39646   7.119   3.595   0.421  0.0089 -4.0899  2.3607
  294MOL0     H39647   7.273   3.527   0.441 -1.3431 -0.5507  0.9420
  294MOL0     H39648   7.344   3.791   0.382 -0.8469  3.4428 -2.9200
  294MOL0     H39649   7.185   3.783   0.307  0.0722 -1.2602 -3.8199
  294MOL0     H39650   7.372   3.544  -0.007 -0.0983  0.2371 -3.2897
  294MOL0     H39651   7.486   3.632  -0.172 -0.0737 -0.2000  0.0039
  294MOL0     H39652   7.858   3.770  -0.319 -0.6000  0.8713  1.2654
  294MOL0     H39653   8.085   3.822  -0.436 -0.8552  0.2982 -1.5226
  294MOL0     H39654   8.201   4.233  -0.490 -1.1850 -1.5566 -1.1455
  294MOL0     H39655   8.294   4.217  -0.340 -1.9981  4.2169 -1.6566
  294MOL0     H39656   8.376   4.133  -0.616 -1.8059  4.0180 -0.0933
  294MOL0     H39657   8.459   4.255  -0.526  1.7005 -0.6617 -1.5533
  294MOL0     H39658   8.490   4.037  -0.348  0.5677 -2.2034 -0.3739
  294MOL0     H39659   8.500   3.957  -0.497 -2.2833 -1.4240  3.4379
  294MOL0     H39660   8.664   4.194  -0.419  1.0607  0.2977  0.0376
  294MOL0     H39661   8.656   4.139  -0.585 -0.7705  3.3144  0.8500
  294MOL0     H39662   8.740   3.919  -0.520 -0.2407 -0.5355  1.1874
  294MOL0     H39663   8.743   3.960  -0.347  1.2638 -2.3499 -0.5839
  294MOL0     H39664   8.888   4.082  -0.582 -0.1372  5.5810  0.6894
  294MOL0     H39665   8.906   4.146  -0.412 -1.1238 -0.8731  2.8514
  294MOL0     H39666   8.994   3.875  -0.521 -1.3313  1.4859  0.0513
  294MOL0     H39667   8.956   3.907  -0.342  1.2622 -1.3500  1.3098
  294MOL0     H39668   9.148   4.049  -0.511 -3.2306 -3.6551 -2.5232
  294MOL0     H39669   9.136   4.078  -0.333  0.0160 -1.2761  1.3929
  294MOL0     H39670   8.069   4.214  -0.281  0.0817 -0.8355  1.6212
  294MOL0     H39671   7.848   4.152  -0.169  0.2255  0.2591  0.5567
  294MOL0     H39672   7.580   3.998   0.067 -0.6016  0.9972  1.5898
  294MOL0     H39673   7.445   3.909   0.231 -1.1639  1.5656 -1.7176
  294MOL0     H39674   6.701   3.053   1.825  0.4623 -3.2479 -0.6651
  294MOL0     H39675   6.482   3.141   1.860  2.6364  0.8042  0.4810
  294MOL0     H39676   6.040   3.144   1.623 -3.6343  0.3182 -1.8254
  294MOL0     H39677   5.792   3.191   1.620  0.2365  0.6243  0.2703
  294MOL0     H39678   5.588   3.175   1.643  1.4753 -0.7970  1.1048
  294MOL0     H39679   5.583   3.339   1.702  2.8409 -0.6816 -3.5001
  294MOL0     H39680   5.409   3.088   1.738  1.6532 -0.2193 -0.7751
  294MOL0     H39681   5.359   3.235   1.660 -0.3891 -2.1723 -0.5240
  294MOL0     H39682   5.348   3.345   1.879  1.5368  0.8143 -3.3417
  294MOL0     H39683   5.403   3.197   1.955  0.4863 -0.2210 -0.1523
  294MOL0     H39684   5.149   3.200   1.784 -1.4872 -1.5790  1.0965
  294MOL0     H39685   5.196   3.079   1.910 -2.0000 -0.8502 -1.7045
  294MOL0     H39686   4.945   3.323   2.114 -0.0514 -0.1680  1.1374
  294MOL0     H39687   5.765   3.086   2.026 -0.0798 -4.4544 -0.0953
  294MOL0     H39688   6.088   3.085   2.111 -0.4876  0.7481 -1.8564
  294MOL0     H39689   5.931   3.010   2.137 -2.4879 -0.3969 -2.9574
  294MOL0     H39690   6.059   2.914   2.048  1.7531  0.7805 -2.5492
  295MOL0     O39691   4.386   1.133   6.656 -0.1495 -0.2183 -0.7960
  295MOL0     C39692   4.452   1.101   6.760 -0.2441  0.2112 -0.4760
  295MOL0     O39693   4.552   1.170   6.815 -0.1307  0.0338 -0.5961
  295MOL0     C39694   4.606   1.270   6.738 -0.4466 -0.7214  0.5875
  295MOL0     C39695   4.580   1.409   6.762 -0.0251  0.0066 -0.5804
  295MOL0     C39696   4.656   1.507   6.681 -0.2457 -0.4690 -0.3314
  295MOL0     C39697   4.743   1.461   6.576 -0.4839 -0.0549 -0.4149
  295MOL0     O39698   4.832   1.531   6.497  0.6143  0.6167 -0.2743
  295MOL0     C39699   4.844   1.670   6.497  0.6402  0.4683 -0.2308
  295MOL0     C39700   4.966   1.718   6.428  0.0426 -0.0515 -0.1210
  295MOL0     C39701   5.071   1.617   6.447  0.6036  0.2367  0.4843
  295MOL0     C39702   5.202   1.673   6.406  0.9719  0.0430  1.0647
  295MOL0     C39703   5.325   1.595   6.464 -0.6656  0.9687 -0.4584
  295MOL0     C39704   5.450   1.655   6.411 -0.4667 -0.6432  0.5729
  295MOL0     C39705   5.499   1.783   6.489  0.2594 -0.4359  0.3648
  295MOL0     C39706   5.646   1.805   6.464 -0.3189  1.1167 -0.1581
  295MOL0     N39707   5.698   1.808   6.327  0.3884 -0.3552 -0.1795
  295MOL0     C39708   5.748   1.703   6.261  0.6301 -0.7092  0.3695
  295MOL0     C39709   5.799   1.763   6.153  0.4020  0.3707 -0.4745
  295MOL0     C39710   5.881   1.707   6.041  0.4126 -0.0835 -0.9729
  295MOL0     C39711   6.023   1.714   6.088 -0.4729  0.8790  0.4138
  295MOL0     C39712   6.116   1.644   5.993  0.0728 -0.2953 -0.3728
  295MOL0     C39713   6.261   1.669   6.020 -0.2209  0.1716 -0.1089
  295MOL0     O39714   6.344   1.570   5.950  0.4725 -0.3091  0.5065
  295MOL0     C39715   6.469   1.606   5.899  0.4234  0.5229  0.2493
  295MOL0     C39716   6.550   1.713   5.933  0.0907 -0.3354 -0.4600
  295MOL0     C39717   6.674   1.725   5.873 -0.0152  0.0829  0.0303
  295MOL0     C39718   6.731   1.628   5.790  0.1785  0.1183  0.7357
  295MOL0     C39719   6.866   1.639   5.720 -0.1313  0.2723 -0.3813
  295MOL0     O39720   6.969   1.682   5.794  0.4281  0.5155 -1.1437
  295MOL0     C39721   7.096   1.689   5.745 -1.0675 -0.0679  0.0941
  295MOL0     C39722   7.183   1.607   5.807  0.3610  0.8751 -0.6221
  295MOL0     C39723   7.311   1.590   5.755  0.8388  0.3395  0.9472
  295MOL0     C39724   7.357   1.659   5.646 -0.1890  0.5001 -0.0140
  295MOL0     O39725   7.483   1.652   5.605 -0.0929  0.9157 -0.6008
  295MOL0     C39726   7.580   1.732   5.672  0.1765 -0.2061  0.4667
  295MOL0     C39727   7.668   1.776   5.554 -0.8997 -0.0826  0.2931
  295MOL0     C39728   7.798   1.838   5.613 -0.4995 -0.2364  0.2507
  295MOL0     C39729   7.902   1.876   5.502 -0.3217  0.3434  0.3879
  295MOL0     C39730   8.026   1.930   5.572  0.4497 -0.2878 -0.9143
  295MOL0     C39731   8.126   1.980   5.466  0.4283  0.5492  0.3655
  295MOL0     C39732   8.227   2.084   5.529  0.5621  0.3179  0.0730
  295MOL0     C39733   8.329   2.110   5.430 -0.4525 -0.3129  0.0578
  295MOL0    Cl39734   8.285   2.161   5.260  0.3002  0.0071 -0.1209
  295MOL0     C39735   7.270   1.737   5.582  0.0840 -1.0032  0.0087
  295MOL0     C39736   7.138   1.761   5.629  0.0270 -0.0669 -0.3161
  295MOL0     O39737   6.872   1.607   5.597 -1.0325 -0.3483 -0.4908
  295MOL0     C39738   6.653   1.520   5.761  0.1964  0.7149  0.7423
  295MOL0     C39739   6.521   1.513   5.809  0.4301  0.5696  0.4271
  295MOL0     N39740   5.779   1.897   6.158 -0.6321  0.4080  0.0088
  295MOL0     N39741   5.718   1.926   6.262 -0.0990 -0.2022 -0.3732
  295MOL0     C39742   4.763   1.330   6.557 -0.3418  0.5476 -1.1895
  295MOL0     C39743   4.700   1.237   6.645  0.6535 -0.1169  0.6027
  295MOL0     C39744   4.399   0.997   6.849  0.0305  0.3597 -0.0566
  295MOL0     C39745   4.488   0.930   6.933 -0.6042  0.1409  0.1874
  295MOL0     C39746   4.436   0.841   7.031  0.2519 -0.3992 -0.2101
  295MOL0     C39747   4.301   0.821   7.042 -0.1575 -0.0714  0.0635
  295MOL0     O39748   4.276   0.748   7.160  0.0151 -0.3573  0.1437
  295MOL0     C39749   4.145   0.690   7.160  0.7521  0.4116 -0.0990
  295MOL0     C39750   4.059   0.757   7.268  0.5431 -0.4233  0.0289
  295MOL0     C39751   3.918   0.691   7.273  0.6793  0.4342 -1.0879
  295MOL0     C39752   3.925   0.548   7.326  0.5708 -0.2845 -0.2352
  295MOL0     C39753   3.798   0.479   7.331 -0.0510  0.1409 -0.5770
  295MOL0     C39754   3.686   0.428   7.337 -0.4310 -0.9868 -0.3388
  295MOL0     C39755   4.215   0.884   6.952 -0.3079  0.8181  0.0197
  295MOL0     C39756   4.258   0.972   6.852 -0.4013  0.9388  0.3826
  295MOL0     C39757   4.149   1.037   6.773  0.1119  0.7094 -0.7538
  295MOL0     H39758   4.508   1.442   6.836  0.1317 -1.3822  0.2168
  295MOL0     H39759   4.660   1.614   6.701  1.3919 -0.5368 -0.1418
  295MOL0     H39760   4.753   1.712   6.453 -0.2061  0.2240  1.2278
  295MOL0     H39761   4.851   1.717   6.596 -2.1202  0.1462  0.2038
  295MOL0     H39762   5.001   1.812   6.473  1.1406 -1.8636  3.1131
  295MOL0     H39763   4.945   1.735   6.322 -1.1107 -1.1245 -0.0911
  295MOL0     H39764   5.049   1.528   6.386  0.5115  1.9955 -2.2117
  295MOL0     H39765   5.076   1.584   6.551 -0.9025 -0.8851  0.2315
  295MOL0     H39766   5.201   1.679   6.297  1.7138  0.9600  1.0894
  295MOL0     H39767   5.217   1.777   6.437  0.1966  0.9778 -1.4753
  295MOL0     H39768   5.318   1.581   6.572  1.0048 -2.3506 -0.6309
  295MOL0     H39769   5.315   1.490   6.435  1.2720  0.2984  1.0553
  295MOL0     H39770   5.513   1.569   6.435  0.6407  0.5507  2.1809
  295MOL0     H39771   5.450   1.680   6.305 -0.5667 -1.3484  0.4005
  295MOL0     H39772   5.475   1.771   6.595 -1.0851  2.7862  0.5378
  295MOL0     H39773   5.442   1.867   6.448 -0.0703 -0.4349  0.8195
  295MOL0     H39774   5.672   1.901   6.510 -3.1231  0.6622  2.8126
  295MOL0     H39775   5.711   1.736   6.518  1.6270  2.3912 -0.7799
  295MOL0     H39776   5.776   1.603   6.293 -0.5590 -2.1688 -2.7511
  295MOL0     H39777   5.838   1.609   6.015 -0.0625  0.1734 -1.1750
  295MOL0     H39778   5.858   1.773   5.956  1.8361  1.6047 -0.1083
  295MOL0     H39779   6.054   1.817   6.102 -2.5694  1.6254 -0.0788
  295MOL0     H39780   6.020   1.663   6.185 -1.9327 -1.5157 -0.7709
  295MOL0     H39781   6.098   1.695   5.898  1.3691  0.7819 -0.0664
  295MOL0     H39782   6.105   1.535   5.989  0.9007 -0.5256  2.1288
  295MOL0     H39783   6.286   1.651   6.125  1.0412 -1.3380 -0.6195
  295MOL0     H39784   6.287   1.770   5.988 -0.9937 -0.6328 -3.7710
  295MOL0     H39785   6.520   1.801   5.990 -1.1554  1.0400 -3.0591
  295MOL0     H39786   6.735   1.811   5.895 -0.0667  0.3392 -0.7914
  295MOL0     H39787   7.148   1.555   5.896 -2.6430  1.0620 -1.5846
  295MOL0     H39788   7.385   1.525   5.800 -0.7249 -2.1380  0.1418
  295MOL0     H39789   7.531   1.817   5.720  1.3793  1.4788 -1.1439
  295MOL0     H39790   7.644   1.671   5.737 -0.4828 -0.8003  0.5675
  295MOL0     H39791   7.696   1.694   5.487  0.3854  0.0834  0.5855
  295MOL0     H39792   7.611   1.855   5.506  0.3772  1.8922  1.8532
  295MOL0     H39793   7.766   1.927   5.668 -1.3115 -0.5724  0.3455
  295MOL0     H39794   7.839   1.772   5.690  0.7703  1.8457  1.4622
  295MOL0     H39795   7.864   1.950   5.430 -3.5722 -2.3360 -0.9270
  295MOL0     H39796   7.926   1.788   5.441  0.9004 -0.0267  1.3687
  295MOL0     H39797   8.062   1.851   5.639  0.7838  0.6299  0.0022
  295MOL0     H39798   8.006   2.016   5.636 -3.6263 -0.9473 -1.0492
  295MOL0     H39799   8.177   1.890   5.430 -1.3207  0.4139 -1.9817
  295MOL0     H39800   8.067   2.040   5.397  0.1096  1.7603  1.6436
  295MOL0     H39801   8.274   2.040   5.618  0.1494 -1.4988 -0.5645
  295MOL0     H39802   8.176   2.177   5.555 -1.6278 -0.4815 -1.1396
  295MOL0     H39803   8.390   2.190   5.471 -1.1001  3.4704 -5.2737
  295MOL0     H39804   8.388   2.018   5.422 -0.5141 -0.6209  2.3589
  295MOL0     H39805   7.292   1.800   5.497 -2.5865  0.9097  0.6148
  295MOL0     H39806   7.069   1.821   5.571  1.1992 -1.8983 -3.9557
  295MOL0     H39807   6.682   1.440   5.693 -2.0128 -1.8588  2.5772
  295MOL0     H39808   6.455   1.434   5.774 -0.0758  1.6954 -1.2847
  295MOL0     H39809   4.828   1.293   6.478 -0.4398  0.4695 -1.2346
  295MOL0     H39810   4.722   1.131   6.639 -1.7080 -0.7264  1.7545
  295MOL0     H39811   4.593   0.956   6.930 -0.6785  0.3297 -1.2396
  295MOL0     H39812   4.507   0.790   7.095 -0.0479  0.0130  0.4635
  295MOL0     H39813   4.170   0.588   7.189 -0.0593  0.2905  0.1920
  295MOL0     H39814   4.090   0.700   7.066 -0.1320  0.0245  0.3677
  295MOL0     H39815   4.055   0.864   7.251  2.3911 -0.5646 -1.6094
  295MOL0     H39816   4.119   0.749   7.359  1.9443 -1.2628 -0.9313
  295MOL0     H39817   3.873   0.684   7.173  0.1452 -1.4182 -0.7572
  295MOL0     H39818   3.848   0.744   7.339  1.0339 -1.1501  0.6419
  295MOL0     H39819   3.997   0.486   7.271 -0.0417 -2.2878  1.1068
  295MOL0     H39820   3.961   0.552   7.429  0.9548  3.6298 -0.3756
  295MOL0     H39821   3.588   0.383   7.342  0.1019 -2.0616  2.8149
  295MOL0     H39822   4.108   0.881   6.971 -0.4289 -1.0380 -0.8472
  295MOL0     H39823   4.154   1.146   6.776 -3.2624  0.9527  0.8425
  295MOL0     H39824   4.158   1.005   6.669  0.5969 -0.4686 -0.3666
  295MOL0     H39825   4.049   1.015   6.814 -0.1076  0.0693 -1.6002
  296MOL0     O39826   5.749  10.456  11.016 -0.2544  0.7758  0.6755
  296MOL0     C39827   5.855  10.458  10.942  0.6700  0.7247 -0.8241
  296MOL0     O39828   5.911  10.360  10.880  0.0219 -0.2941  0.0794
  296MOL0     C39829   5.849  10.238  10.863 -0.2232  0.1699 -1.1824
  296MOL0     C39830   5.787  10.164  10.967 -1.0652 -0.4205 -0.6570
  296MOL0     C39831   5.741  10.038  10.943  0.2423  0.0896 -0.1949
  296MOL0     C39832   5.745   9.985  10.817  0.8015  1.0959  0.1378
  296MOL0     O39833   5.715   9.852  10.799  0.0089 -0.6068  0.2901
  296MOL0     C39834   5.603   9.842  10.700  0.2763  0.5293  0.0246
  296MOL0     C39835   5.492   9.754  10.749 -0.4212 -0.1375  0.2442
  296MOL0     C39836   5.547   9.633  10.816 -0.5417  0.4489 -0.7042
  296MOL0     C39837   5.673   9.563  10.750  0.2740 -0.2140  0.6243
  296MOL0     C39838   5.676   9.414  10.801 -1.1847 -0.3299  0.5964
  296MOL0     C39839   5.787   9.343  10.729  0.4310  0.4931 -0.6861
  296MOL0     C39840   5.823   9.206  10.789  0.4490 -0.2168 -0.0246
  296MOL0     C39841   5.924   9.227  10.904 -1.1679  0.3920 -0.1255
  296MOL0     N39842   5.991   9.103  10.949  0.3735  0.6497 -0.0241
  296MOL0     C39843   5.936   8.996  11.026  0.3587 -1.2072 -0.3433
  296MOL0     C39844   6.039   8.919  11.071 -0.4356 -0.1373 -0.7964
  296MOL0     C39845   6.039   8.787  11.154  0.3304  0.5216  0.0591
  296MOL0     C39846   6.059   8.654  11.071  0.4996  0.3150  0.2562
  296MOL0     C39847   6.204   8.628  11.067  0.1383  0.0075  0.3600
  296MOL0     C39848   6.257   8.522  10.967  0.4359  0.0203  0.4704
  296MOL0     O39849   6.235   8.391  11.012  0.3504  0.3053  0.0731
  296MOL0     C39850   6.167   8.300  10.925  0.1797 -0.7039 -0.2963
  296MOL0     C39851   6.106   8.322  10.796  1.2677 -0.1514 -0.2149
  296MOL0     C39852   6.038   8.213  10.731 -0.3999  0.4500  0.1640
  296MOL0     C39853   6.056   8.080  10.782 -0.9397 -0.9814 -0.2009
  296MOL0     C39854   6.033   7.962  10.696 -0.5389  0.6004 -0.4446
  296MOL0     O39855   5.964   7.993  10.580  0.4120  0.0409  0.1032
  296MOL0     C39856   5.946   7.904  10.481  0.7058  0.1925  0.5490
  296MOL0     C39857   5.988   7.938  10.351  0.5194  0.1844 -0.1766
  296MOL0     C39858   5.978   7.841  10.246 -0.3945 -0.6228  0.6330
  296MOL0     C39859   5.916   7.714  10.270  0.0619 -0.7082 -0.5024
  296MOL0     O39860   5.890   7.623  10.166 -0.5936 -0.2604 -0.1004
  296MOL0     C39861   5.830   7.680  10.046 -0.6347 -0.2817  0.0797
  296MOL0     C39862   5.763   7.575   9.956  0.8543  1.1643 -0.0828
  296MOL0     C39863   5.633   7.511  10.011  0.1486  0.8282 -1.2250
  296MOL0     C39864   5.519   7.495   9.922 -0.6191 -0.0130  0.9102
  296MOL0     C39865   5.563   7.403   9.806 -0.1049  0.7503  0.0229
  296MOL0     C39866   5.440   7.356   9.720  0.1620 -0.2067  0.4122
  296MOL0     C39867   5.481   7.257   9.613  0.4686  0.7240 -0.8322
  296MOL0     C39868   5.368   7.229   9.517 -0.0860 -0.6064  0.2145
  296MOL0    Cl39869   5.424   7.088   9.421  0.5719  0.1668  0.1485
  296MOL0     C39870   5.874   7.684  10.402  0.1842 -0.1933 -0.1901
  296MOL0     C39871   5.884   7.775  10.508 -0.0793 -0.6924 -0.6516
  296MOL0     O39872   6.094   7.855  10.728  0.0570 -0.1216  0.3330
  296MOL0     C39873   6.123   8.060  10.912 -0.3492  1.0843  0.1209
  296MOL0     C39874   6.168   8.168  10.985  0.7849  0.4633  0.6114
  296MOL0     N39875   6.151   8.973  11.012 -0.6740 -0.5353 -0.6880
  296MOL0     N39876   6.122   9.075  10.940  0.3392 -0.2813 -0.7141
  296MOL0     C39877   5.805  10.058  10.722 -0.2128  0.2178  0.0819
  296MOL0     C39878   5.842  10.193  10.736  0.7914 -0.3023 -0.0981
  296MOL0     C39879   5.906  10.595  10.889  0.3613 -0.0994 -0.2740
  296MOL0     C39880   5.813  10.677  10.822  0.5819  0.5957 -0.3861
  296MOL0     C39881   5.851  10.788  10.757  0.9234 -0.9212  0.3112
  296MOL0     C39882   5.984  10.834  10.754 -0.7316  0.7826  1.4574
  296MOL0     O39883   6.001  10.950  10.683 -0.3116 -0.0938  0.2137
  296MOL0     C39884   6.129  10.993  10.625 -0.0862  0.7775 -0.1215
  296MOL0     C39885   6.131  10.987  10.462  0.1473  0.3256  0.0332
  296MOL0     C39886   6.009  11.072  10.405 -0.1009  0.1159 -0.2314
  296MOL0     C39887   6.033  11.114  10.261  0.4048  0.1734  0.7017
  296MOL0     C39888   5.943  11.230  10.222  1.0382  0.5076 -0.8909
  296MOL0     C39889   5.854  11.302  10.184  0.8790 -0.3130  0.8824
  296MOL0     C39890   6.079  10.747  10.803 -0.4130 -0.9458  0.2968
  296MOL0     C39891   6.043  10.640  10.887  0.1377  0.6007 -0.0778
  296MOL0     C39892   6.142  10.567  10.966 -0.8591 -0.1250 -0.1981
  296MOL0     H39893   5.805  10.220  11.058  2.1567  1.0140 -2.0370
  296MOL0     H39894   5.700   9.996  11.035  2.1890 -1.8840 -0.1650
  296MOL0     H39895   5.562   9.941  10.680 -0.8798  0.6111  2.4038
  296MOL0     H39896   5.640   9.785  10.615 -2.5162 -2.2348  0.4681
  296MOL0     H39897   5.432   9.721  10.664  1.4795  0.2185 -1.3012
  296MOL0     H39898   5.433   9.811  10.823  2.2983  0.6944  1.9160
  296MOL0     H39899   5.456   9.573  10.829 -2.1710  2.9474  0.3865
  296MOL0     H39900   5.581   9.648  10.919 -1.9114  2.6574 -0.4945
  296MOL0     H39901   5.678   9.554  10.641  4.4980 -6.0808  0.7982
  296MOL0     H39902   5.763   9.620  10.775 -1.4703  3.0385  0.0090
  296MOL0     H39903   5.693   9.408  10.909 -2.1892 -0.5742  0.7464
  296MOL0     H39904   5.579   9.365  10.798 -0.1568 -2.5015  0.8470
  296MOL0     H39905   5.763   9.329  10.623  0.2191  0.8888 -0.6912
  296MOL0     H39906   5.881   9.399  10.723 -0.7727  2.5489 -1.4437
  296MOL0     H39907   5.875   9.146  10.714 -2.6954 -0.8023 -1.9352
  296MOL0     H39908   5.734   9.147  10.815 -1.9413  1.8562 -2.8642
  296MOL0     H39909   6.000   9.299  10.871  1.5065 -2.1056  0.1556
  296MOL0     H39910   5.877   9.273  10.991  0.1472 -1.1912  1.5059
  296MOL0     H39911   5.830   8.986  11.048  0.2393  1.1407  0.4796
  296MOL0     H39912   6.096   8.791  11.247 -0.0168  2.3581  0.2197
  296MOL0     H39913   5.940   8.787  11.200  0.8361 -3.7112  1.6356
  296MOL0     H39914   6.021   8.566  11.122 -1.2381  0.7619 -0.1778
  296MOL0     H39915   6.017   8.659  10.970 -2.3793 -0.2427  1.3309
  296MOL0     H39916   6.246   8.615  11.167 -0.4941  2.4278  1.0042
  296MOL0     H39917   6.248   8.721  11.029  0.2042 -1.1173 -2.5888
  296MOL0     H39918   6.366   8.531  10.962  0.5934 -1.6436  0.1912
  296MOL0     H39919   6.219   8.539  10.866 -0.9691 -1.1816  0.7618
  296MOL0     H39920   6.086   8.421  10.756 -1.7993 -0.9046 -0.7810
  296MOL0     H39921   5.984   8.234  10.639  0.8392 -0.1508 -0.7255
  296MOL0     H39922   6.036   8.031  10.324 -2.1013  0.9751 -2.4596
  296MOL0     H39923   6.024   7.870  10.153  3.5670 -0.0557  2.5484
  296MOL0     H39924   5.755   7.752  10.079  0.0521  0.0993  0.8612
  296MOL0     H39925   5.904   7.733   9.987  0.3929  2.5205  3.5672
  296MOL0     H39926   5.740   7.637   9.869  1.0741 -0.0236 -1.0138
  296MOL0     H39927   5.825   7.490   9.926 -0.3907  0.2661 -0.1730
  296MOL0     H39928   5.664   7.413  10.047  0.3224  0.6256 -1.9207
  296MOL0     H39929   5.602   7.570  10.098 -2.9008 -1.6321 -0.4449
  296MOL0     H39930   5.463   7.585   9.897  2.5701  1.9572  0.2327
  296MOL0     H39931   5.448   7.433   9.977  0.0215  0.9867  2.9274
  296MOL0     H39932   5.620   7.317   9.844  0.0789  1.2779  0.9776
  296MOL0     H39933   5.629   7.454   9.737 -2.2420 -1.0358 -3.6453
  296MOL0     H39934   5.367   7.309   9.786  0.4162  1.0997  1.6695
  296MOL0     H39935   5.393   7.442   9.670  0.5052  1.1218  2.2918
  296MOL0     H39936   5.531   7.169   9.654 -0.6718  0.3994 -0.0894
  296MOL0     H39937   5.552   7.317   9.554  1.7083  2.1193  1.9046
  296MOL0     H39938   5.275   7.205   9.570 -2.2182  3.3341 -1.3427
  296MOL0     H39939   5.344   7.307   9.444  3.0633 -0.8271 -1.1888
  296MOL0     H39940   5.850   7.581  10.429 -0.9891  0.9942  4.0584
  296MOL0     H39941   5.850   7.749  10.607 -0.6710  2.1731 -0.0046
  296MOL0     H39942   6.150   7.967  10.960  0.2796  2.1555  1.9722
  296MOL0     H39943   6.226   8.162  11.076  2.6218  1.4344 -0.4476
  296MOL0     H39944   5.808  10.018  10.622 -2.5212 -1.0038  0.4197
  296MOL0     H39945   5.869  10.253  10.650 -2.5475  1.4472 -0.0993
  296MOL0     H39946   5.706  10.674  10.835  0.2740  2.8169 -1.7874
  296MOL0     H39947   5.777  10.859  10.721  1.6247 -0.8446 -1.0640
  296MOL0     H39948   6.212  10.928  10.652 -1.3593 -0.0896  1.9196
  296MOL0     H39949   6.154  11.095  10.655 -2.1434  0.8386  1.6982
  296MOL0     H39950   6.124  10.881  10.434  1.8687  0.2219 -0.1000
  296MOL0     H39951   6.226  11.030  10.430 -0.8605  1.8967 -0.9560
  296MOL0     H39952   6.015  11.160  10.470  0.7050 -0.8892  1.1064
  296MOL0     H39953   5.914  11.018  10.408 -0.4419  0.6487 -0.9789
  296MOL0     H39954   6.138  11.135  10.235 -0.8753  3.0703 -3.1033
  296MOL0     H39955   6.008  11.032  10.193  1.3803  0.3628  0.0818
  296MOL0     H39956   5.798  11.383  10.142 -1.3049 -2.8913 -1.6221
  296MOL0     H39957   6.184  10.770  10.786 -0.7882  0.5691 -0.0878
  296MOL0     H39958   6.218  10.535  10.894 -1.7947  0.2012 -1.3576
  296MOL0     H39959   6.197  10.636  11.030 -0.5038  1.8200 -2.4539
  296MOL0     H39960   6.099  10.484  11.023 -0.8248 -0.9897 -1.3728
  297MOL0     O39961   7.217   6.395   9.097 -0.2284  0.0803 -0.6446
  297MOL0     C39962   7.211   6.298   9.178 -0.2337 -0.3922 -0.1482
  297MOL0     O39963   7.302   6.199   9.184  0.1726 -0.5811  0.4214
  297MOL0     C39964   7.412   6.206   9.105  0.2544  0.0685 -0.2592
  297MOL0     C39965   7.525   6.237   9.173  0.1680 -0.1108  0.6817
  297MOL0     C39966   7.644   6.230   9.093 -0.6494 -0.2316 -1.0906
  297MOL0     C39967   7.647   6.218   8.953  0.6324 -0.5627 -1.2018
  297MOL0     O39968   7.758   6.239   8.875 -0.2017 -0.1212  0.0981
  297MOL0     C39969   7.885   6.280   8.932  0.2123  0.4622  1.1366
  297MOL0     C39970   7.978   6.321   8.821  0.0397  0.3638  0.0539
  297MOL0     C39971   7.987   6.234   8.692  1.0823 -0.5108 -0.4392
  297MOL0     C39972   8.125   6.263   8.627 -0.6481  0.1564 -0.2592
  297MOL0     C39973   8.147   6.177   8.493  0.7027 -0.5448 -0.2869
  297MOL0     C39974   8.294   6.197   8.450  0.5529 -0.9644  0.7362
  297MOL0     C39975   8.314   6.153   8.302  0.4624  0.7639 -0.7792
  297MOL0     C39976   8.460   6.170   8.259  0.4171  0.1588  0.5763
  297MOL0     N39977   8.556   6.076   8.313  0.3465 -0.1360 -1.0264
  297MOL0     C39978   8.691   6.081   8.300  0.2875  0.2698  0.0597
  297MOL0     C39979   8.741   5.967   8.356  0.5276  0.7770  0.3675
  297MOL0     C39980   8.887   5.931   8.387  0.1781 -0.0858  0.9940
  297MOL0     C39981   8.949   5.972   8.511  0.2080 -0.1882 -0.2815
  297MOL0     C39982   8.882   5.916   8.641  1.2521 -0.6275 -0.5616
  297MOL0     C39983   8.978   5.920   8.757  0.7641 -0.5191 -0.0750
  297MOL0     O39984   9.019   5.784   8.788 -0.3174 -0.6573  0.0155
  297MOL0     C39985   9.140   5.757   8.849  0.0844 -0.3686 -0.1238
  297MOL0     C39986   9.221   5.843   8.925 -0.1720  0.3759  0.0736
  297MOL0     C39987   9.333   5.794   8.990  0.3153  0.4702  1.0677
  297MOL0     C39988   9.359   5.650   8.994  0.9924  0.3028  0.5532
  297MOL0     C39989   9.482   5.587   9.065  0.6002 -0.1086 -1.0890
  297MOL0     O39990   9.538   5.670   9.161  0.6764  0.2275  0.3213
  297MOL0     C39991   9.644   5.642   9.243  0.8496  0.2072 -0.2226
  297MOL0     C39992   9.679   5.743   9.332  1.2670  0.1378  0.0719
  297MOL0     C39993   9.767   5.728   9.430 -0.3152  0.1365  1.0339
  297MOL0     C39994   9.822   5.602   9.458  0.1490  0.9082  0.4217
  297MOL0     O39995   9.893   5.572   9.570  0.1934  1.1319 -1.0501
  297MOL0     C39996   9.926   5.676   9.670 -0.9503 -0.0838 -0.2884
  297MOL0     C39997   9.989   5.613   9.793 -0.1299 -1.4057  0.4466
  297MOL0     C39998  10.125   5.541   9.757 -0.3560  0.2678 -0.3985
  297MOL0     C39999  10.204   5.505   9.886 -0.1263  0.6307 -0.0067
  297MOL0     C40000  10.347   5.456   9.845  0.5308  0.1018 -0.2513
  297MOL0     C40001  10.365   5.369   9.710 -0.1077  1.0028 -0.8257
  297MOL0     C40002  10.269   5.250   9.701 -0.9047  0.2892 -0.9268
  297MOL0     C40003  10.294   5.160   9.588 -1.1424  0.1510 -1.0395
  297MOL0    Cl40004  10.252   5.231   9.428  0.4998 -0.4725 -0.5720
  297MOL0     C40005   9.786   5.494   9.372 -0.1193 -0.6091  0.2269
  297MOL0     C40006   9.696   5.518   9.262  0.3999 -0.6440  0.8282
  297MOL0     O40007   9.530   5.475   9.034  0.3025 -0.7249  0.6000
  297MOL0     C40008   9.283   5.564   8.908  1.2067  0.6500 -1.0222
  297MOL0     C40009   9.173   5.618   8.849  0.6509  0.2278  0.5526
  297MOL0     N40010   8.629   5.887   8.389  0.5566  0.2938 -0.4813
  297MOL0     N40011   8.522   5.951   8.353  0.2049  0.2069  0.3831
  297MOL0     C40012   7.524   6.189   8.894  0.8346 -0.3421  0.2790
  297MOL0     C40013   7.407   6.192   8.967 -0.4676 -0.8961 -0.0548
  297MOL0     C40014   7.125   6.311   9.307  0.0067 -0.5927  0.2754
  297MOL0     C40015   7.167   6.247   9.425 -0.3817 -0.3758 -0.5738
  297MOL0     C40016   7.099   6.253   9.542  0.1676 -0.3415 -1.1706
  297MOL0     C40017   6.970   6.314   9.549 -0.3731 -0.0491 -0.3584
  297MOL0     O40018   6.904   6.321   9.675 -0.5180 -0.5550 -0.3778
  297MOL0     C40019   6.859   6.197   9.723  0.1851 -0.0369 -0.3095
  297MOL0     C40020   6.712   6.217   9.753  0.6846 -0.6018 -0.1204
  297MOL0     C40021   6.678   6.320   9.867 -0.1671 -0.4554  0.9483
  297MOL0     C40022   6.533   6.331   9.892  0.5181 -0.4157  0.6540
  297MOL0     C40023   6.518   6.440   9.994 -1.0895  0.2403 -0.0754
  297MOL0     C40024   6.509   6.550  10.058  1.2989  0.1447 -0.7126
  297MOL0     C40025   6.915   6.361   9.426 -0.3609 -0.0008  0.8737
  297MOL0     C40026   6.995   6.370   9.310 -0.1416 -0.5437  0.3834
  297MOL0     C40027   6.932   6.454   9.200 -0.2017 -0.1573  0.9780
  297MOL0     H40028   7.518   6.276   9.274  0.2852  0.5545  0.4388
  297MOL0     H40029   7.722   6.271   9.157  0.4864 -2.9093 -0.5944
  297MOL0     H40030   7.872   6.357   9.007 -1.0608  0.4297  0.9571
  297MOL0     H40031   7.920   6.198   8.996  1.1893  0.5339  0.7207
  297MOL0     H40032   8.079   6.320   8.864 -1.0048 -2.2827  2.8033
  297MOL0     H40033   7.946   6.424   8.805 -0.1836  0.3700  0.5135
  297MOL0     H40034   7.901   6.260   8.630 -0.1031 -1.4863  0.7344
  297MOL0     H40035   7.966   6.128   8.710 -1.9074  0.2902  1.5470
  297MOL0     H40036   8.133   6.370   8.602  1.3079  0.7463  2.4193
  297MOL0     H40037   8.202   6.242   8.702 -2.2100 -0.1620  1.3260
  297MOL0     H40038   8.136   6.068   8.501 -0.9993 -0.2705  3.6019
  297MOL0     H40039   8.074   6.217   8.423 -0.8794 -1.1067  0.9682
  297MOL0     H40040   8.311   6.305   8.455  0.8912 -1.0728  2.6371
  297MOL0     H40041   8.365   6.145   8.515  1.4940 -0.5887  0.0285
  297MOL0     H40042   8.253   6.219   8.240  1.1154  2.6788  0.5393
  297MOL0     H40043   8.277   6.050   8.295 -1.1666  1.1704  1.0004
  297MOL0     H40044   8.452   6.171   8.150  0.1663  2.1565  0.5885
  297MOL0     H40045   8.506   6.263   8.294  2.4297 -0.9765  1.1422
  297MOL0     H40046   8.765   6.151   8.265  0.7429  0.2399  0.9342
  297MOL0     H40047   8.899   5.823   8.374  3.1835  0.2339  0.4991
  297MOL0     H40048   8.947   5.978   8.308  0.0069  1.2394  1.6181
  297MOL0     H40049   9.054   5.945   8.515  1.0236  2.6555 -0.5324
  297MOL0     H40050   8.968   6.079   8.507  1.3686 -0.3985 -3.8762
  297MOL0     H40051   8.849   5.813   8.621 -0.7687 -0.3125  0.8422
  297MOL0     H40052   8.793   5.977   8.660  3.5086  2.1930  1.8268
  297MOL0     H40053   8.925   5.955   8.846 -0.5082  1.1344 -1.4146
  297MOL0     H40054   9.060   5.990   8.735 -0.4452  0.5072 -1.5078
  297MOL0     H40055   9.209   5.951   8.929 -4.7574  0.0749 -0.0935
  297MOL0     H40056   9.399   5.860   9.045  1.1394 -0.0144  0.6849
  297MOL0     H40057   9.642   5.844   9.320 -0.6367 -0.2471  2.0600
  297MOL0     H40058   9.808   5.815   9.481 -0.7274  0.0968  1.4371
  297MOL0     H40059  10.003   5.746   9.635  0.4982 -1.1759  0.5861
  297MOL0     H40060   9.836   5.718   9.715 -1.7989 -2.1210 -0.0018
  297MOL0     H40061  10.026   5.692   9.859  1.0656 -0.0854 -1.6926
  297MOL0     H40062   9.917   5.552   9.849  0.4411 -0.8135  1.8739
  297MOL0     H40063  10.118   5.456   9.688 -0.0395 -0.8756  0.9322
  297MOL0     H40064  10.190   5.612   9.705  2.0533 -1.4802  0.0370
  297MOL0     H40065  10.163   5.421   9.944  0.9836  0.2704  0.2846
  297MOL0     H40066  10.210   5.595   9.948 -0.5291 -0.6485  2.0095
  297MOL0     H40067  10.386   5.404   9.933 -0.1164 -0.8591 -0.5207
  297MOL0     H40068  10.403   5.547   9.822 -1.0217  0.8745 -1.1035
  297MOL0     H40069  10.368   5.438   9.626  3.6227  0.9358 -0.9222
  297MOL0     H40070  10.469   5.338   9.725 -0.9591 -0.5594  3.2078
  297MOL0     H40071  10.165   5.283   9.702 -0.5023  2.1212  3.0587
  297MOL0     H40072  10.279   5.183   9.787 -3.9657  0.9203  0.0300
  297MOL0     H40073  10.399   5.133   9.599 -0.5126  1.8806 -2.4523
  297MOL0     H40074  10.239   5.066   9.602 -2.6636  1.2414  0.8227
  297MOL0     H40075   9.824   5.396   9.399  0.6944 -0.4845 -0.4253
  297MOL0     H40076   9.679   5.434   9.196  1.5121 -0.2362 -0.0155
  297MOL0     H40077   9.318   5.467   8.875  0.0016  0.3209 -1.3947
  297MOL0     H40078   9.114   5.559   8.779 -0.2654  1.5071  0.2020
  297MOL0     H40079   7.518   6.201   8.786  2.4613 -0.9695  0.0928
  297MOL0     H40080   7.314   6.178   8.912  0.8674 -0.6183 -2.5352
  297MOL0     H40081   7.269   6.212   9.415 -0.1707  0.5579 -2.0319
  297MOL0     H40082   7.141   6.216   9.635  0.2535  1.5675 -0.4043
  297MOL0     H40083   6.920   6.160   9.806  1.3724  0.7168 -0.8094
  297MOL0     H40084   6.853   6.125   9.640 -0.1803  2.0653 -2.2046
  297MOL0     H40085   6.662   6.123   9.774 -2.4206  0.7756 -0.7980
  297MOL0     H40086   6.668   6.260   9.662 -1.9741 -1.2050  0.7936
  297MOL0     H40087   6.717   6.417   9.834 -3.0251  0.7347  0.7952
  297MOL0     H40088   6.721   6.283   9.961 -3.0946 -3.2044  1.3972
  297MOL0     H40089   6.470   6.346   9.804  1.5897  0.6782  0.0482
  297MOL0     H40090   6.505   6.234   9.936 -2.5879  0.7798  1.5949
  297MOL0     H40091   6.510   6.648  10.102 -1.9640 -0.6548  1.5005
  297MOL0     H40092   6.820   6.413   9.436 -0.0208  1.9155 -3.6523
  297MOL0     H40093   6.872   6.402   9.125  1.6337  0.7807 -1.2767
  297MOL0     H40094   6.859   6.515   9.254  1.6067  0.6730  2.6220
  297MOL0     H40095   6.999   6.514   9.137  1.8083 -0.4756  2.6715
  298MOL0     O40096   6.375   0.572   2.049  0.0415 -0.0339  0.2087
  298MOL0     C40097   6.331   0.468   2.096  0.2449  0.1282  0.2640
  298MOL0     O40098   6.410   0.372   2.149  0.1666  0.0918 -0.1039
  298MOL0     C40099   6.537   0.422   2.176  0.1318  0.5409 -0.6400
  298MOL0     C40100   6.560   0.493   2.290 -0.4439  0.2257  0.5095
  298MOL0     C40101   6.686   0.536   2.314  0.0763 -0.2689 -0.5200
  298MOL0     C40102   6.801   0.516   2.238  0.5294 -0.1187  0.3655
  298MOL0     O40103   6.928   0.554   2.265 -0.2850  0.0007 -0.3298
  298MOL0     C40104   6.949   0.668   2.343  0.9461  0.1671  0.0934
  298MOL0     C40105   7.086   0.661   2.421  0.1371  0.4432  0.7323
  298MOL0     C40106   7.215   0.641   2.338  0.2898 -0.2927  0.3099
  298MOL0     C40107   7.271   0.775   2.289 -0.3829 -0.3137 -0.6895
  298MOL0     C40108   7.396   0.824   2.377 -0.0906 -0.0045 -0.1666
  298MOL0     C40109   7.359   0.867   2.520 -0.7989 -0.8733 -0.0134
  298MOL0     C40110   7.496   0.890   2.586 -0.0353  0.0921 -0.1540
  298MOL0     C40111   7.497   0.998   2.692  0.5262  0.5508  0.3823
  298MOL0     N40112   7.421   0.947   2.805  0.3077  0.3270 -0.5295
  298MOL0     C40113   7.446   0.847   2.904  0.4909  0.5986  0.1151
  298MOL0     C40114   7.339   0.856   2.986 -1.1429 -0.0434  0.7822
  298MOL0     C40115   7.323   0.767   3.107 -0.2193 -0.7717 -0.6240
  298MOL0     C40116   7.408   0.819   3.209  0.1083 -1.5968  0.4357
  298MOL0     C40117   7.365   0.965   3.255  0.5488  0.9326  0.3693
  298MOL0     C40118   7.270   0.973   3.384 -0.8046  0.2535  0.5553
  298MOL0     O40119   7.147   0.911   3.341 -0.0934  0.6526  0.2568
  298MOL0     C40120   7.042   0.892   3.434 -0.6302 -0.2049  1.0735
  298MOL0     C40121   7.025   0.981   3.532 -0.2858 -0.5669 -0.7143
  298MOL0     C40122   6.909   0.981   3.616 -0.4047 -0.5605 -0.6004
  298MOL0     C40123   6.816   0.878   3.610 -0.0867  0.0271 -0.6875
  298MOL0     C40124   6.704   0.862   3.703 -1.1419 -0.5031  1.0023
  298MOL0     O40125   6.646   0.739   3.722  0.9029 -0.2424 -0.2353
  298MOL0     C40126   6.526   0.739   3.797  0.4164 -0.4909 -1.3298
  298MOL0     C40127   6.397   0.735   3.750 -0.4339 -0.5842  0.9420
  298MOL0     C40128   6.283   0.729   3.828 -0.7998  0.5215 -0.5733
  298MOL0     C40129   6.301   0.730   3.970  0.6517  0.7919 -0.8337
  298MOL0     O40130   6.193   0.722   4.056 -0.3308 -0.4773 -0.0208
  298MOL0     C40131   6.080   0.647   4.036  0.4272 -0.5789 -0.6816
  298MOL0     C40132   6.017   0.652   4.173 -0.5866 -0.4163  0.8833
  298MOL0     C40133   5.869   0.622   4.172  0.3024  0.0623  0.1800
  298MOL0     C40134   5.814   0.626   4.312  0.0519 -0.2626  0.2765
  298MOL0     C40135   5.658   0.594   4.328 -0.0124  0.4244  0.7917
  298MOL0     C40136   5.563   0.689   4.246  0.2960  0.3903 -0.4044
  298MOL0     C40137   5.597   0.836   4.252 -0.5814 -0.3435  0.3979
  298MOL0     C40138   5.583   0.898   4.394  0.1657  0.1236 -0.5304
  298MOL0    Cl40139   5.450   0.811   4.494  0.4034 -0.0928  0.0945
  298MOL0     C40140   6.425   0.722   4.015 -0.4669 -0.0633  0.0084
  298MOL0     C40141   6.540   0.723   3.938  0.4790 -0.2531 -0.0386
  298MOL0     O40142   6.679   0.960   3.770  0.0217  0.7074 -0.5572
  298MOL0     C40143   6.826   0.786   3.513 -0.1354  0.1027 -0.2087
  298MOL0     C40144   6.938   0.794   3.420  0.1058  0.1626  0.3622
  298MOL0     N40145   7.238   0.938   2.938 -0.4240  0.7822  0.2264
  298MOL0     N40146   7.296   0.989   2.829 -0.0713 -0.0143  0.3834
  298MOL0     C40147   6.776   0.435   2.125 -0.1811 -0.3975 -0.1503
  298MOL0     C40148   6.642   0.394   2.095 -0.6209  0.5648 -0.3434
  298MOL0     C40149   6.184   0.449   2.103  0.1783  0.2655 -0.5151
  298MOL0     C40150   6.138   0.359   2.194 -0.0621 -0.0146 -0.4104
  298MOL0     C40151   6.003   0.344   2.207 -0.2311  0.2484  0.9845
  298MOL0     C40152   5.909   0.387   2.109 -0.0601 -0.2442  1.0506
  298MOL0     O40153   5.776   0.355   2.133 -0.5652  0.1936  0.0003
  298MOL0     C40154   5.684   0.423   2.051  0.4843  1.1203  0.1021
  298MOL0     C40155   5.534   0.369   2.077  0.2030 -0.0032  0.3522
  298MOL0     C40156   5.440   0.483   2.060 -0.3146 -0.1319  0.4748
  298MOL0     C40157   5.291   0.454   2.064  0.0855  0.2392 -0.0608
  298MOL0     C40158   5.251   0.342   1.981 -0.9676 -1.0011  0.5925
  298MOL0     C40159   5.219   0.241   1.930 -0.5482  0.0579  0.2535
  298MOL0     C40160   5.961   0.478   2.008  0.5487  0.6872 -0.3830
  298MOL0     C40161   6.099   0.512   2.009  0.3346 -0.0373  0.5899
  298MOL0     C40162   6.151   0.605   1.895 -0.4654  0.4823  0.4727
  298MOL0     H40163   6.480   0.506   2.362 -0.8742 -3.3293  0.8232
  298MOL0     H40164   6.690   0.598   2.403 -3.1458 -1.5333  0.6706
  298MOL0     H40165   6.931   0.752   2.276  0.6925 -0.4210 -0.5931
  298MOL0     H40166   6.882   0.691   2.426 -0.0202  1.6752 -1.0576
  298MOL0     H40167   7.073   0.586   2.500  0.8871  0.3026  0.7340
  298MOL0     H40168   7.096   0.755   2.476 -1.4837  1.7541 -1.0696
  298MOL0     H40169   7.192   0.579   2.251  3.0122 -1.1562  0.1057
  298MOL0     H40170   7.297   0.583   2.382  0.9368 -1.5977 -2.4217
  298MOL0     H40171   7.305   0.749   2.188 -2.3018 -1.6765 -1.0367
  298MOL0     H40172   7.196   0.854   2.299  0.3806  0.1528  1.9617
  298MOL0     H40173   7.469   0.741   2.376 -0.6203 -0.5099  1.1195
  298MOL0     H40174   7.441   0.912   2.330 -1.2049  1.2681  1.0668
  298MOL0     H40175   7.299   0.958   2.512  0.3716  0.0704  1.6195
  298MOL0     H40176   7.290   0.799   2.572 -1.2063  0.6190  1.4785
  298MOL0     H40177   7.561   0.932   2.508 -1.0911  1.7842 -0.1500
  298MOL0     H40178   7.546   0.797   2.616  2.2832  1.3209  0.0341
  298MOL0     H40179   7.598   1.026   2.724  1.0809  1.0932 -1.7122
  298MOL0     H40180   7.459   1.092   2.653 -2.4994 -0.8014 -0.1951
  298MOL0     H40181   7.538   0.790   2.920  0.5342 -0.0883 -2.1700
  298MOL0     H40182   7.218   0.772   3.137  0.0188 -1.1021  0.2948
  298MOL0     H40183   7.339   0.661   3.086 -2.0076 -1.1928 -0.1062
  298MOL0     H40184   7.416   0.756   3.298 -1.4420 -1.2939  0.8240
  298MOL0     H40185   7.508   0.827   3.166  0.3130 -2.3406  0.7639
  298MOL0     H40186   7.322   1.018   3.169 -0.4112  0.1882  0.3676
  298MOL0     H40187   7.463   1.008   3.277  2.3268 -2.1948 -0.8068
  298MOL0     H40188   7.252   1.079   3.401 -0.5992  0.6695 -1.5491
  298MOL0     H40189   7.324   0.936   3.472  1.6264 -1.1364 -1.3835
  298MOL0     H40190   7.098   1.057   3.557 -0.1577 -0.7502 -0.5288
  298MOL0     H40191   6.910   1.056   3.695 -1.8393 -1.8540  0.7232
  298MOL0     H40192   6.397   0.752   3.642  3.3546  3.9656  1.2675
  298MOL0     H40193   6.186   0.743   3.781 -1.3713  1.4289  0.8031
  298MOL0     H40194   6.013   0.681   3.957 -0.4288 -2.8781 -1.0412
  298MOL0     H40195   6.110   0.543   4.015  1.8951 -0.3597  0.1804
  298MOL0     H40196   6.074   0.583   4.235  0.0951 -0.4470  0.2397
  298MOL0     H40197   6.039   0.740   4.234 -1.8223  0.2653  0.3901
  298MOL0     H40198   5.821   0.703   4.117  1.0876 -0.0160 -0.6397
  298MOL0     H40199   5.841   0.531   4.119 -2.1101  0.1101  1.2428
  298MOL0     H40200   5.831   0.725   4.356 -2.1244  2.1746 -3.7164
  298MOL0     H40201   5.856   0.547   4.374 -0.6393 -0.4059  0.5588
  298MOL0     H40202   5.616   0.590   4.429 -0.2741  3.2404  0.8679
  298MOL0     H40203   5.639   0.498   4.278 -2.5693  1.5957 -0.6973
  298MOL0     H40204   5.572   0.649   4.144  1.8422 -0.7107  0.1094
  298MOL0     H40205   5.463   0.675   4.286  0.7426 -0.9943  0.3013
  298MOL0     H40206   5.519   0.890   4.197  2.5266  2.3283 -1.7743
  298MOL0     H40207   5.694   0.862   4.210 -2.5565  4.0369 -2.1628
  298MOL0     H40208   5.684   0.887   4.434  1.8298 -0.2018 -4.3772
  298MOL0     H40209   5.555   1.004   4.386 -1.6426 -0.3950 -1.5638
  298MOL0     H40210   6.436   0.708   4.122  2.4323  4.6677  0.6434
  298MOL0     H40211   6.631   0.743   3.993 -0.1704  3.0064  0.1019
  298MOL0     H40212   6.749   0.710   3.502  0.7897 -0.9076  0.1185
  298MOL0     H40213   6.937   0.723   3.337 -0.0435  0.7122 -0.1174
  298MOL0     H40214   6.854   0.425   2.049 -1.2932 -1.8195 -1.1763
  298MOL0     H40215   6.618   0.335   2.008  1.3177 -0.2636 -0.3852
  298MOL0     H40216   6.208   0.320   2.267  1.1026 -0.7654 -1.8646
  298MOL0     H40217   5.962   0.274   2.279 -0.5681  2.3328  2.9369
  298MOL0     H40218   5.707   0.413   1.945  1.1218 -0.9931  0.3989
  298MOL0     H40219   5.689   0.527   2.084 -4.0652  1.1704  1.3797
  298MOL0     H40220   5.530   0.331   2.180 -0.2639 -0.8425  0.0349
  298MOL0     H40221   5.505   0.289   2.008 -2.5222  0.7522  0.5106
  298MOL0     H40222   5.468   0.539   1.971 -0.9491 -1.9112 -0.8989
  298MOL0     H40223   5.464   0.543   2.149 -0.9159  2.4512 -1.0100
  298MOL0     H40224   5.271   0.439   2.171 -1.9938 -1.0550 -0.5674
  298MOL0     H40225   5.231   0.538   2.028 -1.6403 -0.9015  0.0323
  298MOL0     H40226   5.185   0.150   1.885 -1.1868  0.1640  0.5167
  298MOL0     H40227   5.897   0.534   1.941  2.7598  0.9085 -2.4724
  298MOL0     H40228   6.199   0.697   1.929  1.2057 -0.9200  2.1011
  298MOL0     H40229   6.229   0.558   1.834 -1.0118  2.7462 -2.1583
  298MOL0     H40230   6.069   0.619   1.824  0.1296  1.3929 -0.0491
  299MOL0     O40231   0.299   9.999   5.378 -0.0620 -0.5382  0.0685
  299MOL0     C40232   0.177   9.990   5.373 -0.3258  0.5645  0.5350
  299MOL0     O40233   0.112   9.951   5.271  0.3615 -0.5279  0.5765
  299MOL0     C40234   0.184   9.887   5.174  0.8898 -0.5056 -0.3928
  299MOL0     C40235   0.238   9.966   5.070 -0.2490  0.3608 -0.6830
  299MOL0     C40236   0.287   9.902   4.960  0.0486  0.8211  0.3233
  299MOL0     C40237   0.310   9.758   4.954 -0.1222 -0.1988 -0.6767
  299MOL0     O40238   0.351   9.689   4.842  1.0879 -0.4097 -0.5715
  299MOL0     C40239   0.419   9.753   4.725  0.5651 -0.4185  0.5879
  299MOL0     C40240   0.441   9.650   4.610  0.6976  0.1993  0.4032
  299MOL0     C40241   0.502   9.512   4.649  0.1248 -0.1687 -0.4742
  299MOL0     C40242   0.560   9.437   4.534  0.0338 -0.9180  0.4963
  299MOL0     C40243   0.628   9.303   4.579 -0.0220 -0.2997 -0.1177
  299MOL0     C40244   0.659   9.204   4.466  0.6100 -1.0415  0.1101
  299MOL0     C40245   0.745   9.260   4.346 -0.3419 -0.1414 -0.1870
  299MOL0     C40246   0.894   9.296   4.372 -0.4543  0.7214  0.3311
  299MOL0     N40247   0.963   9.175   4.432 -0.7507 -0.9222 -0.3858
  299MOL0     C40248   1.022   9.085   4.347 -0.4777  0.5366 -0.8801
  299MOL0     C40249   1.089   9.013   4.445 -1.1470  0.0286  0.1391
  299MOL0     C40250   1.182   8.894   4.414  0.3649  1.0521  0.0544
  299MOL0     C40251   1.328   8.950   4.380 -0.1855 -1.1180  0.2760
  299MOL0     C40252   1.357   9.015   4.246  0.7204 -0.9600 -0.5009
  299MOL0     C40253   1.498   9.057   4.232  0.3696  0.2284  0.7760
  299MOL0     O40254   1.515   9.113   4.104  0.4808 -0.1808  0.4498
  299MOL0     C40255   1.641   9.150   4.055 -0.6497  1.0906  0.9435
  299MOL0     C40256   1.644   9.188   3.918  0.3948  0.3120 -0.7094
  299MOL0     C40257   1.757   9.217   3.837 -0.2519  0.2541 -0.5320
  299MOL0     C40258   1.884   9.235   3.903  0.1791 -0.1551 -0.0526
  299MOL0     C40259   2.018   9.257   3.831 -0.2805  1.1287  0.9701
  299MOL0     O40260   2.125   9.261   3.923 -0.4259 -0.3254 -0.6478
  299MOL0     C40261   2.253   9.262   3.879 -0.5146 -0.0058  0.4513
  299MOL0     C40262   2.305   9.243   3.747  0.0963 -1.0858 -0.7312
  299MOL0     C40263   2.440   9.257   3.727  0.3391  0.2113  0.5936
  299MOL0     C40264   2.530   9.280   3.840  0.6698 -0.3909  0.3298
  299MOL0     O40265   2.658   9.284   3.821  0.2599  0.3792  0.5106
  299MOL0     C40266   2.731   9.163   3.854 -0.2200  0.3615  0.0510
  299MOL0     C40267   2.883   9.166   3.816  0.5655 -1.5467 -0.4303
  299MOL0     C40268   2.908   9.174   3.666 -0.1759 -0.6910  0.5678
  299MOL0     C40269   3.062   9.182   3.656  0.4313 -0.1929  0.3111
  299MOL0     C40270   3.116   9.323   3.665 -0.8879  0.3945  0.0608
  299MOL0     C40271   3.264   9.318   3.675 -0.9763 -0.1038  0.0605
  299MOL0     C40272   3.308   9.471   3.693 -0.4242 -0.2342  0.6969
  299MOL0     C40273   3.459   9.468   3.670  0.1287 -0.0462  0.0009
  299MOL0    Cl40274   3.497   9.424   3.510  0.1369 -0.0710  0.3673
  299MOL0     C40275   2.472   9.315   3.966 -0.3339 -1.0450  0.2378
  299MOL0     C40276   2.334   9.309   3.984 -0.1603 -0.0081  0.0629
  299MOL0     O40277   2.024   9.275   3.702  0.3547  0.0894 -0.6483
  299MOL0     C40278   1.879   9.212   4.041 -0.4682 -0.1327  0.2037
  299MOL0     C40279   1.769   9.159   4.115 -0.4370  0.1308  0.0705
  299MOL0     N40280   1.071   9.062   4.575  0.0620 -0.1177  0.4645
  299MOL0     N40281   1.006   9.169   4.566  0.1022  0.0170  0.7234
  299MOL0     C40282   0.260   9.686   5.063 -0.2994  0.0668  0.5267
  299MOL0     C40283   0.189   9.748   5.166  0.3638 -0.1258  0.3165
  299MOL0     C40284   0.097  10.019   5.498  0.2043  0.2230 -0.0172
  299MOL0     C40285   0.165  10.080   5.610  0.6328  0.0429 -1.1592
  299MOL0     C40286   0.090  10.139   5.713  0.5002  0.0619  0.1433
  299MOL0     C40287  -0.052  10.121   5.720 -0.0760 -0.0092  0.4468
  299MOL0     O40288  -0.138  10.192   5.800 -0.5026 -0.3025  0.2017
  299MOL0     C40289  -0.086  10.302   5.880  1.0286  0.0389  0.3960
  299MOL0     C40290  -0.070  10.431   5.802 -0.4927  0.1295 -1.2043
  299MOL0     C40291  -0.061  10.552   5.897 -0.3247  0.1167 -0.7833
  299MOL0     C40292  -0.083  10.675   5.812 -0.6633 -0.1979  0.4654
  299MOL0     C40293  -0.046  10.792   5.889 -0.3685 -0.7336 -0.2651
  299MOL0     C40294   0.001  10.882   5.956  0.7172  0.5548 -0.2921
  299MOL0     C40295  -0.115  10.047   5.617 -0.8354  0.6160 -0.5023
  299MOL0     C40296  -0.041   9.991   5.512  0.0563  0.3236 -1.0346
  299MOL0     C40297  -0.136   9.918   5.413 -0.3861 -0.1063  0.3268
  299MOL0     H40298   0.238  10.073   5.083  4.8486  0.5209 -0.1653
  299MOL0     H40299   0.321   9.963   4.876  3.5212 -1.0945  0.1425
  299MOL0     H40300   0.363   9.840   4.689 -2.2200 -3.1170 -2.1543
  299MOL0     H40301   0.512   9.796   4.763  0.3715 -0.7614  1.4660
  299MOL0     H40302   0.500   9.692   4.528  0.4917 -0.3077 -0.0132
  299MOL0     H40303   0.344   9.635   4.562  0.7302  1.0582  0.0464
  299MOL0     H40304   0.421   9.455   4.695  0.3834  0.7017  1.1232
  299MOL0     H40305   0.583   9.534   4.719 -1.1273  2.7584  0.2359
  299MOL0     H40306   0.480   9.401   4.467  1.2049  1.4945 -2.4393
  299MOL0     H40307   0.633   9.493   4.474  0.8526 -4.3552 -2.0478
  299MOL0     H40308   0.723   9.334   4.624 -0.1925  1.3460 -0.8037
  299MOL0     H40309   0.560   9.255   4.649 -1.6200  1.0467 -0.6777
  299MOL0     H40310   0.709   9.117   4.509 -0.7462 -1.6895  0.4175
  299MOL0     H40311   0.564   9.168   4.425 -0.9105 -0.0276  2.4669
  299MOL0     H40312   0.705   9.352   4.302  0.8338 -0.2489 -1.5456
  299MOL0     H40313   0.729   9.180   4.273 -0.1184 -2.1653  1.8862
  299MOL0     H40314   0.934   9.317   4.272 -2.7240 -2.1073 -1.3145
  299MOL0     H40315   0.897   9.379   4.444 -0.8079  1.0756 -0.0531
  299MOL0     H40316   1.040   9.067   4.242 -1.7380 -1.1697 -0.8510
  299MOL0     H40317   1.173   8.835   4.506  1.3223  3.2322  1.6412
  299MOL0     H40318   1.155   8.835   4.326  4.0965  1.4427 -1.5453
  299MOL0     H40319   1.356   9.023   4.457  2.2464 -1.0569 -0.5819
  299MOL0     H40320   1.393   8.863   4.394  0.3948 -0.7423 -0.0819
  299MOL0     H40321   1.294   9.102   4.221 -0.1803 -1.8231 -1.3285
  299MOL0     H40322   1.342   8.941   4.167  0.2854 -0.1139 -1.2326
  299MOL0     H40323   1.569   8.974   4.238  0.1437 -0.0769 -0.4971
  299MOL0     H40324   1.528   9.137   4.300  1.5952  0.3019  0.1772
  299MOL0     H40325   1.548   9.184   3.867  0.8025  1.6050 -1.6412
  299MOL0     H40326   1.740   9.229   3.731 -2.6285 -2.1181 -0.5393
  299MOL0     H40327   2.244   9.213   3.662  1.0377  1.1706 -2.2993
  299MOL0     H40328   2.489   9.228   3.635  2.5535  2.6884  0.8615
  299MOL0     H40329   2.732   9.157   3.963  2.2608 -0.9710  0.0361
  299MOL0     H40330   2.668   9.080   3.822  0.2440 -0.6407  1.6215
  299MOL0     H40331   2.930   9.251   3.865  1.6160 -2.5643  0.3885
  299MOL0     H40332   2.939   9.081   3.856  2.7246  0.1182  0.2800
  299MOL0     H40333   2.871   9.079   3.626  2.5703 -1.0345 -1.4213
  299MOL0     H40334   2.853   9.260   3.628  3.4182  2.1220  1.1813
  299MOL0     H40335   3.100   9.130   3.567  0.2916 -1.6897  1.1015
  299MOL0     H40336   3.105   9.126   3.739  0.5330  0.6414  0.8323
  299MOL0     H40337   3.071   9.374   3.751 -3.6894 -2.1626  0.2860
  299MOL0     H40338   3.090   9.373   3.571 -1.0614 -1.4547 -0.9110
  299MOL0     H40339   3.289   9.257   3.762  0.6157  1.2338  0.5984
  299MOL0     H40340   3.299   9.267   3.584 -0.2163  2.1108 -0.9761
  299MOL0     H40341   3.281   9.503   3.794  2.1415 -0.6727  1.6037
  299MOL0     H40342   3.266   9.538   3.617  2.2709 -0.9932 -1.6354
  299MOL0     H40343   3.493   9.570   3.688 -0.2963  0.8113 -3.3877
  299MOL0     H40344   3.510   9.406   3.744 -0.8498 -1.6972 -0.6472
  299MOL0     H40345   2.531   9.351   4.050 -1.6628 -2.0054  1.6253
  299MOL0     H40346   2.291   9.318   4.083  2.1477  1.4294  1.0116
  299MOL0     H40347   1.966   9.237   4.100 -1.0570  1.4441  0.4581
  299MOL0     H40348   1.798   9.132   4.216 -1.8784  0.6920  0.6594
  299MOL0     H40349   0.270   9.578   5.060 -4.9457 -0.7986  4.2624
  299MOL0     H40350   0.138   9.688   5.241 -0.9981 -1.0909 -1.3228
  299MOL0     H40351   0.269  10.109   5.615  0.8895 -1.1209  0.9357
  299MOL0     H40352   0.144  10.201   5.784  0.8436 -1.4702  1.2765
  299MOL0     H40353   0.006  10.280   5.935  2.0249 -0.1394 -1.2860
  299MOL0     H40354  -0.167  10.307   5.955 -1.2747 -3.8734 -1.4937
  299MOL0     H40355  -0.143  10.439   5.721  1.5987 -0.8192 -3.3347
  299MOL0     H40356   0.029  10.431   5.755  0.4233  0.9069  0.6230
  299MOL0     H40357   0.037  10.554   5.946  0.2182  1.9872 -1.8427
  299MOL0     H40358  -0.129  10.539   5.982 -0.5582  0.3079 -0.9409
  299MOL0     H40359  -0.032  10.683   5.716 -4.1323  1.6495 -1.4587
  299MOL0     H40360  -0.190  10.679   5.788 -0.7747  4.0272  0.8092
  299MOL0     H40361   0.055  10.958   6.009  1.1101 -1.1957  1.9736
  299MOL0     H40362  -0.220  10.029   5.635 -0.3279 -1.8352  0.5348
  299MOL0     H40363  -0.213   9.868   5.473  1.1625  1.3511  3.7920
  299MOL0     H40364  -0.176   9.990   5.342  0.9945  1.2479  0.8632
  299MOL0     H40365  -0.086   9.834   5.363 -0.5366  0.4120 -0.7116
  300MOL0     O40366   8.717   0.856   7.459  0.4788 -0.3473 -0.9283
  300MOL0     C40367   8.737   0.870   7.580  0.0520 -0.6513 -0.1581
  300MOL0     O40368   8.802   0.781   7.661 -0.8914  0.2106  0.6982
  300MOL0     C40369   8.850   0.667   7.597  0.1118 -0.5418 -0.2633
  300MOL0     C40370   8.778   0.549   7.628 -0.0005  0.6249  0.6462
  300MOL0     C40371   8.825   0.424   7.588 -0.1822 -0.0831  0.2832
  300MOL0     C40372   8.931   0.421   7.502  0.7313  0.3430  0.6526
  300MOL0     O40373   8.980   0.300   7.453  0.0728 -0.4593 -0.5130
  300MOL0     C40374   8.884   0.228   7.367 -0.9532  0.1184  0.2245
  300MOL0     C40375   8.933   0.081   7.349 -0.3377 -0.8721  0.5883
  300MOL0     C40376   9.062   0.056   7.266 -0.2861 -0.6913 -0.1951
  300MOL0     C40377   9.040   0.108   7.126 -0.1664  0.3781 -0.4803
  300MOL0     C40378   9.149   0.062   7.036 -0.7670  0.5523 -0.3348
  300MOL0     C40379   9.130   0.091   6.888  0.2725  0.6538 -0.3299
  300MOL0     C40380   9.249   0.054   6.792 -0.3185 -0.3858  1.0482
  300MOL0     C40381   9.266  -0.102   6.788 -0.6386  0.3088 -0.0651
  300MOL0     N40382   9.370  -0.141   6.702 -1.1782  0.1073  0.6183
  300MOL0     C40383   9.400  -0.279   6.681  0.2641 -0.5995 -0.8472
  300MOL0     C40384   9.514  -0.282   6.619 -0.7276 -0.1044  0.5254
  300MOL0     C40385   9.575  -0.413   6.564 -0.2199  0.1210 -0.5950
  300MOL0     C40386   9.715  -0.388   6.515 -0.4906  0.2632 -0.3041
  300MOL0     C40387   9.711  -0.326   6.374  0.1736  0.1209 -0.0436
  300MOL0     C40388   9.828  -0.231   6.371  0.0151  0.8830 -0.3981
  300MOL0     O40389   9.955  -0.296   6.371  0.6131 -0.9196 -0.1882
  300MOL0     C40390  10.070  -0.212   6.353  0.1910  0.0600  0.7549
  300MOL0     C40391  10.186  -0.270   6.381  0.0733 -0.4216 -0.1309
  300MOL0     C40392  10.302  -0.199   6.385  0.9774  0.1320 -0.1236
  300MOL0     C40393  10.307  -0.062   6.358 -0.4159 -0.1218 -0.2048
  300MOL0     C40394  10.444   0.008   6.358  0.4042 -1.1990  0.3923
  300MOL0     O40395  10.444   0.144   6.312  0.6964  1.1268  0.1601
  300MOL0     C40396  10.550   0.233   6.346 -0.7027  0.5041  0.7851
  300MOL0     C40397  10.679   0.209   6.312 -0.1761  0.4930  0.0849
  300MOL0     C40398  10.785   0.304   6.330  0.1759  0.0978  0.1454
  300MOL0     C40399  10.750   0.430   6.385  0.0346 -0.1884  0.3417
  300MOL0     O40400  10.845   0.528   6.388  0.1011  0.5718 -0.4863
  300MOL0     C40401  10.815   0.659   6.442 -0.2780  0.1676 -0.0351
  300MOL0     C40402  10.828   0.668   6.596 -0.6492 -0.3642 -0.5211
  300MOL0     C40403  10.713   0.748   6.657 -0.7036  1.1382 -0.1788
  300MOL0     C40404  10.722   0.733   6.809 -0.1281  0.0550  0.5320
  300MOL0     C40405  10.612   0.796   6.889 -0.1849 -0.0658 -0.5015
  300MOL0     C40406  10.475   0.730   6.876  0.0955  0.2259  0.7721
  300MOL0     C40407  10.367   0.825   6.933 -0.1531  0.5631  0.3489
  300MOL0     C40408  10.350   0.826   7.093 -0.5682  0.1342  0.3116
  300MOL0    Cl40409  10.237   0.954   7.129  0.3047  0.0597  0.2353
  300MOL0     C40410  10.617   0.450   6.421 -0.2212 -0.0706 -0.3184
  300MOL0     C40411  10.526   0.359   6.392  0.4418  0.7142  0.3894
  300MOL0     O40412  10.540  -0.045   6.417  0.7863  0.1929  0.4932
  300MOL0     C40413  10.192   0.008   6.328  0.5950  0.7610  1.3975
  300MOL0     C40414  10.072  -0.065   6.325 -0.2288 -0.2392  0.1917
  300MOL0     N40415   9.574  -0.152   6.626  0.3738  0.1896 -0.3876
  300MOL0     N40416   9.480  -0.070   6.676 -0.2540 -0.1006  0.4975
  300MOL0     C40417   9.000   0.535   7.467  0.4472  0.5890 -0.7202
  300MOL0     C40418   8.960   0.653   7.511 -0.4480 -0.2771  0.3987
  300MOL0     C40419   8.677   0.980   7.664  0.1964 -0.0883  0.4609
  300MOL0     C40420   8.726   0.994   7.800 -0.8434  0.3657  0.9665
  300MOL0     C40421   8.664   1.077   7.885 -0.5183  0.4174  0.4985
  300MOL0     C40422   8.561   1.161   7.842  0.4998 -0.4150  0.6488
  300MOL0     O40423   8.484   1.241   7.925 -0.3136 -0.2500  0.1723
  300MOL0     C40424   8.543   1.294   8.047  0.1936 -0.0524 -0.1514
  300MOL0     C40425   8.656   1.380   8.018 -0.4588 -0.1671 -1.3446
  300MOL0     C40426   8.701   1.472   8.142 -1.7761 -0.2580  0.2649
  300MOL0     C40427   8.762   1.393   8.267 -0.8295 -0.3104 -0.3854
  300MOL0     C40428   8.865   1.299   8.217 -0.4931 -0.1745 -0.1277
  300MOL0     C40429   8.938   1.203   8.188 -0.5546 -0.4278 -0.4830
  300MOL0     C40430   8.513   1.149   7.713 -0.1554 -0.0024  0.1856
  300MOL0     C40431   8.575   1.064   7.623 -0.1587 -0.4186 -0.2520
  300MOL0     C40432   8.520   1.075   7.481 -0.4290  1.1215 -0.2662
  300MOL0     H40433   8.689   0.550   7.691 -1.8912  1.8069 -1.8962
  300MOL0     H40434   8.781   0.329   7.618  1.2683 -0.3360  1.8126
  300MOL0     H40435   8.787   0.217   7.417 -0.8107  0.8349  0.6742
  300MOL0     H40436   8.861   0.284   7.276 -2.8482  0.4412  0.8489
  300MOL0     H40437   8.848   0.019   7.317 -0.6409 -0.6986  1.0467
  300MOL0     H40438   8.959   0.043   7.448  0.6566  0.3228  0.8000
  300MOL0     H40439   9.096  -0.048   7.262  2.1275  0.0329 -3.6886
  300MOL0     H40440   9.135   0.116   7.320 -2.1187  0.9141  0.6247
  300MOL0     H40441   8.939   0.075   7.101  0.7870 -1.5534 -2.0580
  300MOL0     H40442   9.031   0.217   7.117 -1.9960  0.0501 -4.6596
  300MOL0     H40443   9.243   0.111   7.066 -0.9121  1.0923 -0.7519
  300MOL0     H40444   9.167  -0.044   7.060  1.0888  1.1869  1.4523
  300MOL0     H40445   9.034   0.044   6.863 -0.1662  0.0272  2.3038
  300MOL0     H40446   9.108   0.197   6.874 -0.4004  0.7715  1.4560
  300MOL0     H40447   9.335   0.104   6.837 -0.3924  1.8436 -1.1092
  300MOL0     H40448   9.247   0.092   6.690  4.4225 -1.5520  0.2768
  300MOL0     H40449   9.292  -0.143   6.885 -2.1461 -3.1209 -0.9634
  300MOL0     H40450   9.174  -0.159   6.770  0.9949 -3.0124  1.2636
  300MOL0     H40451   9.341  -0.361   6.723 -0.6960  0.6535  0.3515
  300MOL0     H40452   9.581  -0.475   6.654 -1.0439  1.3282  0.3270
  300MOL0     H40453   9.513  -0.452   6.483  0.4782 -2.0740 -0.1260
  300MOL0     H40454   9.746  -0.315   6.590 -0.0383  0.8324 -1.0357
  300MOL0     H40455   9.765  -0.485   6.527 -3.1647 -1.0616  1.1370
  300MOL0     H40456   9.616  -0.275   6.357  0.3517 -0.4782 -3.7654
  300MOL0     H40457   9.714  -0.398   6.292  3.2258 -0.1026  0.1471
  300MOL0     H40458   9.810  -0.157   6.450  1.1468 -2.2417  3.0817
  300MOL0     H40459   9.814  -0.172   6.280 -1.1611  1.9580  0.4337
  300MOL0     H40460  10.197  -0.377   6.400 -0.6076 -0.1260  2.1221
  300MOL0     H40461  10.392  -0.253   6.409  1.0533  0.3732  0.1395
  300MOL0     H40462  10.713   0.115   6.269  3.0305  1.9991 -0.9872
  300MOL0     H40463  10.889   0.293   6.302 -0.7101  1.1069 -4.2121
  300MOL0     H40464  10.890   0.721   6.392 -2.0968  1.7581 -0.9114
  300MOL0     H40465  10.718   0.699   6.412 -1.4732 -3.6606 -1.9524
  300MOL0     H40466  10.839   0.572   6.648  1.3550  1.1330  2.0749
  300MOL0     H40467  10.911   0.736   6.616 -1.4891  0.9680 -1.4556
  300MOL0     H40468  10.710   0.851   6.622 -1.6015  0.2929 -2.8299
  300MOL0     H40469  10.622   0.696   6.626 -0.5573  1.1898 -0.7034
  300MOL0     H40470  10.815   0.781   6.840 -0.3144  0.4078  0.5504
  300MOL0     H40471  10.718   0.627   6.837 -0.4285 -0.0511  0.0953
  300MOL0     H40472  10.607   0.900   6.856  2.0692 -0.1809 -1.3823
  300MOL0     H40473  10.649   0.772   6.989  0.3268 -2.6046 -1.2289
  300MOL0     H40474  10.448   0.718   6.770 -2.2082  3.0848  0.9017
  300MOL0     H40475  10.472   0.635   6.931  0.5096 -0.2354  0.0152
  300MOL0     H40476  10.267   0.792   6.902 -0.9907  2.3816  0.9262
  300MOL0     H40477  10.380   0.929   6.902 -0.0498  0.1654 -1.0122
  300MOL0     H40478  10.320   0.725   7.125 -0.6090  0.1885  0.4494
  300MOL0     H40479  10.451   0.838   7.133  0.2239 -2.0155 -0.8710
  300MOL0     H40480  10.584   0.543   6.466  0.8322  2.2918 -3.9906
  300MOL0     H40481  10.428   0.389   6.426  1.7264  2.1010  3.1603
  300MOL0     H40482  10.206   0.113   6.302  0.3243  0.5163  0.2080
  300MOL0     H40483   9.982  -0.008   6.306  0.6226  0.9223 -0.5283
  300MOL0     H40484   9.081   0.526   7.395  1.1700 -0.5341  0.1967
  300MOL0     H40485   9.009   0.748   7.493 -0.7753 -0.6209 -2.8941
  300MOL0     H40486   8.816   0.943   7.832  0.6168  2.0350 -0.2708
  300MOL0     H40487   8.704   1.069   7.986  1.8139 -2.0026 -0.4944
  300MOL0     H40488   8.582   1.213   8.109  1.6816  0.6177 -0.1707
  300MOL0     H40489   8.470   1.347   8.109  0.5218 -0.5823  0.7086
  300MOL0     H40490   8.616   1.448   7.943 -1.5621 -2.2437 -2.7398
  300MOL0     H40491   8.735   1.320   7.971  0.5866  1.9264 -2.3958
  300MOL0     H40492   8.619   1.537   8.174 -0.4167  1.8730 -0.3573
  300MOL0     H40493   8.782   1.536   8.104 -2.6712  1.3112  0.9135
  300MOL0     H40494   8.807   1.461   8.339  1.0715  2.9945 -4.2891
  300MOL0     H40495   8.682   1.339   8.317 -2.1191  1.9933  0.1745
  300MOL0     H40496   9.006   1.127   8.157  0.2428  1.0718 -2.6946
  300MOL0     H40497   8.427   1.211   7.687 -1.3602 -1.4655  0.5158
  300MOL0     H40498   8.418   1.115   7.471 -1.0138 -0.3294 -0.2848
  300MOL0     H40499   8.589   1.141   7.428  2.0736 -0.8522  0.3632
  300MOL0     H40500   8.511   0.973   7.444  1.1509  0.4975  1.0062
  301MOL0     O40501   6.070   1.720  10.783 -0.2849  0.0821 -1.0607
  301MOL0     C40502   6.084   1.684  10.673 -0.2968  0.5781 -0.2110
  301MOL0     O40503   6.183   1.725  10.594  0.4657 -0.4666  0.3529
  301MOL0     C40504   6.262   1.828  10.637 -0.8475  0.2174 -0.0812
  301MOL0     C40505   6.210   1.948  10.679 -0.3752  0.5902 -0.1298
  301MOL0     C40506   6.300   2.057  10.703 -0.6994 -0.9713  0.1838
  301MOL0     C40507   6.442   2.040  10.696 -0.2534  0.6839  0.3533
  301MOL0     O40508   6.520   2.150  10.704 -0.3965 -0.1982 -0.0227
  301MOL0     C40509   6.655   2.136  10.751 -0.6228 -0.9875 -0.6440
  301MOL0     C40510   6.757   2.229  10.672 -0.2097 -0.2291 -0.2594
  301MOL0     C40511   6.779   2.185  10.526 -0.5781 -0.5203  0.3196
  301MOL0     C40512   6.896   2.274  10.470  0.0960  0.7106 -1.3170
  301MOL0     C40513   6.954   2.207  10.347 -1.3229 -0.4894 -0.0385
  301MOL0     C40514   7.022   2.319  10.262 -0.3334  0.1043  0.9973
  301MOL0     C40515   7.124   2.263  10.156 -0.3333 -0.6677  0.4491
  301MOL0     C40516   7.208   2.371  10.084 -0.9180  0.3961  0.4582
  301MOL0     N40517   7.119   2.459  10.009  0.2164  0.8027  0.2232
  301MOL0     C40518   7.041   2.559  10.054 -0.7742 -0.4420  0.3197
  301MOL0     C40519   7.034   2.645   9.952 -0.2585  0.4248 -0.5445
  301MOL0     C40520   6.955   2.772   9.956 -0.5656 -1.1648 -0.5124
  301MOL0     C40521   6.939   2.846   9.821  0.1166  0.0660 -0.8933
  301MOL0     C40522   6.868   2.978   9.802  0.3111  0.8238 -0.3538
  301MOL0     C40523   6.742   2.998   9.885  0.1896 -0.6144  0.1883
  301MOL0     O40524   6.653   2.899   9.842 -0.1325  0.8724  0.4662
  301MOL0     C40525   6.526   2.908   9.891  0.8491  0.8680 -0.5323
  301MOL0     C40526   6.416   2.878   9.808  0.2264  0.5294  0.0727
  301MOL0     C40527   6.282   2.877   9.848 -0.2686 -0.4432  0.3039
  301MOL0     C40528   6.247   2.904   9.986  0.6157 -0.7028  0.5293
  301MOL0     C40529   6.112   2.898  10.038  0.6300 -0.3215 -0.4239
  301MOL0     O40530   6.017   2.835   9.957  0.6848  0.3477  0.8733
  301MOL0     C40531   5.881   2.829   9.982  0.3859 -0.1126  0.0447
  301MOL0     C40532   5.804   2.721   9.922 -0.1614  0.1950  0.3143
  301MOL0     C40533   5.668   2.691   9.952 -0.3126  0.2723  0.1145
  301MOL0     C40534   5.604   2.782  10.028 -0.7734 -0.8816  0.5530
  301MOL0     O40535   5.469   2.768  10.024  0.6574 -0.0259  0.1851
  301MOL0     C40536   5.380   2.859  10.077  0.2139 -0.1756 -0.5287
  301MOL0     C40537   5.238   2.804  10.081  0.3331  0.2060  0.1472
  301MOL0     C40538   5.146   2.899  10.162  0.4167  0.6068 -0.0637
  301MOL0     C40539   5.001   2.834  10.150  0.7238 -0.0525 -0.0575
  301MOL0     C40540   4.896   2.941  10.192  0.6433  0.6938  0.1097
  301MOL0     C40541   4.753   2.887  10.174  0.6033 -0.4565 -0.0253
  301MOL0     C40542   4.703   2.904  10.029  0.5787  0.1727  0.4034
  301MOL0     C40543   4.554   2.891  10.020  0.3971  0.1790 -0.4918
  301MOL0    Cl40544   4.511   2.861   9.851  0.1514 -0.1075 -0.3710
  301MOL0     C40545   5.682   2.876  10.092  0.1852  0.1471  0.3373
  301MOL0     C40546   5.812   2.897  10.076 -0.6283  0.2899 -0.2528
  301MOL0     O40547   6.092   2.945  10.152 -0.4373  0.7744  0.7775
  301MOL0     C40548   6.360   2.928  10.072 -0.1642  0.2227 -0.4191
  301MOL0     C40549   6.492   2.924  10.030 -0.1987  0.6037  1.1098
  301MOL0     N40550   7.102   2.592   9.842 -0.9698  0.0421 -0.2107
  301MOL0     N40551   7.148   2.481   9.880 -0.0186  0.0374  0.0708
  301MOL0     C40552   6.500   1.905  10.657  0.9009  0.1343 -0.0607
  301MOL0     C40553   6.402   1.808  10.630 -0.2924 -0.2625  0.8880
  301MOL0     C40554   5.982   1.586  10.610 -0.7581 -0.6598  0.2816
  301MOL0     C40555   5.944   1.602  10.473 -0.0914  0.4914  0.4334
  301MOL0     C40556   5.852   1.507  10.420 -0.1591  0.0781 -0.0501
  301MOL0     C40557   5.818   1.393  10.498  0.5938 -0.8964 -1.1015
  301MOL0     O40558   5.744   1.284  10.457 -0.5002 -0.2067 -0.0209
  301MOL0     C40559   5.728   1.268  10.317 -0.2705  1.4629  0.0696
  301MOL0     C40560   5.677   1.126  10.276  0.1851 -0.3349  0.8030
  301MOL0     C40561   5.668   1.125  10.120  0.1971  0.5552 -0.1270
  301MOL0     C40562   5.812   1.122  10.047 -0.4628  0.7414 -0.0115
  301MOL0     C40563   5.791   1.101   9.900  1.0545 -0.2081  0.6939
  301MOL0     C40564   5.765   1.076   9.786 -0.7994  0.4410  0.2399
  301MOL0     C40565   5.869   1.381  10.622  0.0239  0.1555  0.2833
  301MOL0     C40566   5.953   1.473  10.683 -0.2002  0.2991 -0.3629
  301MOL0     C40567   5.998   1.444  10.820 -0.4139 -0.3583 -0.2467
  301MOL0     H40568   6.102   1.965  10.680 -0.0420  2.9904  0.7387
  301MOL0     H40569   6.265   2.154  10.738 -0.5646 -0.1991 -1.6785
  301MOL0     H40570   6.652   2.160  10.857  0.9980 -1.6414 -0.4147
  301MOL0     H40571   6.699   2.036  10.748  2.2190  0.1841 -1.9136
  301MOL0     H40572   6.851   2.211  10.725  0.5783 -0.4545 -1.6748
  301MOL0     H40573   6.731   2.335  10.669  1.1661  0.1196 -3.0785
  301MOL0     H40574   6.690   2.199  10.465  0.3586  0.5404 -0.8557
  301MOL0     H40575   6.823   2.085  10.523  1.6572  0.1857  3.5283
  301MOL0     H40576   6.845   2.368  10.446 -0.4105  0.6112 -0.6734
  301MOL0     H40577   6.971   2.292  10.548 -0.2782 -1.5535 -0.3607
  301MOL0     H40578   7.023   2.135  10.393  1.5417 -0.2918 -3.6217
  301MOL0     H40579   6.874   2.157  10.293 -1.4934  0.6376 -0.8668
  301MOL0     H40580   6.942   2.367  10.205  0.3517  0.3567  0.2282
  301MOL0     H40581   7.076   2.392  10.324 -1.7966  2.0917  0.0600
  301MOL0     H40582   7.057   2.210  10.087 -3.2346  0.0325  2.5243
  301MOL0     H40583   7.191   2.198  10.213  1.5647 -0.5831 -1.5503
  301MOL0     H40584   7.257   2.437  10.156  0.0085  1.3899 -1.0417
  301MOL0     H40585   7.270   2.319  10.011 -1.5593 -0.3584  0.4350
  301MOL0     H40586   7.005   2.576  10.155  1.6506  2.8898  0.7958
  301MOL0     H40587   6.857   2.749   9.999  0.4190 -1.6354  1.5978
  301MOL0     H40588   6.995   2.843  10.028 -0.5485  0.0045 -1.6416
  301MOL0     H40589   7.041   2.855   9.784  1.4773 -0.5662  2.3466
  301MOL0     H40590   6.894   2.775   9.752  0.9323 -1.1216 -0.2313
  301MOL0     H40591   6.851   2.995   9.696 -1.2970 -1.3945 -0.5386
  301MOL0     H40592   6.937   3.051   9.846 -0.5157  1.1709  0.4069
  301MOL0     H40593   6.702   3.097   9.858  0.2119 -0.5717  0.3102
  301MOL0     H40594   6.766   3.003   9.992  1.3796  0.7332 -0.0972
  301MOL0     H40595   6.431   2.849   9.705 -0.2035 -2.5282  0.7621
  301MOL0     H40596   6.204   2.856   9.776 -0.5895 -0.1184  0.5534
  301MOL0     H40597   5.861   2.670   9.844 -0.4546  4.4248 -3.0712
  301MOL0     H40598   5.612   2.607   9.911  1.2164 -0.4336 -0.5985
  301MOL0     H40599   5.395   2.894  10.180  0.0785  1.9252 -1.1759
  301MOL0     H40600   5.388   2.955  10.027  1.4880  0.9310  1.6200
  301MOL0     H40601   5.205   2.784   9.979 -1.4018 -2.6648  1.1442
  301MOL0     H40602   5.240   2.708  10.134 -1.4504 -1.3814 -2.4404
  301MOL0     H40603   5.164   2.909  10.269 -2.0743 -0.2059  0.5063
  301MOL0     H40604   5.139   2.999  10.119 -0.2504 -0.0416 -1.5305
  301MOL0     H40605   4.990   2.748  10.216  1.1217 -0.1776 -0.1540
  301MOL0     H40606   4.987   2.794  10.049 -0.1525 -0.6223  0.2783
  301MOL0     H40607   4.889   3.039  10.143 -2.2770 -0.2354 -1.5903
  301MOL0     H40608   4.909   2.959  10.299  5.0375 -2.5982  0.3807
  301MOL0     H40609   4.746   2.780  10.196 -3.0684  0.0784  2.4461
  301MOL0     H40610   4.687   2.952  10.232  1.8117  1.3107 -0.5692
  301MOL0     H40611   4.747   2.824   9.969 -3.3397 -1.3360 -0.7864
  301MOL0     H40612   4.746   2.999   9.997  2.6414 -0.9350 -0.2832
  301MOL0     H40613   4.513   2.810  10.080  0.6240  1.5780  1.6674
  301MOL0     H40614   4.510   2.983  10.061 -3.9797 -2.1312  0.6470
  301MOL0     H40615   5.628   2.942  10.160  0.5067  1.7381 -0.8962
  301MOL0     H40616   5.859   2.964  10.147  0.4518 -0.0956 -0.5786
  301MOL0     H40617   6.340   2.944  10.177 -1.5368  1.1690 -0.7924
  301MOL0     H40618   6.573   2.941  10.101  0.1585  0.3986  0.7525
  301MOL0     H40619   6.606   1.884  10.644  0.7719 -2.6373  2.2189
  301MOL0     H40620   6.439   1.709  10.604 -0.2737 -0.1077  0.3040
  301MOL0     H40621   5.978   1.682  10.407 -1.7870  2.0986  1.4006
  301MOL0     H40622   5.819   1.526  10.319 -1.7223  2.7978  0.8677
  301MOL0     H40623   5.829   1.277  10.274  0.0495 -0.9480  0.1452
  301MOL0     H40624   5.668   1.349  10.276  0.9710  2.3163 -0.1100
  301MOL0     H40625   5.583   1.109  10.329 -0.9826 -1.2123 -1.4072
  301MOL0     H40626   5.736   1.039  10.306 -2.1358 -1.5332  2.1592
  301MOL0     H40627   5.613   1.213  10.087 -0.6288  0.0436 -0.1335
  301MOL0     H40628   5.624   1.031  10.087  2.2080 -0.5680  0.1984
  301MOL0     H40629   5.857   1.219  10.070 -0.8366  0.9359 -0.0993
  301MOL0     H40630   5.876   1.044  10.089 -0.0278  1.1037  0.0057
  301MOL0     H40631   5.737   1.058   9.684 -1.7941  3.4603 -0.1079
  301MOL0     H40632   5.843   1.290  10.675 -0.2997  0.2239  0.2415
  301MOL0     H40633   5.956   1.518  10.887 -0.8128 -1.6037  0.9284
  301MOL0     H40634   5.957   1.352  10.863  3.0383 -2.0940 -0.2524
  301MOL0     H40635   6.107   1.444  10.817 -0.3347  1.4132  1.1879
  302MOL0     O40636   6.495   6.142   9.288 -0.5349  0.4615 -0.5018
  302MOL0     C40637   6.458   6.066   9.381 -1.3087 -0.1257 -0.0825
  302MOL0     O40638   6.461   5.932   9.366 -0.1198  0.5296  0.2004
  302MOL0     C40639   6.557   5.851   9.309 -0.5493 -0.8057  0.4280
  302MOL0     C40640   6.664   5.900   9.228 -0.0053 -0.0153  0.5412
  302MOL0     C40641   6.743   5.804   9.163 -0.3637  0.2343 -0.6716
  302MOL0     C40642   6.722   5.666   9.173 -0.0369 -1.1207  0.9270
  302MOL0     O40643   6.814   5.592   9.104 -0.4037 -0.0259  0.9704
  302MOL0     C40644   6.836   5.453   9.138 -0.7666 -1.4616 -0.1868
  302MOL0     C40645   6.965   5.390   9.071 -0.0864 -0.8003 -0.5673
  302MOL0     C40646   6.978   5.415   8.920  1.3530  0.0170 -0.2094
  302MOL0     C40647   7.122   5.382   8.870 -0.7221  0.1864 -0.4631
  302MOL0     C40648   7.184   5.242   8.904  0.7100 -1.3078  0.2099
  302MOL0     C40649   7.125   5.134   8.820 -0.3061 -0.1796  0.7539
  302MOL0     C40650   7.159   4.999   8.874  1.0608  0.2901 -0.0147
  302MOL0     C40651   7.092   4.901   8.785 -0.6424 -0.0760  0.1179
  302MOL0     N40652   7.122   4.761   8.815  0.4094 -0.2578  0.5990
  302MOL0     C40653   7.246   4.718   8.816  0.8563 -0.6473  0.2938
  302MOL0     C40654   7.238   4.585   8.823 -0.0831 -0.1826 -0.6346
  302MOL0     C40655   7.356   4.484   8.822  0.0541  0.6681  0.8928
  302MOL0     C40656   7.389   4.441   8.964  0.0385  0.4447 -0.1381
  302MOL0     C40657   7.533   4.397   8.978 -0.5581  0.9036 -0.9436
  302MOL0     C40658   7.572   4.296   8.870 -0.0106 -0.1099 -0.2133
  302MOL0     O40659   7.702   4.253   8.901  0.0323  1.0736 -0.4442
  302MOL0     C40660   7.805   4.341   8.868  0.1043 -0.5898 -0.0003
  302MOL0     C40661   7.800   4.463   8.804  0.4055 -0.0561  0.4063
  302MOL0     C40662   7.913   4.546   8.787  0.3664 -0.2164  0.3275
  302MOL0     C40663   8.038   4.506   8.832  0.5951  0.4600  0.8584
  302MOL0     C40664   8.157   4.591   8.825 -0.0242 -0.9969 -0.5183
  302MOL0     O40665   8.271   4.529   8.886 -0.6027  0.4230  0.0911
  302MOL0     C40666   8.372   4.608   8.928  1.0312 -0.5420 -0.7690
  302MOL0     C40667   8.500   4.572   8.895 -0.8955 -0.0751 -0.0163
  302MOL0     C40668   8.603   4.666   8.918  0.7744 -0.5276  0.1174
  302MOL0     C40669   8.580   4.795   8.969  0.7994  0.6588  0.1574
  302MOL0     O40670   8.687   4.874   8.977  0.8486 -0.8578 -0.3041
  302MOL0     C40671   8.662   5.012   8.922 -0.8635  0.2294 -0.2336
  302MOL0     C40672   8.617   5.099   9.040  0.3842 -0.6989 -0.6661
  302MOL0     C40673   8.708   5.229   9.052  0.1001  0.3460 -1.0265
  302MOL0     C40674   8.843   5.198   9.117  0.2394  0.0497  0.2269
  302MOL0     C40675   8.923   5.327   9.131  0.5893 -0.5296  0.3789
  302MOL0     C40676   9.050   5.291   9.197  0.0919  0.1977  0.1671
  302MOL0     C40677   9.109   5.421   9.246 -0.0984 -0.5777  0.1022
  302MOL0     C40678   9.257   5.398   9.289 -0.0662 -0.2876 -1.2731
  302MOL0    Cl40679   9.308   5.538   9.397  0.1898 -0.3600 -0.0976
  302MOL0     C40680   8.447   4.826   8.999 -1.2005 -0.3620 -0.5711
  302MOL0     C40681   8.348   4.736   8.981  0.0348  0.4249  0.0372
  302MOL0     O40682   8.159   4.708   8.781  1.1047  0.5446  0.5285
  302MOL0     C40683   8.037   4.377   8.896 -0.8277 -0.5410 -0.9170
  302MOL0     C40684   7.929   4.293   8.906  0.0135 -0.3217 -0.4794
  302MOL0     N40685   7.097   4.545   8.841 -0.7332 -0.7446  0.0274
  302MOL0     N40686   7.033   4.661   8.819  0.4870  0.4512 -0.9735
  302MOL0     C40687   6.627   5.623   9.260 -1.0500  0.3221 -1.0186
  302MOL0     C40688   6.550   5.714   9.331  0.7331 -0.2436  0.1723
  302MOL0     C40689   6.362   6.118   9.478 -0.0698  0.2434  0.2744
  302MOL0     C40690   6.265   6.014   9.518 -0.2612  0.1736  0.7460
  302MOL0     C40691   6.143   6.045   9.584  0.4290  0.1432  0.4612
  302MOL0     C40692   6.116   6.173   9.618 -0.2790  0.4624 -0.0181
  302MOL0     O40693   5.998   6.224   9.667  0.1873  0.2209 -0.4672
  302MOL0     C40694   5.894   6.130   9.714 -0.3309  0.2851 -0.6118
  302MOL0     C40695   5.770   6.206   9.770  0.2989  0.2569 -0.1750
  302MOL0     C40696   5.638   6.199   9.693  0.4390 -0.2799  0.6376
  302MOL0     C40697   5.509   6.234   9.767  0.4962 -0.0222 -0.4521
  302MOL0     C40698   5.391   6.216   9.676  0.2908  0.0255  0.1891
  302MOL0     C40699   5.304   6.186   9.594 -0.3934 -0.2747 -0.4674
  302MOL0     C40700   6.216   6.272   9.588 -0.1271 -0.4199 -0.0013
  302MOL0     C40701   6.333   6.251   9.512  0.4688 -0.5764  0.9778
  302MOL0     C40702   6.420   6.379   9.514  0.5270 -0.0918  0.1049
  302MOL0     H40703   6.667   6.007   9.209 -2.8848  0.5627  2.6456
  302MOL0     H40704   6.824   5.833   9.097  2.2721  1.2132  2.7608
  302MOL0     H40705   6.851   5.450   9.246 -1.8745  0.4053  0.0773
  302MOL0     H40706   6.750   5.391   9.110 -0.0370 -1.7535 -1.9665
  302MOL0     H40707   6.952   5.283   9.090  1.0490 -0.9034 -0.2778
  302MOL0     H40708   7.054   5.424   9.126 -0.4037 -0.5279 -0.2161
  302MOL0     H40709   6.967   5.520   8.891  0.6100  0.0436  0.1428
  302MOL0     H40710   6.907   5.355   8.864  1.4204  0.2900 -0.5879
  302MOL0     H40711   7.118   5.398   8.762 -0.7361  0.7518 -0.3845
  302MOL0     H40712   7.196   5.455   8.905  0.9789 -1.6912  0.0556
  302MOL0     H40713   7.290   5.254   8.879 -0.0970  2.3706 -2.3050
  302MOL0     H40714   7.174   5.226   9.011 -0.4503 -2.0004  0.0146
  302MOL0     H40715   7.017   5.148   8.815 -0.0566  1.4377 -1.9310
  302MOL0     H40716   7.161   5.145   8.717 -3.8780  0.8603 -0.5238
  302MOL0     H40717   7.124   4.997   8.978 -2.7582 -3.0203 -1.1185
  302MOL0     H40718   7.267   4.983   8.874  0.8293 -2.0606 -2.7320
  302MOL0     H40719   6.984   4.912   8.797 -0.6494 -1.8797  2.3409
  302MOL0     H40720   7.137   4.915   8.686  1.3544 -1.5568  0.7579
  302MOL0     H40721   7.331   4.785   8.819 -1.4407  2.4628  1.1895
  302MOL0     H40722   7.317   4.401   8.762  2.2895 -0.1646  0.4855
  302MOL0     H40723   7.440   4.530   8.768 -0.9432 -0.4090 -1.7363
  302MOL0     H40724   7.373   4.515   9.044  1.9696 -0.4176  1.1164
  302MOL0     H40725   7.333   4.355   9.002  0.7122 -0.7897 -1.8397
  302MOL0     H40726   7.544   4.349   9.076  1.1258  0.5021 -1.2866
  302MOL0     H40727   7.592   4.489   8.980  1.8917 -0.5823  0.9811
  302MOL0     H40728   7.551   4.330   8.768 -0.8896 -1.4900 -0.5154
  302MOL0     H40729   7.497   4.218   8.886  0.2884  0.0715  2.4527
  302MOL0     H40730   7.706   4.498   8.765 -1.8772 -1.0051  4.4836
  302MOL0     H40731   7.912   4.642   8.736  2.4897 -0.4405 -0.1996
  302MOL0     H40732   8.531   4.481   8.846  2.4022  1.3378 -0.8410
  302MOL0     H40733   8.695   4.623   8.880  0.8367 -0.1172 -0.2048
  302MOL0     H40734   8.751   5.058   8.877 -1.4723 -0.5436 -2.3299
  302MOL0     H40735   8.581   5.003   8.849 -0.9000 -0.4796 -0.1133
  302MOL0     H40736   8.512   5.129   9.032  0.8755  1.1869 -0.5527
  302MOL0     H40737   8.619   5.044   9.135  1.0218  1.0483  0.3757
  302MOL0     H40738   8.737   5.274   8.957  1.2693  0.7714 -0.4868
  302MOL0     H40739   8.646   5.289   9.119 -0.3018 -1.2196  0.0555
  302MOL0     H40740   8.904   5.134   9.053 -0.4030  1.6758 -2.1240
  302MOL0     H40741   8.835   5.151   9.216  1.6256  0.0265  0.3464
  302MOL0     H40742   8.864   5.397   9.191  0.4302  1.9068 -2.3804
  302MOL0     H40743   8.931   5.385   9.039 -2.2102 -0.1246  0.3015
  302MOL0     H40744   9.028   5.230   9.285  1.8928 -0.5702  0.1280
  302MOL0     H40745   9.116   5.238   9.128  0.5237 -2.2146  2.2591
  302MOL0     H40746   9.054   5.454   9.334  2.0979 -0.6060  1.5716
  302MOL0     H40747   9.120   5.495   9.165 -0.2635 -0.2751  0.3532
  302MOL0     H40748   9.259   5.303   9.344  0.4522  0.4808  0.0814
  302MOL0     H40749   9.327   5.394   9.205  3.2531  1.3081  1.2041
  302MOL0     H40750   8.423   4.926   9.034 -1.3212 -0.4334 -0.4483
  302MOL0     H40751   8.247   4.771   9.001 -0.5292 -0.6567 -0.8001
  302MOL0     H40752   8.135   4.343   8.930  0.5258  1.7272 -2.2243
  302MOL0     H40753   7.930   4.189   8.938 -0.7690  0.6167  2.9458
  302MOL0     H40754   6.629   5.516   9.280  1.7891  0.6009  0.8028
  302MOL0     H40755   6.477   5.673   9.400  0.4432 -1.9674 -1.0868
  302MOL0     H40756   6.277   5.907   9.505  0.0379  0.0155  2.1719
  302MOL0     H40757   6.071   5.964   9.588  1.6236 -1.0189 -0.4974
  302MOL0     H40758   5.939   6.074   9.796 -0.1410  0.7994 -0.3589
  302MOL0     H40759   5.881   6.055   9.635 -0.7361 -1.5835  1.1592
  302MOL0     H40760   5.796   6.312   9.764  0.8811  0.0943 -0.6477
  302MOL0     H40761   5.747   6.184   9.874  2.0181  2.3403  0.7301
  302MOL0     H40762   5.621   6.102   9.646  1.1519  1.4072 -3.6360
  302MOL0     H40763   5.657   6.259   9.603 -3.2998  0.1874 -0.0328
  302MOL0     H40764   5.513   6.169   9.854  0.5861  1.2035  0.4820
  302MOL0     H40765   5.514   6.334   9.810 -1.6404  0.3822 -1.0143
  302MOL0     H40766   5.233   6.183   9.513 -0.6658 -0.3043 -0.2276
  302MOL0     H40767   6.190   6.374   9.615  0.3769 -0.0342 -0.9505
  302MOL0     H40768   6.380   6.456   9.581  0.3147 -0.8892  0.9125
  302MOL0     H40769   6.525   6.359   9.538  0.2926 -0.1397  1.1237
  302MOL0     H40770   6.405   6.416   9.412 -0.6126  0.0511  0.3096
  303MOL0     O40771   0.158   9.336   4.711 -0.3999  0.0099 -0.4522
  303MOL0     C40772   0.055   9.305   4.648  0.8757  0.3643  0.3791
  303MOL0     O40773   0.036   9.203   4.560  0.6142  0.0850 -0.1851
  303MOL0     C40774   0.145   9.128   4.515  0.5820 -0.4427  0.3766
  303MOL0     C40775   0.204   9.035   4.594 -0.0376  0.8156 -0.0724
  303MOL0     C40776   0.309   8.955   4.552 -0.4291  0.4005 -0.1669
  303MOL0     C40777   0.363   8.973   4.428 -0.5730  0.7435  0.8190
  303MOL0     O40778   0.469   8.903   4.380 -0.0141  0.0235  0.0695
  303MOL0     C40779   0.535   8.806   4.463 -1.4317 -0.2652 -0.3633
  303MOL0     C40780   0.686   8.778   4.431  0.5055 -0.3797  0.7147
  303MOL0     C40781   0.686   8.708   4.287 -0.4604  0.0770 -0.4511
  303MOL0     C40782   0.813   8.629   4.279  0.3529  0.4657  0.0758
  303MOL0     C40783   0.815   8.550   4.136 -0.6629 -0.4303  0.0709
  303MOL0     C40784   0.901   8.419   4.151 -0.0954  0.4628  1.3724
  303MOL0     C40785   0.938   8.338   4.015  0.3005  0.2364 -0.3756
  303MOL0     C40786   1.049   8.414   3.941  0.4060  0.3112  0.6183
  303MOL0     N40787   1.091   8.341   3.817  0.4922  0.2146  1.7552
  303MOL0     C40788   1.158   8.221   3.816  0.9363  0.2183 -0.5201
  303MOL0     C40789   1.141   8.171   3.686 -0.8257 -0.3794 -0.2754
  303MOL0     C40790   1.200   8.043   3.633 -0.2042  0.2137 -1.0016
  303MOL0     C40791   1.125   7.916   3.672 -0.1336  0.2771  0.2697
  303MOL0     C40792   1.219   7.801   3.666 -0.9226  1.3213 -0.9920
  303MOL0     C40793   1.143   7.664   3.701  0.0570  0.0250 -0.4946
  303MOL0     O40794   1.249   7.564   3.714  0.3360  0.1969 -0.4466
  303MOL0     C40795   1.268   7.480   3.609 -0.4029  0.6676  0.3087
  303MOL0     C40796   1.372   7.394   3.635 -0.4993  0.9697  0.1283
  303MOL0     C40797   1.414   7.302   3.536 -0.0096  0.2069 -0.2998
  303MOL0     C40798   1.368   7.314   3.403 -0.3758  0.4170 -0.2350
  303MOL0     C40799   1.418   7.234   3.287 -0.9952  0.1836  0.4447
  303MOL0     O40800   1.525   7.156   3.311 -0.5642  0.1558  0.9000
  303MOL0     C40801   1.585   7.076   3.222 -0.6088  0.3062  0.3277
  303MOL0     C40802   1.636   7.140   3.108  0.8265  0.0800 -0.1177
  303MOL0     C40803   1.717   7.067   3.022 -0.1581  0.6512  0.3977
  303MOL0     C40804   1.742   6.923   3.048 -0.3014  0.0003  0.2609
  303MOL0     O40805   1.809   6.838   2.962 -0.2037 -0.7226 -0.0431
  303MOL0     C40806   1.842   6.879   2.828  0.4352  0.6057 -0.1350
  303MOL0     C40807   1.992   6.922   2.799  0.5104  1.0861  0.5086
  303MOL0     C40808   2.096   6.846   2.887  0.0992 -0.3395  0.3400
  303MOL0     C40809   2.102   6.919   3.018  0.1945 -0.3983  0.3068
  303MOL0     C40810   2.206   6.848   3.110 -0.8191  0.2311  0.6836
  303MOL0     C40811   2.149   6.826   3.249 -0.3723  0.3067 -0.3592
  303MOL0     C40812   2.245   6.768   3.358 -0.6811  0.5664 -0.2155
  303MOL0     C40813   2.183   6.715   3.489 -0.6912  0.3112  0.9040
  303MOL0    Cl40814   2.085   6.854   3.560  0.1811 -0.3830  0.0782
  303MOL0     C40815   1.694   6.863   3.164  0.6353  0.5869  0.1711
  303MOL0     C40816   1.624   6.947   3.249  0.6507  0.7993  0.1886
  303MOL0     O40817   1.352   7.239   3.179  0.6160  0.3929  0.1629
  303MOL0     C40818   1.271   7.404   3.374 -1.1139 -0.5579  0.0297
  303MOL0     C40819   1.215   7.488   3.472 -0.0308 -0.0269 -0.2382
  303MOL0     N40820   1.054   8.249   3.618 -0.1348 -0.7077  0.4921
  303MOL0     N40821   1.030   8.351   3.696 -0.1443 -0.3323  0.4137
  303MOL0     C40822   0.310   9.070   4.342  0.4721  0.4021 -0.6656
  303MOL0     C40823   0.198   9.153   4.388  0.2347 -0.1032  0.4177
  303MOL0     C40824  -0.065   9.378   4.671  0.0036  0.2295 -0.5008
  303MOL0     C40825  -0.191   9.313   4.679 -1.0173  0.6218 -0.5160
  303MOL0     C40826  -0.309   9.385   4.706 -1.4794 -0.0963  0.0921
  303MOL0     C40827  -0.313   9.516   4.728  0.6101  0.4380 -0.4301
  303MOL0     O40828  -0.436   9.573   4.751  0.3036  0.6419  0.4349
  303MOL0     C40829  -0.456   9.702   4.696  0.7209  0.0445 -0.3879
  303MOL0     C40830  -0.601   9.729   4.675 -1.1245 -0.4913  0.3791
  303MOL0     C40831  -0.615   9.866   4.608  0.6944 -0.3279  1.1013
  303MOL0     C40832  -0.754   9.896   4.553 -0.0784 -0.6882  0.3735
  303MOL0     C40833  -0.852   9.913   4.660  0.3744 -1.0837 -0.6421
  303MOL0     C40834  -0.929   9.933   4.749  0.6324  0.2696  0.7122
  303MOL0     C40835  -0.188   9.586   4.717 -0.6369  0.6353  0.0988
  303MOL0     C40836  -0.068   9.514   4.688 -1.3731 -0.2943 -0.9264
  303MOL0     C40837   0.061   9.597   4.690  0.2758  0.3592 -0.0894
  303MOL0     H40838   0.171   9.026   4.696 -1.3935 -1.5422 -0.6384
  303MOL0     H40839   0.342   8.888   4.631  1.7165  1.9997  0.3782
  303MOL0     H40840   0.539   8.844   4.566  2.5079  0.2818 -0.5700
  303MOL0     H40841   0.488   8.707   4.472  2.8539 -2.4111  1.5856
  303MOL0     H40842   0.723   8.714   4.512  0.1280 -1.0067  0.3997
  303MOL0     H40843   0.748   8.868   4.424  0.6992 -0.5470  0.2638
  303MOL0     H40844   0.677   8.783   4.208 -1.2486 -1.1422 -1.5670
  303MOL0     H40845   0.601   8.640   4.281  0.4405 -1.1692  0.3598
  303MOL0     H40846   0.903   8.689   4.294  2.6851 -2.8433  0.4788
  303MOL0     H40847   0.817   8.551   4.355  2.1903 -2.1024 -2.4206
  303MOL0     H40848   0.715   8.531   4.096 -1.3528  0.4722  1.2776
  303MOL0     H40849   0.869   8.614   4.066 -0.4550  0.5174  1.0745
  303MOL0     H40850   0.996   8.447   4.198  2.2419  0.3514 -2.7810
  303MOL0     H40851   0.851   8.344   4.213 -1.3926 -0.3295 -0.5555
  303MOL0     H40852   0.846   8.334   3.956  1.5903 -1.2638 -2.4203
  303MOL0     H40853   0.962   8.240   4.058 -0.9602  0.1525  0.1841
  303MOL0     H40854   1.003   8.509   3.914 -1.8458 -0.2486  2.2002
  303MOL0     H40855   1.133   8.440   4.007  2.0219  0.7849 -1.5148
  303MOL0     H40856   1.209   8.172   3.898 -0.6182  3.9553  3.0230
  303MOL0     H40857   1.217   8.051   3.526 -0.2784  1.1641 -0.9442
  303MOL0     H40858   1.297   8.036   3.685 -0.8036 -0.0039  0.1231
  303MOL0     H40859   1.087   7.930   3.773 -0.8781 -0.7823  0.1593
  303MOL0     H40860   1.035   7.910   3.610 -0.8677  2.2891  1.0760
  303MOL0     H40861   1.303   7.810   3.736 -1.0689  0.3500 -0.6736
  303MOL0     H40862   1.259   7.796   3.565  0.0530 -3.2145 -0.6065
  303MOL0     H40863   1.070   7.633   3.625 -0.7698  1.3249 -0.2771
  303MOL0     H40864   1.086   7.669   3.795 -0.3589  3.8718 -0.8137
  303MOL0     H40865   1.423   7.396   3.731 -1.0993  0.3908  0.4749
  303MOL0     H40866   1.491   7.227   3.552  0.1127  0.5795  0.9414
  303MOL0     H40867   1.596   7.232   3.066  1.7207 -0.4174 -2.1850
  303MOL0     H40868   1.752   7.126   2.938 -2.0046  1.2694  0.0171
  303MOL0     H40869   1.818   6.794   2.765 -0.8866  0.4980  0.4903
  303MOL0     H40870   1.777   6.961   2.796  2.2357  2.0826 -0.1794
  303MOL0     H40871   2.013   6.900   2.693 -0.3478 -0.8991  0.7003
  303MOL0     H40872   2.006   7.030   2.814  0.8469  0.8990  1.6459
  303MOL0     H40873   2.076   6.739   2.892  2.6667 -1.0316 -1.7830
  303MOL0     H40874   2.200   6.855   2.853  0.5593  3.6222  2.2523
  303MOL0     H40875   2.005   6.935   3.066 -0.7253  2.5314 -2.2364
  303MOL0     H40876   2.137   7.021   3.001 -1.9650 -0.1247 -3.6231
  303MOL0     H40877   2.305   6.893   3.095 -0.9885  0.0723 -1.0728
  303MOL0     H40878   2.234   6.750   3.070 -1.3369  1.4821 -3.1837
  303MOL0     H40879   2.099   6.917   3.282 -1.3795 -0.3507  0.0097
  303MOL0     H40880   2.056   6.769   3.234  0.4065 -0.8047 -1.1420
  303MOL0     H40881   2.311   6.848   3.394 -0.5469 -0.5270  2.1293
  303MOL0     H40882   2.297   6.683   3.314 -2.1657 -0.6265  0.2486
  303MOL0     H40883   2.113   6.636   3.458 -0.1563  1.1313 -2.9602
  303MOL0     H40884   2.262   6.677   3.554  0.6698 -1.0059 -1.4004
  303MOL0     H40885   1.710   6.761   3.195 -2.5900  0.6625  2.7142
  303MOL0     H40886   1.598   6.900   3.344 -0.6726 -1.3992 -1.1914
  303MOL0     H40887   1.219   7.399   3.279  2.3080 -3.1647 -1.9806
  303MOL0     H40888   1.137   7.552   3.433 -2.7519 -3.2186 -0.5936
  303MOL0     H40889   0.345   9.067   4.240 -1.0679 -4.6117 -1.3421
  303MOL0     H40890   0.155   9.234   4.330  0.1680 -0.4194  0.0260
  303MOL0     H40891  -0.196   9.205   4.665 -0.1009  0.4706  0.2591
  303MOL0     H40892  -0.399   9.325   4.715 -0.4920 -1.6013  0.4618
  303MOL0     H40893  -0.401   9.712   4.602  0.3113  3.2301 -0.3980
  303MOL0     H40894  -0.414   9.780   4.760 -0.3844  1.1059 -0.9101
  303MOL0     H40895  -0.651   9.730   4.773  2.6654 -1.4074  2.5151
  303MOL0     H40896  -0.632   9.650   4.606  2.1438 -3.3937  1.9361
  303MOL0     H40897  -0.551   9.864   4.519 -1.5938  0.5080 -0.6592
  303MOL0     H40898  -0.568   9.940   4.673  2.8016  0.1857 -0.8797
  303MOL0     H40899  -0.740   9.994   4.507  0.2412 -1.2817 -0.8239
  303MOL0     H40900  -0.794   9.830   4.475  2.6276  0.0320 -1.7651
  303MOL0     H40901  -0.994   9.969   4.827 -0.7115 -3.3297  1.4535
  303MOL0     H40902  -0.168   9.692   4.731  1.4480  0.8637 -3.3235
  303MOL0     H40903   0.094   9.593   4.586 -1.5153 -1.0791 -0.6486
  303MOL0     H40904   0.042   9.705   4.702  3.0512  0.8179  0.7624
  303MOL0     H40905   0.132   9.563   4.766  0.3150 -1.2677 -0.8258
  304MOL0     O40906   5.670   3.623   8.934  0.2059  0.1251  0.1054
  304MOL0     C40907   5.671   3.732   8.987 -0.0471  0.3318  0.7221
  304MOL0     O40908   5.753   3.832   8.950 -0.1308 -0.0330 -0.2761
  304MOL0     C40909   5.841   3.790   8.853  0.4075  0.9133 -0.9454
  304MOL0     C40910   5.948   3.696   8.872 -0.0258 -0.5138  0.6697
  304MOL0     C40911   6.038   3.683   8.771  0.1107 -0.2469  0.1875
  304MOL0     C40912   6.016   3.737   8.643  0.0689  0.0542  0.0270
  304MOL0     O40913   6.087   3.686   8.540  0.5557 -0.4060  0.1515
  304MOL0     C40914   6.038   3.567   8.475 -0.5235 -0.2120  0.1224
  304MOL0     C40915   6.115   3.432   8.509 -0.3891 -0.2949  0.2434
  304MOL0     C40916   6.094   3.383   8.659  0.9427 -0.9309  0.3890
  304MOL0     C40917   6.097   3.226   8.682  0.0774  0.9428  0.2996
  304MOL0     C40918   6.072   3.189   8.830 -0.0758 -0.2907  0.4267
  304MOL0     C40919   5.926   3.215   8.882 -0.3119 -0.5604  0.2527
  304MOL0     C40920   5.900   3.145   9.011 -0.1812  0.4112 -1.1547
  304MOL0     C40921   6.004   3.146   9.118  0.2550 -0.3697 -0.6491
  304MOL0     N40922   5.960   3.081   9.246 -0.0595  0.3767 -0.1524
  304MOL0     C40923   5.954   3.135   9.373  0.3966  0.3800 -0.5709
  304MOL0     C40924   5.985   3.035   9.458 -1.1368  0.6090  0.1290
  304MOL0     C40925   5.969   3.049   9.607  0.2945  0.9264 -0.0674
  304MOL0     C40926   5.826   3.035   9.646 -0.7784 -0.9943 -0.9450
  304MOL0     C40927   5.771   2.900   9.598  0.2101 -0.7552 -0.1105
  304MOL0     C40928   5.615   2.878   9.647 -0.1474 -0.3033 -0.5950
  304MOL0     O40929   5.548   3.009   9.660 -0.3039  0.4153 -0.1612
  304MOL0     C40930   5.414   3.013   9.684 -0.3252  1.2886  0.3182
  304MOL0     C40931   5.330   2.895   9.700 -0.2956 -0.3872  0.9210
  304MOL0     C40932   5.197   2.918   9.713  0.7265  0.0818 -0.0089
  304MOL0     C40933   5.137   3.043   9.728 -0.3505  0.0360 -0.0716
  304MOL0     C40934   4.990   3.053   9.751 -0.6846  0.5675  0.3318
  304MOL0     O40935   4.949   3.178   9.794 -0.4004  0.0278  0.1144
  304MOL0     C40936   4.814   3.204   9.824 -0.7065  0.4165 -0.7333
  304MOL0     C40937   4.789   3.295   9.928 -0.9909 -0.0343  0.1769
  304MOL0     C40938   4.658   3.317   9.977 -0.0972  0.5696  0.1770
  304MOL0     C40939   4.548   3.267   9.909 -0.6807 -0.1451  0.0504
  304MOL0     O40940   4.434   3.298   9.976 -0.5646 -0.0935 -0.3158
  304MOL0     C40941   4.307   3.240   9.942 -0.1675 -0.7301 -0.1400
  304MOL0     C40942   4.197   3.306  10.019 -0.3217  0.1677  0.0285
  304MOL0     C40943   4.218   3.297  10.170  0.1455  0.2495  0.5542
  304MOL0     C40944   4.149   3.167  10.227  0.5417 -0.4030  0.9728
  304MOL0     C40945   4.160   3.155  10.377  0.2842 -0.3132  0.0388
  304MOL0     C40946   4.303   3.140  10.429 -0.2660  0.4117  0.1511
  304MOL0     C40947   4.310   3.132  10.581  0.0904  0.3169  0.3061
  304MOL0     C40948   4.276   3.256  10.648 -0.3858 -0.6764  0.0953
  304MOL0    Cl40949   4.372   3.401  10.594 -0.2818 -0.1650  0.1952
  304MOL0     C40950   4.570   3.189   9.793 -0.0331  0.3237  0.2728
  304MOL0     C40951   4.704   3.150   9.759 -0.4491 -0.1760  0.0348
  304MOL0     O40952   4.918   2.949   9.735  0.3963  0.2094  0.0343
  304MOL0     C40953   5.224   3.155   9.735  0.2116 -0.3785 -0.6252
  304MOL0     C40954   5.357   3.137   9.702 -0.6309 -0.4626 -0.1404
  304MOL0     N40955   6.018   2.931   9.380  0.0991  0.6114 -0.0368
  304MOL0     N40956   6.001   2.952   9.259 -0.2041 -0.0229  0.5368
  304MOL0     C40957   5.905   3.818   8.627 -0.3402 -0.6062 -0.5135
  304MOL0     C40958   5.824   3.852   8.736  0.0258 -0.5203  0.6403
  304MOL0     C40959   5.580   3.768   9.102 -0.1352 -0.9674 -0.2522
  304MOL0     C40960   5.560   3.904   9.128 -0.5044  0.0531 -0.5259
  304MOL0     C40961   5.468   3.936   9.231 -0.1876 -1.1377  0.4466
  304MOL0     C40962   5.396   3.838   9.296 -0.3161  0.0671 -0.3414
  304MOL0     O40963   5.306   3.879   9.384  0.5898 -0.7870 -0.5259
  304MOL0     C40964   5.236   3.786   9.470  0.5284  0.0143 -0.0482
  304MOL0     C40965   5.207   3.838   9.605 -0.1745  0.6436 -0.0238
  304MOL0     C40966   5.118   3.955   9.600 -0.1940 -0.2884  0.9456
  304MOL0     C40967   5.082   3.980   9.752 -0.5600  0.4930 -0.8050
  304MOL0     C40968   5.010   4.106   9.764  0.4175 -0.9378 -0.1243
  304MOL0     C40969   4.930   4.193   9.779  0.2172 -0.6875  0.0749
  304MOL0     C40970   5.407   3.703   9.262  0.0820  0.4602  0.5100
  304MOL0     C40971   5.504   3.664   9.165 -0.1773  0.0019 -0.1617
  304MOL0     C40972   5.536   3.513   9.167 -0.5173 -0.4723  0.5950
  304MOL0     H40973   5.965   3.655   8.971  0.2127 -1.1142  0.3798
  304MOL0     H40974   6.135   3.633   8.771  0.4203  0.3493  0.1398
  304MOL0     H40975   5.933   3.569   8.504 -0.5056  1.8263  0.1962
  304MOL0     H40976   6.033   3.589   8.368  0.9437 -1.9693 -0.3677
  304MOL0     H40977   6.222   3.442   8.494 -0.5464  3.8339  0.5087
  304MOL0     H40978   6.066   3.365   8.438 -1.2027 -1.9190  2.2489
  304MOL0     H40979   5.991   3.407   8.688  0.0917 -2.8876 -0.7778
  304MOL0     H40980   6.159   3.446   8.720 -2.1615  3.3806 -0.2931
  304MOL0     H40981   6.041   3.177   8.603  1.0923  2.9950 -1.8324
  304MOL0     H40982   6.201   3.198   8.664  0.5797  1.8526  1.5809
  304MOL0     H40983   6.090   3.082   8.841  0.4341 -0.4070 -1.2448
  304MOL0     H40984   6.147   3.241   8.891  0.9005 -1.8610  0.6189
  304MOL0     H40985   5.908   3.322   8.896  0.7376 -0.1079 -1.5186
  304MOL0     H40986   5.851   3.179   8.812 -1.5849  1.2794  0.5994
  304MOL0     H40987   5.873   3.039   9.008  1.8239 -0.1832 -0.1863
  304MOL0     H40988   5.803   3.180   9.049  0.8946 -0.2282  2.5831
  304MOL0     H40989   6.084   3.087   9.071  1.1937 -0.4350  0.9471
  304MOL0     H40990   6.033   3.250   9.135  1.2538 -0.6697 -0.4435
  304MOL0     H40991   5.926   3.231   9.414  0.7697  0.3791 -0.3094
  304MOL0     H40992   6.028   2.972   9.658 -2.1520 -0.8512  0.3239
  304MOL0     H40993   5.987   3.154   9.629 -0.9152  1.5103 -1.6792
  304MOL0     H40994   5.836   3.027   9.755 -1.3946 -4.0830 -1.0446
  304MOL0     H40995   5.766   3.119   9.609 -0.7046 -0.2313  0.6028
  304MOL0     H40996   5.839   2.821   9.633  3.5373  2.1170  0.4837
  304MOL0     H40997   5.774   2.898   9.489  1.3263 -2.0226 -0.0839
  304MOL0     H40998   5.601   2.823   9.741 -1.7492  0.8411 -0.1142
  304MOL0     H40999   5.570   2.820   9.565  1.0947 -1.8465 -0.2355
  304MOL0     H41000   5.361   2.792   9.688  0.3416 -0.0294 -0.7328
  304MOL0     H41001   5.123   2.837   9.712 -0.9318  1.5265  0.4019
  304MOL0     H41002   4.875   3.344   9.971  0.0627 -2.8688  1.5950
  304MOL0     H41003   4.647   3.388  10.058  3.6804  1.9002 -0.2812
  304MOL0     H41004   4.292   3.245   9.834  0.9142  0.5410 -0.2544
  304MOL0     H41005   4.304   3.136   9.977 -0.0997  0.4645  3.8700
  304MOL0     H41006   4.196   3.412   9.992 -0.2951  0.1813  0.0800
  304MOL0     H41007   4.099   3.268   9.990  0.0934  0.5896 -2.0783
  304MOL0     H41008   4.321   3.314  10.202  0.5430  3.5888 -1.8791
  304MOL0     H41009   4.162   3.379  10.217  0.0616  0.4029  0.1921
  304MOL0     H41010   4.178   3.077  10.172 -0.2539  0.3552 -0.7850
  304MOL0     H41011   4.041   3.166  10.210  0.7855 -0.3615 -0.7352
  304MOL0     H41012   4.102   3.067  10.406  0.4665 -0.8153 -1.0911
  304MOL0     H41013   4.113   3.239  10.430  0.2666 -0.7795  0.7803
  304MOL0     H41014   4.348   3.050  10.387  1.2654  1.7252 -1.1834
  304MOL0     H41015   4.351   3.235  10.401 -0.7039  0.1068 -1.7893
  304MOL0     H41016   4.409   3.105  10.620 -1.5265 -2.9834  2.5455
  304MOL0     H41017   4.238   3.057  10.613  0.1287  0.6731  1.2796
  304MOL0     H41018   4.169   3.279  10.640 -0.3139 -0.9941 -2.9581
  304MOL0     H41019   4.296   3.246  10.755 -2.0540  1.3915  0.6805
  304MOL0     H41020   4.487   3.151   9.734  0.9963 -2.5459  0.5070
  304MOL0     H41021   4.716   3.081   9.676 -1.4352 -1.1610  0.6853
  304MOL0     H41022   5.185   3.253   9.759  0.6799 -0.4453  0.4993
  304MOL0     H41023   5.426   3.220   9.688 -1.7533  0.7016  1.0426
  304MOL0     H41024   5.887   3.853   8.526  0.3541  0.2774 -0.3425
  304MOL0     H41025   5.741   3.920   8.719  1.3211  0.6657 -1.3815
  304MOL0     H41026   5.604   3.990   9.079 -1.7045  0.7470 -0.4280
  304MOL0     H41027   5.457   4.042   9.251  1.5972 -1.0542  1.2032
  304MOL0     H41028   5.290   3.693   9.488 -0.8896 -0.4373  2.3095
  304MOL0     H41029   5.138   3.757   9.429 -1.5257  0.7492  3.8466
  304MOL0     H41030   5.305   3.859   9.647  0.6953 -1.9123 -0.6023
  304MOL0     H41031   5.156   3.752   9.650  2.2165 -1.6961 -1.5205
  304MOL0     H41032   5.034   3.928   9.536 -0.0262  0.0870  0.5658
  304MOL0     H41033   5.165   4.037   9.545 -2.9082  0.5487 -0.2846
  304MOL0     H41034   5.016   3.896   9.776  1.0089 -0.7326 -0.6829
  304MOL0     H41035   5.167   3.993   9.819 -0.7536  2.3731 -0.8503
  304MOL0     H41036   4.853   4.265   9.797 -0.4079 -1.3784  0.1659
  304MOL0     H41037   5.361   3.622   9.317  0.7184 -1.1640 -1.2699
  304MOL0     H41038   5.461   3.456   9.111 -1.6052 -0.8596  2.3824
  304MOL0     H41039   5.639   3.486   9.142  0.5294  0.6850  3.3149
  304MOL0     H41040   5.526   3.489   9.273  1.0274  1.3862  1.2109
  305MOL0     O41041   2.261   2.390   0.090  0.5544 -0.0595  0.1722
  305MOL0     C41042   2.228   2.449  -0.018 -0.7538 -0.5740  0.1218
  305MOL0     O41043   2.311   2.510  -0.098  0.5050  0.1525  0.7352
  305MOL0     C41044   2.441   2.525  -0.070 -0.3635 -0.0456 -0.1037
  305MOL0     C41045   2.499   2.623  -0.157 -0.9861  0.3715 -0.2656
  305MOL0     C41046   2.632   2.647  -0.145 -0.2622  0.4442  0.3677
  305MOL0     C41047   2.724   2.559  -0.070  0.3279 -0.5726  0.3014
  305MOL0     O41048   2.851   2.583  -0.042 -0.4394 -1.5032  0.0661
  305MOL0     C41049   2.905   2.719  -0.068  0.2568 -0.5553 -0.6670
  305MOL0     C41050   3.038   2.738   0.006  0.0132 -0.0789 -0.0668
  305MOL0     C41051   3.141   2.623   0.006 -0.3171  0.0763  1.1204
  305MOL0     C41052   3.281   2.667   0.056 -0.1486 -0.1800  0.5739
  305MOL0     C41053   3.385   2.557   0.036  1.0711  0.1446  0.1504
  305MOL0     C41054   3.519   2.583   0.100 -0.6385  0.3800 -0.3833
  305MOL0     C41055   3.634   2.512   0.037 -0.0723 -0.2975  0.4479
  305MOL0     C41056   3.612   2.359   0.050 -0.2413 -1.0003  0.2435
  305MOL0     N41057   3.642   2.317   0.191  0.7155  0.4017 -0.3539
  305MOL0     C41058   3.554   2.304   0.295  0.7566 -0.3775  0.6979
  305MOL0     C41059   3.630   2.245   0.396  0.3993 -0.3163 -0.0962
  305MOL0     C41060   3.593   2.215   0.539 -0.2229  0.0790  0.0511
  305MOL0     C41061   3.666   2.296   0.644 -0.1735  0.2529 -0.8751
  305MOL0     C41062   3.813   2.239   0.669 -0.1054  1.0504  0.0342
  305MOL0     C41063   3.826   2.091   0.727 -0.2129 -0.0268  0.2066
  305MOL0     O41064   3.764   2.077   0.857 -0.8425 -0.4155 -0.9669
  305MOL0     C41065   3.650   2.011   0.869  0.9357  0.1481  1.2919
  305MOL0     C41066   3.525   2.072   0.891 -0.1942 -0.1597 -0.0239
  305MOL0     C41067   3.403   1.996   0.884  0.1025  0.8519 -0.8555
  305MOL0     C41068   3.402   1.857   0.850 -0.3468  0.6664 -0.8228
  305MOL0     C41069   3.289   1.763   0.848 -0.1264  0.4374 -0.2030
  305MOL0     O41070   3.319   1.636   0.811 -0.5415  0.0653  0.0580
  305MOL0     C41071   3.242   1.535   0.849 -0.2181 -0.2194 -0.2911
  305MOL0     C41072   3.115   1.519   0.810 -0.3896  0.1915 -0.3545
  305MOL0     C41073   3.046   1.399   0.841 -0.7256  0.2740  0.4809
  305MOL0     C41074   3.096   1.289   0.907  0.2971 -0.1586 -0.2749
  305MOL0     O41075   3.031   1.169   0.921  0.0620 -0.0109 -0.0723
  305MOL0     C41076   2.909   1.143   0.837 -0.3129  0.3258 -1.1319
  305MOL0     C41077   2.838   1.018   0.882 -0.1421  0.1806 -0.7010
  305MOL0     C41078   2.921   0.891   0.836 -0.8644 -0.3167 -0.7510
  305MOL0     C41079   2.832   0.757   0.859 -0.4989  0.8771 -0.8174
  305MOL0     C41080   2.915   0.646   0.780 -0.4915 -0.6163  0.4695
  305MOL0     C41081   2.850   0.503   0.803 -0.1523  0.0707 -0.0684
  305MOL0     C41082   2.710   0.477   0.741 -0.1129 -0.1523 -0.0699
  305MOL0     C41083   2.673   0.330   0.750  0.5989  0.3267  0.3243
  305MOL0    Cl41084   2.552   0.292   0.621 -0.1364 -0.1955  0.0085
  305MOL0     C41085   3.226   1.316   0.961 -0.7191  0.9434 -0.8847
  305MOL0     C41086   3.295   1.434   0.929  0.1847 -0.4765  0.4693
  305MOL0     O41087   3.180   1.810   0.878 -0.3369 -0.3695 -0.0625
  305MOL0     C41088   3.542   1.801   0.832  0.9027 -0.5237  0.5511
  305MOL0     C41089   3.659   1.878   0.835  0.0837 -0.6364  0.4411
  305MOL0     N41090   3.762   2.227   0.351 -0.4025 -0.3567 -0.2424
  305MOL0     N41091   3.767   2.292   0.238  0.1550  0.1978 -0.1032
  305MOL0     C41092   2.670   2.449  -0.000  0.9058  0.0119 -0.8683
  305MOL0     C41093   2.525   2.431  -0.005 -0.1995  0.1029 -0.4232
  305MOL0     C41094   2.082   2.453  -0.052  0.3982  0.4557  0.3523
  305MOL0     C41095   1.998   2.373   0.026  0.5622 -0.1724  0.1385
  305MOL0     C41096   1.860   2.360  -0.005  0.2332  0.2206 -0.8783
  305MOL0     C41097   1.803   2.422  -0.111 -0.2763 -0.3349 -0.4816
  305MOL0     O41098   1.671   2.406  -0.147  0.6281 -0.3378 -0.3451
  305MOL0     C41099   1.585   2.300  -0.087 -0.5526 -0.4425  0.8398
  305MOL0     C41100   1.454   2.306  -0.172 -0.3839 -0.2956 -0.2470
  305MOL0     C41101   1.370   2.420  -0.151 -0.0795 -0.2281  0.7144
  305MOL0     C41102   1.272   2.408  -0.035  0.3847 -0.0673 -0.2955
  305MOL0     C41103   1.159   2.330  -0.055 -0.0590 -1.4550 -0.8997
  305MOL0     C41104   1.071   2.252  -0.068  0.1616  0.0850 -0.1825
  305MOL0     C41105   1.883   2.519  -0.182 -0.2724 -0.5141 -0.2269
  305MOL0     C41106   2.015   2.539  -0.149  0.1618  0.3511 -0.0507
  305MOL0     C41107   2.089   2.662  -0.205 -0.6313 -0.2517 -0.2782
  305MOL0     H41108   2.440   2.698  -0.209  2.6828  3.4136 -0.4646
  305MOL0     H41109   2.663   2.736  -0.200 -2.0356  0.2652 -1.0307
  305MOL0     H41110   2.921   2.741  -0.174 -3.4690  0.6309 -1.1426
  305MOL0     H41111   2.842   2.797  -0.022 -1.3054 -1.9351 -0.3885
  305MOL0     H41112   3.014   2.776   0.106 -1.4180 -0.9564 -0.0632
  305MOL0     H41113   3.090   2.826  -0.034  0.9693 -0.9107 -0.7111
  305MOL0     H41114   3.154   2.589  -0.097 -2.0586  2.2535  0.0969
  305MOL0     H41115   3.092   2.547   0.067 -1.1218  1.3356  2.1129
  305MOL0     H41116   3.310   2.757   0.000  2.0118 -2.1097 -1.6179
  305MOL0     H41117   3.271   2.692   0.162  1.8345 -1.1581  1.0278
  305MOL0     H41118   3.334   2.461   0.049  0.6346  0.1049 -1.6392
  305MOL0     H41119   3.396   2.548  -0.072 -1.1645 -2.6986  0.0379
  305MOL0     H41120   3.554   2.686   0.087  1.5933 -0.5207 -2.0322
  305MOL0     H41121   3.522   2.556   0.206  1.3317 -1.1920 -0.7899
  305MOL0     H41122   3.722   2.538   0.096  2.8149  3.2493 -4.6195
  305MOL0     H41123   3.655   2.557  -0.060  1.4198  0.0601  0.9141
  305MOL0     H41124   3.515   2.329   0.011  0.3246 -1.5845 -0.7364
  305MOL0     H41125   3.697   2.323  -0.008 -1.4199 -2.7026 -0.4826
  305MOL0     H41126   3.447   2.314   0.306  0.9111  0.2838  1.8250
  305MOL0     H41127   3.486   2.223   0.560  0.1486  0.6016  1.8915
  305MOL0     H41128   3.618   2.109   0.545 -0.1655  0.0505 -0.5729
  305MOL0     H41129   3.680   2.400   0.613  1.7374  1.4371  3.3327
  305MOL0     H41130   3.605   2.286   0.734  1.7427  0.2176  0.4619
  305MOL0     H41131   3.875   2.302   0.733 -0.5123  0.3451  1.1521
  305MOL0     H41132   3.864   2.259   0.574 -1.1351  0.7303 -0.6135
  305MOL0     H41133   3.933   2.074   0.733  0.2578  2.6737  0.5181
  305MOL0     H41134   3.786   2.023   0.651  1.6368 -1.6800  0.6376
  305MOL0     H41135   3.500   2.176   0.910 -3.5811 -1.1113  1.5639
  305MOL0     H41136   3.305   2.042   0.894 -0.0824  0.1169  1.3592
  305MOL0     H41137   3.063   1.606   0.769  1.0668  2.1465  1.7286
  305MOL0     H41138   2.948   1.390   0.796 -2.0528  1.0911  3.0413
  305MOL0     H41139   2.836   1.222   0.854 -0.6867  0.1089 -1.7096
  305MOL0     H41140   2.930   1.127   0.731 -0.2976 -2.8184 -0.7662
  305MOL0     H41141   2.826   1.012   0.991 -1.1569  0.3081 -0.7903
  305MOL0     H41142   2.736   1.014   0.843  0.5847  0.9424 -2.7867
  305MOL0     H41143   2.943   0.896   0.729  2.2356 -0.8282 -0.2470
  305MOL0     H41144   3.022   0.892   0.879 -0.1748 -1.1092 -2.2378
  305MOL0     H41145   2.731   0.762   0.818 -0.3678  1.1750 -1.1118
  305MOL0     H41146   2.812   0.740   0.965 -2.0118 -1.6048 -1.4187
  305MOL0     H41147   3.019   0.659   0.810 -0.2167  0.6977 -0.9084
  305MOL0     H41148   2.919   0.666   0.672  2.1783  1.4938  0.8469
  305MOL0     H41149   2.916   0.427   0.758  0.7890 -0.6587  2.3649
  305MOL0     H41150   2.840   0.481   0.910  2.2647  1.3724  0.5004
  305MOL0     H41151   2.700   0.514   0.639  0.2704 -0.8223 -0.3538
  305MOL0     H41152   2.632   0.530   0.797 -0.2178  1.1005 -1.3637
  305MOL0     H41153   2.761   0.268   0.730  0.2276 -1.1620  2.8822
  305MOL0     H41154   2.643   0.307   0.853 -0.5382 -0.5617 -0.1820
  305MOL0     H41155   3.265   1.232   1.017  1.2213 -0.6196 -4.2281
  305MOL0     H41156   3.390   1.470   0.968  0.7924 -1.0358 -0.4716
  305MOL0     H41157   3.558   1.697   0.804  4.0607  0.4493 -2.0496
  305MOL0     H41158   3.760   1.845   0.815 -0.6876 -2.3079 -1.0773
  305MOL0     H41159   2.734   2.387   0.062 -1.3486 -3.1518 -1.4599
  305MOL0     H41160   2.494   2.344   0.053 -1.5267 -0.9340 -2.5829
  305MOL0     H41161   2.051   2.311   0.098 -1.2071 -3.8278 -1.4371
  305MOL0     H41162   1.797   2.306   0.065 -0.3139  0.2025 -1.3893
  305MOL0     H41163   1.553   2.316   0.017 -0.2306 -0.1425  0.8976
  305MOL0     H41164   1.631   2.202  -0.097  1.2225  0.5354 -1.5860
  305MOL0     H41165   1.397   2.215  -0.147 -0.3976 -0.5453 -1.1736
  305MOL0     H41166   1.474   2.293  -0.278 -0.7845 -0.5427 -0.2945
  305MOL0     H41167   1.319   2.427  -0.247 -2.6822 -1.4857  1.8838
  305MOL0     H41168   1.427   2.512  -0.135  2.4590 -1.3369 -1.3596
  305MOL0     H41169   1.336   2.393   0.052  0.3052 -1.8186 -0.5132
  305MOL0     H41170   1.236   2.509  -0.013 -1.7573 -0.3278 -2.1642
  305MOL0     H41171   0.985   2.188  -0.077 -1.5452  1.8527  2.2948
  305MOL0     H41172   1.836   2.582  -0.257 -0.0359 -0.6503 -0.4933
  305MOL0     H41173   2.165   2.639  -0.280 -0.4895  2.0939 -0.9212
  305MOL0     H41174   2.018   2.728  -0.256  0.4915 -1.0350 -3.0399
  305MOL0     H41175   2.148   2.711  -0.127  2.8146 -2.2364 -1.3980
  306MOL0     O41176   4.182   3.963   4.706 -0.8500 -0.1355 -0.4475
  306MOL0     C41177   4.169   4.080   4.664 -0.2832 -0.2134 -0.0045
  306MOL0     O41178   4.272   4.174   4.665 -0.8050 -0.7968 -0.2691
  306MOL0     C41179   4.388   4.157   4.741 -0.2170  1.2437  0.3051
  306MOL0     C41180   4.504   4.178   4.673  0.0103  0.0926  0.6655
  306MOL0     C41181   4.626   4.180   4.732  0.2696 -0.4865  0.2886
  306MOL0     C41182   4.633   4.165   4.871 -0.0455 -0.1730  0.7894
  306MOL0     O41183   4.759   4.180   4.928  0.0056  0.4486  0.5386
  306MOL0     C41184   4.799   4.081   5.016  0.3232 -0.6720 -0.3626
  306MOL0     C41185   4.949   4.086   5.028 -0.2076 -0.0721  0.0791
  306MOL0     C41186   5.039   4.063   4.906 -0.1248  0.7620  0.8579
  306MOL0     C41187   5.184   4.055   4.939 -0.9478  0.5708  0.5742
  306MOL0     C41188   5.251   4.177   4.878  0.3961  0.0232  0.1537
  306MOL0     C41189   5.397   4.168   4.894  0.3044  0.1454 -0.2403
  306MOL0     C41190   5.447   4.197   5.033 -0.5761  0.1227 -0.9507
  306MOL0     C41191   5.435   4.343   5.056  0.5440  0.5244  0.2103
  306MOL0     N41192   5.534   4.388   5.155 -0.2562  0.0298 -0.3706
  306MOL0     C41193   5.671   4.384   5.133 -0.2291  0.0753 -0.2316
  306MOL0     C41194   5.716   4.441   5.247 -0.1834  0.4885  0.3544
  306MOL0     C41195   5.857   4.473   5.289 -0.2854  1.5354 -0.5178
  306MOL0     C41196   5.874   4.619   5.321  0.6187 -0.6303 -0.7553
  306MOL0     C41197   5.905   4.711   5.204  1.2922 -0.3855 -0.3726
  306MOL0     C41198   5.956   4.844   5.260 -0.7158  0.3915  0.5194
  306MOL0     O41199   5.945   4.941   5.151  0.3774  0.2951  1.2877
  306MOL0     C41200   5.868   5.054   5.165  0.7562  0.1766  0.2627
  306MOL0     C41201   5.815   5.109   5.049  1.0368 -0.0737  0.8416
  306MOL0     C41202   5.723   5.223   5.059  0.3072 -0.8423  0.3087
  306MOL0     C41203   5.701   5.287   5.182  0.0131 -1.2102  0.4482
  306MOL0     C41204   5.613   5.405   5.193  0.4650  0.4862 -0.1616
  306MOL0     O41205   5.506   5.418   5.106 -0.5802 -0.2779  0.1179
  306MOL0     C41206   5.425   5.524   5.126 -0.1788 -0.6947  0.4149
  306MOL0     C41207   5.294   5.496   5.153  0.6076 -0.3559  0.0678
  306MOL0     C41208   5.203   5.606   5.156  0.2628 -0.4590 -0.8428
  306MOL0     C41209   5.247   5.739   5.133  0.9131  0.4419 -0.1582
  306MOL0     O41210   5.172   5.856   5.121  0.0673 -0.3171 -0.8449
  306MOL0     C41211   5.030   5.838   5.077  0.1500 -0.3747 -0.8149
  306MOL0     C41212   4.935   5.915   5.178  0.4739  0.5814 -1.0545
  306MOL0     C41213   4.930   6.065   5.158 -0.7964 -0.2052  0.6197
  306MOL0     C41214   4.852   6.142   5.269 -1.0304 -0.8360  1.1143
  306MOL0     C41215   4.848   6.288   5.244 -0.2146 -0.3940  0.7128
  306MOL0     C41216   4.992   6.345   5.227  0.3437  0.2297  0.3414
  306MOL0     C41217   4.977   6.499   5.212 -0.5235 -0.9656 -0.4055
  306MOL0     C41218   5.118   6.557   5.187  0.2611  0.4597  0.7768
  306MOL0    Cl41219   5.111   6.735   5.165 -0.6361  0.7095  0.3619
  306MOL0     C41220   5.384   5.762   5.117  0.3735 -0.3306 -1.1030
  306MOL0     C41221   5.467   5.648   5.111  0.0136 -0.1095 -0.6125
  306MOL0     O41222   5.624   5.468   5.300 -0.8293  0.2137  0.4848
  306MOL0     C41223   5.768   5.239   5.293 -0.1682 -0.4538 -0.2343
  306MOL0     C41224   5.856   5.128   5.283  0.5859  0.2732  0.4578
  306MOL0     N41225   5.609   4.469   5.329 -0.1731 -0.3071  0.1103
  306MOL0     N41226   5.495   4.442   5.270 -0.3324  0.2880 -0.0610
  306MOL0     C41227   4.512   4.140   4.942 -0.6797  0.0533 -0.2372
  306MOL0     C41228   4.393   4.135   4.881  0.0797  0.4954 -0.1712
  306MOL0     C41229   4.045   4.149   4.621  0.4308  0.8529  0.1668
  306MOL0     C41230   4.045   4.287   4.579 -0.5288 -0.0856 -0.3299
  306MOL0     C41231   3.931   4.352   4.535 -0.3095  0.0688  0.5783
  306MOL0     C41232   3.813   4.281   4.518 -0.3677 -0.1686 -0.3950
  306MOL0     O41233   3.710   4.358   4.470  0.4287  0.3518 -0.2261
  306MOL0     C41234   3.586   4.291   4.423 -1.3087  0.1897  0.4849
  306MOL0     C41235   3.607   4.227   4.282  0.3516  0.3884 -1.7584
  306MOL0     C41236   3.635   4.331   4.170 -0.5207 -0.2070  0.3275
  306MOL0     C41237   3.626   4.285   4.026  0.3704  0.5676 -0.8129
  306MOL0     C41238   3.488   4.274   3.988 -0.1267 -0.5409  0.4287
  306MOL0     C41239   3.368   4.276   3.971  0.7776  0.0187 -1.3959
  306MOL0     C41240   3.814   4.138   4.546  0.2609 -0.4529 -0.0124
  306MOL0     C41241   3.923   4.080   4.604 -0.2053 -0.0372  0.6744
  306MOL0     C41242   3.924   3.935   4.641  0.1057  0.2544 -0.0170
  306MOL0     H41243   4.505   4.190   4.565 -0.6623  2.1572  0.8372
  306MOL0     H41244   4.707   4.219   4.672 -1.8643  3.3288 -0.4307
  306MOL0     H41245   4.762   4.107   5.116  0.2708 -0.4997 -0.4282
  306MOL0     H41246   4.768   3.977   5.001  1.1108 -0.9932  0.1610
  306MOL0     H41247   4.980   4.013   5.103 -0.0586  0.8340  0.9115
  306MOL0     H41248   4.978   4.184   5.067  1.7459 -0.5793 -0.0285
  306MOL0     H41249   5.010   4.139   4.832 -2.5504  2.0689  2.9905
  306MOL0     H41250   5.010   3.970   4.857  2.5613  1.3653 -2.3012
  306MOL0     H41251   5.206   4.048   5.046  2.2514 -0.6060 -0.0691
  306MOL0     H41252   5.227   3.963   4.900 -2.3899 -0.7849  2.0421
  306MOL0     H41253   5.226   4.187   4.772  1.4049 -2.3312 -0.3588
  306MOL0     H41254   5.206   4.263   4.927 -1.9616 -0.8730 -0.3297
  306MOL0     H41255   5.431   4.069   4.866 -0.3519 -0.0814 -0.2562
  306MOL0     H41256   5.437   4.245   4.827  1.0001  1.5738  1.7013
  306MOL0     H41257   5.553   4.170   5.034 -0.0735  1.0100  4.8004
  306MOL0     H41258   5.394   4.144   5.113 -2.1081 -1.0990 -2.6818
  306MOL0     H41259   5.450   4.400   4.963  0.5885 -0.2982 -0.2996
  306MOL0     H41260   5.333   4.364   5.090 -0.3333 -1.4240 -1.0654
  306MOL0     H41261   5.730   4.352   5.049  0.3177  0.3272  0.0523
  306MOL0     H41262   5.873   4.421   5.384 -2.2127  6.0425  2.5886
  306MOL0     H41263   5.930   4.434   5.217 -3.5456 -3.8932 -1.3999
  306MOL0     H41264   5.784   4.656   5.370  1.2154  1.1956 -0.9539
  306MOL0     H41265   5.953   4.615   5.397 -1.9923 -0.0586  2.2153
  306MOL0     H41266   5.806   4.731   5.163  1.1184  1.2582  0.7639
  306MOL0     H41267   5.974   4.673   5.129  0.1073 -1.0252 -1.1688
  306MOL0     H41268   6.061   4.836   5.293 -0.4215  1.3351 -0.1487
  306MOL0     H41269   5.889   4.870   5.342  0.3504  0.6131  1.3536
  306MOL0     H41270   5.826   5.051   4.958 -3.0484  0.6349 -0.3336
  306MOL0     H41271   5.671   5.248   4.967 -3.6374 -1.2244  2.2045
  306MOL0     H41272   5.264   5.393   5.170  1.8911 -0.7903 -0.1254
  306MOL0     H41273   5.099   5.588   5.183  0.0036  3.8141  2.0442
  306MOL0     H41274   5.015   5.888   4.981  0.3406  1.4937  0.0770
  306MOL0     H41275   4.994   5.735   5.071 -1.4180  0.2077 -2.1967
  306MOL0     H41276   4.836   5.875   5.154  0.3124 -0.2251  0.7593
  306MOL0     H41277   4.961   5.890   5.282 -1.1036  3.1892  0.0542
  306MOL0     H41278   5.035   6.093   5.164 -0.8449  1.0210 -2.5034
  306MOL0     H41279   4.900   6.073   5.053 -0.1351 -0.5225  0.3984
  306MOL0     H41280   4.893   6.123   5.368  1.8829 -1.7471 -0.1699
  306MOL0     H41281   4.752   6.098   5.266 -0.6148 -1.7996  1.1588
  306MOL0     H41282   4.810   6.343   5.330  2.5566  1.1819  1.0676
  306MOL0     H41283   4.790   6.314   5.155  0.0920  1.2108  0.9438
  306MOL0     H41284   5.037   6.323   5.325 -1.0351  1.0316  1.2018
  306MOL0     H41285   5.050   6.302   5.146 -1.0991 -1.4989  0.1666
  306MOL0     H41286   4.958   6.547   5.309 -1.6945  0.7792 -1.4375
  306MOL0     H41287   4.907   6.526   5.132  1.2010 -0.1227 -1.6856
  306MOL0     H41288   5.180   6.532   5.274  0.8987  0.1927  0.2580
  306MOL0     H41289   5.166   6.511   5.100 -0.7809  1.1423 -0.1823
  306MOL0     H41290   5.426   5.861   5.102  0.8880 -0.2958  0.4161
  306MOL0     H41291   5.574   5.659   5.099  0.0280  1.4879  0.5548
  306MOL0     H41292   5.775   5.271   5.396  2.0958  0.4464 -0.6010
  306MOL0     H41293   5.907   5.096   5.373  0.8121  0.9307  0.5712
  306MOL0     H41294   4.520   4.137   5.050  2.9701  1.0805 -0.3473
  306MOL0     H41295   4.301   4.114   4.934  0.5050  2.1911  1.3223
  306MOL0     H41296   4.132   4.348   4.601 -3.2368  2.4442  6.3595
  306MOL0     H41297   3.939   4.458   4.513 -2.5165 -0.6981 -5.9897
  306MOL0     H41298   3.513   4.370   4.406 -2.2458 -0.3090  1.9632
  306MOL0     H41299   3.555   4.216   4.497 -1.9281 -1.1939 -1.1220
  306MOL0     H41300   3.517   4.167   4.266  1.5553 -1.7219 -0.9920
  306MOL0     H41301   3.684   4.154   4.306  0.5928  1.0157 -0.5292
  306MOL0     H41302   3.733   4.377   4.184 -1.7590  3.9520 -2.8737
  306MOL0     H41303   3.563   4.412   4.187  0.3228  0.2996  1.6315
  306MOL0     H41304   3.688   4.351   3.964  0.7801  2.9535  1.9359
  306MOL0     H41305   3.679   4.190   4.022  2.0422  1.3768  0.7776
  306MOL0     H41306   3.261   4.282   3.978  0.4972 -1.3331 -3.6091
  306MOL0     H41307   3.728   4.073   4.532 -1.8604  1.9734  0.9093
  306MOL0     H41308   3.990   3.879   4.575  0.0217  1.5896 -1.2854
  306MOL0     H41309   3.956   3.924   4.745 -3.0249 -0.5245  0.9696
  306MOL0     H41310   3.828   3.884   4.626  0.7963 -0.7974 -0.9086
  307MOL0     O41311   1.630   8.183   0.172 -0.1627  1.2621  0.4666
  307MOL0     C41312   1.645   8.117   0.069 -0.7483  0.4528 -0.2035
  307MOL0     O41313   1.762   8.086   0.010  0.4324  0.5280 -0.1109
  307MOL0     C41314   1.874   8.108   0.088 -0.7289  0.7592 -0.2883
  307MOL0     C41315   1.891   8.025   0.204  0.4762  0.7268  1.1636
  307MOL0     C41316   2.009   8.049   0.280  0.9203  0.6966  0.4780
  307MOL0     C41317   2.102   8.143   0.240 -0.8471 -0.0077  0.1149
  307MOL0     O41318   2.208   8.146   0.328 -0.4878 -0.6535  0.2216
  307MOL0     C41319   2.320   8.230   0.292 -0.2177  0.5393 -0.0716
  307MOL0     C41320   2.408   8.252   0.412 -0.3133  0.1264 -0.1089
  307MOL0     C41321   2.485   8.134   0.466  0.0220  0.1915 -0.0055
  307MOL0     C41322   2.589   8.169   0.571  0.7693  0.7684  0.0600
  307MOL0     C41323   2.650   8.036   0.621 -0.5206  0.2082 -0.1888
  307MOL0     C41324   2.781   8.069   0.698 -0.8529 -1.1011  0.5393
  307MOL0     C41325   2.823   7.964   0.797 -0.3472  0.5033  0.3655
  307MOL0     C41326   2.746   7.955   0.936 -0.8081 -0.4001 -0.7246
  307MOL0     N41327   2.611   7.893   0.940  0.8991 -0.1904  0.9239
  307MOL0     C41328   2.493   7.960   0.953  0.3487  0.0323 -0.1408
  307MOL0     C41329   2.401   7.860   0.979 -0.5459  0.6616 -0.3164
  307MOL0     C41330   2.252   7.868   0.991 -0.2732 -0.2974 -0.8295
  307MOL0     C41331   2.167   7.835   0.868 -0.3368  0.7882 -0.1861
  307MOL0     C41332   2.023   7.836   0.907 -0.8366 -0.0673  0.1223
  307MOL0     C41333   1.937   7.822   0.783 -0.0187  0.6367 -0.8233
  307MOL0     O41334   1.971   7.702   0.701  0.1884  0.0233  0.2604
  307MOL0     C41335   1.894   7.688   0.583 -0.1904  0.2989 -0.8451
  307MOL0     C41336   1.888   7.564   0.517  0.3770  0.1197 -0.1843
  307MOL0     C41337   1.817   7.549   0.399  0.4302  0.2378  0.0117
  307MOL0     C41338   1.745   7.652   0.334 -0.0047  0.9798  0.2328
  307MOL0     C41339   1.670   7.637   0.211 -0.0476 -0.1836  0.1631
  307MOL0     O41340   1.684   7.516   0.140 -0.1801  0.6613  0.0065
  307MOL0     C41341   1.676   7.517   0.005 -0.2980 -0.1902  0.6732
  307MOL0     C41342   1.612   7.414  -0.055  0.7466 -0.5051  0.0248
  307MOL0     C41343   1.612   7.399  -0.195 -0.4099 -0.6300 -1.6193
  307MOL0     C41344   1.672   7.496  -0.275 -0.7729  0.1477 -0.7857
  307MOL0     O41345   1.665   7.469  -0.406 -0.6444 -0.3381  0.3660
  307MOL0     C41346   1.798   7.483  -0.479 -0.3928  0.0421 -0.1526
  307MOL0     C41347   1.787   7.393  -0.608  0.9510 -0.0311  0.1763
  307MOL0     C41348   1.662   7.416  -0.700 -0.7914  0.3299  0.5969
  307MOL0     C41349   1.662   7.550  -0.781 -0.0093  0.9339  0.2709
  307MOL0     C41350   1.768   7.552  -0.896  1.0174 -1.2098 -0.3346
  307MOL0     C41351   1.755   7.664  -0.999 -0.1739 -0.3169 -0.8248
  307MOL0     C41352   1.761   7.610  -1.146  0.1810  0.8751 -0.8410
  307MOL0     C41353   1.776   7.721  -1.237 -0.8642  0.2029 -0.0364
  307MOL0    Cl41354   1.710   7.674  -1.395 -0.3969 -0.2426 -0.1257
  307MOL0     C41355   1.734   7.601  -0.214  0.9611 -0.4976 -0.4559
  307MOL0     C41356   1.752   7.605  -0.079  0.7087  0.1539  0.4489
  307MOL0     O41357   1.611   7.737   0.176  0.0968 -0.1147  0.1404
  307MOL0     C41358   1.753   7.769   0.410 -1.1050  0.2194  0.9003
  307MOL0     C41359   1.826   7.792   0.527 -0.2087 -0.7522  0.4132
  307MOL0     N41360   2.468   7.737   0.978  0.3117 -0.5792 -0.2583
  307MOL0     N41361   2.593   7.763   0.949 -0.4758 -0.1134 -0.1228
  307MOL0     C41362   2.096   8.197   0.112  0.0541 -0.3709 -0.2949
  307MOL0     C41363   1.977   8.186   0.036 -0.2195  0.0795 -0.7299
  307MOL0     C41364   1.519   8.062   0.006  1.0279 -0.4226  0.5720
  307MOL0     C41365   1.519   7.940  -0.063 -0.1092 -0.3935  0.2083
  307MOL0     C41366   1.401   7.883  -0.115  0.1698  0.1914  0.2373
  307MOL0     C41367   1.284   7.951  -0.109 -0.2907 -0.7967 -0.1331
  307MOL0     O41368   1.178   7.890  -0.156  0.8861 -0.1757 -1.0016
  307MOL0     C41369   1.074   7.971  -0.216 -0.5150 -0.2844  0.0793
  307MOL0     C41370   0.960   7.889  -0.274 -0.0744 -0.3424  0.0448
  307MOL0     C41371   0.885   7.805  -0.180  0.5053  0.0185 -0.4375
  307MOL0     C41372   0.814   7.686  -0.251  0.9978  0.4418  0.3596
  307MOL0     C41373   0.743   7.596  -0.157  0.1285 -0.5843  1.4631
  307MOL0     C41374   0.693   7.510  -0.084 -0.8956 -0.2539 -0.7132
  307MOL0     C41375   1.278   8.077  -0.050 -0.1135  0.2212 -0.5152
  307MOL0     C41376   1.392   8.136   0.011  0.2717 -0.7775  0.0754
  307MOL0     C41377   1.381   8.289   0.044  1.0517 -0.1489 -0.1639
  307MOL0     H41378   1.806   7.967   0.239  1.2648  0.1840  2.2620
  307MOL0     H41379   2.014   8.000   0.377 -2.6792  2.4183  1.7091
  307MOL0     H41380   2.393   8.186   0.224  5.2639  0.3927  5.0369
  307MOL0     H41381   2.283   8.325   0.253  0.8419  0.8179 -0.4392
  307MOL0     H41382   2.342   8.280   0.494 -1.5077 -0.6185 -0.7877
  307MOL0     H41383   2.482   8.332   0.405  2.9205 -2.6677 -0.5379
  307MOL0     H41384   2.551   8.102   0.385  1.1487  4.3445 -0.9790
  307MOL0     H41385   2.419   8.052   0.494  1.1372 -1.1747 -1.2045
  307MOL0     H41386   2.664   8.227   0.517  1.0220 -2.0442 -2.9329
  307MOL0     H41387   2.537   8.231   0.645  1.0866  0.7728  0.2843
  307MOL0     H41388   2.577   7.986   0.686 -1.7372  1.8642 -0.2185
  307MOL0     H41389   2.671   7.966   0.540  2.2756 -0.6761  1.1569
  307MOL0     H41390   2.860   8.086   0.624 -1.1006 -3.6426 -0.4061
  307MOL0     H41391   2.768   8.166   0.746  0.2292  0.4435 -2.0586
  307MOL0     H41392   2.929   7.987   0.810 -0.9607  5.3071 -1.3256
  307MOL0     H41393   2.812   7.872   0.738  3.2545  1.1188 -1.5941
  307MOL0     H41394   2.805   7.905   1.012 -0.1872  3.5646  1.6842
  307MOL0     H41395   2.733   8.057   0.975 -3.3812 -1.6148  1.9269
  307MOL0     H41396   2.468   8.066   0.954  4.0022  1.0369  1.4349
  307MOL0     H41397   2.216   7.792   1.061 -0.7393  0.5259 -0.1631
  307MOL0     H41398   2.216   7.968   1.017 -0.8122 -0.8958  0.8462
  307MOL0     H41399   2.183   7.910   0.790  0.0033  1.8703  0.8859
  307MOL0     H41400   2.201   7.739   0.828  2.0616  1.1525  0.8399
  307MOL0     H41401   2.009   7.926   0.968  3.1098  0.7527  0.0928
  307MOL0     H41402   2.001   7.751   0.972 -0.6452 -1.3844 -1.4791
  307MOL0     H41403   1.951   7.911   0.720  0.6139 -0.4930 -2.3355
  307MOL0     H41404   1.835   7.826   0.823  0.2220 -0.0175 -0.1221
  307MOL0     H41405   1.945   7.481   0.558  0.4783  0.0346 -0.4955
  307MOL0     H41406   1.802   7.447   0.362  1.8792  0.7479 -2.2107
  307MOL0     H41407   1.551   7.351   0.007 -2.7177  1.1693 -1.4348
  307MOL0     H41408   1.554   7.322  -0.243 -2.6411 -1.1549  1.6156
  307MOL0     H41409   1.814   7.588  -0.507 -3.9687  1.0438  1.0190
  307MOL0     H41410   1.885   7.453  -0.421 -1.2339  1.3532  1.8656
  307MOL0     H41411   1.877   7.406  -0.669  0.1558 -3.5058 -2.0114
  307MOL0     H41412   1.778   7.292  -0.569  0.2996  0.8094  2.3090
  307MOL0     H41413   1.661   7.326  -0.762  3.9290 -1.2104  2.3327
  307MOL0     H41414   1.572   7.418  -0.637 -0.8566  2.2369  0.5028
  307MOL0     H41415   1.677   7.635  -0.714  0.3043  2.2345 -1.4001
  307MOL0     H41416   1.561   7.561  -0.823 -0.5540 -2.1364  0.5103
  307MOL0     H41417   1.762   7.454  -0.945 -0.2945 -1.1226 -0.3894
  307MOL0     H41418   1.869   7.554  -0.856  0.3311  2.2039  1.5706
  307MOL0     H41419   1.669   7.728  -0.980  0.7362  0.6570  0.1198
  307MOL0     H41420   1.844   7.727  -0.987 -1.8483  1.6776  2.1417
  307MOL0     H41421   1.663   7.564  -1.165 -1.3116  2.2969  2.5432
  307MOL0     H41422   1.840   7.537  -1.165 -1.0553 -0.6493 -0.3679
  307MOL0     H41423   1.714   7.801  -1.193 -0.0017  0.2595  1.1281
  307MOL0     H41424   1.873   7.766  -1.256 -1.6994  1.6308 -1.1734
  307MOL0     H41425   1.773   7.674  -0.283 -0.1895  2.2499  1.6037
  307MOL0     H41426   1.811   7.688  -0.042 -0.2048  1.1408 -0.2330
  307MOL0     H41427   1.699   7.857   0.377  0.6857  1.0827  0.1225
  307MOL0     H41428   1.824   7.895   0.561  1.0989  0.4542 -2.7682
  307MOL0     H41429   2.162   8.264   0.057 -3.9309  2.5738 -2.0105
  307MOL0     H41430   1.963   8.244  -0.055  1.9945  1.6002 -0.1855
  307MOL0     H41431   1.616   7.892  -0.066  1.4959  2.6757 -1.0660
  307MOL0     H41432   1.406   7.782  -0.154 -3.1825 -0.8882  2.2016
  307MOL0     H41433   1.106   8.041  -0.294 -0.4523  0.1836  0.5223
  307MOL0     H41434   1.033   8.036  -0.138 -0.5665  1.3889 -1.3031
  307MOL0     H41435   1.007   7.836  -0.357  1.9800  2.2294 -0.5998
  307MOL0     H41436   0.883   7.949  -0.323 -1.3926 -2.2130 -0.2780
  307MOL0     H41437   0.809   7.853  -0.116  0.2123 -2.2772  1.0558
  307MOL0     H41438   0.955   7.758  -0.110 -0.4690  1.1575  1.4046
  307MOL0     H41439   0.735   7.724  -0.316 -0.1981 -2.1559  0.1989
  307MOL0     H41440   0.892   7.646  -0.317  1.2675  0.3802  0.7073
  307MOL0     H41441   0.643   7.431  -0.030 -2.0801  0.9542  0.0185
  307MOL0     H41442   1.182   8.127  -0.047  0.6645  1.6917  1.5641
  307MOL0     H41443   1.479   8.337   0.047 -0.1375  2.4646  2.6573
  307MOL0     H41444   1.318   8.345  -0.026  1.1339  1.4596  0.9908
  307MOL0     H41445   1.326   8.296   0.139 -3.4011  1.7702 -2.5554
  308MOL0     O41446  10.559  10.113   1.491  0.6614 -0.2134  0.0796
  308MOL0     C41447  10.549  10.015   1.572 -1.5984 -0.3456 -1.0972
  308MOL0     O41448  10.431   9.978   1.639  0.1802 -0.2979  0.2755
  308MOL0     C41449  10.316  10.054   1.628 -1.1582  0.2044 -0.0680
  308MOL0     C41450  10.325  10.191   1.661 -0.3651  0.0042 -0.6129
  308MOL0     C41451  10.210  10.260   1.692  0.9938  0.3827 -0.1648
  308MOL0     C41452  10.082  10.196   1.691 -0.2921 -1.3161  0.8125
  308MOL0     O41453   9.961  10.261   1.707 -0.1719  0.1586  1.3698
  308MOL0     C41454   9.967  10.363   1.807  1.3657  0.4106 -1.3522
  308MOL0     C41455   9.819  10.376   1.869  0.4131 -0.1730  0.5018
  308MOL0     C41456   9.784  10.280   1.974  0.4174  1.3271 -0.4724
  308MOL0     C41457   9.639  10.250   1.989 -0.3456 -0.1927 -1.4010
  308MOL0     C41458   9.591  10.160   2.097  0.1384  0.2196  0.0170
  308MOL0     C41459   9.683  10.167   2.223  0.4341  0.7208  0.5836
  308MOL0     C41460   9.631  10.087   2.339 -0.3788 -0.5044  0.3311
  308MOL0     C41461   9.746  10.060   2.439 -0.3846  0.3291  1.1691
  308MOL0     N41462   9.697   9.969   2.534 -0.5453 -0.0152 -0.5628
  308MOL0     C41463   9.769   9.952   2.650 -0.0372  0.8680 -0.7105
  308MOL0     C41464   9.697   9.850   2.713 -0.0131 -0.0808 -0.2689
  308MOL0     C41465   9.759   9.788   2.826  0.6848 -0.5792 -0.4825
  308MOL0     C41466   9.787   9.885   2.946  0.0825  0.1366 -0.4499
  308MOL0     C41467   9.673   9.887   3.054  0.9372 -0.7186  0.1088
  308MOL0     C41468   9.627   9.748   3.118 -0.1242 -0.2540  0.7337
  308MOL0     O41469   9.737   9.684   3.190 -0.2825  0.6228  0.3835
  308MOL0     C41470   9.738   9.548   3.209  0.2639  0.0206 -0.2667
  308MOL0     C41471   9.868   9.503   3.232  0.8774  0.1471  0.0573
  308MOL0     C41472   9.887   9.357   3.251  0.2473 -0.6920 -0.4744
  308MOL0     C41473   9.775   9.277   3.242  0.1072  0.6497 -0.5916
  308MOL0     C41474   9.785   9.127   3.275  0.8663 -1.4289  0.0645
  308MOL0     O41475   9.660   9.064   3.323 -0.0375 -0.0353 -0.0978
  308MOL0     C41476   9.668   8.937   3.368 -0.6653  0.6849 -0.9153
  308MOL0     C41477   9.765   8.895   3.463 -0.7804  0.3461 -0.6127
  308MOL0     C41478   9.779   8.756   3.483  0.5964  0.4604  0.1100
  308MOL0     C41479   9.686   8.665   3.431  0.1647 -0.0629 -0.1219
  308MOL0     O41480   9.687   8.525   3.457 -0.2591 -0.0243  0.7708
  308MOL0     C41481   9.756   8.476   3.564 -0.1445  0.9741 -0.6828
  308MOL0     C41482   9.741   8.324   3.545 -1.0253 -0.8293 -0.9274
  308MOL0     C41483   9.759   8.251   3.675 -0.4482 -0.6180  0.2232
  308MOL0     C41484   9.906   8.228   3.708  0.1857  0.3422 -0.3580
  308MOL0     C41485   9.908   8.136   3.830  0.7885  1.1545  0.3840
  308MOL0     C41486   9.916   8.229   3.949  0.1792  0.2961  0.0709
  308MOL0     C41487  10.045   8.294   3.992  1.4050 -0.0082 -0.2716
  308MOL0     C41488  10.180   8.225   3.987  0.1104  0.3612 -0.4027
  308MOL0    Cl41489  10.253   8.218   4.154  0.4614  0.0138  0.2761
  308MOL0     C41490   9.584   8.714   3.345 -0.4686  0.5909 -0.9180
  308MOL0     C41491   9.576   8.851   3.318  0.5218  0.6304  0.6505
  308MOL0     O41492   9.893   9.078   3.261 -0.3236  0.2884 -0.6219
  308MOL0     C41493   9.644   9.328   3.205  0.5591 -0.3182  0.0777
  308MOL0     C41494   9.623   9.468   3.194 -0.0377 -0.6335 -0.3369
  308MOL0     N41495   9.592   9.806   2.635 -0.0780 -0.6287  0.3022
  308MOL0     N41496   9.596   9.873   2.523  0.4111 -0.4343 -0.2408
  308MOL0     C41497  10.080  10.062   1.662  0.7083  0.6989 -0.8737
  308MOL0     C41498  10.192   9.993   1.634  0.0488  0.3510 -0.8102
  308MOL0     C41499  10.680   9.944   1.589  0.9184  0.0091 -0.6106
  308MOL0     C41500  10.796  10.025   1.607  0.2962  0.3305  0.1761
  308MOL0     C41501  10.917   9.964   1.606  0.5902 -0.2418  0.4294
  308MOL0     C41502  10.926   9.824   1.595  0.7416  0.0034  0.2383
  308MOL0     O41503  11.043   9.752   1.605  0.4895  0.9021 -0.0278
  308MOL0     C41504  11.160   9.817   1.552 -0.4266  0.2398  0.1712
  308MOL0     C41505  11.177   9.774   1.408  0.0852 -0.7075  1.0193
  308MOL0     C41506  11.289   9.859   1.335 -0.1957  0.6785  0.0997
  308MOL0     C41507  11.428   9.796   1.347  0.1614  0.2883 -0.6335
  308MOL0     C41508  11.521   9.879   1.267  0.3373  0.2263 -0.0090
  308MOL0     C41509  11.593   9.941   1.190  0.3591 -0.0908 -0.0469
  308MOL0     C41510  10.814   9.742   1.591  0.2530  1.2538 -0.3144
  308MOL0     C41511  10.684   9.803   1.587  0.1189  0.5961  0.2074
  308MOL0     C41512  10.560   9.723   1.584  0.1032 -0.0900  0.4330
  308MOL0     H41513  10.419  10.241   1.682 -0.8613  0.5622  0.3569
  308MOL0     H41514  10.220  10.366   1.710  1.1220  0.3197  0.1461
  308MOL0     H41515  10.029  10.331   1.891  0.7758  0.5900 -0.8390
  308MOL0     H41516  10.010  10.455   1.765  0.3140  1.6280  0.0960
  308MOL0     H41517   9.749  10.370   1.785  2.0691 -0.6166 -0.8954
  308MOL0     H41518   9.801  10.475   1.913 -2.7902 -0.7369  0.7555
  308MOL0     H41519   9.821  10.319   2.070 -0.9455 -1.8571  1.5528
  308MOL0     H41520   9.839  10.190   1.944 -0.3813  0.9261 -0.7490
  308MOL0     H41521   9.597  10.347   2.017  1.2985 -0.0687  1.0264
  308MOL0     H41522   9.602  10.206   1.896  3.1489 -1.3191 -2.4258
  308MOL0     H41523   9.487  10.185   2.119 -0.1402 -1.2139  0.3669
  308MOL0     H41524   9.587  10.057   2.061 -0.7167 -0.3038  1.5317
  308MOL0     H41525   9.780  10.123   2.199  0.1966  0.8011 -0.5655
  308MOL0     H41526   9.692  10.271   2.257  2.8145  0.9320 -0.4997
  308MOL0     H41527   9.597   9.988   2.308  0.9786 -1.3988  1.5153
  308MOL0     H41528   9.547  10.131   2.394 -2.7250 -4.4109  0.2630
  308MOL0     H41529   9.825  10.002   2.390 -1.6516  1.3777 -2.4150
  308MOL0     H41530   9.799  10.149   2.475  2.6137 -1.1139  0.6279
  308MOL0     H41531   9.859   9.999   2.688  0.2230 -0.3483  0.2458
  308MOL0     H41532   9.692   9.707   2.857 -0.2886 -0.2385 -1.6457
  308MOL0     H41533   9.858   9.749   2.800  0.7123 -3.0588  2.6551
  308MOL0     H41534   9.877   9.843   2.993  0.2883  0.8625 -0.1798
  308MOL0     H41535   9.797   9.989   2.915 -2.9714  1.0205  1.0975
  308MOL0     H41536   9.578   9.928   3.019  1.2873 -0.8459 -1.0131
  308MOL0     H41537   9.695   9.956   3.136 -0.4309 -1.0317  0.7712
  308MOL0     H41538   9.594   9.679   3.039 -0.1101 -0.6952  1.1080
  308MOL0     H41539   9.545   9.767   3.188 -2.6476  1.6368 -2.4479
  308MOL0     H41540   9.954   9.568   3.242  0.4546  0.6957  0.1618
  308MOL0     H41541   9.988   9.317   3.259 -0.0584 -1.1350  2.0156
  308MOL0     H41542   9.836   8.965   3.504 -2.1103  2.2326 -1.3788
  308MOL0     H41543   9.860   8.718   3.544  0.3747  2.2392  1.5936
  308MOL0     H41544   9.865   8.489   3.572 -0.2642  1.4536  0.2387
  308MOL0     H41545   9.700   8.516   3.649 -3.2132  2.8299 -3.3406
  308MOL0     H41546   9.643   8.291   3.510 -1.7987 -0.7161  0.9746
  308MOL0     H41547   9.818   8.292   3.474  0.3704  1.0456 -0.3344
  308MOL0     H41548   9.709   8.304   3.756 -3.4087 -2.1034 -0.4637
  308MOL0     H41549   9.710   8.153   3.669  2.3218 -2.1154  0.3276
  308MOL0     H41550   9.969   8.316   3.722  1.2354 -0.2167 -1.3560
  308MOL0     H41551   9.952   8.170   3.628  1.1840 -1.4345  1.4058
  308MOL0     H41552   9.987   8.060   3.830  2.1323  2.4378  3.1652
  308MOL0     H41553   9.812   8.084   3.843  2.1366 -1.3627  0.8979
  308MOL0     H41554   9.843   8.308   3.929 -0.0928 -0.2847 -1.2921
  308MOL0     H41555   9.883   8.171   4.036 -3.0362  0.8793 -0.6365
  308MOL0     H41556  10.028   8.336   4.092  0.0210 -0.9764 -0.0810
  308MOL0     H41557  10.051   8.379   3.923 -1.9900 -0.0889 -0.8129
  308MOL0     H41558  10.166   8.122   3.953  1.8783  0.8887 -2.9556
  308MOL0     H41559  10.245   8.273   3.914  1.5684 -0.9261  0.0017
  308MOL0     H41560   9.515   8.640   3.307  1.2039 -1.8560  0.4637
  308MOL0     H41561   9.500   8.894   3.254 -1.4101  0.3429  2.6651
  308MOL0     H41562   9.551   9.272   3.204  0.3085  0.0900  0.3283
  308MOL0     H41563   9.523   9.506   3.177 -0.5540 -2.1808 -0.9927
  308MOL0     H41564   9.989  10.004   1.658 -0.1380  1.8704  0.3828
  308MOL0     H41565  10.190   9.885   1.632  0.6329  0.2653  1.2835
  308MOL0     H41566  10.785  10.131   1.626 -2.0582 -0.1165  1.5838
  308MOL0     H41567  11.009  10.018   1.622  0.1922  0.6393 -0.1755
  308MOL0     H41568  11.250   9.790   1.607 -1.5284 -1.9041  1.0472
  308MOL0     H41569  11.153   9.926   1.543 -1.5648  0.5056  3.2835
  308MOL0     H41570  11.081   9.787   1.359  1.5959 -0.3239 -2.0748
  308MOL0     H41571  11.211   9.670   1.398  2.1210 -0.0404  0.3318
  308MOL0     H41572  11.295   9.961   1.373  0.9606  0.9902 -0.8608
  308MOL0     H41573  11.257   9.856   1.230 -0.2775  2.2499  0.0605
  308MOL0     H41574  11.463   9.780   1.449  0.5855  0.6837 -0.7156
  308MOL0     H41575  11.424   9.700   1.293  0.7488 -0.1492  0.0891
  308MOL0     H41576  11.664   9.988   1.125  1.3600 -1.1527  0.2436
  308MOL0     H41577  10.826   9.634   1.589 -1.0261  1.0604  0.9071
  308MOL0     H41578  10.483   9.752   1.656 -2.0152 -1.2216 -1.2474
  308MOL0     H41579  10.517   9.732   1.484 -0.0007 -2.6881  0.1858
  308MOL0     H41580  10.566   9.615   1.603  0.4447  0.1625  1.9210
  309MOL0     O41581   2.663   1.156  10.433 -0.9205  0.2991  0.1976
  309MOL0     C41582   2.657   1.258  10.502  0.2861  0.3158  0.1791
  309MOL0     O41583   2.748   1.359  10.507 -0.0283  1.0687 -0.1026
  309MOL0     C41584   2.861   1.341  10.436  0.6845  0.1660 -0.0457
  309MOL0     C41585   2.915   1.445  10.348  0.1416  0.5475 -0.0484
  309MOL0     C41586   3.036   1.427  10.276 -0.1335  0.8725 -0.6665
  309MOL0     C41587   3.110   1.306  10.281  0.0955 -0.6356 -0.3850
  309MOL0     O41588   3.222   1.298  10.213 -1.0185  0.7449  0.5887
  309MOL0     C41589   3.277   1.165  10.196  0.4883  0.3272  0.7334
  309MOL0     C41590   3.409   1.180  10.111 -0.1350  0.4921 -0.7743
  309MOL0     C41591   3.495   1.047  10.102  0.0334 -0.4219  0.6819
  309MOL0     C41592   3.560   1.018  10.242 -0.4789 -0.3076  0.4322
  309MOL0     C41593   3.686   0.925  10.218  0.4624 -0.0324  0.3895
  309MOL0     C41594   3.745   0.846  10.333 -0.1052  0.5904  0.3239
  309MOL0     C41595   3.775   0.934  10.449 -0.4180  0.6458 -0.4874
  309MOL0     C41596   3.884   1.034  10.420 -0.1399 -0.3371  0.2203
  309MOL0     N41597   3.915   1.116  10.542  0.9400  0.5508  0.7316
  309MOL0     C41598   3.998   1.086  10.642  0.0791 -0.0197 -0.0695
  309MOL0     C41599   4.003   1.198  10.715  0.7529  0.6301 -0.0706
  309MOL0     C41600   4.093   1.225  10.836 -0.4557 -0.4890 -0.0668
  309MOL0     C41601   4.195   1.332  10.816 -0.7967 -0.5006 -0.1701
  309MOL0     C41602   4.288   1.326  10.937  0.2768  0.4457  0.7328
  309MOL0     C41603   4.403   1.222  10.915 -0.3541 -0.4670 -0.7476
  309MOL0     O41604   4.499   1.209  11.013  0.2973 -0.5603  0.3521
  309MOL0     C41605   4.599   1.302  11.029  0.2584 -0.7426 -0.5666
  309MOL0     C41606   4.724   1.299  10.961  0.0281 -0.4688  0.6871
  309MOL0     C41607   4.812   1.399  10.979 -1.2686 -0.4619  0.0108
  309MOL0     C41608   4.790   1.509  11.060 -0.0657  0.6759  0.2131
  309MOL0     C41609   4.900   1.608  11.081 -0.9394  1.0433  0.3149
  309MOL0     O41610   4.855   1.716  11.153  0.3123 -0.4952 -0.1636
  309MOL0     C41611   4.938   1.821  11.170  0.0783 -0.2613 -0.2648
  309MOL0     C41612   4.924   1.941  11.094  0.6119  0.5897 -0.8645
  309MOL0     C41613   5.003   2.047  11.115 -0.3992  0.3821 -0.4940
  309MOL0     C41614   5.098   2.035  11.225  0.9286 -0.8053 -0.2910
  309MOL0     O41615   5.187   2.134  11.246  0.0786 -0.0162 -0.3128
  309MOL0     C41616   5.140   2.268  11.243 -0.3124  0.3678 -0.5806
  309MOL0     C41617   5.166   2.342  11.114  0.0120  0.1352  0.5650
  309MOL0     C41618   5.317   2.325  11.079  0.5408 -0.6212 -0.3256
  309MOL0     C41619   5.357   2.352  10.939  0.4470 -0.5759 -0.7329
  309MOL0     C41620   5.483   2.279  10.895 -0.3420 -0.0748 -0.0801
  309MOL0     C41621   5.545   2.317  10.750  0.2073 -0.5207 -0.2736
  309MOL0     C41622   5.641   2.218  10.686 -0.4888  0.6070  0.4859
  309MOL0     C41623   5.777   2.230  10.748 -0.2230 -0.2080  0.3715
  309MOL0    Cl41624   5.874   2.093  10.697 -0.0118  0.3159  0.1365
  309MOL0     C41625   5.108   1.917  11.297  0.2927  0.0034 -0.0410
  309MOL0     C41626   5.030   1.814  11.273 -0.1599 -0.4152 -1.1648
  309MOL0     O41627   5.021   1.577  11.052 -0.1603 -0.2304  0.8399
  309MOL0     C41628   4.670   1.512  11.131  0.2734  0.7417 -0.0407
  309MOL0     C41629   4.571   1.411  11.127  0.1525 -0.4553  0.0624
  309MOL0     N41630   3.932   1.298  10.654 -0.8213 -0.6778 -0.0361
  309MOL0     N41631   3.869   1.244  10.557 -0.0261 -0.0103  1.0639
  309MOL0     C41632   3.055   1.210  10.369 -0.5935 -0.0967 -0.1190
  309MOL0     C41633   2.942   1.223  10.447  0.2694 -0.0519  0.4521
  309MOL0     C41634   2.545   1.281  10.598  0.0695  0.5556  0.0498
  309MOL0     C41635   2.495   1.165  10.661 -0.5898  0.3139  0.6214
  309MOL0     C41636   2.388   1.175  10.747  0.3512 -0.4418  0.4397
  309MOL0     C41637   2.331   1.291  10.780  0.5462 -0.8706  0.4752
  309MOL0     O41638   2.245   1.315  10.877  0.1396  0.1759 -0.0415
  309MOL0     C41639   2.155   1.210  10.911  0.1976  1.1976  0.0058
  309MOL0     C41640   2.038   1.269  10.994 -0.0703  0.1077 -0.3297
  309MOL0     C41641   1.922   1.319  10.903  1.4445 -0.7454  0.2916
  309MOL0     C41642   1.795   1.356  10.977  0.2456 -0.0377 -0.2772
  309MOL0     C41643   1.680   1.380  10.884  0.6588 -0.0753  0.6441
  309MOL0     C41644   1.593   1.428  10.815 -0.2389  0.0313  0.8622
  309MOL0     C41645   2.379   1.406  10.718 -0.2440 -0.2052  0.7670
  309MOL0     C41646   2.488   1.403  10.633  0.5719 -0.0172  0.9196
  309MOL0     C41647   2.527   1.527  10.564  0.1494  0.1072  0.4556
  309MOL0     H41648   2.858   1.536  10.330  0.6644  1.7319  3.5538
  309MOL0     H41649   3.078   1.509  10.219  0.5855 -1.8137 -4.3473
  309MOL0     H41650   3.303   1.130  10.297  2.6269 -1.0418 -0.2143
  309MOL0     H41651   3.209   1.090  10.155  0.1239  0.8836  0.3152
  309MOL0     H41652   3.473   1.265  10.135  1.1025  0.8329 -4.6159
  309MOL0     H41653   3.384   1.206  10.007  2.8108  3.8085 -0.8517
  309MOL0     H41654   3.584   1.048  10.038  0.0931 -3.6630  0.5313
  309MOL0     H41655   3.432   0.969  10.057  0.2840  0.5565 -1.5144
  309MOL0     H41656   3.589   1.103  10.305 -0.9387 -0.4539  0.8440
  309MOL0     H41657   3.484   0.966  10.300 -3.8674  3.7504  0.1542
  309MOL0     H41658   3.659   0.850  10.143  0.3435  0.0639  0.3364
  309MOL0     H41659   3.770   0.981  10.176  0.9575 -0.3571  0.9347
  309MOL0     H41660   3.677   0.764  10.357  1.8124 -1.1116  0.2912
  309MOL0     H41661   3.831   0.793  10.290 -0.3807 -0.2590  0.7944
  309MOL0     H41662   3.802   0.868  10.531 -2.3500 -1.2232 -1.2753
  309MOL0     H41663   3.683   0.981  10.484 -1.3407 -0.7186 -0.9950
  309MOL0     H41664   3.970   0.976  10.385 -0.0525  0.1820 -0.4435
  309MOL0     H41665   3.848   1.092  10.335  1.0788  0.3343  0.1408
  309MOL0     H41666   4.043   0.990  10.665 -0.5211 -0.0713  0.9567
  309MOL0     H41667   4.025   1.273  10.908 -1.0752 -2.3717  0.6523
  309MOL0     H41668   4.139   1.131  10.868  2.6835  0.3066 -1.7960
  309MOL0     H41669   4.254   1.315  10.725  1.8057 -1.6640  1.6089
  309MOL0     H41670   4.151   1.432  10.818 -0.6112 -0.2563 -3.0266
  309MOL0     H41671   4.227   1.314  11.026 -0.0103  2.1976  0.8063
  309MOL0     H41672   4.342   1.421  10.940  2.6994 -0.8498  0.7757
  309MOL0     H41673   4.454   1.237  10.819 -1.0742 -2.9968 -1.6093
  309MOL0     H41674   4.349   1.127  10.916 -0.6483 -0.2963  0.1631
  309MOL0     H41675   4.728   1.224  10.884 -1.0056  1.9212 -1.8664
  309MOL0     H41676   4.904   1.404  10.922 -3.3909  1.9040 -3.6801
  309MOL0     H41677   4.848   1.958  11.018 -0.6294 -0.3915  0.1330
  309MOL0     H41678   4.996   2.135  11.051  0.9844  1.7391  1.1271
  309MOL0     H41679   5.033   2.275  11.261 -0.4358 -1.2192 -0.5884
  309MOL0     H41680   5.192   2.328  11.319 -0.1270  0.6155 -0.8982
  309MOL0     H41681   5.103   2.315  11.028 -0.4679 -0.5303  1.1124
  309MOL0     H41682   5.141   2.448  11.118  1.2138  0.4333  0.5380
  309MOL0     H41683   5.380   2.385  11.146  0.2003 -2.1853  1.4875
  309MOL0     H41684   5.345   2.223  11.108 -1.9136 -0.8109  1.6901
  309MOL0     H41685   5.366   2.457  10.912 -1.4350 -0.1167  0.1934
  309MOL0     H41686   5.281   2.315  10.869  0.3819  0.0933 -1.0182
  309MOL0     H41687   5.468   2.172  10.907  1.2814 -0.2216  1.0593
  309MOL0     H41688   5.559   2.289  10.974 -0.5544 -1.4614  0.3133
  309MOL0     H41689   5.458   2.309  10.685  1.5013 -1.7919 -1.9546
  309MOL0     H41690   5.586   2.418  10.755 -0.2143 -0.3646  0.1147
  309MOL0     H41691   5.651   2.233  10.578 -0.5764  1.8442  0.6273
  309MOL0     H41692   5.596   2.120  10.702 -1.1419  0.3694 -2.3126
  309MOL0     H41693   5.827   2.321  10.712  0.7233 -1.2472 -1.0976
  309MOL0     H41694   5.759   2.246  10.854  1.6092  1.3747  0.5056
  309MOL0     H41695   5.183   1.915  11.375  1.2660  1.2250 -0.8888
  309MOL0     H41696   5.037   1.723  11.332  1.7738  0.1383 -0.4581
  309MOL0     H41697   4.657   1.599  11.194  0.8145 -0.6238  2.0663
  309MOL0     H41698   4.485   1.415  11.194  0.7331  5.4137  0.9972
  309MOL0     H41699   3.102   1.112  10.377 -0.4038  0.1192  1.6956
  309MOL0     H41700   2.927   1.146  10.521  2.6359  0.0788  1.1631
  309MOL0     H41701   2.541   1.067  10.652  1.7136  1.2783  1.0549
  309MOL0     H41702   2.356   1.080  10.790  0.6511 -1.6020 -1.7784
  309MOL0     H41703   2.210   1.129  10.961  3.1782  2.3053 -1.2310
  309MOL0     H41704   2.107   1.161  10.826 -1.4652 -3.5892  3.2322
  309MOL0     H41705   2.057   1.363  11.047 -1.1940 -0.3336  0.9203
  309MOL0     H41706   1.998   1.193  11.061  2.3326 -1.0909 -0.1519
  309MOL0     H41707   1.898   1.238  10.834 -0.7569 -0.4012  0.5839
  309MOL0     H41708   1.953   1.403  10.840 -0.7510 -1.9335 -2.5781
  309MOL0     H41709   1.761   1.268  11.034 -1.9680  1.6508  1.1772
  309MOL0     H41710   1.809   1.444  11.040 -1.6936  1.9496 -2.4225
  309MOL0     H41711   1.512   1.473  10.761 -0.8129 -0.9751  0.8532
  309MOL0     H41712   2.336   1.502  10.745 -1.4036 -0.8290  1.2114
  309MOL0     H41713   2.451   1.606  10.566 -0.2096  0.0980 -3.5331
  309MOL0     H41714   2.613   1.562  10.621  1.2719 -0.4883 -0.8038
  309MOL0     H41715   2.551   1.514  10.458  0.9520  0.8165  0.5383
  310MOL0     O41716   4.028   8.997   8.677 -0.0628  0.1740 -0.2374
  310MOL0     C41717   4.015   8.878   8.641  0.2169 -0.4170  0.1537
  310MOL0     O41718   3.923   8.788   8.691 -0.4029  0.2717 -0.0668
  310MOL0     C41719   3.839   8.826   8.788  1.0929  0.2403  0.4706
  310MOL0     C41720   3.723   8.901   8.757 -0.3628  1.0358 -0.1126
  310MOL0     C41721   3.636   8.948   8.858  0.6211 -0.4276  0.8089
  310MOL0     C41722   3.667   8.911   8.993  0.5393  0.4157  0.1022
  310MOL0     O41723   3.575   8.960   9.085 -0.0822 -0.9548  0.0146
  310MOL0     C41724   3.539   8.884   9.200  0.6370  0.1451  0.1055
  310MOL0     C41725   3.398   8.926   9.234  0.2080 -0.1739  0.2505
  310MOL0     C41726   3.329   8.836   9.336 -0.9440  0.2369  0.3108
  310MOL0     C41727   3.215   8.900   9.409  0.1005 -0.0459  0.4469
  310MOL0     C41728   3.151   8.797   9.502 -0.1277 -0.4343  0.7985
  310MOL0     C41729   3.010   8.844   9.538 -0.1901 -0.7878 -1.0820
  310MOL0     C41730   2.972   8.754   9.656  0.2598  1.2297  0.6071
  310MOL0     C41731   2.837   8.795   9.724  0.1568  0.2573 -0.6299
  310MOL0     N41732   2.723   8.810   9.644 -0.3421  0.1106 -0.4703
  310MOL0     C41733   2.638   8.922   9.672  0.7289 -0.7071  0.5652
  310MOL0     C41734   2.527   8.906   9.587 -0.7040 -0.5612 -0.9562
  310MOL0     C41735   2.411   8.995   9.570  1.1407 -0.6489  0.2265
  310MOL0     C41736   2.349   9.017   9.704  0.4945 -0.8675  0.5783
  310MOL0     C41737   2.256   8.907   9.744  0.2699 -0.2909 -0.0402
  310MOL0     C41738   2.211   8.917   9.891  0.0414 -0.1602 -0.0583
  310MOL0     O41739   2.096   8.832   9.906  0.3652 -0.0979 -0.1913
  310MOL0     C41740   2.028   8.840  10.022  0.5768  0.9907  0.1370
  310MOL0     C41741   1.906   8.783  10.015  0.1945 -0.1705  1.0296
  310MOL0     C41742   1.826   8.773  10.121  0.5232  0.1780 -0.1906
  310MOL0     C41743   1.863   8.838  10.243  0.8320  0.7134 -0.1220
  310MOL0     C41744   1.770   8.846  10.368 -0.2908 -0.1452  0.2955
  310MOL0     O41745   1.826   8.914  10.470 -0.0117 -0.6955  0.2800
  310MOL0     C41746   1.744   8.940  10.575 -0.2374 -0.6280 -0.0277
  310MOL0     C41747   1.731   8.862  10.695  0.6085 -0.1609  0.1795
  310MOL0     C41748   1.634   8.900  10.792 -1.1193 -0.7154 -0.3973
  310MOL0     C41749   1.536   8.999  10.770 -0.0716 -0.2533  0.1970
  310MOL0     O41750   1.449   9.017  10.875 -0.6408  0.5710  0.1666
  310MOL0     C41751   1.386   9.149  10.885  0.4877 -0.4984  0.6508
  310MOL0     C41752   1.282   9.128  10.995  0.0010 -0.6567  0.1335
  310MOL0     C41753   1.143   9.053  10.958 -0.2946  0.3673  0.1616
  310MOL0     C41754   1.057   9.136  10.867 -0.2342  0.1843  0.6581
  310MOL0     C41755   0.925   9.059  10.853  0.9102 -0.6660 -0.1372
  310MOL0     C41756   0.817   9.143  10.779  0.3303 -0.0285  0.5484
  310MOL0     C41757   0.694   9.065  10.750 -1.4202  1.7413 -0.5400
  310MOL0     C41758   0.591   9.139  10.659  0.4361 -0.4003 -0.3317
  310MOL0    Cl41759   0.661   9.200  10.502 -0.1792  0.3219  0.0850
  310MOL0     C41760   1.554   9.085  10.659 -0.3353 -0.2274  0.2155
  310MOL0     C41761   1.659   9.061  10.563  0.0920 -0.2667 -0.7420
  310MOL0     O41762   1.656   8.794  10.365 -0.1284 -0.1303  0.3755
  310MOL0     C41763   1.979   8.910  10.249 -0.7697 -0.2979  0.3361
  310MOL0     C41764   2.069   8.909  10.144  0.6040  0.4569  0.4654
  310MOL0     N41765   2.544   8.780   9.526 -0.5825  0.1296 -0.1802
  310MOL0     N41766   2.659   8.724   9.562 -0.1060 -0.1443 -0.5988
  310MOL0     C41767   3.783   8.832   9.020 -0.3187 -0.6810 -0.0940
  310MOL0     C41768   3.871   8.799   8.918  0.9197  0.4622 -0.4722
  310MOL0     C41769   4.103   8.842   8.529  0.1106 -0.1396 -0.0157
  310MOL0     C41770   4.114   8.936   8.418  0.3886  0.5012  0.1570
  310MOL0     C41771   4.209   8.921   8.308  0.9695  0.9328  0.6898
  310MOL0     C41772   4.283   8.798   8.300  0.6498  0.5999  1.0806
  310MOL0     O41773   4.371   8.765   8.195 -0.0378  0.5261 -0.2269
  310MOL0     C41774   4.408   8.867   8.101  0.9455 -0.0756 -0.3499
  310MOL0     C41775   4.304   8.870   7.988 -0.1393 -0.2110  0.1681
  310MOL0     C41776   4.332   8.972   7.871 -0.8537 -0.2941  1.0533
  310MOL0     C41777   4.340   9.125   7.917 -0.9174 -0.3072 -1.1302
  310MOL0     C41778   4.216   9.162   7.978 -0.2942 -1.3340  1.7357
  310MOL0     C41779   4.108   9.182   8.021  0.7781  0.5825 -0.2676
  310MOL0     C41780   4.266   8.701   8.394 -0.0009 -0.0572 -0.2058
  310MOL0     C41781   4.182   8.728   8.512 -0.8429  0.3816 -0.4563
  310MOL0     C41782   4.185   8.626   8.623 -1.1500  0.0843  0.8069
  310MOL0     H41783   3.699   8.938   8.657 -0.2850  0.3364 -0.3984
  310MOL0     H41784   3.551   9.010   8.832  2.2920  1.1114 -1.3540
  310MOL0     H41785   3.557   8.779   9.174  1.0152  0.1892  0.1919
  310MOL0     H41786   3.610   8.905   9.280 -0.1142 -0.3774  0.9407
  310MOL0     H41787   3.337   8.942   9.145 -0.6831 -2.4383  0.3843
  310MOL0     H41788   3.396   9.029   9.272  0.7666 -0.2647  0.5381
  310MOL0     H41789   3.395   8.783   9.405 -0.8145 -1.9196 -1.3879
  310MOL0     H41790   3.287   8.752   9.281 -0.4410 -3.0784  4.4394
  310MOL0     H41791   3.244   8.977   9.481  0.7217 -1.2878  1.5826
  310MOL0     H41792   3.146   8.948   9.340  0.0981 -1.9479 -0.9503
  310MOL0     H41793   3.138   8.697   9.459 -0.3403 -0.5162  1.0465
  310MOL0     H41794   3.217   8.801   9.589  0.4796  1.8145  0.2866
  310MOL0     H41795   3.013   8.951   9.559 -0.4975 -0.7792 -1.0840
  310MOL0     H41796   2.944   8.834   9.452 -0.0901 -0.1544 -1.2395
  310MOL0     H41797   3.049   8.758   9.734 -0.3767  3.1969  1.2231
  310MOL0     H41798   2.971   8.650   9.623  2.2844  0.8160  1.6919
  310MOL0     H41799   2.812   8.728   9.807 -1.0310  3.3218  1.6930
  310MOL0     H41800   2.860   8.897   9.757 -0.7938 -0.0425  1.0915
  310MOL0     H41801   2.654   9.014   9.727  0.0016  0.0325 -0.4195
  310MOL0     H41802   2.439   9.093   9.531 -2.4070  0.6098  0.4890
  310MOL0     H41803   2.332   8.960   9.502 -0.4140 -0.0932  1.6811
  310MOL0     H41804   2.424   9.030   9.783  2.7110  3.5816 -1.8192
  310MOL0     H41805   2.301   9.113   9.683  0.1915 -0.8604  1.2874
  310MOL0     H41806   2.292   8.805   9.727  2.3573  0.3855  0.1050
  310MOL0     H41807   2.169   8.927   9.680  2.7242  4.5701 -2.3515
  310MOL0     H41808   2.174   9.018   9.910 -1.1169  0.0096 -2.7487
  310MOL0     H41809   2.296   8.902   9.958 -0.9851  0.6573  1.4763
  310MOL0     H41810   1.887   8.724   9.926  3.0375 -2.2940  1.6637
  310MOL0     H41811   1.727   8.728  10.116  1.3362 -1.6192 -0.9995
  310MOL0     H41812   1.792   8.776  10.718 -0.3287 -0.6071  1.1095
  310MOL0     H41813   1.632   8.843  10.884 -2.8262  1.2191  0.8393
  310MOL0     H41814   1.462   9.221  10.916 -0.0435  0.0681  0.6744
  310MOL0     H41815   1.338   9.198  10.800  3.2915  0.2349 -0.6071
  310MOL0     H41816   1.331   9.087  11.084  0.4188  2.3122  1.3666
  310MOL0     H41817   1.254   9.228  11.028  1.4225  0.2274 -1.2496
  310MOL0     H41818   1.174   8.959  10.911  0.7345  1.4043 -1.3169
  310MOL0     H41819   1.093   9.024  11.051  1.6215 -0.4978  0.9782
  310MOL0     H41820   1.110   9.158  10.775  1.9443  1.0358  2.0347
  310MOL0     H41821   1.034   9.234  10.911  1.2135  1.7241 -1.8270
  310MOL0     H41822   0.875   9.029  10.946 -0.4713  1.7492 -0.0198
  310MOL0     H41823   0.946   8.965  10.801  0.4005 -2.8084  3.2490
  310MOL0     H41824   0.794   9.234  10.836  0.8963  1.0972 -0.9285
  310MOL0     H41825   0.861   9.176  10.684  2.8716 -2.4852  0.7514
  310MOL0     H41826   0.654   9.037  10.848  0.1416 -0.3403 -0.4333
  310MOL0     H41827   0.702   8.968  10.699 -0.0207  1.4914  0.1035
  310MOL0     H41828   0.503   9.081  10.628  0.2993  0.4641 -1.6449
  310MOL0     H41829   0.556   9.227  10.713  1.5079 -0.2371  0.1088
  310MOL0     H41830   1.478   9.161  10.642  0.4863  0.6640  0.3991
  310MOL0     H41831   1.657   9.109  10.465  1.1964 -2.5999 -1.9986
  310MOL0     H41832   2.019   8.955  10.340 -1.9953  0.5866  0.4560
  310MOL0     H41833   2.153   8.976  10.157  0.6184  0.1293  2.2442
  310MOL0     H41834   3.814   8.811   9.122  3.6185  0.5681 -0.8615
  310MOL0     H41835   3.962   8.745   8.945 -1.4734 -4.0181 -0.4011
  310MOL0     H41836   4.048   9.022   8.413  0.8936  1.3243  4.0832
  310MOL0     H41837   4.216   9.005   8.240 -2.8852  3.3635  2.9232
  310MOL0     H41838   4.512   8.845   8.076  1.1204 -2.4091  1.9585
  310MOL0     H41839   4.406   8.969   8.141  1.2050  1.2273 -3.3736
  310MOL0     H41840   4.204   8.899   8.021 -2.6458 -3.6360 -3.4280
  310MOL0     H41841   4.287   8.773   7.940  1.0395 -0.4152  0.1503
  310MOL0     H41842   4.259   8.968   7.790  2.0730  1.1502 -1.9488
  310MOL0     H41843   4.431   8.958   7.826 -1.7033  0.3401 -1.1350
  310MOL0     H41844   4.429   9.128   7.980 -0.6690  0.2542 -1.5020
  310MOL0     H41845   4.359   9.182   7.826 -0.8304  3.1762  0.9023
  310MOL0     H41846   4.016   9.210   8.067  0.4928  0.8301 -0.9806
  310MOL0     H41847   4.330   8.615   8.383  2.4703  1.6791 -0.3173
  310MOL0     H41848   4.098   8.561   8.625 -1.1185  0.0576  1.8602
  310MOL0     H41849   4.280   8.574   8.607  1.5658  4.8385 -0.6447
  310MOL0     H41850   4.193   8.674   8.721 -3.1975 -1.2663  1.7030
  311MOL0     O41851  11.397   1.794   8.162 -0.0814 -0.1208  0.5958
  311MOL0     C41852  11.277   1.768   8.141  0.6719 -0.1996 -0.5491
  311MOL0     O41853  11.231   1.674   8.066  0.3904 -0.0621 -0.6460
  311MOL0     C41854  11.317   1.585   8.010 -0.2975 -0.2171  0.0982
  311MOL0     C41855  11.321   1.588   7.871  0.0946  0.6462  0.4368
  311MOL0     C41856  11.399   1.503   7.792  0.5512  0.4573  0.0755
  311MOL0     C41857  11.474   1.404   7.875  0.9714  0.1419  0.7697
  311MOL0     O41858  11.547   1.302   7.827 -0.2870 -0.4987  0.5434
  311MOL0     C41859  11.546   1.278   7.680  0.0628 -0.2664 -0.1313
  311MOL0     C41860  11.620   1.142   7.664 -0.5557  0.3707 -0.3663
  311MOL0     C41861  11.777   1.148   7.673  0.0332 -0.2863 -0.2275
  311MOL0     C41862  11.828   1.028   7.740 -0.1925 -0.3509  0.4726
  311MOL0     C41863  11.987   1.031   7.732  0.6204 -0.2148 -0.2032
  311MOL0     C41864  12.036   0.903   7.800 -0.2152 -0.6896 -0.0013
  311MOL0     C41865  12.196   0.907   7.811  0.4169  0.2779 -0.5770
  311MOL0     C41866  12.248   0.783   7.884 -1.0665 -0.0352 -0.3297
  311MOL0     N41867  12.395   0.767   7.871 -0.5986  0.0498 -0.5543
  311MOL0     C41868  12.489   0.824   7.951 -0.3326 -0.6624  0.0749
  311MOL0     C41869  12.609   0.778   7.920 -0.3641 -0.1894  0.0690
  311MOL0     C41870  12.742   0.792   7.984 -0.0415  0.8215  0.1103
  311MOL0     C41871  12.856   0.752   7.892  0.3480  0.1580  0.7928
  311MOL0     C41872  12.996   0.807   7.943 -0.0229 -1.3033  0.1298
  311MOL0     C41873  13.086   0.684   7.907 -1.1934 -0.0977  0.1452
  311MOL0     O41874  13.122   0.671   7.772 -0.5574  0.0954  0.0289
  311MOL0     C41875  13.140   0.541   7.722  0.6368  0.0638 -0.3101
  311MOL0     C41876  13.263   0.487   7.724 -0.5667  0.2884 -0.2982
  311MOL0     C41877  13.291   0.362   7.685 -0.1417  0.2316  0.3039
  311MOL0     C41878  13.189   0.282   7.632  0.5238  0.0866 -0.2331
  311MOL0     C41879  13.220   0.152   7.577  0.0653 -0.2114  0.3459
  311MOL0     O41880  13.135   0.050   7.593 -0.6092 -0.5210 -0.7727
  311MOL0     C41881  13.157  -0.078   7.543 -0.0337 -0.9414 -1.2754
  311MOL0     C41882  13.063  -0.123   7.450  0.4841  0.1585 -0.1769
  311MOL0     C41883  13.095  -0.247   7.396  0.3035 -1.6438  0.0977
  311MOL0     C41884  13.205  -0.320   7.420 -0.1883 -0.0597 -0.3615
  311MOL0     O41885  13.215  -0.448   7.367 -0.3144  0.6172 -0.0292
  311MOL0     C41886  13.347  -0.510   7.344  0.0435  0.5256 -0.8341
  311MOL0     C41887  13.447  -0.412   7.269 -0.8198  0.0072  0.2428
  311MOL0     C41888  13.574  -0.485   7.241 -0.0831 -0.0398  0.3824
  311MOL0     C41889  13.647  -0.446   7.109  0.3431  0.3307 -0.7815
  311MOL0     C41890  13.792  -0.503   7.105 -0.2396  0.5858  0.5030
  311MOL0     C41891  13.862  -0.488   6.970  1.2589 -1.2862  0.6920
  311MOL0     C41892  13.994  -0.556   6.983  0.0796 -0.3397  0.3422
  311MOL0     C41893  14.078  -0.541   6.856 -1.1757 -0.0137  0.8195
  311MOL0    Cl41894  14.239  -0.621   6.861 -0.3233 -0.0475  0.2805
  311MOL0     C41895  13.303  -0.262   7.508 -0.3543  0.6214 -0.5892
  311MOL0     C41896  13.279  -0.141   7.568 -0.4565  0.0277  0.0908
  311MOL0     O41897  13.337   0.145   7.523  0.1950 -0.6123  0.3761
  311MOL0     C41898  13.061   0.332   7.625  0.1715  0.5263 -0.0011
  311MOL0     C41899  13.033   0.462   7.681  1.0280  0.1022 -0.5317
  311MOL0     N41900  12.581   0.680   7.820  0.3498  0.0235 -0.1944
  311MOL0     N41901  12.456   0.667   7.797 -0.1456 -0.5805 -0.0027
  311MOL0     C41902  11.471   1.401   8.015  0.1419  0.5866  0.2694
  311MOL0     C41903  11.393   1.494   8.084  0.5630  0.8717 -0.7606
  311MOL0     C41904  11.173   1.849   8.207  0.2485  0.6313  0.0787
  311MOL0     C41905  11.069   1.879   8.125  0.6528 -0.1654  0.3270
  311MOL0     C41906  10.959   1.951   8.178 -0.1880  0.0227  0.6823
  311MOL0     C41907  10.963   1.999   8.311 -0.2413  0.7121  1.1274
  311MOL0     O41908  10.872   2.084   8.366  0.0704  0.0882 -0.2799
  311MOL0     C41909  10.730   2.064   8.331  0.3578 -0.3481  0.0516
  311MOL0     C41910  10.653   2.050   8.469 -0.3825  0.5055  0.4558
  311MOL0     C41911  10.494   2.068   8.453  0.4141  0.5732 -0.1020
  311MOL0     C41912  10.408   2.039   8.578 -0.4496 -0.0481 -0.1659
  311MOL0     C41913  10.420   1.902   8.636 -0.4321 -0.0712  0.0109
  311MOL0     C41914  10.411   1.783   8.664  0.0821  0.4671  0.5378
  311MOL0     C41915  11.078   1.981   8.385 -0.3859  0.3839 -0.8951
  311MOL0     C41916  11.180   1.893   8.341 -0.2763  0.4357  0.0712
  311MOL0     C41917  11.307   1.869   8.430  0.5070 -0.2446  0.0701
  311MOL0     H41918  11.256   1.662   7.824  2.8209  1.1697 -2.9413
  311MOL0     H41919  11.387   1.504   7.684 -0.8276  0.6624  0.2134
  311MOL0     H41920  11.442   1.259   7.651 -0.3593  1.7486 -0.1218
  311MOL0     H41921  11.580   1.362   7.619  2.2685 -0.5936  0.5664
  311MOL0     H41922  11.579   1.099   7.573 -2.3615 -0.5334  0.8145
  311MOL0     H41923  11.588   1.066   7.736 -0.6298 -3.2419 -3.8851
  311MOL0     H41924  11.802   1.241   7.725 -0.1200  3.1571 -5.5301
  311MOL0     H41925  11.814   1.155   7.570 -1.8882  3.0397 -0.8316
  311MOL0     H41926  11.807   1.039   7.847  2.3455  3.1727  0.8077
  311MOL0     H41927  11.792   0.933   7.700 -0.8041  0.0764 -0.0088
  311MOL0     H41928  12.026   1.033   7.630  0.3026 -2.1300 -0.3973
  311MOL0     H41929  12.020   1.121   7.785 -1.8827  0.2593  0.6945
  311MOL0     H41930  11.991   0.893   7.899 -1.6204  0.9473 -0.4231
  311MOL0     H41931  12.002   0.818   7.740 -4.7870 -0.5293  1.9154
  311MOL0     H41932  12.221   0.993   7.873 -1.2206  0.1670  0.2792
  311MOL0     H41933  12.248   0.913   7.715 -0.9171 -2.9812 -1.6711
  311MOL0     H41934  12.222   0.798   7.989  1.0080 -0.0378  0.2156
  311MOL0     H41935  12.186   0.696   7.860  0.8720 -1.8666  0.9955
  311MOL0     H41936  12.455   0.889   8.031 -0.5050  0.5557 -0.9532
  311MOL0     H41937  12.766   0.891   8.023  1.2355  0.4088  0.4126
  311MOL0     H41938  12.762   0.721   8.065  1.7205  0.8631 -0.2458
  311MOL0     H41939  12.858   0.643   7.881  2.0385 -0.0225  2.4968
  311MOL0     H41940  12.855   0.798   7.792 -2.5016  1.2137  1.2090
  311MOL0     H41941  12.996   0.825   8.051  0.0961 -0.7805  0.0434
  311MOL0     H41942  13.035   0.895   7.890 -0.3198  0.5376  2.7615
  311MOL0     H41943  13.058   0.590   7.956 -1.4461  0.1602  0.4978
  311MOL0     H41944  13.182   0.700   7.958 -1.0171  1.3247 -0.5855
  311MOL0     H41945  13.332   0.563   7.759  0.1821 -0.0181 -1.0568
  311MOL0     H41946  13.390   0.318   7.689 -0.6478 -0.8762  1.8365
  311MOL0     H41947  12.971  -0.070   7.430  1.5711  1.9945 -0.5357
  311MOL0     H41948  13.022  -0.281   7.323  0.2099  1.7059 -1.5590
  311MOL0     H41949  13.393  -0.548   7.436  1.1622  0.1304 -1.5305
  311MOL0     H41950  13.327  -0.582   7.264 -0.1499 -0.5964  0.1970
  311MOL0     H41951  13.388  -0.381   7.182  0.6785  0.8298 -0.5039
  311MOL0     H41952  13.466  -0.320   7.325 -2.2665  1.9073 -2.1771
  311MOL0     H41953  13.643  -0.453   7.320  2.7816 -1.1308 -1.5300
  311MOL0     H41954  13.566  -0.593   7.261  1.3233 -0.0760  0.8668
  311MOL0     H41955  13.649  -0.337   7.098 -0.2960  0.2694 -1.6125
  311MOL0     H41956  13.591  -0.483   7.023  0.3957  2.1281 -1.6421
  311MOL0     H41957  13.775  -0.607   7.136 -3.5803  1.1172  0.7841
  311MOL0     H41958  13.851  -0.469   7.192  0.4145 -2.3830  1.3319
  311MOL0     H41959  13.793  -0.540   6.904 -0.9230 -1.2834  2.8272
  311MOL0     H41960  13.863  -0.385   6.933 -0.4932 -2.3232 -2.6477
  311MOL0     H41961  13.981  -0.662   7.009  4.9963 -1.1248  0.4704
  311MOL0     H41962  14.060  -0.509   7.057  0.7411 -1.9966  0.8508
  311MOL0     H41963  14.019  -0.589   6.777  2.4583 -1.9759 -0.9361
  311MOL0     H41964  14.110  -0.442   6.822 -1.8690  0.1602  0.6553
  311MOL0     H41965  13.399  -0.308   7.526 -1.6400 -1.3849  1.6882
  311MOL0     H41966  13.358  -0.112   7.636  2.0555 -0.8675 -2.2428
  311MOL0     H41967  12.977   0.285   7.575  0.5595  0.0692 -0.2383
  311MOL0     H41968  12.936   0.509   7.694  1.7138  0.9268  2.2014
  311MOL0     H41969  11.518   1.325   8.077  2.7205  2.2080  0.4468
  311MOL0     H41970  11.401   1.504   8.192  2.6223 -1.0597 -0.6728
  311MOL0     H41971  11.067   1.856   8.019 -0.8594  2.6176 -0.3584
  311MOL0     H41972  10.878   1.980   8.112  1.8747  1.9732 -1.1287
  311MOL0     H41973  10.704   1.975   8.272 -0.4044 -1.8513  2.4900
  311MOL0     H41974  10.706   2.154   8.274  0.4517 -0.2584  0.1542
  311MOL0     H41975  10.684   2.118   8.549 -0.6885  1.9501 -0.6000
  311MOL0     H41976  10.681   1.952   8.509  0.0971 -0.8492 -2.8779
  311MOL0     H41977  10.447   2.014   8.371  1.2171 -1.1278  0.5012
  311MOL0     H41978  10.480   2.175   8.435  0.9313  0.7197  0.3287
  311MOL0     H41979  10.428   2.112   8.657 -2.8032  1.3269 -0.7371
  311MOL0     H41980  10.304   2.061   8.553 -0.7292 -0.6895  0.4113
  311MOL0     H41981  10.400   1.676   8.663 -1.8676  0.6149  1.3544
  311MOL0     H41982  11.096   2.021   8.484  0.6600 -1.0800 -0.4565
  311MOL0     H41983  11.387   1.943   8.425 -1.1268  1.5276 -2.5815
  311MOL0     H41984  11.270   1.872   8.533  1.0899  1.3674  0.2579
  311MOL0     H41985  11.351   1.772   8.406 -4.3600 -2.7958  0.1248
  312MOL0     O41986   7.553   4.152   5.790 -0.1144 -0.2656  0.0980
  312MOL0     C41987   7.623   4.051   5.765 -0.1029 -1.3703 -0.3342
  312MOL0     O41988   7.596   3.969   5.660  0.6449 -0.1849 -0.2327
  312MOL0     C41989   7.532   4.021   5.549  0.4024 -0.6067  0.8042
  312MOL0     C41990   7.561   4.133   5.480 -0.0062  0.1830 -0.3784
  312MOL0     C41991   7.504   4.161   5.352 -0.7156 -0.6213  0.9105
  312MOL0     C41992   7.420   4.065   5.292  0.4544  0.4880  0.2930
  312MOL0     O41993   7.357   4.081   5.170 -0.4507 -0.9985 -0.3255
  312MOL0     C41994   7.435   4.129   5.062 -0.2295  0.6521  0.5138
  312MOL0     C41995   7.362   4.239   4.985 -1.1156  0.4282  0.0077
  312MOL0     C41996   7.331   4.362   5.072 -0.5318 -0.1598 -0.3603
  312MOL0     C41997   7.370   4.496   5.008 -0.0771  0.5513 -0.2603
  312MOL0     C41998   7.287   4.500   4.875  0.0709 -0.7267 -0.6679
  312MOL0     C41999   7.276   4.622   4.791  0.0995 -0.3449  0.0866
  312MOL0     C42000   7.176   4.731   4.850  0.5092  0.4636 -0.5957
  312MOL0     C42001   7.155   4.837   4.751 -0.7711  0.2336 -0.5550
  312MOL0     N42002   7.045   4.798   4.662  0.5739  0.4015  0.2555
  312MOL0     C42003   6.914   4.827   4.686  0.2816  0.0843 -0.1452
  312MOL0     C42004   6.849   4.767   4.583 -0.2241 -0.0410 -0.0119
  312MOL0     C42005   6.704   4.775   4.575  0.6401  0.3032  0.4549
  312MOL0     C42006   6.641   4.641   4.609 -0.0000  0.0949  0.1989
  312MOL0     C42007   6.667   4.584   4.745 -0.1730  0.2630  0.1049
  312MOL0     C42008   6.621   4.670   4.865 -0.4344 -0.1526  0.3359
  312MOL0     O42009   6.476   4.688   4.871  0.3519 -0.2197 -0.6725
  312MOL0     C42010   6.444   4.810   4.935  0.3252 -0.2204  1.4118
  312MOL0     C42011   6.413   4.805   5.070 -0.2768 -0.7151 -0.1265
  312MOL0     C42012   6.375   4.922   5.144 -0.0587  0.3028 -0.5672
  312MOL0     C42013   6.364   5.040   5.073  0.1305 -0.7605 -0.9961
  312MOL0     C42014   6.329   5.165   5.152  0.1068 -0.5257 -1.0536
  312MOL0     O42015   6.265   5.148   5.277 -0.0559  0.2873 -0.0372
  312MOL0     C42016   6.215   5.264   5.342 -0.2080 -0.1651  0.2133
  312MOL0     C42017   6.236   5.287   5.474 -0.4712  0.0540 -0.0236
  312MOL0     C42018   6.185   5.397   5.542 -0.6768 -0.3434 -0.7715
  312MOL0     C42019   6.117   5.486   5.475  0.0683 -0.5624  0.8408
  312MOL0     O42020   6.057   5.597   5.540 -0.1862  0.8342  0.0338
  312MOL0     C42021   5.915   5.628   5.523 -0.7755  0.6902  0.2902
  312MOL0     C42022   5.880   5.724   5.635 -0.1561  0.4863 -0.3590
  312MOL0     C42023   5.727   5.736   5.657 -0.0718 -0.0370 -0.7507
  312MOL0     C42024   5.657   5.789   5.528  0.1761 -0.2684 -0.8261
  312MOL0     C42025   5.529   5.851   5.571 -1.3214  0.8225 -0.8592
  312MOL0     C42026   5.462   5.921   5.453 -0.3248 -0.7773  0.5421
  312MOL0     C42027   5.320   5.956   5.486  0.5954 -1.0342 -0.6939
  312MOL0     C42028   5.259   6.065   5.393  0.1749 -0.3940  0.5824
  312MOL0    Cl42029   5.302   6.228   5.434  0.4134  0.9467 -0.5917
  312MOL0     C42030   6.093   5.476   5.337  0.2820  0.0873 -0.3671
  312MOL0     C42031   6.132   5.360   5.268 -0.5489  0.3874 -0.1065
  312MOL0     O42032   6.335   5.273   5.096  0.3414 -0.1821  0.5367
  312MOL0     C42033   6.403   5.041   4.933  0.8850  0.6338 -0.3073
  312MOL0     C42034   6.440   4.928   4.865  0.0972 -0.6967 -0.6086
  312MOL0     N42035   6.939   4.702   4.504 -0.3047  0.5038  0.7015
  312MOL0     N42036   7.056   4.721   4.551  0.3803  0.8749  0.2594
  312MOL0     C42037   7.396   3.943   5.362  0.8123 -0.5071 -0.7681
  312MOL0     C42038   7.450   3.923   5.485 -1.4822 -0.6737  0.6599
  312MOL0     C42039   7.730   4.016   5.866  0.8003  0.1879 -0.6534
  312MOL0     C42040   7.838   3.945   5.808 -0.6177  0.0012  0.5521
  312MOL0     C42041   7.933   3.894   5.893  0.2735 -0.0027  0.0638
  312MOL0     C42042   7.933   3.905   6.032 -1.0258 -0.1208 -0.6747
  312MOL0     O42043   8.027   3.850   6.108 -0.5368  0.8381 -0.3428
  312MOL0     C42044   8.155   3.839   6.047  0.0000  0.5563  0.1447
  312MOL0     C42045   8.253   3.775   6.145 -0.1923 -0.3556 -0.6346
  312MOL0     C42046   8.382   3.731   6.072 -0.8023  0.6056  0.4519
  312MOL0     C42047   8.372   3.607   5.977 -0.4236 -0.4324  0.8741
  312MOL0     C42048   8.322   3.486   6.044 -0.6054  0.5381 -0.4114
  312MOL0     C42049   8.294   3.383   6.100  1.1303 -0.0165 -0.2429
  312MOL0     C42050   7.819   3.971   6.093  0.0120 -0.1927  0.4107
  312MOL0     C42051   7.716   4.021   6.011  1.0633  0.3245 -0.4817
  312MOL0     C42052   7.593   4.080   6.081 -0.9395 -0.0250  0.7063
  312MOL0     H42053   7.631   4.199   5.530 -1.6413  1.2046  0.6555
  312MOL0     H42054   7.519   4.254   5.298 -3.9303 -0.5046  0.0224
  312MOL0     H42055   7.524   4.174   5.106  0.5050 -2.3644  2.3769
  312MOL0     H42056   7.452   4.052   4.986 -3.6004  1.5704 -1.3894
  312MOL0     H42057   7.272   4.186   4.952 -1.8818  1.3835  0.5074
  312MOL0     H42058   7.426   4.257   4.897 -0.4949  3.5569  0.9525
  312MOL0     H42059   7.388   4.365   5.165  0.2370 -1.9647 -0.7248
  312MOL0     H42060   7.225   4.372   5.095 -0.7171  1.0704 -1.5809
  312MOL0     H42061   7.335   4.572   5.078 -1.4496  1.0442 -1.4471
  312MOL0     H42062   7.473   4.510   4.973  0.6835 -1.6772  0.8966
  312MOL0     H42063   7.348   4.432   4.815  1.1888 -0.3062 -0.0478
  312MOL0     H42064   7.187   4.458   4.891  0.5664 -1.2790  1.1308
  312MOL0     H42065   7.377   4.657   4.769  0.2627  0.0952  1.4181
  312MOL0     H42066   7.229   4.589   4.699 -0.1100  0.2230 -0.0093
  312MOL0     H42067   7.215   4.774   4.943 -1.9601  2.6257 -0.4535
  312MOL0     H42068   7.076   4.694   4.876  0.8740  0.6573  1.2749
  312MOL0     H42069   7.127   4.925   4.810 -1.4041  0.7522 -1.6049
  312MOL0     H42070   7.245   4.861   4.693 -0.6785  1.3252  0.0136
  312MOL0     H42071   6.879   4.906   4.751 -1.1021  0.9599 -1.8579
  312MOL0     H42072   6.661   4.862   4.625  1.8303  0.4237  1.3090
  312MOL0     H42073   6.677   4.801   4.472  2.0710 -0.6554 -0.2031
  312MOL0     H42074   6.532   4.638   4.599 -0.0616 -0.5357  0.9882
  312MOL0     H42075   6.684   4.574   4.534  1.7734  1.8132 -0.4099
  312MOL0     H42076   6.774   4.562   4.740 -0.2544  0.0849 -1.1247
  312MOL0     H42077   6.623   4.484   4.751  2.1083 -0.7166  2.0859
  312MOL0     H42078   6.660   4.772   4.853  2.0282 -0.8786  1.5821
  312MOL0     H42079   6.654   4.637   4.964 -1.8517  2.6969  1.9013
  312MOL0     H42080   6.414   4.707   5.116 -0.4098 -1.6157 -1.9601
  312MOL0     H42081   6.366   4.918   5.252  1.2839 -0.1122 -0.4456
  312MOL0     H42082   6.303   5.220   5.527 -0.0260 -0.8436 -1.6813
  312MOL0     H42083   6.200   5.414   5.648 -3.8405  2.9665 -0.6819
  312MOL0     H42084   5.892   5.681   5.430 -2.4702 -3.3041 -1.8295
  312MOL0     H42085   5.861   5.532   5.528 -0.9772  0.8112  0.4419
  312MOL0     H42086   5.923   5.681   5.726 -2.0208  0.3411  0.5036
  312MOL0     H42087   5.926   5.821   5.615 -1.2648  1.7559  2.6543
  312MOL0     H42088   5.703   5.632   5.685  2.9727 -0.2080  1.7091
  312MOL0     H42089   5.704   5.806   5.737 -1.0873  2.4617 -3.0850
  312MOL0     H42090   5.649   5.706   5.457  1.7602  1.4866 -3.2008
  312MOL0     H42091   5.718   5.874   5.497 -1.6272 -0.1781 -4.8087
  312MOL0     H42092   5.550   5.923   5.650 -1.1225 -0.9370  0.7419
  312MOL0     H42093   5.463   5.771   5.607 -2.8971  2.9501  1.3042
  312MOL0     H42094   5.510   6.017   5.432 -1.5376  0.5524  3.3570
  312MOL0     H42095   5.455   5.854   5.367 -0.6454  2.3782 -2.1182
  312MOL0     H42096   5.301   5.979   5.591 -1.4008 -1.1259 -0.9884
  312MOL0     H42097   5.258   5.867   5.473 -2.5192  1.2783 -3.6536
  312MOL0     H42098   5.290   6.025   5.296 -2.5754 -1.4061  0.0297
  312MOL0     H42099   5.150   6.064   5.384  0.3542 -0.5321 -2.5630
  312MOL0     H42100   6.029   5.556   5.302 -0.9073 -1.1828 -1.2353
  312MOL0     H42101   6.103   5.340   5.165  3.0527  0.6197 -1.2880
  312MOL0     H42102   6.397   5.134   4.878  2.5213  1.1164  0.2787
  312MOL0     H42103   6.458   4.931   4.758  1.8519 -4.0817 -0.5515
  312MOL0     H42104   7.327   3.865   5.329 -0.6014  0.5591 -0.4149
  312MOL0     H42105   7.425   3.835   5.544 -3.6162 -0.4174  0.2176
  312MOL0     H42106   7.857   3.925   5.702 -0.2037 -3.2060  1.1352
  312MOL0     H42107   8.007   3.837   5.837 -1.5356 -0.6181 -1.8373
  312MOL0     H42108   8.184   3.942   6.023  0.9097 -0.0236 -1.3412
  312MOL0     H42109   8.139   3.771   5.963  1.5095  2.1130 -1.5024
  312MOL0     H42110   8.196   3.688   6.178 -1.4333 -0.5245 -2.9930
  312MOL0     H42111   8.257   3.856   6.218 -0.4124  1.9456 -3.0036
  312MOL0     H42112   8.449   3.702   6.155 -0.0658 -0.1245 -0.3720
  312MOL0     H42113   8.424   3.811   6.011 -1.0171 -1.8239 -3.1790
  312MOL0     H42114   8.315   3.626   5.886  2.0502 -3.9071 -1.6353
  312MOL0     H42115   8.473   3.579   5.944  0.0666  2.0273  0.0343
  312MOL0     H42116   8.301   3.311   6.180  1.7797  1.8801  1.4880
  312MOL0     H42117   7.819   3.972   6.201  0.4280 -0.4826  0.4159
  312MOL0     H42118   7.600   4.188   6.093  1.6593 -0.1281  0.7173
  312MOL0     H42119   7.508   4.066   6.013 -0.9051 -0.3956  0.7338
  312MOL0     H42120   7.580   4.024   6.174 -1.6157 -0.3966  0.4000
  313MOL0     O42121   1.069   4.722   1.214  0.8212 -0.7520  0.3616
  313MOL0     C42122   1.006   4.705   1.320 -0.1669  0.2641 -0.0163
  313MOL0     O42123   0.876   4.726   1.350  0.3040  0.2278 -0.0994
  313MOL0     C42124   0.791   4.721   1.246  0.4394  0.6621 -0.7192
  313MOL0     C42125   0.762   4.596   1.175  0.4418 -0.5961  0.2713
  313MOL0     C42126   0.667   4.591   1.076  0.3862 -0.0722 -0.4946
  313MOL0     C42127   0.593   4.704   1.037 -0.0617 -0.3321 -0.1555
  313MOL0     O42128   0.515   4.690   0.925  0.1493 -0.7858 -1.4072
  313MOL0     C42129   0.449   4.800   0.859  0.2517  0.0149 -0.1852
  313MOL0     C42130   0.380   4.762   0.725 -0.2534 -1.1871 -0.4757
  313MOL0     C42131   0.294   4.885   0.683  0.0953  0.1620 -1.0481
  313MOL0     C42132   0.205   4.840   0.565  0.4028  0.4799 -0.7071
  313MOL0     C42133   0.283   4.834   0.437 -0.5346  0.1018  0.5404
  313MOL0     C42134   0.311   4.973   0.385 -0.1321 -0.0416 -0.2711
  313MOL0     C42135   0.394   4.967   0.251  0.1861 -0.2696 -0.2104
  313MOL0     C42136   0.422   5.099   0.182  0.6597  0.5854  0.7055
  313MOL0     N42137   0.512   5.187   0.254  0.0414  0.1877 -0.7347
  313MOL0     C42138   0.650   5.172   0.277 -0.6576 -0.2316 -0.6130
  313MOL0     C42139   0.687   5.272   0.370 -0.2205 -0.2769  0.9230
  313MOL0     C42140   0.820   5.293   0.434 -0.4067 -0.3297  0.4972
  313MOL0     C42141   0.905   5.396   0.341 -0.5949  0.2409 -0.2151
  313MOL0     C42142   0.849   5.539   0.348  1.2277 -0.0081  0.1443
  313MOL0     C42143   0.840   5.601   0.482  0.2291  0.4044 -0.3312
  313MOL0     O42144   0.950   5.553   0.571  0.2111  0.5480  0.0680
  313MOL0     C42145   1.078   5.575   0.540 -0.4909 -0.6152 -0.1271
  313MOL0     C42146   1.178   5.521   0.613  0.3113  0.7318 -0.0365
  313MOL0     C42147   1.313   5.537   0.588 -0.0176  0.1328  0.0130
  313MOL0     C42148   1.362   5.605   0.476  0.6853 -0.7241 -0.3360
  313MOL0     C42149   1.506   5.618   0.443  0.6327  0.1083  0.2740
  313MOL0     O42150   1.586   5.523   0.495 -0.0455 -0.3959 -0.6093
  313MOL0     C42151   1.722   5.531   0.474 -0.2244  0.2617 -0.3539
  313MOL0     C42152   1.773   5.408   0.439 -0.6711  0.0113 -0.1144
  313MOL0     C42153   1.903   5.396   0.400 -0.4983  0.0131  0.3548
  313MOL0     C42154   1.989   5.507   0.402  0.1954  0.3778 -0.0755
  313MOL0     O42155   2.112   5.492   0.360 -0.5866 -0.0801 -0.2154
  313MOL0     C42156   2.202   5.412   0.445  0.0980 -0.9568  0.2919
  313MOL0     C42157   2.331   5.432   0.365  0.2155  0.2600 -1.1188
  313MOL0     C42158   2.442   5.342   0.432 -0.5641 -0.5032 -0.9713
  313MOL0     C42159   2.585   5.367   0.374 -0.0690  0.0716 -0.4516
  313MOL0     C42160   2.603   5.296   0.229  0.2370  0.3569  0.2650
  313MOL0     C42161   2.739   5.336   0.170  0.4600  0.1500  1.1071
  313MOL0     C42162   2.782   5.242   0.059 -0.5546 -0.0939 -0.6987
  313MOL0     C42163   2.690   5.222  -0.063 -0.0369 -1.1310 -0.4951
  313MOL0    Cl42164   2.653   5.392  -0.130 -0.4802  0.3684 -0.4587
  313MOL0     C42165   1.944   5.639   0.448 -0.0544 -0.1173 -0.2830
  313MOL0     C42166   1.807   5.644   0.492 -0.0816  0.5520  0.3039
  313MOL0     O42167   1.554   5.698   0.358 -0.2876  0.4745 -0.1961
  313MOL0     C42168   1.261   5.669   0.391  0.3992  0.4612  0.2296
  313MOL0     C42169   1.123   5.653   0.433  0.6796  0.9220  0.3515
  313MOL0     N42170   0.573   5.351   0.392  0.5943  0.5209  1.0133
  313MOL0     N42171   0.473   5.300   0.318 -0.2720  1.5938  0.0934
  313MOL0     C42172   0.607   4.823   1.111 -0.7681  0.0799  0.2264
  313MOL0     C42173   0.713   4.840   1.212  0.3258  0.0632 -0.5015
  313MOL0     C42174   1.086   4.694   1.448  0.5000  0.3375  0.4190
  313MOL0     C42175   1.078   4.781   1.551 -0.5544 -0.2998 -0.0882
  313MOL0     C42176   1.150   4.764   1.665 -0.9006 -0.1648 -0.8347
  313MOL0     C42177   1.237   4.658   1.685  0.7775  0.2511 -0.6006
  313MOL0     O42178   1.299   4.653   1.804  0.6533 -0.6708 -0.0444
  313MOL0     C42179   1.419   4.578   1.812 -1.4079 -0.0624 -0.1227
  313MOL0     C42180   1.481   4.622   1.936 -0.2128  0.1955 -0.4445
  313MOL0     C42181   1.628   4.587   1.949 -0.0973  0.1644 -0.0394
  313MOL0     C42182   1.721   4.671   2.048 -0.0169 -0.5388  0.6256
  313MOL0     C42183   1.857   4.620   2.062  0.9545 -1.0063 -0.1575
  313MOL0     C42184   1.965   4.576   2.073  0.0954  1.0934  1.1153
  313MOL0     C42185   1.251   4.571   1.579 -0.3246  0.1033 -0.8556
  313MOL0     C42186   1.186   4.592   1.457 -0.3839  0.1513 -0.6767
  313MOL0     C42187   1.225   4.495   1.350 -0.5001 -0.3142 -0.8989
  313MOL0     H42188   0.819   4.514   1.217  2.0362  0.8427  1.0729
  313MOL0     H42189   0.653   4.495   1.028  0.2819 -0.7938  0.9211
  313MOL0     H42190   0.372   4.845   0.922 -3.2912 -3.2792 -1.7673
  313MOL0     H42191   0.529   4.868   0.826  0.9113 -1.9473 -2.9408
  313MOL0     H42192   0.329   4.667   0.741  1.3504 -1.8794  1.0047
  313MOL0     H42193   0.452   4.745   0.644  1.2493  3.4262 -0.4103
  313MOL0     H42194   0.346   4.979   0.660  1.2093 -0.0281  0.5676
  313MOL0     H42195   0.241   4.914   0.773  0.1300 -1.5796 -0.4219
  313MOL0     H42196   0.169   4.742   0.599  0.9326  0.2305 -0.8582
  313MOL0     H42197   0.123   4.911   0.549 -1.0094 -0.0002  3.2169
  313MOL0     H42198   0.372   4.774   0.458 -1.0009  0.1270  2.8921
  313MOL0     H42199   0.227   4.782   0.359  0.6851 -1.8654  0.9101
  313MOL0     H42200   0.218   5.023   0.358 -0.3886 -2.0803 -3.8583
  313MOL0     H42201   0.357   5.042   0.456 -0.2698  2.3314 -2.3292
  313MOL0     H42202   0.330   4.909   0.184 -2.6171 -1.0495  2.8780
  313MOL0     H42203   0.487   4.913   0.270 -0.1422 -0.0650  2.3460
  313MOL0     H42204   0.471   5.069   0.089  1.0244 -2.2246  1.6879
  313MOL0     H42205   0.323   5.137   0.155 -0.4992  0.1576  3.8387
  313MOL0     H42206   0.730   5.100   0.263  0.4561  0.5699  1.2032
  313MOL0     H42207   0.808   5.337   0.533 -1.9481  0.6302 -0.0810
  313MOL0     H42208   0.866   5.194   0.434  3.5006  1.2755 -0.5187
  313MOL0     H42209   1.010   5.390   0.370 -0.6700 -0.7083 -0.0822
  313MOL0     H42210   0.899   5.361   0.238 -1.4759  1.2930 -0.5406
  313MOL0     H42211   0.754   5.539   0.293  1.0434  5.9793 -0.2402
  313MOL0     H42212   0.912   5.608   0.291  0.7624  2.6116  2.5239
  313MOL0     H42213   0.744   5.561   0.518  1.5818 -1.9086  0.9331
  313MOL0     H42214   0.838   5.710   0.483 -1.4355  0.4098  0.4387
  313MOL0     H42215   1.160   5.456   0.698  0.3883 -0.6651 -1.0566
  313MOL0     H42216   1.390   5.503   0.656 -1.8634  0.2589  2.2696
  313MOL0     H42217   1.697   5.330   0.439 -1.9115  1.1714 -0.7808
  313MOL0     H42218   1.949   5.306   0.358  1.6820  1.6051 -0.8923
  313MOL0     H42219   2.214   5.446   0.549  0.7757 -0.4305  0.0412
  313MOL0     H42220   2.169   5.308   0.458  0.0465 -0.8651  0.9357
  313MOL0     H42221   2.321   5.398   0.262  3.1072 -2.0466 -0.8005
  313MOL0     H42222   2.356   5.539   0.367 -0.9064  0.5453 -1.7229
  313MOL0     H42223   2.445   5.361   0.540 -0.5922  1.0042 -1.2139
  313MOL0     H42224   2.411   5.237   0.427 -0.0812 -0.7784  0.8971
  313MOL0     H42225   2.654   5.313   0.441 -0.0324  3.3603  2.4369
  313MOL0     H42226   2.606   5.474   0.374 -1.4895  0.4621 -3.8052
  313MOL0     H42227   2.523   5.329   0.163  0.2313  0.3891  0.2878
  313MOL0     H42228   2.603   5.188   0.246  0.4743 -0.1941 -2.8131
  313MOL0     H42229   2.724   5.436   0.129 -0.1381 -0.6811 -0.8185
  313MOL0     H42230   2.808   5.332   0.255  1.0288  1.6843  0.7569
  313MOL0     H42231   2.817   5.148   0.102 -1.0494 -1.1653 -2.5164
  313MOL0     H42232   2.871   5.290   0.017 -2.6242  2.8536 -2.0546
  313MOL0     H42233   2.728   5.161  -0.145 -2.2220 -0.8875 -1.7778
  313MOL0     H42234   2.594   5.177  -0.034 -0.8924 -1.6571 -3.7694
  313MOL0     H42235   2.007   5.726   0.461 -0.2626 -0.0680  0.4273
  313MOL0     H42236   1.780   5.731   0.551 -1.4543  0.5523 -0.2774
  313MOL0     H42237   1.276   5.734   0.305 -3.0445 -0.8523 -1.5681
  313MOL0     H42238   1.055   5.710   0.370 -0.0040 -1.3947 -1.1064
  313MOL0     H42239   0.561   4.919   1.089  0.0629  1.2641  3.1830
  313MOL0     H42240   0.717   4.940   1.254 -2.2615  0.5547 -1.2672
  313MOL0     H42241   1.017   4.868   1.530  0.5969  1.1528  2.1323
  313MOL0     H42242   1.136   4.827   1.753  2.3621 -2.4233  1.5855
  313MOL0     H42243   1.489   4.599   1.730 -0.3772 -3.5092 -0.2854
  313MOL0     H42244   1.400   4.470   1.813 -1.2693 -0.0836  0.5029
  313MOL0     H42245   1.427   4.594   2.028 -0.3690 -2.2947 -1.2217
  313MOL0     H42246   1.484   4.731   1.935 -0.3147  0.2177  0.6277
  313MOL0     H42247   1.675   4.606   1.852 -0.4641  2.7576  0.2259
  313MOL0     H42248   1.635   4.480   1.971  2.9899 -0.0065 -1.4255
  313MOL0     H42249   1.725   4.779   2.030 -2.7863 -0.6414 -1.2383
  313MOL0     H42250   1.670   4.659   2.144 -1.3777 -0.3762 -0.0452
  313MOL0     H42251   2.063   4.536   2.092 -0.1264  0.0726  0.2119
  313MOL0     H42252   1.325   4.495   1.602  1.5910  2.1210  0.0404
  313MOL0     H42253   1.312   4.433   1.376 -1.0388 -1.7720 -2.4604
  313MOL0     H42254   1.139   4.431   1.332 -3.1468  2.1587  1.7251
  313MOL0     H42255   1.266   4.540   1.259  5.2304 -1.9469  0.4464
  314MOL0     O42256   2.111   3.535   0.084  0.0330  0.3479  0.3270
  314MOL0     C42257   2.127   3.470   0.188 -0.0082  0.0445  0.2481
  314MOL0     O42258   2.248   3.454   0.254  0.4185 -0.1835  1.1972
  314MOL0     C42259   2.359   3.525   0.210  0.1155  0.4924 -0.2809
  314MOL0     C42260   2.476   3.444   0.209  0.4223 -1.5226  0.4539
  314MOL0     C42261   2.601   3.495   0.157  0.8271  0.4020 -0.5990
  314MOL0     C42262   2.611   3.630   0.124  0.4549  0.1746 -0.5037
  314MOL0     O42263   2.718   3.691   0.072 -0.4737 -0.4506 -0.2766
  314MOL0     C42264   2.751   3.651  -0.061  0.2639  0.2317  0.3342
  314MOL0     C42265   2.883   3.724  -0.088  0.1159  0.4812  0.1342
  314MOL0     C42266   2.883   3.876  -0.085  0.1397  0.2247 -0.2688
  314MOL0     C42267   2.822   3.944  -0.211  0.9484 -0.5180  0.1323
  314MOL0     C42268   2.728   4.069  -0.173  0.3083 -0.2506 -0.8221
  314MOL0     C42269   2.707   4.152  -0.299  0.5057 -0.0641 -0.6660
  314MOL0     C42270   2.584   4.245  -0.275  0.2163 -0.1846  0.3794
  314MOL0     C42271   2.583   4.358  -0.381 -0.0888 -0.0211 -0.1661
  314MOL0     N42272   2.510   4.479  -0.351  0.8881 -0.0189 -0.3386
  314MOL0     C42273   2.407   4.498  -0.271  0.2333 -0.5869  0.8954
  314MOL0     C42274   2.377   4.633  -0.275 -0.5477  0.5623  0.0538
  314MOL0     C42275   2.276   4.710  -0.198  0.6486  1.0036 -0.3122
  314MOL0     C42276   2.131   4.651  -0.196 -0.3180 -0.4721 -0.1396
  314MOL0     C42277   2.037   4.741  -0.112 -0.1099 -1.0191  0.4511
  314MOL0     C42278   1.898   4.669  -0.113 -0.1339  0.5869 -0.6620
  314MOL0     O42279   1.860   4.640  -0.248  0.2155 -0.4490 -0.0526
  314MOL0     C42280   1.856   4.742  -0.343  0.2119 -0.1501  0.5848
  314MOL0     C42281   1.848   4.874  -0.314  0.4617  0.1299  0.1394
  314MOL0     C42282   1.831   4.971  -0.413 -0.0587  0.2190  0.1897
  314MOL0     C42283   1.832   4.931  -0.552 -1.1176 -0.5812  0.1200
  314MOL0     C42284   1.825   5.028  -0.661 -0.1896  0.1756  0.8187
  314MOL0     O42285   1.852   4.982  -0.792 -0.4442  1.2638 -0.6072
  314MOL0     C42286   1.811   5.065  -0.891  0.2255 -0.2407 -0.2325
  314MOL0     C42287   1.896   5.154  -0.953 -0.2255  0.5777  0.8651
  314MOL0     C42288   1.850   5.232  -1.057 -0.4501  0.5518  0.0789
  314MOL0     C42289   1.721   5.234  -1.102  0.6075  0.2061  0.0460
  314MOL0     O42290   1.695   5.308  -1.215 -0.2263 -0.0559 -0.1064
  314MOL0     C42291   1.583   5.393  -1.200  0.0102 -0.0494  0.2039
  314MOL0     C42292   1.557   5.495  -1.309 -0.2703  0.5603  0.2379
  314MOL0     C42293   1.663   5.610  -1.296  0.1508  0.5850 -1.1121
  314MOL0     C42294   1.632   5.735  -1.387  0.4474  0.6158 -0.4077
  314MOL0     C42295   1.726   5.844  -1.356  0.2057 -0.2621  0.0062
  314MOL0     C42296   1.699   5.910  -1.212 -0.5262  1.3415  0.1705
  314MOL0     C42297   1.765   6.047  -1.190 -0.5183  0.0677 -0.3766
  314MOL0     C42298   1.740   6.086  -1.044 -0.2459 -0.5555  0.0915
  314MOL0    Cl42299   1.852   6.220  -1.006  0.5424 -0.2833 -0.3912
  314MOL0     C42300   1.629   5.163  -1.027  0.1023  0.4872 -1.3296
  314MOL0     C42301   1.678   5.081  -0.923  0.3640 -0.0894 -0.0804
  314MOL0     O42302   1.792   5.137  -0.627  0.0543  0.5743  0.2063
  314MOL0     C42303   1.861   4.798  -0.585  0.1891  1.1845  0.1231
  314MOL0     C42304   1.869   4.703  -0.476  0.3484 -0.1436 -0.1371
  314MOL0     N42305   2.447   4.681  -0.382  0.3588 -0.1553 -0.4233
  314MOL0     N42306   2.531   4.593  -0.422 -0.1659  0.3971  0.2264
  314MOL0     C42307   2.500   3.712   0.140  0.0056 -0.4061  0.2234
  314MOL0     C42308   2.373   3.664   0.185 -0.3967  0.1527  0.4527
  314MOL0     C42309   2.008   3.411   0.227 -0.0316  0.6747 -0.7071
  314MOL0     C42310   1.910   3.392   0.132  0.9297  0.1597 -0.9509
  314MOL0     C42311   1.782   3.350   0.167  0.3841  0.3518 -0.5300
  314MOL0     C42312   1.759   3.294   0.294  0.4500 -0.5900  0.4456
  314MOL0     O42313   1.651   3.209   0.324  0.2488  0.5707 -0.1992
  314MOL0     C42314   1.636   3.106   0.237  0.8838  1.0107 -0.4425
  314MOL0     C42315   1.501   3.031   0.255  0.0975 -0.2798 -0.6489
  314MOL0     C42316   1.504   2.963   0.392 -0.1093  0.3469 -0.3245
  314MOL0     C42317   1.409   2.851   0.423  0.5278  0.5015 -0.9709
  314MOL0     C42318   1.268   2.895   0.449 -0.2174  0.3017 -0.4197
  314MOL0     C42319   1.159   2.951   0.455  0.6298 -0.3220 -0.5266
  314MOL0     C42320   1.862   3.301   0.385 -0.3631  0.0037 -0.3683
  314MOL0     C42321   1.983   3.372   0.358  0.4831 -0.3156 -0.5181
  314MOL0     C42322   2.069   3.400   0.473 -0.1000  0.5132  0.6884
  314MOL0     H42323   2.462   3.339   0.234 -1.3594 -1.3639  0.3092
  314MOL0     H42324   2.684   3.427   0.142  0.1738 -0.1235 -2.0092
  314MOL0     H42325   2.767   3.545  -0.085 -1.1589 -0.0287  0.4251
  314MOL0     H42326   2.670   3.681  -0.128 -0.1458 -1.4694  0.0207
  314MOL0     H42327   2.925   3.680  -0.179 -0.9328  0.3287 -0.2947
  314MOL0     H42328   2.926   3.670  -0.003 -1.6573 -5.0284 -1.9822
  314MOL0     H42329   2.986   3.911  -0.072 -0.2919  1.4867 -0.1076
  314MOL0     H42330   2.826   3.895   0.006 -1.4150 -1.2016 -0.8779
  314MOL0     H42331   2.906   3.976  -0.273  2.9750 -0.3471  2.7984
  314MOL0     H42332   2.768   3.871  -0.272  0.9366 -0.3200 -0.0921
  314MOL0     H42333   2.630   4.025  -0.152  0.2746  0.7600  1.3532
  314MOL0     H42334   2.765   4.128  -0.089 -0.5997 -1.8811  0.7747
  314MOL0     H42335   2.797   4.208  -0.330  0.0507 -0.5868 -3.1964
  314MOL0     H42336   2.691   4.098  -0.393 -0.1148  1.4066 -1.4407
  314MOL0     H42337   2.588   4.294  -0.177 -0.0499  1.7757 -0.5621
  314MOL0     H42338   2.493   4.183  -0.272  0.6809 -0.8561  1.7973
  314MOL0     H42339   2.688   4.390  -0.380 -0.0037 -0.2703  1.8051
  314MOL0     H42340   2.558   4.319  -0.480  0.6711  1.8083 -1.1486
  314MOL0     H42341   2.353   4.441  -0.195 -0.8801  1.0648  1.3946
  314MOL0     H42342   2.311   4.704  -0.094 -0.0145 -0.4808 -0.1444
  314MOL0     H42343   2.276   4.812  -0.236 -3.6728  1.1856 -0.3101
  314MOL0     H42344   2.107   4.641  -0.303 -0.7716  0.1777 -0.1051
  314MOL0     H42345   2.125   4.550  -0.157  1.7991 -0.5841 -0.0092
  314MOL0     H42346   2.036   4.842  -0.153 -1.4262 -0.0543  2.6932
  314MOL0     H42347   2.071   4.763  -0.010  2.3402 -1.9251 -0.0979
  314MOL0     H42348   1.815   4.719  -0.062 -0.3721 -0.9715  0.5411
  314MOL0     H42349   1.906   4.573  -0.061 -0.3165 -1.3077 -3.8562
  314MOL0     H42350   1.835   4.903  -0.210 -2.8456  0.3509 -0.2272
  314MOL0     H42351   1.803   5.072  -0.389 -0.9040  0.3307 -1.1337
  314MOL0     H42352   1.999   5.140  -0.920 -0.6336 -1.2694  1.4779
  314MOL0     H42353   1.928   5.291  -1.106  1.0214 -1.4624 -0.1080
  314MOL0     H42354   1.494   5.330  -1.187  0.1702 -0.4550 -0.6069
  314MOL0     H42355   1.587   5.449  -1.107 -6.2161  1.3639  0.0582
  314MOL0     H42356   1.575   5.438  -1.401  0.1770 -2.7013  2.2010
  314MOL0     H42357   1.453   5.531  -1.310 -0.1663  0.9107 -1.5517
  314MOL0     H42358   1.669   5.636  -1.190 -1.2421 -0.9786 -0.6095
  314MOL0     H42359   1.756   5.553  -1.308 -0.8111 -1.1821 -0.4302
  314MOL0     H42360   1.527   5.764  -1.381 -0.6464 -2.8884 -0.6453
  314MOL0     H42361   1.666   5.704  -1.487 -0.0610  2.4930 -1.2151
  314MOL0     H42362   1.708   5.926  -1.426 -1.1069 -0.3938  0.1542
  314MOL0     H42363   1.829   5.809  -1.360  0.1090 -0.6588  0.7390
  314MOL0     H42364   1.591   5.926  -1.206 -0.9040 -1.2112  2.1158
  314MOL0     H42365   1.715   5.831  -1.137 -3.5913  0.4995  0.0945
  314MOL0     H42366   1.711   6.117  -1.254  0.7180  0.2184 -1.2902
  314MOL0     H42367   1.872   6.045  -1.211 -0.2089 -1.8668  1.0871
  314MOL0     H42368   1.637   6.115  -1.022  0.3871  0.8170  1.3964
  314MOL0     H42369   1.774   6.010  -0.973  0.4821  1.2506  1.7567
  314MOL0     H42370   1.525   5.155  -1.055 -0.7422  3.4538  0.4556
  314MOL0     H42371   1.598   5.028  -0.872 -3.0487  3.1214 -1.6360
  314MOL0     H42372   1.869   4.769  -0.689  0.1757  0.5406  0.2994
  314MOL0     H42373   1.873   4.598  -0.503 -2.6986 -1.6406  4.0980
  314MOL0     H42374   2.518   3.818   0.123  0.5997 -0.4970  0.2548
  314MOL0     H42375   2.282   3.722   0.188 -1.5916 -1.7080  1.5011
  314MOL0     H42376   1.931   3.418   0.029  2.5379  0.6205 -0.5279
  314MOL0     H42377   1.701   3.367   0.097  0.2987  2.5558  0.0387
  314MOL0     H42378   1.722   3.041   0.248  0.4820  0.5901  0.3011
  314MOL0     H42379   1.631   3.146   0.135 -2.3826 -0.2983 -0.9385
  314MOL0     H42380   1.489   2.953   0.179  1.7473 -0.1069 -1.1262
  314MOL0     H42381   1.414   3.096   0.243 -0.3941 -1.2652 -3.0684
  314MOL0     H42382   1.504   3.031   0.478 -2.0246 -1.5918  1.3083
  314MOL0     H42383   1.606   2.926   0.402  0.5222  2.2198  0.6228
  314MOL0     H42384   1.405   2.776   0.344  1.7257  1.2138 -1.7429
  314MOL0     H42385   1.449   2.802   0.512  1.9162  0.9255 -1.3395
  314MOL0     H42386   1.075   3.016   0.467  1.1892  0.2649  0.3362
  314MOL0     H42387   1.844   3.260   0.484 -0.4845 -0.4688 -0.5817
  314MOL0     H42388   2.020   3.408   0.571 -2.2114 -1.8119 -0.0490
  314MOL0     H42389   2.135   3.312   0.476  0.7400  1.1171  0.1758
  314MOL0     H42390   2.123   3.494   0.461 -2.6437  2.3025  2.2879
  315MOL0     O42391   5.139   7.063   6.358  1.1652 -0.5511  0.4808
  315MOL0     C42392   5.027   7.097   6.393 -0.0887 -0.1571 -0.2786
  315MOL0     O42393   4.912   7.115   6.317 -0.2236 -0.1106  0.6393
  315MOL0     C42394   4.916   7.051   6.190 -0.2965  0.0961 -0.0580
  315MOL0     C42395   4.858   6.929   6.172  0.0562  0.4659  0.2150
  315MOL0     C42396   4.835   6.870   6.050  0.3519 -0.1701  0.1413
  315MOL0     C42397   4.875   6.922   5.931  0.1051 -0.3999 -0.0853
  315MOL0     O42398   4.852   6.852   5.818  0.5532  0.2997 -0.7123
  315MOL0     C42399   4.834   6.922   5.690  0.0451  0.7915  0.5636
  315MOL0     C42400   4.924   6.872   5.589 -0.2773  0.8942 -0.0504
  315MOL0     C42401   5.073   6.894   5.622 -0.5182 -0.0648  0.5314
  315MOL0     C42402   5.166   6.854   5.507  0.4521  0.6661 -0.6086
  315MOL0     C42403   5.309   6.878   5.539  0.6904  0.3076  0.4818
  315MOL0     C42404   5.415   6.804   5.458  0.0823  0.5269  0.8082
  315MOL0     C42405   5.549   6.814   5.544  0.2319  0.3642  0.2804
  315MOL0     C42406   5.653   6.725   5.478 -0.5209  0.0859  0.3732
  315MOL0     N42407   5.784   6.746   5.542 -0.3101 -0.9836  1.0088
  315MOL0     C42408   5.799   6.738   5.678  0.4861 -0.3621  0.6815
  315MOL0     C42409   5.927   6.756   5.697 -0.5651 -0.3775 -0.7268
  315MOL0     C42410   6.007   6.736   5.821  0.0756 -0.0171 -0.9469
  315MOL0     C42411   6.151   6.693   5.812  0.6103  0.5009 -0.1419
  315MOL0     C42412   6.259   6.799   5.841  0.3658  0.3025 -0.4846
  315MOL0     C42413   6.286   6.808   5.986  0.4079 -0.2175 -0.3531
  315MOL0     O42414   6.376   6.923   6.011 -0.4866  0.9551  0.0177
  315MOL0     C42415   6.500   6.879   6.029 -0.5837 -0.6284 -0.5222
  315MOL0     C42416   6.600   6.867   5.937 -0.0638 -0.2004  0.5120
  315MOL0     C42417   6.728   6.822   5.969 -0.4375  0.1716 -0.1712
  315MOL0     C42418   6.756   6.781   6.103  0.1914  0.6547  1.6077
  315MOL0     C42419   6.877   6.708   6.144 -0.2555  0.6837  0.3276
  315MOL0     O42420   6.943   6.622   6.050 -0.2061 -0.9259 -0.2870
  315MOL0     C42421   7.046   6.537   6.082 -0.0458 -0.3663  0.2487
  315MOL0     C42422   7.138   6.545   6.188  0.4147 -0.4631  0.3073
  315MOL0     C42423   7.238   6.449   6.207 -0.7028 -0.3643  0.3577
  315MOL0     C42424   7.246   6.343   6.119 -0.4085  0.0528 -1.0036
  315MOL0     O42425   7.351   6.266   6.137 -0.0234 -0.3866  0.4619
  315MOL0     C42426   7.327   6.133   6.191  0.3706 -0.4065 -0.4228
  315MOL0     C42427   7.448   6.082   6.259  0.3234  0.3499  0.0951
  315MOL0     C42428   7.424   5.940   6.322  0.2236  0.9482  0.6569
  315MOL0     C42429   7.523   5.930   6.441  0.3238  0.1522 -0.3017
  315MOL0     C42430   7.576   5.788   6.482 -0.5378 -0.2675  0.3346
  315MOL0     C42431   7.618   5.771   6.625 -0.1130  0.0857  0.1321
  315MOL0     C42432   7.656   5.622   6.661  0.7138 -0.2392 -0.4080
  315MOL0     C42433   7.700   5.612   6.808  0.0597  0.0650 -0.8022
  315MOL0    Cl42434   7.733   5.447   6.852  0.2051  0.1459 -0.5780
  315MOL0     C42435   7.157   6.330   6.020  0.2824 -0.4556 -0.6552
  315MOL0     C42436   7.054   6.426   5.996  0.1606  0.3908 -0.2158
  315MOL0     O42437   6.906   6.717   6.260  0.3825 -0.2310  0.1865
  315MOL0     C42438   6.655   6.800   6.201 -0.2324 -0.0633 -0.2291
  315MOL0     C42439   6.532   6.854   6.168 -0.0055  0.3974  0.4114
  315MOL0     N42440   5.990   6.806   5.580  0.0384 -0.1359  0.0825
  315MOL0     N42441   5.894   6.798   5.490 -0.0068 -0.5807  0.2082
  315MOL0     C42442   4.933   7.051   5.943  0.5109 -0.4447  0.1660
  315MOL0     C42443   4.957   7.113   6.067  0.2217  0.0943  0.0214
  315MOL0     C42444   5.018   7.167   6.530  0.6615  0.7783 -0.4190
  315MOL0     C42445   4.920   7.263   6.557  0.3798 -0.0472 -0.8214
  315MOL0     C42446   4.912   7.324   6.682 -0.5020  0.4354 -0.6285
  315MOL0     C42447   4.990   7.284   6.790 -0.0249 -0.6445 -0.3359
  315MOL0     O42448   4.960   7.346   6.906  0.0848  0.4384  0.6083
  315MOL0     C42449   5.030   7.331   7.032 -0.1291  0.0490 -0.2687
  315MOL0     C42450   4.952   7.432   7.127 -0.6486  0.7253  0.8711
  315MOL0     C42451   4.832   7.372   7.188  0.8035 -0.5928  0.0323
  315MOL0     C42452   4.797   7.439   7.317  0.8415  0.0184  0.0626
  315MOL0     C42453   4.666   7.398   7.371  0.6508  0.4334  0.1354
  315MOL0     C42454   4.564   7.369   7.431 -0.8805 -0.0589 -0.1813
  315MOL0     C42455   5.080   7.175   6.771  0.6121 -0.0788  0.2515
  315MOL0     C42456   5.107   7.137   6.636  0.1500 -0.1244 -0.4314
  315MOL0     C42457   5.226   7.042   6.624 -0.2094  0.4315  0.6961
  315MOL0     H42458   4.847   6.875   6.265  1.8729  1.3283  0.9697
  315MOL0     H42459   4.771   6.783   6.045 -4.1118  2.7106  1.2250
  315MOL0     H42460   4.731   6.910   5.656 -0.0505  1.1191  0.7248
  315MOL0     H42461   4.846   7.030   5.708 -0.5613  0.7857  1.0282
  315MOL0     H42462   4.899   6.898   5.485  1.2222 -0.9400 -0.9213
  315MOL0     H42463   4.915   6.764   5.598  0.1055  0.5225 -2.9893
  315MOL0     H42464   5.096   6.826   5.705 -2.9755 -1.7262 -0.0335
  315MOL0     H42465   5.087   7.002   5.633 -4.7648  1.2295 -3.6386
  315MOL0     H42466   5.157   6.746   5.492  2.5000  0.0855  1.7343
  315MOL0     H42467   5.133   6.906   5.416  4.4747  0.0958 -2.6212
  315MOL0     H42468   5.329   6.986   5.542 -0.1133  0.5302 -1.0752
  315MOL0     H42469   5.318   6.836   5.640  1.7896 -0.2243  0.1821
  315MOL0     H42470   5.378   6.702   5.438 -4.5513  2.2765 -0.9943
  315MOL0     H42471   5.424   6.842   5.356 -0.8647 -0.0687  0.4842
  315MOL0     H42472   5.550   6.782   5.649  2.1545 -2.3508 -0.4413
  315MOL0     H42473   5.572   6.921   5.545 -3.8806  1.4460  2.1646
  315MOL0     H42474   5.629   6.621   5.499  0.0598 -0.5640 -1.8815
  315MOL0     H42475   5.651   6.749   5.371 -0.1981 -1.7879 -0.0845
  315MOL0     H42476   5.729   6.699   5.751  1.6918 -1.4551  1.2960
  315MOL0     H42477   6.002   6.829   5.878 -1.9754 -1.7671  1.9336
  315MOL0     H42478   5.952   6.660   5.876  2.4722 -1.0053  0.2556
  315MOL0     H42479   6.170   6.597   5.862 -1.3335 -0.9981 -2.0755
  315MOL0     H42480   6.169   6.667   5.708  0.0682  3.3285 -1.0047
  315MOL0     H42481   6.230   6.895   5.798 -1.1659 -0.3478 -0.9816
  315MOL0     H42482   6.346   6.773   5.780  1.5257  4.1309 -0.7630
  315MOL0     H42483   6.346   6.725   6.026  3.5079  2.0828  0.0957
  315MOL0     H42484   6.192   6.817   6.042 -0.9543  3.5491 -2.8537
  315MOL0     H42485   6.577   6.889   5.834  0.5595  0.3096  0.4746
  315MOL0     H42486   6.801   6.801   5.891  2.2816 -0.3671  2.3072
  315MOL0     H42487   7.121   6.637   6.243 -2.1810 -0.0559 -1.0266
  315MOL0     H42488   7.322   6.459   6.275  0.6321  1.9748 -1.4579
  315MOL0     H42489   7.242   6.133   6.260 -0.3436 -2.9260 -1.2039
  315MOL0     H42490   7.311   6.060   6.112  1.5030 -3.1165  1.6884
  315MOL0     H42491   7.532   6.076   6.189  0.0685 -0.2567 -0.1698
  315MOL0     H42492   7.475   6.155   6.335 -2.3101  0.9026  0.5877
  315MOL0     H42493   7.320   5.920   6.351  0.9351 -2.0904  1.5374
  315MOL0     H42494   7.443   5.857   6.253  2.0823  0.0525  2.1557
  315MOL0     H42495   7.463   5.970   6.523  0.1956 -0.0547 -0.2933
  315MOL0     H42496   7.610   5.991   6.419 -1.2642  1.9876 -1.8828
  315MOL0     H42497   7.659   5.761   6.417  0.9446 -0.2455  2.1511
  315MOL0     H42498   7.509   5.702   6.470  1.7119 -2.2556  1.3738
  315MOL0     H42499   7.706   5.835   6.632 -2.3676  3.2291  2.8761
  315MOL0     H42500   7.540   5.815   6.687  0.2894 -1.1571  1.5805
  315MOL0     H42501   7.736   5.585   6.596 -0.4987 -0.7983 -1.6298
  315MOL0     H42502   7.575   5.548   6.651  2.5526 -2.5801  0.8965
  315MOL0     H42503   7.791   5.669   6.829 -0.2482  0.5349 -0.7293
  315MOL0     H42504   7.621   5.648   6.874  1.6116  0.6819  0.8233
  315MOL0     H42505   7.169   6.256   5.941  1.5449 -0.0871 -0.8414
  315MOL0     H42506   6.985   6.408   5.915  2.3479  1.5694 -2.4655
  315MOL0     H42507   6.666   6.758   6.301 -0.9089 -0.6368 -0.3899
  315MOL0     H42508   6.457   6.867   6.245  1.2864 -2.0496  2.2450
  315MOL0     H42509   4.960   7.107   5.854 -0.8271  1.9507  1.1848
  315MOL0     H42510   5.004   7.208   6.045 -2.5335  0.8076 -3.6685
  315MOL0     H42511   4.837   7.290   6.491  0.1173 -1.6797 -1.2046
  315MOL0     H42512   4.841   7.404   6.700  1.2320  1.9485 -0.3166
  315MOL0     H42513   5.135   7.362   7.036 -0.1407  0.0385  0.1520
  315MOL0     H42514   5.027   7.224   7.058 -1.0555 -0.0823 -0.8652
  315MOL0     H42515   4.917   7.515   7.065 -4.5467 -1.1881  0.2400
  315MOL0     H42516   5.020   7.451   7.211 -1.7573 -4.6632  3.4489
  315MOL0     H42517   4.856   7.266   7.205 -2.1064 -1.2078  0.8585
  315MOL0     H42518   4.744   7.387   7.125  0.3968  1.7233  1.0540
  315MOL0     H42519   4.875   7.421   7.392  1.1036 -2.2081 -0.6689
  315MOL0     H42520   4.793   7.546   7.294  0.8830  0.1429  0.6201
  315MOL0     H42521   4.486   7.348   7.502  2.1789  1.0888  3.9338
  315MOL0     H42522   5.140   7.153   6.859  0.4630  1.1775  0.6910
  315MOL0     H42523   5.302   7.081   6.556 -0.5462  0.4837  0.3490
  315MOL0     H42524   5.271   7.011   6.719  0.7958  0.6083  0.2860
  315MOL0     H42525   5.177   6.951   6.588  2.3767 -2.0470  3.0203
  316MOL0     O42526   9.104   4.476   8.546 -0.2176 -0.0023  0.2060
  316MOL0     C42527   9.065   4.367   8.508 -0.5740  0.7874 -0.8210
  316MOL0     O42528   9.140   4.280   8.432  0.3777 -0.5992 -0.1764
  316MOL0     C42529   9.260   4.341   8.380  0.3405 -0.2223  0.3938
  316MOL0     C42530   9.376   4.266   8.375 -1.6662 -0.6980 -0.4336
  316MOL0     C42531   9.491   4.328   8.318  0.2738  0.5417  0.0457
  316MOL0     C42532   9.477   4.432   8.226  0.9109 -0.1864 -1.0022
  316MOL0     O42533   9.579   4.485   8.149 -0.3415  0.1754  0.7310
  316MOL0     C42534   9.661   4.409   8.060 -0.0760  0.4711 -0.6089
  316MOL0     C42535   9.699   4.484   7.935 -0.5582 -0.4578 -0.9107
  316MOL0     C42536   9.579   4.543   7.882  0.0646 -0.7620 -0.1599
  316MOL0     C42537   9.469   4.439   7.850  0.2966 -0.6666  0.7502
  316MOL0     C42538   9.361   4.485   7.756  0.2416 -1.1867  0.4459
  316MOL0     C42539   9.290   4.620   7.809  0.4747  0.8894  0.0169
  316MOL0     C42540   9.190   4.658   7.701  0.5049 -0.2442  0.2066
  316MOL0     C42541   9.055   4.582   7.702  0.1415  0.0016 -0.3645
  316MOL0     N42542   8.958   4.612   7.596 -0.4566 -0.1609 -0.2595
  316MOL0     C42543   8.986   4.619   7.465 -0.3568  0.6236 -0.4133
  316MOL0     C42544   8.878   4.666   7.407  0.1429 -0.1735  0.8861
  316MOL0     C42545   8.865   4.696   7.261 -0.2599  0.4147 -0.2611
  316MOL0     C42546   8.842   4.564   7.185  0.4112 -0.3338 -1.0735
  316MOL0     C42547   8.709   4.498   7.220 -0.1684  0.5918  0.2849
  316MOL0     C42548   8.673   4.377   7.130 -1.2671 -0.1417 -0.7772
  316MOL0     O42549   8.682   4.404   6.986  0.8491  0.6163 -0.9032
  316MOL0     C42550   8.594   4.493   6.930  0.8104 -0.2755  0.3103
  316MOL0     C42551   8.640   4.571   6.824  0.0788 -0.3971  0.3764
  316MOL0     C42552   8.562   4.671   6.771 -0.7722  0.3323  0.1271
  316MOL0     C42553   8.431   4.701   6.819  0.6232  1.2264  0.6422
  316MOL0     C42554   8.342   4.807   6.769 -0.9198  0.1867 -0.3939
  316MOL0     O42555   8.389   4.844   6.645  0.8295 -0.7244  0.3976
  316MOL0     C42556   8.311   4.921   6.563 -0.5941 -0.2234 -0.0838
  316MOL0     C42557   8.360   5.026   6.480  0.0033  0.5866 -0.0746
  316MOL0     C42558   8.272   5.120   6.419 -0.1083 -0.5186 -0.0026
  316MOL0     C42559   8.129   5.094   6.425  0.2532  0.2875  0.3934
  316MOL0     O42560   8.034   5.190   6.390 -0.3144  0.3912  0.4578
  316MOL0     C42561   8.052   5.330   6.420  0.2120 -0.0882 -1.0542
  316MOL0     C42562   7.916   5.385   6.398  0.3543 -0.3336 -0.5691
  316MOL0     C42563   7.867   5.378   6.259 -0.8012 -0.5140  0.1064
  316MOL0     C42564   7.724   5.416   6.252 -0.0707  0.1360 -0.7845
  316MOL0     C42565   7.660   5.430   6.116  0.1899  0.3393 -0.1619
  316MOL0     C42566   7.515   5.486   6.133  0.2889  0.1630 -0.1985
  316MOL0     C42567   7.429   5.469   6.007 -0.9000 -0.4831 -0.1916
  316MOL0     C42568   7.291   5.530   6.021 -0.6861  0.1522 -0.0830
  316MOL0    Cl42569   7.295   5.700   6.051  0.4164  0.0885  0.5317
  316MOL0     C42570   8.086   4.975   6.477  0.1835 -0.0868 -1.1283
  316MOL0     C42571   8.175   4.892   6.547 -0.1560  0.1374  0.3097
  316MOL0     O42572   8.244   4.846   6.828  0.6287 -0.3541 -0.1444
  316MOL0     C42573   8.383   4.623   6.932 -0.1534  0.6174  1.2480
  316MOL0     C42574   8.461   4.517   6.981 -0.4544  0.8585  0.4291
  316MOL0     N42575   8.771   4.670   7.504 -0.5651 -0.4654 -0.6053
  316MOL0     N42576   8.824   4.640   7.621  0.0794  0.0348 -0.0187
  316MOL0     C42577   9.358   4.499   8.222 -0.8472  0.3408  0.0724
  316MOL0     C42578   9.248   4.461   8.301  0.1733 -1.6958  0.5412
  316MOL0     C42579   8.944   4.306   8.577  0.0803 -0.8798  0.0027
  316MOL0     C42580   8.882   4.198   8.510 -0.5534  0.1962  0.4234
  316MOL0     C42581   8.788   4.120   8.577 -0.7734  0.4340 -1.1960
  316MOL0     C42582   8.730   4.152   8.703  0.8805 -0.0357 -0.6798
  316MOL0     O42583   8.634   4.073   8.769 -0.2718  0.0470 -0.3477
  316MOL0     C42584   8.613   3.932   8.719 -0.3481 -0.2033  0.1871
  316MOL0     C42585   8.521   3.921   8.600 -0.2579  0.8482 -0.1969
  316MOL0     C42586   8.501   3.770   8.564 -0.1409  0.1364 -0.4391
  316MOL0     C42587   8.357   3.766   8.506  0.6283  0.0717  0.6204
  316MOL0     C42588   8.344   3.624   8.458 -0.2346 -0.0755 -1.1416
  316MOL0     C42589   8.340   3.510   8.420  0.0915  0.0367  0.1743
  316MOL0     C42590   8.780   4.268   8.761 -0.9956 -0.0015 -1.0719
  316MOL0     C42591   8.884   4.336   8.702 -0.0562  0.1610  0.1840
  316MOL0     C42592   8.949   4.444   8.791 -0.0713  0.8849  0.1696
  316MOL0     H42593   9.393   4.173   8.429 -3.0145 -0.1204  1.0308
  316MOL0     H42594   9.579   4.266   8.333 -0.1149  0.0738  0.4329
  316MOL0     H42595   9.748   4.372   8.115  0.0158  0.2501 -0.8947
  316MOL0     H42596   9.609   4.318   8.029  0.2073 -0.2249  0.8786
  316MOL0     H42597   9.754   4.430   7.857  0.5458  1.1327 -1.2883
  316MOL0     H42598   9.763   4.571   7.955 -0.4680 -0.4013 -1.4369
  316MOL0     H42599   9.603   4.595   7.789 -1.6494 -3.2970 -2.1531
  316MOL0     H42600   9.548   4.621   7.952  1.0308  0.0157 -0.5662
  316MOL0     H42601   9.513   4.349   7.805  0.4256 -0.5040  0.5522
  316MOL0     H42602   9.424   4.406   7.944  0.8561 -1.5725  0.7077
  316MOL0     H42603   9.419   4.504   7.665  0.6610 -3.9133  0.0711
  316MOL0     H42604   9.300   4.397   7.735  0.6401 -1.6281  1.1203
  316MOL0     H42605   9.245   4.623   7.909 -0.9090 -1.6347 -0.4512
  316MOL0     H42606   9.361   4.703   7.808  0.8977  0.5373  0.4256
  316MOL0     H42607   9.229   4.643   7.600 -0.8550 -2.0266 -0.0931
  316MOL0     H42608   9.178   4.766   7.715  1.7688  0.0173 -0.6372
  316MOL0     H42609   9.077   4.475   7.695 -0.4286 -0.2538  1.3421
  316MOL0     H42610   9.010   4.609   7.798 -2.6352  1.8238 -2.0110
  316MOL0     H42611   9.081   4.596   7.418  0.4799  1.9189  0.5471
  316MOL0     H42612   8.771   4.750   7.244  0.6077  1.7352 -1.0923
  316MOL0     H42613   8.945   4.759   7.222  1.7483 -3.0696 -2.2397
  316MOL0     H42614   8.830   4.594   7.080 -1.3949  0.0414 -0.7904
  316MOL0     H42615   8.925   4.494   7.201  0.7441  0.2982  0.0528
  316MOL0     H42616   8.630   4.573   7.205 -0.9567 -0.2224  0.2878
  316MOL0     H42617   8.721   4.458   7.321  2.2652 -1.8436 -0.8230
  316MOL0     H42618   8.576   4.351   7.175  0.3013 -2.1212  1.7457
  316MOL0     H42619   8.736   4.291   7.155  1.0260  1.7972  0.4901
  316MOL0     H42620   8.744   4.565   6.791  0.4902  2.2668  0.9517
  316MOL0     H42621   8.600   4.720   6.682  1.1449 -2.0433 -0.4777
  316MOL0     H42622   8.467   5.044   6.487 -0.0344  0.3621  1.2608
  316MOL0     H42623   8.323   5.199   6.365 -4.5604  2.6235 -0.0958
  316MOL0     H42624   8.078   5.344   6.525  1.1407 -0.0537 -1.2786
  316MOL0     H42625   8.119   5.389   6.357 -1.4412  1.7917 -1.1705
  316MOL0     H42626   7.842   5.339   6.464 -0.4926  1.2788 -0.3457
  316MOL0     H42627   7.915   5.490   6.428  0.8425 -0.9969  2.0609
  316MOL0     H42628   7.923   5.449   6.197  0.0265 -1.9997 -0.9070
  316MOL0     H42629   7.886   5.282   6.211  1.1175  0.1602 -0.5738
  316MOL0     H42630   7.713   5.512   6.303 -3.8704  0.6211 -2.1969
  316MOL0     H42631   7.667   5.336   6.302 -0.4221  1.4514  0.9972
  316MOL0     H42632   7.668   5.338   6.058  1.2568 -0.6584  1.4957
  316MOL0     H42633   7.725   5.500   6.062  2.4297 -2.9441 -2.0342
  316MOL0     H42634   7.457   5.441   6.214 -0.1546 -2.5981 -1.9208
  316MOL0     H42635   7.526   5.589   6.169  2.1837 -0.0177 -0.1382
  316MOL0     H42636   7.432   5.365   5.974  3.7109 -0.9685  1.0836
  316MOL0     H42637   7.481   5.519   5.925 -0.3061  0.3142  0.6477
  316MOL0     H42638   7.250   5.502   5.923  1.6911 -1.6701 -0.6479
  316MOL0     H42639   7.247   5.478   6.107  0.8857 -0.4333  0.4021
  316MOL0     H42640   7.978   4.971   6.482  0.2347 -0.1146  1.0351
  316MOL0     H42641   8.141   4.808   6.607  4.0057 -0.3513  2.3469
  316MOL0     H42642   8.282   4.637   6.968 -0.6683 -0.0994  0.1131
  316MOL0     H42643   8.411   4.455   7.055 -1.0791  2.8356  1.7469
  316MOL0     H42644   9.351   4.586   8.159 -0.2726  0.8880  0.7487
  316MOL0     H42645   9.161   4.525   8.297  3.1532  3.0394  2.1630
  316MOL0     H42646   8.910   4.159   8.413 -2.5888 -2.7311  0.8970
  316MOL0     H42647   8.744   4.032   8.531 -2.8925 -1.0971  3.1697
  316MOL0     H42648   8.561   3.876   8.797 -3.1191  1.7844 -0.1144
  316MOL0     H42649   8.705   3.878   8.694  0.2019 -0.4096  2.4297
  316MOL0     H42650   8.562   3.983   8.520  2.2052  0.4312  0.6450
  316MOL0     H42651   8.425   3.967   8.624  1.2429  2.1424  4.1297
  316MOL0     H42652   8.501   3.712   8.656 -2.0405 -0.0229 -0.4948
  316MOL0     H42653   8.571   3.744   8.484  1.1019  0.7474  0.4051
  316MOL0     H42654   8.281   3.784   8.583 -0.2338 -0.9468  0.0428
  316MOL0     H42655   8.345   3.837   8.424  2.2718 -0.4999 -0.1531
  316MOL0     H42656   8.333   3.407   8.392 -0.4657  0.1126  0.0256
  316MOL0     H42657   8.751   4.286   8.864  1.3508 -2.0893  0.0761
  316MOL0     H42658   8.998   4.529   8.741  2.2163  0.3390  1.3527
  316MOL0     H42659   8.860   4.477   8.846 -1.2616 -2.9517  0.8188
  316MOL0     H42660   9.022   4.392   8.853 -1.6268  0.5515  1.8138
  317MOL0     O42661   4.522   5.046   8.225  0.6380  0.4172  0.0052
  317MOL0     C42662   4.525   4.982   8.122  0.2840  0.6181  0.1839
  317MOL0     O42663   4.478   5.026   7.998 -1.0279 -0.6002 -0.9548
  317MOL0     C42664   4.472   5.161   7.966  0.2142 -0.3040 -0.2235
  317MOL0     C42665   4.540   5.264   8.043  0.2681 -0.3399  0.8244
  317MOL0     C42666   4.517   5.399   8.012  0.2360 -0.0634 -1.1842
  317MOL0     C42667   4.449   5.437   7.898 -0.0629 -0.5314 -0.2122
  317MOL0     O42668   4.445   5.571   7.862 -0.3683 -0.8300 -0.0812
  317MOL0     C42669   4.493   5.608   7.732 -0.4662  0.4750  0.3044
  317MOL0     C42670   4.424   5.735   7.689 -0.6523 -0.4051  0.2270
  317MOL0     C42671   4.284   5.712   7.643  0.3775 -0.0480  0.1824
  317MOL0     C42672   4.240   5.846   7.581  0.1765  0.3025 -0.2687
  317MOL0     C42673   4.103   5.819   7.517  0.0790 -0.4270  0.8498
  317MOL0     C42674   3.995   5.770   7.616 -0.0518 -0.0351 -0.4897
  317MOL0     C42675   3.977   5.871   7.729 -0.4900 -0.2063 -0.7679
  317MOL0     C42676   3.844   5.816   7.800  0.2214  0.1911 -0.3400
  317MOL0     N42677   3.758   5.912   7.872  0.7436  0.5800  0.8628
  317MOL0     C42678   3.627   5.931   7.839  1.0734 -1.2559 -0.7715
  317MOL0     C42679   3.594   6.051   7.903 -0.2881  0.5858 -0.0173
  317MOL0     C42680   3.482   6.147   7.880 -0.3738 -0.2048 -0.0178
  317MOL0     C42681   3.361   6.098   7.953 -0.0963 -0.4129 -0.2845
  317MOL0     C42682   3.265   6.007   7.874  0.4733 -0.3983 -0.3294
  317MOL0     C42683   3.166   5.915   7.950  0.8890 -0.3892 -0.1523
  317MOL0     O42684   3.094   5.839   7.854 -0.5567  0.3578 -0.6526
  317MOL0     C42685   3.156   5.725   7.801 -0.0435 -0.5848  0.0838
  317MOL0     C42686   3.283   5.685   7.823  0.9627 -0.0245  0.4220
  317MOL0     C42687   3.337   5.585   7.744  0.4496 -0.2563  0.2818
  317MOL0     C42688   3.258   5.507   7.659 -0.0673 -0.9100 -0.5751
  317MOL0     C42689   3.319   5.389   7.593 -0.5315 -0.0263  0.7239
  317MOL0     O42690   3.397   5.309   7.669 -0.3458 -0.2680  0.5260
  317MOL0     C42691   3.429   5.195   7.610 -0.4322  0.1109 -0.3911
  317MOL0     C42692   3.497   5.198   7.497 -0.1090 -0.1215  0.3663
  317MOL0     C42693   3.538   5.079   7.439  0.2718 -0.0415  0.1567
  317MOL0     C42694   3.527   4.964   7.508 -0.1607  0.5281 -0.3979
  317MOL0     O42695   3.571   4.852   7.448  0.0285  0.5759 -0.2485
  317MOL0     C42696   3.473   4.747   7.408 -0.0238  0.7311  0.4970
  317MOL0     C42697   3.553   4.632   7.348 -0.3988  0.1445  0.7929
  317MOL0     C42698   3.639   4.569   7.454 -0.4786  0.1368  0.2553
  317MOL0     C42699   3.678   4.423   7.406  0.3628  0.4696  0.1533
  317MOL0     C42700   3.757   4.404   7.276 -0.0880  0.5446 -0.3556
  317MOL0     C42701   3.795   4.256   7.240 -0.2213  0.0665 -0.6006
  317MOL0     C42702   3.669   4.171   7.191  0.6124 -0.3861 -0.2588
  317MOL0     C42703   3.685   4.021   7.197  0.8009 -0.9960  0.0336
  317MOL0    Cl42704   3.557   3.957   7.095 -0.4176 -0.1812  0.6908
  317MOL0     C42705   3.457   4.957   7.630 -0.3674 -0.3335 -0.9005
  317MOL0     C42706   3.404   5.069   7.681 -0.1016  0.2330 -0.2382
  317MOL0     O42707   3.275   5.367   7.478  0.0793  0.4817  0.1760
  317MOL0     C42708   3.126   5.542   7.647  0.4713 -0.4291  0.2712
  317MOL0     C42709   3.073   5.663   7.708 -0.0879  0.6013  0.0031
  317MOL0     N42710   3.710   6.096   7.969  0.1149  0.2264  0.7183
  317MOL0     N42711   3.806   6.017   7.936 -0.1325  0.6238 -0.1665
  317MOL0     C42712   4.378   5.349   7.820 -0.3306 -0.3813 -0.1671
  317MOL0     C42713   4.388   5.206   7.849  0.3065 -0.6085  0.5122
  317MOL0     C42714   4.568   4.841   8.128  0.7278 -0.0456  0.1783
  317MOL0     C42715   4.487   4.748   8.057  0.0983  0.4563 -0.1846
  317MOL0     C42716   4.529   4.614   8.053  0.7013  0.4234  1.1839
  317MOL0     C42717   4.646   4.567   8.114  0.1052 -0.0990 -0.5044
  317MOL0     O42718   4.668   4.432   8.105 -0.2016 -0.1524  0.6107
  317MOL0     C42719   4.764   4.366   8.182  0.6308 -0.2447  0.4988
  317MOL0     C42720   4.748   4.215   8.151 -0.1582 -0.0911 -0.1268
  317MOL0     C42721   4.854   4.120   8.202  0.8248  0.1201  0.2345
  317MOL0     C42722   4.867   3.985   8.116  0.0662 -0.7101  0.1899
  317MOL0     C42723   4.964   3.891   8.188 -0.2439 -0.0180 -0.8711
  317MOL0     C42724   5.052   3.814   8.228  0.3118 -0.3755 -0.1662
  317MOL0     C42725   4.729   4.663   8.176  0.3094 -0.4051 -0.1058
  317MOL0     C42726   4.689   4.797   8.183 -0.1318 -0.9272 -0.1118
  317MOL0     C42727   4.791   4.898   8.242  0.9882 -0.3970 -0.5437
  317MOL0     H42728   4.609   5.225   8.117 -1.0257 -0.6464  1.9221
  317MOL0     H42729   4.578   5.466   8.072  0.0038 -0.5399 -0.4049
  317MOL0     H42730   4.600   5.630   7.737 -0.8169  2.3840  0.1528
  317MOL0     H42731   4.472   5.526   7.662 -1.4219  0.9255  0.0445
  317MOL0     H42732   4.481   5.782   7.608 -3.4230 -1.7984 -2.7530
  317MOL0     H42733   4.425   5.805   7.773  0.7753  0.9562 -0.8659
  317MOL0     H42734   4.224   5.688   7.732 -0.8825 -2.1978 -1.1412
  317MOL0     H42735   4.265   5.628   7.576 -0.2703 -0.4347  0.8257
  317MOL0     H42736   4.234   5.925   7.656  1.3898  1.8515 -1.6942
  317MOL0     H42737   4.299   5.881   7.494 -0.5033  0.2912 -0.7393
  317MOL0     H42738   4.055   5.906   7.469 -0.2410 -1.2124 -0.2945
  317MOL0     H42739   4.111   5.740   7.442 -1.5601  0.9989 -0.9416
  317MOL0     H42740   3.901   5.742   7.567 -0.8304 -0.8129  1.3776
  317MOL0     H42741   4.035   5.681   7.666  0.8592  0.9717  0.6284
  317MOL0     H42742   3.970   5.973   7.691 -2.9026 -0.0631 -0.0648
  317MOL0     H42743   4.057   5.859   7.803  1.0447  2.7294 -1.8032
  317MOL0     H42744   3.781   5.761   7.730  2.6925  0.5536 -2.9976
  317MOL0     H42745   3.877   5.743   7.875  3.0488  0.4916 -1.2088
  317MOL0     H42746   3.567   5.874   7.768 -1.5922  0.9241 -0.4365
  317MOL0     H42747   3.520   6.245   7.912  3.3766 -0.5687 -2.6415
  317MOL0     H42748   3.461   6.158   7.773  0.5043  0.7396 -0.1193
  317MOL0     H42749   3.391   6.055   8.049 -2.6965  1.4011  1.4851
  317MOL0     H42750   3.299   6.185   7.978  0.0465 -0.7504  1.3500
  317MOL0     H42751   3.329   5.952   7.804  0.2146 -0.4127 -0.5591
  317MOL0     H42752   3.202   6.080   7.822  0.5368  0.2533  0.4838
  317MOL0     H42753   3.091   5.973   8.004  1.0879 -1.8593  1.8300
  317MOL0     H42754   3.223   5.864   8.029  1.0416 -1.7880 -1.1344
  317MOL0     H42755   3.344   5.739   7.896  1.1591  0.4653 -0.0978
  317MOL0     H42756   3.441   5.557   7.761 -0.7930 -3.5568  3.9198
  317MOL0     H42757   3.502   5.296   7.450  1.9986  1.1980  3.0404
  317MOL0     H42758   3.581   5.091   7.340 -0.8086  2.3941 -0.0783
  317MOL0     H42759   3.418   4.718   7.498 -1.2229 -1.9736 -0.9810
  317MOL0     H42760   3.404   4.781   7.330  0.8841 -0.5737 -0.9269
  317MOL0     H42761   3.491   4.558   7.296 -1.6388  3.6931 -3.3118
  317MOL0     H42762   3.611   4.674   7.266 -1.7420  1.3190  0.4113
  317MOL0     H42763   3.731   4.626   7.469 -0.4393 -0.2928  1.9015
  317MOL0     H42764   3.588   4.556   7.550 -0.1425  0.0585  0.4268
  317MOL0     H42765   3.588   4.362   7.395  0.7315  0.0626 -0.6658
  317MOL0     H42766   3.744   4.370   7.476  0.7150 -0.4553 -0.8647
  317MOL0     H42767   3.842   4.472   7.283  2.0387 -1.9200 -0.7962
  317MOL0     H42768   3.687   4.438   7.199 -2.3912  0.7607  1.7014
  317MOL0     H42769   3.876   4.253   7.167 -0.3933  0.5335 -0.8165
  317MOL0     H42770   3.845   4.204   7.322  1.4384 -2.5649 -3.1149
  317MOL0     H42771   3.644   4.193   7.087 -1.3139  0.2823  0.2983
  317MOL0     H42772   3.576   4.193   7.244  0.2531 -1.5660 -0.3579
  317MOL0     H42773   3.786   3.996   7.162  0.4373 -1.5605 -0.6338
  317MOL0     H42774   3.675   3.977   7.297 -2.3294  0.0826  0.3134
  317MOL0     H42775   3.450   4.868   7.690  1.2406  1.1933  1.7294
  317MOL0     H42776   3.344   5.071   7.771 -0.7975  1.6315 -0.7061
  317MOL0     H42777   3.060   5.486   7.582  0.7260 -4.0011  2.8044
  317MOL0     H42778   2.972   5.700   7.701  0.6961  2.5899 -3.4004
  317MOL0     H42779   4.306   5.355   7.738 -3.4709 -2.8672  2.1482
  317MOL0     H42780   4.319   5.134   7.809 -1.1910  0.9808  0.1085
  317MOL0     H42781   4.385   4.763   8.026  0.0016 -2.2642 -1.4931
  317MOL0     H42782   4.463   4.547   7.999  0.6165  1.5291 -0.1196
  317MOL0     H42783   4.742   4.374   8.289 -4.1240 -5.7094  0.3841
  317MOL0     H42784   4.861   4.406   8.151  0.1263  0.2770 -0.4409
  317MOL0     H42785   4.743   4.191   8.044  2.2537 -2.5378  0.1725
  317MOL0     H42786   4.649   4.177   8.178 -0.3662 -0.2179 -1.0226
  317MOL0     H42787   4.824   4.097   8.305  2.4997  1.1013  0.9834
  317MOL0     H42788   4.954   4.164   8.193  1.5424 -1.5543 -0.3140
  317MOL0     H42789   4.774   3.930   8.104  0.6727 -2.5281  2.8340
  317MOL0     H42790   4.908   4.018   8.020 -2.3632 -0.4527 -0.8173
  317MOL0     H42791   5.116   3.731   8.251 -2.9268 -3.1964 -0.4744
  317MOL0     H42792   4.823   4.633   8.222  0.4903 -1.8973 -1.3685
  317MOL0     H42793   4.745   4.931   8.335 -0.0824  0.7822 -1.4680
  317MOL0     H42794   4.889   4.859   8.271  0.1120 -0.9564  1.9280
  317MOL0     H42795   4.798   4.989   8.182  2.5940  2.2630  3.2534
  318MOL0     O42796  10.703   2.416   7.295  0.8851  0.0037  0.2998
  318MOL0     C42797  10.599   2.489   7.267  0.3434  0.2956 -0.8261
  318MOL0     O42798  10.477   2.443   7.264 -0.2363 -0.1303 -0.1480
  318MOL0     C42799  10.467   2.312   7.272 -0.4281 -0.0043 -0.4963
  318MOL0     C42800  10.447   2.241   7.389 -0.2059  0.4846  0.2522
  318MOL0     C42801  10.426   2.097   7.386  0.9280  0.6384  0.2784
  318MOL0     C42802  10.413   2.037   7.259  0.2724 -0.7023 -0.1135
  318MOL0     O42803  10.366   1.910   7.253  0.7874 -0.1820 -0.0845
  318MOL0     C42804  10.250   1.881   7.171  0.0382 -0.7567 -0.4031
  318MOL0     C42805  10.176   1.767   7.227 -0.5028  0.4763  1.1950
  318MOL0     C42806  10.255   1.636   7.242  0.4883 -0.0620 -0.2098
  318MOL0     C42807  10.288   1.569   7.113  0.3996  0.2616 -0.2348
  318MOL0     C42808  10.378   1.439   7.127 -0.1449  0.4710  0.1255
  318MOL0     C42809  10.411   1.366   6.998 -0.1152  0.5094  0.3511
  318MOL0     C42810  10.481   1.239   7.039 -0.8475  0.6901  0.7072
  318MOL0     C42811  10.627   1.255   7.086 -0.7877 -0.3692 -0.0597
  318MOL0     N42812  10.714   1.314   6.983 -0.4901 -0.3626 -1.1984
  318MOL0     C42813  10.790   1.432   6.998  0.1764 -0.0926  0.4623
  318MOL0     C42814  10.854   1.444   6.884  0.0734 -0.3074  0.4860
  318MOL0     C42815  10.975   1.532   6.869 -0.5603 -0.7175  0.1405
  318MOL0     C42816  11.112   1.465   6.906  1.0756  0.7117 -0.4875
  318MOL0     C42817  11.115   1.383   7.039 -0.3425  0.1129  0.6518
  318MOL0     C42818  11.260   1.337   7.043 -0.5630  0.4142 -0.4659
  318MOL0     O42819  11.300   1.248   6.934 -0.1240  0.9213 -0.0307
  318MOL0     C42820  11.427   1.190   6.940 -0.5419 -0.2388  0.2354
  318MOL0     C42821  11.536   1.276   6.930  0.6355 -0.3812 -0.7954
  318MOL0     C42822  11.659   1.228   6.903  0.2815 -0.3894  1.2509
  318MOL0     C42823  11.682   1.093   6.883  0.1621  0.5459  0.4528
  318MOL0     C42824  11.810   1.038   6.870  0.8855  0.0241 -0.4658
  318MOL0     O42825  11.825   0.920   6.939  0.2175 -0.6326 -0.5139
  318MOL0     C42826  11.938   0.851   6.915  0.3945  1.1828 -0.1245
  318MOL0     C42827  12.063   0.903   6.921 -0.3847 -0.4943 -0.3258
  318MOL0     C42828  12.181   0.820   6.910 -0.2751  0.3275 -0.6995
  318MOL0     C42829  12.162   0.685   6.874 -0.3794  0.7891 -1.0225
  318MOL0     O42830  12.257   0.589   6.859 -0.2235 -0.2272  0.1795
  318MOL0     C42831  12.382   0.618   6.921  0.0052  0.4115  0.2790
  318MOL0     C42832  12.474   0.504   6.880  0.3292  0.5763 -0.1778
  318MOL0     C42833  12.586   0.495   6.988  0.0657  0.2216  0.4297
  318MOL0     C42834  12.696   0.408   6.944 -0.7036  0.5666 -1.0146
  318MOL0     C42835  12.808   0.410   7.054  0.1767 -0.4967 -0.3764
  318MOL0     C42836  12.933   0.328   7.024 -0.2072  0.3037 -0.0169
  318MOL0     C42837  13.057   0.395   7.075 -0.4583 -0.1196 -0.5571
  318MOL0     C42838  13.064   0.345   7.224  0.9074 -0.5767  0.5612
  318MOL0    Cl42839  13.025   0.169   7.265  0.3893 -0.2592  0.5755
  318MOL0     C42840  12.029   0.632   6.846  0.0492  1.1093 -0.6292
  318MOL0     C42841  11.921   0.718   6.871 -0.4141  0.0546  0.6012
  318MOL0     O42842  11.891   1.106   6.816  0.4137 -0.5005 -0.5958
  318MOL0     C42843  11.574   1.002   6.907 -0.9268  0.7969  0.2208
  318MOL0     C42844  11.452   1.053   6.941  0.0112 -1.3003 -0.0036
  318MOL0     N42845  10.820   1.342   6.799 -0.7737 -0.1447 -0.9241
  318MOL0     N42846  10.729   1.267   6.859  0.1347  0.4155  0.4254
  318MOL0     C42847  10.446   2.107   7.141  0.5344 -0.6549  0.2226
  318MOL0     C42848  10.475   2.249   7.147  0.5355  0.1217 -0.3097
  318MOL0     C42849  10.610   2.640   7.270 -0.4332  0.6845  0.3316
  318MOL0     C42850  10.737   2.701   7.314  0.2873  0.8979  0.2417
  318MOL0     C42851  10.758   2.836   7.312 -0.1268  0.9446  0.6680
  318MOL0     C42852  10.655   2.925   7.265 -0.9084  1.4831  0.8700
  318MOL0     O42853  10.685   3.066   7.261  0.4276  0.9682 -0.1591
  318MOL0     C42854  10.582   3.154   7.225  0.4819 -1.2557  0.3343
  318MOL0     C42855  10.648   3.282   7.167  0.1859 -0.5125  1.0868
  318MOL0     C42856  10.561   3.364   7.075 -0.2183  0.2154  0.5190
  318MOL0     C42857  10.467   3.456   7.153 -0.2520 -0.2676 -0.3846
  318MOL0     C42858  10.338   3.385   7.186  0.2881  0.9338 -0.2172
  318MOL0     C42859  10.237   3.327   7.218 -0.6014 -0.3490 -0.0907
  318MOL0     C42860  10.534   2.866   7.228  0.5061 -1.2445 -0.3606
  318MOL0     C42861  10.511   2.725   7.222 -0.4836  0.8661 -0.1888
  318MOL0     C42862  10.374   2.692   7.167 -0.3980  0.4595  0.0258
  318MOL0     H42863  10.455   2.278   7.491  0.8926 -1.0408  0.7511
  318MOL0     H42864  10.413   2.043   7.479  5.0032  0.3984  0.8887
  318MOL0     H42865  10.183   1.967   7.168  0.8937 -0.0372  0.3832
  318MOL0     H42866  10.279   1.862   7.068 -0.4089 -0.6786 -0.5464
  318MOL0     H42867  10.089   1.753   7.161 -2.3825 -1.8232  3.9383
  318MOL0     H42868  10.140   1.799   7.325  1.0511 -1.1803  2.3409
  318MOL0     H42869  10.188   1.570   7.298  1.4701 -4.0509 -3.2679
  318MOL0     H42870  10.340   1.657   7.308 -0.3868  0.9868  0.6244
  318MOL0     H42871  10.189   1.557   7.068 -1.3417  7.2830  0.6495
  318MOL0     H42872  10.335   1.626   7.032 -1.8834  3.4049  0.5006
  318MOL0     H42873  10.475   1.469   7.167  0.8148  1.8146 -2.9557
  318MOL0     H42874  10.318   1.376   7.193 -0.6240 -2.2891 -2.6976
  318MOL0     H42875  10.318   1.341   6.946  0.3662  0.7307 -0.6401
  318MOL0     H42876  10.461   1.428   6.923 -0.7990  1.3840  0.6100
  318MOL0     H42877  10.475   1.166   6.958 -0.3812  0.9917  0.3949
  318MOL0     H42878  10.426   1.200   7.125 -2.4840  0.2948 -0.4821
  318MOL0     H42879  10.638   1.317   7.175  1.0021  0.3305 -0.7260
  318MOL0     H42880  10.675   1.162   7.117  0.7723  0.6195  0.6103
  318MOL0     H42881  10.818   1.504   7.075  1.4361 -0.2593  0.1758
  318MOL0     H42882  10.985   1.572   6.768 -4.4510  2.1652  0.6854
  318MOL0     H42883  10.962   1.624   6.925 -0.1166  0.3578 -1.4468
  318MOL0     H42884  11.135   1.406   6.816  0.8404  1.6855 -1.1930
  318MOL0     H42885  11.179   1.550   6.921 -0.1056  1.7674 -1.0090
  318MOL0     H42886  11.060   1.290   7.024  2.3644 -1.5140  0.1203
  318MOL0     H42887  11.066   1.428   7.125 -2.2540 -1.2951  0.3774
  318MOL0     H42888  11.282   1.283   7.135  2.5165 -1.2488 -2.0287
  318MOL0     H42889  11.332   1.420   7.041 -2.1915  1.8687 -1.6282
  318MOL0     H42890  11.530   1.384   6.924 -4.1394 -0.5042 -3.7393
  318MOL0     H42891  11.734   1.306   6.888 -1.8685  2.0746  2.5302
  318MOL0     H42892  12.072   1.007   6.952 -1.5859 -1.0292  2.0053
  318MOL0     H42893  12.277   0.868   6.925 -0.7566  0.4746  2.6574
  318MOL0     H42894  12.439   0.705   6.887  3.3167 -1.1511  1.3565
  318MOL0     H42895  12.367   0.623   7.030  1.9432 -4.8247  1.1226
  318MOL0     H42896  12.417   0.411   6.884  0.8908  0.2599  1.6276
  318MOL0     H42897  12.505   0.516   6.776  3.7847 -2.2913  0.3195
  318MOL0     H42898  12.634   0.593   6.995 -1.2359  1.0670 -1.5009
  318MOL0     H42899  12.540   0.460   7.081  0.3873 -0.5697  0.3030
  318MOL0     H42900  12.742   0.446   6.852  3.1362 -2.3508 -0.5577
  318MOL0     H42901  12.659   0.305   6.937 -2.6329  1.0812  0.6171
  318MOL0     H42902  12.767   0.382   7.151  1.2694 -0.2041  0.1807
  318MOL0     H42903  12.841   0.511   7.080 -0.5064 -0.0933 -1.0506
  318MOL0     H42904  12.921   0.221   7.045  3.0610 -0.4753 -1.4663
  318MOL0     H42905  12.942   0.330   6.915 -1.0804  3.8383 -0.1526
  318MOL0     H42906  13.068   0.504   7.070  1.6240 -0.3082 -0.9808
  318MOL0     H42907  13.131   0.355   7.005 -0.6800  0.4803 -1.1372
  318MOL0     H42908  13.165   0.371   7.256  0.8074  1.4424 -0.6223
  318MOL0     H42909  12.993   0.410   7.275 -0.8862  0.0873 -2.5198
  318MOL0     H42910  12.010   0.530   6.815  3.1838  0.2777 -0.2537
  318MOL0     H42911  11.819   0.682   6.867  0.1335 -1.5185  0.1947
  318MOL0     H42912  11.582   0.894   6.899 -0.9722  0.8246 -0.2060
  318MOL0     H42913  11.375   0.977   6.939 -0.0230 -1.2927 -2.2345
  318MOL0     H42914  10.441   2.051   7.048  1.3841 -1.1927  0.4839
  318MOL0     H42915  10.482   2.309   7.057 -1.1490  1.4410  0.3959
  318MOL0     H42916  10.825   2.642   7.339  0.2451  1.4532  1.8365
  318MOL0     H42917  10.856   2.878   7.331 -0.2994  1.5814  0.1832
  318MOL0     H42918  10.519   3.178   7.312  1.7831  0.4399  0.8749
  318MOL0     H42919  10.518   3.122   7.142 -1.7971  1.1457  1.0290
  318MOL0     H42920  10.742   3.266   7.112  0.2871  4.0094 -0.4389
  318MOL0     H42921  10.674   3.346   7.252 -1.7661 -0.3370  1.5875
  318MOL0     H42922  10.497   3.302   7.011 -5.1911  0.0863  4.9023
  318MOL0     H42923  10.626   3.425   7.012  0.6223 -2.2715 -1.2020
  318MOL0     H42924  10.511   3.486   7.248 -3.9259 -0.8683  1.7171
  318MOL0     H42925  10.452   3.545   7.090 -0.7836  1.0542  1.5330
  318MOL0     H42926  10.137   3.287   7.224 -0.7614 -0.1191 -1.0474
  318MOL0     H42927  10.450   2.932   7.211  0.5505  0.7437  5.2282
  318MOL0     H42928  10.300   2.678   7.246 -0.5507  1.0946 -0.0004
  318MOL0     H42929  10.353   2.771   7.094  0.5562  0.3636 -0.3673
  318MOL0     H42930  10.374   2.596   7.115 -1.9765  0.9814 -1.0091
  319MOL0     O42931   8.052   5.187   9.335 -0.3740 -0.1403 -0.4562
  319MOL0     C42932   7.971   5.267   9.291  0.4893 -0.5822  0.5247
  319MOL0     O42933   7.980   5.331   9.171 -0.1977 -0.2136  0.0015
  319MOL0     C42934   8.076   5.295   9.072  0.4138  0.2576 -0.1598
  319MOL0     C42935   8.085   5.163   9.033  0.7370 -0.4543 -0.0415
  319MOL0     C42936   8.174   5.126   8.939  0.5350 -0.6724 -0.0344
  319MOL0     C42937   8.265   5.221   8.888 -0.7528 -0.4462  0.6597
  319MOL0     O42938   8.358   5.179   8.803  0.0485 -0.5634 -0.1280
  319MOL0     C42939   8.310   5.163   8.672 -0.4685 -0.1359 -0.5717
  319MOL0     C42940   8.417   5.117   8.584 -0.2839  0.5689  0.0714
  319MOL0     C42941   8.369   5.048   8.456  0.0754 -0.2951 -0.2770
  319MOL0     C42942   8.467   5.059   8.339  0.0540 -0.1353 -0.2319
  319MOL0     C42943   8.419   5.011   8.207 -0.3436  0.0466  0.2860
  319MOL0     C42944   8.524   5.022   8.100 -0.5034  1.1365 -0.6506
  319MOL0     C42945   8.507   4.921   7.998  0.1712  0.4986  0.3961
  319MOL0     C42946   8.366   4.949   7.935 -0.7185 -0.3948  0.2975
  319MOL0     N42947   8.333   4.822   7.865  0.3275 -0.3875  0.2890
  319MOL0     C42948   8.295   4.819   7.735 -0.2274  0.7152  0.7415
  319MOL0     C42949   8.270   4.691   7.718  0.6795  0.0448  0.5581
  319MOL0     C42950   8.250   4.636   7.569  0.9453 -0.5739 -1.1704
  319MOL0     C42951   8.377   4.633   7.491  0.3011 -0.1502 -0.7010
  319MOL0     C42952   8.461   4.520   7.548 -0.6706 -1.2210  0.0094
  319MOL0     C42953   8.416   4.373   7.541  0.3520  0.1474  0.2616
  319MOL0     O42954   8.521   4.291   7.496  0.8599  0.0543 -0.2694
  319MOL0     C42955   8.642   4.279   7.575  0.8635 -0.5815 -0.4225
  319MOL0     C42956   8.673   4.336   7.698 -0.5923 -0.1539 -0.1093
  319MOL0     C42957   8.787   4.300   7.757 -0.3615 -0.0866 -0.2318
  319MOL0     C42958   8.888   4.219   7.697  0.6223  0.1812  0.7586
  319MOL0     C42959   9.012   4.170   7.755  0.8008 -0.7079 -0.0891
  319MOL0     O42960   9.030   4.210   7.883 -0.6049  0.7014  0.3038
  319MOL0     C42961   9.138   4.160   7.946 -0.1213  0.1971 -0.3873
  319MOL0     C42962   9.122   4.140   8.083 -0.3195  0.7998 -0.2756
  319MOL0     C42963   9.223   4.081   8.159  0.0980  0.0294  0.2146
  319MOL0     C42964   9.356   4.064   8.109 -0.0269 -0.0866 -0.2527
  319MOL0     O42965   9.441   4.001   8.188 -1.0887 -1.1219  0.2189
  319MOL0     C42966   9.580   3.997   8.153  0.8173  0.5087  1.1066
  319MOL0     C42967   9.650   3.937   8.277 -0.6016 -0.2212  0.0610
  319MOL0     C42968   9.614   3.781   8.270 -0.9309 -0.8126 -0.3449
  319MOL0     C42969   9.721   3.714   8.354  0.1092  0.2698  0.0232
  319MOL0     C42970   9.728   3.750   8.506 -0.3702 -0.2200  0.8352
  319MOL0     C42971   9.591   3.734   8.571  0.5075 -0.5617  0.5417
  319MOL0     C42972   9.607   3.750   8.723 -0.3845 -0.7144  0.2458
  319MOL0     C42973   9.466   3.752   8.788 -0.6045  0.1158 -0.6048
  319MOL0    Cl42974   9.445   3.572   8.821  0.1558  0.0456  0.2193
  319MOL0     C42975   9.379   4.089   7.972  0.2311  0.0871 -0.2762
  319MOL0     C42976   9.266   4.131   7.893 -0.1571 -0.8662 -0.1031
  319MOL0     O42977   9.087   4.100   7.697  0.0768 -0.2934  0.3439
  319MOL0     C42978   8.865   4.183   7.555 -0.4647  0.8539 -0.8722
  319MOL0     C42979   8.739   4.206   7.502 -0.5069  0.0058  0.1726
  319MOL0     N42980   8.269   4.615   7.828  0.2232 -0.0218 -1.1502
  319MOL0     N42981   8.321   4.699   7.914 -0.0920 -0.1572 -0.3138
  319MOL0     C42982   8.260   5.354   8.930  1.2944 -0.5339  0.1476
  319MOL0     C42983   8.158   5.395   9.020 -0.6468  1.0278  0.1055
  319MOL0     C42984   7.869   5.311   9.393 -1.1371  0.4628  0.0715
  319MOL0     C42985   7.905   5.286   9.524  0.4285 -0.1977  0.7861
  319MOL0     C42986   7.822   5.314   9.629  0.2969 -0.5032 -1.1645
  319MOL0     C42987   7.689   5.352   9.598 -0.8599 -0.1338  0.4389
  319MOL0     O42988   7.600   5.388   9.701  0.4199  0.2811 -0.3980
  319MOL0     C42989   7.533   5.262   9.731  0.4860  0.4240 -0.0801
  319MOL0     C42990   7.421   5.226   9.630 -0.0556 -0.7802  0.2259
  319MOL0     C42991   7.282   5.293   9.668  0.3346 -0.0646  0.0470
  319MOL0     C42992   7.273   5.436   9.598  0.7300  0.8360 -0.6592
  319MOL0     C42993   7.276   5.435   9.458  0.5346  0.3997  0.0961
  319MOL0     C42994   7.271   5.424   9.340 -0.1122  0.2996 -0.1050
  319MOL0     C42995   7.652   5.384   9.466 -0.0640 -0.4111 -0.0773
  319MOL0     C42996   7.740   5.362   9.356 -0.4753  0.3475 -0.0897
  319MOL0     C42997   7.698   5.394   9.217  0.0826 -0.4065  0.3431
  319MOL0     H42998   8.024   5.085   9.078  0.3383 -0.5484 -0.7413
  319MOL0     H42999   8.178   5.023   8.905  1.6484 -0.4586 -0.6055
  319MOL0     H43000   8.227   5.092   8.674 -0.2841 -0.3419  0.0757
  319MOL0     H43001   8.263   5.251   8.628  0.4824  0.7467  0.1193
  319MOL0     H43002   8.465   5.032   8.632  0.5583  0.6787 -0.5483
  319MOL0     H43003   8.482   5.199   8.552 -1.6837  1.4279 -0.7059
  319MOL0     H43004   8.273   5.084   8.418 -2.0371 -3.5526  1.5126
  319MOL0     H43005   8.363   4.939   8.468 -1.6725 -0.0466  1.8077
  319MOL0     H43006   8.492   5.165   8.322 -0.6505 -0.2452 -2.2242
  319MOL0     H43007   8.559   5.005   8.363 -0.0444  0.5629  1.9133
  319MOL0     H43008   8.402   4.904   8.225  2.9369 -0.5366  0.6306
  319MOL0     H43009   8.337   5.067   8.163  0.9081  2.2661  0.6247
  319MOL0     H43010   8.525   5.125   8.062 -0.7798  1.3864  0.0103
  319MOL0     H43011   8.620   5.002   8.148 -1.1904  2.1314  1.2429
  319MOL0     H43012   8.538   4.822   8.032 -0.4967  1.1566  3.1538
  319MOL0     H43013   8.568   4.948   7.911  0.7948  0.2422  0.7475
  319MOL0     H43014   8.282   4.964   8.002 -1.7293 -1.4629 -0.6816
  319MOL0     H43015   8.360   5.042   7.878  1.4391 -0.0741  0.5060
  319MOL0     H43016   8.304   4.905   7.668  0.1585  0.8405  0.9512
  319MOL0     H43017   8.211   4.535   7.582  0.3522 -0.4401 -1.8770
  319MOL0     H43018   8.180   4.703   7.519  0.9018  1.0848  0.9735
  319MOL0     H43019   8.354   4.602   7.388 -1.0807 -3.1443  0.4020
  319MOL0     H43020   8.434   4.726   7.491  3.5482 -1.9064  2.2398
  319MOL0     H43021   8.493   4.544   7.650 -2.2784  2.5131 -0.1852
  319MOL0     H43022   8.553   4.525   7.489  0.9477 -0.3324  2.4587
  319MOL0     H43023   8.337   4.361   7.467  0.6357 -0.7696  0.0954
  319MOL0     H43024   8.380   4.338   7.638  0.9430  0.0255  0.4410
  319MOL0     H43025   8.597   4.388   7.756 -0.1899  3.1431 -2.2464
  319MOL0     H43026   8.828   4.332   7.852  1.5118  1.2330 -1.4221
  319MOL0     H43027   9.033   4.163   8.141  1.4299 -0.2744  3.1174
  319MOL0     H43028   9.220   4.061   8.265  2.2374 -2.1748 -0.0265
  319MOL0     H43029   9.604   3.939   8.063  1.0390 -0.0957  1.5538
  319MOL0     H43030   9.625   4.096   8.139  1.2166  0.3890  1.5287
  319MOL0     H43031   9.759   3.938   8.267 -0.5277 -1.0164  0.6683
  319MOL0     H43032   9.620   3.994   8.365  3.9728 -0.8546  2.3030
  319MOL0     H43033   9.514   3.761   8.310 -2.1070  0.7083 -2.3384
  319MOL0     H43034   9.621   3.741   8.169 -2.0338 -0.1086 -0.7169
  319MOL0     H43035   9.819   3.718   8.305 -0.6560  2.4058 -1.5111
  319MOL0     H43036   9.695   3.608   8.359  0.0209  0.2893 -0.0109
  319MOL0     H43037   9.764   3.853   8.503 -1.6522  0.2715 -2.5697
  319MOL0     H43038   9.802   3.689   8.558  0.3015 -0.3557 -0.2528
  319MOL0     H43039   9.518   3.802   8.527 -0.0458  0.1304  2.4065
  319MOL0     H43040   9.549   3.635   8.550 -0.5591 -0.5339  2.3543
  319MOL0     H43041   9.639   3.854   8.737 -2.2373  0.0394 -0.8000
  319MOL0     H43042   9.682   3.687   8.772 -0.1183  0.5859  1.6040
  319MOL0     H43043   9.476   3.794   8.888 -0.0786 -2.0216  0.2982
  319MOL0     H43044   9.377   3.794   8.740 -0.2434 -0.4939 -1.8617
  319MOL0     H43045   9.470   4.071   7.916 -1.2328 -2.8191 -1.9094
  319MOL0     H43046   9.290   4.157   7.790  2.6464  0.9713  0.9077
  319MOL0     H43047   8.929   4.120   7.494 -0.1045  0.3977 -0.0348
  319MOL0     H43048   8.707   4.187   7.400  1.0347  1.0864 -0.5515
  319MOL0     H43049   8.341   5.418   8.897 -0.6124  2.1612  0.3754
  319MOL0     H43050   8.164   5.496   9.059  1.3240  1.1937 -0.5106
  319MOL0     H43051   8.003   5.248   9.550  0.2927 -0.4056  1.0039
  319MOL0     H43052   7.853   5.299   9.731 -3.2061 -2.0451 -0.1857
  319MOL0     H43053   7.487   5.266   9.830  1.9136  0.7882  0.5826
  319MOL0     H43054   7.609   5.185   9.737  1.0939  0.9414 -0.8988
  319MOL0     H43055   7.404   5.118   9.635 -0.1146 -0.8337 -0.8246
  319MOL0     H43056   7.448   5.240   9.525  1.7274 -3.4584  0.2069
  319MOL0     H43057   7.268   5.294   9.776 -0.7906 -0.0601 -0.0863
  319MOL0     H43058   7.202   5.226   9.635 -0.4815  0.6148  0.6073
  319MOL0     H43059   7.183   5.487   9.632 -0.5746 -2.1213  0.7051
  319MOL0     H43060   7.361   5.491   9.633  1.6512 -2.4442  2.8630
  319MOL0     H43061   7.280   5.415   9.234  1.9007 -1.7965  0.1644
  319MOL0     H43062   7.553   5.429   9.465 -0.8255 -1.9537  1.1454
  319MOL0     H43063   7.753   5.469   9.160 -0.3953  0.4879  1.0239
  319MOL0     H43064   7.696   5.304   9.155  3.1073 -1.6643  1.8838
  319MOL0     H43065   7.595   5.431   9.221  0.0733 -0.2754 -0.8388
  320MOL0     O43066   9.420  10.795   5.924  0.0070  0.1131 -0.5307
  320MOL0     C43067   9.329  10.873   5.962 -0.3013  0.8980 -0.6201
  320MOL0     O43068   9.267  10.966   5.884  0.1188 -0.4017 -0.6507
  320MOL0     C43069   9.303  10.980   5.751 -0.4316 -0.1629 -0.0001
  320MOL0     C43070   9.438  11.007   5.716  0.3780 -0.3200  0.5239
  320MOL0     C43071   9.471  11.035   5.584 -0.6255  0.2280  0.6013
  320MOL0     C43072   9.371  11.043   5.483  0.1195  1.1695  1.0699
  320MOL0     O43073   9.412  11.059   5.353 -0.3773 -0.3735 -0.3673
  320MOL0     C43074   9.339  11.164   5.288 -0.7109  0.3295 -0.1027
  320MOL0     C43075   9.418  11.202   5.160 -0.8759 -1.0513 -0.3659
  320MOL0     C43076   9.357  11.319   5.091  0.9064  0.3906 -0.2211
  320MOL0     C43077   9.376  11.314   4.939 -0.0992 -0.6588  0.4987
  320MOL0     C43078   9.264  11.393   4.875 -0.0689 -0.1760 -0.2168
  320MOL0     C43079   9.294  11.539   4.855 -0.2462 -0.4308  0.1674
  320MOL0     C43080   9.183  11.621   4.783  0.6471 -0.9133 -0.0009
  320MOL0     C43081   9.143  11.589   4.639 -0.4410  0.2682  0.0033
  320MOL0     N43082   9.264  11.585   4.562  0.2523 -0.3300 -0.7406
  320MOL0     C43083   9.333  11.687   4.508  0.2353  0.1622 -0.0584
  320MOL0     C43084   9.433  11.635   4.430  0.4154  0.7375 -0.2906
  320MOL0     C43085   9.518  11.726   4.347 -0.8862 -0.1175  0.4332
  320MOL0     C43086   9.520  11.689   4.215 -0.9782 -0.1471  1.4197
  320MOL0     C43087   9.589  11.793   4.124 -0.5907  0.9732 -0.8157
  320MOL0     C43088   9.618  11.729   3.992 -0.6030  0.1530  0.0561
  320MOL0     O43089   9.507  11.737   3.902  0.3595  0.1821  0.1823
  320MOL0     C43090   9.518  11.735   3.766 -0.2015 -0.6700 -0.2485
  320MOL0     C43091   9.626  11.692   3.702  0.4738  0.8651  0.3831
  320MOL0     C43092   9.634  11.678   3.568  0.1754 -0.0827 -0.5036
  320MOL0     C43093   9.535  11.733   3.480 -0.0765 -0.8933 -0.1771
  320MOL0     C43094   9.536  11.707   3.333  0.9002 -0.1270 -0.2080
  320MOL0     O43095   9.651  11.668   3.276  0.1289 -0.1982 -0.0954
  320MOL0     C43096   9.677  11.657   3.142  0.7693  0.4473 -0.1726
  320MOL0     C43097   9.726  11.755   3.065  0.7222 -0.7189 -0.7287
  320MOL0     C43098   9.721  11.749   2.921  0.1633 -0.7041  0.5965
  320MOL0     C43099   9.683  11.631   2.861  0.3110 -0.8688 -0.2261
  320MOL0     O43100   9.683  11.614   2.724  0.0989  0.5778 -0.3826
  320MOL0     C43101   9.718  11.719   2.631  0.5430 -0.1427 -0.4879
  320MOL0     C43102   9.703  11.682   2.483 -1.0645 -0.0284 -0.4332
  320MOL0     C43103   9.557  11.630   2.450 -0.2238  0.0491  0.0005
  320MOL0     C43104   9.559  11.583   2.307 -0.1174  0.4106  0.2910
  320MOL0     C43105   9.599  11.686   2.197  0.2062 -0.3971 -0.2783
  320MOL0     C43106   9.494  11.795   2.176  0.1064 -0.4617  0.6058
  320MOL0     C43107   9.505  11.893   2.066 -0.8873  0.2740  0.0246
  320MOL0     C43108   9.538  11.842   1.934  0.8052 -0.5803  0.4412
  320MOL0    Cl43109   9.408  11.719   1.876 -0.1298 -0.3650  0.1085
  320MOL0     C43110   9.649  11.522   2.938  1.0802  0.4969 -0.1487
  320MOL0     C43111   9.639  11.543   3.080  0.2585  0.4546  0.6278
  320MOL0     O43112   9.427  11.716   3.275  0.4732  0.2122  0.3804
  320MOL0     C43113   9.414  11.781   3.547 -0.4710  0.1570  0.3372
  320MOL0     C43114   9.410  11.784   3.688  0.5407 -0.7548 -0.5967
  320MOL0     N43115   9.412  11.501   4.430 -0.5662  0.3302 -0.0054
  320MOL0     N43116   9.306  11.473   4.500 -0.7686 -0.8857  0.1181
  320MOL0     C43117   9.237  11.022   5.522  0.6047 -0.1231 -0.9343
  320MOL0     C43118   9.202  10.984   5.657 -0.7392 -0.5459 -0.0293
  320MOL0     C43119   9.261  10.857   6.096 -0.7978  0.4898  0.5154
  320MOL0     C43120   9.122  10.901   6.105 -0.5562 -0.7681  0.6355
  320MOL0     C43121   9.048  10.889   6.226 -0.1346  0.7299 -0.9065
  320MOL0     C43122   9.126  10.854   6.338 -0.3557 -0.0543 -1.6418
  320MOL0     O43123   9.074  10.864   6.463  0.1586 -0.0322 -0.6361
  320MOL0     C43124   8.937  10.839   6.483  0.1368  0.0085 -0.3888
  320MOL0     C43125   8.884  10.696   6.500  0.6644  0.1965  0.8036
  320MOL0     C43126   8.940  10.601   6.607 -1.0106  0.2594 -0.8548
  320MOL0     C43127   8.845  10.491   6.641  0.7023  1.1867 -0.4933
  320MOL0     C43128   8.906  10.408   6.751  0.2971  0.3844  0.4570
  320MOL0     C43129   8.956  10.362   6.851  0.1380 -0.7424 -0.3655
  320MOL0     C43130   9.265  10.833   6.332  0.3409  0.1516  0.8229
  320MOL0     C43131   9.337  10.826   6.211  0.2160 -0.4682  0.5185
  320MOL0     C43132   9.482  10.799   6.212  0.3544 -0.0906 -0.4326
  320MOL0     H43133   9.514  11.012   5.794  1.6969  2.8007 -0.7775
  320MOL0     H43134   9.566  11.028   5.533 -1.0570  0.3171 -0.2355
  320MOL0     H43135   9.241  11.128   5.253 -0.5827  0.1327 -0.2603
  320MOL0     H43136   9.313  11.245   5.357 -0.2726  1.1612 -0.8909
  320MOL0     H43137   9.450  11.120   5.095  2.4954 -0.3320  0.1545
  320MOL0     H43138   9.513  11.237   5.203 -1.4669  0.1274  0.0080
  320MOL0     H43139   9.420  11.404   5.117  0.7293  0.7685 -1.0029
  320MOL0     H43140   9.249  11.332   5.105  1.0336 -1.2155  3.3267
  320MOL0     H43141   9.476  11.326   4.897 -0.7262 -0.5140 -1.0346
  320MOL0     H43142   9.354  11.210   4.912  0.3289 -0.8322  0.8129
  320MOL0     H43143   9.269  11.357   4.772  2.8882 -1.0775  0.1524
  320MOL0     H43144   9.163  11.380   4.913  1.5061 -1.3291  4.1272
  320MOL0     H43145   9.319  11.592   4.948  2.4643  0.5428 -1.0070
  320MOL0     H43146   9.388  11.550   4.802  1.1446  0.3757  2.6326
  320MOL0     H43147   9.214  11.725   4.785  1.4009 -1.0586 -1.6929
  320MOL0     H43148   9.084  11.615   4.830  1.7447  0.3474  2.6665
  320MOL0     H43149   9.088  11.495   4.636 -2.4200  1.3719  0.3216
  320MOL0     H43150   9.082  11.668   4.594 -0.4866 -0.5786 -1.5179
  320MOL0     H43151   9.320  11.794   4.518 -0.6489 -0.1955  4.7145
  320MOL0     H43152   9.484  11.830   4.352  0.7780  0.4139  1.0322
  320MOL0     H43153   9.623  11.721   4.376 -0.6549  2.0737  0.1828
  320MOL0     H43154   9.571  11.593   4.201 -1.4957 -0.4795  1.7633
  320MOL0     H43155   9.419  11.687   4.174 -0.3606  1.4100 -0.3157
  320MOL0     H43156   9.681  11.831   4.170 -1.5809  1.8344  0.5300
  320MOL0     H43157   9.528  11.881   4.103 -0.8033  0.9284 -0.3965
  320MOL0     H43158   9.648  11.624   4.000  2.2807  0.9307  0.6453
  320MOL0     H43159   9.706  11.784   3.956  1.4926 -1.0368  2.9599
  320MOL0     H43160   9.699  11.641   3.764 -2.2399 -0.6851  2.5381
  320MOL0     H43161   9.715  11.619   3.525  1.6418 -1.2441  3.3634
  320MOL0     H43162   9.750  11.837   3.132 -0.7035  0.2564 -1.3606
  320MOL0     H43163   9.743  11.838   2.863  0.5455  0.5039  2.5054
  320MOL0     H43164   9.648  11.802   2.644 -0.1400 -0.8757  0.6230
  320MOL0     H43165   9.825  11.735   2.649  0.6451 -2.0929  0.9834
  320MOL0     H43166   9.736  11.768   2.425  0.3471  1.4159  2.2831
  320MOL0     H43167   9.773  11.598   2.477 -0.4828  0.5239 -1.7601
  320MOL0     H43168   9.532  11.552   2.523  2.5117 -0.3356  0.6234
  320MOL0     H43169   9.499  11.721   2.471  4.2985  2.9221  1.5615
  320MOL0     H43170   9.460  11.553   2.271  0.3340  0.1030 -0.7035
  320MOL0     H43171   9.625  11.496   2.301 -2.4377 -1.3185 -2.3046
  320MOL0     H43172   9.596  11.621   2.109  2.1643 -1.1524  0.1548
  320MOL0     H43173   9.697  11.733   2.201 -1.6848  3.9606  0.7652
  320MOL0     H43174   9.395  11.751   2.163 -1.7127  3.2278  0.6542
  320MOL0     H43175   9.494  11.856   2.266 -1.7672  0.3638  0.1032
  320MOL0     H43176   9.573  11.970   2.105 -0.1333 -1.6996  2.9066
  320MOL0     H43177   9.413  11.951   2.054 -1.6157  0.3378  4.3200
  320MOL0     H43178   9.541  11.935   1.877  0.7912 -0.0366  1.3132
  320MOL0     H43179   9.642  11.807   1.923  0.6868 -0.4602 -1.2915
  320MOL0     H43180   9.615  11.430   2.891  5.2099 -2.0171  1.2530
  320MOL0     H43181   9.601  11.458   3.136 -3.1411  1.4106  0.0010
  320MOL0     H43182   9.338  11.833   3.488 -0.0071  0.9558  0.4338
  320MOL0     H43183   9.321  11.817   3.741  1.2420 -0.9227  0.7242
  320MOL0     H43184   9.150  11.032   5.458 -0.2556  0.4062  0.2648
  320MOL0     H43185   9.100  10.968   5.692 -0.1274 -1.3499  1.4621
  320MOL0     H43186   9.062  10.939   6.023  1.4606 -1.9374 -1.4891
  320MOL0     H43187   8.941  10.908   6.230 -0.4849 -0.7780 -2.0363
  320MOL0     H43188   8.877  10.894   6.410  0.0491 -2.3385 -2.1840
  320MOL0     H43189   8.915  10.887   6.579  2.4650  1.5001 -0.5232
  320MOL0     H43190   8.879  10.651   6.400  0.4843 -0.3218  1.0421
  320MOL0     H43191   8.779  10.709   6.527  0.2978 -1.4860  0.3193
  320MOL0     H43192   8.978  10.654   6.695 -0.3839 -0.2187 -0.8271
  320MOL0     H43193   9.033  10.558   6.568  1.4588  2.2737  2.2509
  320MOL0     H43194   8.750  10.530   6.678  0.8759  0.8388  0.3379
  320MOL0     H43195   8.821  10.429   6.554 -0.7297  1.6460 -0.4472
  320MOL0     H43196   9.006  10.311   6.931  0.4882  0.7167  0.3744
  320MOL0     H43197   9.315  10.808   6.425 -0.3961 -1.4111  0.8259
  320MOL0     H43198   9.551  10.875   6.173  0.1863  0.3603  0.1295
  320MOL0     H43199   9.516  10.780   6.315  0.1333  2.0763  0.0917
  320MOL0     H43200   9.512  10.710   6.156 -0.1455 -0.0271 -0.8078
  321MOL0     O43201   2.225   2.547   6.894  0.2265 -0.2450  0.1176
  321MOL0     C43202   2.343   2.562   6.920  0.2970  1.1934  0.5174
  321MOL0     O43203   2.426   2.637   6.844 -0.1923  0.0216 -0.2729
  321MOL0     C43204   2.381   2.741   6.756  0.9611  0.1989  0.6554
  321MOL0     C43205   2.486   2.787   6.678  0.2407  0.0593  0.1415
  321MOL0     C43206   2.469   2.884   6.576  0.8685 -0.4371 -0.6778
  321MOL0     C43207   2.341   2.946   6.565 -0.2871 -0.0539 -0.2576
  321MOL0     O43208   2.308   3.050   6.486  0.4464  0.0029  0.0602
  321MOL0     C43209   2.358   3.035   6.352 -0.8193  0.3629  0.5117
  321MOL0     C43210   2.295   3.130   6.253  0.4961  0.0675  0.9309
  321MOL0     C43211   2.145   3.109   6.239  0.2874 -0.5275 -0.2748
  321MOL0     C43212   2.082   3.186   6.117  0.0102 -0.1066 -0.0438
  321MOL0     C43213   1.926   3.196   6.132 -0.7093 -0.4600  0.1982
  321MOL0     C43214   1.877   3.244   5.997 -0.2571  0.3422 -0.2809
  321MOL0     C43215   1.773   3.353   6.018  0.1269 -0.2659  1.0811
  321MOL0     C43216   1.644   3.301   6.055  0.9826 -0.8431  0.4106
  321MOL0     N43217   1.550   3.414   6.072  0.2409  0.2062 -0.2602
  321MOL0     C43218   1.556   3.487   6.182 -0.6136  0.1004  0.1546
  321MOL0     C43219   1.490   3.604   6.147 -0.0419 -0.9759 -0.1465
  321MOL0     C43220   1.476   3.724   6.247  0.8289 -0.3923  0.0270
  321MOL0     C43221   1.343   3.710   6.330 -0.0491 -0.4886 -0.1237
  321MOL0     C43222   1.307   3.837   6.402 -0.0962  0.5092 -0.1182
  321MOL0     C43223   1.322   3.964   6.314  0.3090 -0.0899  0.0155
  321MOL0     O43224   1.276   4.075   6.387 -0.0611 -0.1496  0.0117
  321MOL0     C43225   1.160   4.146   6.360  0.0410 -0.4372 -0.0650
  321MOL0     C43226   1.092   4.145   6.239  1.1666 -0.4351 -0.1231
  321MOL0     C43227   0.969   4.222   6.238 -1.2558 -0.3401  0.0887
  321MOL0     C43228   0.932   4.299   6.348 -0.7480 -0.9264  0.0231
  321MOL0     C43229   0.810   4.372   6.352 -0.7821  0.5490 -0.1639
  321MOL0     O43230   0.755   4.388   6.231  0.0859  0.1578  0.5291
  321MOL0     C43231   0.623   4.430   6.227  0.5628  0.1601  1.0825
  321MOL0     C43232   0.579   4.541   6.296 -0.1833 -0.6330  0.5243
  321MOL0     C43233   0.456   4.605   6.264  0.3307  0.3873 -0.5654
  321MOL0     C43234   0.379   4.529   6.177  0.1700  0.2087 -0.0516
  321MOL0     O43235   0.258   4.590   6.156 -0.6719 -0.0740  0.8843
  321MOL0     C43236   0.140   4.542   6.218 -0.1314 -0.0398 -0.8668
  321MOL0     C43237   0.085   4.423   6.138  0.5909  0.1289 -0.8722
  321MOL0     C43238  -0.063   4.389   6.166 -0.1057 -0.5764 -0.0012
  321MOL0     C43239  -0.162   4.470   6.070  0.9872 -0.6853  0.7095
  321MOL0     C43240  -0.166   4.426   5.920 -0.5072 -0.6349 -0.1351
  321MOL0     C43241  -0.221   4.289   5.886 -0.2091  0.7312  0.7093
  321MOL0     C43242  -0.190   4.256   5.734  0.1326 -0.9413 -0.3356
  321MOL0     C43243  -0.242   4.114   5.699 -0.6302 -0.6724  0.0832
  321MOL0    Cl43244  -0.144   3.982   5.781 -0.1015 -0.0828  0.0184
  321MOL0     C43245   0.414   4.417   6.109  0.1210  0.9939 -0.5741
  321MOL0     C43246   0.541   4.372   6.137  0.8164 -0.3168 -0.3718
  321MOL0     O43247   0.769   4.409   6.464 -0.2355  0.0883  0.0173
  321MOL0     C43248   1.010   4.305   6.466 -0.2644  0.5421 -0.3979
  321MOL0     C43249   1.126   4.221   6.473  0.7667 -0.2443 -0.1747
  321MOL0     N43250   1.445   3.603   6.021 -0.6754  0.4451  0.5941
  321MOL0     N43251   1.485   3.486   5.974  1.0017 -0.2655 -0.1804
  321MOL0     C43252   2.236   2.897   6.651 -0.5355 -0.5638  0.2142
  321MOL0     C43253   2.253   2.792   6.743 -0.4448  0.9698  0.6790
  321MOL0     C43254   2.370   2.486   7.050 -0.6406 -0.2255  0.0876
  321MOL0     C43255   2.257   2.438   7.130 -0.3413  0.0106 -0.7013
  321MOL0     C43256   2.284   2.385   7.256  0.6017  0.5857 -0.6914
  321MOL0     C43257   2.412   2.390   7.309 -0.3365  0.6083  1.4591
  321MOL0     O43258   2.420   2.366   7.441 -0.1905  0.7620 -0.2235
  321MOL0     C43259   2.541   2.420   7.507  0.0611 -1.2561  0.1102
  321MOL0     C43260   2.647   2.310   7.517 -0.0630 -1.5726  0.0310
  321MOL0     C43261   2.787   2.349   7.547 -1.0401 -0.3883 -0.8294
  321MOL0     C43262   2.878   2.294   7.437 -0.2013 -0.6844 -0.5220
  321MOL0     C43263   3.021   2.305   7.472  0.4556  0.0979  1.0942
  321MOL0     C43264   3.137   2.323   7.490  0.1633 -0.1880  0.1571
  321MOL0     C43265   2.522   2.424   7.225  0.7809 -0.0106 -1.4856
  321MOL0     C43266   2.507   2.476   7.096 -0.6539  0.4042  0.2021
  321MOL0     C43267   2.629   2.508   7.009  0.5173  0.1391 -0.5717
  321MOL0     H43268   2.579   2.733   6.688  0.5797  0.6786  0.3760
  321MOL0     H43269   2.563   2.905   6.525  1.1132  1.1291  0.3349
  321MOL0     H43270   2.465   3.056   6.361 -0.6949  0.0915 -0.2731
  321MOL0     H43271   2.347   2.931   6.320  0.9311 -0.3124  1.9532
  321MOL0     H43272   2.337   3.107   6.154 -0.9158 -0.6635  0.4552
  321MOL0     H43273   2.314   3.232   6.288 -1.1007  0.2262  1.4256
  321MOL0     H43274   2.102   3.135   6.336  1.3293 -0.5585  0.2013
  321MOL0     H43275   2.127   3.003   6.215  0.1545 -0.3051 -1.2066
  321MOL0     H43276   2.124   3.287   6.114  0.4371 -0.2653  0.3944
  321MOL0     H43277   2.094   3.128   6.024 -2.1947  1.7768 -1.5959
  321MOL0     H43278   1.878   3.100   6.157 -1.1179 -0.3408 -0.1223
  321MOL0     H43279   1.908   3.268   6.212  2.9179 -2.2463  2.9359
  321MOL0     H43280   1.957   3.286   5.936  0.0020 -2.1105 -1.7483
  321MOL0     H43281   1.831   3.160   5.943 -1.3719  1.6916 -1.5248
  321MOL0     H43282   1.765   3.407   5.924 -2.0606 -1.5740  0.4436
  321MOL0     H43283   1.808   3.421   6.097 -1.4761 -1.2983  2.7602
  321MOL0     H43284   1.617   3.231   5.975 -1.2793 -3.0332  2.8744
  321MOL0     H43285   1.646   3.239   6.145 -0.9135  0.9619  1.8180
  321MOL0     H43286   1.594   3.467   6.282 -1.5610 -3.3157 -0.0684
  321MOL0     H43287   1.567   3.736   6.307 -0.3430  0.0387  1.8120
  321MOL0     H43288   1.472   3.820   6.196 -1.6430 -0.1399  0.5240
  321MOL0     H43289   1.265   3.680   6.260  0.0534 -0.3055 -0.3176
  321MOL0     H43290   1.349   3.627   6.401  1.7100  0.3791  0.8356
  321MOL0     H43291   1.372   3.847   6.489 -1.9781 -4.6069  2.2958
  321MOL0     H43292   1.205   3.830   6.441  1.0478 -2.3289  2.7652
  321MOL0     H43293   1.279   3.942   6.216  0.9384  0.8509 -0.4855
  321MOL0     H43294   1.429   3.974   6.295  0.7482 -1.6809  1.3972
  321MOL0     H43295   1.119   4.086   6.152  0.4029 -1.0511  0.0494
  321MOL0     H43296   0.920   4.216   6.141  0.4618 -2.1523 -0.7291
  321MOL0     H43297   0.647   4.609   6.347  0.7195  0.1094 -1.5755
  321MOL0     H43298   0.423   4.691   6.322  2.3704  1.2423 -0.6088
  321MOL0     H43299   0.162   4.512   6.320  0.0296  0.0005 -0.8889
  321MOL0     H43300   0.061   4.617   6.213  1.1689  1.6031  1.3669
  321MOL0     H43301   0.111   4.441   6.033  1.1756  0.9551 -0.5980
  321MOL0     H43302   0.152   4.342   6.170 -1.6478 -1.0962  1.0478
  321MOL0     H43303  -0.066   4.281   6.150 -1.4116 -0.2086 -3.0762
  321MOL0     H43304  -0.082   4.404   6.272  0.0241 -1.5461  0.1710
  321MOL0     H43305  -0.124   4.572   6.079 -2.2548  0.7324 -0.2280
  321MOL0     H43306  -0.261   4.466   6.117  0.5727  3.1283  0.4861
  321MOL0     H43307  -0.067   4.438   5.874  0.7970 -0.0820  2.6267
  321MOL0     H43308  -0.224   4.507   5.875  0.9434  0.6690  0.2499
  321MOL0     H43309  -0.190   4.199   5.940 -0.0963 -0.8517 -1.8526
  321MOL0     H43310  -0.328   4.305   5.903  0.2437  1.8932  2.8447
  321MOL0     H43311  -0.086   4.259   5.702 -0.1383  1.6634 -1.2383
  321MOL0     H43312  -0.237   4.334   5.674  0.5704  0.6772  1.3645
  321MOL0     H43313  -0.338   4.098   5.750  0.8109 -0.3154  3.1710
  321MOL0     H43314  -0.248   4.089   5.593 -0.6234 -2.0503  0.3780
  321MOL0     H43315   0.344   4.366   6.043  2.3741 -1.7789 -0.9983
  321MOL0     H43316   0.581   4.288   6.081 -0.4900 -1.6111  0.5492
  321MOL0     H43317   0.973   4.366   6.548 -0.2705 -0.3585  0.2882
  321MOL0     H43318   1.178   4.204   6.567 -0.4141  0.5022  0.6390
  321MOL0     H43319   2.143   2.950   6.637 -0.2592  0.6143  2.4952
  321MOL0     H43320   2.176   2.764   6.813 -1.3786  4.5336  1.2799
  321MOL0     H43321   2.153   2.449   7.102 -0.6892  1.3178  0.9569
  321MOL0     H43322   2.200   2.337   7.306  2.2428 -1.3518  0.3248
  321MOL0     H43323   2.505   2.438   7.609  1.0835 -1.1089  0.4552
  321MOL0     H43324   2.575   2.518   7.473  0.8560 -0.9054  1.8238
  321MOL0     H43325   2.632   2.263   7.419 -2.5863  1.3071 -1.1157
  321MOL0     H43326   2.613   2.235   7.589 -0.6762 -0.6862  0.6768
  321MOL0     H43327   2.817   2.310   7.645 -1.1087 -1.3349 -1.1748
  321MOL0     H43328   2.811   2.455   7.556  0.2436 -0.7299  0.1736
  321MOL0     H43329   2.874   2.185   7.424 -1.1944 -0.5283 -1.8074
  321MOL0     H43330   2.854   2.343   7.342 -0.3692  1.0619  0.3872
  321MOL0     H43331   3.241   2.323   7.519 -0.0389 -0.9958  0.9457
  321MOL0     H43332   2.621   2.434   7.267 -0.5209 -0.3234  1.9698
  321MOL0     H43333   2.717   2.455   7.045  0.6704 -0.1779 -1.4101
  321MOL0     H43334   2.613   2.477   6.906  2.8612 -0.4090 -0.8117
  321MOL0     H43335   2.640   2.616   7.026  2.0745 -0.0559 -0.2432
  322MOL0     O43336   0.274  10.775   6.578 -0.3505  0.3138 -0.2231
  322MOL0     C43337   0.194  10.808   6.495 -0.1100  0.4174  1.4727
  322MOL0     O43338   0.215  10.809   6.360 -0.2679  0.2896  0.1279
  322MOL0     C43339   0.336  10.774   6.311 -0.1702 -0.2618  0.1235
  322MOL0     C43340   0.325  10.753   6.175  0.3053  0.9149 -1.0395
  322MOL0     C43341   0.439  10.727   6.097 -0.3041 -0.7227 -0.5031
  322MOL0     C43342   0.564  10.720   6.155 -0.6912 -0.0117 -0.3750
  322MOL0     O43343   0.674  10.691   6.089 -0.0705  0.1065 -0.7609
  322MOL0     C43344   0.746  10.774   5.998  0.2946 -0.5108 -0.2834
  322MOL0     C43345   0.686  10.782   5.862 -0.0637  0.6000 -0.2633
  322MOL0     C43346   0.759  10.876   5.777 -0.3225 -0.0968  0.1598
  322MOL0     C43347   0.904  10.837   5.731  0.0816 -0.2173 -0.2175
  322MOL0     C43348   0.947  10.930   5.614 -0.7462  0.5077  0.6174
  322MOL0     C43349   1.008  11.065   5.653 -0.1238 -0.0628 -0.2409
  322MOL0     C43350   1.149  11.096   5.599 -0.0056  1.1116 -0.4989
  322MOL0     C43351   1.157  11.100   5.447 -0.4006  0.0823  1.0057
  322MOL0     N43352   1.291  11.114   5.382 -0.0025 -0.7279  0.4592
  322MOL0     C43353   1.385  11.012   5.362 -0.7865 -0.5373 -0.5440
  322MOL0     C43354   1.480  11.078   5.299  0.5742  0.6181 -0.3010
  322MOL0     C43355   1.583  10.985   5.227 -0.2483 -0.3323  0.2922
  322MOL0     C43356   1.635  11.058   5.100  0.8710  0.1608 -0.2724
  322MOL0     C43357   1.559  11.024   4.969  0.2895  0.0840  0.1569
  322MOL0     C43358   1.410  11.025   4.946  0.9238 -0.6032  0.4769
  322MOL0     O43359   1.387  11.167   4.930 -0.3882  0.6469 -0.2642
  322MOL0     C43360   1.281  11.212   4.859 -0.0688 -0.1549 -0.4393
  322MOL0     C43361   1.246  11.345   4.885  0.0479 -0.3440 -0.6455
  322MOL0     C43362   1.140  11.407   4.812  0.0737  0.2731 -0.0614
  322MOL0     C43363   1.061  11.338   4.720 -0.1819 -0.3982 -0.5207
  322MOL0     C43364   0.938  11.394   4.665  0.0484  0.6185 -0.0542
  322MOL0     O43365   0.901  11.518   4.731  0.3381 -0.2686 -0.0775
  322MOL0     C43366   0.774  11.583   4.705 -0.2692 -0.1940 -0.0894
  322MOL0     C43367   0.757  11.719   4.743  0.3829  0.2933 -1.0776
  322MOL0     C43368   0.638  11.801   4.716 -0.8421  0.9277  0.7190
  322MOL0     C43369   0.529  11.734   4.652 -0.3562 -0.7102 -0.1794
  322MOL0     O43370   0.420  11.810   4.616 -0.0185 -0.9288 -0.3682
  322MOL0     C43371   0.311  11.801   4.708 -0.7055  0.0673 -0.3105
  322MOL0     C43372   0.163  11.852   4.680  0.4932  0.2689 -1.2076
  322MOL0     C43373   0.088  11.754   4.595  0.3523  1.3844  0.5911
  322MOL0     C43374  -0.017  11.828   4.518  0.0362 -0.5483 -0.9827
  322MOL0     C43375  -0.092  11.734   4.429 -1.2675 -0.0982 -0.3502
  322MOL0     C43376  -0.193  11.642   4.499 -0.0743  0.3035 -0.8056
  322MOL0     C43377  -0.314  11.602   4.410  0.0396  0.2956 -0.2499
  322MOL0     C43378  -0.274  11.494   4.308  0.4814 -0.0451 -0.2983
  322MOL0    Cl43379  -0.188  11.352   4.363  0.0977 -0.3099 -0.0639
  322MOL0     C43380   0.543  11.599   4.614 -0.3207 -0.3731 -0.0758
  322MOL0     C43381   0.657  11.523   4.650  0.6025  0.6821  0.2358
  322MOL0     O43382   0.875  11.344   4.570 -0.1529  0.3857 -0.1419
  322MOL0     C43383   1.112  11.207   4.675 -0.2927  0.6187 -0.0116
  322MOL0     C43384   1.208  11.145   4.755 -0.1414 -0.5117  0.6146
  322MOL0     N43385   1.461  11.213   5.290  0.3675  0.2735 -0.8837
  322MOL0     N43386   1.343  11.228   5.336  0.0516 -0.3510 -0.2302
  322MOL0     C43387   0.577  10.743   6.293 -0.5835 -0.4391  0.1474
  322MOL0     C43388   0.466  10.782   6.367 -1.0015 -0.5101  0.0144
  322MOL0     C43389   0.059  10.846   6.545  0.4505 -0.0635 -1.3639
  322MOL0     C43390   0.023  10.835   6.684 -1.2978  0.7547  0.2604
  322MOL0     C43391  -0.101  10.852   6.739 -0.8856  0.3192  0.5680
  322MOL0     C43392  -0.206  10.891   6.654  0.8452  0.0140  0.3252
  322MOL0     O43393  -0.329  10.871   6.713 -0.4003  0.0975  0.1815
  322MOL0     C43394  -0.446  10.815   6.648 -0.5241 -0.4030 -0.4981
  322MOL0     C43395  -0.416  10.672   6.601  0.1790 -0.5152  0.8737
  322MOL0     C43396  -0.539  10.599   6.533 -0.4413 -1.5400  0.4636
  322MOL0     C43397  -0.546  10.645   6.389 -0.0415  0.0357 -0.6818
  322MOL0     C43398  -0.443  10.589   6.307 -0.5303 -0.2825 -0.1534
  322MOL0     C43399  -0.370  10.517   6.242 -0.2756 -1.2173  0.3091
  322MOL0     C43400  -0.176  10.902   6.517 -0.6074  0.8094  0.1645
  322MOL0     C43401  -0.048  10.878   6.459 -0.7578 -0.2529 -0.1935
  322MOL0     C43402  -0.038  10.883   6.306 -0.9834  0.5546  0.0428
  322MOL0     H43403   0.229  10.745   6.124  0.3466 -0.7065 -0.9011
  322MOL0     H43404   0.422  10.699   5.993 -0.8475 -0.2945 -0.5304
  322MOL0     H43405   0.749  10.875   6.038  0.6103 -0.5994 -0.0872
  322MOL0     H43406   0.848  10.735   5.990  0.0070 -1.2208 -0.6682
  322MOL0     H43407   0.581  10.812   5.871 -1.9938 -4.9812 -0.1113
  322MOL0     H43408   0.672  10.686   5.810 -1.8707  1.8412 -2.2213
  322MOL0     H43409   0.763  10.971   5.831 -0.5395  1.4137 -2.3259
  322MOL0     H43410   0.698  10.886   5.687  0.2484 -1.9478 -0.4867
  322MOL0     H43411   0.975  10.847   5.814 -1.0956 -2.3981  1.1697
  322MOL0     H43412   0.896  10.734   5.694 -0.8201  0.9838 -3.7155
  322MOL0     H43413   1.023  10.871   5.560 -1.0682 -0.6292  1.3665
  322MOL0     H43414   0.862  10.947   5.548 -0.8604 -2.6986 -0.2281
  322MOL0     H43415   0.952  11.153   5.620  0.9233  1.0129  0.7403
  322MOL0     H43416   1.006  11.070   5.762  2.4813 -2.4577  0.0537
  322MOL0     H43417   1.223  11.025   5.637  0.1112  2.4021  1.9284
  322MOL0     H43418   1.190  11.194   5.625  1.3840  1.2628 -2.9756
  322MOL0     H43419   1.106  11.021   5.392  0.4517  0.5100 -0.4516
  322MOL0     H43420   1.112  11.193   5.410 -0.0963 -0.1524  0.0152
  322MOL0     H43421   1.390  10.906   5.381  1.8096  0.0513  3.0542
  322MOL0     H43422   1.659  10.965   5.303 -2.4420 -1.6485  2.3065
  322MOL0     H43423   1.527  10.893   5.207  1.0696 -1.7177  2.5052
  322MOL0     H43424   1.620  11.165   5.115  1.3652 -0.1106  2.6742
  322MOL0     H43425   1.739  11.029   5.088  0.4537 -2.0199  0.7242
  322MOL0     H43426   1.577  10.916   4.962 -0.6775 -0.1523  0.9634
  322MOL0     H43427   1.614  11.073   4.889  0.1618 -0.8034 -0.4994
  322MOL0     H43428   1.345  10.971   5.015  1.0630 -0.9134  0.3650
  322MOL0     H43429   1.405  10.989   4.843  0.8410  0.1729  0.1976
  322MOL0     H43430   1.313  11.402   4.949 -0.3462 -2.1938  1.5537
  322MOL0     H43431   1.104  11.505   4.841 -4.1722 -1.0129 -0.3165
  322MOL0     H43432   0.847  11.760   4.787 -0.3725 -0.7384  1.5797
  322MOL0     H43433   0.613  11.905   4.739 -1.9531  1.0453 -0.8561
  322MOL0     H43434   0.309  11.705   4.759  2.5175  2.1947  4.4915
  322MOL0     H43435   0.351  11.862   4.789  1.5360 -0.6873 -0.7893
  322MOL0     H43436   0.120  11.863   4.780 -2.3535 -0.0181 -2.3179
  322MOL0     H43437   0.162  11.955   4.644 -0.5151  0.2226 -1.3433
  322MOL0     H43438   0.154  11.703   4.524 -1.5371  0.2440 -0.4239
  322MOL0     H43439   0.040  11.684   4.664 -2.2075  3.8582  1.5200
  322MOL0     H43440   0.030  11.909   4.462  1.4069  0.1519  1.0775
  322MOL0     H43441  -0.074  11.878   4.596 -0.5598  0.1005 -1.8210
  322MOL0     H43442  -0.027  11.674   4.365 -1.0287 -1.1828  0.8614
  322MOL0     H43443  -0.153  11.798   4.364 -2.1628  0.7156  1.2353
  322MOL0     H43444  -0.136  11.558   4.540 -1.9106  0.6981  2.9516
  322MOL0     H43445  -0.230  11.712   4.575 -0.0149  0.5349 -0.9913
  322MOL0     H43446  -0.351  11.688   4.354 -1.7142 -0.3006 -0.0778
  322MOL0     H43447  -0.403  11.571   4.466 -1.9806  2.6812 -1.9108
  322MOL0     H43448  -0.357  11.474   4.240 -0.3901  1.5985  0.2221
  322MOL0     H43449  -0.198  11.544   4.247 -0.3747  2.2564  0.3884
  322MOL0     H43450   0.456  11.559   4.563 -1.3608  3.2332 -1.4853
  322MOL0     H43451   0.660  11.420   4.617  2.1604 -0.3960  3.3272
  322MOL0     H43452   1.065  11.150   4.596  0.2812  0.7305 -0.4420
  322MOL0     H43453   1.229  11.040   4.736  3.6043  0.3035 -0.5874
  322MOL0     H43454   0.673  10.733   6.343 -0.9503  0.6517  1.1184
  322MOL0     H43455   0.480  10.803   6.473 -0.2575  0.4748 -0.2613
  322MOL0     H43456   0.107  10.810   6.748 -1.2123 -0.0932 -0.1678
  322MOL0     H43457  -0.129  10.842   6.843 -2.8482 -0.2880  0.0185
  322MOL0     H43458  -0.483  10.887   6.574  0.1492 -1.4677 -1.8949
  322MOL0     H43459  -0.511  10.804   6.735 -0.7196 -3.4868 -0.9467
  322MOL0     H43460  -0.382  10.608   6.683 -0.4049 -1.7718  0.1670
  322MOL0     H43461  -0.334  10.680   6.529 -0.3635  1.8176  0.4243
  322MOL0     H43462  -0.632  10.622   6.586 -0.8785 -0.4984 -0.7020
  322MOL0     H43463  -0.504  10.495   6.539  2.8351 -0.5496  0.1622
  322MOL0     H43464  -0.641  10.597   6.365 -1.8803  1.5465  2.8686
  322MOL0     H43465  -0.556  10.753   6.384  1.2991  0.3886  2.1557
  322MOL0     H43466  -0.319  10.440   6.187  0.5278 -1.0814  0.8496
  322MOL0     H43467  -0.265  10.911   6.455  0.8128  0.2542 -2.1175
  322MOL0     H43468  -0.043  10.783   6.262 -1.0499  1.5573 -2.4342
  322MOL0     H43469  -0.122  10.941   6.265 -1.2841  1.1537  1.4591
  322MOL0     H43470   0.052  10.936   6.273  0.1365 -0.4966  1.3335
  323MOL0     O43471   5.124  10.491   5.864  0.2247  0.3227  0.4709
  323MOL0     C43472   5.106  10.538   5.749  0.6151  0.7692 -0.7169
  323MOL0     O43473   5.193  10.522   5.642 -0.0206 -0.0048 -0.5232
  323MOL0     C43474   5.319  10.474   5.665  0.2251  0.5602 -0.3419
  323MOL0     C43475   5.429  10.553   5.633  0.1464 -0.1757  0.5859
  323MOL0     C43476   5.562  10.503   5.650  1.1325  0.1573  0.8674
  323MOL0     C43477   5.579  10.369   5.708 -0.2869  0.0260  0.1726
  323MOL0     O43478   5.700  10.311   5.733 -0.1755 -0.0949 -0.8081
  323MOL0     C43479   5.812  10.371   5.659  0.5341  0.3285  0.1725
  323MOL0     C43480   5.929  10.300   5.732 -0.4514  0.1385  0.0677
  323MOL0     C43481   6.071  10.327   5.682 -0.0580  0.2932  0.1302
  323MOL0     C43482   6.092  10.278   5.540 -0.6281  0.4904  0.0836
  323MOL0     C43483   6.235  10.291   5.494 -1.2125  1.0179  0.5830
  323MOL0     C43484   6.340  10.274   5.598  1.0893 -0.2783 -0.0678
  323MOL0     C43485   6.478  10.277   5.537 -0.2070  0.2614 -0.3480
  323MOL0     C43486   6.504  10.393   5.444 -0.6815 -0.0054 -0.0877
  323MOL0     N43487   6.648  10.406   5.401  1.1436 -0.1251  0.5430
  323MOL0     C43488   6.712  10.341   5.312  0.2509 -0.0850  0.3411
  323MOL0     C43489   6.852  10.362   5.331 -0.1046 -0.4381  0.1087
  323MOL0     C43490   6.961  10.309   5.248 -0.1982 -0.2168  0.3152
  323MOL0     C43491   7.092  10.388   5.239  0.3511  0.0744  0.8858
  323MOL0     C43492   7.067  10.523   5.169 -0.0504  0.2605 -0.1431
  323MOL0     C43493   7.195  10.595   5.150 -0.6457 -0.6130  0.2344
  323MOL0     O43494   7.273  10.615   5.274  0.1439 -0.5455  0.6820
  323MOL0     C43495   7.405  10.673   5.258  0.0669  0.0507  0.2095
  323MOL0     C43496   7.475  10.717   5.137  0.9938 -0.2131 -0.9558
  323MOL0     C43497   7.610  10.751   5.133 -0.2797 -0.3146 -0.3794
  323MOL0     C43498   7.681  10.749   5.254 -0.2218  0.0939  0.4544
  323MOL0     C43499   7.835  10.777   5.255  0.3268  0.5174 -0.8449
  323MOL0     O43500   7.896  10.770   5.373  0.3378 -0.1320 -0.7954
  323MOL0     C43501   8.030  10.806   5.370  0.0902 -0.1506  0.5956
  323MOL0     C43502   8.074  10.941   5.362  0.4350 -0.8325 -0.2675
  323MOL0     C43503   8.212  10.973   5.348 -0.2406 -0.2656 -0.3342
  323MOL0     C43504   8.307  10.871   5.346  0.4108  0.0182  0.0933
  323MOL0     O43505   8.438  10.880   5.315 -0.1470 -0.5950  0.1338
  323MOL0     C43506   8.494  11.009   5.311  0.1609 -0.2977 -0.0044
  323MOL0     C43507   8.638  11.002   5.279 -0.1129 -0.1546  0.1876
  323MOL0     C43508   8.688  11.156   5.265  0.4854  0.4338 -0.2071
  323MOL0     C43509   8.700  11.195   5.124 -0.4443 -0.4089  0.0870
  323MOL0     C43510   8.712  11.347   5.089 -0.9271 -0.1477  0.0877
  323MOL0     C43511   8.853  11.391   5.086 -0.3902 -0.0345  0.4897
  323MOL0     C43512   8.920  11.400   5.220 -0.3132  0.4080  0.0089
  323MOL0     C43513   9.037  11.497   5.211 -0.7900 -0.1160  0.2751
  323MOL0    Cl43514   8.996  11.668   5.228 -0.4874  0.3518  0.2850
  323MOL0     C43515   8.266  10.740   5.352  0.4526  0.1319 -1.1893
  323MOL0     C43516   8.129  10.709   5.365  0.5394 -0.1640  0.9640
  323MOL0     O43517   7.881  10.795   5.146  0.4477 -0.6514  0.2008
  323MOL0     C43518   7.621  10.709   5.374  0.8760 -0.4463  0.1420
  323MOL0     C43519   7.486  10.666   5.374 -0.4089  0.1962  1.0255
  323MOL0     N43520   6.860  10.453   5.432 -0.3598 -0.1739  0.2212
  323MOL0     N43521   6.738  10.481   5.467 -0.0263 -0.6599  0.0339
  323MOL0     C43522   5.470  10.290   5.745 -0.7304 -0.4818  0.3803
  323MOL0     C43523   5.349  10.349   5.725  0.0792  0.2159  0.4447
  323MOL0     C43524   4.973  10.590   5.706  0.1735 -0.3557  0.8791
  323MOL0     C43525   4.944  10.585   5.563  1.1018  1.2371 -0.5360
  323MOL0     C43526   4.828  10.637   5.521 -0.1185  0.3251 -0.0504
  323MOL0     C43527   4.723  10.682   5.598 -0.0737  0.7229  0.1513
  323MOL0     O43528   4.606  10.721   5.539 -0.5010  0.0836  0.1423
  323MOL0     C43529   4.492  10.768   5.621 -0.6053  0.4568 -0.6458
  323MOL0     C43530   4.398  10.858   5.533  0.0156  0.0838 -0.2219
  323MOL0     C43531   4.358  10.799   5.402  0.0163  0.0927 -0.2425
  323MOL0     C43532   4.247  10.870   5.320 -0.4451  0.1594  0.2617
  323MOL0     C43533   4.144  10.915   5.417 -0.1629 -0.7546 -0.2864
  323MOL0     C43534   4.054  10.951   5.482 -0.1072 -0.8342 -0.6698
  323MOL0     C43535   4.751  10.689   5.735  0.5572 -0.0561 -0.7806
  323MOL0     C43536   4.881  10.657   5.790 -0.0521  0.7288  0.5677
  323MOL0     C43537   4.898  10.685   5.938 -0.1654  0.8974  0.3298
  323MOL0     H43538   5.405  10.655   5.604 -0.8266 -0.6698 -0.4340
  323MOL0     H43539   5.640  10.577   5.637 -0.5367  2.0727  1.1580
  323MOL0     H43540   5.822  10.355   5.551 -0.2660 -0.9182  0.2628
  323MOL0     H43541   5.824  10.478   5.682  0.5989  0.3952 -0.1658
  323MOL0     H43542   5.901  10.197   5.708 -1.9556  0.6337 -0.4001
  323MOL0     H43543   5.923  10.321   5.840 -0.5713 -1.1445  0.3291
  323MOL0     H43544   6.133  10.276   5.757 -1.1700 -1.6200 -0.1815
  323MOL0     H43545   6.089  10.435   5.682  0.4145  0.2132  0.0135
  323MOL0     H43546   6.056  10.175   5.532  2.0570 -0.5415  0.3488
  323MOL0     H43547   6.034  10.329   5.462 -1.5469 -0.3821  0.1739
  323MOL0     H43548   6.253  10.224   5.410 -1.7198  1.5304  0.0577
  323MOL0     H43549   6.239  10.392   5.451 -0.3731  0.5312 -0.5339
  323MOL0     H43550   6.336  10.353   5.674 -1.5733 -0.0634 -0.3459
  323MOL0     H43551   6.303  10.184   5.647 -0.3817  0.4211  0.1695
  323MOL0     H43552   6.486  10.185   5.478 -0.3516 -1.4503  2.1489
  323MOL0     H43553   6.554  10.276   5.615 -0.3119  1.8471 -0.1909
  323MOL0     H43554   6.446  10.385   5.352 -1.0068  0.9078  0.0307
  323MOL0     H43555   6.488  10.484   5.503  0.2546 -1.5226  2.7108
  323MOL0     H43556   6.673  10.305   5.218 -0.5284 -1.3350  1.1165
  323MOL0     H43557   6.984  10.210   5.287  0.1112 -0.1495  0.3028
  323MOL0     H43558   6.919  10.297   5.147  0.8187  1.1620 -0.3122
  323MOL0     H43559   7.143  10.397   5.335 -2.3817 -3.1716  2.8807
  323MOL0     H43560   7.152  10.332   5.166  1.5015  0.2979  1.6380
  323MOL0     H43561   6.996  10.582   5.228 -1.1797 -0.5852 -0.6209
  323MOL0     H43562   7.023  10.512   5.069 -1.4418  3.1279  0.0227
  323MOL0     H43563   7.185  10.693   5.102 -1.2538  0.5170  2.5042
  323MOL0     H43564   7.265  10.545   5.083  0.1822  0.1998  0.4608
  323MOL0     H43565   7.433  10.704   5.038  1.7590  2.7564 -1.7880
  323MOL0     H43566   7.649  10.803   5.045  2.9508 -2.9639 -0.7071
  323MOL0     H43567   7.993  11.014   5.362 -0.8441 -2.1791 -0.9674
  323MOL0     H43568   8.248  11.074   5.335  0.3365 -0.3220  0.7720
  323MOL0     H43569   8.445  11.076   5.241 -0.9446 -2.2590 -1.2046
  323MOL0     H43570   8.484  11.061   5.407 -0.0571  0.2326 -0.3170
  323MOL0     H43571   8.680  10.948   5.364 -1.8729 -1.7409  0.1156
  323MOL0     H43572   8.649  10.940   5.189 -1.8419  0.7562 -0.7108
  323MOL0     H43573   8.615  11.215   5.321 -1.4111 -0.2855 -1.7936
  323MOL0     H43574   8.779  11.184   5.319  1.2970  0.0922 -1.3636
  323MOL0     H43575   8.611  11.162   5.069  0.5750 -0.1364 -1.8465
  323MOL0     H43576   8.786  11.142   5.080  0.1785 -0.4829  1.3528
  323MOL0     H43577   8.663  11.402   5.171  1.4775 -2.4354  3.2934
  323MOL0     H43578   8.666  11.364   4.991 -2.3980  0.8459  0.8970
  323MOL0     H43579   8.905  11.332   5.009  0.5940  2.2269 -0.6748
  323MOL0     H43580   8.860  11.488   5.036 -3.3494  0.0995  0.1622
  323MOL0     H43581   8.965  11.302   5.233 -0.2786  0.6584  1.9453
  323MOL0     H43582   8.845  11.425   5.295 -1.8448 -1.9493 -0.6421
  323MOL0     H43583   9.117  11.470   5.280  0.7359  2.3208 -0.4189
  323MOL0     H43584   9.093  11.491   5.118 -0.7545  0.3978  0.2577
  323MOL0     H43585   8.331  10.654   5.343 -1.2311 -1.1962 -1.1072
  323MOL0     H43586   8.081  10.612   5.374 -3.4092  1.3783 -1.1914
  323MOL0     H43587   7.670  10.697   5.470 -1.6291 -2.0409  1.3238
  323MOL0     H43588   7.442  10.632   5.467  2.7895 -0.1659  2.5542
  323MOL0     H43589   5.464  10.188   5.781 -0.6562 -1.4085 -2.0687
  323MOL0     H43590   5.254  10.298   5.740 -1.7670  2.8952 -1.2718
  323MOL0     H43591   5.009  10.544   5.486 -1.3026 -0.7784 -1.6551
  323MOL0     H43592   4.818  10.633   5.413  4.5976  3.1533 -0.8533
  323MOL0     H43593   4.527  10.826   5.707 -0.2126 -1.4082  0.4926
  323MOL0     H43594   4.426  10.689   5.658 -2.5201  2.3586  0.2640
  323MOL0     H43595   4.434  10.958   5.506  2.8915 -0.8727 -0.3073
  323MOL0     H43596   4.308  10.867   5.594 -0.5461 -1.8201 -0.7045
  323MOL0     H43597   4.323  10.698   5.426 -0.6655  0.6409  1.2035
  323MOL0     H43598   4.452  10.803   5.347  2.4722 -2.2390  3.3020
  323MOL0     H43599   4.277  10.958   5.262 -2.6621 -0.6116 -2.2656
  323MOL0     H43600   4.203  10.798   5.250 -1.1558  1.1091 -0.2815
  323MOL0     H43601   3.964  10.975   5.535 -0.5835 -1.8122 -1.0107
  323MOL0     H43602   4.686  10.725   5.814  0.9661 -1.4183  0.2181
  323MOL0     H43603   4.898  10.591   5.995  2.1377  1.8982  2.1599
  323MOL0     H43604   4.996  10.730   5.952 -0.0704  0.3049  1.7587
  323MOL0     H43605   4.827  10.754   5.985 -1.2951  0.0073 -0.0149
  324MOL0     O43606  10.479   4.630   9.172  0.2086  0.6386  0.3270
  324MOL0     C43607  10.599   4.652   9.187 -0.1351 -0.3361 -0.2620
  324MOL0     O43608  10.698   4.584   9.124  0.4534  0.4627 -0.1005
  324MOL0     C43609  10.645   4.496   9.031 -0.0683  1.3111 -0.6618
  324MOL0     C43610  10.603   4.368   9.064  0.6650  0.1698 -0.2628
  324MOL0     C43611  10.553   4.287   8.963 -0.4828 -0.2504  0.4300
  324MOL0     C43612  10.539   4.329   8.827 -1.0431  0.3361 -1.8672
  324MOL0     O43613  10.510   4.237   8.729 -0.7177  1.0758 -0.1399
  324MOL0     C43614  10.529   4.275   8.599  0.3923  0.2003  0.0754
  324MOL0     C43615  10.505   4.163   8.499 -0.3760 -0.5297  0.5573
  324MOL0     C43616  10.541   4.203   8.361  0.3071 -0.5450 -0.4251
  324MOL0     C43617  10.535   4.082   8.259  0.0271  0.2272 -0.4485
  324MOL0     C43618  10.453   4.122   8.140 -0.1491  0.1157  0.4412
  324MOL0     C43619  10.308   4.108   8.168 -0.4431  0.1751  0.5345
  324MOL0     C43620  10.255   3.969   8.130  0.0574  0.3478  0.9789
  324MOL0     C43621  10.228   3.942   7.984 -0.1401 -0.1849  0.4785
  324MOL0     N43622  10.139   4.043   7.922  0.1498 -0.2615  0.8136
  324MOL0     C43623  10.154   4.108   7.797  1.3699  0.4691 -0.8673
  324MOL0     C43624  10.038   4.178   7.783  0.6107  0.2014 -0.7360
  324MOL0     C43625  10.010   4.272   7.679 -0.5957 -0.8524 -0.8049
  324MOL0     C43626  10.045   4.415   7.730  0.0135  0.1006  0.7329
  324MOL0     C43627  10.062   4.518   7.612  0.5671  0.3345 -0.4242
  324MOL0     C43628   9.951   4.527   7.504 -0.2303 -0.0347  0.2862
  324MOL0     O43629   9.819   4.540   7.560 -0.6977 -0.2825  0.1422
  324MOL0     C43630   9.717   4.595   7.485 -0.2451 -0.1858  0.0314
  324MOL0     C43631   9.682   4.724   7.486  0.5338  0.6459 -0.2923
  324MOL0     C43632   9.562   4.765   7.423 -0.1077  0.1973 -0.5065
  324MOL0     C43633   9.478   4.676   7.357 -0.2182 -0.6583 -0.6330
  324MOL0     C43634   9.346   4.725   7.302 -0.0438 -0.0916 -0.9263
  324MOL0     O43635   9.348   4.862   7.296  0.5364  0.8444 -0.1740
  324MOL0     C43636   9.236   4.926   7.252  0.4812 -0.0828  0.9558
  324MOL0     C43637   9.118   4.947   7.328 -0.3906 -0.7479  0.6572
  324MOL0     C43638   9.017   5.024   7.271 -0.6405 -0.4783 -0.6981
  324MOL0     C43639   9.022   5.057   7.138  0.6045  0.5421 -0.2413
  324MOL0     O43640   8.918   5.136   7.088 -0.0372  0.0301  0.0872
  324MOL0     C43641   8.779   5.094   7.125  1.2303 -0.0980  0.2543
  324MOL0     C43642   8.693   5.183   7.033 -0.2088 -0.1128 -0.0385
  324MOL0     C43643   8.550   5.134   7.028 -0.6293 -0.5549 -0.0527
  324MOL0     C43644   8.457   5.221   6.937 -0.4368 -0.0039 -0.3633
  324MOL0     C43645   8.316   5.195   6.952  0.4326  0.2348 -0.4239
  324MOL0     C43646   8.232   5.275   6.861  0.5382 -0.3841  1.0186
  324MOL0     C43647   8.081   5.246   6.876  1.6620 -0.5314 -0.8117
  324MOL0     C43648   8.031   5.117   6.798 -0.3199 -0.6418  0.6144
  324MOL0    Cl43649   7.868   5.069   6.835  0.0688  0.0771  0.4302
  324MOL0     C43650   9.136   5.045   7.063 -0.3077  0.1801  0.5001
  324MOL0     C43651   9.240   4.979   7.125  0.0775 -1.1092 -0.2725
  324MOL0     O43652   9.254   4.649   7.270  0.4614 -0.8096  0.0909
  324MOL0     C43653   9.521   4.540   7.351  0.2567 -0.5879  0.6703
  324MOL0     C43654   9.639   4.502   7.419  0.0253  0.0557  0.6789
  324MOL0     N43655   9.957   4.160   7.893 -0.3106 -0.4084 -0.0198
  324MOL0     N43656  10.026   4.075   7.976 -0.0270 -0.4591 -0.3044
  324MOL0     C43657  10.577   4.465   8.803 -0.8231 -0.0627 -0.7436
  324MOL0     C43658  10.629   4.543   8.903 -0.5234 -0.0233 -0.4064
  324MOL0     C43659  10.638   4.761   9.281  0.4703  0.6317  0.6234
  324MOL0     C43660  10.778   4.801   9.283 -0.5027 -0.2803 -0.1604
  324MOL0     C43661  10.829   4.892   9.378  0.3189 -0.0044 -0.1471
  324MOL0     C43662  10.746   4.953   9.475 -0.6244 -0.0441 -0.1263
  324MOL0     O43663  10.794   5.037   9.583 -0.0045 -0.3071  0.4900
  324MOL0     C43664  10.915   5.103   9.557  0.7500 -0.4768 -0.1859
  324MOL0     C43665  10.945   5.218   9.661  0.2979 -0.0082  0.0561
  324MOL0     C43666  11.073   5.194   9.740 -0.3123 -0.6137  0.5021
  324MOL0     C43667  11.097   5.319   9.824 -0.2123  0.9640 -0.0520
  324MOL0     C43668  11.229   5.295   9.885  0.3275 -0.4425  0.1481
  324MOL0     C43669  11.334   5.278   9.947 -0.0006 -0.8952  0.2993
  324MOL0     C43670  10.612   4.929   9.465 -0.5671 -0.1846 -0.8709
  324MOL0     C43671  10.550   4.841   9.366 -0.6289 -0.4943 -0.3149
  324MOL0     C43672  10.405   4.805   9.396 -0.5756 -0.4262  0.2098
  324MOL0     H43673  10.617   4.334   9.166  1.3674  0.1058 -0.3777
  324MOL0     H43674  10.540   4.181   8.980 -1.3254 -1.3382 -4.9713
  324MOL0     H43675  10.470   4.363   8.568  1.1895  0.1653 -1.6902
  324MOL0     H43676  10.634   4.304   8.587  0.2477  0.8564  0.3361
  324MOL0     H43677  10.397   4.147   8.502 -0.4243 -0.0880  1.4077
  324MOL0     H43678  10.562   4.074   8.528  1.6057  0.0222 -1.3803
  324MOL0     H43679  10.636   4.256   8.349  0.4442 -1.0061 -1.5236
  324MOL0     H43680  10.455   4.261   8.329 -1.7113 -2.2369  1.5831
  324MOL0     H43681  10.640   4.078   8.228  0.4750 -0.2692  1.0081
  324MOL0     H43682  10.500   3.987   8.299  0.1371 -0.7979 -2.6360
  324MOL0     H43683  10.472   4.225   8.109  2.0697 -0.6880 -1.0818
  324MOL0     H43684  10.486   4.058   8.058  2.6356 -0.9226  2.2007
  324MOL0     H43685  10.295   4.132   8.274  1.8811  1.4714  0.5911
  324MOL0     H43686  10.252   4.178   8.107  0.3987 -0.5665 -1.1668
  324MOL0     H43687  10.165   3.940   8.185 -0.5680 -0.7732 -0.5700
  324MOL0     H43688  10.333   3.899   8.160 -2.4356 -1.7903  2.9801
  324MOL0     H43689  10.323   3.939   7.930 -0.4083 -0.4125  0.0122
  324MOL0     H43690  10.173   3.848   7.980 -0.6935  0.1850 -2.5992
  324MOL0     H43691  10.237   4.102   7.729 -0.0116  3.0196 -2.9672
  324MOL0     H43692  10.085   4.248   7.604  0.8566 -0.8374  0.5964
  324MOL0     H43693   9.907   4.264   7.641 -1.1386  2.6571 -0.3952
  324MOL0     H43694   9.959   4.447   7.788 -0.4625 -0.3150  0.2662
  324MOL0     H43695  10.136   4.401   7.791  0.1928  2.4108  1.0813
  324MOL0     H43696  10.154   4.489   7.561  0.8318  1.0600 -0.3697
  324MOL0     H43697  10.067   4.620   7.649 -1.6238 -0.3856  2.2279
  324MOL0     H43698   9.945   4.433   7.449 -2.1346  0.8147 -1.0956
  324MOL0     H43699   9.974   4.612   7.439 -0.4675 -0.1216  0.0884
  324MOL0     H43700   9.741   4.792   7.546 -0.5093  1.9584 -0.7095
  324MOL0     H43701   9.539   4.871   7.430  1.4177  0.5845 -1.0177
  324MOL0     H43702   9.131   4.910   7.429 -0.8667 -1.8224  0.3360
  324MOL0     H43703   8.935   5.058   7.333 -1.7141 -1.6806 -1.4125
  324MOL0     H43704   8.763   4.988   7.108  1.4387 -0.4860  2.2781
  324MOL0     H43705   8.752   5.102   7.231  1.2111  0.0270  0.2401
  324MOL0     H43706   8.692   5.278   7.087 -1.8130 -0.6877  1.0313
  324MOL0     H43707   8.732   5.193   6.932  1.9636 -2.5531  0.4525
  324MOL0     H43708   8.551   5.032   6.987 -0.5697 -1.3202  1.7431
  324MOL0     H43709   8.514   5.130   7.132 -0.9057  2.7270  0.0656
  324MOL0     H43710   8.479   5.208   6.830  1.1770 -0.0095 -0.0581
  324MOL0     H43711   8.476   5.327   6.956  3.4414 -0.1245 -2.5379
  324MOL0     H43712   8.290   5.218   7.056  0.7383 -2.7752  0.4247
  324MOL0     H43713   8.313   5.086   6.946 -0.4209  0.2223  0.0658
  324MOL0     H43714   8.259   5.378   6.886 -0.0644  0.4335 -1.4210
  324MOL0     H43715   8.264   5.262   6.757  0.9616  2.1303  0.7621
  324MOL0     H43716   8.033   5.338   6.842  0.6154  0.6935  3.2981
  324MOL0     H43717   8.052   5.219   6.979 -1.6224 -0.2897 -1.5549
  324MOL0     H43718   8.034   5.133   6.690 -0.5643 -3.5043  0.1287
  324MOL0     H43719   8.100   5.034   6.811  0.1592 -0.4812 -0.7338
  324MOL0     H43720   9.129   5.075   6.959 -1.7598 -2.3768 -0.2179
  324MOL0     H43721   9.338   4.962   7.082  0.3693 -1.1471  0.3969
  324MOL0     H43722   9.454   4.468   7.306 -0.7133  0.9942 -0.5070
  324MOL0     H43723   9.667   4.398   7.410 -0.5887  0.0163 -1.3298
  324MOL0     H43724  10.587   4.489   8.698 -1.0964  3.6751 -0.0597
  324MOL0     H43725  10.662   4.645   8.883 -0.6012 -0.5558 -3.6635
  324MOL0     H43726  10.848   4.758   9.212 -0.2019  4.2694 -3.0682
  324MOL0     H43727  10.934   4.917   9.383  0.4546 -0.7955  2.5826
  324MOL0     H43728  10.921   5.147   9.457 -2.1041  0.6045  0.0002
  324MOL0     H43729  10.996   5.031   9.567  0.0985 -1.4445 -1.5331
  324MOL0     H43730  10.867   5.229   9.737  1.4071  0.0569  1.1990
  324MOL0     H43731  10.941   5.304   9.594 -2.6151 -0.8413 -1.0190
  324MOL0     H43732  11.160   5.177   9.677 -0.8605  0.5125 -0.5862
  324MOL0     H43733  11.057   5.109   9.808 -1.6132  1.6038  3.1877
  324MOL0     H43734  11.089   5.408   9.761 -0.3625  0.0935 -1.2791
  324MOL0     H43735  11.014   5.335   9.894  0.5568 -0.7567  1.3497
  324MOL0     H43736  11.423   5.264  10.005  0.1144 -5.0914 -0.6348
  324MOL0     H43737  10.552   4.993   9.529 -3.3146 -0.3961 -3.0455
  324MOL0     H43738  10.358   4.861   9.478 -2.7792  0.0640 -1.2923
  324MOL0     H43739  10.337   4.815   9.311  0.5757 -1.6406 -0.8926
  324MOL0     H43740  10.399   4.699   9.419 -0.5865 -0.7112 -1.0595
  325MOL0     O43741   2.380   7.746   9.470 -0.5065  0.2365 -0.3681
  325MOL0     C43742   2.351   7.635   9.457 -0.2208 -0.4527  0.4140
  325MOL0     O43743   2.275   7.577   9.356  0.1622  0.2079  0.2315
  325MOL0     C43744   2.188   7.658   9.295  0.7096 -0.1217 -0.1896
  325MOL0     C43745   2.053   7.618   9.281 -0.0020  0.4484  0.3752
  325MOL0     C43746   1.962   7.698   9.214  0.4107 -0.1383  0.2109
  325MOL0     C43747   1.999   7.828   9.171 -1.2979 -0.8179  0.0333
  325MOL0     O43748   1.919   7.920   9.113 -0.1370  0.7894 -0.6535
  325MOL0     C43749   1.779   7.881   9.089  0.3756 -0.2224 -0.1294
  325MOL0     C43750   1.687   7.903   9.207  0.5731  0.0503  0.8714
  325MOL0     C43751   1.545   7.849   9.180 -0.5243 -0.2242 -0.0801
  325MOL0     C43752   1.471   7.945   9.085  0.1110 -0.3216 -0.0058
  325MOL0     C43753   1.322   7.926   9.091  0.5605  0.5813 -0.1459
  325MOL0     C43754   1.256   8.011   8.986 -0.2984  0.5602  0.0642
  325MOL0     C43755   1.104   7.997   8.990 -0.1654  1.1894 -0.7239
  325MOL0     C43756   1.056   7.875   8.919  0.1235 -0.6154 -0.0273
  325MOL0     N43757   0.908   7.871   8.912  0.0606  0.1808 -0.0371
  325MOL0     C43758   0.831   7.898   9.022 -0.1083  0.4582  0.3790
  325MOL0     C43759   0.698   7.889   8.980 -0.3543  0.4710  0.1664
  325MOL0     C43760   0.574   7.899   9.065 -0.6727 -1.2292 -0.0151
  325MOL0     C43761   0.500   7.762   9.077  0.9011  0.6587  0.5896
  325MOL0     C43762   0.549   7.678   9.193 -0.4811  0.1040 -1.1223
  325MOL0     C43763   0.498   7.531   9.173 -0.8960 -0.0203 -0.6046
  325MOL0     O43764   0.502   7.457   9.294  0.6619 -0.1198 -0.4772
  325MOL0     C43765   0.626   7.442   9.348  0.6086 -0.2199 -0.0161
  325MOL0     C43766   0.734   7.383   9.288 -0.7743  0.1034 -0.1701
  325MOL0     C43767   0.852   7.362   9.367  0.5185  0.3576 -0.4535
  325MOL0     C43768   0.852   7.399   9.510 -0.3537  0.5114  0.9563
  325MOL0     C43769   0.965   7.350   9.583  0.2789  0.8424  0.4350
  325MOL0     O43770   1.078   7.316   9.515 -0.1392 -0.1701 -0.0385
  325MOL0     C43771   1.188   7.257   9.568 -0.0849 -0.3316  0.3016
  325MOL0     C43772   1.302   7.242   9.485  0.0262  0.3153 -0.3514
  325MOL0     C43773   1.413   7.170   9.521 -0.6339  0.2021 -0.1220
  325MOL0     C43774   1.427   7.110   9.649 -0.9428  0.1521 -0.4707
  325MOL0     O43775   1.536   7.034   9.702 -0.5170  0.5440  0.1589
  325MOL0     C43776   1.630   6.982   9.598 -0.1648  0.2841  0.5092
  325MOL0     C43777   1.726   6.881   9.655 -0.7438  0.5624 -0.1984
  325MOL0     C43778   1.822   6.943   9.760 -0.0330  0.9556 -0.2147
  325MOL0     C43779   1.900   6.838   9.835  0.1257  0.9118  0.2477
  325MOL0     C43780   1.801   6.762   9.930  0.1034 -0.2393  0.3381
  325MOL0     C43781   1.861   6.676  10.030  0.1308  0.1608 -0.4624
  325MOL0     C43782   1.750   6.649  10.134  0.7862 -1.6330  0.7191
  325MOL0     C43783   1.799   6.539  10.221  0.2596 -0.3711 -0.1631
  325MOL0    Cl43784   1.693   6.491  10.357  0.0817  0.1463 -0.1598
  325MOL0     C43785   1.320   7.126   9.736  0.5558  0.0581  0.0541
  325MOL0     C43786   1.204   7.201   9.699 -0.3375  0.3028  0.1725
  325MOL0     O43787   0.956   7.354   9.704 -0.4254 -0.2667  0.1547
  325MOL0     C43788   0.741   7.463   9.562 -1.0855 -0.0360 -0.1807
  325MOL0     C43789   0.635   7.491   9.480  0.0024  0.2314  0.5018
  325MOL0     N43790   0.702   7.844   8.851 -0.7341 -0.7469 -0.1880
  325MOL0     N43791   0.827   7.829   8.810  0.1336 -0.2249 -0.7537
  325MOL0     C43792   2.135   7.864   9.189  0.4672  0.4056  0.1896
  325MOL0     C43793   2.232   7.779   9.236  0.5567 -0.9701  0.3956
  325MOL0     C43794   2.382   7.551   9.575 -0.0667 -0.4323  0.9723
  325MOL0     C43795   2.354   7.420   9.578 -0.5975 -0.2032  0.1150
  325MOL0     C43796   2.383   7.342   9.693  0.2501  0.1731  0.8210
  325MOL0     C43797   2.468   7.379   9.793  0.3274 -0.4816  0.1232
  325MOL0     O43798   2.490   7.291   9.893  0.0837 -0.0304 -1.0460
  325MOL0     C43799   2.609   7.322   9.972  0.3368  0.1001 -0.5227
  325MOL0     C43800   2.612   7.218  10.085  0.9749  0.3840  0.3429
  325MOL0     C43801   2.488   7.219  10.184 -0.4994 -0.0216 -0.4888
  325MOL0     C43802   2.496   7.104  10.282 -0.0730 -0.5641  0.3149
  325MOL0     C43803   2.561   7.151  10.402 -0.1536  0.4859 -0.0214
  325MOL0     C43804   2.588   7.180  10.513 -0.0672 -0.4589 -0.1488
  325MOL0     C43805   2.498   7.514   9.796  0.6015  0.5602 -0.1010
  325MOL0     C43806   2.460   7.597   9.690 -0.3218  1.0572  0.6496
  325MOL0     C43807   2.507   7.739   9.704  0.2264  0.1522  0.1728
  325MOL0     H43808   2.016   7.528   9.327  1.8690 -0.8076 -0.4401
  325MOL0     H43809   1.864   7.651   9.210 -0.2650  1.1688  0.8631
  325MOL0     H43810   1.739   7.946   9.011  0.4918 -3.1522 -2.8635
  325MOL0     H43811   1.765   7.779   9.052 -0.1638 -0.2752  0.2145
  325MOL0     H43812   1.696   8.011   9.223  1.5524 -0.1359  1.7137
  325MOL0     H43813   1.731   7.871   9.302  1.6214 -0.3742  0.2600
  325MOL0     H43814   1.498   7.838   9.278  0.5588  1.1375  0.6140
  325MOL0     H43815   1.563   7.755   9.127 -0.5293  0.0209 -0.5165
  325MOL0     H43816   1.498   8.047   9.117  1.6068 -0.7778  0.2901
  325MOL0     H43817   1.504   7.922   8.983  0.2151  0.5780 -0.1845
  325MOL0     H43818   1.301   7.821   9.071  1.5800 -0.1107  2.1363
  325MOL0     H43819   1.275   7.949   9.187 -1.8703 -0.2563 -1.0612
  325MOL0     H43820   1.284   8.114   9.012 -1.8173  0.9655  0.1982
  325MOL0     H43821   1.292   7.975   8.889  2.1521  0.8867  0.7711
  325MOL0     H43822   1.053   8.082   8.942  1.7268  1.7977 -1.7712
  325MOL0     H43823   1.073   7.997   9.095 -0.6050 -3.1930 -0.6789
  325MOL0     H43824   1.096   7.875   8.817  0.2333 -0.2277  0.0142
  325MOL0     H43825   1.085   7.777   8.960 -1.7319 -1.2341 -0.0924
  325MOL0     H43826   0.866   7.915   9.123  2.6495 -3.8512  0.4338
  325MOL0     H43827   0.610   7.949   9.155  1.1950 -0.6338 -1.0260
  325MOL0     H43828   0.508   7.975   9.023 -0.7297 -0.8139  0.8122
  325MOL0     H43829   0.392   7.776   9.085  0.9897  0.7087  1.9309
  325MOL0     H43830   0.511   7.704   8.985 -1.1311 -0.0487  0.7468
  325MOL0     H43831   0.503   7.723   9.282 -0.7671  0.0780 -1.2564
  325MOL0     H43832   0.657   7.682   9.207 -0.4876  2.1831 -1.3157
  325MOL0     H43833   0.546   7.476   9.092 -3.7767 -1.2461 -1.6126
  325MOL0     H43834   0.398   7.538   9.128 -1.8210  1.0131  1.4691
  325MOL0     H43835   0.745   7.359   9.183 -0.7294 -1.8625  0.2313
  325MOL0     H43836   0.940   7.309   9.331 -0.4518 -0.8994 -1.0529
  325MOL0     H43837   1.297   7.283   9.385 -3.1383  0.6945 -0.1529
  325MOL0     H43838   1.500   7.173   9.455 -1.5071  1.7774 -1.2760
  325MOL0     H43839   1.569   6.939   9.518  2.7078  2.8668 -3.4567
  325MOL0     H43840   1.681   7.065   9.549 -0.2706 -0.8915 -1.7083
  325MOL0     H43841   1.665   6.802   9.699  1.6511 -0.7721  0.9630
  325MOL0     H43842   1.790   6.835   9.579 -0.9410  1.5718 -0.9933
  325MOL0     H43843   1.890   7.000   9.696 -0.0054  1.8052  0.5591
  325MOL0     H43844   1.768   7.003   9.834 -3.4657 -2.1079  0.0492
  325MOL0     H43845   1.973   6.892   9.896 -0.2055  2.3044 -0.5466
  325MOL0     H43846   1.956   6.771   9.769  0.0605  1.1944 -0.0971
  325MOL0     H43847   1.733   6.701   9.870  2.1910 -0.7531 -1.6674
  325MOL0     H43848   1.743   6.837   9.984  3.3692  1.3130  1.9947
  325MOL0     H43849   1.901   6.583   9.990 -0.0840 -0.1107 -0.0473
  325MOL0     H43850   1.946   6.734  10.068  1.1160 -0.8399 -1.0890
  325MOL0     H43851   1.651   6.623  10.093  1.0549  0.1331 -1.2032
  325MOL0     H43852   1.735   6.734  10.200 -4.3024 -2.3208  0.8575
  325MOL0     H43853   1.816   6.458  10.149  0.2730 -0.3996 -0.1275
  325MOL0     H43854   1.889   6.576  10.271 -2.5913  3.3197  2.8552
  325MOL0     H43855   1.330   7.085   9.836 -2.4315 -0.5664  0.1662
  325MOL0     H43856   1.129   7.211   9.777  1.8236  1.5141  2.2391
  325MOL0     H43857   0.756   7.493   9.666  0.9495 -0.6652 -0.2435
  325MOL0     H43858   0.543   7.538   9.514 -1.3145 -1.9838  0.2204
  325MOL0     H43859   2.165   7.961   9.149  0.0070  0.3472 -0.3017
  325MOL0     H43860   2.338   7.802   9.238  0.4230 -0.4124  1.2926
  325MOL0     H43861   2.292   7.386   9.495  4.0215  0.7979 -4.2646
  325MOL0     H43862   2.334   7.246   9.704  0.1353  0.4166  2.7259
  325MOL0     H43863   2.599   7.420  10.020 -2.1464 -1.5420  2.7199
  325MOL0     H43864   2.700   7.314   9.912  0.1138  0.1951 -0.8778
  325MOL0     H43865   2.698   7.242  10.149  0.7510 -0.5992  1.0276
  325MOL0     H43866   2.635   7.122  10.039  5.0264  1.7701 -0.9027
  325MOL0     H43867   2.390   7.214  10.134 -0.1541 -1.4790 -1.0741
  325MOL0     H43868   2.492   7.323  10.218  2.6524 -0.8080  1.9406
  325MOL0     H43869   2.402   7.049  10.290 -0.5032  0.2192  0.7489
  325MOL0     H43870   2.568   7.031  10.243 -1.9647 -3.2859  1.5871
  325MOL0     H43871   2.594   7.184  10.619  4.2114  0.2114 -0.2196
  325MOL0     H43872   2.555   7.558   9.877 -1.6403  1.8894  0.8648
  325MOL0     H43873   2.564   7.755   9.612  0.5245  0.6434  0.4410
  325MOL0     H43874   2.420   7.804   9.714  1.1380  1.6476 -1.1808
  325MOL0     H43875   2.581   7.751   9.784  1.5350 -0.0738 -0.9567
  326MOL0     O43876   0.780   1.210   9.619  0.6077 -0.0249 -0.6664
  326MOL0     C43877   0.745   1.095   9.597  0.2891  0.7614 -0.1425
  326MOL0     O43878   0.800   0.986   9.660 -0.3175  0.1676  0.8433
  326MOL0     C43879   0.915   1.010   9.725  0.4173  0.9663  0.0403
  326MOL0     C43880   1.040   0.968   9.675  0.0861  0.8763 -0.1175
  326MOL0     C43881   1.153   0.979   9.758  0.5097 -0.8356 -0.6858
  326MOL0     C43882   1.142   1.015   9.889  0.0237  0.0555  0.3670
  326MOL0     O43883   1.257   1.018   9.963 -0.1059  0.5777 -0.2913
  326MOL0     C43884   1.255   1.027  10.110  0.6222  0.4725 -0.3143
  326MOL0     C43885   1.391   0.971  10.159 -0.5088  0.4053 -0.5237
  326MOL0     C43886   1.368   0.910  10.300  0.2840  0.9179  0.5604
  326MOL0     C43887   1.489   0.833  10.361 -0.7782  0.4726  0.8166
  326MOL0     C43888   1.480   0.820  10.516 -0.4193 -0.4260  0.3274
  326MOL0     C43889   1.526   0.950  10.592 -0.3110 -0.6716 -0.3102
  326MOL0     C43890   1.468   0.948  10.734  0.3822  0.0219  0.0333
  326MOL0     C43891   1.458   0.808  10.790  0.5639 -0.1582 -0.0607
  326MOL0     N43892   1.446   0.806  10.942  0.6560 -0.2889  0.4844
  326MOL0     C43893   1.335   0.853  11.007  1.6731 -0.0283 -0.7049
  326MOL0     C43894   1.370   0.866  11.134 -0.3134 -0.2558  0.7310
  326MOL0     C43895   1.278   0.900  11.248 -0.2986 -0.6313 -0.5962
  326MOL0     C43896   1.344   0.909  11.379  0.3842 -0.9636 -0.0910
  326MOL0     C43897   1.386   0.781  11.442  0.0861 -0.1206  0.6801
  326MOL0     C43898   1.486   0.806  11.557  0.1027 -0.0937  0.3971
  326MOL0     O43899   1.506   0.684  11.623  0.1837  0.7800 -0.4701
  326MOL0     C43900   1.633   0.625  11.609  0.1506  0.0844 -0.6469
  326MOL0     C43901   1.730   0.649  11.704 -0.8547  0.6696 -0.5198
  326MOL0     C43902   1.860   0.584  11.678  0.0922  0.1188 -0.3042
  326MOL0     C43903   1.894   0.516  11.561 -0.2972 -0.1055 -0.3536
  326MOL0     C43904   2.035   0.476  11.532  0.6850 -0.4245  1.0552
  326MOL0     O43905   2.120   0.496  11.632 -0.2388 -0.7305 -0.4640
  326MOL0     C43906   2.252   0.476  11.618 -0.3885  0.1013 -0.1349
  326MOL0     C43907   2.335   0.525  11.517  0.9704 -0.0976  0.8326
  326MOL0     C43908   2.468   0.507  11.518 -0.5841 -0.1125  1.2810
  326MOL0     C43909   2.532   0.429  11.611  0.6836  0.1795  0.1391
  326MOL0     O43910   2.668   0.438  11.614  0.5069  0.6486  0.0309
  326MOL0     C43911   2.738   0.449  11.738 -0.2757  0.2324 -0.1530
  326MOL0     C43912   2.745   0.603  11.777 -0.5544  0.3582 -0.2598
  326MOL0     C43913   2.857   0.679  11.711 -0.0733  0.3001 -0.6001
  326MOL0     C43914   2.858   0.671  11.555  0.1059 -0.4926  0.9023
  326MOL0     C43915   2.968   0.756  11.482 -0.1617 -1.1543 -0.1257
  326MOL0     C43916   2.995   0.896  11.552 -0.8160  0.3964 -0.0132
  326MOL0     C43917   3.093   0.974  11.466  0.2075  0.1848 -0.1567
  326MOL0     C43918   3.040   1.033  11.338  0.0495 -0.0095 -0.1248
  326MOL0    Cl43919   3.173   1.126  11.274  0.6115 -0.2440  0.4188
  326MOL0     C43920   2.453   0.363  11.698  0.2733 -0.6131  0.5888
  326MOL0     C43921   2.320   0.391  11.709  0.7647  0.0773  0.5333
  326MOL0     O43922   2.053   0.424  11.424  0.2412 -0.2241 -0.7231
  326MOL0     C43923   1.788   0.499  11.477 -0.4346  0.2390 -0.3162
  326MOL0     C43924   1.661   0.551  11.496  0.3639 -0.0535 -0.1469
  326MOL0     N43925   1.510   0.827  11.141  0.2256  0.6745 -0.3842
  326MOL0     N43926   1.553   0.799  11.024 -0.3115  0.3306  0.3308
  326MOL0     C43927   1.016   1.049   9.940  0.1839  0.1644  0.1515
  326MOL0     C43928   0.904   1.043   9.861  0.6018 -0.1715  0.0799
  326MOL0     C43929   0.631   1.070   9.498  1.0036 -0.3970 -0.2040
  326MOL0     C43930   0.595   1.182   9.422  0.6319 -0.1524 -0.2819
  326MOL0     C43931   0.474   1.179   9.354  0.1002  0.1193  0.3550
  326MOL0     C43932   0.398   1.062   9.334  0.5600 -0.3917  1.0350
  326MOL0     O43933   0.286   1.068   9.252 -0.5477 -0.8411 -0.0501
  326MOL0     C43934   0.221   0.950   9.205  0.9999  0.6559  0.7042
  326MOL0     C43935   0.117   0.977   9.099  0.0957 -0.1118 -0.7167
  326MOL0     C43936  -0.001   1.050   9.159 -0.4493  0.3106  0.9189
  326MOL0     C43937  -0.131   0.972   9.162  0.2238 -0.1774  0.2066
  326MOL0     C43938  -0.113   0.832   9.210  0.3047 -0.9641 -0.2567
  326MOL0     C43939  -0.097   0.717   9.241  0.3199 -0.3785 -0.9941
  326MOL0     C43940   0.444   0.946   9.399 -0.4316 -1.1178  0.2644
  326MOL0     C43941   0.574   0.954   9.480 -0.6832  0.5379  0.1874
  326MOL0     C43942   0.630   0.824   9.531  0.3695 -0.5069 -0.7436
  326MOL0     H43943   1.049   0.926   9.575  1.7659 -2.9497  1.4189
  326MOL0     H43944   1.256   0.953   9.733  0.8533 -0.7727  0.5620
  326MOL0     H43945   1.254   1.131  10.144  2.8789  0.0483  1.2463
  326MOL0     H43946   1.172   0.965  10.146  0.1952  1.0364 -0.3136
  326MOL0     H43947   1.456   1.058  10.173  1.8292 -1.5239  1.3752
  326MOL0     H43948   1.436   0.901  10.088  2.0458  0.7296  0.6607
  326MOL0     H43949   1.286   0.837  10.295 -1.4170  2.4916  3.2234
  326MOL0     H43950   1.336   0.983  10.375 -1.2057  0.5903  0.2813
  326MOL0     H43951   1.501   0.735  10.315 -1.6147  0.7060  0.0631
  326MOL0     H43952   1.583   0.883  10.335 -2.1336  2.0412 -1.4959
  326MOL0     H43953   1.374   0.802  10.534 -1.7171  1.0374 -4.5265
  326MOL0     H43954   1.529   0.727  10.548 -1.4465 -1.0779  0.0770
  326MOL0     H43955   1.635   0.945  10.593 -0.3451 -2.8665 -1.0090
  326MOL0     H43956   1.500   1.044  10.544  3.2494 -1.1459 -3.6368
  326MOL0     H43957   1.368   0.992  10.739 -0.6029 -2.1637  0.8535
  326MOL0     H43958   1.535   1.013  10.790 -2.0062  3.6067 -0.8898
  326MOL0     H43959   1.363   0.761  10.760  0.0124  0.1677  1.1194
  326MOL0     H43960   1.542   0.743  10.763 -0.5877 -0.9114 -2.0804
  326MOL0     H43961   1.237   0.865  10.964  1.0003 -1.7234  0.2718
  326MOL0     H43962   1.234   0.996  11.222  0.6148 -0.7266 -2.6498
  326MOL0     H43963   1.204   0.821  11.262  0.4356 -1.5782 -1.8404
  326MOL0     H43964   1.432   0.974  11.372 -0.4591  0.1961 -0.3042
  326MOL0     H43965   1.273   0.953  11.449 -0.6776 -0.4917 -1.4310
  326MOL0     H43966   1.439   0.722  11.366 -1.0071  1.1673 -1.1891
  326MOL0     H43967   1.299   0.732  11.486 -0.2077  0.9206  1.3005
  326MOL0     H43968   1.439   0.869  11.633  0.5048  0.8456 -0.1266
  326MOL0     H43969   1.570   0.866  11.521  0.2382 -0.1524  0.6088
  326MOL0     H43970   1.717   0.708  11.794  0.0270 -0.0002  0.0714
  326MOL0     H43971   1.919   0.574  11.768 -1.0350  3.2109  0.9245
  326MOL0     H43972   2.285   0.588  11.444 -1.8193 -2.5354  0.4190
  326MOL0     H43973   2.530   0.569  11.454 -3.0185 -1.5989 -2.8993
  326MOL0     H43974   2.692   0.385  11.814  2.1668  0.7709  1.9204
  326MOL0     H43975   2.839   0.407  11.728 -0.6157 -0.6048 -0.1730
  326MOL0     H43976   2.646   0.642  11.751 -0.1094  0.9170 -1.1691
  326MOL0     H43977   2.765   0.627  11.882 -0.3590  0.5774 -0.3465
  326MOL0     H43978   2.838   0.783  11.737  1.6770  0.3383  0.6397
  326MOL0     H43979   2.956   0.650  11.747  0.6393  2.9400 -0.2657
  326MOL0     H43980   2.765   0.719  11.525  0.0579 -0.9811  0.2253
  326MOL0     H43981   2.871   0.571  11.513  2.0911  0.4322 -0.9108
  326MOL0     H43982   2.932   0.776  11.381  2.7764  2.7788 -0.6472
  326MOL0     H43983   3.059   0.697  11.468  0.0076 -0.5599 -1.7370
  326MOL0     H43984   2.900   0.951  11.556 -1.6165 -0.8593 -0.8519
  326MOL0     H43985   3.037   0.894  11.653 -1.8468 -0.4800  0.4300
  326MOL0     H43986   3.186   0.916  11.469  0.1751 -0.0340 -2.2457
  326MOL0     H43987   3.120   1.066  11.518 -0.1494 -0.2501  0.8329
  326MOL0     H43988   3.018   0.954  11.264 -0.8031  0.1632 -0.0743
  326MOL0     H43989   2.951   1.095  11.354  0.6329  1.1393 -1.1924
  326MOL0     H43990   2.492   0.294  11.772  3.0820  1.0337  0.7810
  326MOL0     H43991   2.255   0.362  11.791 -1.7132  1.1908 -0.9278
  326MOL0     H43992   1.802   0.434  11.391  1.5156 -2.0886  1.6170
  326MOL0     H43993   1.588   0.530  11.418 -0.8853 -2.5558  1.5842
  326MOL0     H43994   1.005   1.086  10.041 -0.6747 -0.6294  0.3657
  326MOL0     H43995   0.807   1.061   9.905  0.3835  2.6818 -1.2829
  326MOL0     H43996   0.641   1.279   9.431  0.0713  0.1043 -0.1449
  326MOL0     H43997   0.453   1.271   9.302 -0.1866 -0.4137 -0.4892
  326MOL0     H43998   0.177   0.891   9.285  0.7305 -2.6158 -1.6532
  326MOL0     H43999   0.295   0.888   9.153  2.0519  1.6346  0.9698
  326MOL0     H44000   0.089   0.888   9.043 -1.0927  0.6774 -1.4159
  326MOL0     H44001   0.170   1.038   9.026  0.2070  0.5816 -0.0763
  326MOL0     H44002  -0.018   1.149   9.116  0.3533  0.0494 -0.0511
  326MOL0     H44003   0.020   1.079   9.262  0.8760  2.7362  0.0667
  326MOL0     H44004  -0.209   1.019   9.223  0.7111  1.5944 -0.4742
  326MOL0     H44005  -0.166   0.960   9.059  1.3855 -2.3643 -0.0005
  326MOL0     H44006  -0.066   0.615   9.255 -0.1687 -0.3216  0.5813
  326MOL0     H44007   0.394   0.850   9.395  0.6686 -1.6811 -0.5231
  326MOL0     H44008   0.608   0.802   9.636 -0.0802 -0.4078 -0.8129
  326MOL0     H44009   0.575   0.749   9.474  2.3545 -1.6114 -1.2954
  326MOL0     H44010   0.739   0.823   9.529  0.8399  3.7673  3.4650
  327MOL0     O44011   3.868   8.349  10.469 -0.2295 -1.1970 -0.8649
  327MOL0     C44012   3.825   8.256  10.404  0.1326 -1.0845 -0.1719
  327MOL0     O44013   3.710   8.182  10.428  0.6503  0.1409 -0.1263
  327MOL0     C44014   3.646   8.188  10.552 -0.2634 -0.1545 -0.0265
  327MOL0     C44015   3.722   8.171  10.674 -0.2232 -0.4267 -0.1167
  327MOL0     C44016   3.662   8.168  10.799 -0.2965 -0.2704  0.6414
  327MOL0     C44017   3.525   8.190  10.809  0.4332  0.2002  1.0063
  327MOL0     O44018   3.473   8.198  10.927 -0.2464 -0.1444  0.2230
  327MOL0     C44019   3.327   8.200  10.942 -0.7064 -0.2589 -0.3235
  327MOL0     C44020   3.275   8.190  11.087 -0.1639 -1.2343  0.1969
  327MOL0     C44021   3.301   8.321  11.167 -0.5314  0.8754  0.2038
  327MOL0     C44022   3.450   8.363  11.168  0.4748 -0.3783  0.1896
  327MOL0     C44023   3.465   8.475  11.274 -0.3906  1.1885  0.0222
  327MOL0     C44024   3.491   8.396  11.404  0.0507  0.5184  0.1214
  327MOL0     C44025   3.465   8.484  11.525  0.0865 -0.1400  0.3270
  327MOL0     C44026   3.316   8.523  11.555 -0.4378 -0.8767  0.0149
  327MOL0     N44027   3.294   8.584  11.682  0.2950  0.1118 -1.0819
  327MOL0     C44028   3.363   8.687  11.741  1.1248  0.1455  0.3338
  327MOL0     C44029   3.329   8.683  11.875 -1.2358 -0.1392  0.9762
  327MOL0     C44030   3.391   8.770  11.984  1.0919 -0.2718 -0.2007
  327MOL0     C44031   3.268   8.818  12.070 -0.1058  0.4182 -0.2833
  327MOL0     C44032   3.290   8.912  12.192  0.1165  0.1522 -0.1073
  327MOL0     C44033   3.375   9.035  12.156 -0.2764 -0.1893  0.2540
  327MOL0     O44034   3.375   9.113  12.276 -0.4820 -0.6211 -0.7600
  327MOL0     C44035   3.261   9.185  12.302 -0.2320  0.6416 -0.7301
  327MOL0     C44036   3.149   9.214  12.208  0.4984 -0.4111 -0.2743
  327MOL0     C44037   3.047   9.311  12.255 -0.7283 -0.1850  0.1370
  327MOL0     C44038   3.065   9.371  12.382  0.2319 -0.4621 -0.1777
  327MOL0     C44039   2.977   9.485  12.437 -0.8162  0.5623 -0.9052
  327MOL0     O44040   2.874   9.519  12.353 -0.6666 -0.2744 -0.1781
  327MOL0     C44041   2.796   9.626  12.397 -0.7377  0.1177  0.1701
  327MOL0     C44042   2.854   9.753  12.407  0.0498 -0.2569  0.1610
  327MOL0     C44043   2.776   9.866  12.438  0.4452 -0.0390 -0.5756
  327MOL0     C44044   2.640   9.854  12.461  0.0012  0.4698 -1.1056
  327MOL0     O44045   2.549   9.953  12.496  0.2460 -0.0935 -0.3951
  327MOL0     C44046   2.612  10.082  12.512  0.0877  0.6669  0.9409
  327MOL0     C44047   2.501  10.182  12.557  0.0426 -0.2205 -0.4612
  327MOL0     C44048   2.361  10.151  12.498  0.3316  0.0429  0.0469
  327MOL0     C44049   2.239  10.208  12.565  0.4644 -0.8827  0.6300
  327MOL0     C44050   2.110  10.144  12.531  0.0052  0.0656  0.8375
  327MOL0     C44051   1.994  10.239  12.515 -0.2948 -0.8746  0.6797
  327MOL0     C44052   1.869  10.159  12.507 -0.4276  1.2395 -0.2766
  327MOL0     C44053   1.744  10.239  12.474 -0.6524 -0.5743  0.2033
  327MOL0    Cl44054   1.724  10.345  12.617  0.7006 -0.1336  0.2866
  327MOL0     C44055   2.581   9.727  12.466  0.5095 -0.7634 -0.4504
  327MOL0     C44056   2.664   9.615  12.435  1.4189 -0.3727  0.6803
  327MOL0     O44057   3.021   9.543  12.536  0.1307 -0.6822 -0.3499
  327MOL0     C44058   3.170   9.325  12.468  0.1935 -0.2844 -0.2874
  327MOL0     C44059   3.265   9.245  12.426 -0.3339  0.0433  0.0989
  327MOL0     N44060   3.233   8.583  11.891  0.2445 -0.2710  0.3209
  327MOL0     N44061   3.212   8.535  11.777 -0.9115  0.4152  0.6616
  327MOL0     C44062   3.445   8.209  10.683 -1.1378  0.0174 -0.4660
  327MOL0     C44063   3.509   8.211  10.561 -0.6709 -0.0536 -0.1714
  327MOL0     C44064   3.909   8.212  10.286  0.3282  0.7324  0.3325
  327MOL0     C44065   3.835   8.145  10.185 -0.5162  0.1087 -0.2000
  327MOL0     C44066   3.910   8.081  10.082 -1.0268 -0.3133  0.6338
  327MOL0     C44067   4.044   8.115  10.059 -1.0205 -0.3236 -0.2049
  327MOL0     O44068   4.106   8.040   9.956 -0.2364  0.1168 -0.3289
  327MOL0     C44069   4.247   8.070   9.922 -0.3456  0.3195  0.1707
  327MOL0     C44070   4.263   8.208   9.852  1.1445  0.3642  0.4459
  327MOL0     C44071   4.410   8.244   9.862  0.4192 -0.3422  0.3340
  327MOL0     C44072   4.425   8.394   9.825  0.0362  0.1743 -0.3054
  327MOL0     C44073   4.422   8.483   9.941 -0.3840  0.4103 -0.3928
  327MOL0     C44074   4.441   8.573  10.027 -0.0585 -1.0986  0.2656
  327MOL0     C44075   4.108   8.204  10.151 -0.3389 -0.6169  0.7335
  327MOL0     C44076   4.042   8.250  10.263  0.1625 -0.0205  0.2103
  327MOL0     C44077   4.128   8.324  10.367  0.2126  0.2613  0.0919
  327MOL0     H44078   3.826   8.140  10.675 -0.4716 -1.2856  0.3992
  327MOL0     H44079   3.730   8.135  10.877  0.6778  2.8171  1.2140
  327MOL0     H44080   3.292   8.287  10.886 -2.8046 -0.4823  0.5274
  327MOL0     H44081   3.283   8.109  10.900 -0.9856 -0.9137  1.3064
  327MOL0     H44082   3.328   8.111  11.142  1.8519 -0.6671 -0.8423
  327MOL0     H44083   3.168   8.171  11.078 -0.7147  0.8024  1.6171
  327MOL0     H44084   3.255   8.298  11.264 -2.1711 -1.8372 -1.0844
  327MOL0     H44085   3.238   8.401  11.129 -3.4722 -0.0807  2.6418
  327MOL0     H44086   3.512   8.276  11.190  3.7153  1.5353 -0.7859
  327MOL0     H44087   3.467   8.398  11.066  0.4053  2.2837  1.0264
  327MOL0     H44088   3.549   8.545  11.269 -0.4319  1.3467  1.2810
  327MOL0     H44089   3.378   8.542  11.284 -0.3801  0.9416  2.2330
  327MOL0     H44090   3.433   8.304  11.405  4.5426 -2.6825 -0.6746
  327MOL0     H44091   3.592   8.354  11.414 -0.0882  0.3807  1.0206
  327MOL0     H44092   3.524   8.576  11.515  2.3714 -1.4723  0.8849
  327MOL0     H44093   3.488   8.428  11.616 -2.9260  2.6837  3.1049
  327MOL0     H44094   3.274   8.589  11.478  1.3660 -0.6131 -0.8052
  327MOL0     H44095   3.260   8.430  11.541 -0.9759 -0.2590 -2.2689
  327MOL0     H44096   3.428   8.760  11.693  2.6370 -0.7327  0.9538
  327MOL0     H44097   3.449   8.703  12.049  3.7482  2.7437  0.8201
  327MOL0     H44098   3.442   8.860  11.949 -2.0382  1.4096 -0.7725
  327MOL0     H44099   3.212   8.886  12.005  1.2907  1.5289 -0.3868
  327MOL0     H44100   3.208   8.731  12.097 -3.1270  2.3651 -0.1663
  327MOL0     H44101   3.344   8.860  12.272  1.1670  2.1761  0.5799
  327MOL0     H44102   3.191   8.949  12.222  1.2674  1.6878  2.1125
  327MOL0     H44103   3.329   9.079  12.067 -0.9563  1.3395  1.3151
  327MOL0     H44104   3.475   8.993  12.146  0.6597  2.1888 -0.9896
  327MOL0     H44105   3.139   9.170  12.110 -1.9027  1.0134 -0.7487
  327MOL0     H44106   2.964   9.340  12.192 -1.6580 -3.3311 -0.2452
  327MOL0     H44107   2.960   9.770  12.391 -0.5073  0.7219 -3.6050
  327MOL0     H44108   2.822   9.964  12.439 -0.3733  0.3412 -0.0585
  327MOL0     H44109   2.694  10.083  12.584 -1.7024  0.0765  3.1183
  327MOL0     H44110   2.657  10.119  12.419 -0.5919 -2.2536 -0.6795
  327MOL0     H44111   2.491  10.177  12.666  2.3350 -0.5910 -0.2173
  327MOL0     H44112   2.536  10.278  12.520 -4.3606  2.9291  2.4319
  327MOL0     H44113   2.377  10.159  12.390  3.4898  0.2322  0.4364
  327MOL0     H44114   2.349  10.044  12.518  0.5897 -0.0299 -0.1881
  327MOL0     H44115   2.234  10.308  12.522 -0.0185 -2.2507 -2.7884
  327MOL0     H44116   2.250  10.214  12.674 -1.1746  1.2185  0.7466
  327MOL0     H44117   2.084  10.066  12.602 -1.0051 -0.5579 -0.1791
  327MOL0     H44118   2.123  10.094  12.434  0.0988  0.2710  0.7440
  327MOL0     H44119   1.994  10.314  12.594 -1.5223  2.1871 -1.9917
  327MOL0     H44120   2.011  10.294  12.422  1.0017 -1.4707  0.5502
  327MOL0     H44121   1.855  10.113  12.605 -0.8831 -1.9685 -1.7031
  327MOL0     H44122   1.889  10.077  12.437  2.7675 -0.2702  2.1633
  327MOL0     H44123   1.779  10.298  12.389  0.1545 -3.2029 -1.4266
  327MOL0     H44124   1.656  10.180  12.448 -2.1775  1.7202 -0.0683
  327MOL0     H44125   2.481   9.705  12.501  0.6062 -0.7058 -0.1356
  327MOL0     H44126   2.627   9.513  12.429 -2.0410  0.7872 -0.1929
  327MOL0     H44127   3.189   9.372  12.564 -2.9340  2.6672 -0.9461
  327MOL0     H44128   3.347   9.233  12.496  1.8266  3.5621 -1.5613
  327MOL0     H44129   3.338   8.229  10.684 -1.4561 -1.2674 -2.4608
  327MOL0     H44130   3.455   8.220  10.467 -0.7204 -0.1158 -0.1480
  327MOL0     H44131   3.728   8.133  10.185 -0.6632  1.2928 -0.5517
  327MOL0     H44132   3.871   8.007  10.013  0.5871 -0.9941  0.4061
  327MOL0     H44133   4.283   7.996   9.849  2.8322  0.5185  1.3447
  327MOL0     H44134   4.319   8.065  10.004 -2.1689 -2.7438  1.8062
  327MOL0     H44135   4.199   8.284   9.899  2.1200  0.8085  1.0918
  327MOL0     H44136   4.230   8.210   9.748  1.1150  0.6126  0.4597
  327MOL0     H44137   4.448   8.176   9.786 -1.4814 -0.9866 -0.0864
  327MOL0     H44138   4.443   8.222   9.964 -0.3033 -1.0708  0.4221
  327MOL0     H44139   4.526   8.404   9.784 -0.1000 -1.5438 -1.1521
  327MOL0     H44140   4.350   8.427   9.753 -2.1104 -3.4659  0.0019
  327MOL0     H44141   4.459   8.648  10.102  1.0028 -2.3276  1.2933
  327MOL0     H44142   4.216   8.206  10.139 -0.4705 -0.5402 -0.5612
  327MOL0     H44143   4.092   8.317  10.470  1.1267 -2.6686  0.2990
  327MOL0     H44144   4.232   8.292  10.363 -0.4870 -2.6365  1.8871
  327MOL0     H44145   4.120   8.431  10.345  1.1756 -0.1731 -2.7995
  328MOL0     O44146  10.680   1.233   0.993 -0.5223 -0.6711 -0.3695
  328MOL0     C44147  10.612   1.198   0.902  1.0881 -0.1248  0.7481
  328MOL0     O44148  10.483   1.158   0.905  0.0860  0.0948 -0.4511
  328MOL0     C44149  10.425   1.135   1.020  0.1923  0.2491 -1.4578
  328MOL0     C44150  10.472   1.061   1.130  0.1509 -0.4012 -0.8365
  328MOL0     C44151  10.408   1.041   1.249 -0.4096 -0.2694 -0.5626
  328MOL0     C44152  10.289   1.105   1.261 -0.7798 -0.3517  0.0535
  328MOL0     O44153  10.224   1.101   1.382 -0.5411 -0.6372  0.5077
  328MOL0     C44154  10.169   0.976   1.410  1.4878  0.5763  0.1421
  328MOL0     C44155  10.037   0.956   1.332 -1.0178  0.5455  1.0030
  328MOL0     C44156   9.929   1.061   1.369  0.4900 -0.5561 -0.0168
  328MOL0     C44157   9.815   1.061   1.258 -0.3117 -0.2882  0.5724
  328MOL0     C44158   9.702   1.164   1.268 -0.7223 -0.2380  0.3101
  328MOL0     C44159   9.610   1.146   1.389  0.1929  0.3648 -0.3098
  328MOL0     C44160   9.506   1.261   1.397  0.1617  0.2935  1.4512
  328MOL0     C44161   9.442   1.262   1.527 -0.4428  0.5699 -0.1473
  328MOL0     N44162   9.343   1.151   1.545 -0.4464 -0.6166 -0.5743
  328MOL0     C44163   9.222   1.148   1.483  1.0203  0.2660  0.4218
  328MOL0     C44164   9.153   1.048   1.539 -0.1729 -0.4589  0.1064
  328MOL0     C44165   9.022   0.990   1.498 -0.5104  0.4892 -0.0901
  328MOL0     C44166   9.041   0.845   1.454 -0.4013 -0.1658  0.0016
  328MOL0     C44167   8.908   0.786   1.423  0.9683  0.3492 -0.1041
  328MOL0     C44168   8.940   0.663   1.333  0.7801 -0.6447  0.1121
  328MOL0     O44169   9.055   0.586   1.383  0.5027  0.1002 -0.0090
  328MOL0     C44170   9.044   0.506   1.495 -0.4719 -0.1546 -0.7945
  328MOL0     C44171   8.949   0.407   1.500  0.0750  0.0269 -0.8533
  328MOL0     C44172   8.935   0.333   1.624 -0.4839  0.2690  0.0650
  328MOL0     C44173   9.021   0.358   1.739  0.9393  0.1587  0.1767
  328MOL0     C44174   8.996   0.289   1.864  0.1987 -0.6391 -0.1541
  328MOL0     O44175   9.086   0.315   1.966  0.2042 -0.3275 -0.3379
  328MOL0     C44176   9.050   0.269   2.081 -0.4636 -0.0889  0.0247
  328MOL0     C44177   9.115   0.167   2.154  0.0553 -0.1972  0.8222
  328MOL0     C44178   9.090   0.155   2.289  0.0462 -0.1457  0.1529
  328MOL0     C44179   8.984   0.216   2.359 -1.0094 -0.6311 -0.3213
  328MOL0     O44180   8.934   0.183   2.482 -0.2334  0.0469 -0.1991
  328MOL0     C44181   8.948   0.047   2.536 -0.6148  0.4456  0.5536
  328MOL0     C44182   8.875   0.026   2.657 -0.0558  0.4242  0.6669
  328MOL0     C44183   8.861  -0.128   2.685 -0.8073 -0.7989 -0.6302
  328MOL0     C44184   8.776  -0.136   2.812  0.1087  0.3000  0.7595
  328MOL0     C44185   8.782  -0.278   2.872 -0.4735 -0.1068  0.1640
  328MOL0     C44186   8.689  -0.376   2.799 -0.4166  0.0296 -0.0205
  328MOL0     C44187   8.705  -0.516   2.863  0.4666  0.5594 -0.0146
  328MOL0     C44188   8.621  -0.630   2.791  0.3636  0.4489  0.0161
  328MOL0    Cl44189   8.667  -0.796   2.841 -0.1921  0.0146 -0.1640
  328MOL0     C44190   8.931   0.325   2.289  0.3598 -0.2294 -0.8486
  328MOL0     C44191   8.965   0.354   2.152  0.3224  0.2055  0.1344
  328MOL0     O44192   8.890   0.216   1.869  0.0272  0.6949 -0.2088
  328MOL0     C44193   9.126   0.446   1.725 -0.5032  0.6882  0.4978
  328MOL0     C44194   9.130   0.530   1.613  0.1212 -0.1884  0.6869
  328MOL0     N44195   9.237   0.996   1.637 -0.2695  0.0369  0.8635
  328MOL0     N44196   9.340   1.064   1.646 -0.0450 -0.4717  0.4126
  328MOL0     C44197  10.226   1.172   1.155 -0.5824 -0.0649 -0.7792
  328MOL0     C44198  10.304   1.192   1.040 -0.3075 -0.3277  0.2222
  328MOL0     C44199  10.683   1.203   0.761 -0.8465 -0.7307 -0.4092
  328MOL0     C44200  10.824   1.207   0.755 -0.0209  0.4362 -0.1238
  328MOL0     C44201  10.891   1.198   0.636 -0.6706  0.2246 -0.8816
  328MOL0     C44202  10.819   1.174   0.523  0.6030 -0.5664 -0.4666
  328MOL0     O44203  10.889   1.158   0.406  0.7248  0.5758  0.2214
  328MOL0     C44204  10.855   1.048   0.314  0.0833  0.4761 -0.6824
  328MOL0     C44205  10.987   0.989   0.270 -0.6041  0.3725 -0.5805
  328MOL0     C44206  11.092   0.983   0.380 -0.2055  0.0441 -0.4984
  328MOL0     C44207  11.203   0.889   0.345  0.1565  0.1727  0.5220
  328MOL0     C44208  11.191   0.747   0.363 -0.8583 -0.3754  0.0752
  328MOL0     C44209  11.181   0.621   0.367 -0.7494  0.1039 -0.3675
  328MOL0     C44210  10.680   1.177   0.522 -1.2265 -0.2519  0.0185
  328MOL0     C44211  10.611   1.200   0.637 -0.0127 -0.5654 -0.3234
  328MOL0     C44212  10.464   1.218   0.627  0.2735 -0.0783  0.9154
  328MOL0     H44213  10.566   1.008   1.117  0.3399 -1.4783  3.4321
  328MOL0     H44214  10.454   0.986   1.331 -3.0242  0.9404  1.9105
  328MOL0     H44215  10.222   0.886   1.376 -1.2927 -0.8937 -0.6762
  328MOL0     H44216  10.154   0.969   1.518 -2.2611  4.0202  0.0636
  328MOL0     H44217  10.009   0.852   1.350  0.0402  0.0611 -0.0083
  328MOL0     H44218  10.059   0.961   1.225 -3.0534 -1.4198  0.4246
  328MOL0     H44219   9.976   1.159   1.381  0.0213 -0.3991  0.5805
  328MOL0     H44220   9.893   1.037   1.469 -1.1129 -2.3397 -0.9560
  328MOL0     H44221   9.873   1.079   1.167  0.1330  0.1945  0.9383
  328MOL0     H44222   9.763   0.965   1.267 -2.0622  0.1270 -3.2787
  328MOL0     H44223   9.744   1.264   1.282  1.0202 -1.0342  1.0895
  328MOL0     H44224   9.648   1.150   1.173  1.4775  1.1730 -1.2668
  328MOL0     H44225   9.552   1.053   1.390 -0.3677  0.6883  1.5557
  328MOL0     H44226   9.665   1.151   1.484  1.2466 -3.5949 -0.5591
  328MOL0     H44227   9.445   1.254   1.307  1.4859 -0.6344  0.5794
  328MOL0     H44228   9.560   1.355   1.380 -1.2715  0.7316 -1.2926
  328MOL0     H44229   9.521   1.261   1.603 -0.3793  1.1351 -0.2057
  328MOL0     H44230   9.397   1.360   1.546  1.2525  1.3142  0.1961
  328MOL0     H44231   9.197   1.197   1.389  3.7463 -0.4862 -0.7897
  328MOL0     H44232   8.955   0.979   1.584  1.6880  0.7564  1.7731
  328MOL0     H44233   8.965   1.047   1.424 -2.5217  0.9265  1.6963
  328MOL0     H44234   9.111   0.831   1.371  2.7999 -1.5007  2.7314
  328MOL0     H44235   9.090   0.806   1.543  0.6711  0.6202 -0.2261
  328MOL0     H44236   8.846   0.861   1.373 -0.4294  0.9331  2.3474
  328MOL0     H44237   8.867   0.747   1.517  1.7061  4.4288  2.1600
  328MOL0     H44238   8.963   0.684   1.228 -0.9686 -1.9715 -0.5761
  328MOL0     H44239   8.848   0.604   1.340  1.4544 -1.7811 -0.3224
  328MOL0     H44240   8.888   0.385   1.412 -0.1915  2.5217 -1.3533
  328MOL0     H44241   8.856   0.259   1.632 -0.6259  0.3006 -1.0175
  328MOL0     H44242   9.194   0.106   2.111 -0.1960  1.0898 -1.6637
  328MOL0     H44243   9.148   0.082   2.344  1.7352 -0.2633 -1.6658
  328MOL0     H44244   8.916  -0.012   2.450 -1.3351  3.3963 -1.3800
  328MOL0     H44245   9.053   0.030   2.564 -1.0090 -1.7965  0.7793
  328MOL0     H44246   8.922   0.080   2.740  1.1478 -0.6704  0.7367
  328MOL0     H44247   8.779   0.077   2.645 -0.4768  1.2245  5.4976
  328MOL0     H44248   8.815  -0.181   2.601  2.6031 -3.9737 -0.7898
  328MOL0     H44249   8.962  -0.166   2.701 -0.3035  0.1523 -1.4949
  328MOL0     H44250   8.673  -0.119   2.782  0.6755  1.1851 -0.8209
  328MOL0     H44251   8.808  -0.068   2.891 -1.9220  1.1326  0.9179
  328MOL0     H44252   8.769  -0.274   2.981 -1.9164 -1.5718  0.0837
  328MOL0     H44253   8.884  -0.318   2.866 -0.0530  0.7197  1.4024
  328MOL0     H44254   8.587  -0.339   2.797  0.4411  2.6332 -2.1466
  328MOL0     H44255   8.735  -0.380   2.700 -0.4176 -0.7057  0.0038
  328MOL0     H44256   8.674  -0.523   2.968 -2.0181 -2.1722 -0.7902
  328MOL0     H44257   8.808  -0.550   2.845 -0.1328 -0.1102 -2.4519
  328MOL0     H44258   8.512  -0.625   2.793  0.3083  2.4420 -2.5181
  328MOL0     H44259   8.636  -0.635   2.683  0.3023  1.0427 -0.0245
  328MOL0     H44260   8.859   0.395   2.331  1.0083  1.5778 -2.5369
  328MOL0     H44261   8.940   0.446   2.099  3.2344  0.2690 -1.3446
  328MOL0     H44262   9.187   0.484   1.807 -0.4474 -1.0334  1.3093
  328MOL0     H44263   9.202   0.611   1.605  1.5160 -1.3771  0.7089
  328MOL0     H44264  10.129   1.220   1.162  0.4888  2.4147 -1.7850
  328MOL0     H44265  10.276   1.253   0.955  1.2012  1.0138  0.6299
  328MOL0     H44266  10.890   1.209   0.842  1.5041  0.5963 -1.2338
  328MOL0     H44267  10.996   1.206   0.608 -0.8408 -2.2615 -2.6105
  328MOL0     H44268  10.796   1.080   0.227  0.3872 -0.2028 -1.1478
  328MOL0     H44269  10.802   0.968   0.367  0.7474 -0.1861 -1.0036
  328MOL0     H44270  11.018   1.059   0.191  0.4806 -2.1573 -2.5454
  328MOL0     H44271  10.966   0.886   0.241 -2.7583 -0.2346  2.6567
  328MOL0     H44272  11.062   0.961   0.483 -2.5731  0.3574 -1.0760
  328MOL0     H44273  11.143   1.079   0.389 -0.6326  0.5185 -2.6771
  328MOL0     H44274  11.236   0.907   0.242  1.0187  0.7035  0.8747
  328MOL0     H44275  11.284   0.916   0.414 -0.4693 -0.4447  1.5130
  328MOL0     H44276  11.175   0.515   0.380 -3.1294 -0.5760 -5.0508
  328MOL0     H44277  10.629   1.167   0.426 -0.6925 -0.3736 -0.2533
  328MOL0     H44278  10.415   1.215   0.529  0.9342 -2.4216  0.6012
  328MOL0     H44279  10.416   1.125   0.659 -0.2443 -0.7079 -1.4564
  328MOL0     H44280  10.440   1.311   0.679 -1.2595  1.6776 -2.6309
  329MOL0     O44281   6.863   4.711   5.808  0.5779  0.6380 -0.4100
  329MOL0     C44282   6.834   4.694   5.923  0.6820 -0.3074 -0.2431
  329MOL0     O44283   6.773   4.579   5.978  0.4015 -0.5674 -0.1856
  329MOL0     C44284   6.738   4.478   5.889  0.8136 -0.3924  0.6713
  329MOL0     C44285   6.778   4.355   5.922  0.9542  0.2960  0.6613
  329MOL0     C44286   6.752   4.249   5.839 -0.6946  0.4064  0.3586
  329MOL0     C44287   6.680   4.263   5.717 -0.0899  0.5615  0.9500
  329MOL0     O44288   6.669   4.150   5.646  0.0840  0.8603  1.1093
  329MOL0     C44289   6.584   4.137   5.526 -0.3852 -0.1016  1.0249
  329MOL0     C44290   6.591   3.992   5.466  0.7210  0.0210 -0.0227
  329MOL0     C44291   6.728   3.950   5.407 -0.4537  0.2960  0.7990
  329MOL0     C44292   6.716   3.820   5.333  0.7386  0.5818 -0.6398
  329MOL0     C44293   6.846   3.745   5.310  1.1444 -0.0377 -0.3337
  329MOL0     C44294   6.952   3.834   5.244  0.4100 -0.5338 -0.7192
  329MOL0     C44295   6.914   3.891   5.108  0.0410 -0.1761  0.1951
  329MOL0     C44296   7.026   3.962   5.049 -1.3462 -0.7197  1.1227
  329MOL0     N44297   6.994   4.015   4.912  0.4469  0.1563  0.2463
  329MOL0     C44298   6.968   4.144   4.863 -0.1739 -0.1759  0.7949
  329MOL0     C44299   6.954   4.131   4.732  0.2972 -0.3595 -0.0425
  329MOL0     C44300   6.949   4.236   4.629 -0.4182 -0.1492  0.0235
  329MOL0     C44301   7.088   4.292   4.604  0.3137 -0.7713 -0.2692
  329MOL0     C44302   7.175   4.211   4.508 -0.5829  0.9170 -0.6188
  329MOL0     C44303   7.323   4.267   4.505 -0.3849  0.9811  0.5917
  329MOL0     O44304   7.402   4.253   4.626 -0.3035  0.1370 -0.5522
  329MOL0     C44305   7.441   4.122   4.646  0.9050 -0.7960  0.0780
  329MOL0     C44306   7.369   4.025   4.715 -0.2571  0.0410  1.0874
  329MOL0     C44307   7.423   3.893   4.724 -0.8576 -0.8641  0.4056
  329MOL0     C44308   7.555   3.862   4.682  0.6858  0.9307 -0.0515
  329MOL0     C44309   7.617   3.730   4.668  0.6598  0.3135 -0.5499
  329MOL0     O44310   7.536   3.630   4.719  0.1780 -0.8697 -0.9816
  329MOL0     C44311   7.550   3.506   4.676 -0.2500  0.5597 -0.4178
  329MOL0     C44312   7.502   3.470   4.551  0.7253 -0.0802 -0.1244
  329MOL0     C44313   7.497   3.345   4.507 -1.2613  0.4012 -0.2599
  329MOL0     C44314   7.542   3.239   4.592 -0.1070 -1.4856 -0.3155
  329MOL0     O44315   7.534   3.105   4.550  0.0273 -1.0024 -0.3416
  329MOL0     C44316   7.398   3.056   4.520 -0.3318  0.2372  0.0838
  329MOL0     C44317   7.391   2.910   4.559 -0.1209 -1.1087 -0.0370
  329MOL0     C44318   7.492   2.819   4.498  0.1129 -0.3683 -0.1305
  329MOL0     C44319   7.499   2.670   4.551 -0.5577  0.2166 -0.1524
  329MOL0     C44320   7.626   2.595   4.506 -0.8628 -1.0085  0.3904
  329MOL0     C44321   7.626   2.454   4.577 -0.1743 -0.9029  0.1221
  329MOL0     C44322   7.761   2.384   4.534  0.5262  0.3126  0.0265
  329MOL0     C44323   7.753   2.240   4.585 -0.9316 -1.1407 -0.1303
  329MOL0    Cl44324   7.892   2.149   4.507 -0.1992 -0.3943 -0.1961
  329MOL0     C44325   7.596   3.270   4.718 -0.3573 -0.1083 -0.4621
  329MOL0     C44326   7.592   3.402   4.767 -0.7820 -0.0412 -0.3387
  329MOL0     O44327   7.721   3.711   4.610 -0.3390 -0.2713 -0.1896
  329MOL0     C44328   7.627   3.963   4.620  0.4455 -0.4828 -0.2281
  329MOL0     C44329   7.566   4.097   4.604  0.6144 -0.2734  0.5394
  329MOL0     N44330   6.961   3.998   4.694  0.1683  1.0108  0.2286
  329MOL0     N44331   6.970   3.931   4.807  0.0652  0.6124  0.3493
  329MOL0     C44332   6.635   4.392   5.687 -0.0466  0.6180 -0.4306
  329MOL0     C44333   6.660   4.503   5.773 -0.3890  0.3419 -0.7161
  329MOL0     C44334   6.888   4.790   6.023  0.6582  0.0858  0.0510
  329MOL0     C44335   6.959   4.741   6.131  0.6148 -0.2692  0.2798
  329MOL0     C44336   7.001   4.829   6.232  0.3310  1.4155 -0.1603
  329MOL0     C44337   6.981   4.962   6.219  1.0861  0.6538 -0.5663
  329MOL0     O44338   7.021   5.067   6.296  0.4472  0.5396  0.3056
  329MOL0     C44339   7.076   5.054   6.437  0.5893  0.5087  1.1267
  329MOL0     C44340   7.215   5.114   6.431  0.0775  0.3682 -0.8556
  329MOL0     C44341   7.289   5.098   6.568 -0.6682 -0.0607  0.5920
  329MOL0     C44342   7.401   5.192   6.576 -0.8828  0.2273 -0.5415
  329MOL0     C44343   7.536   5.134   6.538  0.0949  0.1339 -0.3187
  329MOL0     C44344   7.647   5.090   6.521  0.1343  0.5309  0.1111
  329MOL0     C44345   6.928   5.009   6.100  0.0451  1.2299  0.3938
  329MOL0     C44346   6.881   4.928   5.998  0.1607  0.5153 -0.9534
  329MOL0     C44347   6.815   4.988   5.885  0.1309 -0.2928  0.3847
  329MOL0     H44348   6.830   4.331   6.015 -0.6121  3.1131  2.4122
  329MOL0     H44349   6.778   4.149   5.871 -0.6863  0.6049  0.9752
  329MOL0     H44350   6.487   4.170   5.563 -0.4312  0.2151  0.6355
  329MOL0     H44351   6.623   4.198   5.443 -0.2085  1.0815  1.9508
  329MOL0     H44352   6.507   3.976   5.398 -1.0821  0.4448  1.9851
  329MOL0     H44353   6.574   3.922   5.548  0.0793  1.5151  1.1678
  329MOL0     H44354   6.798   3.941   5.491  0.8481  2.0864 -0.0186
  329MOL0     H44355   6.754   4.025   5.331  2.9222 -0.0250  1.4679
  329MOL0     H44356   6.663   3.745   5.391  0.7645 -1.1864 -2.7856
  329MOL0     H44357   6.658   3.827   5.240  1.3750 -0.3810 -1.1214
  329MOL0     H44358   6.883   3.721   5.410 -0.0775 -0.6519 -0.0062
  329MOL0     H44359   6.829   3.654   5.251 -0.7383 -0.8255  1.3171
  329MOL0     H44360   6.975   3.925   5.300 -1.4328  2.2955 -4.1418
  329MOL0     H44361   7.038   3.766   5.239 -2.5785 -4.9680  1.3685
  329MOL0     H44362   6.831   3.960   5.127  2.3241  2.6911  0.3801
  329MOL0     H44363   6.886   3.811   5.040 -2.4479  0.4336  0.3813
  329MOL0     H44364   7.054   4.045   5.114  4.3441 -1.6592  0.3878
  329MOL0     H44365   7.113   3.897   5.039 -1.7191 -1.1251  0.3326
  329MOL0     H44366   6.959   4.238   4.917  1.3652  1.2932 -1.3681
  329MOL0     H44367   6.902   4.203   4.536  1.0817 -3.4875  0.3227
  329MOL0     H44368   6.892   4.321   4.668  0.8561 -0.2485  2.2377
  329MOL0     H44369   7.092   4.390   4.555  1.8539 -0.2791  0.7579
  329MOL0     H44370   7.136   4.305   4.701 -4.5578 -0.3199  2.4374
  329MOL0     H44371   7.128   4.211   4.410 -1.9363  2.0186 -0.0057
  329MOL0     H44372   7.175   4.107   4.545 -0.2920  1.0529 -0.2191
  329MOL0     H44373   7.319   4.366   4.460 -3.2473 -0.4524 -2.9345
  329MOL0     H44374   7.369   4.206   4.426 -1.1732  1.9907 -0.7006
  329MOL0     H44375   7.271   4.057   4.747  0.6232  0.9923  2.9863
  329MOL0     H44376   7.362   3.814   4.766  0.5902 -0.7846  2.8344
  329MOL0     H44377   7.465   3.542   4.479 -1.3755 -0.6053  0.3706
  329MOL0     H44378   7.443   3.328   4.415 -3.4313  3.1043  0.3765
  329MOL0     H44379   7.319   3.101   4.581  0.0508  0.5565  0.3452
  329MOL0     H44380   7.380   3.073   4.413  0.7433  0.0114 -0.1405
  329MOL0     H44381   7.408   2.915   4.667  0.5501 -0.1083 -0.1741
  329MOL0     H44382   7.297   2.859   4.537 -0.7992 -1.9998  4.1295
  329MOL0     H44383   7.482   2.829   4.389  2.9067 -0.5907 -0.4861
  329MOL0     H44384   7.592   2.854   4.526 -1.0582  1.5900  1.9113
  329MOL0     H44385   7.422   2.603   4.513  0.3943 -0.7483 -0.4387
  329MOL0     H44386   7.502   2.660   4.660 -2.1656 -2.6564 -0.2840
  329MOL0     H44387   7.720   2.642   4.535 -0.1977 -1.8998 -0.2812
  329MOL0     H44388   7.636   2.583   4.398 -0.4577  0.1176  0.2844
  329MOL0     H44389   7.611   2.466   4.685 -1.1994  3.4990 -0.3188
  329MOL0     H44390   7.538   2.401   4.538 -1.4718  0.0001  1.6825
  329MOL0     H44391   7.854   2.428   4.571  0.3490  0.1056  0.7314
  329MOL0     H44392   7.763   2.395   4.425  0.6385  1.1607  0.1039
  329MOL0     H44393   7.766   2.251   4.693  3.9086  1.6052 -0.6884
  329MOL0     H44394   7.665   2.181   4.556 -0.8784 -2.3166  1.9430
  329MOL0     H44395   7.631   3.186   4.778 -1.1308  0.0042  0.1700
  329MOL0     H44396   7.624   3.432   4.866  2.2509  1.7557 -1.7093
  329MOL0     H44397   7.721   3.943   4.569  0.3793  1.4819 -1.1910
  329MOL0     H44398   7.624   4.165   4.543 -0.4746  0.2084  0.0138
  329MOL0     H44399   6.574   4.388   5.597  2.3778  2.0765 -2.2636
  329MOL0     H44400   6.603   4.593   5.752  0.5007  0.6400 -2.0333
  329MOL0     H44401   6.986   4.636   6.141 -0.4393 -0.7370 -1.3584
  329MOL0     H44402   7.059   4.797   6.318  0.8804  2.5128 -0.0999
  329MOL0     H44403   7.072   4.952   6.475 -1.5582  1.0046  2.3768
  329MOL0     H44404   7.014   5.112   6.507  0.1418  1.9035 -0.3721
  329MOL0     H44405   7.193   5.221   6.425 -0.7114  0.1314 -4.1729
  329MOL0     H44406   7.274   5.094   6.341 -2.0187  0.2847 -2.2652
  329MOL0     H44407   7.337   5.001   6.586 -0.9952 -0.4074 -0.3257
  329MOL0     H44408   7.228   5.116   6.656 -3.0158  1.9407 -1.2987
  329MOL0     H44409   7.392   5.290   6.527  1.7997  0.4739 -0.7077
  329MOL0     H44410   7.415   5.222   6.680  0.0085  2.9894 -1.3530
  329MOL0     H44411   7.743   5.047   6.503 -0.3546 -0.7514  0.4469
  329MOL0     H44412   6.917   5.115   6.080 -2.7676  1.0849  0.7337
  329MOL0     H44413   6.862   4.965   5.789  3.1309 -0.2070  1.7301
  329MOL0     H44414   6.710   4.964   5.869  0.2578 -0.3951 -0.3476
  329MOL0     H44415   6.815   5.097   5.899  0.2182 -0.5071  2.4069
  330MOL0     O44416   1.536   0.088   6.486 -0.7022  0.8121  0.5638
  330MOL0     C44417   1.425   0.039   6.516  0.5247  0.3872  1.0127
  330MOL0     O44418   1.383  -0.016   6.628 -0.7779 -0.3254 -1.1654
  330MOL0     C44419   1.479  -0.066   6.709  0.1605  0.0696 -0.9213
  330MOL0     C44420   1.573  -0.168   6.681 -0.7871  0.1456  0.0252
  330MOL0     C44421   1.684  -0.200   6.765 -0.5121  0.6007 -0.1144
  330MOL0     C44422   1.704  -0.127   6.876  0.9787 -0.4846 -0.3116
  330MOL0     O44423   1.818  -0.159   6.946 -0.1292 -0.8802 -0.5638
  330MOL0     C44424   1.820  -0.147   7.091  0.1009  0.4905 -0.3956
  330MOL0     C44425   1.956  -0.113   7.140  0.0389 -0.5090 -0.5042
  330MOL0     C44426   1.991   0.028   7.102 -0.5757 -0.4346 -0.3544
  330MOL0     C44427   2.116   0.074   7.167  0.0134  0.5333  0.4442
  330MOL0     C44428   2.143   0.230   7.148  0.1415  1.1757  0.1574
  330MOL0     C44429   2.213   0.257   7.006 -0.9923  0.4364 -0.3115
  330MOL0     C44430   2.237   0.400   6.988 -0.3305  0.0094 -0.0213
  330MOL0     C44431   2.380   0.448   7.027  0.0311  0.5650 -0.4439
  330MOL0     N44432   2.404   0.592   7.024  0.5878  1.3890  0.1518
  330MOL0     C44433   2.474   0.657   7.129 -0.7371  0.1585  0.6176
  330MOL0     C44434   2.440   0.790   7.110 -0.9390  0.3796 -0.2628
  330MOL0     C44435   2.473   0.907   7.200  0.6242 -0.3115  0.2174
  330MOL0     C44436   2.598   0.975   7.166 -0.5461 -0.2318 -0.5856
  330MOL0     C44437   2.619   1.102   7.239  0.9351 -0.4952 -0.1168
  330MOL0     C44438   2.759   1.149   7.212  0.1720  0.8631  0.2095
  330MOL0     O44439   2.848   1.086   7.306  0.0269 -0.0566 -0.6634
  330MOL0     C44440   2.976   1.132   7.310 -0.2683  0.1325 -0.6654
  330MOL0     C44441   3.038   1.232   7.236  0.6687  0.7872  0.1053
  330MOL0     C44442   3.169   1.270   7.251  0.9535 -0.3168  0.0962
  330MOL0     C44443   3.255   1.198   7.338  0.0253 -0.7428  0.4206
  330MOL0     C44444   3.395   1.243   7.353  0.8125  0.5990  0.3702
  330MOL0     O44445   3.444   1.312   7.245 -0.4644  1.0682 -0.2023
  330MOL0     C44446   3.565   1.392   7.264  0.1771  0.8445  0.3095
  330MOL0     C44447   3.589   1.467   7.377  0.8134  0.6859  0.4678
  330MOL0     C44448   3.704   1.535   7.390 -0.0341 -0.2403  0.0075
  330MOL0     C44449   3.806   1.533   7.288 -0.3897 -0.2749 -0.1380
  330MOL0     O44450   3.914   1.619   7.290 -0.3747 -0.9823 -0.0188
  330MOL0     C44451   3.889   1.754   7.320 -0.1685 -0.1371 -0.1500
  330MOL0     C44452   3.985   1.857   7.251  0.3770 -0.3855  0.6424
  330MOL0     C44453   3.951   2.004   7.296 -0.0601 -0.4880  0.0830
  330MOL0     C44454   4.044   2.115   7.235  0.1023 -0.3025 -0.1046
  330MOL0     C44455   4.013   2.251   7.294 -0.4757 -0.3892 -0.0186
  330MOL0     C44456   4.091   2.371   7.233 -0.4039  0.0967  0.0594
  330MOL0     C44457   4.048   2.509   7.277  0.7613 -0.1721  0.3815
  330MOL0     C44458   4.141   2.619   7.224  0.3389 -0.5352 -0.1110
  330MOL0    Cl44459   4.057   2.766   7.284 -0.2473 -0.2825  0.3995
  330MOL0     C44460   3.787   1.444   7.178  0.3922 -0.3816 -0.1796
  330MOL0     C44461   3.663   1.374   7.165 -0.2612 -0.5434  0.1935
  330MOL0     O44462   3.455   1.219   7.461 -0.9035  0.3629  0.2655
  330MOL0     C44463   3.200   1.091   7.410  0.3559 -0.0779  0.1117
  330MOL0     C44464   3.069   1.059   7.399  0.3657  0.7308 -0.7883
  330MOL0     N44465   2.359   0.798   6.994 -0.2187  0.0990 -0.2619
  330MOL0     N44466   2.340   0.680   6.942  0.5794  0.2238  0.6882
  330MOL0     C44467   1.611  -0.023   6.913  0.7602  0.5154  0.4921
  330MOL0     C44468   1.496   0.001   6.835  0.3202 -0.0678 -0.4484
  330MOL0     C44469   1.314   0.059   6.412 -0.3713  0.4617  0.1831
  330MOL0     C44470   1.266   0.183   6.376  0.0754 -1.0242  0.7611
  330MOL0     C44471   1.160   0.193   6.291  0.1302 -0.2625  0.1428
  330MOL0     C44472   1.086   0.083   6.240 -0.6731 -0.8492 -0.4791
  330MOL0     O44473   0.981   0.088   6.161  0.2921  0.8775  0.4341
  330MOL0     C44474   0.890   0.197   6.182 -0.0427  0.4523  0.1553
  330MOL0     C44475   0.760   0.113   6.185  0.4932 -0.8974  0.6418
  330MOL0     C44476   0.638   0.201   6.144 -0.0938 -0.0944 -0.0910
  330MOL0     C44477   0.513   0.122   6.115  0.7427 -0.1537 -0.4946
  330MOL0     C44478   0.435   0.089   6.236 -0.7861 -0.3381 -1.0971
  330MOL0     C44479   0.358   0.080   6.332  0.1299 -0.1019 -0.1015
  330MOL0     C44480   1.147  -0.041   6.263 -0.6905 -0.5966  0.1977
  330MOL0     C44481   1.250  -0.055   6.354 -0.2313 -0.5014 -0.3075
  330MOL0     C44482   1.294  -0.199   6.379  0.1232 -0.4818  0.0097
  330MOL0     H44483   1.576  -0.220   6.586  2.9495 -1.1698  0.7074
  330MOL0     H44484   1.761  -0.274   6.743 -1.1821 -0.8305  2.0302
  330MOL0     H44485   1.758  -0.066   7.130  0.8214  0.3087  1.2111
  330MOL0     H44486   1.775  -0.237   7.134 -3.9325  1.7366 -1.5819
  330MOL0     H44487   2.030  -0.179   7.095  0.3633  1.2962 -2.7875
  330MOL0     H44488   1.956  -0.127   7.249  1.0408  1.3178 -0.2356
  330MOL0     H44489   1.924   0.109   7.129  2.4247  2.1568 -0.1124
  330MOL0     H44490   1.994   0.031   6.992 -0.7830  0.3952 -0.3451
  330MOL0     H44491   2.110   0.061   7.276 -0.3900  0.2099  0.3848
  330MOL0     H44492   2.198   0.020   7.120 -0.2485  1.8948 -1.7373
  330MOL0     H44493   2.046   0.281   7.154  0.6536  2.5482 -2.0779
  330MOL0     H44494   2.207   0.263   7.230  0.7436  2.2146 -0.7049
  330MOL0     H44495   2.305   0.200   7.018 -1.3042 -0.1078 -0.4933
  330MOL0     H44496   2.172   0.210   6.916  2.4548  0.6081 -2.1191
  330MOL0     H44497   2.157   0.454   7.040 -1.4036  0.3962 -1.9651
  330MOL0     H44498   2.228   0.432   6.884 -1.2735  0.1305  0.0846
  330MOL0     H44499   2.407   0.413   7.127 -3.1264 -0.5738  0.1200
  330MOL0     H44500   2.452   0.411   6.952  0.6140  3.8737 -1.7033
  330MOL0     H44501   2.524   0.615   7.215 -0.8917  2.9601  2.2038
  330MOL0     H44502   2.386   0.972   7.195  0.9860  0.3622  1.8564
  330MOL0     H44503   2.474   0.884   7.307 -3.0755 -1.2905  0.1925
  330MOL0     H44504   2.685   0.909   7.173 -1.2753 -1.1084  0.4055
  330MOL0     H44505   2.602   0.993   7.058  0.8304 -1.3022 -0.7425
  330MOL0     H44506   2.585   1.112   7.343 -5.2336  3.9294 -1.9731
  330MOL0     H44507   2.558   1.177   7.187  0.6880 -0.8455 -0.3268
  330MOL0     H44508   2.761   1.257   7.224  0.6703  0.7683  1.1571
  330MOL0     H44509   2.797   1.123   7.113  1.0981  0.6738  0.5931
  330MOL0     H44510   2.977   1.287   7.166 -1.2748 -1.2798  0.0781
  330MOL0     H44511   3.204   1.356   7.195  1.1180 -0.5521 -0.1630
  330MOL0     H44512   3.502   1.470   7.443  0.6896 -1.6681  0.4925
  330MOL0     H44513   3.720   1.595   7.479  0.4855  0.9102 -0.8413
  330MOL0     H44514   3.789   1.776   7.280 -1.1825 -1.0992  1.7287
  330MOL0     H44515   3.896   1.771   7.428 -0.5302 -2.0183  0.1922
  330MOL0     H44516   4.086   1.839   7.288  1.1086  0.6258 -0.7477
  330MOL0     H44517   3.991   1.846   7.142 -3.2726  0.2460  0.2591
  330MOL0     H44518   3.846   2.021   7.272 -0.3565 -1.3437  0.7412
  330MOL0     H44519   3.961   2.012   7.404 -0.7151 -1.1484  0.1981
  330MOL0     H44520   4.016   2.131   7.130 -0.6404  2.4627  0.4238
  330MOL0     H44521   4.147   2.087   7.260  0.3133  0.3057 -0.2709
  330MOL0     H44522   4.030   2.257   7.402  1.3913 -0.9625 -0.2534
  330MOL0     H44523   3.907   2.272   7.272 -0.6531  0.1751  1.2663
  330MOL0     H44524   4.195   2.350   7.259  0.0232  0.3379 -1.3841
  330MOL0     H44525   4.092   2.362   7.124  2.5296 -0.5594  0.0659
  330MOL0     H44526   4.045   2.511   7.386 -2.1755  0.3306  0.3896
  330MOL0     H44527   3.948   2.541   7.242  0.0414 -3.5833 -1.0749
  330MOL0     H44528   4.239   2.606   7.273 -0.2150  3.1921  2.4002
  330MOL0     H44529   4.153   2.616   7.116  1.0160  2.7268 -0.2313
  330MOL0     H44530   3.857   1.424   7.098 -0.2767  1.6530 -1.3474
  330MOL0     H44531   3.642   1.306   7.083 -1.6521 -0.4747  0.4697
  330MOL0     H44532   3.274   1.035   7.467  2.0133  0.5054 -1.3556
  330MOL0     H44533   3.042   0.983   7.472  1.5729  1.4784  0.4947
  330MOL0     H44534   1.612   0.037   7.004  1.3879 -0.9915  1.5136
  330MOL0     H44535   1.428   0.081   6.860  0.6197  0.5725 -1.5894
  330MOL0     H44536   1.318   0.270   6.415  0.8437 -0.5635 -1.1572
  330MOL0     H44537   1.126   0.292   6.262 -1.9716 -0.2293  2.4430
  330MOL0     H44538   0.895   0.262   6.093  1.1800  0.4007  0.1809
  330MOL0     H44539   0.907   0.256   6.272 -2.5467 -2.7156  2.9479
  330MOL0     H44540   0.738   0.069   6.282  2.3293 -0.1323  1.4457
  330MOL0     H44541   0.769   0.030   6.115  1.5648 -0.6535  0.4669
  330MOL0     H44542   0.667   0.265   6.061  2.4056  1.1093  1.5802
  330MOL0     H44543   0.631   0.265   6.233  4.0397 -0.9922  1.0878
  330MOL0     H44544   0.441   0.176   6.054  0.9831 -1.0227 -1.5672
  330MOL0     H44545   0.534   0.026   6.068  3.7292  0.7604 -1.2470
  330MOL0     H44546   0.289   0.077   6.414  0.3423 -0.8813  0.0597
  330MOL0     H44547   1.118  -0.128   6.204 -3.5055  1.0698 -1.0876
  330MOL0     H44548   1.236  -0.274   6.325 -1.7970 -1.7432  3.5039
  330MOL0     H44549   1.401  -0.203   6.358  0.6957  2.0519  1.9732
  330MOL0     H44550   1.286  -0.225   6.485 -0.6661  4.0732  1.2933
  331MOL0     O44551   4.577   2.813   8.106  0.7840 -0.0502 -0.3859
  331MOL0     C44552   4.563   2.850   8.224  0.2854 -0.1653  0.8225
  331MOL0     O44553   4.517   2.976   8.267 -0.6213  0.1833 -0.1849
  331MOL0     C44554   4.476   3.060   8.174  0.8251 -1.7109  0.1386
  331MOL0     C44555   4.334   3.066   8.173 -0.6328 -0.5729  0.2976
  331MOL0     C44556   4.270   3.156   8.094 -0.6272 -0.7182  0.8722
  331MOL0     C44557   4.343   3.248   8.013  0.2971 -0.1680  0.3890
  331MOL0     O44558   4.274   3.342   7.940  0.3552 -0.6446  0.1096
  331MOL0     C44559   4.331   3.426   7.838  0.1349 -0.0149 -0.7673
  331MOL0     C44560   4.226   3.508   7.760 -0.2221 -0.2577 -0.5009
  331MOL0     C44561   4.119   3.418   7.691  0.2329 -0.0895 -0.4104
  331MOL0     C44562   4.005   3.478   7.607 -0.1750 -0.1805 -0.7651
  331MOL0     C44563   3.906   3.370   7.565 -0.1944 -0.8657  0.2096
  331MOL0     C44564   3.797   3.431   7.468  0.5107  0.1176  0.0865
  331MOL0     C44565   3.713   3.545   7.538 -0.8154 -0.4024  0.7167
  331MOL0     C44566   3.598   3.566   7.444 -0.7850  0.5518 -0.5602
  331MOL0     N44567   3.508   3.674   7.490  0.0610 -0.0422 -0.4002
  331MOL0     C44568   3.409   3.665   7.588  0.1792  0.8806  1.1019
  331MOL0     C44569   3.351   3.784   7.584  0.4108  0.0953  0.2081
  331MOL0     C44570   3.223   3.829   7.652  0.3643 -0.7170 -0.5967
  331MOL0     C44571   3.255   3.901   7.785  0.1337  0.3323  0.3412
  331MOL0     C44572   3.163   4.021   7.809  0.9330 -0.1875  0.4356
  331MOL0     C44573   3.012   3.983   7.780  1.2908 -0.3050  0.3231
  331MOL0     O44574   2.926   4.092   7.809 -0.5273  0.3469 -0.3439
  331MOL0     C44575   2.895   4.180   7.713  0.0489 -0.4020  0.5079
  331MOL0     C44576   2.975   4.215   7.595 -0.4495 -0.0584  0.5674
  331MOL0     C44577   2.921   4.305   7.499  0.2783 -0.2281  0.2853
  331MOL0     C44578   2.804   4.381   7.524 -0.4282  0.3449 -0.5017
  331MOL0     C44579   2.753   4.494   7.438  0.3407  0.2221 -0.2603
  331MOL0     O44580   2.692   4.598   7.505 -0.3147 -0.5650  0.0810
  331MOL0     C44581   2.639   4.699   7.430  0.3464 -0.3679 -0.1932
  331MOL0     C44582   2.663   4.828   7.481 -0.3430  0.1277  0.2676
  331MOL0     C44583   2.603   4.940   7.418  0.0853 -0.2786  0.4227
  331MOL0     C44584   2.515   4.919   7.303  0.1991 -0.0402 -0.0968
  331MOL0     O44585   2.452   5.034   7.252  0.6346  0.7129  0.4339
  331MOL0     C44586   2.309   5.026   7.239  0.0334  0.0832  0.1368
  331MOL0     C44587   2.233   4.988   7.359 -0.4057 -0.5970  0.0124
  331MOL0     C44588   2.251   5.075   7.487  0.3745  0.1202  0.3339
  331MOL0     C44589   2.174   5.208   7.479  0.4292 -0.4379 -0.1783
  331MOL0     C44590   2.201   5.291   7.601  0.4548 -0.3562 -1.0922
  331MOL0     C44591   2.101   5.405   7.612 -0.2233 -0.5009  0.0990
  331MOL0     C44592   2.123   5.488   7.736 -0.2966 -0.2706  0.2803
  331MOL0     C44593   2.003   5.592   7.741  0.0273 -0.3598 -0.0317
  331MOL0    Cl44594   2.015   5.676   7.897 -0.0781 -0.3628  0.2625
  331MOL0     C44595   2.488   4.788   7.255  0.8095 -0.3839  0.1834
  331MOL0     C44596   2.550   4.683   7.320  0.4868 -0.6042  0.1028
  331MOL0     O44597   2.773   4.485   7.315  0.3108 -0.2681 -0.0187
  331MOL0     C44598   2.746   4.349   7.646  0.2252 -0.8951 -0.0489
  331MOL0     C44599   2.782   4.252   7.730 -0.7187  0.0696 -0.2858
  331MOL0     N44600   3.420   3.866   7.507  0.2666  0.0873  0.3567
  331MOL0     N44601   3.509   3.806   7.441 -1.5146 -0.6719 -0.0647
  331MOL0     C44602   4.479   3.246   8.029  0.2251 -0.4966  0.6345
  331MOL0     C44603   4.542   3.164   8.117 -0.2529  0.3708 -0.7739
  331MOL0     C44604   4.625   2.761   8.324 -0.3381  0.2810 -0.7367
  331MOL0     C44605   4.582   2.781   8.458 -1.0395 -0.2451  0.3351
  331MOL0     C44606   4.612   2.680   8.549 -0.1352  0.4888 -0.1625
  331MOL0     C44607   4.696   2.574   8.528  0.1501  0.3078 -0.0120
  331MOL0     O44608   4.707   2.495   8.638 -0.2303  0.0814  0.5553
  331MOL0     C44609   4.804   2.394   8.625 -1.0771 -0.0375  0.0320
  331MOL0     C44610   4.954   2.444   8.634  0.8438 -0.3121 -0.1227
  331MOL0     C44611   4.970   2.557   8.737  0.4630 -0.2021 -0.6013
  331MOL0     C44612   5.104   2.628   8.727 -0.2082  0.0964 -0.2835
  331MOL0     C44613   5.181   2.615   8.850  0.2533 -0.3277  1.3801
  331MOL0     C44614   5.237   2.604   8.949  0.1003 -0.6926  0.7925
  331MOL0     C44615   4.761   2.564   8.399  0.2183  0.1959  0.0798
  331MOL0     C44616   4.736   2.670   8.306 -0.3467 -0.3479 -0.5531
  331MOL0     C44617   4.815   2.652   8.183 -0.1104 -0.5906  0.2936
  331MOL0     H44618   4.270   3.000   8.230 -2.2078  1.1209  0.5863
  331MOL0     H44619   4.163   3.137   8.097 -0.5291 -1.9979 -1.6034
  331MOL0     H44620   4.402   3.499   7.878 -2.2149  0.8764  2.1833
  331MOL0     H44621   4.391   3.362   7.773 -1.2117  0.3152 -2.4160
  331MOL0     H44622   4.276   3.576   7.690 -0.3229  1.3304  0.8885
  331MOL0     H44623   4.173   3.572   7.832 -2.1034 -1.0441 -1.1223
  331MOL0     H44624   4.065   3.347   7.755  3.9057 -1.6847  1.1719
  331MOL0     H44625   4.178   3.355   7.623  2.3404  0.7559  0.5573
  331MOL0     H44626   3.957   3.550   7.674 -2.5140 -1.1978 -1.2487
  331MOL0     H44627   4.038   3.539   7.522 -0.9229  1.0639 -0.1852
  331MOL0     H44628   3.967   3.289   7.523  2.0658 -0.4444  2.4554
  331MOL0     H44629   3.857   3.327   7.653 -0.1689 -2.4401 -0.5193
  331MOL0     H44630   3.857   3.479   7.391 -0.4460  0.7137 -0.3087
  331MOL0     H44631   3.729   3.358   7.424 -2.0432  1.6520  1.2377
  331MOL0     H44632   3.770   3.638   7.535 -3.0145  0.9980 -0.4134
  331MOL0     H44633   3.685   3.515   7.640  0.2427  0.6750  1.3528
  331MOL0     H44634   3.638   3.582   7.343  0.7603 -0.2966 -0.1115
  331MOL0     H44635   3.543   3.472   7.436 -1.3362  0.7992  0.2264
  331MOL0     H44636   3.372   3.571   7.627 -0.2732 -0.0009 -1.2763
  331MOL0     H44637   3.169   3.902   7.591 -1.6765  1.0470  2.9708
  331MOL0     H44638   3.150   3.749   7.665  0.0441 -0.1814  1.2714
  331MOL0     H44639   3.242   3.833   7.870  2.0593 -0.7195 -0.1287
  331MOL0     H44640   3.356   3.942   7.795  0.7821 -1.4501  1.6393
  331MOL0     H44641   3.194   4.113   7.759  1.8981 -0.1490  1.0826
  331MOL0     H44642   3.170   4.042   7.916 -0.1446 -1.5212  0.7915
  331MOL0     H44643   2.977   3.896   7.837  3.1468 -1.2587  0.0949
  331MOL0     H44644   2.998   3.948   7.677  2.5329 -3.5004  1.1166
  331MOL0     H44645   3.075   4.175   7.583  0.0709  1.7451 -1.5719
  331MOL0     H44646   2.972   4.327   7.405 -1.4660  1.1386 -0.4045
  331MOL0     H44647   2.725   4.853   7.566 -1.3703 -0.0827  1.1019
  331MOL0     H44648   2.626   5.038   7.459  1.2292 -0.3971  0.0873
  331MOL0     H44649   2.275   5.124   7.203  1.2003  0.5297  0.2012
  331MOL0     H44650   2.289   4.957   7.157 -1.5189  1.0681 -0.3499
  331MOL0     H44651   2.130   4.985   7.324 -0.4451  3.0813 -0.5763
  331MOL0     H44652   2.269   4.890   7.390  0.2009 -0.3668  0.0675
  331MOL0     H44653   2.203   5.015   7.565  0.3478 -0.4089 -0.0881
  331MOL0     H44654   2.357   5.086   7.511  0.5829 -4.0868  2.1513
  331MOL0     H44655   2.067   5.197   7.462 -0.5149  4.8954  0.7604
  331MOL0     H44656   2.214   5.265   7.394 -2.1625 -0.3304 -1.4446
  331MOL0     H44657   2.301   5.337   7.609  0.8074 -1.4365  2.1146
  331MOL0     H44658   2.192   5.230   7.691  1.0156  0.6899 -0.2912
  331MOL0     H44659   2.116   5.482   7.536  1.8068 -0.7518  0.1965
  331MOL0     H44660   1.998   5.368   7.605 -1.0093  1.7992 -1.2746
  331MOL0     H44661   2.224   5.530   7.737 -0.8626  1.1878 -0.6624
  331MOL0     H44662   2.114   5.439   7.833  0.4578 -0.6494  0.1635
  331MOL0     H44663   2.016   5.668   7.662  1.0279 -0.9922 -0.5070
  331MOL0     H44664   1.905   5.545   7.735 -1.2197  1.9193  1.1530
  331MOL0     H44665   2.412   4.763   7.181  2.3763  0.7927 -1.9136
  331MOL0     H44666   2.508   4.585   7.299 -0.2213 -0.8344  2.3332
  331MOL0     H44667   2.659   4.410   7.667 -0.7077 -2.2989  0.3220
  331MOL0     H44668   2.714   4.226   7.810 -0.7989  0.6559 -0.1579
  331MOL0     H44669   4.551   3.310   7.979  1.6491 -1.9039  0.7842
  331MOL0     H44670   4.651   3.162   8.115 -0.2373  1.1358 -1.0316
  331MOL0     H44671   4.524   2.869   8.485  0.5776  1.1022 -0.3811
  331MOL0     H44672   4.569   2.693   8.648 -0.4086 -2.1209  0.1119
  331MOL0     H44673   4.803   2.331   8.535 -2.4615  0.4828 -0.3360
  331MOL0     H44674   4.789   2.320   8.704 -1.8753 -1.1512 -1.1153
  331MOL0     H44675   4.990   2.477   8.536 -1.2290 -0.0201 -0.8336
  331MOL0     H44676   5.011   2.358   8.670 -0.3943 -0.1922  2.3616
  331MOL0     H44677   4.956   2.512   8.836 -1.7108  3.1689  0.8139
  331MOL0     H44678   4.894   2.635   8.734  0.0002 -0.6071  0.4249
  331MOL0     H44679   5.164   2.594   8.641  0.0612  0.7269 -0.3530
  331MOL0     H44680   5.089   2.735   8.713  1.9700  0.5234  0.3184
  331MOL0     H44681   5.280   2.594   9.047  1.6745 -2.7765 -0.0289
  331MOL0     H44682   4.831   2.486   8.373 -0.9027 -0.0499 -2.4796
  331MOL0     H44683   4.797   2.719   8.098  0.0168 -0.8467  0.0635
  331MOL0     H44684   4.921   2.665   8.207 -0.7250  0.8004  2.5047
  331MOL0     H44685   4.796   2.552   8.142  3.1379 -0.4514 -1.9626
  332MOL0     O44686   2.289   9.476   1.707  1.0326  0.7553  0.5623
  332MOL0     C44687   2.368   9.491   1.619  0.2501  0.3387  0.1049
  332MOL0     O44688   2.500   9.450   1.628  0.0883  0.1550 -0.5624
  332MOL0     C44689   2.548   9.419   1.754  0.4011 -0.1141 -0.6954
  332MOL0     C44690   2.524   9.491   1.867  1.3621  0.3925  0.1836
  332MOL0     C44691   2.571   9.452   1.997 -0.2306 -0.0734  0.6429
  332MOL0     C44692   2.656   9.340   2.006 -0.5255  0.0272  0.1551
  332MOL0     O44693   2.691   9.297   2.137 -0.4631 -0.8625  0.6153
  332MOL0     C44694   2.755   9.169   2.147 -0.0462  0.3509  0.1090
  332MOL0     C44695   2.783   9.130   2.298  0.3866 -0.0598 -0.7732
  332MOL0     C44696   2.657   9.060   2.352 -1.3807  0.6341 -1.1700
  332MOL0     C44697   2.694   8.996   2.488  0.8806  0.0077  0.5245
  332MOL0     C44698   2.566   8.949   2.564  0.6376  0.7036  0.3587
  332MOL0     C44699   2.512   9.071   2.639  0.4818  0.9478  0.0920
  332MOL0     C44700   2.384   9.033   2.718 -0.7615  0.2710  0.1563
  332MOL0     C44701   2.394   9.007   2.872  0.5030  0.5907 -0.2947
  332MOL0     N44702   2.463   8.875   2.907 -1.1240 -1.0083  0.0019
  332MOL0     C44703   2.597   8.846   2.932  0.7362  0.0340  0.4346
  332MOL0     C44704   2.592   8.711   2.932 -0.1063 -0.4394  0.0742
  332MOL0     C44705   2.718   8.632   2.932 -0.6305  0.4778 -0.2180
  332MOL0     C44706   2.766   8.585   2.798 -0.3634  0.5089 -0.2799
  332MOL0     C44707   2.697   8.463   2.739  0.8875  0.5745  0.5686
  332MOL0     C44708   2.744   8.335   2.799 -0.5585  0.6374  0.3672
  332MOL0     O44709   2.874   8.286   2.767 -0.2008  0.1140  0.3078
  332MOL0     C44710   2.983   8.331   2.836  0.0129  0.3432  0.5112
  332MOL0     C44711   3.109   8.309   2.774  0.4441 -0.2956  0.3708
  332MOL0     C44712   3.224   8.353   2.843 -0.8581  0.3437 -0.1408
  332MOL0     C44713   3.223   8.422   2.968 -0.4994 -0.1460  0.5251
  332MOL0     C44714   3.345   8.469   3.026 -1.3602  0.7413  0.0317
  332MOL0     O44715   3.459   8.452   2.952 -0.3457  0.1182  0.4203
  332MOL0     C44716   3.585   8.488   2.990  0.4948  0.6198 -0.3453
  332MOL0     C44717   3.698   8.434   2.927  1.3595  0.4074 -0.7398
  332MOL0     C44718   3.815   8.471   2.960 -1.0479 -0.4421 -0.4517
  332MOL0     C44719   3.844   8.561   3.061  0.1272  0.2088 -1.0599
  332MOL0     O44720   3.968   8.560   3.108 -0.2786  0.5742 -0.0580
  332MOL0     C44721   3.998   8.446   3.193  0.4598  0.7618 -0.5757
  332MOL0     C44722   4.152   8.461   3.215 -0.2974 -0.2652  0.0049
  332MOL0     C44723   4.211   8.326   3.271 -0.0361 -0.5284  0.1592
  332MOL0     C44724   4.365   8.320   3.259  0.0349  0.5986  0.3590
  332MOL0     C44725   4.427   8.192   3.325 -0.0637  0.8957 -0.3657
  332MOL0     C44726   4.578   8.197   3.363  0.4063 -0.8907  0.9628
  332MOL0     C44727   4.672   8.219   3.248  0.4364  0.3515  0.2301
  332MOL0     C44728   4.818   8.221   3.299  0.1097 -0.0147 -0.5225
  332MOL0    Cl44729   4.940   8.213   3.158 -0.0923 -0.2241 -0.2045
  332MOL0     C44730   3.740   8.633   3.119  0.1044  0.0506  0.3673
  332MOL0     C44731   3.610   8.600   3.080  0.6401 -1.2666  0.7545
  332MOL0     O44732   3.334   8.514   3.133 -0.3516 -0.8883  0.2153
  332MOL0     C44733   3.101   8.442   3.031  0.1720 -0.0523 -0.0597
  332MOL0     C44734   2.984   8.400   2.964 -0.1980  0.3532 -0.0458
  332MOL0     N44735   2.462   8.658   2.910 -0.3968 -0.7401 -0.5656
  332MOL0     N44736   2.387   8.766   2.904  0.3797 -0.4427 -0.4442
  332MOL0     C44737   2.691   9.276   1.884  0.1133 -1.5269  0.1792
  332MOL0     C44738   2.643   9.322   1.760 -1.6959  0.1057  0.0880
  332MOL0     C44739   2.308   9.508   1.481  0.2897 -0.3600 -0.2653
  332MOL0     C44740   2.379   9.469   1.364 -0.1509 -0.1509 -0.1128
  332MOL0     C44741   2.343   9.504   1.237  0.5462 -1.2210  0.5624
  332MOL0     C44742   2.211   9.559   1.218  0.1742  0.0615 -0.2739
  332MOL0     O44743   2.161   9.587   1.096 -0.6719 -0.1841  0.2266
  332MOL0     C44744   2.155   9.476   1.003  0.3740 -0.1894  0.2256
  332MOL0     C44745   2.050   9.358   1.029  0.8038  0.1221 -0.3744
  332MOL0     C44746   1.911   9.419   1.071 -0.2967  0.9895  0.0370
  332MOL0     C44747   1.824   9.320   1.138  0.9369 -0.6596  0.7636
  332MOL0     C44748   1.691   9.375   1.160  0.1437 -0.0064  0.5214
  332MOL0     C44749   1.573   9.395   1.160 -0.1124  0.4335 -0.0223
  332MOL0     C44750   2.149   9.611   1.325  0.2279  0.1708  0.9788
  332MOL0     C44751   2.191   9.585   1.456 -0.4208 -1.0492  0.4437
  332MOL0     C44752   2.099   9.642   1.562 -0.5386 -0.4435 -0.1887
  332MOL0     H44753   2.460   9.578   1.858 -0.0817 -0.6392  0.1352
  332MOL0     H44754   2.547   9.507   2.087  2.6846  3.3328 -0.4231
  332MOL0     H44755   2.696   9.092   2.096  2.0138 -1.0699 -0.2473
  332MOL0     H44756   2.849   9.171   2.091 -0.7698  3.4027 -1.1914
  332MOL0     H44757   2.814   9.214   2.361  0.4033 -1.3969  1.0991
  332MOL0     H44758   2.865   9.057   2.297  0.1275 -0.3666 -0.1744
  332MOL0     H44759   2.614   8.983   2.287 -1.3955  0.0694 -0.5006
  332MOL0     H44760   2.582   9.138   2.364 -0.3221  2.0212 -3.0382
  332MOL0     H44761   2.750   8.903   2.473 -1.0638 -0.8495 -2.0707
  332MOL0     H44762   2.746   9.068   2.553 -0.1581  2.5627 -1.3089
  332MOL0     H44763   2.488   8.903   2.502  2.8581  0.7472 -2.7696
  332MOL0     H44764   2.603   8.877   2.637 -0.3390  0.3013  0.4636
  332MOL0     H44765   2.589   9.111   2.705 -0.3792 -0.5265  2.1090
  332MOL0     H44766   2.472   9.147   2.571 -1.6940 -0.8875 -0.8203
  332MOL0     H44767   2.346   8.948   2.661  1.8719 -2.2441  1.8730
  332MOL0     H44768   2.303   9.107   2.717 -1.5251 -0.4058  2.8315
  332MOL0     H44769   2.452   9.082   2.925  1.4708  1.1438 -2.0505
  332MOL0     H44770   2.294   8.995   2.915  0.5227  0.7932 -0.1923
  332MOL0     H44771   2.666   8.929   2.944 -3.1925  3.5484  1.3078
  332MOL0     H44772   2.800   8.688   2.976 -0.0728 -0.0801 -0.5339
  332MOL0     H44773   2.696   8.547   2.997  0.8623 -0.9287 -1.4683
  332MOL0     H44774   2.745   8.665   2.726 -1.9739 -0.6300 -1.1322
  332MOL0     H44775   2.874   8.573   2.806 -0.0906  2.9930  0.7800
  332MOL0     H44776   2.724   8.465   2.632 -0.7643 -0.2381  0.1070
  332MOL0     H44777   2.590   8.479   2.750  0.9911  2.4923 -0.6383
  332MOL0     H44778   2.668   8.268   2.757 -0.1458 -0.2759  1.0251
  332MOL0     H44779   2.727   8.337   2.907  0.1786  0.4288  0.4961
  332MOL0     H44780   3.105   8.269   2.674  0.6882 -1.4446  0.8059
  332MOL0     H44781   3.310   8.322   2.785 -1.2131  0.2748 -0.6299
  332MOL0     H44782   3.688   8.354   2.854 -1.3014 -0.6985  0.6907
  332MOL0     H44783   3.896   8.414   2.915 -1.8407 -0.0849 -2.4089
  332MOL0     H44784   3.942   8.437   3.286  0.8700 -0.3047 -0.4311
  332MOL0     H44785   3.983   8.350   3.142  0.0478 -0.2762  1.4321
  332MOL0     H44786   4.205   8.486   3.122  2.3217 -0.9458  1.2010
  332MOL0     H44787   4.163   8.541   3.288 -0.4307 -0.7212  0.5286
  332MOL0     H44788   4.193   8.314   3.378  1.9627 -0.7252  0.5122
  332MOL0     H44789   4.162   8.249   3.210  0.4718 -1.7917  1.2957
  332MOL0     H44790   4.418   8.406   3.299 -2.3977  2.9285 -1.0207
  332MOL0     H44791   4.386   8.332   3.152  2.6825 -0.6681  0.6613
  332MOL0     H44792   4.412   8.104   3.262  0.1072 -0.9949  2.0712
  332MOL0     H44793   4.386   8.177   3.425  1.0348  0.0975 -0.0151
  332MOL0     H44794   4.589   8.284   3.428 -1.3073  0.8500 -0.9437
  332MOL0     H44795   4.608   8.098   3.401  1.2024 -0.6762  0.9117
  332MOL0     H44796   4.647   8.315   3.204 -1.1638 -0.0406  0.2167
  332MOL0     H44797   4.654   8.141   3.173 -0.1246  0.0836  0.6362
  332MOL0     H44798   4.847   8.309   3.357 -1.6990 -0.2167  0.7392
  332MOL0     H44799   4.838   8.140   3.369 -3.0425  0.7032  1.4147
  332MOL0     H44800   3.741   8.711   3.195  0.9769  0.7453 -0.3436
  332MOL0     H44801   3.529   8.666   3.106  0.6654 -1.4855  1.4146
  332MOL0     H44802   3.089   8.500   3.122  4.0604  3.5511 -1.5441
  332MOL0     H44803   2.885   8.417   3.006  0.1330 -1.8699  1.8276
  332MOL0     H44804   2.762   9.196   1.867  1.9112  0.2715 -1.3871
  332MOL0     H44805   2.669   9.275   1.666 -1.4185 -0.0693  0.2495
  332MOL0     H44806   2.470   9.417   1.390 -0.0847  0.8710  1.9824
  332MOL0     H44807   2.400   9.471   1.151 -1.8803  0.6034 -1.9328
  332MOL0     H44808   2.253   9.428   1.004 -0.3004 -2.1407  5.4546
  332MOL0     H44809   2.132   9.525   0.908 -2.5338  1.2397  1.5152
  332MOL0     H44810   2.094   9.285   1.099  1.4373  0.8710  0.0289
  332MOL0     H44811   2.040   9.295   0.940  0.0356  0.6119 -0.6377
  332MOL0     H44812   1.856   9.455   0.983 -2.5966  2.4332  1.9277
  332MOL0     H44813   1.926   9.500   1.143 -3.1090 -0.3222  2.3456
  332MOL0     H44814   1.815   9.233   1.072 -1.7475 -2.5972  3.4094
  332MOL0     H44815   1.870   9.283   1.230  1.5495  4.6182  2.9234
  332MOL0     H44816   1.466   9.398   1.152 -0.1384 -2.3618 -2.2536
  332MOL0     H44817   2.072   9.682   1.298 -2.2780 -2.6485  0.1342
  332MOL0     H44818   2.001   9.664   1.518  0.9960  1.8010 -2.7883
  332MOL0     H44819   2.085   9.581   1.652 -0.2463  2.5964  2.0785
  332MOL0     H44820   2.128   9.742   1.594 -2.1717  0.1164 -0.3739
  333MOL0     O44821   3.154   5.090   2.449  0.8145  0.1506 -0.3593
  333MOL0     C44822   3.151   5.104   2.574  0.1993 -0.5232 -0.0978
  333MOL0     O44823   3.039   5.135   2.640  0.3268 -0.2023 -0.1370
  333MOL0     C44824   2.921   5.161   2.564  0.3502 -0.8238 -0.0666
  333MOL0     C44825   2.904   5.259   2.469 -0.1895  0.8190  0.6246
  333MOL0     C44826   2.782   5.268   2.398  0.2441  0.0256  0.6685
  333MOL0     C44827   2.672   5.185   2.426 -0.4284  0.3761 -0.2434
  333MOL0     O44828   2.571   5.178   2.342 -0.2198 -0.5600  0.2632
  333MOL0     C44829   2.450   5.237   2.392 -0.9309 -1.1583 -0.5187
  333MOL0     C44830   2.417   5.373   2.317 -0.2470 -0.2706  0.0301
  333MOL0     C44831   2.291   5.439   2.374 -0.2853  0.3889  0.1511
  333MOL0     C44832   2.167   5.337   2.385  0.2460  0.2831 -0.4228
  333MOL0     C44833   2.117   5.257   2.267  0.0995  0.3395  0.0652
  333MOL0     C44834   2.032   5.319   2.162 -0.1231  0.4520 -1.2391
  333MOL0     C44835   2.049   5.472   2.163  0.1738  0.4148 -0.1654
  333MOL0     C44836   1.982   5.533   2.035  0.2037 -1.1183 -0.6100
  333MOL0     N44837   1.845   5.502   2.037  0.3896  0.6464  1.0019
  333MOL0     C44838   1.774   5.430   1.941 -0.4897  0.4346  0.3070
  333MOL0     C44839   1.642   5.421   1.983  0.0334 -0.3120 -0.4630
  333MOL0     C44840   1.520   5.349   1.921 -0.3866 -0.1278 -0.3504
  333MOL0     C44841   1.384   5.412   1.950 -0.7286  0.5809  0.1636
  333MOL0     C44842   1.283   5.394   1.833 -0.1605  0.2218  0.1510
  333MOL0     C44843   1.292   5.503   1.722  0.2403  0.2658  0.3567
  333MOL0     O44844   1.182   5.517   1.637  0.1701 -0.0040  0.4604
  333MOL0     C44845   1.166   5.632   1.554 -0.0852  0.5662  0.1244
  333MOL0     C44846   1.263   5.733   1.547 -0.1137 -0.7862 -0.8371
  333MOL0     C44847   1.232   5.851   1.476 -0.1076  0.2402  0.2702
  333MOL0     C44848   1.102   5.873   1.421  0.1948 -0.3456 -0.1231
  333MOL0     C44849   1.063   5.999   1.354 -0.3113 -0.2083 -0.8620
  333MOL0     O44850   0.969   6.011   1.256 -0.3558  0.3209 -0.6009
  333MOL0     C44851   0.942   6.140   1.207 -0.3866 -0.1950 -0.8972
  333MOL0     C44852   0.941   6.165   1.068  0.9922  0.2418 -0.5584
  333MOL0     C44853   0.909   6.293   1.021 -0.0363 -0.1597  0.4353
  333MOL0     C44854   0.879   6.403   1.107 -0.3689 -0.6542 -0.0404
  333MOL0     O44855   0.842   6.535   1.074  0.5996 -0.6839 -0.3258
  333MOL0     C44856   0.900   6.587   0.957  0.0754  0.9089 -0.2984
  333MOL0     C44857   0.814   6.707   0.915 -0.0478 -0.2872  0.0073
  333MOL0     C44858   0.838   6.823   1.007  0.4012  0.7548  0.2066
  333MOL0     C44859   0.810   6.954   0.932  0.4117  0.0368  0.4949
  333MOL0     C44860   0.807   7.069   1.032 -0.2428  0.1265  0.0143
  333MOL0     C44861   0.782   7.202   0.962 -0.2275  0.1030  0.3640
  333MOL0     C44862   0.829   7.317   1.045  0.6309  0.2630  0.6491
  333MOL0     C44863   0.926   7.401   0.963 -0.6037  0.4714  0.2147
  333MOL0    Cl44864   0.857   7.488   0.829 -0.0392  0.2134 -0.0497
  333MOL0     C44865   0.876   6.376   1.243 -0.2062  0.4433 -0.3122
  333MOL0     C44866   0.906   6.243   1.295 -0.2883 -0.6214 -0.6454
  333MOL0     O44867   1.126   6.091   1.400 -0.6929  0.7663 -0.3759
  333MOL0     C44868   1.019   5.756   1.412  0.1572  1.8040 -0.7371
  333MOL0     C44869   1.043   5.637   1.487  0.2465  0.6049  0.7255
  333MOL0     N44870   1.648   5.488   2.111  0.1817  0.1388  0.4174
  333MOL0     N44871   1.759   5.539   2.134 -0.3596  0.1604  0.2201
  333MOL0     C44872   2.681   5.084   2.520  0.2258 -0.7120 -1.3204
  333MOL0     C44873   2.806   5.078   2.589 -0.5121 -0.4384 -0.0011
  333MOL0     C44874   3.287   5.127   2.637 -0.5784  0.8016 -0.1817
  333MOL0     C44875   3.402   5.045   2.606  0.8039 -0.5703  0.6717
  333MOL0     C44876   3.521   5.066   2.667 -0.5563 -0.1828  0.4430
  333MOL0     C44877   3.532   5.147   2.776  0.1022  0.0531  0.7153
  333MOL0     O44878   3.653   5.148   2.836  0.3211  0.4891  0.1743
  333MOL0     C44879   3.672   5.223   2.950  0.2668  0.9432 -0.2416
  333MOL0     C44880   3.823   5.225   3.000  0.0424  0.5165 -0.6957
  333MOL0     C44881   3.819   5.318   3.122  0.0897  0.8602 -0.5080
  333MOL0     C44882   3.957   5.322   3.190 -0.0199 -0.7190  0.1539
  333MOL0     C44883   3.939   5.423   3.297  0.6274  0.1068 -1.0166
  333MOL0     C44884   3.921   5.521   3.366  0.5482  0.0180  1.2557
  333MOL0     C44885   3.422   5.226   2.811 -0.2241 -0.0549 -0.6152
  333MOL0     C44886   3.302   5.219   2.742 -0.3919  0.2124 -0.3089
  333MOL0     C44887   3.197   5.317   2.787 -0.0257 -1.1500 -0.8088
  333MOL0     H44888   2.988   5.318   2.434 -2.4732  4.0833  0.2080
  333MOL0     H44889   2.766   5.338   2.317  0.8471 -3.1826 -2.4547
  333MOL0     H44890   2.369   5.165   2.379  0.5907 -2.6617 -2.4116
  333MOL0     H44891   2.454   5.249   2.500 -2.1480 -0.1407 -0.5735
  333MOL0     H44892   2.411   5.359   2.209 -0.4489  1.0342 -0.1436
  333MOL0     H44893   2.493   5.448   2.339 -0.9573 -0.6190  4.8312
  333MOL0     H44894   2.270   5.532   2.321  2.6486  2.5078  2.2959
  333MOL0     H44895   2.321   5.461   2.477 -2.1108 -2.1916  1.3421
  333MOL0     H44896   2.191   5.272   2.470 -1.7079  2.9863  2.4286
  333MOL0     H44897   2.082   5.398   2.417  0.6457  0.7540 -0.2405
  333MOL0     H44898   2.205   5.214   2.217 -0.8122 -0.6644 -0.7216
  333MOL0     H44899   2.049   5.184   2.312  0.4606  2.8892  5.6021
  333MOL0     H44900   2.051   5.274   2.064  0.6647 -2.8921  0.2994
  333MOL0     H44901   1.928   5.299   2.190 -0.5740  1.5327 -2.0217
  333MOL0     H44902   2.156   5.495   2.165  0.5356 -1.1914  1.0489
  333MOL0     H44903   2.005   5.516   2.254 -1.2442  0.9641 -1.0846
  333MOL0     H44904   2.004   5.640   2.036  2.0312 -1.4542  0.6068
  333MOL0     H44905   2.029   5.494   1.944 -0.7358  0.0788 -1.6449
  333MOL0     H44906   1.803   5.389   1.845 -0.6017 -2.4670  1.4082
  333MOL0     H44907   1.538   5.347   1.813 -0.3604 -2.5642 -0.3470
  333MOL0     H44908   1.508   5.247   1.957  1.2272  0.0867  0.9089
  333MOL0     H44909   1.355   5.357   2.039  0.8965 -3.5107 -1.5725
  333MOL0     H44910   1.386   5.520   1.966 -1.4330  0.7876 -0.9989
  333MOL0     H44911   1.181   5.393   1.872  0.3675 -1.2464  1.5773
  333MOL0     H44912   1.296   5.292   1.796 -0.1327 -0.3409  1.6726
  333MOL0     H44913   1.380   5.482   1.660  0.2878 -2.2231  1.1391
  333MOL0     H44914   1.312   5.601   1.766 -0.0605  0.2142  0.6129
  333MOL0     H44915   1.353   5.730   1.606  1.0918 -1.7689 -2.6399
  333MOL0     H44916   1.301   5.934   1.479  0.0711  0.2397 -2.1234
  333MOL0     H44917   0.965   6.078   1.008 -0.2324 -0.5865  0.1166
  333MOL0     H44918   0.903   6.306   0.913  1.7960 -0.2037  0.2826
  333MOL0     H44919   1.006   6.608   0.974  0.6806 -1.9689  0.0886
  333MOL0     H44920   0.884   6.523   0.869  3.3623  2.0217 -1.8591
  333MOL0     H44921   0.852   6.733   0.815 -1.1579 -1.6381 -0.8130
  333MOL0     H44922   0.711   6.671   0.909 -0.4533  0.9418 -0.9141
  333MOL0     H44923   0.773   6.821   1.095  1.3161  0.3948  0.8970
  333MOL0     H44924   0.942   6.824   1.043  0.0688  1.3781  1.1911
  333MOL0     H44925   0.711   6.958   0.884  1.6208  5.1237 -2.3226
  333MOL0     H44926   0.873   6.969   0.844 -0.7574  0.0012 -0.3840
  333MOL0     H44927   0.901   7.063   1.089 -1.2077  0.7388  1.7428
  333MOL0     H44928   0.732   7.047   1.108  0.2050  0.8278  0.6744
  333MOL0     H44929   0.832   7.207   0.865  3.2406 -1.3396  1.9006
  333MOL0     H44930   0.673   7.210   0.952 -0.2924 -0.0306  0.9295
  333MOL0     H44931   0.879   7.302   1.142 -0.7316  1.5171  1.5889
  333MOL0     H44932   0.740   7.377   1.067 -2.7333 -3.6378 -1.1567
  333MOL0     H44933   0.978   7.472   1.028 -0.3715 -0.7208  1.3537
  333MOL0     H44934   1.010   7.344   0.924  1.5406  3.2093  0.5584
  333MOL0     H44935   0.867   6.461   1.311 -4.5981 -0.9714  1.2115
  333MOL0     H44936   0.901   6.226   1.402  0.0302  0.0833 -0.5127
  333MOL0     H44937   0.932   5.744   1.348  2.0114 -0.5702 -3.0364
  333MOL0     H44938   0.971   5.556   1.489  2.0669 -1.1003  2.6865
  333MOL0     H44939   2.606   5.010   2.546 -1.9670  2.4088  2.5074
  333MOL0     H44940   2.806   5.006   2.670  3.6349 -3.5844 -2.4020
  333MOL0     H44941   3.396   4.969   2.529 -0.2566  0.6918 -0.5330
  333MOL0     H44942   3.610   5.013   2.636  0.3880  1.4751  0.2253
  333MOL0     H44943   3.610   5.182   3.030  0.8897 -0.2308 -0.3486
  333MOL0     H44944   3.652   5.328   2.926 -1.9499  0.2378 -1.7960
  333MOL0     H44945   3.881   5.276   2.922  0.1765  3.2298  1.0076
  333MOL0     H44946   3.860   5.124   3.020 -4.0509 -1.2034 -0.9635
  333MOL0     H44947   3.760   5.278   3.205 -0.3063  0.4155 -1.0033
  333MOL0     H44948   3.783   5.417   3.094  2.0020  1.7498 -0.0374
  333MOL0     H44949   3.996   5.227   3.228 -1.1082 -2.0699 -1.9231
  333MOL0     H44950   4.027   5.372   3.122  0.5808  0.6612  1.7092
  333MOL0     H44951   3.881   5.608   3.415  0.9009  2.2094 -1.9742
  333MOL0     H44952   3.433   5.305   2.884 -1.4635  0.9070 -1.4198
  333MOL0     H44953   3.176   5.390   2.708 -0.4189 -0.6356 -0.2403
  333MOL0     H44954   3.101   5.280   2.823  1.2205 -0.3170  4.1268
  333MOL0     H44955   3.237   5.361   2.879  0.0750  0.9415 -1.8057
  334MOL0     O44956  11.319   2.830  10.404  0.0145  0.0205  0.1143
  334MOL0     C44957  11.354   2.935  10.356 -0.4269  0.3951  0.2221
  334MOL0     O44958  11.454   3.013  10.397 -0.2870  0.9524 -0.4136
  334MOL0     C44959  11.489   3.021  10.527  0.2363  0.7965 -0.5401
  334MOL0     C44960  11.405   3.004  10.643 -0.2430  0.6475  0.6601
  334MOL0     C44961  11.453   3.028  10.772  1.7935  0.0671  0.7706
  334MOL0     C44962  11.582   3.068  10.802 -0.2783 -0.2877 -0.4915
  334MOL0     O44963  11.639   3.077  10.929 -0.3913 -0.5267 -0.8001
  334MOL0     C44964  11.544   3.068  11.041 -0.6666 -1.4556 -1.2621
  334MOL0     C44965  11.627   3.083  11.171  0.7685  0.2484 -0.7549
  334MOL0     C44966  11.550   3.061  11.302 -0.5061  0.7083  0.1906
  334MOL0     C44967  11.643   3.092  11.423 -0.7770 -0.6650 -0.5177
  334MOL0     C44968  11.605   3.031  11.560  0.4281  0.3740 -0.6387
  334MOL0     C44969  11.477   3.090  11.625  0.9432 -1.2153 -0.2170
  334MOL0     C44970  11.401   3.018  11.734 -0.4653  0.1197 -0.5874
  334MOL0     C44971  11.356   2.877  11.708 -0.1004  0.7546 -0.0124
  334MOL0     N44972  11.237   2.885  11.625  0.4327 -0.0403  1.1170
  334MOL0     C44973  11.227   2.878  11.488 -0.1777  0.9251 -0.6380
  334MOL0     C44974  11.096   2.872  11.458 -0.8366 -0.8677 -0.8241
  334MOL0     C44975  11.036   2.836  11.327  0.2921 -0.0328 -0.1564
  334MOL0     C44976  11.058   2.945  11.224 -0.0623  0.5554 -0.2506
  334MOL0     C44977  10.965   3.056  11.263  0.4437  0.7699  0.3607
  334MOL0     C44978  10.968   3.162  11.153 -0.0611 -0.3756  0.4328
  334MOL0     O44979  11.101   3.216  11.135  0.2148  0.6462  0.4882
  334MOL0     C44980  11.129   3.308  11.036  0.8723  0.0657  0.1701
  334MOL0     C44981  11.034   3.365  10.948 -0.1336 -0.1525  0.0890
  334MOL0     C44982  11.064   3.468  10.857 -0.1594  0.2973  0.2930
  334MOL0     C44983  11.201   3.504  10.850 -0.3646 -0.2991  0.3296
  334MOL0     C44984  11.234   3.619  10.761 -1.1619  0.9466 -0.1283
  334MOL0     O44985  11.359   3.665  10.793 -0.0309 -0.9827  1.1692
  334MOL0     C44986  11.418   3.759  10.716 -0.8415  1.0445  0.0332
  334MOL0     C44987  11.487   3.708  10.604 -0.9422  0.4635 -0.2044
  334MOL0     C44988  11.579   3.784  10.532  0.3672  0.4785  0.1132
  334MOL0     C44989  11.582   3.926  10.560 -0.7484  0.1083  0.2928
  334MOL0     O44990  11.660   4.000  10.471 -0.3118  0.0924  0.1791
  334MOL0     C44991  11.685   4.142  10.495 -0.0559 -0.0893  0.0757
  334MOL0     C44992  11.816   4.194  10.428  1.0593  0.1288 -0.4518
  334MOL0     C44993  11.862   4.335  10.459 -0.9895 -0.6768 -0.6300
  334MOL0     C44994  12.020   4.336  10.439  0.2003 -0.0275 -0.6896
  334MOL0     C44995  12.072   4.290  10.309 -0.0844  0.0529 -0.8810
  334MOL0     C44996  12.214   4.331  10.292  0.4333  0.1841  0.0218
  334MOL0     C44997  12.312   4.267  10.385 -0.2506 -0.0657  0.4896
  334MOL0     C44998  12.376   4.139  10.324  0.3361  0.5009 -0.0228
  334MOL0    Cl44999  12.449   4.055  10.460 -0.0651  0.1408  0.5608
  334MOL0     C45000  11.513   3.978  10.668  0.4700  0.8428  0.9141
  334MOL0     C45001  11.429   3.891  10.747 -1.1251 -0.5663  0.4398
  334MOL0     O45002  11.172   3.646  10.658 -0.3449  0.0511 -0.1323
  334MOL0     C45003  11.289   3.464  10.948  0.8435 -0.6294 -0.4232
  334MOL0     C45004  11.255   3.358  11.037 -0.0853 -0.6440  0.2254
  334MOL0     N45005  11.029   2.880  11.580  0.7076 -0.3133  0.2336
  334MOL0     N45006  11.109   2.897  11.673  0.4917  0.8644  0.5178
  334MOL0     C45007  11.660   3.105  10.684 -0.3402  0.0927 -0.7208
  334MOL0     C45008  11.610   3.084  10.553 -0.1522  0.4451 -0.0887
  334MOL0     C45009  11.281   2.978  10.232  0.0044  0.7456 -0.9375
  334MOL0     C45010  11.277   3.112  10.202  1.4763 -0.0703  0.1497
  334MOL0     C45011  11.216   3.157  10.091 -0.0011  0.3309 -0.1327
  334MOL0     C45012  11.133   3.077  10.013  0.1765  0.0889 -0.1726
  334MOL0     O45013  11.066   3.134   9.910 -0.1972  0.3997 -0.0610
  334MOL0     C45014  10.951   3.068   9.851  0.1080  0.4871 -1.1612
  334MOL0     C45015  10.882   3.173   9.756  0.2660 -0.1950 -0.7080
  334MOL0     C45016  10.987   3.217   9.653  0.7143 -0.0736 -0.3540
  334MOL0     C45017  10.922   3.305   9.549  0.4147 -0.6664  0.3314
  334MOL0     C45018  11.031   3.371   9.475 -1.2789 -0.3867  0.3436
  334MOL0     C45019  11.121   3.426   9.419  0.3824 -0.3646 -0.3861
  334MOL0     C45020  11.122   2.941  10.044 -0.2022 -0.5190 -0.2987
  334MOL0     C45021  11.207   2.883  10.147  0.1060  0.7532  0.1958
  334MOL0     C45022  11.214   2.732  10.158 -0.7069 -0.6378 -0.7531
  334MOL0     H45023  11.302   2.974  10.629 -0.6283  1.7233  1.0371
  334MOL0     H45024  11.389   2.997  10.855  0.7402 -3.0052 -1.0227
  334MOL0     H45025  11.464   3.141  11.028  0.0034 -0.2605  0.7815
  334MOL0     H45026  11.507   2.965  11.034 -2.5718 -0.9659  0.6723
  334MOL0     H45027  11.669   3.183  11.159  0.9571  0.3064  0.2447
  334MOL0     H45028  11.718   3.023  11.173 -0.3012 -1.5872  3.0032
  334MOL0     H45029  11.515   2.958  11.295 -2.1470  0.8505  3.8390
  334MOL0     H45030  11.460   3.124  11.305 -0.2160  1.1342  0.0322
  334MOL0     H45031  11.741   3.048  11.407 -1.2725 -1.5514 -1.1889
  334MOL0     H45032  11.643   3.201  11.435 -2.4930 -0.8236  1.8074
  334MOL0     H45033  11.585   2.924  11.544  0.8631  0.4861 -2.1136
  334MOL0     H45034  11.689   3.048  11.627  0.5698 -0.5976 -0.5598
  334MOL0     H45035  11.491   3.196  11.648  0.5363 -1.3148  0.4968
  334MOL0     H45036  11.404   3.099  11.544  2.6867 -2.2579 -2.0078
  334MOL0     H45037  11.310   3.077  11.751 -2.7726 -3.3616  0.1566
  334MOL0     H45038  11.472   3.013  11.817  3.0957  0.8862 -3.3413
  334MOL0     H45039  11.431   2.813  11.661 -0.8900 -0.1978 -0.0260
  334MOL0     H45040  11.332   2.836  11.807  2.7597  0.9491  0.8521
  334MOL0     H45041  11.299   2.857  11.409 -2.7137 -1.2472 -2.5551
  334MOL0     H45042  11.089   2.754  11.278  0.0868  0.2822 -0.9246
  334MOL0     H45043  10.929   2.820  11.341 -0.1373  1.4001 -1.5270
  334MOL0     H45044  11.162   2.979  11.223  0.3685 -0.7230 -0.5772
  334MOL0     H45045  11.037   2.917  11.121 -2.7179  1.0293  0.0914
  334MOL0     H45046  10.994   3.095  11.361  0.7913  1.7399 -0.1127
  334MOL0     H45047  10.860   3.026  11.269  0.9915 -1.6923 -1.0751
  334MOL0     H45048  10.904   3.248  11.174  0.2570  0.5397 -2.0103
  334MOL0     H45049  10.929   3.114  11.063  1.6208  0.0913 -0.5886
  334MOL0     H45050  10.930   3.337  10.957 -0.2262  0.1627 -0.0142
  334MOL0     H45051  10.994   3.514  10.789 -1.4790 -0.1546  1.3052
  334MOL0     H45052  11.492   3.600  10.596  0.0200  0.2588  2.1778
  334MOL0     H45053  11.642   3.740  10.456 -0.3864 -1.8278  0.7434
  334MOL0     H45054  11.604   4.213  10.472  1.1680  1.7808  1.2638
  334MOL0     H45055  11.700   4.158  10.602 -0.1676 -1.1173  0.2502
  334MOL0     H45056  11.892   4.137  10.483 -0.6873  1.1429  3.3373
  334MOL0     H45057  11.823   4.156  10.326 -0.9308 -3.0568  0.4596
  334MOL0     H45058  11.823   4.405  10.385 -0.1429 -0.1235 -0.5685
  334MOL0     H45059  11.841   4.367  10.561  2.0381 -2.4593  0.7007
  334MOL0     H45060  12.057   4.269  10.517 -3.1574  0.0836  1.2145
  334MOL0     H45061  12.045   4.440  10.463  1.2857 -0.4260 -0.0033
  334MOL0     H45062  12.006   4.331  10.232  0.5745 -1.0989 -2.1081
  334MOL0     H45063  12.071   4.180  10.306  1.3112  0.0318 -1.4786
  334MOL0     H45064  12.251   4.328  10.189  1.4964  2.3220  0.2821
  334MOL0     H45065  12.211   4.438  10.311 -1.4500  0.3835 -1.1994
  334MOL0     H45066  12.265   4.241  10.480  0.7422 -2.4911  0.4029
  334MOL0     H45067  12.382   4.347  10.410 -1.0646  0.7590  0.1783
  334MOL0     H45068  12.295   4.079  10.280 -0.7917  0.2082  2.2802
  334MOL0     H45069  12.445   4.174  10.247  2.3456  1.6479  2.1382
  334MOL0     H45070  11.532   4.082  10.691  3.4560  0.9309 -1.3365
  334MOL0     H45071  11.372   3.939  10.826  0.5823  4.1950 -0.8879
  334MOL0     H45072  11.396   3.481  10.948  1.0957 -1.0866  3.9363
  334MOL0     H45073  11.331   3.312  11.099  0.9935 -0.9297 -1.2448
  334MOL0     H45074  11.762   3.139  10.695 -0.7770  1.2203  0.0227
  334MOL0     H45075  11.665   3.105  10.461 -0.5475 -0.8167 -0.6260
  334MOL0     H45076  11.334   3.186  10.257  0.9543 -0.2040  0.8903
  334MOL0     H45077  11.220   3.261  10.061  2.2715  0.2660 -0.2727
  334MOL0     H45078  10.879   3.038   9.929 -0.2540 -1.3714 -2.1593
  334MOL0     H45079  10.977   2.983   9.788 -0.4969  0.4366 -1.3531
  334MOL0     H45080  10.850   3.262   9.811  1.3776 -0.4556  0.4113
  334MOL0     H45081  10.808   3.119   9.697 -0.7702  0.8359 -0.3773
  334MOL0     H45082  11.024   3.133   9.593  1.5930  2.7555 -4.0978
  334MOL0     H45083  11.071   3.265   9.703  0.4413  2.2181 -1.9159
  334MOL0     H45084  10.865   3.243   9.479  1.7639  0.8518 -2.2577
  334MOL0     H45085  10.854   3.383   9.583  2.4670  2.5998 -2.3494
  334MOL0     H45086  11.203   3.478   9.375  2.4734 -3.4118 -0.3932
  334MOL0     H45087  11.067   2.868   9.985 -0.4721  0.7776 -1.6862
  334MOL0     H45088  11.186   2.687  10.062 -3.4787  2.2604 -1.4529
  334MOL0     H45089  11.315   2.703  10.188 -0.7550  1.0231  1.1755
  334MOL0     H45090  11.153   2.689  10.237  1.0226 -0.5798  0.6812
  335MOL0     O45091  10.004   3.682   9.456  0.3228  0.2123  0.0964
  335MOL0     C45092  10.122   3.687   9.472 -0.7442  0.4105 -1.3750
  335MOL0     O45093  10.207   3.742   9.380  0.2502 -0.3585  0.2969
  335MOL0     C45094  10.160   3.794   9.262  0.7202 -1.1218 -0.0900
  335MOL0     C45095  10.065   3.721   9.184 -0.5078 -0.7787  0.2019
  335MOL0     C45096  10.035   3.770   9.056  0.8172  0.6050 -0.2612
  335MOL0     C45097  10.077   3.882   9.002 -0.1362 -0.0366 -0.3453
  335MOL0     O45098  10.036   3.918   8.876 -0.1253  0.1119  0.6842
  335MOL0     C45099  10.078   4.043   8.828  0.1981  0.8804  0.8231
  335MOL0     C45100  10.011   4.063   8.690  0.0307  1.1063 -0.4018
  335MOL0     C45101  10.040   4.198   8.629  0.1973  0.5315 -0.4292
  335MOL0     C45102   9.973   4.225   8.497 -0.2882  0.0800 -0.5327
  335MOL0     C45103  10.028   4.346   8.425 -0.9422  0.4764 -0.1206
  335MOL0     C45104   9.968   4.362   8.288  0.1485 -1.1053  0.1285
  335MOL0     C45105  10.021   4.488   8.219  0.3346  0.2377  0.3492
  335MOL0     C45106  10.172   4.500   8.196 -0.0910 -0.6053  0.4285
  335MOL0     N45107  10.241   4.583   8.299 -0.2434  0.9701  0.3323
  335MOL0     C45108  10.194   4.666   8.392  0.7327 -0.1051 -0.1757
  335MOL0     C45109  10.296   4.683   8.483  0.3187 -0.9500  0.3940
  335MOL0     C45110  10.299   4.775   8.606 -0.0006 -0.1768 -1.1423
  335MOL0     C45111  10.263   4.696   8.736  0.2622  0.6842  1.3203
  335MOL0     C45112  10.248   4.779   8.852 -0.5830 -0.6593 -0.1591
  335MOL0     C45113  10.376   4.855   8.911  0.2610  0.6667  0.1138
  335MOL0     O45114  10.392   4.983   8.843 -0.5800 -0.6267  0.5418
  335MOL0     C45115  10.417   5.101   8.913  0.7872 -0.2856 -0.1846
  335MOL0     C45116  10.498   5.096   9.022  0.4980 -0.1034 -0.0720
  335MOL0     C45117  10.530   5.214   9.082  0.7625 -0.3418 -0.0323
  335MOL0     C45118  10.487   5.340   9.039  0.1908 -0.2896  1.0429
  335MOL0     C45119  10.534   5.464   9.097  0.8271 -0.1162  0.2879
  335MOL0     O45120  10.637   5.446   9.185  0.3640  0.1695  0.1875
  335MOL0     C45121  10.733   5.547   9.184 -0.6531 -0.1455 -0.3506
  335MOL0     C45122  10.803   5.546   9.307  0.8605 -0.8520  0.2952
  335MOL0     C45123  10.902   5.646   9.326 -0.3507 -0.2694  0.2242
  335MOL0     C45124  10.943   5.727   9.220  0.8544  1.0557 -0.9147
  335MOL0     O45125  11.033   5.827   9.254  0.5354 -0.7493  0.5909
  335MOL0     C45126  11.108   5.899   9.152 -0.5976 -0.1726  0.0250
  335MOL0     C45127  11.047   6.038   9.106 -0.5489 -0.9511  0.0122
  335MOL0     C45128  11.000   6.134   9.223 -0.4044 -0.6852  0.2694
  335MOL0     C45129  10.895   6.236   9.174 -0.2102  0.4278  0.1915
  335MOL0     C45130  10.842   6.320   9.290  0.1031 -0.6484 -0.8711
  335MOL0     C45131  10.715   6.397   9.245  0.3908 -0.1371  0.0218
  335MOL0     C45132  10.640   6.440   9.369  0.0220 -0.5946 -0.2764
  335MOL0     C45133  10.498   6.486   9.331 -0.2744  0.1556  1.0027
  335MOL0    Cl45134  10.490   6.596   9.186  0.3054 -0.1131 -0.2396
  335MOL0     C45135  10.876   5.721   9.093  0.7671 -0.1477  0.0865
  335MOL0     C45136  10.772   5.627   9.074  1.0386  0.1340 -0.0421
  335MOL0     O45137  10.493   5.573   9.055 -0.3532 -0.7714  0.3838
  335MOL0     C45138  10.388   5.345   8.934  0.4847  0.7973 -0.0258
  335MOL0     C45139  10.365   5.226   8.863  0.0625 -0.3433 -0.6968
  335MOL0     N45140  10.405   4.600   8.447  0.5975  0.0679  0.5796
  335MOL0     N45141  10.366   4.547   8.340  0.0024  0.2073  0.4947
  335MOL0     C45142  10.171   3.965   9.083 -0.3752 -0.2400 -0.1597
  335MOL0     C45143  10.217   3.916   9.207  0.4505 -0.4349  0.2333
  335MOL0     C45144  10.182   3.631   9.596 -0.6105  0.0020  0.5055
  335MOL0     C45145  10.323   3.648   9.599 -0.7232 -0.9944  0.0386
  335MOL0     C45146  10.389   3.598   9.714 -0.4353 -0.0207 -0.2377
  335MOL0     C45147  10.336   3.520   9.814  0.1309 -0.2591 -0.0610
  335MOL0     O45148  10.423   3.480   9.908 -0.4150  0.4375  0.2899
  335MOL0     C45149  10.365   3.391  10.012 -0.1256  1.0145  0.3104
  335MOL0     C45150  10.439   3.403  10.150  0.1751  0.4319  0.2521
  335MOL0     C45151  10.582   3.442  10.144 -1.3562 -0.0206  0.8667
  335MOL0     C45152  10.673   3.352  10.059 -0.1009  0.4279 -0.4030
  335MOL0     C45153  10.681   3.217  10.109 -0.2570  0.0093 -0.5304
  335MOL0     C45154  10.679   3.106  10.152  0.4743 -0.2078 -1.5728
  335MOL0     C45155  10.196   3.503   9.812  0.8020  0.1364  0.6763
  335MOL0     C45156  10.122   3.566   9.711 -0.2096 -0.6694  0.6094
  335MOL0     C45157   9.976   3.532   9.703 -0.0136  0.4304  0.1666
  335MOL0     H45158  10.035   3.619   9.206  0.2282 -0.9880  0.2712
  335MOL0     H45159   9.975   3.712   8.986  0.0344 -0.4835  1.2486
  335MOL0     H45160  10.052   4.129   8.890  0.6353  1.0289  0.8081
  335MOL0     H45161  10.188   4.038   8.823  0.2662 -0.0559  2.5816
  335MOL0     H45162   9.902   4.060   8.696 -0.2084  1.5837 -3.1178
  335MOL0     H45163  10.052   3.988   8.622  1.4082  1.8172 -0.3822
  335MOL0     H45164  10.149   4.205   8.623  0.1586 -0.0192 -2.2388
  335MOL0     H45165  10.009   4.285   8.688 -0.7304  0.1100 -0.2817
  335MOL0     H45166   9.988   4.128   8.451 -1.5649 -1.6960  2.4771
  335MOL0     H45167   9.867   4.239   8.520 -0.1523 -1.6728  1.4611
  335MOL0     H45168   9.999   4.432   8.487  0.5311 -0.1363  1.4900
  335MOL0     H45169  10.135   4.329   8.416 -1.0845  0.1821 -1.3844
  335MOL0     H45170   9.965   4.271   8.227 -0.9416 -1.1009  0.1431
  335MOL0     H45171   9.861   4.373   8.309 -0.6358 -5.4359 -0.6424
  335MOL0     H45172   9.977   4.577   8.267 -2.6252 -2.1326  2.4343
  335MOL0     H45173   9.972   4.502   8.123  0.2901  0.8059  0.4508
  335MOL0     H45174  10.213   4.398   8.198  0.3939 -0.4167  0.1992
  335MOL0     H45175  10.186   4.538   8.094  2.8186 -0.8749  0.6458
  335MOL0     H45176  10.095   4.712   8.390  1.4281  1.5080  0.5259
  335MOL0     H45177  10.399   4.819   8.619 -0.1935  1.1259 -3.5210
  335MOL0     H45178  10.227   4.857   8.599 -3.5246 -2.9533 -0.5162
  335MOL0     H45179  10.176   4.636   8.709  0.6210  1.8209 -3.2894
  335MOL0     H45180  10.346   4.627   8.753  0.6810  0.7004 -0.4710
  335MOL0     H45181  10.222   4.696   8.919  1.5406 -2.0899 -0.9996
  335MOL0     H45182  10.163   4.847   8.842 -0.1664  0.2181  1.6998
  335MOL0     H45183  10.467   4.794   8.906  1.1351  1.8286  1.0212
  335MOL0     H45184  10.359   4.884   9.015 -3.3010  0.8246 -0.3808
  335MOL0     H45185  10.553   5.011   9.061  1.7036 -0.0350 -1.5184
  335MOL0     H45186  10.592   5.220   9.170  0.9464 -0.0491 -0.1821
  335MOL0     H45187  10.773   5.489   9.393  0.0082 -0.0599  0.5357
  335MOL0     H45188  10.939   5.667   9.426 -1.4648  2.5702  0.1381
  335MOL0     H45189  11.207   5.930   9.187 -1.3064  3.4243 -0.7449
  335MOL0     H45190  11.122   5.836   9.064 -0.2443 -0.6877  0.4392
  335MOL0     H45191  11.129   6.091   9.056  0.9404 -1.9153  1.3045
  335MOL0     H45192  10.971   6.025   9.029  1.4544  3.1585 -3.0674
  335MOL0     H45193  10.963   6.070   9.304 -0.0814 -1.0540  0.1289
  335MOL0     H45194  11.084   6.190   9.265  0.4650 -0.1581 -2.0349
  335MOL0     H45195  10.819   6.166   9.140  2.3860 -3.1071  1.1643
  335MOL0     H45196  10.928   6.285   9.082  0.9384 -2.9014 -1.3298
  335MOL0     H45197  10.913   6.390   9.335  0.7825 -0.3844 -2.2961
  335MOL0     H45198  10.819   6.249   9.370  0.2498 -2.3498 -2.2802
  335MOL0     H45199  10.753   6.481   9.186  1.8089 -2.9476 -3.4651
  335MOL0     H45200  10.643   6.339   9.187 -5.2387  2.5953  3.3506
  335MOL0     H45201  10.689   6.532   9.401 -1.3189  1.0922 -2.6977
  335MOL0     H45202  10.636   6.375   9.457 -0.1998  1.4327  1.2737
  335MOL0     H45203  10.432   6.404   9.301  0.3417  0.5502 -1.6446
  335MOL0     H45204  10.447   6.537   9.413 -0.2925 -0.3070  1.2828
  335MOL0     H45205  10.888   5.791   9.011 -3.1898  0.0341 -0.5224
  335MOL0     H45206  10.722   5.612   8.979 -1.1124 -0.9788  1.1851
  335MOL0     H45207  10.348   5.439   8.895 -3.6461 -0.2579  1.1930
  335MOL0     H45208  10.305   5.228   8.773  2.2349  0.2096 -2.1989
  335MOL0     H45209  10.209   4.062   9.057 -0.0859  0.3696  2.2666
  335MOL0     H45210  10.289   3.975   9.263 -1.3949  2.6299 -0.4219
  335MOL0     H45211  10.373   3.714   9.528  1.4204 -1.9610  0.5738
  335MOL0     H45212  10.493   3.624   9.730 -0.7283  1.2764 -0.3516
  335MOL0     H45213  10.370   3.290   9.970  1.2783  0.0918  2.5033
  335MOL0     H45214  10.260   3.412  10.036 -0.1591 -0.5223  1.6393
  335MOL0     H45215  10.426   3.316  10.214  2.7077 -0.8277 -0.7706
  335MOL0     H45216  10.383   3.482  10.200  0.2904  0.0239  1.0470
  335MOL0     H45217  10.616   3.441  10.248 -3.4134 -2.5381  1.6312
  335MOL0     H45218  10.606   3.542  10.107  2.4153 -1.2311 -0.4089
  335MOL0     H45219  10.652   3.337   9.952  0.7355 -0.5828 -0.4436
  335MOL0     H45220  10.774   3.390  10.073  0.1447  0.2404 -1.5780
  335MOL0     H45221  10.648   3.012  10.193 -0.0085  0.4193 -0.4652
  335MOL0     H45222  10.130   3.449   9.878  0.7957 -0.4468  0.2021
  335MOL0     H45223   9.932   3.534   9.804 -2.1364  1.0632 -0.7190
  335MOL0     H45224   9.922   3.610   9.647 -0.3494 -0.2422 -0.4571
  335MOL0     H45225   9.960   3.440   9.647  3.2416 -0.3515  0.3773
  336MOL0     O45226   5.833   2.302   1.750  0.2327  0.0771 -0.1906
  336MOL0     C45227   5.828   2.177   1.738  0.0201 -0.4527 -0.3598
  336MOL0     O45228   5.887   2.091   1.823 -0.7852 -0.5991 -0.4059
  336MOL0     C45229   6.020   2.112   1.853  0.3290 -0.4214 -0.0071
  336MOL0     C45230   6.084   2.225   1.892 -0.2052 -0.1774 -0.0859
  336MOL0     C45231   6.226   2.227   1.913  0.1214  0.5168  0.9051
  336MOL0     C45232   6.308   2.114   1.885  0.1343  0.2429  0.0332
  336MOL0     O45233   6.441   2.103   1.891  0.2077  0.0835 -0.5479
  336MOL0     C45234   6.506   2.213   1.830  0.0752  0.4681  0.0797
  336MOL0     C45235   6.648   2.166   1.820  0.8379 -0.8228  0.3572
  336MOL0     C45236   6.742   2.288   1.821  0.0226  0.7838  0.3093
  336MOL0     C45237   6.882   2.257   1.779 -1.6349 -0.2139 -0.3950
  336MOL0     C45238   6.960   2.363   1.846 -0.9504 -0.3725  0.0105
  336MOL0     C45239   7.111   2.356   1.813 -0.2031  0.1176  0.2151
  336MOL0     C45240   7.190   2.244   1.882  0.7056  0.9209 -0.6282
  336MOL0     C45241   7.162   2.243   2.037  0.1189  0.8780 -0.5345
  336MOL0     N45242   7.249   2.139   2.096 -0.0240  0.6923 -0.6413
  336MOL0     C45243   7.382   2.113   2.070 -0.0801  0.0317  0.1047
  336MOL0     C45244   7.409   2.010   2.156 -0.2485 -0.3781 -0.1973
  336MOL0     C45245   7.548   1.960   2.174  0.2538  0.1093  0.7088
  336MOL0     C45246   7.650   2.062   2.209  0.0579  0.2561  0.6622
  336MOL0     C45247   7.787   1.992   2.214 -0.9472  0.0912 -0.8060
  336MOL0     C45248   7.895   2.075   2.290 -0.0883  1.0253  0.9074
  336MOL0     O45249   7.947   2.184   2.206 -0.3905  0.2150 -0.8920
  336MOL0     C45250   8.073   2.174   2.143 -0.0669  0.6982 -0.2051
  336MOL0     C45251   8.178   2.083   2.167  0.3867 -0.6093  0.0882
  336MOL0     C45252   8.295   2.078   2.094  0.1559 -0.4953 -0.4879
  336MOL0     C45253   8.322   2.167   1.994 -0.7244  0.0420 -0.0038
  336MOL0     C45254   8.460   2.174   1.937 -0.1616 -0.5580  0.0831
  336MOL0     O45255   8.498   2.291   1.880 -0.3861  0.1602  0.4087
  336MOL0     C45256   8.620   2.327   1.829  0.3723 -0.0511 -0.3201
  336MOL0     C45257   8.647   2.466   1.812 -0.0204 -1.1088  0.7416
  336MOL0     C45258   8.769   2.511   1.765  0.5589  0.2361  0.9753
  336MOL0     C45259   8.870   2.428   1.736 -0.5170  1.1443 -0.1320
  336MOL0     O45260   8.990   2.466   1.686 -0.1310 -0.1529  0.2572
  336MOL0     C45261   8.985   2.444   1.538  0.1430  0.8859  0.1752
  336MOL0     C45262   9.067   2.531   1.446  0.9795 -1.1462  0.2110
  336MOL0     C45263   9.208   2.541   1.501  0.5833  0.5421 -0.8789
  336MOL0     C45264   9.289   2.652   1.443  0.0169 -0.3567  0.0548
  336MOL0     C45265   9.229   2.784   1.474 -0.4644 -0.1926 -1.7640
  336MOL0     C45266   9.327   2.898   1.457 -0.0762 -0.9806  0.4637
  336MOL0     C45267   9.434   2.907   1.563  0.5138  0.2465  0.4017
  336MOL0     C45268   9.383   2.956   1.699 -0.5410 -0.1662  0.1911
  336MOL0    Cl45269   9.519   2.977   1.812  0.3563 -0.3307 -0.0592
  336MOL0     C45270   8.848   2.292   1.755 -0.2435  0.0150  0.0827
  336MOL0     C45271   8.721   2.241   1.796  0.2182  0.5482 -0.1014
  336MOL0     O45272   8.528   2.070   1.943  0.2537  0.2203 -0.3220
  336MOL0     C45273   8.223   2.266   1.971 -0.7327 -0.3613 -1.1824
  336MOL0     C45274   8.096   2.269   2.039 -0.6340  0.3439 -0.0095
  336MOL0     N45275   7.295   1.964   2.222 -0.4082 -0.6992  0.1347
  336MOL0     N45276   7.207   2.051   2.185  0.2294 -0.0195 -0.2064
  336MOL0     C45277   6.245   2.002   1.829  0.0689 -0.6336  1.0301
  336MOL0     C45278   6.103   2.000   1.820 -0.1246 -0.2838  0.3535
  336MOL0     C45279   5.729   2.120   1.630 -0.5318  0.1175  0.2526
  336MOL0     C45280   5.637   2.217   1.580 -1.1375 -1.0852  0.3000
  336MOL0     C45281   5.553   2.186   1.466 -0.3602  0.7940 -0.3512
  336MOL0     C45282   5.565   2.059   1.405 -0.2299 -0.4521  0.3298
  336MOL0     O45283   5.482   2.037   1.294 -0.7637  0.2294 -1.1832
  336MOL0     C45284   5.362   1.971   1.325 -0.2711 -0.4071  1.0117
  336MOL0     C45285   5.281   1.940   1.199 -0.5306  0.3341 -0.0303
  336MOL0     C45286   5.364   1.878   1.088  0.2671  0.6344  0.5123
  336MOL0     C45287   5.273   1.800   0.994 -0.1201  0.4638  0.3743
  336MOL0     C45288   5.186   1.880   0.921  0.1177 -0.0155 -0.2485
  336MOL0     C45289   5.115   1.953   0.857  0.5991  0.5099 -1.3315
  336MOL0     C45290   5.660   1.964   1.464  0.6498  0.5099  0.2700
  336MOL0     C45291   5.740   1.991   1.574 -0.1719  0.5509  0.0913
  336MOL0     C45292   5.844   1.884   1.605  0.3931 -0.5158 -1.1559
  336MOL0     H45293   6.021   2.312   1.910  3.4055  2.0749  3.4045
  336MOL0     H45294   6.269   2.320   1.949 -0.8612  0.9876  0.8986
  336MOL0     H45295   6.469   2.237   1.730  0.1823 -1.8834 -0.5836
  336MOL0     H45296   6.511   2.304   1.890  0.4884  0.5682 -0.1083
  336MOL0     H45297   6.659   2.108   1.728  0.3273 -1.2732  0.5761
  336MOL0     H45298   6.675   2.090   1.893 -0.7581 -4.9345 -2.9311
  336MOL0     H45299   6.734   2.330   1.922  1.6269  0.4079  0.6154
  336MOL0     H45300   6.715   2.362   1.744  3.7621 -0.7158 -2.7478
  336MOL0     H45301   6.913   2.158   1.812 -2.2152 -0.1554  0.3458
  336MOL0     H45302   6.887   2.260   1.670  0.0700  2.1371 -0.3516
  336MOL0     H45303   6.924   2.462   1.816  0.3156  1.1960  3.2303
  336MOL0     H45304   6.952   2.364   1.955  2.4588 -0.3740  0.3733
  336MOL0     H45305   7.132   2.354   1.706  0.3341 -0.9299  0.3274
  336MOL0     H45306   7.150   2.453   1.846  1.1324  0.1914 -1.4610
  336MOL0     H45307   7.296   2.257   1.857  0.7237  3.5464  0.4384
  336MOL0     H45308   7.148   2.154   1.838 -2.7700  2.4525 -0.7630
  336MOL0     H45309   7.199   2.342   2.066 -0.2943  0.7373  0.5113
  336MOL0     H45310   7.061   2.232   2.077  1.5588  0.3961  3.5147
  336MOL0     H45311   7.440   2.167   1.996 -3.1026 -0.7663 -3.1333
  336MOL0     H45312   7.549   1.897   2.263  0.6787  0.0391  0.6571
  336MOL0     H45313   7.582   1.917   2.079 -0.5079  2.5351 -0.7392
  336MOL0     H45314   7.659   2.133   2.127  2.9804 -0.5094  0.2254
  336MOL0     H45315   7.629   2.114   2.303  2.9893  1.2446  0.8722
  336MOL0     H45316   7.814   1.961   2.113  1.5731  1.4035 -0.6035
  336MOL0     H45317   7.782   1.898   2.270 -0.7031  1.3619  1.4736
  336MOL0     H45318   7.979   2.019   2.332  1.4238  3.8030  1.7932
  336MOL0     H45319   7.847   2.120   2.378 -2.9074 -2.0087  1.1340
  336MOL0     H45320   8.174   1.997   2.234  2.1752 -0.2314  0.7561
  336MOL0     H45321   8.373   2.010   2.126  1.0382  0.8377  0.2897
  336MOL0     H45322   8.583   2.548   1.841  0.5768  1.5818 -4.4321
  336MOL0     H45323   8.790   2.616   1.746 -0.9068  0.5314  0.9194
  336MOL0     H45324   9.002   2.338   1.514 -0.0414  0.3647  2.1640
  336MOL0     H45325   8.884   2.459   1.498  0.4820  0.5719 -0.8283
  336MOL0     H45326   9.062   2.480   1.350  2.6732 -1.4501  0.2632
  336MOL0     H45327   9.028   2.632   1.429  2.4158 -1.0521 -3.2585
  336MOL0     H45328   9.208   2.543   1.610 -2.9262 -1.3670 -0.7224
  336MOL0     H45329   9.268   2.452   1.476  2.7826  1.8881 -0.6631
  336MOL0     H45330   9.287   2.644   1.334 -2.0748  0.0473  0.0188
  336MOL0     H45331   9.386   2.633   1.489 -0.2300 -1.5172  0.1441
  336MOL0     H45332   9.187   2.782   1.575 -1.6013  2.5161 -2.1012
  336MOL0     H45333   9.136   2.798   1.419 -2.8438 -0.9822  1.7389
  336MOL0     H45334   9.373   2.882   1.360 -1.9958 -1.4694 -0.4148
  336MOL0     H45335   9.274   2.994   1.451  1.4800 -0.1351 -0.3372
  336MOL0     H45336   9.509   2.981   1.536  0.6541 -0.5679 -1.6760
  336MOL0     H45337   9.473   2.807   1.581  1.2229  0.3441 -0.5394
  336MOL0     H45338   9.332   3.052   1.686  1.8303  1.0473 -0.6680
  336MOL0     H45339   9.312   2.889   1.748 -0.2026  0.3684  1.4389
  336MOL0     H45340   8.931   2.223   1.746  0.4149  0.5778  1.5386
  336MOL0     H45341   8.726   2.134   1.814  0.2226  0.5119 -0.3196
  336MOL0     H45342   8.246   2.343   1.897 -2.6242  0.8130 -0.6228
  336MOL0     H45343   8.022   2.341   2.004 -0.6404  0.4885  0.2987
  336MOL0     H45344   6.299   1.913   1.797  2.7792  0.9913  0.8084
  336MOL0     H45345   6.052   1.911   1.783  0.7445  1.0932 -4.9551
  336MOL0     H45346   5.625   2.313   1.629 -0.7009 -0.9705  0.1942
  336MOL0     H45347   5.499   2.269   1.422  0.3359  0.8772 -1.0588
  336MOL0     H45348   5.299   2.035   1.389  0.8053 -0.2748  1.9746
  336MOL0     H45349   5.381   1.880   1.383  1.8382 -0.5107  0.2289
  336MOL0     H45350   5.217   2.023   1.167 -1.4797  0.7308  2.6474
  336MOL0     H45351   5.203   1.872   1.235 -2.2071  2.4919  0.6501
  336MOL0     H45352   5.441   1.810   1.124  0.5681  0.1007 -1.0439
  336MOL0     H45353   5.410   1.955   1.025  0.2906 -0.0486 -0.3326
  336MOL0     H45354   5.327   1.753   0.911 -1.3916 -0.7557  0.1989
  336MOL0     H45355   5.233   1.714   1.048 -0.0352  1.6738  2.4788
  336MOL0     H45356   5.044   2.016   0.807 -0.3356  0.2443 -0.3905
  336MOL0     H45357   5.654   1.872   1.407  0.1088  0.7537 -0.0745
  336MOL0     H45358   5.948   1.917   1.616  1.1961 -2.9041 -0.9624
  336MOL0     H45359   5.828   1.835   1.702  0.6864 -0.0135 -0.8492
  336MOL0     H45360   5.847   1.792   1.547 -1.0314 -1.6280  0.4413
  337MOL0     O45361  10.661   9.491   6.979  0.6298 -0.3153 -0.0683
  337MOL0     C45362  10.762   9.558   6.967 -0.8700 -1.1995  0.1341
  337MOL0     O45363  10.880   9.518   6.908 -0.7965 -0.5307 -0.7504
  337MOL0     C45364  10.908   9.384   6.880  0.3250 -0.8951  0.2087
  337MOL0     C45365  10.992   9.361   6.778  0.6956 -0.4670 -0.4460
  337MOL0     C45366  11.025   9.226   6.743  0.7658 -0.2297  1.3859
  337MOL0     C45367  10.973   9.122   6.812  1.1825  0.7897  0.0553
  337MOL0     O45368  10.998   8.992   6.767  0.0298 -0.6321 -0.0451
  337MOL0     C45369  11.056   8.909   6.862 -0.0321 -0.7602  0.9825
  337MOL0     C45370  11.159   8.829   6.784 -0.5399  0.0922  0.5199
  337MOL0     C45371  11.288   8.903   6.751 -0.9183 -0.9288  0.2740
  337MOL0     C45372  11.379   8.826   6.655  0.0782  0.3758  0.0494
  337MOL0     C45373  11.526   8.858   6.674 -0.3857  0.1284 -0.9347
  337MOL0     C45374  11.631   8.805   6.573 -0.5733 -0.7414  0.2306
  337MOL0     C45375  11.756   8.887   6.598 -0.7526 -1.0101  0.0519
  337MOL0     C45376  11.836   8.851   6.728  1.1376 -1.0334  0.4593
  337MOL0     N45377  11.910   8.727   6.699 -0.4840 -0.0248 -0.3623
  337MOL0     C45378  11.865   8.596   6.719 -0.3653  0.1134 -0.0604
  337MOL0     C45379  11.973   8.518   6.671 -0.0318 -0.4018 -0.4004
  337MOL0     C45380  11.991   8.371   6.707  0.0145  0.2298 -0.3182
  337MOL0     C45381  11.916   8.276   6.611 -0.0021  0.9113 -0.0093
  337MOL0     C45382  11.959   8.293   6.463 -0.1938  0.5626 -0.1780
  337MOL0     C45383  12.089   8.249   6.419 -0.1332  0.2285 -0.0349
  337MOL0     O45384  12.103   8.113   6.383  0.3614  0.4510 -0.3024
  337MOL0     C45385  12.238   8.075   6.361 -1.6804 -0.4003  0.2328
  337MOL0     C45386  12.357   8.159   6.371  0.0600  0.5972  0.1128
  337MOL0     C45387  12.484   8.107   6.347 -0.4386 -0.0065 -0.1727
  337MOL0     C45388  12.503   7.972   6.315 -0.4045 -0.3984 -0.1383
  337MOL0     C45389  12.640   7.915   6.300 -0.2284 -1.5064  1.5209
  337MOL0     O45390  12.649   7.791   6.262  0.1589  0.2685  0.2564
  337MOL0     C45391  12.773   7.725   6.258 -1.0085 -0.5987  0.8170
  337MOL0     C45392  12.876   7.777   6.176 -0.2179  0.0605  0.7927
  337MOL0     C45393  13.006   7.733   6.196  0.1050  1.1425  0.7913
  337MOL0     C45394  13.035   7.611   6.256 -0.0106 -0.5968 -0.5117
  337MOL0     O45395  13.162   7.550   6.271  0.6509  0.3529 -0.6810
  337MOL0     C45396  13.280   7.579   6.193 -0.7991  0.4604  0.1132
  337MOL0     C45397  13.376   7.460   6.194 -0.1103 -0.0005  0.7809
  337MOL0     C45398  13.439   7.416   6.331 -1.2831  0.3937 -0.1359
  337MOL0     C45399  13.477   7.265   6.314 -0.6233  0.3614 -0.5058
  337MOL0     C45400  13.550   7.196   6.436  0.0526 -0.6733  0.1507
  337MOL0     C45401  13.632   7.065   6.392  0.1960 -0.8291 -0.3276
  337MOL0     C45402  13.551   6.958   6.309  0.8203 -0.0674  0.3546
  337MOL0     C45403  13.613   6.812   6.315  0.3883  0.1519 -0.1317
  337MOL0    Cl45404  13.470   6.701   6.302 -0.2242 -0.1648 -0.0362
  337MOL0     C45405  12.932   7.554   6.330  0.6012 -0.9000 -0.3229
  337MOL0     C45406  12.806   7.613   6.339 -0.2601 -0.4025  0.2334
  337MOL0     O45407  12.741   7.989   6.316  0.2721  0.3067  0.5147
  337MOL0     C45408  12.388   7.894   6.305  0.0803  0.3525 -1.0778
  337MOL0     C45409  12.260   7.941   6.335  0.1340  0.0212  1.0188
  337MOL0     N45410  12.073   8.598   6.625 -0.2579 -0.1173  0.7792
  337MOL0     N45411  12.041   8.719   6.641  1.0907 -0.7179  0.0371
  337MOL0     C45412  10.873   9.146   6.916  0.6834  0.6444  0.7573
  337MOL0     C45413  10.853   9.275   6.952 -0.1193  0.0436  0.2042
  337MOL0     C45414  10.752   9.700   7.017  0.0274 -0.6045 -0.2100
  337MOL0     C45415  10.823   9.798   6.946  0.4272 -0.0965  0.2092
  337MOL0     C45416  10.792   9.929   6.973 -0.6656 -0.1769  0.3810
  337MOL0     C45417  10.704   9.973   7.074 -0.4793  0.9243  1.3099
  337MOL0     O45418  10.708  10.097   7.114 -0.5013  0.3747  0.0589
  337MOL0     C45419  10.583  10.172   7.110  0.1315 -0.3467 -0.0186
  337MOL0     C45420  10.492  10.148   6.981 -0.3406 -0.1495  0.6880
  337MOL0     C45421  10.378  10.250   6.979  0.4786  0.1070  0.4108
  337MOL0     C45422  10.281  10.233   6.856 -0.3063  0.4400  0.3404
  337MOL0     C45423  10.202  10.113   6.861  0.9354  0.9310 -0.7086
  337MOL0     C45424  10.138  10.008   6.853 -1.3249 -0.4889  0.6018
  337MOL0     C45425  10.635   9.875   7.147 -0.2004  0.3501 -0.2485
  337MOL0     C45426  10.659   9.744   7.116  1.3016 -0.1067 -0.2153
  337MOL0     C45427  10.583   9.650   7.209 -0.2235  0.5855  0.3518
  337MOL0     H45428  11.044   9.439   6.723 -2.4074  2.2819  0.1732
  337MOL0     H45429  11.075   9.208   6.648 -1.6203  1.0662 -0.2351
  337MOL0     H45430  11.095   8.965   6.947 -2.9725  1.4562  1.0357
  337MOL0     H45431  10.977   8.843   6.898  0.5838 -1.5315  0.9690
  337MOL0     H45432  11.118   8.795   6.689  1.6642 -0.1003 -0.4396
  337MOL0     H45433  11.200   8.742   6.838  0.5472 -0.6436 -1.3684
  337MOL0     H45434  11.338   8.926   6.845 -0.6842 -2.9577  0.6925
  337MOL0     H45435  11.268   9.002   6.708  3.4255 -0.2604 -0.6875
  337MOL0     H45436  11.384   8.721   6.683  2.3184  0.5664  0.5189
  337MOL0     H45437  11.340   8.844   6.554  1.9803  0.9524 -0.6131
  337MOL0     H45438  11.530   8.967   6.665  0.8593  0.7513  4.0205
  337MOL0     H45439  11.547   8.832   6.778 -1.2276 -0.6144 -0.9399
  337MOL0     H45440  11.638   8.701   6.604 -3.8918 -1.1982 -0.2548
  337MOL0     H45441  11.599   8.805   6.469  1.0948 -1.6976 -0.3264
  337MOL0     H45442  11.728   8.992   6.612 -0.6344 -1.2757  2.6945
  337MOL0     H45443  11.822   8.898   6.511  1.2372  0.4414  1.6289
  337MOL0     H45444  11.918   8.923   6.734  0.5320 -0.4420  2.4896
  337MOL0     H45445  11.780   8.864   6.820 -0.0652  0.9055 -0.4714
  337MOL0     H45446  11.779   8.560   6.775 -0.1339  0.7299  0.7128
  337MOL0     H45447  12.094   8.338   6.721 -0.5734 -0.3436  3.5474
  337MOL0     H45448  11.950   8.372   6.808  0.9512  1.7639  0.0873
  337MOL0     H45449  11.932   8.171   6.640 -3.6836  0.1429 -0.1824
  337MOL0     H45450  11.809   8.296   6.626 -0.0859 -1.3431  3.4527
  337MOL0     H45451  11.956   8.400   6.442  0.1735  0.3897 -1.1665
  337MOL0     H45452  11.877   8.251   6.405 -1.3523 -0.9053  2.3331
  337MOL0     H45453  12.165   8.274   6.494 -2.1737  3.1377  1.2433
  337MOL0     H45454  12.113   8.318   6.337 -2.3734 -0.0431 -0.9968
  337MOL0     H45455  12.344   8.267   6.377  3.0389  0.9201  3.0021
  337MOL0     H45456  12.579   8.156   6.368 -0.4521 -0.1293  0.1772
  337MOL0     H45457  12.866   7.863   6.111  0.3440 -0.7152 -0.3507
  337MOL0     H45458  13.085   7.778   6.136  0.2374 -0.3879 -0.2521
  337MOL0     H45459  13.263   7.612   6.090  2.2244 -2.8854 -1.6674
  337MOL0     H45460  13.336   7.651   6.254 -0.1555  1.2714 -1.3617
  337MOL0     H45461  13.321   7.369   6.171  0.2074  0.4903 -2.4220
  337MOL0     H45462  13.452   7.473   6.116 -0.2186  0.3086  0.7258
  337MOL0     H45463  13.536   7.463   6.345 -0.5233 -1.2372  0.3258
  337MOL0     H45464  13.370   7.423   6.416  0.7605  0.8975  1.5668
  337MOL0     H45465  13.542   7.248   6.228 -1.6146  0.5503 -1.3204
  337MOL0     H45466  13.387   7.206   6.290  0.3866 -0.6755 -1.9770
  337MOL0     H45467  13.482   7.165   6.516  0.2789  1.6007  1.3073
  337MOL0     H45468  13.613   7.268   6.489  0.1187 -3.2439  4.0096
  337MOL0     H45469  13.713   7.116   6.339 -2.6871  2.9564 -1.6034
  337MOL0     H45470  13.664   7.009   6.480 -2.9463 -2.6026 -0.1707
  337MOL0     H45471  13.541   6.989   6.205  0.7181 -0.3534  0.2773
  337MOL0     H45472  13.445   6.960   6.336 -0.5615 -1.7511 -4.1382
  337MOL0     H45473  13.687   6.794   6.237 -0.2010  0.7022 -0.8249
  337MOL0     H45474  13.661   6.784   6.410 -2.3600 -2.3522  0.6861
  337MOL0     H45475  12.965   7.471   6.391  4.6204  0.4849 -0.3307
  337MOL0     H45476  12.734   7.574   6.410 -1.7856 -1.3465 -1.7069
  337MOL0     H45477  12.400   7.792   6.272  5.5459  0.1670  0.5398
  337MOL0     H45478  12.174   7.879   6.312  0.7436  0.4633 -3.4203
  337MOL0     H45479  10.819   9.060   6.955 -0.3104  0.7002 -0.4475
  337MOL0     H45480  10.773   9.289   7.024 -0.6766 -1.9179  0.0040
  337MOL0     H45481  10.893   9.781   6.865 -0.8237  1.0649 -1.1511
  337MOL0     H45482  10.844  10.009   6.920 -1.6181 -2.2834 -4.2432
  337MOL0     H45483  10.600  10.280   7.099  1.9282 -0.7587 -1.7391
  337MOL0     H45484  10.532  10.155   7.206 -0.0043 -2.8491 -0.4855
  337MOL0     H45485  10.454  10.045   6.980  2.4146 -1.2716 -2.0006
  337MOL0     H45486  10.550  10.155   6.889  0.0095 -0.6607  0.8688
  337MOL0     H45487  10.429  10.347   6.970  1.6389 -0.5824 -0.8081
  337MOL0     H45488  10.313  10.239   7.066  0.6191 -1.4239  0.3439
  337MOL0     H45489  10.214  10.318   6.869 -0.5667 -0.0941  3.1342
  337MOL0     H45490  10.333  10.237   6.760 -1.3563  1.2331 -0.2063
  337MOL0     H45491  10.106   9.912   6.818  0.9858 -0.4176 -2.0284
  337MOL0     H45492  10.579   9.909   7.233 -0.0917  0.5416 -0.2529
  337MOL0     H45493  10.645   9.562   7.226  3.4328  1.9639 -3.8354
  337MOL0     H45494  10.569   9.700   7.305 -2.3328 -2.1174  1.5606
  337MOL0     H45495  10.482   9.628   7.173 -0.1495  1.7199 -0.6346
  338MOL0     O45496   4.005   2.822   4.380  0.2804  0.5019  0.0808
  338MOL0     C45497   3.950   2.713   4.385 -0.3955  1.0391 -0.2043
  338MOL0     O45498   4.011   2.587   4.377  0.2845  0.5262 -0.2754
  338MOL0     C45499   4.138   2.559   4.328  0.0434 -1.0067 -0.4715
  338MOL0     C45500   4.192   2.430   4.350  0.3617  0.2559  0.8365
  338MOL0     C45501   4.321   2.396   4.300  0.2047  1.1223  0.5053
  338MOL0     C45502   4.405   2.490   4.239  0.6658  0.1827 -0.5650
  338MOL0     O45503   4.522   2.456   4.184  0.2204  0.2848 -0.2510
  338MOL0     C45504   4.594   2.325   4.205  0.3780  0.4305 -0.1547
  338MOL0     C45505   4.740   2.337   4.147  0.5677 -0.5379  1.3240
  338MOL0     C45506   4.814   2.212   4.119 -0.5904 -0.4528  0.2534
  338MOL0     C45507   4.960   2.257   4.094  0.7329 -0.1208  0.3084
  338MOL0     C45508   5.046   2.135   4.041 -0.0574  0.0644  1.0897
  338MOL0     C45509   5.186   2.173   4.017 -1.0445  0.5702 -0.4915
  338MOL0     C45510   5.269   2.069   3.932  0.5811 -0.5074 -0.6092
  338MOL0     C45511   5.417   2.123   3.907  0.0930 -0.2348  0.1749
  338MOL0     N45512   5.483   2.046   3.804  0.0301 -0.3345  1.2777
  338MOL0     C45513   5.516   2.070   3.671  0.6153 -0.2517 -0.3881
  338MOL0     C45514   5.613   1.983   3.640 -0.6820 -0.0343  0.5126
  338MOL0     C45515   5.692   1.989   3.516  0.5472 -0.3090 -0.4056
  338MOL0     C45516   5.804   2.100   3.558 -0.7342  0.5330  1.2232
  338MOL0     C45517   5.933   2.099   3.468 -0.1292  0.0416  0.4263
  338MOL0     C45518   6.017   1.976   3.459 -0.7247  0.5339 -0.0858
  338MOL0     O45519   6.052   1.939   3.588 -0.1248 -0.3945  0.3752
  338MOL0     C45520   6.187   1.916   3.590  0.7226 -0.1132  1.7586
  338MOL0     C45521   6.232   1.786   3.619 -0.4218  0.7150 -1.2266
  338MOL0     C45522   6.368   1.755   3.625 -0.2195  0.1953 -0.3867
  338MOL0     C45523   6.457   1.863   3.616 -0.3280  0.1416  0.1325
  338MOL0     C45524   6.599   1.830   3.580 -0.0943 -0.4717 -0.0534
  338MOL0     O45525   6.622   1.702   3.559 -0.2724  0.2913 -0.7212
  338MOL0     C45526   6.753   1.677   3.541 -0.8543 -0.0704 -0.2098
  338MOL0     C45527   6.805   1.635   3.421  0.2650  0.8290  0.5699
  338MOL0     C45528   6.939   1.596   3.403 -0.2937  0.0368 -0.1782
  338MOL0     C45529   7.026   1.594   3.513 -0.3709  0.1245  1.4531
  338MOL0     O45530   7.166   1.572   3.487  0.0525  0.6251 -0.2042
  338MOL0     C45531   7.231   1.462   3.560 -0.4604  0.4903  0.1547
  338MOL0     C45532   7.373   1.431   3.525  0.3456 -0.3448 -0.2367
  338MOL0     C45533   7.423   1.295   3.565 -0.0312  0.4536 -0.9247
  338MOL0     C45534   7.570   1.267   3.528 -0.3481 -0.0654 -0.1227
  338MOL0     C45535   7.602   1.115   3.549  0.1319 -0.1901  0.1039
  338MOL0     C45536   7.749   1.090   3.549  0.6010 -0.0153  0.5693
  338MOL0     C45537   7.809   1.093   3.408  0.1503  0.7091 -0.3848
  338MOL0     C45538   7.952   1.037   3.398 -0.2597 -0.4929  0.2209
  338MOL0    Cl45539   8.067   1.149   3.470 -0.3389  0.1837 -0.3638
  338MOL0     C45540   6.975   1.618   3.637  0.3830  0.2898 -0.1874
  338MOL0     C45541   6.842   1.667   3.647  0.7170  0.1551  0.3550
  338MOL0     O45542   6.673   1.924   3.567 -0.4654  0.1939 -0.0463
  338MOL0     C45543   6.413   1.984   3.578  0.2405 -0.1392 -0.3380
  338MOL0     C45544   6.279   2.015   3.577 -0.0845 -0.0858  0.1964
  338MOL0     N45545   5.633   1.897   3.739  0.0729 -0.4267  0.1072
  338MOL0     N45546   5.544   1.934   3.833  0.0420 -0.2195  0.0510
  338MOL0     C45547   4.353   2.612   4.216  0.1586 -1.0639 -0.1414
  338MOL0     C45548   4.223   2.650   4.252  1.0227 -0.7120  0.5948
  338MOL0     C45549   3.807   2.692   4.399  0.2397 -0.4506  0.6476
  338MOL0     C45550   3.754   2.634   4.279 -0.2508 -0.7567 -0.7620
  338MOL0     C45551   3.620   2.601   4.265 -0.2609  0.7160  0.1773
  338MOL0     C45552   3.530   2.655   4.365 -0.1900  0.0544  0.7051
  338MOL0     O45553   3.393   2.641   4.363  0.3689 -0.1008  0.7821
  338MOL0     C45554   3.329   2.555   4.263  0.2581  0.3941 -1.0133
  338MOL0     C45555   3.323   2.415   4.325 -0.0439  1.1170  0.0090
  338MOL0     C45556   3.443   2.329   4.270 -0.1234  1.0559  0.6352
  338MOL0     C45557   3.418   2.177   4.293 -0.4712  0.2585 -0.5986
  338MOL0     C45558   3.427   2.151   4.437 -0.1344  0.2722  0.4940
  338MOL0     C45559   3.455   2.133   4.557 -0.6132 -0.1418 -0.1595
  338MOL0     C45560   3.583   2.709   4.483  0.3788  0.7999  0.2652
  338MOL0     C45561   3.726   2.724   4.508  0.8874  0.3289  0.3489
  338MOL0     C45562   3.782   2.776   4.634  0.5734  0.0158  0.3399
  338MOL0     H45563   4.154   2.357   4.421  0.9481  0.1479  1.0419
  338MOL0     H45564   4.346   2.295   4.332 -1.2320  1.2218  2.0338
  338MOL0     H45565   4.597   2.301   4.312  2.4645 -0.9769 -0.4669
  338MOL0     H45566   4.547   2.246   4.145  1.7393 -1.5289  1.2076
  338MOL0     H45567   4.795   2.412   4.204 -0.4515 -0.6239  2.4687
  338MOL0     H45568   4.723   2.385   4.050 -1.6208  0.7480  2.2512
  338MOL0     H45569   4.781   2.170   4.023  1.0389  1.4571 -1.2487
  338MOL0     H45570   4.803   2.133   4.193  1.2762  1.6238  2.9366
  338MOL0     H45571   4.961   2.339   4.022  3.0484 -0.8769 -0.6360
  338MOL0     H45572   5.012   2.297   4.182  1.1797  2.2129 -0.9413
  338MOL0     H45573   5.039   2.040   4.095 -1.3733 -2.1251 -2.6099
  338MOL0     H45574   5.008   2.097   3.946  2.7008  2.3186 -1.1300
  338MOL0     H45575   5.165   2.266   3.964 -3.0508  0.9179  0.7990
  338MOL0     H45576   5.238   2.196   4.110  0.2808 -0.2833 -0.9959
  338MOL0     H45577   5.215   2.051   3.838 -1.7321  1.7864  0.1704
  338MOL0     H45578   5.279   1.983   3.999 -1.2032  2.3217  3.7157
  338MOL0     H45579   5.409   2.225   3.870  0.2494  0.0727  0.9759
  338MOL0     H45580   5.480   2.119   3.996  3.7661 -1.3770 -2.2333
  338MOL0     H45581   5.489   2.153   3.607 -0.8384  0.3689  0.9667
  338MOL0     H45582   5.733   1.889   3.503  0.7031 -0.1056 -1.6040
  338MOL0     H45583   5.643   2.028   3.426  0.6376  1.7640  0.3779
  338MOL0     H45584   5.762   2.201   3.560  1.2748  1.6748 -2.9374
  338MOL0     H45585   5.827   2.097   3.665 -2.3857  0.8222  1.6115
  338MOL0     H45586   6.007   2.172   3.503  1.0249 -0.2638 -1.2668
  338MOL0     H45587   5.912   2.138   3.368 -0.7752 -2.2101 -0.3701
  338MOL0     H45588   6.110   1.986   3.402  0.9601 -1.7922  2.0611
  338MOL0     H45589   5.963   1.899   3.403 -3.9571  4.0316 -2.2334
  338MOL0     H45590   6.171   1.701   3.646  0.4841  0.2831 -0.4620
  338MOL0     H45591   6.406   1.658   3.655  0.6601  0.3004 -1.0979
  338MOL0     H45592   6.730   1.641   3.343  0.1019 -1.5453  0.4868
  338MOL0     H45593   6.985   1.572   3.307 -2.3773 -2.0578 -0.7721
  338MOL0     H45594   7.232   1.489   3.666 -0.1505  0.9588  0.0380
  338MOL0     H45595   7.176   1.369   3.544  0.2667 -0.3217  2.0530
  338MOL0     H45596   7.401   1.462   3.424  3.2174  0.0590  0.5998
  338MOL0     H45597   7.433   1.500   3.585 -0.1568 -0.6385  0.6213
  338MOL0     H45598   7.430   1.269   3.671  3.6386  0.0857 -1.1428
  338MOL0     H45599   7.356   1.216   3.528  0.8117 -1.4185  1.3327
  338MOL0     H45600   7.643   1.334   3.575 -0.5866  1.5456 -1.9093
  338MOL0     H45601   7.567   1.302   3.425 -2.9987  3.1582  0.8927
  338MOL0     H45602   7.543   1.055   3.479 -1.2778 -1.4230  2.2404
  338MOL0     H45603   7.566   1.087   3.649  2.7463 -0.6125  1.0058
  338MOL0     H45604   7.794   1.166   3.613  4.3314 -2.2407  0.8564
  338MOL0     H45605   7.779   0.991   3.583  0.0866 -0.9323 -1.4731
  338MOL0     H45606   7.817   1.197   3.377  1.1645  0.3046 -1.5207
  338MOL0     H45607   7.749   1.040   3.334  1.8006 -0.1209 -1.1662
  338MOL0     H45608   7.971   0.943   3.449 -3.6117 -0.8482  1.0177
  338MOL0     H45609   7.980   1.036   3.292  0.1846  3.0621  0.1812
  338MOL0     H45610   7.036   1.604   3.726  1.3083 -1.3877 -1.0228
  338MOL0     H45611   6.806   1.707   3.742  1.6214 -1.6394  1.5217
  338MOL0     H45612   6.479   2.060   3.536  0.3158 -0.7269 -1.3260
  338MOL0     H45613   6.246   2.108   3.531 -0.4532 -1.0383 -1.5646
  338MOL0     H45614   4.410   2.690   4.168  1.0726  1.0988  3.9767
  338MOL0     H45615   4.190   2.749   4.222 -0.1616 -1.7089 -1.6750
  338MOL0     H45616   3.821   2.634   4.193  2.4854  4.0191  1.0108
  338MOL0     H45617   3.584   2.554   4.174  1.6173 -0.5501  0.0140
  338MOL0     H45618   3.353   2.559   4.157 -2.8422  0.7135 -1.8000
  338MOL0     H45619   3.224   2.588   4.264 -1.8278 -5.1998 -0.1664
  338MOL0     H45620   3.231   2.365   4.293  0.5726 -0.1854  0.1889
  338MOL0     H45621   3.328   2.425   4.434 -2.2353  0.7472  0.1842
  338MOL0     H45622   3.537   2.344   4.324  0.1147 -0.3628  0.6597
  338MOL0     H45623   3.462   2.354   4.165  0.1757 -0.2768  0.3470
  338MOL0     H45624   3.318   2.151   4.257 -1.7918  2.0542  1.5404
  338MOL0     H45625   3.494   2.119   4.240 -1.0005 -0.6678 -0.3684
  338MOL0     H45626   3.467   2.113   4.661 -1.6919 -0.6146 -0.1128
  338MOL0     H45627   3.503   2.740   4.549  0.0221  1.6391 -0.5358
  338MOL0     H45628   3.702   2.823   4.692 -0.2267  0.3867 -1.0205
  338MOL0     H45629   3.816   2.696   4.701  0.6391 -0.6515 -0.4868
  338MOL0     H45630   3.867   2.845   4.628  1.1347 -0.0691  4.3675
  339MOL0     O45631   6.693   3.541   5.634  0.1835 -0.5373  0.3988
  339MOL0     C45632   6.796   3.540   5.698 -0.7589  0.9248 -0.8214
  339MOL0     O45633   6.813   3.609   5.817 -0.1274  0.8368 -0.4599
  339MOL0     C45634   6.734   3.714   5.859 -0.7882 -0.2989  0.4692
  339MOL0     C45635   6.715   3.715   6.003 -0.0843 -0.3520  0.1383
  339MOL0     C45636   6.638   3.818   6.054 -0.5497 -0.9197 -0.2426
  339MOL0     C45637   6.586   3.913   5.966 -0.7881  0.5627  0.1295
  339MOL0     O45638   6.490   3.997   6.013  0.6605 -0.9017  0.2472
  339MOL0     C45639   6.427   4.007   6.145  0.2859 -0.3349 -0.2162
  339MOL0     C45640   6.497   4.084   6.250  0.1205 -0.0977 -0.0603
  339MOL0     C45641   6.524   4.231   6.223  0.4361  0.4971 -0.5686
  339MOL0     C45642   6.541   4.296   6.362 -0.1422 -0.4781  0.2434
  339MOL0     C45643   6.600   4.439   6.346 -0.0269  0.7446  0.4823
  339MOL0     C45644   6.747   4.448   6.297 -0.9016 -0.0634  0.2934
  339MOL0     C45645   6.825   4.334   6.358 -0.3152 -0.2804 -0.2082
  339MOL0     C45646   6.982   4.353   6.328 -0.2386 -0.2211 -0.7681
  339MOL0     N45647   7.045   4.447   6.420  0.1380  0.0409 -0.6482
  339MOL0     C45648   7.045   4.444   6.557  0.2477  0.0086  0.6452
  339MOL0     C45649   7.119   4.556   6.593 -1.0993  0.2414  0.1394
  339MOL0     C45650   7.159   4.593   6.733 -0.1124  0.0610  0.0607
  339MOL0     C45651   7.219   4.472   6.802 -0.2283  0.0089 -0.9902
  339MOL0     C45652   7.368   4.427   6.784  0.0539  0.1507 -0.1820
  339MOL0     C45653   7.400   4.422   6.639  0.2015 -1.2912 -0.0462
  339MOL0     O45654   7.537   4.389   6.638 -0.2961 -0.3160 -0.7607
  339MOL0     C45655   7.613   4.372   6.526  0.4043  0.1822 -0.1698
  339MOL0     C45656   7.572   4.415   6.401 -0.5255  0.6186 -0.6738
  339MOL0     C45657   7.658   4.401   6.285 -0.4447 -0.7454  0.2609
  339MOL0     C45658   7.775   4.335   6.296  0.6157  0.9328  0.7869
  339MOL0     C45659   7.862   4.312   6.180 -0.0361 -0.6559 -0.4471
  339MOL0     O45660   7.974   4.238   6.207  0.0683  0.7219  0.0501
  339MOL0     C45661   8.092   4.232   6.128 -0.4191 -0.5570  0.2776
  339MOL0     C45662   8.115   4.298   6.008 -0.5586 -0.8590 -0.4939
  339MOL0     C45663   8.243   4.286   5.946 -0.8080 -0.2422  0.8697
  339MOL0     C45664   8.344   4.208   5.996  0.0349  0.7244 -0.9672
  339MOL0     O45665   8.461   4.201   5.917  0.2906  0.5282 -0.0578
  339MOL0     C45666   8.574   4.128   5.968 -0.8136 -0.1875 -0.3155
  339MOL0     C45667   8.704   4.161   5.898  0.3484  0.1661 -0.5562
  339MOL0     C45668   8.773   4.284   5.951  0.5389 -0.4548  0.2624
  339MOL0     C45669   8.912   4.307   5.892 -0.0673 -0.0994 -0.1642
  339MOL0     C45670   8.971   4.441   5.934 -1.3661 -0.1619  0.2514
  339MOL0     C45671   9.110   4.461   5.869  0.0772  0.6649 -0.0384
  339MOL0     C45672   9.164   4.601   5.905 -0.4826  0.2400 -0.0882
  339MOL0     C45673   9.128   4.666   6.039  0.4787 -0.1061 -0.1653
  339MOL0    Cl45674   9.246   4.612   6.161  0.1845 -0.1159 -0.2773
  339MOL0     C45675   8.324   4.154   6.127  0.1435 -0.7147 -0.6342
  339MOL0     C45676   8.192   4.158   6.181  0.1848  0.2161 -0.1046
  339MOL0     O45677   7.849   4.381   6.083  0.6090  0.4247 -0.2649
  339MOL0     C45678   7.805   4.284   6.425  0.0842 -0.2373  0.4473
  339MOL0     C45679   7.737   4.322   6.536  0.6833 -0.1838 -0.3691
  339MOL0     N45680   7.185   4.610   6.482 -0.1642  0.9864 -1.2240
  339MOL0     N45681   7.132   4.541   6.387 -0.1499  0.6402  1.2898
  339MOL0     C45682   6.607   3.913   5.828  0.2797 -0.6152  0.6972
  339MOL0     C45683   6.685   3.813   5.774  0.2428 -0.1477  0.7205
  339MOL0     C45684   6.903   3.442   5.664  0.4081 -0.5054  0.4897
  339MOL0     C45685   6.871   3.324   5.591  0.2182 -0.0292  0.4864
  339MOL0     C45686   6.966   3.226   5.550  0.4839 -0.4274 -0.5883
  339MOL0     C45687   7.099   3.238   5.587 -0.7657  0.3601  0.7032
  339MOL0     O45688   7.186   3.144   5.530  0.1607 -0.7556 -0.6065
  339MOL0     C45689   7.326   3.171   5.522  0.8054 -0.1022  0.4163
  339MOL0     C45690   7.389   3.025   5.525 -0.5397  0.0391 -0.3840
  339MOL0     C45691   7.541   3.041   5.520  0.0467  0.2103  1.0449
  339MOL0     C45692   7.624   2.951   5.616 -0.2596 -0.1026 -0.1287
  339MOL0     C45693   7.759   3.003   5.631  0.2410 -0.4729  0.4027
  339MOL0     C45694   7.880   3.021   5.623  0.4104  0.8530  0.5345
  339MOL0     C45695   7.131   3.343   5.666  0.3395  0.2300 -0.5972
  339MOL0     C45696   7.040   3.443   5.704  0.4185 -0.4276  0.2182
  339MOL0     C45697   7.093   3.561   5.776  0.0608 -0.0865  0.5572
  339MOL0     H45698   6.759   3.632   6.058 -0.7251 -2.9870 -2.9646
  339MOL0     H45699   6.618   3.830   6.160  3.6754  0.8254  0.5937
  339MOL0     H45700   6.328   4.048   6.124  0.4770 -0.9628 -2.7247
  339MOL0     H45701   6.402   3.911   6.191 -1.3384  0.7590  1.3518
  339MOL0     H45702   6.593   4.032   6.253 -0.5701 -1.7744 -2.7358
  339MOL0     H45703   6.444   4.087   6.346  0.6457  0.4841  0.2163
  339MOL0     H45704   6.434   4.269   6.174 -0.9089 -1.0298  0.6439
  339MOL0     H45705   6.607   4.232   6.151  0.4406 -1.9343 -0.6629
  339MOL0     H45706   6.440   4.306   6.403  0.0976 -0.0471  0.7342
  339MOL0     H45707   6.600   4.236   6.431 -0.0958 -1.4722 -0.6383
  339MOL0     H45708   6.551   4.502   6.271  1.9890  0.7601 -0.9371
  339MOL0     H45709   6.589   4.495   6.439 -2.4925  0.8973  0.1708
  339MOL0     H45710   6.740   4.428   6.190 -1.0404  1.7891 -0.0720
  339MOL0     H45711   6.795   4.544   6.314 -0.4272 -0.9121  5.2718
  339MOL0     H45712   6.797   4.235   6.320 -2.1756 -0.5048  1.5369
  339MOL0     H45713   6.814   4.325   6.467  1.8089 -0.3319  0.0532
  339MOL0     H45714   7.042   4.262   6.328  1.0911  0.6296 -0.3347
  339MOL0     H45715   7.003   4.388   6.226  3.5601  0.5061  0.1107
  339MOL0     H45716   6.992   4.379   6.627 -1.7369  0.1302 -0.6641
  339MOL0     H45717   7.235   4.671   6.730  1.3230 -1.2769  0.1467
  339MOL0     H45718   7.081   4.621   6.803  0.9934  0.4244  1.1833
  339MOL0     H45719   7.198   4.493   6.907  0.8096 -0.9263 -0.5662
  339MOL0     H45720   7.158   4.385   6.778  0.2563 -0.3152 -1.0723
  339MOL0     H45721   7.391   4.329   6.829  2.3302  0.1988 -1.1102
  339MOL0     H45722   7.439   4.494   6.835  0.2804 -0.2767  0.0768
  339MOL0     H45723   7.394   4.516   6.583  0.6747 -0.0150  1.9520
  339MOL0     H45724   7.338   4.351   6.583 -1.1930 -0.3989  0.3460
  339MOL0     H45725   7.479   4.472   6.397 -2.1691 -1.9638 -1.7678
  339MOL0     H45726   7.638   4.439   6.185  2.8715 -2.2985 -1.1628
  339MOL0     H45727   8.039   4.361   5.964  0.2933  0.5677  0.0315
  339MOL0     H45728   8.272   4.346   5.861  1.4189  0.3296  1.9702
  339MOL0     H45729   8.583   4.159   6.073 -0.6469  0.9597 -0.6589
  339MOL0     H45730   8.545   4.023   5.959 -1.5825 -0.2079  1.8621
  339MOL0     H45731   8.774   4.077   5.904  1.8957  1.4498  0.0681
  339MOL0     H45732   8.672   4.174   5.794 -0.7183  2.1318 -0.0381
  339MOL0     H45733   8.711   4.364   5.910  0.4987 -1.3386 -1.4950
  339MOL0     H45734   8.776   4.288   6.060 -2.8859  1.1415  0.4239
  339MOL0     H45735   8.895   4.325   5.785  2.8923  0.1556 -0.6759
  339MOL0     H45736   8.977   4.219   5.892  0.5990  0.2587 -3.3828
  339MOL0     H45737   8.970   4.447   6.043 -0.7996 -0.7290  0.2961
  339MOL0     H45738   8.916   4.528   5.900  0.3367  1.7694  2.1160
  339MOL0     H45739   9.185   4.389   5.904 -0.4042 -0.8325 -1.8918
  339MOL0     H45740   9.108   4.459   5.760 -0.3359 -1.1573 -0.0311
  339MOL0     H45741   9.143   4.672   5.824  2.6871  1.8220  0.3201
  339MOL0     H45742   9.271   4.583   5.896 -0.4813 -0.6853  1.4921
  339MOL0     H45743   9.135   4.775   6.043 -0.4034 -0.0157 -0.6882
  339MOL0     H45744   9.023   4.645   6.063  0.7585 -2.0825 -0.5196
  339MOL0     H45745   8.403   4.098   6.177  0.6258  0.1932 -0.3682
  339MOL0     H45746   8.183   4.114   6.279  1.9656 -1.9071 -0.8128
  339MOL0     H45747   7.897   4.228   6.433  1.0219  0.7231 -2.2664
  339MOL0     H45748   7.776   4.299   6.634  0.7913  0.8606 -0.1549
  339MOL0     H45749   6.544   3.981   5.771 -0.1386 -0.9377  0.7682
  339MOL0     H45750   6.715   3.798   5.671  2.3879  1.0414  1.1100
  339MOL0     H45751   6.767   3.305   5.564  0.6030  0.6477 -1.6118
  339MOL0     H45752   6.933   3.147   5.484 -0.4383  0.1605 -0.8649
  339MOL0     H45753   7.364   3.211   5.616 -0.5393 -0.8348  1.2996
  339MOL0     H45754   7.349   3.228   5.431  1.0296 -0.6191  0.1460
  339MOL0     H45755   7.356   2.965   5.439  0.5862 -0.2115 -0.6703
  339MOL0     H45756   7.360   2.962   5.610  2.6963  0.8103  1.4834
  339MOL0     H45757   7.566   3.143   5.552  3.1372  0.0318 -0.4533
  339MOL0     H45758   7.579   3.018   5.420 -0.7019 -2.6263  1.3346
  339MOL0     H45759   7.581   2.928   5.714 -1.8152  0.6655 -0.6038
  339MOL0     H45760   7.641   2.855   5.567  2.7898  0.1219  0.3019
  339MOL0     H45761   7.984   3.043   5.623 -0.0884  3.5797  0.5143
  339MOL0     H45762   7.237   3.364   5.682  0.6026  0.3905 -2.3085
  339MOL0     H45763   7.045   3.645   5.724 -0.4223 -2.0395 -2.4075
  339MOL0     H45764   7.070   3.563   5.883  2.0319  2.0814  1.0116
  339MOL0     H45765   7.201   3.566   5.760 -0.1419  0.6030 -0.7504
  340MOL0     O45766   1.740   3.438   2.172 -0.1777  0.7151 -0.1645
  340MOL0     C45767   1.812   3.539   2.184 -0.1687  0.3392 -0.7794
  340MOL0     O45768   1.947   3.546   2.133  0.3106  0.6545 -0.3987
  340MOL0     C45769   1.993   3.425   2.077 -0.0180 -0.8761 -0.4410
  340MOL0     C45770   2.020   3.409   1.943 -0.1122  0.9783 -0.5317
  340MOL0     C45771   2.060   3.284   1.892  0.5960  0.5101  0.1201
  340MOL0     C45772   2.096   3.179   1.970 -0.2038  1.2679 -0.3685
  340MOL0     O45773   2.153   3.063   1.930  0.2940 -0.2686  0.0747
  340MOL0     C45774   2.091   3.004   1.814  0.7226  0.1830 -0.4234
  340MOL0     C45775   1.966   2.933   1.868  0.0547 -0.2363  0.4897
  340MOL0     C45776   1.995   2.827   1.972  0.0394 -0.3991 -0.6596
  340MOL0     C45777   1.884   2.720   1.994 -0.4746 -0.3807 -0.6454
  340MOL0     C45778   1.895   2.635   2.124 -0.2628 -0.4332 -0.3711
  340MOL0     C45779   1.783   2.532   2.158  0.5755 -1.4438 -0.2556
  340MOL0     C45780   1.842   2.409   2.237  0.3253 -0.6669  0.9818
  340MOL0     C45781   1.884   2.291   2.137  0.3632 -0.2273  0.3341
  340MOL0     N45782   1.923   2.171   2.212  0.5039 -0.3985 -0.2175
  340MOL0     C45783   1.866   2.054   2.191  0.5720  0.5888  0.2633
  340MOL0     C45784   1.935   1.966   2.261 -0.4791  0.6886  0.2009
  340MOL0     C45785   1.923   1.817   2.255  0.1317  0.0883  0.2122
  340MOL0     C45786   1.856   1.755   2.372 -0.4956  0.8402 -0.7296
  340MOL0     C45787   1.908   1.795   2.518  0.7625 -0.2389  0.6212
  340MOL0     C45788   1.826   1.738   2.628  0.1481  1.1096 -0.0127
  340MOL0     O45789   1.835   1.590   2.623 -0.5596  0.6316 -0.4796
  340MOL0     C45790   1.769   1.510   2.715 -0.0099 -0.6995  0.4504
  340MOL0     C45791   1.748   1.376   2.689 -0.1896 -0.0327  0.1683
  340MOL0     C45792   1.683   1.296   2.776 -0.5069  0.1381 -0.2069
  340MOL0     C45793   1.642   1.347   2.901  0.9213  0.0305 -0.4735
  340MOL0     C45794   1.561   1.266   2.992 -0.1949  0.1534  0.2993
  340MOL0     O45795   1.529   1.327   3.114 -0.1087  1.1492  0.4616
  340MOL0     C45796   1.478   1.253   3.219 -0.2515  0.5645  0.5910
  340MOL0     C45797   1.373   1.158   3.208  0.4405 -0.1766 -0.0385
  340MOL0     C45798   1.320   1.106   3.325  0.7432  0.1378  0.7917
  340MOL0     C45799   1.365   1.132   3.458 -0.1313 -0.0270 -0.0577
  340MOL0     O45800   1.312   1.091   3.577  0.2490  0.9571 -0.6674
  340MOL0     C45801   1.291   0.947   3.582 -0.2252 -0.4446 -0.3053
  340MOL0     C45802   1.253   0.912   3.731  0.0516  1.0630 -0.2972
  340MOL0     C45803   1.276   0.764   3.754  0.4549  0.8414 -0.3096
  340MOL0     C45804   1.415   0.709   3.795 -0.1207 -0.0541  0.1628
  340MOL0     C45805   1.430   0.560   3.770  0.3120  0.6937 -0.2356
  340MOL0     C45806   1.578   0.500   3.766  0.0701 -0.5658 -0.3369
  340MOL0     C45807   1.655   0.543   3.889  0.3017 -0.6487 -0.0813
  340MOL0     C45808   1.773   0.467   3.926 -0.1250 -0.4852 -0.5869
  340MOL0    Cl45809   1.741   0.307   3.991 -0.4931  0.0088  0.2020
  340MOL0     C45810   1.464   1.231   3.459 -0.3879  0.7862  0.0267
  340MOL0     C45811   1.526   1.290   3.344  0.3707  0.0959  0.2276
  340MOL0     O45812   1.528   1.156   2.954 -0.6772 -0.4971  0.7181
  340MOL0     C45813   1.667   1.484   2.928  0.5051  0.1838 -0.6707
  340MOL0     C45814   1.722   1.572   2.833 -0.0603  0.2607 -0.5051
  340MOL0     N45815   2.047   2.026   2.319  0.4768 -0.5063  0.1566
  340MOL0     N45816   2.028   2.157   2.294 -0.7497  0.0439 -0.7857
  340MOL0     C45817   2.063   3.194   2.104  0.6616  0.1708  0.3104
  340MOL0     C45818   2.012   3.310   2.155  1.2684 -0.6024  0.1195
  340MOL0     C45819   1.753   3.657   2.257  0.1654 -0.9211  0.4108
  340MOL0     C45820   1.832   3.776   2.260  0.4747 -0.0728 -0.0726
  340MOL0     C45821   1.790   3.884   2.330 -0.2424 -0.2074 -0.2844
  340MOL0     C45822   1.660   3.886   2.381 -0.5234 -0.5974 -0.0885
  340MOL0     O45823   1.630   4.002   2.450  0.1456  0.6687  0.4194
  340MOL0     C45824   1.534   3.993   2.545 -0.0766  0.2602  0.1040
  340MOL0     C45825   1.588   3.950   2.687 -0.3213 -0.4607  0.2952
  340MOL0     C45826   1.703   4.027   2.739  0.4154  0.0640  1.1958
  340MOL0     C45827   1.756   3.960   2.872  0.0487 -1.4036 -0.4084
  340MOL0     C45828   1.873   4.038   2.922 -0.1027  1.2413 -0.2188
  340MOL0     C45829   1.973   4.098   2.956  0.3482  0.3835 -0.9654
  340MOL0     C45830   1.575   3.776   2.377 -0.5652 -0.1884  0.3345
  340MOL0     C45831   1.624   3.662   2.312 -0.5343  0.3941  0.2462
  340MOL0     C45832   1.525   3.548   2.304  0.3602  0.4580 -0.1281
  340MOL0     H45833   1.997   3.494   1.878 -2.7035 -0.0303 -1.0525
  340MOL0     H45834   2.074   3.271   1.785 -0.9932 -2.4628  0.1484
  340MOL0     H45835   2.061   3.073   1.734  1.1905 -0.1097 -0.8583
  340MOL0     H45836   2.169   2.943   1.767  1.3839  1.3783 -0.9326
  340MOL0     H45837   1.916   2.886   1.783  2.9161 -1.1450 -0.8113
  340MOL0     H45838   1.898   3.008   1.909  0.3143  0.5726 -0.5529
  340MOL0     H45839   2.013   2.880   2.066  0.7885  1.9549 -2.0429
  340MOL0     H45840   2.086   2.770   1.951  0.5158  0.3927 -0.7421
  340MOL0     H45841   1.787   2.770   1.990  0.6554  1.8846 -1.1248
  340MOL0     H45842   1.888   2.644   1.916 -4.3365 -3.3638  1.6723
  340MOL0     H45843   1.990   2.580   2.124  0.6782  1.1009  0.1719
  340MOL0     H45844   1.910   2.706   2.206  1.5851  1.0125 -1.8715
  340MOL0     H45845   1.700   2.579   2.211  1.1009 -1.3341  0.4873
  340MOL0     H45846   1.753   2.502   2.057 -1.0477  2.8380 -1.2651
  340MOL0     H45847   1.765   2.374   2.305 -2.8528  0.1870 -1.8940
  340MOL0     H45848   1.928   2.430   2.302 -1.1846  0.4774  2.6854
  340MOL0     H45849   1.801   2.260   2.073  1.3816  0.1974 -1.2380
  340MOL0     H45850   1.964   2.337   2.078  0.9481  0.6801  1.7916
  340MOL0     H45851   1.781   2.032   2.127  0.0585  1.9933  0.4254
  340MOL0     H45852   1.857   1.802   2.169  2.5436  1.2459 -1.9701
  340MOL0     H45853   2.022   1.778   2.229  0.3731 -0.9084  2.4309
  340MOL0     H45854   1.749   1.776   2.371 -0.5444  0.6427 -0.3055
  340MOL0     H45855   1.852   1.646   2.364 -0.8956  0.7552  0.4375
  340MOL0     H45856   1.912   1.903   2.535 -0.3177 -0.2013  0.6936
  340MOL0     H45857   2.011   1.762   2.533  1.3843  0.2384 -2.0192
  340MOL0     H45858   1.721   1.764   2.610  0.2659  1.7375  0.1885
  340MOL0     H45859   1.869   1.779   2.720  0.6269  0.3083  0.1305
  340MOL0     H45860   1.792   1.332   2.600  1.2617 -1.9324  1.7381
  340MOL0     H45861   1.670   1.195   2.740  0.0602  0.4716 -1.3786
  340MOL0     H45862   1.312   1.160   3.118  0.1406 -2.8593  0.0470
  340MOL0     H45863   1.226   1.053   3.314 -1.4994  3.6456  1.5529
  340MOL0     H45864   1.222   0.902   3.510  0.4025 -2.3991  0.2379
  340MOL0     H45865   1.396   0.919   3.569  1.2293  3.8528  0.6283
  340MOL0     H45866   1.304   0.965   3.812 -1.0776  0.2388  0.9787
  340MOL0     H45867   1.146   0.931   3.748 -0.1343 -0.8028  0.8380
  340MOL0     H45868   1.208   0.741   3.836  3.0623  2.0168  2.3564
  340MOL0     H45869   1.237   0.711   3.667  1.3212  1.2987 -0.9996
  340MOL0     H45870   1.425   0.741   3.899 -0.4936 -0.9599  0.4874
  340MOL0     H45871   1.484   0.770   3.735  0.6089 -1.4592 -0.4735
  340MOL0     H45872   1.383   0.543   3.672 -2.7844 -2.3280  1.5433
  340MOL0     H45873   1.372   0.505   3.845  0.2305  1.8829  0.5968
  340MOL0     H45874   1.579   0.391   3.756 -0.5634 -0.5145 -0.9975
  340MOL0     H45875   1.629   0.540   3.678  1.2546  0.3884  0.7437
  340MOL0     H45876   1.580   0.549   3.968 -0.2602 -1.4734 -0.5380
  340MOL0     H45877   1.693   0.645   3.878 -0.7776  0.1665  2.8168
  340MOL0     H45878   1.862   0.467   3.862  1.2825  2.8443  1.1324
  340MOL0     H45879   1.814   0.511   4.017 -4.2597  2.5287  0.0491
  340MOL0     H45880   1.504   1.260   3.556  3.4762 -1.7939 -0.5808
  340MOL0     H45881   1.612   1.357   3.344  3.1818 -3.1025 -3.0005
  340MOL0     H45882   1.640   1.533   3.021 -1.5377  1.9179 -2.0693
  340MOL0     H45883   1.742   1.673   2.867  0.0353  0.0957 -0.0633
  340MOL0     H45884   2.084   3.114   2.175  2.2116 -0.4047 -0.7291
  340MOL0     H45885   1.989   3.310   2.261 -1.3314 -1.6425 -0.3757
  340MOL0     H45886   1.925   3.782   2.206  0.4294 -0.8875 -0.2525
  340MOL0     H45887   1.853   3.971   2.339 -1.5315  0.7148  0.0020
  340MOL0     H45888   1.445   3.937   2.515 -0.7730  1.0447  0.6534
  340MOL0     H45889   1.492   4.094   2.550  1.4185  0.9087  0.2300
  340MOL0     H45890   1.619   3.847   2.670 -0.3857  0.1143 -5.1285
  340MOL0     H45891   1.494   3.951   2.744 -0.7434  0.2321 -0.3862
  340MOL0     H45892   1.682   4.134   2.747  1.8402  0.7693 -2.3965
  340MOL0     H45893   1.786   4.024   2.667 -0.7093  3.1415 -0.4683
  340MOL0     H45894   1.674   3.965   2.943 -0.1567  0.5937 -0.7349
  340MOL0     H45895   1.779   3.856   2.849  0.1068 -1.8928  1.6735
  340MOL0     H45896   2.063   4.155   2.969 -0.3753  1.4420 -0.4896
  340MOL0     H45897   1.479   3.766   2.427 -0.1918  1.3320  1.4119
  340MOL0     H45898   1.432   3.560   2.361 -0.8051 -1.7413 -1.4337
  340MOL0     H45899   1.498   3.539   2.199  1.5471  3.7516 -0.8437
  340MOL0     H45900   1.574   3.461   2.348 -0.0442  0.6493  0.7446
  341MOL0     O45901   3.074  10.507   9.228 -0.0235 -0.2915  0.0330
  341MOL0     C45902   3.190  10.536   9.201  0.2854 -0.0145 -0.5112
  341MOL0     O45903   3.232  10.666   9.169  0.2653  0.4798  0.2360
  341MOL0     C45904   3.132  10.753   9.143 -0.2106  1.0898 -0.5967
  341MOL0     C45905   3.060  10.752   9.025 -0.6640  0.2685  0.7766
  341MOL0     C45906   2.964  10.851   9.008  0.2303 -0.2296 -0.2283
  341MOL0     C45907   2.942  10.956   9.104 -0.5119 -0.3026  0.5319
  341MOL0     O45908   2.853  11.060   9.088 -0.3158  0.1134 -0.1967
  341MOL0     C45909   2.763  11.055   8.974  0.2555 -0.8313 -0.0269
  341MOL0     C45910   2.651  11.160   9.002  0.3839  0.2135 -1.4804
  341MOL0     C45911   2.683  11.309   9.010 -0.4228 -0.1737  0.9038
  341MOL0     C45912   2.559  11.402   9.008  0.5926 -0.7798 -0.2298
  341MOL0     C45913   2.597  11.538   9.054  0.1560 -0.4341 -0.1168
  341MOL0     C45914   2.474  11.632   9.048  1.3455 -1.5006 -0.4083
  341MOL0     C45915   2.512  11.784   9.091 -0.2773  0.4292  0.2430
  341MOL0     C45916   2.539  11.871   8.970  0.1089 -0.0536 -0.0052
  341MOL0     N45917   2.626  11.986   9.005 -0.4796 -0.0308 -0.4331
  341MOL0     C45918   2.587  12.093   9.087  0.5379 -0.4913  0.5851
  341MOL0     C45919   2.702  12.157   9.103  0.4594 -0.2362  1.0546
  341MOL0     C45920   2.702  12.295   9.181 -0.5066  0.3426  0.5133
  341MOL0     C45921   2.828  12.382   9.159  0.4671  0.0363 -0.4720
  341MOL0     C45922   2.860  12.426   9.012 -0.2848 -0.2852 -0.0475
  341MOL0     C45923   3.008  12.442   9.013 -1.5021 -1.0948  0.4316
  341MOL0     O45924   3.070  12.484   8.885  0.5583  0.1247 -0.3569
  341MOL0     C45925   3.020  12.591   8.820  0.1040  0.5340 -0.2251
  341MOL0     C45926   3.002  12.716   8.884 -0.1053 -0.1701 -1.4160
  341MOL0     C45927   2.957  12.828   8.818  0.5914 -0.0549 -0.4338
  341MOL0     C45928   2.923  12.833   8.681  0.1086  0.9350  0.0278
  341MOL0     C45929   2.883  12.959   8.611  1.1257 -0.8849 -0.9135
  341MOL0     O45930   2.907  13.072   8.685 -0.2075  0.7320 -0.4675
  341MOL0     C45931   2.865  13.187   8.633 -0.4799 -0.1997 -0.3356
  341MOL0     C45932   2.731  13.230   8.634  0.5063 -0.0001  0.2340
  341MOL0     C45933   2.708  13.366   8.601  0.1785 -0.2961 -0.3979
  341MOL0     C45934   2.814  13.453   8.558  0.3702  0.1109 -0.3478
  341MOL0     O45935   2.789  13.584   8.533 -0.9294 -0.0390 -0.3945
  341MOL0     C45936   2.666  13.642   8.561 -0.3755 -0.2154 -0.1678
  341MOL0     C45937   2.667  13.795   8.534  0.0180 -0.5914  0.8513
  341MOL0     C45938   2.788  13.871   8.568  0.4026  0.2671  0.5389
  341MOL0     C45939   2.765  14.013   8.522 -0.5349 -0.8769 -0.4249
  341MOL0     C45940   2.863  14.123   8.572  0.8120 -0.0468 -0.4615
  341MOL0     C45941   3.022  14.094   8.550  0.3474  0.5640 -0.8496
  341MOL0     C45942   3.094  14.228   8.587 -0.9030 -0.0337  1.0107
  341MOL0     C45943   3.238  14.218   8.653  0.7483  0.3424  1.2317
  341MOL0    Cl45944   3.267  14.378   8.715  0.8061 -0.3094  0.2798
  341MOL0     C45945   2.939  13.408   8.562 -0.3915 -0.7059 -0.4105
  341MOL0     C45946   2.966  13.281   8.598 -0.3592  0.4340 -0.0199
  341MOL0     O45947   2.848  12.960   8.496  0.7501  0.8077 -0.8790
  341MOL0     C45948   2.936  12.706   8.613 -0.3479  0.2472 -0.2776
  341MOL0     C45949   2.971  12.584   8.687  0.6658 -0.8545  0.0909
  341MOL0     N45950   2.806  12.090   9.041 -0.5723 -0.5053 -0.0861
  341MOL0     N45951   2.759  11.988   8.981  0.4429  0.9731  0.4271
  341MOL0     C45952   3.008  10.942   9.231 -0.1173 -0.4145 -0.2410
  341MOL0     C45953   3.099  10.835   9.256  0.0665 -0.5693  0.5048
  341MOL0     C45954   3.289  10.436   9.207  0.9261 -0.2081 -0.1601
  341MOL0     C45955   3.269  10.323   9.290  0.3586  0.4518  0.6117
  341MOL0     C45956   3.353  10.212   9.285 -0.3770 -0.4151 -0.2740
  341MOL0     C45957   3.456  10.213   9.187 -0.1865 -0.0482 -0.1470
  341MOL0     O45958   3.555  10.129   9.167 -0.2421  0.7251  0.7178
  341MOL0     C45959   3.540   9.985   9.178  0.6753  0.2260  0.5489
  341MOL0     C45960   3.474   9.951   9.050 -0.7705 -0.0767 -0.5581
  341MOL0     C45961   3.565   9.958   8.926 -0.1016  0.3454  0.5595
  341MOL0     C45962   3.487   9.986   8.800  0.0169  0.1737  1.0134
  341MOL0     C45963   3.564   9.941   8.683 -0.2978  0.2529  0.0546
  341MOL0     C45964   3.627   9.928   8.580  0.1247 -0.2354  1.3765
  341MOL0     C45965   3.468  10.322   9.097  0.0229  0.4784  0.5097
  341MOL0     C45966   3.391  10.436   9.108 -0.2683  0.1393  0.0857
  341MOL0     C45967   3.411  10.542   8.985 -0.1586  0.0706  0.2564
  341MOL0     H45968   3.092  10.682   8.949  1.6436  0.4741  1.5018
  341MOL0     H45969   2.905  10.847   8.917 -1.5736 -2.3584  0.9157
  341MOL0     H45970   2.829  11.076   8.889 -0.5961  0.0306 -0.4980
  341MOL0     H45971   2.717  10.957   8.965 -1.1585 -0.3844  1.6720
  341MOL0     H45972   2.616  11.146   9.105  1.4837  0.6372 -1.0398
  341MOL0     H45973   2.563  11.138   8.940 -1.1686  0.8833  0.3837
  341MOL0     H45974   2.748  11.334   8.926  0.2414 -0.6484  1.2727
  341MOL0     H45975   2.742  11.323   9.101  0.0645 -0.1190  0.5840
  341MOL0     H45976   2.524  11.403   8.905  2.5171  1.5200 -0.9770
  341MOL0     H45977   2.484  11.372   9.081  1.2722 -1.2604  0.2879
  341MOL0     H45978   2.621  11.532   9.160 -0.6172 -1.2964  0.0209
  341MOL0     H45979   2.674  11.580   8.988 -1.4041  0.4425 -1.4756
  341MOL0     H45980   2.428  11.640   8.949  0.7426  0.9550  0.0205
  341MOL0     H45981   2.400  11.602   9.123  0.3787  3.3566  0.8841
  341MOL0     H45982   2.601  11.782   9.154 -0.5152 -0.0437  0.5668
  341MOL0     H45983   2.434  11.839   9.145  2.0878  4.2515  0.1287
  341MOL0     H45984   2.597  11.815   8.895  0.1085  0.2472 -0.2358
  341MOL0     H45985   2.441  11.904   8.934 -1.1103 -2.0048  1.3717
  341MOL0     H45986   2.485  12.120   9.114  0.2164 -1.5246  0.4770
  341MOL0     H45987   2.612  12.355   9.164 -0.3013  0.5607  0.1916
  341MOL0     H45988   2.698  12.279   9.289  2.7774  0.5380  0.7555
  341MOL0     H45989   2.837  12.473   9.219  2.7118  0.5990 -1.5211
  341MOL0     H45990   2.902  12.310   9.196  0.4048 -0.2026 -0.8044
  341MOL0     H45991   2.817  12.521   8.979  1.2561  0.7993  0.8953
  341MOL0     H45992   2.838  12.347   8.939  1.2790  0.2447 -1.1378
  341MOL0     H45993   3.060  12.354   9.052 -1.5923 -0.3274  2.3990
  341MOL0     H45994   3.043  12.522   9.079  0.4937  1.2580 -3.2072
  341MOL0     H45995   3.031  12.719   8.988 -0.2867  0.5712 -1.3762
  341MOL0     H45996   2.967  12.917   8.879 -0.3438  0.6667 -1.2743
  341MOL0     H45997   2.651  13.172   8.678 -0.6591  1.3119 -0.0732
  341MOL0     H45998   2.609  13.406   8.620  0.7316  0.4510  1.1075
  341MOL0     H45999   2.581  13.605   8.502  1.0269  0.0925 -2.5019
  341MOL0     H46000   2.635  13.628   8.665 -1.4462 -1.2642 -0.5948
  341MOL0     H46001   2.652  13.816   8.427  0.9996 -3.4326  0.0787
  341MOL0     H46002   2.583  13.845   8.584  0.8948 -0.1730  1.9344
  341MOL0     H46003   2.812  13.874   8.675  2.1791  0.5720  0.1777
  341MOL0     H46004   2.877  13.836   8.514 -0.3282  2.2112 -2.1004
  341MOL0     H46005   2.663  14.043   8.550 -0.9605 -0.7434 -2.0197
  341MOL0     H46006   2.768  14.015   8.413 -1.8879  0.6275 -0.4803
  341MOL0     H46007   2.840  14.138   8.678  0.5147  1.6247 -0.7447
  341MOL0     H46008   2.824  14.210   8.519 -1.8581 -0.9413 -0.1441
  341MOL0     H46009   3.052  14.009   8.612  2.6772  2.2110  0.4665
  341MOL0     H46010   3.040  14.077   8.444  0.5754 -0.5291 -0.6430
  341MOL0     H46011   3.029  14.279   8.659  0.4975  0.0979  2.2161
  341MOL0     H46012   3.105  14.283   8.494 -0.3256 -0.2199  0.9659
  341MOL0     H46013   3.240  14.141   8.730 -0.2883 -2.1908 -1.1285
  341MOL0     H46014   3.316  14.185   8.585  0.3461  1.4180  0.2200
  341MOL0     H46015   3.012  13.479   8.526 -1.7504  2.0929  1.9585
  341MOL0     H46016   3.073  13.263   8.598 -0.5939 -1.0607 -0.5354
  341MOL0     H46017   2.921  12.702   8.506  1.2650  3.0881 -0.7403
  341MOL0     H46018   2.959  12.492   8.630 -4.4291  0.6901 -1.9070
  341MOL0     H46019   2.979  11.000   9.318  0.7270 -1.5244  0.8205
  341MOL0     H46020   3.154  10.830   9.349  1.4903 -1.8231 -0.3683
  341MOL0     H46021   3.180  10.326   9.352  1.8261 -0.1232  2.8798
  341MOL0     H46022   3.338  10.126   9.350 -0.2578 -2.0589 -2.3027
  341MOL0     H46023   3.476   9.967   9.265 -0.2982 -1.9526 -0.5525
  341MOL0     H46024   3.636   9.935   9.188 -0.1926 -1.8856 -0.9304
  341MOL0     H46025   3.385  10.011   9.028  1.0590  3.4426  0.8962
  341MOL0     H46026   3.450   9.844   9.058  1.5043 -0.4893  2.7998
  341MOL0     H46027   3.619   9.863   8.915 -0.1179  0.4659 -0.6533
  341MOL0     H46028   3.644  10.031   8.940  1.4669 -1.3673  1.1036
  341MOL0     H46029   3.384   9.951   8.788  0.2281  0.2093 -1.6151
  341MOL0     H46030   3.486  10.094   8.786  0.3940  0.2079  1.2140
  341MOL0     H46031   3.678   9.895   8.491 -0.4637 -1.2978  1.4113
  341MOL0     H46032   3.534  10.303   9.013 -1.7942 -0.6767 -0.7330
  341MOL0     H46033   3.451  10.639   9.016  5.4790 -1.7417 -0.2258
  341MOL0     H46034   3.471  10.506   8.901 -2.2719  1.0230 -1.7889
  341MOL0     H46035   3.310  10.551   8.944 -0.4523 -0.4194  0.8417
  342MOL0     O46036   2.242   5.206   7.930 -0.0760 -1.0518  0.3419
  342MOL0     C46037   2.208   5.094   7.959 -0.3301  0.2748 -0.6087
  342MOL0     O46038   2.081   5.049   7.979  0.9009 -0.1696 -0.1683
  342MOL0     C46039   1.986   5.151   7.975 -0.1483  0.2431  0.6947
  342MOL0     C46040   1.966   5.236   8.087 -0.6257 -0.3215  0.4630
  342MOL0     C46041   1.864   5.334   8.082  0.3955 -0.5436 -0.1414
  342MOL0     C46042   1.795   5.351   7.964 -0.1910  0.6045 -0.2557
  342MOL0     O46043   1.690   5.444   7.946  0.1935 -0.1862  0.3850
  342MOL0     C46044   1.658   5.535   8.057 -0.7277  0.2080 -0.0930
  342MOL0     C46045   1.585   5.648   7.984  0.3551 -0.4260  0.0454
  342MOL0     C46046   1.567   5.772   8.073  0.2073  0.2017 -0.4324
  342MOL0     C46047   1.699   5.857   8.055  0.0002  0.4723  0.3456
  342MOL0     C46048   1.663   6.008   8.085 -0.1509  0.8521  0.2165
  342MOL0     C46049   1.617   6.032   8.229 -0.7403  0.3421  0.5900
  342MOL0     C46050   1.589   6.178   8.245  0.2168  0.4688 -0.1520
  342MOL0     C46051   1.516   6.211   8.372  0.2047  0.2480 -0.1218
  342MOL0     N46052   1.574   6.140   8.486  0.3784 -0.0861 -1.2347
  342MOL0     C46053   1.688   6.166   8.556 -0.0184 -0.5988 -0.2042
  342MOL0     C46054   1.687   6.083   8.661  0.0688  0.7019 -0.9133
  342MOL0     C46055   1.818   6.061   8.745  0.3932 -0.3490 -0.4034
  342MOL0     C46056   1.840   5.918   8.798 -0.6833  0.4184  0.4787
  342MOL0     C46057   1.944   5.923   8.911 -0.2524  0.2127  0.1010
  342MOL0     C46058   1.970   5.779   8.978 -0.7164  0.1526  0.0285
  342MOL0     O46059   2.061   5.798   9.085  0.1430 -0.2331  0.0414
  342MOL0     C46060   2.091   5.692   9.158 -0.5059 -0.3093 -0.5533
  342MOL0     C46061   2.218   5.685   9.215 -0.6280  0.0984  0.0054
  342MOL0     C46062   2.248   5.579   9.303 -0.3185  0.4952  0.2414
  342MOL0     C46063   2.152   5.474   9.331 -0.2568  0.5179 -0.3634
  342MOL0     C46064   2.183   5.354   9.415 -0.6122 -0.3463  0.0195
  342MOL0     O46065   2.304   5.360   9.475 -0.1107 -1.0351 -0.4915
  342MOL0     C46066   2.342   5.261   9.568 -0.8810 -0.4095  1.0353
  342MOL0     C46067   2.450   5.183   9.519 -0.6470 -0.6714  0.5224
  342MOL0     C46068   2.507   5.085   9.616  0.0176 -0.1799  0.0088
  342MOL0     C46069   2.456   5.076   9.740 -0.1433  0.0708 -0.2766
  342MOL0     O46070   2.517   4.983   9.827  0.0733 -0.6775  0.7424
  342MOL0     C46071   2.658   4.989   9.847  0.3777 -0.3981  0.0307
  342MOL0     C46072   2.694   5.110   9.935  0.5862  0.3116  0.2428
  342MOL0     C46073   2.845   5.114   9.951 -0.1037  0.5962  0.7885
  342MOL0     C46074   2.889   5.208  10.065  0.3914  0.1785 -0.3278
  342MOL0     C46075   3.033   5.193  10.084  0.4447 -0.3643 -0.1551
  342MOL0     C46076   3.078   5.152  10.223 -0.5578 -0.6844  0.1384
  342MOL0     C46077   3.219   5.098  10.247 -0.8613 -1.1200 -0.0630
  342MOL0     C46078   3.245   5.080  10.393  0.2111  0.5377 -0.2997
  342MOL0    Cl46079   3.264   5.244  10.470 -0.3890 -0.6139  0.3396
  342MOL0     C46080   2.344   5.147   9.772 -0.4376 -0.2308 -0.0761
  342MOL0     C46081   2.291   5.238   9.688 -0.3784  0.4280 -0.6236
  342MOL0     O46082   2.105   5.258   9.412 -0.2814  1.4808 -0.2971
  342MOL0     C46083   2.027   5.485   9.273  1.1151 -0.1114  0.4138
  342MOL0     C46084   2.003   5.589   9.185 -0.4337 -0.2871 -0.0604
  342MOL0     N46085   1.566   6.020   8.669  0.1155 -0.0726 -0.3248
  342MOL0     N46086   1.500   6.047   8.559 -0.1653 -0.3853 -0.0194
  342MOL0     C46087   1.821   5.261   7.861  0.2161 -1.0839 -1.1828
  342MOL0     C46088   1.913   5.164   7.864  0.4635  0.1531  0.3381
  342MOL0     C46089   2.312   4.992   7.992 -0.3017  0.6431 -0.1516
  342MOL0     C46090   2.292   4.912   8.109 -0.7059 -0.6098  0.3237
  342MOL0     C46091   2.388   4.815   8.157 -1.0773  0.4126 -0.2100
  342MOL0     C46092   2.508   4.800   8.090  0.0858  0.2151  0.4902
  342MOL0     O46093   2.609   4.712   8.126  0.4002  0.0212 -0.5349
  342MOL0     C46094   2.706   4.652   8.032 -0.1257 -0.3656  0.2403
  342MOL0     C46095   2.746   4.526   8.100  0.0845 -1.0962  0.3295
  342MOL0     C46096   2.875   4.494   8.032  0.0872  0.7326 -0.9334
  342MOL0     C46097   2.956   4.367   8.075 -0.3641 -1.0711 -0.8622
  342MOL0     C46098   2.871   4.251   8.097 -0.0368  0.4149 -0.1358
  342MOL0     C46099   2.785   4.164   8.106 -0.6283 -0.3910  0.1973
  342MOL0     C46100   2.519   4.874   7.971 -0.4825 -0.0073 -0.3040
  342MOL0     C46101   2.424   4.958   7.913 -0.0456  0.3470 -1.0777
  342MOL0     C46102   2.450   5.031   7.779 -0.7455 -0.6871 -0.3868
  342MOL0     H46103   2.020   5.237   8.181 -2.2230  2.4817  1.4606
  342MOL0     H46104   1.849   5.399   8.167 -3.2363  1.2067 -1.8575
  342MOL0     H46105   1.589   5.498   8.133  0.5430 -1.3826  0.3436
  342MOL0     H46106   1.740   5.573   8.118 -1.6904  1.3313  0.5297
  342MOL0     H46107   1.488   5.605   7.954  0.3578  1.0223 -2.3800
  342MOL0     H46108   1.626   5.684   7.889 -3.6971 -0.1264 -1.8315
  342MOL0     H46109   1.561   5.741   8.178 -0.6474 -1.8846 -1.0328
  342MOL0     H46110   1.480   5.833   8.049  1.1252  2.4076  1.5472
  342MOL0     H46111   1.781   5.819   8.117 -0.1413 -0.0179  0.2380
  342MOL0     H46112   1.725   5.856   7.949 -0.8600  1.5327  0.1079
  342MOL0     H46113   1.744   6.070   8.046  1.5604 -2.1871 -1.4105
  342MOL0     H46114   1.580   6.032   8.019  1.3966 -0.9827 -2.5983
  342MOL0     H46115   1.523   5.982   8.254 -1.3327  0.1252 -1.8202
  342MOL0     H46116   1.694   6.007   8.302  0.9438  1.0516 -0.8806
  342MOL0     H46117   1.538   6.218   8.157 -3.0656 -2.5811  0.1257
  342MOL0     H46118   1.692   6.212   8.249  0.0679  0.8946  3.7405
  342MOL0     H46119   1.523   6.316   8.404  3.0264  0.0836  0.1017
  342MOL0     H46120   1.414   6.176   8.357  0.4543 -0.2249 -0.7276
  342MOL0     H46121   1.768   6.230   8.519  0.4344 -0.9239  0.1980
  342MOL0     H46122   1.904   6.089   8.683  1.0550  1.5639  1.2929
  342MOL0     H46123   1.811   6.137   8.823 -0.7205 -0.2206 -0.6220
  342MOL0     H46124   1.746   5.873   8.830 -1.3415 -0.2398 -2.1651
  342MOL0     H46125   1.865   5.844   8.722  1.4251 -0.9386  2.3455
  342MOL0     H46126   1.923   6.009   8.975  0.8618  2.1393 -2.0072
  342MOL0     H46127   2.039   5.958   8.870 -1.3319  0.5949 -2.2128
  342MOL0     H46128   1.995   5.705   8.902 -5.4231  0.9503 -2.6563
  342MOL0     H46129   1.873   5.747   9.019 -0.2009  1.5774  2.5796
  342MOL0     H46130   2.291   5.761   9.188  0.7939 -0.5015  1.9547
  342MOL0     H46131   2.343   5.597   9.352 -0.8356  2.7964  0.5289
  342MOL0     H46132   2.487   5.184   9.417 -0.7307 -1.6583  0.4643
  342MOL0     H46133   2.587   5.019   9.587  0.3927 -0.3807  1.4314
  342MOL0     H46134   2.679   4.898   9.903 -1.0638  0.2053  1.6301
  342MOL0     H46135   2.711   4.967   9.754 -0.5050 -0.5895 -0.4361
  342MOL0     H46136   2.658   5.205   9.894 -0.3301  0.0188  0.3507
  342MOL0     H46137   2.644   5.094  10.031  0.1795 -0.0052 -0.0175
  342MOL0     H46138   2.877   5.012   9.974 -3.0164 -0.1424  1.9956
  342MOL0     H46139   2.881   5.150   9.854 -0.5620 -1.1163 -0.0584
  342MOL0     H46140   2.824   5.186  10.151 -0.0311  1.6908 -0.2349
  342MOL0     H46141   2.860   5.309  10.034  2.0725  0.1842 -2.0104
  342MOL0     H46142   3.086   5.278  10.040 -1.6884 -0.4627 -3.2506
  342MOL0     H46143   3.062   5.109  10.021 -1.7460  0.3020 -2.2399
  342MOL0     H46144   3.058   5.244  10.279 -0.5949 -1.1087  0.8255
  342MOL0     H46145   3.006   5.079  10.260 -0.5641 -0.1984  1.1264
  342MOL0     H46146   3.300   5.161  10.207  0.2467 -2.2133  0.3789
  342MOL0     H46147   3.226   5.000  10.199  0.6890 -2.8429  3.3611
  342MOL0     H46148   3.166   5.027  10.448  0.3757  1.2506  0.6254
  342MOL0     H46149   3.336   5.020  10.405 -1.3190 -2.6016 -2.7159
  342MOL0     H46150   2.312   5.124   9.873 -1.5592 -2.6959 -0.9109
  342MOL0     H46151   2.200   5.284   9.725  0.3621  0.8437  0.7771
  342MOL0     H46152   1.951   5.411   9.296 -0.2269  1.6587  1.9474
  342MOL0     H46153   1.904   5.605   9.142 -0.6369  2.5256  1.2684
  342MOL0     H46154   1.757   5.279   7.775 -1.7088  2.2846  0.7235
  342MOL0     H46155   1.917   5.103   7.775  0.4875  1.2547 -0.4363
  342MOL0     H46156   2.194   4.918   8.155 -0.2360 -0.4826  1.3117
  342MOL0     H46157   2.373   4.770   8.254  1.5155  3.3700  1.7374
  342MOL0     H46158   2.794   4.717   8.030 -0.4351  0.0419  0.0088
  342MOL0     H46159   2.662   4.634   7.934 -0.7124 -1.6145  0.7060
  342MOL0     H46160   2.667   4.452   8.088 -0.9179  0.0799 -0.6117
  342MOL0     H46161   2.761   4.551   8.205 -0.7758  0.3151  0.1488
  342MOL0     H46162   2.943   4.575   8.061 -0.5297  0.3112  1.9801
  342MOL0     H46163   2.861   4.483   7.924 -3.9903 -1.0574 -0.3949
  342MOL0     H46164   3.036   4.347   8.003  0.6398 -1.1396  0.2340
  342MOL0     H46165   3.014   4.383   8.166  2.1472  0.6310 -2.6225
  342MOL0     H46166   2.730   4.075   8.129  0.5087 -1.0903  0.3278
  342MOL0     H46167   2.620   4.872   7.932 -0.0184 -0.1968  0.8749
  342MOL0     H46168   2.378   5.000   7.703 -0.6835  1.1615 -1.2619
  342MOL0     H46169   2.454   5.139   7.799  1.0154 -1.3040  3.4613
  342MOL0     H46170   2.542   5.000   7.730 -1.1426 -0.5212 -1.2569
  343MOL0     O46171   1.701   1.502   0.569  0.0843  0.1945 -0.1793
  343MOL0     C46172   1.651   1.576   0.484  0.3797  0.1896  0.6340
  343MOL0     O46173   1.719   1.669   0.414  0.4981 -0.1058 -0.0647
  343MOL0     C46174   1.851   1.647   0.393  0.9597 -0.5260 -1.0697
  343MOL0     C46175   1.887   1.532   0.310 -0.5612 -0.2598 -0.3620
  343MOL0     C46176   2.026   1.516   0.280 -0.0115  0.4494 -0.3374
  343MOL0     C46177   2.124   1.585   0.339 -1.0771 -0.0383  0.2142
  343MOL0     O46178   2.254   1.549   0.324  0.2053 -0.0870 -0.0569
  343MOL0     C46179   2.307   1.655   0.237 -0.6026  1.0122 -0.1967
  343MOL0     C46180   2.460   1.647   0.256 -0.3933 -0.4439 -0.0558
  343MOL0     C46181   2.516   1.696   0.390  0.9227  0.7962  0.1331
  343MOL0     C46182   2.664   1.647   0.410 -0.1467 -0.4642  0.5782
  343MOL0     C46183   2.715   1.697   0.550 -0.2960 -0.5283  0.0309
  343MOL0     C46184   2.841   1.622   0.588  1.0954 -0.2057  0.7739
  343MOL0     C46185   2.960   1.631   0.491  0.1024  0.7436  0.0727
  343MOL0     C46186   2.998   1.776   0.453  1.1673 -0.9985 -0.1099
  343MOL0     N46187   3.135   1.803   0.434  0.0257  0.3526  0.2874
  343MOL0     C46188   3.202   1.865   0.326  0.2525  0.0623  0.3932
  343MOL0     C46189   3.320   1.890   0.375  0.0574 -0.3133  0.9592
  343MOL0     C46190   3.419   1.982   0.310 -0.5070 -0.0490 -0.4809
  343MOL0     C46191   3.435   1.948   0.154  0.0352 -0.1607 -0.8743
  343MOL0     C46192   3.478   1.799   0.129 -0.2407 -0.1283 -0.4534
  343MOL0     C46193   3.423   1.732  -0.005  0.1165 -0.0286 -0.5336
  343MOL0     O46194   3.281   1.730   0.002  0.9000 -0.0139 -0.0640
  343MOL0     C46195   3.200   1.628   0.057  0.4409  0.0122 -0.4460
  343MOL0     C46196   3.259   1.515   0.126  0.0939  0.1876  0.2501
  343MOL0     C46197   3.176   1.420   0.185 -0.4243 -0.8701  0.2762
  343MOL0     C46198   3.034   1.420   0.175 -0.4954 -0.9612  0.4906
  343MOL0     C46199   2.954   1.323   0.236 -0.2800  0.4469  0.0873
  343MOL0     O46200   2.823   1.350   0.240  0.9659  0.1103  0.5290
  343MOL0     C46201   2.727   1.281   0.321 -0.2785  0.0727  0.4102
  343MOL0     C46202   2.757   1.205   0.437  0.4784 -0.2628  1.3696
  343MOL0     C46203   2.651   1.133   0.490 -0.4739 -0.4344  0.3782
  343MOL0     C46204   2.515   1.136   0.451 -0.0081 -0.6119  0.0468
  343MOL0     O46205   2.410   1.074   0.519 -0.4610  0.1437  0.0913
  343MOL0     C46206   2.426   1.018   0.647  0.3045  0.7525  0.5983
  343MOL0     C46207   2.459   0.869   0.654  0.0908  0.9538  0.6618
  343MOL0     C46208   2.334   0.784   0.629  0.3331 -0.2729  0.8126
  343MOL0     C46209   2.365   0.634   0.606  1.7698  0.6020 -0.0200
  343MOL0     C46210   2.247   0.537   0.631  0.0514  0.4946 -0.3897
  343MOL0     C46211   2.129   0.575   0.549  0.0667  0.1115 -0.0304
  343MOL0     C46212   2.019   0.468   0.573 -0.1892  0.0841  0.5496
  343MOL0     C46213   1.917   0.516   0.687  0.4124 -1.0031  0.8366
  343MOL0    Cl46214   1.817   0.659   0.634 -0.0680  0.3708  0.0957
  343MOL0     C46215   2.481   1.214   0.340  0.0147  0.2197 -0.3776
  343MOL0     C46216   2.589   1.274   0.265 -0.2620 -0.5380  0.1949
  343MOL0     O46217   3.011   1.222   0.274 -0.0364  0.4604 -0.2865
  343MOL0     C46218   2.980   1.537   0.102 -0.4224 -1.0166 -0.8116
  343MOL0     C46219   3.060   1.635   0.042  0.5296  0.8234  0.5376
  343MOL0     N46220   3.329   1.856   0.514 -0.0131 -0.3689  1.3767
  343MOL0     N46221   3.213   1.806   0.548 -0.2192  0.0009  0.2379
  343MOL0     C46222   2.088   1.690   0.423 -0.2275  0.0311  0.6668
  343MOL0     C46223   1.955   1.724   0.453 -0.2577  0.1892 -0.6676
  343MOL0     C46224   1.508   1.565   0.462 -0.6174  0.2893  1.2942
  343MOL0     C46225   1.454   1.651   0.365  0.1530 -0.0776 -0.1094
  343MOL0     C46226   1.323   1.644   0.329  0.5678  1.3129  0.5971
  343MOL0     C46227   1.241   1.542   0.381  0.1634 -0.1091  0.0550
  343MOL0     O46228   1.113   1.533   0.327 -0.0864  0.5899 -0.8256
  343MOL0     C46229   1.031   1.423   0.373  0.1129 -0.0155  0.5284
  343MOL0     C46230   0.887   1.446   0.314  0.4436  0.5513  0.2968
  343MOL0     C46231   0.798   1.551   0.387  0.8055 -0.2033 -0.5102
  343MOL0     C46232   0.654   1.565   0.328  0.4298  0.4933  0.0649
  343MOL0     C46233   0.645   1.641   0.203 -0.1599  0.5823  0.1873
  343MOL0     C46234   0.621   1.703   0.103 -0.5009  0.8936  0.4040
  343MOL0     C46235   1.292   1.459   0.486  0.1873 -1.1443 -0.3644
  343MOL0     C46236   1.428   1.467   0.526 -0.1398  0.1515 -0.1550
  343MOL0     C46237   1.483   1.362   0.617  0.2009 -0.1153  0.1420
  343MOL0     H46238   1.813   1.470   0.261 -2.3145  2.6565 -1.6791
  343MOL0     H46239   2.044   1.424   0.224 -2.5624  0.2617 -0.9761
  343MOL0     H46240   2.277   1.633   0.134 -0.4871  0.1243 -0.0515
  343MOL0     H46241   2.275   1.755   0.268 -2.8019  0.2197  0.2641
  343MOL0     H46242   2.509   1.709   0.181  1.4129  0.9791  2.1801
  343MOL0     H46243   2.494   1.547   0.228  0.0695  0.3916 -2.7541
  343MOL0     H46244   2.451   1.646   0.462  0.3429 -0.6048 -1.2924
  343MOL0     H46245   2.503   1.802   0.410 -2.1566  0.2513  1.6024
  343MOL0     H46246   2.666   1.537   0.415 -1.3343 -0.7039 -2.2881
  343MOL0     H46247   2.719   1.688   0.325  0.4215 -0.1809  1.0826
  343MOL0     H46248   2.729   1.805   0.542 -3.8486  0.2108  1.8583
  343MOL0     H46249   2.633   1.675   0.619 -3.3468 -0.7100 -3.3439
  343MOL0     H46250   2.879   1.665   0.682 -1.0076  0.6912  1.2730
  343MOL0     H46251   2.819   1.516   0.601  1.1757 -0.2117  0.8687
  343MOL0     H46252   2.938   1.569   0.404  2.5342  1.7778 -1.3549
  343MOL0     H46253   3.042   1.575   0.537 -0.2482  1.0084  1.0631
  343MOL0     H46254   2.939   1.782   0.361  1.2991 -2.4051 -0.3123
  343MOL0     H46255   2.964   1.845   0.531  1.2233 -0.4139 -0.5976
  343MOL0     H46256   3.160   1.895   0.231  0.1718 -0.4233  0.2717
  343MOL0     H46257   3.382   2.085   0.312  1.2562  0.6204 -0.6546
  343MOL0     H46258   3.517   1.975   0.360 -1.6956 -0.9559  1.8689
  343MOL0     H46259   3.338   1.966   0.108 -0.2456 -1.5433 -0.8644
  343MOL0     H46260   3.506   2.019   0.110  1.3249  0.0752  1.4232
  343MOL0     H46261   3.432   1.734   0.204 -0.8064  0.2230 -0.4865
  343MOL0     H46262   3.587   1.792   0.127 -0.3541 -3.2579 -0.8166
  343MOL0     H46263   3.463   1.630  -0.016  4.0793  1.1694  1.0378
  343MOL0     H46264   3.443   1.796  -0.091  0.8860 -0.2724 -0.5459
  343MOL0     H46265   3.367   1.518   0.140  0.6713  1.0373 -3.3444
  343MOL0     H46266   3.219   1.340   0.245 -1.8470 -0.5820  1.7519
  343MOL0     H46267   2.855   1.204   0.483  0.8767  2.4520  0.7951
  343MOL0     H46268   2.684   1.073   0.575 -2.3278 -2.5284 -0.2780
  343MOL0     H46269   2.497   1.086   0.693 -2.1372  2.5545  1.9586
  343MOL0     H46270   2.332   1.031   0.701  0.8109  0.0374  1.6916
  343MOL0     H46271   2.537   0.846   0.580 -2.4094 -0.6327 -1.6960
  343MOL0     H46272   2.501   0.850   0.753 -0.3307 -0.0487  0.6618
  343MOL0     H46273   2.268   0.805   0.713 -2.0534  0.3150 -1.0802
  343MOL0     H46274   2.274   0.820   0.544 -2.3640  1.5818  3.2893
  343MOL0     H46275   2.438   0.604   0.681  1.3192 -0.4145  0.0177
  343MOL0     H46276   2.409   0.619   0.507  1.3221  1.8862 -0.4355
  343MOL0     H46277   2.231   0.522   0.738 -0.5414 -0.8137 -0.6351
  343MOL0     H46278   2.279   0.441   0.588 -1.7249 -0.9875  1.4173
  343MOL0     H46279   2.096   0.679   0.563 -2.8520 -0.1458 -3.4628
  343MOL0     H46280   2.173   0.580   0.449  1.2256  0.1080  0.4604
  343MOL0     H46281   2.071   0.374   0.597 -0.1305 -0.4552 -1.4996
  343MOL0     H46282   1.974   0.435   0.478 -0.4302  1.3502  0.2132
  343MOL0     H46283   1.855   0.426   0.698 -1.5113  0.3727  1.8949
  343MOL0     H46284   1.964   0.533   0.785 -0.1373 -1.4718  1.1899
  343MOL0     H46285   2.381   1.228   0.303  0.5641  2.4503 -1.1688
  343MOL0     H46286   2.564   1.329   0.175 -1.7134  1.1078  1.5286
  343MOL0     H46287   2.875   1.560   0.105 -0.3588 -0.7828  1.4373
  343MOL0     H46288   3.012   1.717  -0.012  0.6408  2.3668  2.6160
  343MOL0     H46289   2.165   1.751   0.468  0.9525  0.3376 -1.6073
  343MOL0     H46290   1.929   1.798   0.528 -0.3308  0.1887 -0.6920
  343MOL0     H46291   1.508   1.724   0.305  1.2659 -2.1675 -1.8008
  343MOL0     H46292   1.293   1.716   0.254  2.0287  1.2994 -0.0366
  343MOL0     H46293   1.033   1.409   0.482  0.2313 -1.4970  0.3594
  343MOL0     H46294   1.075   1.335   0.326 -0.0159  1.0759 -1.7438
  343MOL0     H46295   0.828   1.356   0.292 -0.4172  1.2748 -0.4619
  343MOL0     H46296   0.888   1.468   0.206  0.4433 -0.7880 -0.0000
  343MOL0     H46297   0.847   1.649   0.391  3.2023 -1.1808 -2.5859
  343MOL0     H46298   0.787   1.503   0.484  1.4897  0.4747 -0.0842
  343MOL0     H46299   0.617   1.463   0.318  2.9368 -0.6804  1.6442
  343MOL0     H46300   0.598   1.622   0.403  0.6925  2.3780 -1.1273
  343MOL0     H46301   0.602   1.777   0.028  2.3668  2.9464  1.5037
  343MOL0     H46302   1.233   1.387   0.542  0.6272 -0.7561  0.6073
  343MOL0     H46303   1.566   1.301   0.582  1.8981  1.3100  1.5246
  343MOL0     H46304   1.513   1.409   0.711 -0.5630 -1.2424  0.9801
  343MOL0     H46305   1.394   1.304   0.643 -0.8565  0.4437 -1.9814
  344MOL0     O46306   4.377   6.246   6.502 -0.2249 -0.9478  0.6130
  344MOL0     C46307   4.295   6.317   6.442  0.5910  0.3455 -0.1838
  344MOL0     O46308   4.229   6.425   6.491 -0.6663 -0.8058 -0.3386
  344MOL0     C46309   4.239   6.447   6.624 -0.4109 -0.1492 -0.0121
  344MOL0     C46310   4.285   6.574   6.656  0.1840 -0.3947  0.2754
  344MOL0     C46311   4.300   6.632   6.783 -0.8571 -0.3679 -0.4727
  344MOL0     C46312   4.274   6.540   6.887  1.5467  0.0359 -0.5183
  344MOL0     O46313   4.310   6.578   7.014 -0.0666  0.7351 -0.1937
  344MOL0     C46314   4.363   6.711   7.033  0.5522  0.5571  0.2731
  344MOL0     C46315   4.398   6.737   7.176  0.0495  0.7312 -0.0875
  344MOL0     C46316   4.504   6.632   7.232 -0.4099  0.3111 -0.1532
  344MOL0     C46317   4.579   6.658   7.362  0.5083 -0.5797  0.4873
  344MOL0     C46318   4.493   6.717   7.479 -0.1428  0.6304 -0.1293
  344MOL0     C46319   4.423   6.607   7.552 -0.9444  0.6727  0.4614
  344MOL0     C46320   4.359   6.645   7.676  0.2834  0.3119 -0.1309
  344MOL0     C46321   4.450   6.659   7.799  0.8334 -0.2958  0.1902
  344MOL0     N46322   4.373   6.647   7.919  0.2012  0.1607 -0.2478
  344MOL0     C46323   4.294   6.744   7.976  0.2225 -0.1517 -0.4413
  344MOL0     C46324   4.235   6.690   8.077  0.3499  0.4716 -0.9925
  344MOL0     C46325   4.108   6.745   8.134 -0.1085  0.2975 -0.6159
  344MOL0     C46326   4.019   6.638   8.206 -0.1196 -0.2189  0.2645
  344MOL0     C46327   3.968   6.538   8.093 -0.4183  0.4116  0.3893
  344MOL0     C46328   3.841   6.462   8.129 -0.0629 -0.6238  0.1350
  344MOL0     O46329   3.722   6.552   8.142 -1.0467  0.5037  0.4720
  344MOL0     C46330   3.600   6.490   8.175  0.4518 -2.0268 -0.9976
  344MOL0     C46331   3.571   6.352   8.168 -0.5572  0.1713  0.8846
  344MOL0     C46332   3.442   6.298   8.209  0.2834  0.9357  0.1320
  344MOL0     C46333   3.344   6.389   8.234  0.0827 -0.0670  0.2026
  344MOL0     C46334   3.200   6.346   8.242 -0.2878  1.4224 -0.3270
  344MOL0     O46335   3.189   6.211   8.252 -0.2841 -0.4589  0.6875
  344MOL0     C46336   3.072   6.147   8.265 -0.0551 -1.0313  0.3170
  344MOL0     C46337   2.961   6.171   8.180 -0.2126  0.3855  0.2548
  344MOL0     C46338   2.856   6.086   8.185  0.0179 -0.2512  0.0304
  344MOL0     C46339   2.856   5.981   8.289 -0.2726  0.0371 -0.0575
  344MOL0     O46340   2.748   5.906   8.309 -0.0729 -0.5635 -0.7639
  344MOL0     C46341   2.642   5.922   8.210 -0.9082  0.5143 -0.0263
  344MOL0     C46342   2.546   6.032   8.251 -0.1508  0.3967  0.3738
  344MOL0     C46343   2.425   6.056   8.162 -0.3618  0.0255  0.1894
  344MOL0     C46344   2.329   6.158   8.231 -0.6102 -0.6066  0.8075
  344MOL0     C46345   2.233   6.232   8.140 -0.3857  0.0179  0.0350
  344MOL0     C46346   2.136   6.129   8.069  0.0904 -0.2423 -0.9126
  344MOL0     C46347   2.018   6.180   7.988 -0.4593 -0.1244  0.1774
  344MOL0     C46348   1.936   6.293   8.062 -0.5310 -0.0089 -0.3615
  344MOL0    Cl46349   1.803   6.338   7.954 -0.0122 -0.0312  0.0692
  344MOL0     C46350   2.964   5.962   8.367 -0.3679  0.2974  1.0468
  344MOL0     C46351   3.075   6.053   8.358  0.7361  0.1041 -0.3844
  344MOL0     O46352   3.101   6.427   8.246  0.1134 -0.2736  0.0890
  344MOL0     C46353   3.371   6.532   8.239 -0.7057  0.5099 -0.0302
  344MOL0     C46354   3.504   6.576   8.214  1.1110  0.0533  0.6956
  344MOL0     N46355   4.307   6.579   8.114 -1.3145 -0.4593  0.4205
  344MOL0     N46356   4.388   6.548   8.013  0.3849 -0.4675 -0.8635
  344MOL0     C46357   4.227   6.412   6.865 -0.3016  0.3462  0.4979
  344MOL0     C46358   4.205   6.370   6.729 -0.0127  0.4419 -0.0464
  344MOL0     C46359   4.258   6.277   6.305 -0.2234  0.2938  0.3936
  344MOL0     C46360   4.173   6.368   6.234  0.5272  1.0082  0.2392
  344MOL0     C46361   4.142   6.350   6.098  0.1080 -0.7044 -0.3334
  344MOL0     C46362   4.178   6.227   6.038 -0.1337 -0.3266 -0.2740
  344MOL0     O46363   4.130   6.186   5.918 -0.0648 -0.2279 -0.0087
  344MOL0     C46364   4.006   6.237   5.867  0.0793 -1.1496  0.2770
  344MOL0     C46365   3.881   6.212   5.959  0.4141 -0.1049 -0.4381
  344MOL0     C46366   3.859   6.074   5.998  0.2785  0.1333  0.8791
  344MOL0     C46367   3.732   6.068   6.081  0.4514 -0.0033 -0.1070
  344MOL0     C46368   3.601   6.070   6.015  0.3862 -0.2361 -0.2888
  344MOL0     C46369   3.482   6.087   5.983  0.3798  0.4977 -0.7119
  344MOL0     C46370   4.261   6.136   6.102  0.0155 -0.6316 -0.2420
  344MOL0     C46371   4.297   6.159   6.238 -0.1391 -0.2740  0.2124
  344MOL0     C46372   4.383   6.058   6.292 -0.3275 -0.0987  0.7173
  344MOL0     H46373   4.314   6.646   6.580  0.1510  0.7913  1.3382
  344MOL0     H46374   4.348   6.729   6.782 -1.8450  0.1524  0.7744
  344MOL0     H46375   4.452   6.733   6.973 -1.0450  4.3180 -1.0113
  344MOL0     H46376   4.288   6.784   7.003  0.3433 -0.1414 -0.9831
  344MOL0     H46377   4.302   6.736   7.228 -1.0949  1.1720 -2.1077
  344MOL0     H46378   4.436   6.839   7.187 -1.0870  1.0189  1.5708
  344MOL0     H46379   4.570   6.623   7.145 -2.3645  1.7978 -1.9200
  344MOL0     H46380   4.453   6.536   7.244 -1.3002  0.6140 -1.2909
  344MOL0     H46381   4.637   6.569   7.390 -1.0188 -2.4551 -1.8760
  344MOL0     H46382   4.635   6.747   7.335 -1.8371  0.4639 -1.2788
  344MOL0     H46383   4.565   6.764   7.546  0.1512 -2.0936  1.6278
  344MOL0     H46384   4.417   6.785   7.441  1.2445  1.3181 -1.8015
  344MOL0     H46385   4.345   6.566   7.486 -0.7562  2.2205 -0.7706
  344MOL0     H46386   4.502   6.537   7.580 -0.6230  0.6806 -0.4057
  344MOL0     H46387   4.281   6.575   7.708  0.0820  0.7922  0.4667
  344MOL0     H46388   4.311   6.740   7.652  3.2397  1.3224 -2.6928
  344MOL0     H46389   4.531   6.587   7.787  2.3863  1.4753 -0.3417
  344MOL0     H46390   4.492   6.759   7.796  1.0706 -0.3570  1.1608
  344MOL0     H46391   4.259   6.834   7.927  0.1462 -1.2075 -2.4446
  344MOL0     H46392   4.136   6.825   8.204  1.8831 -1.3357  0.5604
  344MOL0     H46393   4.055   6.791   8.050 -1.6341 -4.3598 -2.5505
  344MOL0     H46394   4.089   6.587   8.273 -0.4125 -0.6487  0.2407
  344MOL0     H46395   3.936   6.686   8.259 -0.0966 -0.7619  0.7937
  344MOL0     H46396   4.041   6.457   8.093 -1.0699 -0.1910 -0.0506
  344MOL0     H46397   3.966   6.592   7.998 -2.5862  0.6642  0.5276
  344MOL0     H46398   3.866   6.423   8.228 -0.5249 -2.6205 -0.4855
  344MOL0     H46399   3.840   6.370   8.071  0.7457  1.3412 -3.2737
  344MOL0     H46400   3.648   6.290   8.123  1.2100  2.0119  1.2762
  344MOL0     H46401   3.418   6.192   8.214 -1.2941  1.0842 -2.4741
  344MOL0     H46402   2.958   6.239   8.095 -0.7355 -2.6531 -2.3109
  344MOL0     H46403   2.770   6.112   8.125  0.3993  0.4197 -0.2361
  344MOL0     H46404   2.670   5.926   8.104 -1.1095  0.8251 -0.0686
  344MOL0     H46405   2.580   5.832   8.223  0.2850 -0.1620  1.3142
  344MOL0     H46406   2.520   6.022   8.356 -2.1867 -0.6034 -0.1758
  344MOL0     H46407   2.605   6.123   8.237 -0.9024  0.4484 -4.3061
  344MOL0     H46408   2.463   6.099   8.068  0.6488  4.1202  2.2504
  344MOL0     H46409   2.366   5.965   8.146  0.5318 -0.7245  1.0515
  344MOL0     H46410   2.383   6.233   8.290  0.7035 -0.3610 -0.6333
  344MOL0     H46411   2.272   6.095   8.299 -3.6593  0.9788 -0.1178
  344MOL0     H46412   2.291   6.289   8.067 -1.3201 -0.1062 -0.8177
  344MOL0     H46413   2.166   6.286   8.208 -0.0893  0.5044 -0.0568
  344MOL0     H46414   2.195   6.060   8.007 -1.6354 -0.6686 -2.1700
  344MOL0     H46415   2.092   6.067   8.147 -1.7431  0.8948 -0.9731
  344MOL0     H46416   1.949   6.097   7.973 -0.1614 -0.6399  1.5686
  344MOL0     H46417   2.059   6.226   7.897 -0.2560  1.1976  0.9184
  344MOL0     H46418   1.895   6.258   8.157 -2.4677  0.9360 -0.7964
  344MOL0     H46419   1.999   6.379   8.085 -1.8929  0.1044  3.6920
  344MOL0     H46420   2.960   5.883   8.440 -0.9047 -1.4905 -0.8150
  344MOL0     H46421   3.163   6.047   8.421 -0.4072  0.7052  1.3166
  344MOL0     H46422   3.298   6.610   8.258 -0.0437  0.8687  1.0883
  344MOL0     H46423   3.525   6.682   8.224 -1.0706  0.6731 -0.6163
  344MOL0     H46424   4.205   6.346   6.948  2.7406 -1.0998  0.2764
  344MOL0     H46425   4.167   6.268   6.728  3.4316 -1.0285  1.5426
  344MOL0     H46426   4.126   6.447   6.291 -0.3417 -0.2187  1.2673
  344MOL0     H46427   4.087   6.429   6.047  2.2849  0.4329 -1.0342
  344MOL0     H46428   3.997   6.184   5.772 -1.1937 -1.3956  0.5079
  344MOL0     H46429   4.015   6.343   5.842  1.8244 -0.9851  1.4311
  344MOL0     H46430   3.796   6.257   5.907  2.6480  0.6685 -3.7700
  344MOL0     H46431   3.889   6.273   6.049  1.7781 -0.8946  0.0005
  344MOL0     H46432   3.946   6.054   6.061 -1.4376  0.9027  3.7116
  344MOL0     H46433   3.860   5.995   5.922 -1.4496  1.3053 -0.4379
  344MOL0     H46434   3.731   5.972   6.133 -0.7540  0.2144  0.3021
  344MOL0     H46435   3.738   6.148   6.155  1.7733  1.7667 -1.9965
  344MOL0     H46436   3.382   6.100   5.948  0.1055  1.6093  0.4198
  344MOL0     H46437   4.290   6.048   6.044 -0.2682 -0.1000 -1.2071
  344MOL0     H46438   4.345   5.988   6.367  1.9472 -1.4880  0.6710
  344MOL0     H46439   4.407   5.996   6.206 -0.7076 -2.5902  2.3005
  344MOL0     H46440   4.477   6.098   6.331  0.2637  0.3148 -1.0798
  345MOL0     O46441   2.070   4.248   0.526 -0.1735  0.4219 -1.0970
  345MOL0     C46442   2.081   4.261   0.647  0.3815 -0.8223 -0.5283
  345MOL0     O46443   1.978   4.262   0.742 -0.3222 -0.7825  1.3642
  345MOL0     C46444   1.849   4.265   0.691  0.8002  0.7319  0.3981
  345MOL0     C46445   1.794   4.148   0.653  0.2059  0.3861 -0.1401
  345MOL0     C46446   1.662   4.134   0.618 -0.2706  0.0751  0.2756
  345MOL0     C46447   1.581   4.251   0.603 -0.0920 -0.3294  0.2419
  345MOL0     O46448   1.452   4.250   0.555 -0.5592  0.5826 -0.0176
  345MOL0     C46449   1.426   4.202   0.423  0.7938  0.2836 -0.4400
  345MOL0     C46450   1.431   4.316   0.325 -0.5281  0.2494 -0.5904
  345MOL0     C46451   1.322   4.429   0.355 -1.1324  0.8068  0.9428
  345MOL0     C46452   1.299   4.503   0.217 -0.3804  0.0315  0.8397
  345MOL0     C46453   1.198   4.614   0.231 -0.4580 -0.6028 -0.2950
  345MOL0     C46454   1.220   4.711   0.110  0.3920  0.2671  0.1397
  345MOL0     C46455   1.336   4.810   0.125  0.2041 -0.0080 -0.9769
  345MOL0     C46456   1.359   4.900   0.007  0.2894  0.2149 -0.5470
  345MOL0     N46457   1.481   4.971   0.002  1.1633 -0.0156  0.4086
  345MOL0     C46458   1.500   5.081   0.079 -0.0966 -0.0980 -0.8477
  345MOL0     C46459   1.633   5.098   0.080 -1.7735 -0.4402 -0.4893
  345MOL0     C46460   1.717   5.203   0.148  0.1128  0.3504 -0.3948
  345MOL0     C46461   1.749   5.314   0.045  0.1486 -0.2651  0.0693
  345MOL0     C46462   1.873   5.278  -0.037  0.0936 -0.1310  0.4706
  345MOL0     C46463   1.996   5.340   0.025  0.3403 -0.4696 -0.0470
  345MOL0     O46464   2.052   5.250   0.120  0.1324 -0.2241  0.0778
  345MOL0     C46465   2.165   5.179   0.087 -0.4382 -0.3361 -0.1661
  345MOL0     C46466   2.229   5.158  -0.036  1.8157  0.1975 -0.0260
  345MOL0     C46467   2.349   5.093  -0.042 -0.3649  0.5121 -0.9358
  345MOL0     C46468   2.401   5.025   0.076  0.1507  0.0298 -1.8435
  345MOL0     C46469   2.513   4.938   0.069 -0.3117  0.1373 -0.4684
  345MOL0     O46470   2.566   4.897  -0.045 -0.1024  0.1065  0.0618
  345MOL0     C46471   2.655   4.790  -0.044 -0.2904  0.9813 -0.1017
  345MOL0     C46472   2.757   4.778  -0.142  0.7367 -0.0528  0.3161
  345MOL0     C46473   2.818   4.658  -0.170  0.3674  0.3621  0.4467
  345MOL0     C46474   2.784   4.547  -0.095 -0.5827  0.9807 -0.2863
  345MOL0     O46475   2.853   4.422  -0.115  0.4633 -0.1035  0.3303
  345MOL0     C46476   2.955   4.410  -0.217  0.0618  0.8407 -0.0675
  345MOL0     C46477   3.086   4.471  -0.158 -0.1514 -0.3386  0.7926
  345MOL0     C46478   3.155   4.376  -0.060 -0.2935  0.0122  0.2265
  345MOL0     C46479   3.261   4.451   0.025  0.2253  0.5704 -0.9458
  345MOL0     C46480   3.322   4.346   0.130 -0.9994  0.1129  0.2025
  345MOL0     C46481   3.416   4.250   0.059  0.1972  1.0180  0.2821
  345MOL0     C46482   3.512   4.174   0.156  0.5322 -0.5888  0.0182
  345MOL0     C46483   3.613   4.098   0.077 -0.6439 -0.1838  0.8282
  345MOL0    Cl46484   3.735   4.208   0.036 -0.2458 -0.4732  0.6507
  345MOL0     C46485   2.698   4.560   0.006  0.4213  0.2818 -0.2063
  345MOL0     C46486   2.634   4.673   0.031  0.0783  0.1289 -0.8639
  345MOL0     O46487   2.555   4.901   0.179  0.3350  0.3063 -0.5400
  345MOL0     C46488   2.333   5.045   0.203  0.1001 -0.0981  0.2542
  345MOL0     C46489   2.209   5.111   0.199  0.0925  0.6402 -0.0852
  345MOL0     N46490   1.686   5.009  -0.017 -0.1890 -0.5153  0.4707
  345MOL0     N46491   1.595   4.937  -0.061  0.1560  0.6030  0.4328
  345MOL0     C46492   1.637   4.380   0.627 -0.3632  0.4570 -0.1352
  345MOL0     C46493   1.772   4.381   0.670  0.7580  0.1652 -0.0859
  345MOL0     C46494   2.226   4.253   0.700  0.4411 -0.1115  0.5978
  345MOL0     C46495   2.326   4.328   0.621 -0.5178 -0.1481  0.3717
  345MOL0     C46496   2.464   4.321   0.648 -0.6021 -0.0155  0.6273
  345MOL0     C46497   2.507   4.244   0.758 -1.3096  0.2513  0.4329
  345MOL0     O46498   2.643   4.225   0.792  0.1066 -0.4749 -0.6469
  345MOL0     C46499   2.711   4.346   0.831  0.8209  0.1415  0.2587
  345MOL0     C46500   2.801   4.310   0.940 -0.1962 -0.3245 -0.0543
  345MOL0     C46501   2.931   4.252   0.885  0.1970  0.0096 -1.1966
  345MOL0     C46502   3.046   4.344   0.865 -0.4235 -0.2943 -0.2200
  345MOL0     C46503   3.020   4.455   0.772 -0.3530 -0.5532  0.0969
  345MOL0     C46504   3.007   4.540   0.679 -0.1798  0.6025 -0.5165
  345MOL0     C46505   2.416   4.174   0.837 -0.3291  0.4165  0.1525
  345MOL0     C46506   2.273   4.189   0.817 -0.3610  0.7967  0.6091
  345MOL0     C46507   2.188   4.086   0.896 -0.1220  0.1462  0.1852
  345MOL0     H46508   1.851   4.057   0.670  0.1600  0.5493  0.9882
  345MOL0     H46509   1.623   4.035   0.599  0.0307  0.2748 -1.5400
  345MOL0     H46510   1.481   4.113   0.391 -1.2808 -1.4653  0.5770
  345MOL0     H46511   1.321   4.174   0.413  0.5611  1.2340 -0.7739
  345MOL0     H46512   1.418   4.273   0.225  3.9300 -0.4524 -1.0781
  345MOL0     H46513   1.531   4.359   0.317 -1.6269  2.8063 -1.7298
  345MOL0     H46514   1.356   4.506   0.425 -1.4679  1.6934  0.1595
  345MOL0     H46515   1.228   4.386   0.391  0.1018 -3.8329 -0.7305
  345MOL0     H46516   1.394   4.549   0.190 -0.5846 -1.0381 -2.0396
  345MOL0     H46517   1.277   4.417   0.153  0.0167  1.1252 -0.8205
  345MOL0     H46518   1.096   4.576   0.224 -1.1344  1.2069 -0.8786
  345MOL0     H46519   1.212   4.660   0.329  1.9817  0.1633 -0.9470
  345MOL0     H46520   1.229   4.655   0.017  0.7171 -0.2510  0.4819
  345MOL0     H46521   1.123   4.762   0.104 -0.5631 -1.5919 -1.1471
  345MOL0     H46522   1.427   4.757   0.155  1.5166  1.9490 -1.2413
  345MOL0     H46523   1.302   4.876   0.206  2.4393  1.5804 -1.2495
  345MOL0     H46524   1.358   4.839  -0.085 -0.3286  0.6935 -0.8670
  345MOL0     H46525   1.279   4.971  -0.015  0.7614  0.5772 -1.1425
  345MOL0     H46526   1.424   5.131   0.139  0.0911 -3.5057  2.5681
  345MOL0     H46527   1.668   5.233   0.242 -0.5836 -3.5800  0.7011
  345MOL0     H46528   1.804   5.145   0.179 -1.1976 -0.8443  1.2567
  345MOL0     H46529   1.660   5.315  -0.019  0.4127  0.3940 -0.2936
  345MOL0     H46530   1.752   5.412   0.092  0.1307 -0.5766  0.7377
  345MOL0     H46531   1.844   5.310  -0.138 -0.7680 -0.3637  0.6374
  345MOL0     H46532   1.883   5.169  -0.046  1.5172  0.0544 -0.4671
  345MOL0     H46533   1.966   5.430   0.080 -1.0042 -1.3738  0.7629
  345MOL0     H46534   2.068   5.367  -0.052 -0.1290  0.9403 -0.0160
  345MOL0     H46535   2.196   5.212  -0.124 -1.4400 -1.1831  0.2022
  345MOL0     H46536   2.404   5.096  -0.136  0.8580  0.6895 -0.2310
  345MOL0     H46537   2.775   4.874  -0.190 -3.4214 -0.2135 -2.0831
  345MOL0     H46538   2.894   4.670  -0.246  1.2354 -0.6860  1.1159
  345MOL0     H46539   2.977   4.308  -0.249 -1.9154  0.8539 -1.6196
  345MOL0     H46540   2.927   4.467  -0.306 -0.6191 -2.1054 -1.8733
  345MOL0     H46541   3.156   4.500  -0.236 -0.0653 -0.5590  0.7875
  345MOL0     H46542   3.072   4.562  -0.098 -0.5555 -0.9769  1.6911
  345MOL0     H46543   3.073   4.330  -0.004  1.0821 -2.4556  0.3367
  345MOL0     H46544   3.201   4.292  -0.112  3.3350  2.7796 -1.4587
  345MOL0     H46545   3.229   4.543   0.074  0.5467  1.2830 -2.0333
  345MOL0     H46546   3.347   4.483  -0.034  2.4768  2.5224  3.0198
  345MOL0     H46547   3.246   4.288   0.184 -1.0067  0.5179  0.6353
  345MOL0     H46548   3.368   4.407   0.208 -1.5019 -1.7746  2.0612
  345MOL0     H46549   3.357   4.166   0.021  2.4045 -0.0759 -0.9155
  345MOL0     H46550   3.467   4.291  -0.028  2.5720 -4.8542 -1.5742
  345MOL0     H46551   3.455   4.104   0.217  0.9203 -0.3085  0.7174
  345MOL0     H46552   3.556   4.242   0.229  0.9443 -1.1871  0.3247
  345MOL0     H46553   3.659   4.021   0.140 -0.0123 -1.7428 -1.4222
  345MOL0     H46554   3.579   4.035  -0.006 -2.3442  0.9137  0.6248
  345MOL0     H46555   2.679   4.469   0.062 -0.7299  0.1228 -0.8386
  345MOL0     H46556   2.558   4.680   0.108  1.8127 -2.4805  1.2711
  345MOL0     H46557   2.369   5.001   0.295  1.4464 -0.8718 -0.6138
  345MOL0     H46558   2.165   5.122   0.297 -0.8850  0.9116 -0.5432
  345MOL0     H46559   1.576   4.469   0.613 -2.5166 -0.8391  0.3614
  345MOL0     H46560   1.831   4.472   0.682 -1.1024  1.1259  2.5287
  345MOL0     H46561   2.292   4.376   0.530  1.6591  0.0173 -0.4133
  345MOL0     H46562   2.539   4.362   0.581 -0.6131 -0.3202  0.4220
  345MOL0     H46563   2.640   4.410   0.883  0.4980  1.2325 -1.4458
  345MOL0     H46564   2.763   4.392   0.746  0.2160 -0.3512 -0.3874
  345MOL0     H46565   2.755   4.231   0.999 -0.1466  0.6610  1.3532
  345MOL0     H46566   2.827   4.398   1.000 -0.0021  0.5124 -1.3258
  345MOL0     H46567   2.921   4.195   0.792  0.7537  1.8753 -2.4393
  345MOL0     H46568   2.972   4.175   0.952 -3.5547 -0.1787  1.1832
  345MOL0     H46569   3.066   4.384   0.965 -1.6824 -0.7701  0.2439
  345MOL0     H46570   3.124   4.283   0.819  1.8539  2.4983 -0.3612
  345MOL0     H46571   2.996   4.630   0.621 -3.1702  1.8619  1.7537
  345MOL0     H46572   2.439   4.101   0.913  0.1098  1.3701  0.9606
  345MOL0     H46573   2.097   4.067   0.839 -0.4791  0.4491  0.6423
  345MOL0     H46574   2.255   4.001   0.910 -0.0969 -0.4091 -2.7646
  345MOL0     H46575   2.171   4.123   0.998  0.2611  0.2203  0.2245
  346MOL0     O46576   0.009   1.212   9.882 -0.8246  1.1605  0.0105
  346MOL0     C46577   0.037   1.198   9.764  0.1879  0.2663  0.5462
  346MOL0     O46578   0.127   1.107   9.715  0.3688 -0.0422  0.0243
  346MOL0     C46579   0.217   1.053   9.800 -0.5245 -0.3709 -0.3520
  346MOL0     C46580   0.182   0.979   9.913  0.1143  0.1442 -0.2436
  346MOL0     C46581   0.281   0.913   9.991  0.7694  0.1546  0.8164
  346MOL0     C46582   0.413   0.923   9.957  0.0510  0.0153 -0.7619
  346MOL0     O46583   0.520   0.867  10.025 -0.0331  0.1275  0.6236
  346MOL0     C46584   0.508   0.774  10.129  1.1255 -0.1678 -0.6250
  346MOL0     C46585   0.653   0.727  10.153 -0.2295  0.1660 -0.4130
  346MOL0     C46586   0.747   0.845  10.165  0.2889 -0.4751  0.4073
  346MOL0     C46587   0.731   0.921  10.291  0.7313  0.3150 -0.4030
  346MOL0     C46588   0.845   1.019  10.296  0.4930 -0.5290 -0.2649
  346MOL0     C46589   0.845   1.099  10.438 -0.8659 -0.3060 -0.0784
  346MOL0     C46590   0.970   1.182  10.442  0.3735  0.0296  0.6427
  346MOL0     C46591   1.099   1.104  10.494 -0.1865  0.0390  0.1203
  346MOL0     N46592   1.114   1.111  10.644  0.7114 -0.0832  0.7640
  346MOL0     C46593   1.153   1.218  10.706 -0.0077  0.1786 -0.1962
  346MOL0     C46594   1.108   1.198  10.832  0.1064 -0.2414 -0.2651
  346MOL0     C46595   1.107   1.298  10.945  0.0069  0.2803  0.0655
  346MOL0     C46596   1.203   1.415  10.927 -0.3326 -0.5135  0.4318
  346MOL0     C46597   1.212   1.497  11.057 -0.5683 -0.2368  0.2161
  346MOL0     C46598   1.106   1.605  11.090 -0.1569  0.4136 -0.1678
  346MOL0     O46599   1.103   1.639  11.225  0.2289  0.7547  0.5794
  346MOL0     C46600   1.017   1.733  11.277 -0.6354 -0.7365 -0.6526
  346MOL0     C46601   1.036   1.767  11.407 -0.6423  0.6723  0.8090
  346MOL0     C46602   0.964   1.856  11.477  0.3573 -1.2064  1.0187
  346MOL0     C46603   0.863   1.932  11.408  0.4588 -0.4258 -0.0847
  346MOL0     C46604   0.768   2.011  11.475 -0.5215  0.1455  0.3353
  346MOL0     O46605   0.788   2.032  11.613 -0.4143 -0.2772  0.1491
  346MOL0     C46606   0.694   2.097  11.683  0.8127 -0.6354  0.0335
  346MOL0     C46607   0.579   2.035  11.722  1.2409 -0.3043 -0.5520
  346MOL0     C46608   0.483   2.113  11.794 -0.3632  0.3013 -0.7339
  346MOL0     C46609   0.516   2.252  11.827 -0.4968 -0.1523 -0.0513
  346MOL0     O46610   0.426   2.336  11.895  0.2945  0.5435  0.7194
  346MOL0     C46611   0.298   2.318  11.830  0.3064 -0.0079 -0.1844
  346MOL0     C46612   0.200   2.429  11.868  0.8352  0.1616 -0.4710
  346MOL0     C46613   0.056   2.419  11.801  0.2451 -0.4454 -0.4380
  346MOL0     C46614  -0.046   2.500  11.861  0.6068 -0.6678 -0.1037
  346MOL0     C46615  -0.173   2.509  11.769 -0.0956  0.1077  0.2994
  346MOL0     C46616  -0.296   2.553  11.851 -0.7551 -1.1801  0.2062
  346MOL0     C46617  -0.413   2.547  11.754 -0.0696  0.1808 -0.0077
  346MOL0     C46618  -0.539   2.603  11.819  0.4225 -0.5401 -0.7575
  346MOL0    Cl46619  -0.618   2.513  11.950  0.0736  0.1184 -0.3873
  346MOL0     C46620   0.637   2.309  11.787  0.5692  0.3956  0.4747
  346MOL0     C46621   0.727   2.229  11.711 -0.8156  0.0369 -0.2662
  346MOL0     O46622   0.686   2.062  11.408  0.0971 -0.3567  1.0824
  346MOL0     C46623   0.848   1.899  11.269 -0.2572 -0.3290 -0.3984
  346MOL0     C46624   0.931   1.812  11.203 -0.9381  0.2100 -0.7755
  346MOL0     N46625   1.059   1.072  10.839 -0.1319  0.9175  0.1739
  346MOL0     N46626   1.061   1.017  10.722  0.1355 -0.3056  0.1248
  346MOL0     C46627   0.448   1.003   9.844  0.5874  0.5059 -0.7494
  346MOL0     C46628   0.357   1.069   9.773 -0.4188  0.0216 -0.1394
  346MOL0     C46629  -0.035   1.282   9.661  0.3862 -0.4587 -0.3922
  346MOL0     C46630   0.029   1.290   9.540  0.5451  0.6915 -0.8188
  346MOL0     C46631  -0.027   1.347   9.432  0.4433  0.1316 -0.7255
  346MOL0     C46632  -0.148   1.406   9.443  0.0667 -0.2427  0.2334
  346MOL0     O46633  -0.190   1.461   9.323 -0.0815  0.1681  0.2972
  346MOL0     C46634  -0.318   1.528   9.310  0.0784  0.2876 -0.1061
  346MOL0     C46635  -0.300   1.665   9.370 -0.2484 -0.5123 -0.2582
  346MOL0     C46636  -0.434   1.741   9.379 -1.0545  0.5122 -0.1339
  346MOL0     C46637  -0.488   1.791   9.243 -0.3089  0.2906 -0.2779
  346MOL0     C46638  -0.418   1.905   9.176  0.3101  0.6182  0.4106
  346MOL0     C46639  -0.352   1.999   9.126  0.5513  0.4435 -0.1410
  346MOL0     C46640  -0.228   1.402   9.561 -1.3275 -0.5583 -0.7610
  346MOL0     C46641  -0.165   1.347   9.678  0.0672  0.0459  0.0192
  346MOL0     C46642  -0.237   1.357   9.811  0.0454 -0.3241 -0.7710
  346MOL0     H46643   0.077   0.959   9.932  0.5394 -4.2546 -1.4730
  346MOL0     H46644   0.236   0.860  10.075 -1.7444  0.6994 -0.0937
  346MOL0     H46645   0.477   0.821  10.222 -2.4421  1.6185 -2.5013
  346MOL0     H46646   0.439   0.690  10.116  1.5557 -1.0130  1.9541
  346MOL0     H46647   0.693   0.669  10.070  4.3502  2.8230 -0.3877
  346MOL0     H46648   0.660   0.652  10.232  1.1181 -0.8584 -1.4632
  346MOL0     H46649   0.730   0.922  10.090  1.9590  2.5544  2.8946
  346MOL0     H46650   0.850   0.808  10.169  0.0272 -1.4182 -0.7905
  346MOL0     H46651   0.634   0.971  10.281 -0.3473 -1.6324 -0.2154
  346MOL0     H46652   0.739   0.864  10.383 -3.7825  0.1371  0.0974
  346MOL0     H46653   0.936   0.959  10.295  0.3649 -0.7206 -0.6388
  346MOL0     H46654   0.847   1.083  10.207 -0.1810  0.8173  0.6439
  346MOL0     H46655   0.752   1.156  10.435 -1.5481 -1.3617  0.3079
  346MOL0     H46656   0.839   1.038  10.529  0.9373  2.5457  2.1425
  346MOL0     H46657   0.960   1.279  10.492 -0.7316 -0.3745  1.2462
  346MOL0     H46658   0.997   1.211  10.340  2.5838  1.4515  1.5530
  346MOL0     H46659   1.089   0.997  10.475  1.7059  0.1337 -1.8233
  346MOL0     H46660   1.191   1.143  10.449  0.4870  0.2467  1.6236
  346MOL0     H46661   1.198   1.312  10.676 -1.2762  0.8844  0.0792
  346MOL0     H46662   1.007   1.340  10.962 -0.4219  0.2331 -1.9834
  346MOL0     H46663   1.138   1.238  11.031 -2.2098  1.5565  1.8808
  346MOL0     H46664   1.296   1.371  10.891 -1.0689 -1.0781 -0.8757
  346MOL0     H46665   1.159   1.471  10.844  0.7979 -1.0080 -0.5333
  346MOL0     H46666   1.304   1.557  11.055  0.8937 -2.2563  2.1232
  346MOL0     H46667   1.218   1.428  11.141  0.3010 -0.8935 -0.3569
  346MOL0     H46668   1.012   1.560  11.055 -0.3391  1.6732 -1.3847
  346MOL0     H46669   1.129   1.688  11.022 -0.9336 -0.5937 -1.7252
  346MOL0     H46670   1.101   1.707  11.470  1.2027  0.2770 -1.3380
  346MOL0     H46671   0.990   1.869  11.582  0.5699  0.5065  0.7713
  346MOL0     H46672   0.555   1.931  11.703 -1.7173  0.7848 -4.0162
  346MOL0     H46673   0.395   2.060  11.827  1.2271 -2.0129  0.0058
  346MOL0     H46674   0.294   2.309  11.721 -2.1752  1.9484 -0.3518
  346MOL0     H46675   0.255   2.222  11.860 -0.2120 -0.2871 -1.7424
  346MOL0     H46676   0.195   2.431  11.977  1.7151 -0.6720 -0.4047
  346MOL0     H46677   0.243   2.527  11.843  2.1503 -0.7646 -2.0698
  346MOL0     H46678   0.064   2.456  11.698  1.3105 -1.3490 -0.7060
  346MOL0     H46679   0.025   2.314  11.799  0.3383 -0.4693 -0.6188
  346MOL0     H46680  -0.012   2.602  11.877  0.6330 -0.9966  2.3249
  346MOL0     H46681  -0.073   2.471  11.963 -1.2981 -0.8866 -0.6308
  346MOL0     H46682  -0.190   2.406  11.738  0.4183  0.7919 -2.5464
  346MOL0     H46683  -0.167   2.576  11.683  0.2547  0.7041  0.7822
  346MOL0     H46684  -0.319   2.485  11.933 -3.0131 -0.5542  0.1607
  346MOL0     H46685  -0.283   2.657  11.885 -2.1529 -0.1257 -2.2706
  346MOL0     H46686  -0.427   2.444  11.718 -0.2460  0.5449 -1.0003
  346MOL0     H46687  -0.386   2.603  11.664  1.4701 -0.6264 -0.0857
  346MOL0     H46688  -0.526   2.707  11.849 -4.1949  0.4626 -1.5343
  346MOL0     H46689  -0.614   2.610  11.740  1.7687  1.3506 -1.9622
  346MOL0     H46690   0.653   2.416  11.802 -0.9520  0.9637 -1.4831
  346MOL0     H46691   0.822   2.267  11.675 -1.7048  3.1760  0.3396
  346MOL0     H46692   0.765   1.942  11.214  0.2328 -0.4010 -1.2240
  346MOL0     H46693   0.928   1.796  11.096  0.9218 -0.1162 -0.8087
  346MOL0     H46694   0.555   1.015   9.827  1.6968 -0.3986  4.0316
  346MOL0     H46695   0.375   1.136   9.689 -1.6463 -0.4668 -0.8220
  346MOL0     H46696   0.120   1.231   9.535 -0.1993 -0.6075  0.2573
  346MOL0     H46697   0.041   1.349   9.348  0.4904  1.0206 -0.6769
  346MOL0     H46698  -0.401   1.477   9.359  0.5305 -1.0538 -0.6965
  346MOL0     H46699  -0.349   1.546   9.207  0.5643  0.3818 -0.2424
  346MOL0     H46700  -0.243   1.728   9.301 -0.1270  0.0982  0.3874
  346MOL0     H46701  -0.257   1.666   9.470  0.6383  4.1446 -0.4685
  346MOL0     H46702  -0.433   1.812   9.462 -0.0198  0.8256 -0.4124
  346MOL0     H46703  -0.510   1.666   9.405 -2.4740  1.8974 -0.0862
  346MOL0     H46704  -0.486   1.712   9.168  0.3240 -0.0737  0.1175
  346MOL0     H46705  -0.592   1.820   9.260 -0.1124  0.5577  0.5284
  346MOL0     H46706  -0.297   2.085   9.093 -1.2051  0.8877 -2.1641
  346MOL0     H46707  -0.326   1.446   9.576 -1.2628 -1.4192  3.2468
  346MOL0     H46708  -0.307   1.277   9.835 -0.4993  1.1137  3.2990
  346MOL0     H46709  -0.164   1.360   9.892 -1.0022 -1.7770  0.2671
  346MOL0     H46710  -0.305   1.443   9.800 -1.8835 -1.8226 -1.1007
  347MOL0     O46711   1.137   5.386   8.666  0.6147  0.0647 -1.5071
  347MOL0     C46712   1.070   5.489   8.629  0.6719  0.4191 -0.7329
  347MOL0     O46713   1.118   5.596   8.559 -0.5185 -0.5182  0.1053
  347MOL0     C46714   1.259   5.584   8.545  0.8230  0.1231  0.4278
  347MOL0     C46715   1.346   5.693   8.589 -0.1141  0.2457  0.2440
  347MOL0     C46716   1.479   5.688   8.550  0.7653 -0.4389  0.8123
  347MOL0     C46717   1.536   5.590   8.462  0.9032 -0.2065 -0.1293
  347MOL0     O46718   1.662   5.576   8.422 -0.5693  0.2244 -0.1613
  347MOL0     C46719   1.765   5.588   8.526  0.6908 -0.4909 -1.5851
  347MOL0     C46720   1.906   5.577   8.482 -0.1429 -0.1297 -0.6389
  347MOL0     C46721   1.946   5.716   8.414 -0.3985 -0.4841 -0.3485
  347MOL0     C46722   2.096   5.736   8.380 -0.9806 -0.2372  0.2418
  347MOL0     C46723   2.137   5.631   8.273  0.3980 -0.3758  0.9971
  347MOL0     C46724   2.247   5.672   8.178 -0.8334 -0.5078  0.1156
  347MOL0     C46725   2.319   5.551   8.117 -0.0576  0.3035  0.5125
  347MOL0     C46726   2.408   5.585   8.001  0.3791 -0.2992 -0.2294
  347MOL0     N46727   2.546   5.624   8.042  0.2087  0.6549 -1.0139
  347MOL0     C46728   2.608   5.583   8.159 -0.3490  0.4083 -0.2081
  347MOL0     C46729   2.740   5.623   8.141  0.0376  0.4625  0.5918
  347MOL0     C46730   2.850   5.599   8.249 -0.4499  0.6180 -0.0779
  347MOL0     C46731   2.984   5.542   8.185  0.1397 -0.9596  0.6678
  347MOL0     C46732   2.977   5.404   8.132  0.0170 -0.0238  0.2637
  347MOL0     C46733   3.111   5.362   8.065 -0.0489 -0.3099  0.3977
  347MOL0     O46734   3.107   5.220   8.036 -0.9454  0.1222 -0.8036
  347MOL0     C46735   3.225   5.151   8.042 -0.6629  0.2452  0.8261
  347MOL0     C46736   3.220   5.005   8.049 -0.4427 -0.2686  0.0940
  347MOL0     C46737   3.338   4.934   8.050  0.1549 -0.3598 -1.5101
  347MOL0     C46738   3.466   4.998   8.047 -0.0062 -0.1365  0.2934
  347MOL0     C46739   3.589   4.923   8.033 -0.3707  0.1924 -1.1641
  347MOL0     O46740   3.574   4.793   8.066 -0.3102 -0.2200  0.0641
  347MOL0     C46741   3.674   4.695   8.046  0.3890 -0.0006  1.0229
  347MOL0     C46742   3.721   4.631   8.156 -0.8768 -0.2130 -0.7339
  347MOL0     C46743   3.835   4.545   8.131  0.7522  0.7752  0.5322
  347MOL0     C46744   3.890   4.531   8.002  0.3499 -0.0029 -1.1346
  347MOL0     O46745   3.987   4.442   7.999  1.1516 -0.4936 -0.2884
  347MOL0     C46746   4.069   4.432   7.884 -0.4128 -0.3029 -0.0853
  347MOL0     C46747   4.198   4.365   7.932 -0.7194  0.7869 -0.4930
  347MOL0     C46748   4.290   4.349   7.803  0.4720  0.1982 -0.0388
  347MOL0     C46749   4.217   4.264   7.699  1.0629  1.1986 -0.2796
  347MOL0     C46750   4.312   4.202   7.596  0.0199 -0.0394 -0.2914
  347MOL0     C46751   4.229   4.143   7.478 -0.3389 -0.5468 -0.7875
  347MOL0     C46752   4.132   4.023   7.500  0.4948 -0.7658 -0.4214
  347MOL0     C46753   4.088   3.980   7.360  0.0319  0.4898  0.2242
  347MOL0    Cl46754   3.974   3.845   7.391 -0.5024  0.1953  0.3205
  347MOL0     C46755   3.841   4.598   7.894  0.7904  0.2314  1.3923
  347MOL0     C46756   3.734   4.679   7.919  0.6426 -0.4323 -0.5432
  347MOL0     O46757   3.700   4.982   8.007  0.1601  0.3872 -0.5484
  347MOL0     C46758   3.467   5.135   8.045 -0.0016  0.4494 -0.2246
  347MOL0     C46759   3.349   5.212   8.049  0.8607 -0.1671 -0.4718
  347MOL0     N46760   2.757   5.685   8.013 -0.9104 -0.5352  0.5020
  347MOL0     N46761   2.637   5.690   7.965 -0.2440 -0.0658  0.1554
  347MOL0     C46762   1.447   5.493   8.415  0.3616 -0.0814 -1.1188
  347MOL0     C46763   1.312   5.487   8.459 -0.2704  0.1218 -0.0498
  347MOL0     C46764   0.922   5.469   8.649  0.3044 -0.2240 -0.4553
  347MOL0     C46765   0.868   5.343   8.617  0.0521 -0.0417  0.7944
  347MOL0     C46766   0.731   5.325   8.634 -0.1364  0.1494  0.3762
  347MOL0     C46767   0.644   5.421   8.685  0.6264 -0.1564 -0.1916
  347MOL0     O46768   0.522   5.379   8.723  0.3516 -0.0167  0.2346
  347MOL0     C46769   0.432   5.469   8.782 -0.6141 -0.5520 -0.6409
  347MOL0     C46770   0.293   5.419   8.799 -0.0757 -0.2597 -0.2593
  347MOL0     C46771   0.281   5.320   8.917 -0.2794 -1.2241  0.4057
  347MOL0     C46772   0.142   5.332   8.977  0.0877  0.2495  0.3321
  347MOL0     C46773   0.128   5.248   9.102  0.5795 -0.6768 -0.6349
  347MOL0     C46774   0.101   5.207   9.212 -0.8651  0.0931 -0.4633
  347MOL0     C46775   0.703   5.549   8.721  0.3401  0.5949  0.2856
  347MOL0     C46776   0.847   5.572   8.700 -0.1605  0.2174 -0.2309
  347MOL0     C46777   0.901   5.706   8.748 -0.7775  0.3500 -0.7411
  347MOL0     H46778   1.289   5.766   8.646  1.9734  2.0229  0.1601
  347MOL0     H46779   1.545   5.767   8.584 -0.4195  0.8916  0.0694
  347MOL0     H46780   1.749   5.683   8.578  2.5778 -1.3131  0.6573
  347MOL0     H46781   1.755   5.504   8.595 -1.4198  1.9883  1.3904
  347MOL0     H46782   1.926   5.496   8.411  2.0472  1.8919 -2.5033
  347MOL0     H46783   1.975   5.566   8.567  0.0920  2.1067 -0.4814
  347MOL0     H46784   1.921   5.794   8.486 -1.1063 -0.9135 -0.1152
  347MOL0     H46785   1.891   5.720   8.319  0.9520  0.0567 -1.1308
  347MOL0     H46786   2.102   5.835   8.335 -1.6808 -0.5166 -0.4908
  347MOL0     H46787   2.169   5.738   8.461  1.1829 -0.3576 -1.5845
  347MOL0     H46788   2.173   5.541   8.323  1.1676  0.0504  1.2252
  347MOL0     H46789   2.049   5.607   8.212  0.1548  2.2952  0.1895
  347MOL0     H46790   2.192   5.728   8.101 -1.7819 -1.5946 -0.0305
  347MOL0     H46791   2.312   5.741   8.233  1.5314 -1.2175 -1.6463
  347MOL0     H46792   2.239   5.489   8.078 -3.3929  2.6730  2.9913
  347MOL0     H46793   2.370   5.502   8.201  1.1646  3.3386  1.7074
  347MOL0     H46794   2.411   5.489   7.949 -3.3447  1.3570 -4.1416
  347MOL0     H46795   2.364   5.664   7.939  1.2051  2.1392  2.1196
  347MOL0     H46796   2.578   5.530   8.248 -3.6867  2.8301  0.3152
  347MOL0     H46797   2.869   5.700   8.285  0.1308  0.1569  0.9697
  347MOL0     H46798   2.826   5.537   8.336  0.4562  1.2423  0.6437
  347MOL0     H46799   3.003   5.605   8.098 -1.2128 -0.9680  0.3391
  347MOL0     H46800   3.062   5.543   8.262 -0.3365 -1.2560  1.1645
  347MOL0     H46801   2.895   5.388   8.062 -1.2261 -1.7755  1.9985
  347MOL0     H46802   2.968   5.332   8.214  0.2797 -0.5027 -0.1252
  347MOL0     H46803   3.180   5.387   8.147 -0.6880 -1.0284  1.1662
  347MOL0     H46804   3.131   5.407   7.967 -2.5456 -1.4896 -0.7416
  347MOL0     H46805   3.126   4.952   8.039 -0.3118 -0.1568 -2.1406
  347MOL0     H46806   3.338   4.827   8.063 -0.6201 -0.0514  2.1615
  347MOL0     H46807   3.670   4.642   8.251 -1.2705 -2.0659 -0.6966
  347MOL0     H46808   3.869   4.485   8.215  0.6669 -1.8833 -1.2147
  347MOL0     H46809   4.011   4.385   7.804 -1.4120  3.0676 -1.5215
  347MOL0     H46810   4.091   4.538   7.868 -0.0233 -0.1191  1.5045
  347MOL0     H46811   4.250   4.422   8.010 -0.7569 -2.4270  2.0815
  347MOL0     H46812   4.184   4.269   7.982  1.2114  2.0223  2.7680
  347MOL0     H46813   4.336   4.441   7.767  2.5732  0.5754  3.2064
  347MOL0     H46814   4.374   4.289   7.837 -0.3648 -0.2642  1.3035
  347MOL0     H46815   4.148   4.329   7.646 -1.8682 -1.6266 -0.2057
  347MOL0     H46816   4.156   4.190   7.752 -0.5427  2.1806 -0.6936
  347MOL0     H46817   4.365   4.119   7.643  0.1053 -0.1355 -0.5541
  347MOL0     H46818   4.382   4.275   7.553  1.1315 -1.4611 -0.9781
  347MOL0     H46819   4.165   4.220   7.434 -0.2882 -0.1054 -0.1027
  347MOL0     H46820   4.306   4.114   7.406  0.1929 -0.9944 -0.0536
  347MOL0     H46821   4.038   4.060   7.543 -0.6714 -3.9213  0.0113
  347MOL0     H46822   4.174   3.951   7.571 -0.5921 -0.8163  0.2049
  347MOL0     H46823   4.039   4.062   7.308  0.4419  0.1970 -0.6388
  347MOL0     H46824   4.169   3.932   7.303  0.4760  2.0938 -0.5549
  347MOL0     H46825   3.874   4.586   7.791  0.2840 -1.6276  1.4168
  347MOL0     H46826   3.676   4.728   7.841  1.3165  0.1586 -0.6806
  347MOL0     H46827   3.563   5.186   8.051 -0.7843  1.7571  2.3412
  347MOL0     H46828   3.366   5.319   8.036  1.2504 -0.2214 -0.4256
  347MOL0     H46829   1.492   5.415   8.354  0.6702 -3.9447  3.3982
  347MOL0     H46830   1.251   5.414   8.407  1.8042 -0.7741 -1.3521
  347MOL0     H46831   0.940   5.261   8.612  0.4147  0.3547 -1.1652
  347MOL0     H46832   0.683   5.228   8.625 -1.6783  0.7738  1.4144
  347MOL0     H46833   0.431   5.558   8.718  1.0558  0.1464  0.2469
  347MOL0     H46834   0.468   5.499   8.881  0.1196 -1.1713 -0.7060
  347MOL0     H46835   0.266   5.374   8.703  2.1870  0.1201 -1.1498
  347MOL0     H46836   0.222   5.502   8.807 -1.8206 -1.8548  2.1968
  347MOL0     H46837   0.352   5.343   8.997  1.0749 -0.6893 -0.9143
  347MOL0     H46838   0.294   5.217   8.882 -1.0844 -0.7577 -1.3781
  347MOL0     H46839   0.116   5.437   8.997  0.0811  0.0383  1.5562
  347MOL0     H46840   0.073   5.292   8.903 -0.0124 -1.9466  1.5132
  347MOL0     H46841   0.079   5.173   9.311  2.6130 -0.9762  0.0978
  347MOL0     H46842   0.636   5.618   8.771  0.1853  0.2841  0.5146
  347MOL0     H46843   0.977   5.747   8.681  0.3890 -0.7315 -0.1326
  347MOL0     H46844   0.826   5.785   8.742 -4.3459 -2.6680  0.2252
  347MOL0     H46845   0.946   5.696   8.847 -0.7492  4.2664 -0.1890
  348MOL0     O46846   2.561  11.351   7.886  0.7307  0.2496 -0.5312
  348MOL0     C46847   2.644  11.310   7.967  0.1382  0.4032  0.2044
  348MOL0     O46848   2.625  11.302   8.096 -0.5350  0.5578  0.3660
  348MOL0     C46849   2.505  11.338   8.142 -0.0959 -0.6110 -0.4531
  348MOL0     C46850   2.386  11.274   8.103  0.3152  0.4961  0.4830
  348MOL0     C46851   2.260  11.323   8.143 -0.3089 -0.1215  0.1440
  348MOL0     C46852   2.260  11.437   8.218 -0.2937 -0.6803  0.2035
  348MOL0     O46853   2.141  11.498   8.254 -0.9107  0.0522  0.1299
  348MOL0     C46854   2.058  11.421   8.345 -0.9192 -0.5262  1.1134
  348MOL0     C46855   1.964  11.513   8.418  0.4312  0.3840 -0.6635
  348MOL0     C46856   2.018  11.594   8.531  0.4108  0.8661 -0.5288
  348MOL0     C46857   1.921  11.691   8.595  0.1850 -0.7780  0.2968
  348MOL0     C46858   1.988  11.824   8.646  0.1526 -0.1798  0.5780
  348MOL0     C46859   2.115  11.797   8.740  0.0270  0.7580 -0.4791
  348MOL0     C46860   2.170  11.934   8.796 -0.3473 -0.9925  0.6386
  348MOL0     C46861   2.252  12.008   8.682 -0.2454 -0.4215  0.2420
  348MOL0     N46862   2.365  12.092   8.729  0.2730  0.1473 -0.4415
  348MOL0     C46863   2.346  12.212   8.795  1.2633 -0.3459 -0.1826
  348MOL0     C46864   2.471  12.261   8.823  0.1400 -0.1615  0.5935
  348MOL0     C46865   2.487  12.397   8.876 -0.0472  0.4271  1.4087
  348MOL0     C46866   2.563  12.495   8.772  0.0563  0.9764  0.5052
  348MOL0     C46867   2.488  12.528   8.648  0.3812 -0.7745 -0.0846
  348MOL0     C46868   2.584  12.608   8.561  0.1249 -0.0806  0.2641
  348MOL0     O46869   2.619  12.735   8.617  0.1348  0.3450 -0.2066
  348MOL0     C46870   2.529  12.834   8.594 -0.2123  0.0569 -0.5881
  348MOL0     C46871   2.552  12.916   8.483  0.3182  0.6742  0.7994
  348MOL0     C46872   2.495  13.037   8.464  0.6211  0.7092  0.2440
  348MOL0     C46873   2.393  13.078   8.552 -0.0988  0.6739  0.8754
  348MOL0     C46874   2.338  13.213   8.543 -0.2463  0.5274 -0.4256
  348MOL0     O46875   2.424  13.307   8.492  0.2525  0.9611 -0.2312
  348MOL0     C46876   2.361  13.423   8.453 -0.4495  0.4493 -1.0193
  348MOL0     C46877   2.285  13.498   8.552 -0.3767  0.0568  0.3252
  348MOL0     C46878   2.239  13.626   8.513 -0.3564  0.7414 -0.2280
  348MOL0     C46879   2.269  13.678   8.386 -0.3115  0.4179  0.3880
  348MOL0     O46880   2.207  13.800   8.350 -0.2851  0.2919  0.4928
  348MOL0     C46881   2.288  13.898   8.291  0.0062  0.3988  0.9547
  348MOL0     C46882   2.365  13.968   8.408 -0.2053 -1.2530  0.1357
  348MOL0     C46883   2.432  14.098   8.354 -0.3898  0.5941 -0.1458
  348MOL0     C46884   2.529  14.076   8.239  0.8188  0.1168  0.4039
  348MOL0     C46885   2.641  14.182   8.228  1.7913  0.0324  0.7248
  348MOL0     C46886   2.746  14.138   8.125  0.6773 -0.7865 -1.0765
  348MOL0     C46887   2.687  14.125   7.992  0.2803 -0.2052  1.0094
  348MOL0     C46888   2.794  14.106   7.881  0.2552  0.0252  0.3134
  348MOL0    Cl46889   2.857  13.945   7.847 -0.2410 -0.0140 -0.3118
  348MOL0     C46890   2.350  13.603   8.302 -0.8198 -0.3138  0.4961
  348MOL0     C46891   2.389  13.472   8.324  0.5545 -0.1657 -0.4923
  348MOL0     O46892   2.229  13.230   8.592  0.8579 -0.3805 -0.5096
  348MOL0     C46893   2.360  12.997   8.660  0.1522  0.4195  0.1395
  348MOL0     C46894   2.433  12.874   8.688 -0.2076 -0.0649 -0.3751
  348MOL0     N46895   2.560  12.176   8.764  0.5196  1.0339 -0.2910
  348MOL0     N46896   2.496  12.070   8.710  0.1506 -0.2618  0.6746
  348MOL0     C46897   2.373  11.499   8.256 -0.4577 -0.1757 -0.1809
  348MOL0     C46898   2.492  11.452   8.225 -0.3496 -0.3789  0.6079
  348MOL0     C46899   2.771  11.243   7.920 -0.2178 -0.2383  0.5611
  348MOL0     C46900   2.827  11.144   8.006  0.4220  0.2897  0.6582
  348MOL0     C46901   2.939  11.087   7.968  0.1043 -0.2395 -0.9535
  348MOL0     C46902   3.011  11.120   7.860 -0.0535  0.1942  0.2334
  348MOL0     O46903   3.124  11.048   7.811 -0.4351  0.2224 -0.6757
  348MOL0     C46904   3.185  10.948   7.893 -0.6391 -0.1368 -0.6440
  348MOL0     C46905   3.266  10.862   7.802  0.4698 -0.6392  0.7472
  348MOL0     C46906   3.328  10.745   7.875  0.3685  0.4075 -1.5406
  348MOL0     C46907   3.381  10.633   7.769  0.1114  0.2833 -0.4901
  348MOL0     C46908   3.501  10.679   7.697  1.1016  0.6718 -0.2425
  348MOL0     C46909   3.600  10.713   7.641  0.0175 -0.4098 -0.4725
  348MOL0     C46910   2.971  11.229   7.784  0.6492 -0.7295  0.2439
  348MOL0     C46911   2.843  11.289   7.808  0.8788 -0.2063  0.4285
  348MOL0     C46912   2.794  11.384   7.696 -0.7854  0.2761 -0.7844
  348MOL0     H46913   2.401  11.196   8.029  0.9452  0.9953  0.0721
  348MOL0     H46914   2.171  11.268   8.115 -0.7611  1.6900 -2.3243
  348MOL0     H46915   2.001  11.340   8.299  2.2668 -1.5712 -1.4061
  348MOL0     H46916   2.133  11.380   8.413  1.7854 -3.0735 -2.9791
  348MOL0     H46917   1.890  11.448   8.465  0.7199 -3.1960 -4.5148
  348MOL0     H46918   1.931  11.572   8.331  2.0746 -2.7300 -3.6409
  348MOL0     H46919   2.115  11.639   8.507  0.2133  0.4331 -2.2247
  348MOL0     H46920   2.030  11.514   8.606 -1.5130  1.0746  0.0490
  348MOL0     H46921   1.846  11.709   8.517 -0.3535  0.7611  1.1300
  348MOL0     H46922   1.874  11.646   8.683  2.6530 -0.6891  1.7686
  348MOL0     H46923   2.026  11.877   8.558  0.2601 -1.1583  0.0228
  348MOL0     H46924   1.907  11.875   8.701  0.7410  0.5243  0.8106
  348MOL0     H46925   2.094  11.732   8.825 -0.0302 -1.1528 -1.8757
  348MOL0     H46926   2.186  11.750   8.672 -1.1682  1.8488 -2.5819
  348MOL0     H46927   2.241  11.904   8.874  0.4720 -3.0496 -0.7971
  348MOL0     H46928   2.083  11.989   8.833 -1.2507  0.4353 -3.1537
  348MOL0     H46929   2.300  11.929   8.623  0.6117  0.3186 -0.0688
  348MOL0     H46930   2.179  12.064   8.623  0.4491  3.1072  2.5072
  348MOL0     H46931   2.254  12.256   8.830  2.8704  1.7795  1.6391
  348MOL0     H46932   2.389  12.444   8.891  0.9668  2.4082  2.2841
  348MOL0     H46933   2.539  12.400   8.972  2.7384  1.3994 -0.0218
  348MOL0     H46934   2.581  12.593   8.817 -0.9263  0.9844  0.9057
  348MOL0     H46935   2.659  12.452   8.741 -1.2902 -1.1178 -1.1039
  348MOL0     H46936   2.389  12.573   8.650  0.8993  0.5608 -1.7210
  348MOL0     H46937   2.478  12.432   8.596 -1.9112  0.7104 -2.6208
  348MOL0     H46938   2.550  12.620   8.457  1.7337 -0.2594 -0.3061
  348MOL0     H46939   2.681  12.559   8.549  0.1834  0.5408 -2.5120
  348MOL0     H46940   2.616  12.883   8.402 -2.0621  0.5067 -1.1329
  348MOL0     H46941   2.522  13.090   8.373  1.3312 -2.0596 -1.2563
  348MOL0     H46942   2.245  13.458   8.645 -1.6085 -1.8003 -0.9210
  348MOL0     H46943   2.162  13.682   8.564 -2.1879 -1.3852 -0.4976
  348MOL0     H46944   2.353  13.841   8.224 -1.0974 -0.4810  0.6202
  348MOL0     H46945   2.228  13.971   8.236 -1.5038 -0.7517  1.0334
  348MOL0     H46946   2.291  13.996   8.484  1.2829 -1.0463  1.5592
  348MOL0     H46947   2.431  13.891   8.450  0.0961 -0.9393  0.2363
  348MOL0     H46948   2.359  14.176   8.334 -0.2304  0.9201  0.5339
  348MOL0     H46949   2.488  14.136   8.439 -0.6257 -0.0584  0.3103
  348MOL0     H46950   2.479  14.069   8.142  1.6321 -1.9743  0.0731
  348MOL0     H46951   2.567  13.974   8.250 -2.8399 -1.5161 -0.6063
  348MOL0     H46952   2.680  14.190   8.330  1.3067 -0.9171  0.9969
  348MOL0     H46953   2.594  14.277   8.200  2.3444  0.4526  1.1931
  348MOL0     H46954   2.823  14.215   8.121 -0.6363  0.5976 -0.5827
  348MOL0     H46955   2.796  14.044   8.152  0.8773 -0.3469  0.1368
  348MOL0     H46956   2.642  14.225   7.982 -0.6480 -0.7054 -0.0099
  348MOL0     H46957   2.617  14.043   7.974 -0.3290  0.9069 -2.4115
  348MOL0     H46958   2.740  14.129   7.789  0.8288  0.2846  0.0355
  348MOL0     H46959   2.883  14.168   7.898  1.1678 -1.0903 -0.2632
  348MOL0     H46960   2.370  13.648   8.205 -0.8196 -2.2398 -0.4342
  348MOL0     H46961   2.432  13.399   8.257  2.3522  0.1744  0.2508
  348MOL0     H46962   2.278  13.028   8.724 -0.4773  2.7434 -1.6494
  348MOL0     H46963   2.420  12.816   8.779  0.5329 -1.4726 -1.1285
  348MOL0     H46964   2.368  11.590   8.316  1.7286 -0.3481  0.3795
  348MOL0     H46965   2.582  11.510   8.247 -0.0702 -1.1289  1.5019
  348MOL0     H46966   2.763  11.097   8.081 -3.8652  0.0176 -2.8002
  348MOL0     H46967   2.978  11.010   8.033 -1.1965 -0.9276 -0.9516
  348MOL0     H46968   3.106  10.886   7.936  2.6528 -2.5457  2.6042
  348MOL0     H46969   3.256  10.981   7.970 -0.0421 -2.2642 -0.2049
  348MOL0     H46970   3.343  10.926   7.758  0.2574  1.4409  3.1860
  348MOL0     H46971   3.201  10.828   7.721  1.3634 -0.0083 -0.2572
  348MOL0     H46972   3.245  10.695   7.926  2.4240  0.0906  1.8300
  348MOL0     H46973   3.407  10.761   7.949 -0.9824  0.2307  0.0058
  348MOL0     H46974   3.406  10.542   7.823  0.8156 -0.3271 -1.7922
  348MOL0     H46975   3.310  10.604   7.690 -0.0556 -0.1757 -0.1721
  348MOL0     H46976   3.687  10.746   7.587 -0.9240 -0.0666 -1.8324
  348MOL0     H46977   3.040  11.262   7.707  2.2721 -2.0089  1.1142
  348MOL0     H46978   2.805  11.486   7.735  2.1049  1.0542 -3.2347
  348MOL0     H46979   2.866  11.388   7.613 -0.5638  0.4237 -0.5890
  348MOL0     H46980   2.693  11.366   7.659 -1.6995  2.5407  0.3783
  349MOL0     O46981   4.658   5.574   8.447 -0.2608 -0.8505 -0.1709
  349MOL0     C46982   4.712   5.545   8.346  0.7606  0.4155 -0.0848
  349MOL0     O46983   4.783   5.434   8.321  0.4470 -0.4306  0.0995
  349MOL0     C46984   4.800   5.343   8.415 -0.1089 -0.8317  0.5479
  349MOL0     C46985   4.705   5.238   8.421  0.0273 -0.2404  0.0858
  349MOL0     C46986   4.714   5.135   8.518  0.2888  1.2961 -0.3961
  349MOL0     C46987   4.826   5.135   8.605 -0.3608  0.2054 -0.4282
  349MOL0     O46988   4.857   5.036   8.690  0.6325 -0.2830 -0.4064
  349MOL0     C46989   4.761   4.930   8.713  0.4720  0.6248  0.9186
  349MOL0     C46990   4.810   4.842   8.825 -0.7809  0.3435  0.0548
  349MOL0     C46991   4.802   4.910   8.967 -0.0604 -0.3876  0.0823
  349MOL0     C46992   4.934   4.867   9.052 -0.6102 -0.6543 -0.3694
  349MOL0     C46993   4.951   4.967   9.175  0.1377 -0.0892 -0.0344
  349MOL0     C46994   4.910   4.902   9.310  0.1432  0.1670  0.2915
  349MOL0     C46995   4.883   5.000   9.411 -0.7302  0.5489 -0.6322
  349MOL0     C46996   5.013   5.073   9.461 -0.8251 -0.2924 -0.6368
  349MOL0     N46997   5.011   5.120   9.602  0.5457 -0.4260 -0.3721
  349MOL0     C46998   4.933   5.059   9.696 -0.1134  0.1793 -0.0137
  349MOL0     C46999   4.965   5.112   9.816 -0.8489  0.7638 -1.9709
  349MOL0     C47000   4.925   5.070   9.957 -0.6592  0.4604 -0.3644
  349MOL0     C47001   5.054   5.013  10.024 -0.3102 -0.2770 -0.9440
  349MOL0     C47002   5.109   4.890   9.949 -1.1560 -0.4015  0.0610
  349MOL0     C47003   5.017   4.767   9.967  0.1160 -0.3573  0.3113
  349MOL0     O47004   4.914   4.755   9.867 -0.0972  0.8577  0.0020
  349MOL0     C47005   4.951   4.696   9.742  0.8991  0.2936 -0.2575
  349MOL0     C47006   5.074   4.638   9.707  0.1531 -0.9223 -0.2050
  349MOL0     C47007   5.091   4.570   9.582 -0.8032 -0.1321  0.3215
  349MOL0     C47008   4.988   4.563   9.479 -0.3095  0.2095 -0.6280
  349MOL0     C47009   5.017   4.510   9.349 -0.6241  0.0375  0.3548
  349MOL0     O47010   5.126   4.434   9.334  0.9580  0.6934  0.5077
  349MOL0     C47011   5.167   4.377   9.206  0.5803  0.1444  0.2468
  349MOL0     C47012   5.240   4.260   9.200 -0.6299 -0.2761  0.1617
  349MOL0     C47013   5.276   4.210   9.083 -2.0094 -0.0816 -0.4264
  349MOL0     C47014   5.262   4.271   8.956  0.5804  0.2657 -0.0805
  349MOL0     O47015   5.295   4.217   8.831  0.1982 -0.1725  0.4669
  349MOL0     C47016   5.358   4.090   8.814 -0.8970  0.5179 -0.3581
  349MOL0     C47017   5.510   4.103   8.791  0.5726  0.1963 -0.6570
  349MOL0     C47018   5.556   4.184   8.674 -0.0845 -0.6154 -0.9760
  349MOL0     C47019   5.566   4.118   8.536  1.2378  0.0287  0.1687
  349MOL0     C47020   5.607   4.203   8.415 -0.2469 -0.7080 -0.7788
  349MOL0     C47021   5.727   4.293   8.437  0.0590  0.2276  0.2467
  349MOL0     C47022   5.772   4.371   8.304 -1.1611 -0.3394  0.1293
  349MOL0     C47023   5.924   4.388   8.302  0.8831  0.4761 -0.6374
  349MOL0    Cl47024   5.977   4.462   8.154 -0.1249  0.3539  0.3598
  349MOL0     C47025   5.200   4.393   8.960 -0.4687 -0.6730 -0.3647
  349MOL0     C47026   5.148   4.439   9.085  0.3811 -1.1697 -0.0113
  349MOL0     O47027   4.927   4.518   9.271  0.0213  0.6942  0.0863
  349MOL0     C47028   4.869   4.639   9.508 -0.3623  0.6707  0.2488
  349MOL0     C47029   4.852   4.698   9.634  0.1492 -0.7024 -0.0356
  349MOL0     N47030   5.042   5.224   9.784  0.1896 -0.5820 -0.1710
  349MOL0     N47031   5.064   5.235   9.655  1.0496  0.0127  0.0782
  349MOL0     C47032   4.916   5.243   8.601 -0.8498 -0.7073 -0.8786
  349MOL0     C47033   4.902   5.343   8.507  0.1113  0.3059  0.5137
  349MOL0     C47034   4.734   5.654   8.249 -0.0429  0.4518  0.3400
  349MOL0     C47035   4.867   5.683   8.211  0.9350 -0.0180  0.0011
  349MOL0     C47036   4.893   5.782   8.111  0.1745  0.5654 -0.4622
  349MOL0     C47037   4.793   5.860   8.066  0.9553 -0.0036  0.2805
  349MOL0     O47038   4.808   5.953   7.969  0.1976  0.2609  0.2657
  349MOL0     C47039   4.927   6.035   7.970  0.6733  0.6654  0.4411
  349MOL0     C47040   4.872   6.177   7.936 -0.3361 -0.4227  0.7771
  349MOL0     C47041   4.987   6.286   7.924  0.1824 -0.0246 -0.1397
  349MOL0     C47042   4.944   6.429   7.889 -0.8098  0.5978 -0.8696
  349MOL0     C47043   4.866   6.427   7.763 -0.2594  0.4958  0.2460
  349MOL0     C47044   4.817   6.437   7.650 -0.4002  0.6723  0.5391
  349MOL0     C47045   4.657   5.827   8.100  0.5995  0.0654 -0.4905
  349MOL0     C47046   4.632   5.727   8.188  0.6730  0.9748  0.9701
  349MOL0     C47047   4.487   5.680   8.205 -0.3278  0.3101 -0.2847
  349MOL0     H47048   4.620   5.242   8.354 -0.7614  1.2332  1.0995
  349MOL0     H47049   4.644   5.052   8.516  2.9190 -1.1798  1.5763
  349MOL0     H47050   4.659   4.967   8.730 -0.2751 -0.4519 -0.9131
  349MOL0     H47051   4.751   4.875   8.619  0.1942  1.7633  0.2597
  349MOL0     H47052   4.910   4.806   8.801 -2.0409 -3.1803 -0.5968
  349MOL0     H47053   4.752   4.750   8.840 -1.9602  0.6541 -2.1350
  349MOL0     H47054   4.718   4.878   9.029  0.4666  1.3780  1.8133
  349MOL0     H47055   4.802   5.018   8.951  2.2209  0.6529  5.0643
  349MOL0     H47056   4.927   4.761   9.079  0.6264 -0.9193 -1.0301
  349MOL0     H47057   5.023   4.870   8.990 -1.0294  1.8927 -0.9612
  349MOL0     H47058   5.053   5.006   9.170  0.0992  0.0242  0.0665
  349MOL0     H47059   4.905   5.064   9.155  2.5789  0.4943 -3.8467
  349MOL0     H47060   4.811   4.855   9.306 -0.1742  0.8139  0.4187
  349MOL0     H47061   4.980   4.820   9.330  1.3340  1.1296  0.1459
  349MOL0     H47062   4.861   4.929   9.491 -0.0980  0.1800 -0.7792
  349MOL0     H47063   4.800   5.064   9.379 -0.2489  0.9324 -1.1460
  349MOL0     H47064   5.097   5.003   9.456 -0.0084  0.5221  0.9758
  349MOL0     H47065   5.042   5.161   9.403  0.5808  0.4209  1.0842
  349MOL0     H47066   4.872   4.971   9.685  0.3634 -0.3400  1.2227
  349MOL0     H47067   4.884   5.150  10.020 -1.8143 -2.7702  3.4547
  349MOL0     H47068   4.842   4.998   9.959 -0.6859  0.3846 -2.4637
  349MOL0     H47069   5.119   5.100  10.034  1.8652 -2.0469  1.9388
  349MOL0     H47070   5.035   4.986  10.128 -0.2390 -1.1923 -1.1546
  349MOL0     H47071   5.204   4.865   9.997 -0.7039  1.7520  0.4218
  349MOL0     H47072   5.138   4.899   9.844 -0.6551 -2.9937 -0.0840
  349MOL0     H47073   4.962   4.777  10.061 -0.4419  1.2604 -0.1444
  349MOL0     H47074   5.076   4.676   9.976 -2.9437 -2.9112 -2.8084
  349MOL0     H47075   5.167   4.646   9.762  0.2496  1.2429 -0.6148
  349MOL0     H47076   5.188   4.535   9.549 -1.6607 -3.3714  0.9128
  349MOL0     H47077   5.270   4.208   9.291 -0.3797  0.2664  0.3927
  349MOL0     H47078   5.341   4.123   9.088  0.2980  1.5997  1.1358
  349MOL0     H47079   5.330   4.018   8.892  0.8105 -0.4856 -0.6213
  349MOL0     H47080   5.324   4.047   8.720  0.8411 -0.9500 -0.3800
  349MOL0     H47081   5.540   4.159   8.880 -0.9630  2.8472 -1.6591
  349MOL0     H47082   5.558   4.005   8.785 -0.2683 -0.5575  2.7338
  349MOL0     H47083   5.481   4.264   8.672 -1.2049 -1.6431 -0.6738
  349MOL0     H47084   5.653   4.227   8.701  0.0750 -2.3257  1.4379
  349MOL0     H47085   5.473   4.064   8.519  0.9203  0.9029 -0.9827
  349MOL0     H47086   5.642   4.039   8.542  0.9077 -0.6613 -2.9390
  349MOL0     H47087   5.514   4.256   8.390 -0.6671 -1.9495 -1.9648
  349MOL0     H47088   5.628   4.128   8.338 -0.6128 -2.3206  0.6369
  349MOL0     H47089   5.708   4.362   8.519 -0.9742  0.5502 -0.2526
  349MOL0     H47090   5.808   4.228   8.470  0.7255  0.6702 -0.4743
  349MOL0     H47091   5.723   4.468   8.295  1.1939  0.6748 -3.6885
  349MOL0     H47092   5.754   4.322   8.208  2.2264  1.5861 -1.6338
  349MOL0     H47093   5.936   4.453   8.390  0.7898  2.2892 -1.9184
  349MOL0     H47094   5.968   4.288   8.310  0.3417  0.0738 -2.3573
  349MOL0     H47095   5.190   4.446   8.866  0.0585  0.3371  0.1394
  349MOL0     H47096   5.097   4.535   9.087  0.9417 -0.8496 -0.6555
  349MOL0     H47097   4.799   4.658   9.427 -1.3703  3.3239  1.6107
  349MOL0     H47098   4.760   4.753   9.647  2.4782  4.7189 -3.1188
  349MOL0     H47099   5.001   5.260   8.667 -1.8226  0.3078  0.1590
  349MOL0     H47100   4.975   5.422   8.500  1.1688 -0.6932 -0.2282
  349MOL0     H47101   4.948   5.639   8.269  0.1654 -0.7487  0.5596
  349MOL0     H47102   4.997   5.800   8.085  0.0513  2.1791  0.0727
  349MOL0     H47103   5.003   5.999   7.900 -0.4587 -0.7422 -0.1001
  349MOL0     H47104   4.974   6.034   8.069  0.7210 -2.0767  0.4557
  349MOL0     H47105   4.798   6.217   8.007 -5.1651 -2.5403 -2.5482
  349MOL0     H47106   4.815   6.162   7.844  0.5966  1.3702 -0.1619
  349MOL0     H47107   5.062   6.245   7.856 -1.6035 -1.4253 -1.3583
  349MOL0     H47108   5.038   6.304   8.020  0.5365 -0.2023 -0.2930
  349MOL0     H47109   4.874   6.480   7.957 -0.2578  0.1897  0.0196
  349MOL0     H47110   5.034   6.490   7.877  0.1816 -0.8900 -1.1638
  349MOL0     H47111   4.782   6.456   7.551 -1.1313  1.0826  0.8638
  349MOL0     H47112   4.569   5.870   8.053 -1.6761 -3.2270  0.3918
  349MOL0     H47113   4.442   5.695   8.107 -1.2742  2.9036  0.4554
  349MOL0     H47114   4.481   5.576   8.238  0.4279  1.3146  3.6543
  349MOL0     H47115   4.442   5.737   8.288  0.6154  2.1677 -0.9809
  350MOL0     O47116   4.179   7.090   8.072 -0.1358 -1.1186 -0.0401
  350MOL0     C47117   4.162   7.192   8.006 -0.5363 -0.2072  0.1459
  350MOL0     O47118   4.228   7.211   7.882  0.6424 -0.4956 -0.2411
  350MOL0     C47119   4.348   7.159   7.853 -0.3987 -0.2243 -0.0334
  350MOL0     C47120   4.445   7.170   7.951 -0.8326 -0.4087 -0.2022
  350MOL0     C47121   4.574   7.117   7.929 -0.0362  0.4477 -0.6015
  350MOL0     C47122   4.607   7.053   7.803  0.2582 -0.6142 -0.6396
  350MOL0     O47123   4.729   7.016   7.776 -0.2740  0.3082  0.1712
  350MOL0     C47124   4.825   6.978   7.877 -0.2942  0.7344  0.0699
  350MOL0     C47125   4.943   6.921   7.806  0.4701  1.2135 -0.8968
  350MOL0     C47126   4.923   6.804   7.713 -0.5452  0.0173 -0.5035
  350MOL0     C47127   5.053   6.732   7.661  1.1714  0.3756 -0.2010
  350MOL0     C47128   5.164   6.816   7.604  0.1152 -0.1754  0.5988
  350MOL0     C47129   5.270   6.739   7.525 -0.8830  0.4679  0.2050
  350MOL0     C47130   5.356   6.830   7.444 -0.1176 -0.7620  0.2093
  350MOL0     C47131   5.420   6.957   7.507 -0.8114  0.8111 -0.8112
  350MOL0     N47132   5.489   6.916   7.633  0.7416 -0.1732 -0.1515
  350MOL0     C47133   5.448   6.943   7.759 -0.7685 -0.5807 -0.6994
  350MOL0     C47134   5.541   6.878   7.835  0.4901  0.0320  0.3874
  350MOL0     C47135   5.538   6.866   7.991 -0.3565 -0.0664  0.6518
  350MOL0     C47136   5.474   7.000   8.052  0.3013 -0.1171 -0.2377
  350MOL0     C47137   5.571   7.121   8.038  0.3577 -0.1429  0.7184
  350MOL0     C47138   5.501   7.255   8.047  0.1784 -0.4575  0.9772
  350MOL0     O47139   5.452   7.262   8.182  0.6741 -0.1456 -1.0134
  350MOL0     C47140   5.395   7.376   8.226  0.2236 -0.4636  0.5327
  350MOL0     C47141   5.291   7.359   8.319 -0.0523 -0.2285  0.7173
  350MOL0     C47142   5.192   7.453   8.343  0.1004  0.3288  0.7093
  350MOL0     C47143   5.218   7.578   8.305  0.6124 -0.2965  0.2040
  350MOL0     C47144   5.143   7.699   8.350 -0.6613 -0.0417 -0.1138
  350MOL0     O47145   5.176   7.827   8.322  0.5943 -0.8460  0.0075
  350MOL0     C47146   5.122   7.935   8.393 -0.8318  0.1621 -0.5495
  350MOL0     C47147   4.990   7.958   8.442  0.8888  0.7372 -0.2561
  350MOL0     C47148   4.955   8.091   8.502 -0.3719  0.8261 -0.8181
  350MOL0     C47149   5.049   8.186   8.517 -0.2219  0.0235  0.1844
  350MOL0     O47150   5.016   8.301   8.570  0.0505  0.1131  0.3944
  350MOL0     C47151   5.006   8.310   8.711  0.9393  0.8725 -0.5799
  350MOL0     C47152   5.091   8.411   8.779  0.1365 -0.3663 -0.0891
  350MOL0     C47153   5.040   8.557   8.757  0.6803 -0.2328 -0.2697
  350MOL0     C47154   5.114   8.666   8.826  0.0081  0.3010  0.5247
  350MOL0     C47155   5.025   8.788   8.819  0.4662  0.1980 -0.2023
  350MOL0     C47156   5.082   8.907   8.897 -0.5520  0.9583 -0.6354
  350MOL0     C47157   4.999   9.032   8.920  0.1888 -0.2255 -0.1095
  350MOL0     C47158   4.914   9.013   9.042 -0.1146 -0.0027  1.0594
  350MOL0    Cl47159   4.808   9.157   9.078  0.1949 -0.1844  0.2101
  350MOL0     C47160   5.179   8.157   8.478  0.3664 -0.2807  0.4414
  350MOL0     C47161   5.207   8.044   8.401 -0.0492  1.4181  0.5208
  350MOL0     O47162   5.036   7.667   8.403  0.1571 -0.1532 -0.7939
  350MOL0     C47163   5.322   7.608   8.219  0.2686  0.9033  0.8611
  350MOL0     C47164   5.409   7.503   8.176  0.3411 -0.0655  0.7330
  350MOL0     N47165   5.643   6.832   7.755 -0.1828 -0.0084 -0.8174
  350MOL0     N47166   5.609   6.848   7.631  0.2323 -0.8697 -0.1890
  350MOL0     C47167   4.508   7.041   7.703 -0.2379  0.2894  0.3976
  350MOL0     C47168   4.382   7.088   7.728  0.5431  0.5888 -0.3119
  350MOL0     C47169   4.056   7.290   8.044 -1.1919  0.4544  1.5554
  350MOL0     C47170   4.009   7.377   7.941  0.6145  0.7005  0.1293
  350MOL0     C47171   3.906   7.471   7.971  0.0522  0.1416 -0.1258
  350MOL0     C47172   3.846   7.478   8.093 -0.3861 -0.0321  0.9033
  350MOL0     O47173   3.753   7.577   8.110 -0.8536 -0.0879  0.0782
  350MOL0     C47174   3.680   7.600   8.228 -0.4243  0.5255 -0.0439
  350MOL0     C47175   3.574   7.703   8.209  0.3592  0.4577  0.3340
  350MOL0     C47176   3.489   7.717   8.343 -0.2799  0.1820  0.1018
  350MOL0     C47177   3.396   7.840   8.345  1.0281 -0.9151 -0.2428
  350MOL0     C47178   3.454   7.977   8.367  0.5956  0.1388 -0.9716
  350MOL0     C47179   3.507   8.080   8.399  0.2461 -0.1049 -0.9965
  350MOL0     C47180   3.889   7.388   8.192  0.6072 -0.6258  0.0059
  350MOL0     C47181   3.998   7.299   8.172 -0.8157  0.7057  0.3348
  350MOL0     C47182   4.040   7.208   8.287  1.0326  0.1108  0.5823
  350MOL0     H47183   4.430   7.212   8.050  3.2473 -1.1424  0.9134
  350MOL0     H47184   4.642   7.118   8.013  1.5843 -4.2666 -1.5371
  350MOL0     H47185   4.862   7.066   7.929 -0.9938  0.8081  0.4551
  350MOL0     H47186   4.778   6.907   7.945 -3.1583  1.8640 -0.5767
  350MOL0     H47187   5.009   6.874   7.880 -2.6460 -1.4161  0.4724
  350MOL0     H47188   4.984   7.006   7.751  0.8379  1.4105 -0.3320
  350MOL0     H47189   4.876   6.837   7.619 -1.7915 -5.3587 -2.0899
  350MOL0     H47190   4.865   6.723   7.756  0.9472 -0.3089  0.9484
  350MOL0     H47191   5.103   6.689   7.749  3.5543  2.2146 -0.5642
  350MOL0     H47192   5.007   6.661   7.592 -2.5690  0.1187  2.2762
  350MOL0     H47193   5.106   6.880   7.536 -1.4292 -1.5632  0.5411
  350MOL0     H47194   5.202   6.872   7.690  0.7075  0.1139  0.1534
  350MOL0     H47195   5.343   6.704   7.599 -1.1193  0.0267  0.2336
  350MOL0     H47196   5.233   6.652   7.470 -0.1172  0.0863  0.2845
  350MOL0     H47197   5.289   6.855   7.361  1.0928  1.3935 -0.1934
  350MOL0     H47198   5.439   6.775   7.399  0.1185 -1.1121  1.0622
  350MOL0     H47199   5.508   6.993   7.453  0.9260 -1.4347  0.3229
  350MOL0     H47200   5.347   7.035   7.532  0.6909  1.5125  1.8052
  350MOL0     H47201   5.359   6.992   7.797  0.2641  0.1650  0.8283
  350MOL0     H47202   5.477   6.780   8.021 -2.6152  0.9771 -0.7232
  350MOL0     H47203   5.643   6.857   8.021  0.9493  1.3304 -2.9190
  350MOL0     H47204   5.387   7.033   7.994 -0.5678 -0.3126  0.9117
  350MOL0     H47205   5.450   6.970   8.154 -2.6375 -4.4854 -1.9098
  350MOL0     H47206   5.611   7.102   7.938 -0.4538 -0.9426  0.5332
  350MOL0     H47207   5.644   7.117   8.120 -2.0080 -0.2348  2.9749
  350MOL0     H47208   5.426   7.273   7.969 -0.6590 -1.0812  1.6196
  350MOL0     H47209   5.570   7.340   8.041  0.9256 -0.8784  2.9028
  350MOL0     H47210   5.278   7.259   8.360 -2.4885 -0.4773 -0.5231
  350MOL0     H47211   5.100   7.425   8.393  0.3519 -2.6020 -0.2919
  350MOL0     H47212   4.923   7.872   8.434  0.3097  0.5480  3.9757
  350MOL0     H47213   4.857   8.129   8.530 -1.0463 -2.1837  1.4224
  350MOL0     H47214   4.902   8.331   8.735  1.2525  1.2977  0.4485
  350MOL0     H47215   5.038   8.216   8.759  2.2453  1.3000 -0.5690
  350MOL0     H47216   5.097   8.399   8.887 -0.2277  0.0099 -0.0256
  350MOL0     H47217   5.190   8.417   8.733 -0.3316  0.0528 -1.0650
  350MOL0     H47218   5.042   8.592   8.654  0.3895 -2.1501 -0.9623
  350MOL0     H47219   4.939   8.559   8.798  2.0615 -0.6820  3.6019
  350MOL0     H47220   5.214   8.677   8.783  0.6708 -4.3120  0.3352
  350MOL0     H47221   5.123   8.638   8.931 -3.7634 -0.3782  0.8304
  350MOL0     H47222   4.921   8.770   8.847 -0.0572 -0.9248 -2.6256
  350MOL0     H47223   5.018   8.824   8.716  2.2490  1.6256  0.1340
  350MOL0     H47224   5.110   8.866   8.994 -0.5248 -3.6684 -2.3509
  350MOL0     H47225   5.169   8.939   8.839 -0.5070 -1.6680 -2.1714
  350MOL0     H47226   4.932   9.052   8.836 -1.1830 -3.1583  0.1709
  350MOL0     H47227   5.066   9.116   8.938  0.2002  0.4841 -3.0201
  350MOL0     H47228   4.854   8.924   9.022 -0.2815 -0.2583  2.5680
  350MOL0     H47229   4.991   9.000   9.118  2.8928 -0.0426 -1.8002
  350MOL0     H47230   5.257   8.233   8.481  0.8675 -0.8248  2.1836
  350MOL0     H47231   5.309   8.033   8.364  0.4323  2.2724  1.5546
  350MOL0     H47232   5.344   7.705   8.177 -0.0149  0.6651  0.1520
  350MOL0     H47233   5.481   7.544   8.105  0.8467  1.5549  2.0924
  350MOL0     H47234   4.527   7.000   7.604 -3.2942 -1.9194  0.5780
  350MOL0     H47235   4.303   7.056   7.661  1.9722 -3.0084 -0.4969
  350MOL0     H47236   4.051   7.373   7.841 -1.6000 -2.5407 -0.8055
  350MOL0     H47237   3.889   7.535   7.885  0.6921 -0.6643 -0.8640
  350MOL0     H47238   3.741   7.616   8.317 -0.7094  2.4698 -0.1680
  350MOL0     H47239   3.627   7.507   8.252 -1.1140  0.7662 -0.6094
  350MOL0     H47240   3.511   7.668   8.127 -0.2311  1.3662  0.3985
  350MOL0     H47241   3.629   7.792   8.176 -1.4465  0.7896 -2.0415
  350MOL0     H47242   3.552   7.713   8.433  0.0503 -1.8882 -0.1741
  350MOL0     H47243   3.431   7.625   8.356  1.7536 -1.0852  0.6865
  350MOL0     H47244   3.328   7.841   8.260 -1.2872  2.9648  1.3628
  350MOL0     H47245   3.323   7.825   8.426  1.5837  1.6801  0.8408
  350MOL0     H47246   3.555   8.171   8.428  0.8476 -0.7862  0.2225
  350MOL0     H47247   3.849   7.391   8.292 -1.2368  0.6047 -0.7175
  350MOL0     H47248   4.149   7.212   8.298  1.1506  2.9868 -0.7410
  350MOL0     H47249   3.995   7.236   8.382 -4.3367 -0.9972 -1.2462
  350MOL0     H47250   4.023   7.101   8.272  2.4570 -0.5949  3.4011
  351MOL0     O47251   6.528   2.882   2.769 -0.0136  0.5781  0.0985
  351MOL0     C47252   6.495   2.807   2.681 -0.4966  0.1037  0.1328
  351MOL0     O47253   6.561   2.782   2.563 -0.4983  0.5921 -0.4630
  351MOL0     C47254   6.696   2.802   2.556 -0.2108  0.5229 -0.0983
  351MOL0     C47255   6.757   2.896   2.472  0.4096 -0.0571  1.0316
  351MOL0     C47256   6.891   2.911   2.457 -0.5089  0.0699 -0.5476
  351MOL0     C47257   6.978   2.854   2.547  0.2225  1.1116 -0.5217
  351MOL0     O47258   7.113   2.859   2.532  0.2632 -0.3997  0.2251
  351MOL0     C47259   7.190   2.891   2.645  0.4174  0.1720  0.9017
  351MOL0     C47260   7.311   2.959   2.588  0.1795  0.7173  0.1947
  351MOL0     C47261   7.432   2.893   2.652 -0.5449  0.4041 -1.1843
  351MOL0     C47262   7.566   2.927   2.585 -0.5589  0.0266  0.2006
  351MOL0     C47263   7.686   2.886   2.672  1.0741  0.4409  0.8002
  351MOL0     C47264   7.820   2.947   2.619  0.2152  0.0539 -0.0189
  351MOL0     C47265   7.940   2.947   2.713 -0.1594  0.8095  1.9154
  351MOL0     C47266   8.067   3.010   2.646  0.1536 -0.7915  1.0174
  351MOL0     N47267   8.136   2.932   2.549  0.4481  0.3862  0.7163
  351MOL0     C47268   8.240   2.846   2.585 -1.1171 -1.1591  0.2643
  351MOL0     C47269   8.286   2.798   2.464 -0.8942  0.0099  0.7563
  351MOL0     C47270   8.396   2.707   2.438 -0.2647  0.6787  0.7407
  351MOL0     C47271   8.348   2.567   2.394  0.2766  0.2577 -0.2710
  351MOL0     C47272   8.466   2.468   2.385  0.5756  0.3215 -0.2846
  351MOL0     C47273   8.419   2.320   2.383 -0.0183  0.3779  0.3351
  351MOL0     O47274   8.375   2.282   2.508  1.0792 -0.5006 -0.3244
  351MOL0     C47275   8.292   2.174   2.517 -1.0782  0.6899  0.9366
  351MOL0     C47276   8.168   2.199   2.549  0.0224  0.2047 -0.6369
  351MOL0     C47277   8.081   2.093   2.576 -0.0126 -0.5905  0.9541
  351MOL0     C47278   8.111   1.954   2.548 -0.0544 -0.0791  0.1244
  351MOL0     C47279   8.014   1.850   2.566  0.6906 -0.4987 -0.0399
  351MOL0     O47280   7.880   1.901   2.559  0.3153  0.6102  0.3935
  351MOL0     C47281   7.768   1.820   2.555  0.9451  0.3581 -0.6447
  351MOL0     C47282   7.647   1.885   2.536  0.1972 -0.0585  0.8599
  351MOL0     C47283   7.527   1.824   2.528  0.1593  0.4110  0.0190
  351MOL0     C47284   7.515   1.692   2.566  0.0983  0.3618 -0.5539
  351MOL0     O47285   7.390   1.635   2.565 -0.7904 -0.5381 -0.0588
  351MOL0     C47286   7.367   1.532   2.655 -1.2909  0.5431  0.0599
  351MOL0     C47287   7.226   1.494   2.678  0.5783 -0.3099 -0.6037
  351MOL0     C47288   7.163   1.419   2.562 -0.8092 -0.8899  0.4844
  351MOL0     C47289   7.012   1.382   2.586  0.1617 -0.1063 -0.3300
  351MOL0     C47290   6.974   1.247   2.522  0.8995 -0.1058 -0.2334
  351MOL0     C47291   6.999   1.127   2.613  0.4021  0.3530 -0.2644
  351MOL0     C47292   6.879   1.101   2.716  0.0031 -0.0442  0.0759
  351MOL0     C47293   6.887   0.956   2.774 -0.1242 -0.2149  0.3493
  351MOL0    Cl47294   6.874   0.826   2.651 -0.0584 -0.1223 -0.3573
  351MOL0     C47295   7.638   1.620   2.585  0.4561 -0.2983 -0.6600
  351MOL0     C47296   7.763   1.686   2.578  0.4643  0.7204  0.0618
  351MOL0     O47297   8.045   1.731   2.564  0.2412 -0.6367 -0.8477
  351MOL0     C47298   8.246   1.933   2.511  0.2339 -0.4221 -0.5085
  351MOL0     C47299   8.333   2.040   2.491 -1.2682 -0.8779 -0.0998
  351MOL0     N47300   8.216   2.865   2.364  0.0769  0.3002  0.1334
  351MOL0     N47301   8.131   2.945   2.419 -0.5903  1.2323 -0.3956
  351MOL0     C47302   6.926   2.765   2.638 -0.3482  0.5194  1.2704
  351MOL0     C47303   6.785   2.734   2.648 -0.2145 -0.2619  0.7135
  351MOL0     C47304   6.362   2.736   2.695 -0.2310 -0.0855 -0.0394
  351MOL0     C47305   6.283   2.773   2.806  0.5081  1.2360 -0.3606
  351MOL0     C47306   6.149   2.732   2.834  0.3905 -0.3511  0.8879
  351MOL0     C47307   6.100   2.642   2.736  0.8981  0.0911  0.2318
  351MOL0     O47308   5.968   2.602   2.741  0.4086  1.3976  0.3208
  351MOL0     C47309   5.919   2.490   2.660  0.1748  0.6723 -0.0900
  351MOL0     C47310   5.784   2.430   2.711 -0.7718  0.9742  0.1412
  351MOL0     C47311   5.748   2.298   2.650 -0.0080 -0.4020 -1.3535
  351MOL0     C47312   5.610   2.238   2.699  0.0151  0.1629  0.1116
  351MOL0     C47313   5.498   2.335   2.688 -0.6315  0.5802 -0.9097
  351MOL0     C47314   5.409   2.417   2.681 -0.6593 -0.4365  0.0772
  351MOL0     C47315   6.191   2.586   2.640 -0.5842 -0.2199  1.7076
  351MOL0     C47316   6.316   2.636   2.613  0.7900  0.2039  0.0196
  351MOL0     C47317   6.397   2.577   2.498  1.1272  0.2285 -1.3005
  351MOL0     H47318   6.684   2.938   2.404 -1.6383 -1.7815  2.0403
  351MOL0     H47319   6.940   2.971   2.380  1.7142 -0.0941  0.6680
  351MOL0     H47320   7.137   2.949   2.721  1.1630 -0.4104  1.8801
  351MOL0     H47321   7.225   2.796   2.684  3.7860 -0.3508 -2.7591
  351MOL0     H47322   7.309   3.067   2.608 -0.4008  0.5312  1.2174
  351MOL0     H47323   7.327   2.940   2.482  1.4216  2.4772  0.0239
  351MOL0     H47324   7.417   2.785   2.657 -3.1709  0.6385 -2.3960
  351MOL0     H47325   7.442   2.920   2.757  0.2902  0.9053 -1.3905
  351MOL0     H47326   7.573   2.877   2.488 -0.0935 -0.6675  0.5822
  351MOL0     H47327   7.571   3.034   2.561 -0.7721 -0.2354 -1.0981
  351MOL0     H47328   7.667   2.919   2.775 -3.7660  0.6652  0.0645
  351MOL0     H47329   7.688   2.777   2.671 -0.5584  0.3903  0.4961
  351MOL0     H47330   7.845   2.886   2.531  2.0424  0.4018  0.2217
  351MOL0     H47331   7.798   3.052   2.597 -3.1055 -0.6129 -0.4237
  351MOL0     H47332   7.947   2.838   2.722  0.8389  0.3548 -2.4402
  351MOL0     H47333   7.906   2.996   2.805 -2.0248  0.4029  1.4753
  351MOL0     H47334   8.040   3.101   2.592  1.4879 -0.9781 -0.0077
  351MOL0     H47335   8.140   3.036   2.723 -0.1948  1.2389  0.7152
  351MOL0     H47336   8.274   2.825   2.686  2.4410 -2.0147 -0.9542
  351MOL0     H47337   8.467   2.745   2.364 -0.1194 -1.8898 -0.5718
  351MOL0     H47338   8.449   2.707   2.534 -1.2948 -0.5098  1.3494
  351MOL0     H47339   8.287   2.528   2.476 -1.0757 -2.2985 -2.3352
  351MOL0     H47340   8.288   2.577   2.304  1.4026  0.5300 -1.0121
  351MOL0     H47341   8.533   2.480   2.470 -2.5285 -0.0682  2.4286
  351MOL0     H47342   8.527   2.485   2.295 -1.9388  0.6650 -2.0463
  351MOL0     H47343   8.502   2.253   2.358 -0.6011 -0.0077 -0.6256
  351MOL0     H47344   8.339   2.317   2.309  0.2134 -1.0462  0.1175
  351MOL0     H47345   8.135   2.298   2.576  3.5060  1.3799 -0.1083
  351MOL0     H47346   7.986   2.120   2.620 -1.9615  0.6870 -3.5427
  351MOL0     H47347   7.660   1.989   2.508 -0.6879 -0.2162 -0.2216
  351MOL0     H47348   7.440   1.878   2.493  1.3727  4.4089  2.4696
  351MOL0     H47349   7.431   1.451   2.618 -2.7419  0.1889 -1.8227
  351MOL0     H47350   7.403   1.565   2.753  1.4103 -3.9419  0.8643
  351MOL0     H47351   7.213   1.417   2.755 -2.4794  1.3212  0.7121
  351MOL0     H47352   7.156   1.576   2.702  0.5394 -0.2044 -1.0729
  351MOL0     H47353   7.164   1.482   2.473 -2.2960 -4.0300 -1.9345
  351MOL0     H47354   7.218   1.329   2.532  1.1456 -0.4391  2.4069
  351MOL0     H47355   6.938   1.454   2.550 -0.6856 -0.9336 -0.2933
  351MOL0     H47356   6.978   1.364   2.688  0.7547  0.3742 -0.0400
  351MOL0     H47357   7.023   1.230   2.426 -0.8480 -0.5629 -1.0890
  351MOL0     H47358   6.867   1.251   2.499  0.6649 -3.0162 -0.0132
  351MOL0     H47359   6.995   1.042   2.544  2.1918 -0.3360  0.4321
  351MOL0     H47360   7.096   1.137   2.663  0.8215  0.0120 -0.9914
  351MOL0     H47361   6.780   1.122   2.675  0.3062  2.9702  0.6537
  351MOL0     H47362   6.889   1.171   2.800  0.0430  1.1281 -0.8713
  351MOL0     H47363   6.972   0.935   2.840  0.5788 -1.3703 -0.8764
  351MOL0     H47364   6.804   0.949   2.844 -0.8504 -0.3972 -0.5135
  351MOL0     H47365   7.643   1.515   2.615  0.7049 -0.1557 -0.1870
  351MOL0     H47366   7.850   1.628   2.604 -1.0430 -1.2943  0.8465
  351MOL0     H47367   8.269   1.828   2.497  0.2799 -0.4985  0.1046
  351MOL0     H47368   8.437   2.022   2.465 -1.0110 -0.6254  0.7084
  351MOL0     H47369   7.001   2.706   2.688  1.6542 -1.3262 -3.3154
  351MOL0     H47370   6.744   2.657   2.713 -2.6846  1.4365  1.2688
  351MOL0     H47371   6.318   2.843   2.881  1.8892  0.6052 -0.3798
  351MOL0     H47372   6.091   2.759   2.921 -0.3901 -1.0142  0.5864
  351MOL0     H47373   5.990   2.408   2.648  2.4684  2.8017 -2.2257
  351MOL0     H47374   5.894   2.525   2.560 -1.0671 -0.4469 -0.1999
  351MOL0     H47375   5.705   2.501   2.685 -0.9105  0.7851  0.0500
  351MOL0     H47376   5.780   2.425   2.821 -2.8793 -3.5579  0.0998
  351MOL0     H47377   5.829   2.227   2.668  1.2351  1.3289  0.3012
  351MOL0     H47378   5.737   2.320   2.544  2.3819  1.1866 -1.3496
  351MOL0     H47379   5.580   2.145   2.650  1.5935 -2.0831  3.0541
  351MOL0     H47380   5.632   2.212   2.803  1.2608 -0.6806 -0.3301
  351MOL0     H47381   5.332   2.491   2.678  0.4363  0.7266  0.0343
  351MOL0     H47382   6.162   2.514   2.564 -1.8402  3.5722 -1.8021
  351MOL0     H47383   6.482   2.527   2.547 -0.5362 -0.6530  0.8191
  351MOL0     H47384   6.350   2.491   2.450  1.2347 -0.0311 -0.9439
  351MOL0     H47385   6.425   2.647   2.419 -0.3503  0.3855 -1.6956
  352MOL0     O47386   4.450   0.272   0.148  0.2120 -1.2464 -0.4459
  352MOL0     C47387   4.353   0.287   0.225  0.3509  0.2650  0.2966
  352MOL0     O47388   4.343   0.232   0.346 -0.3152 -0.1690 -0.0403
  352MOL0     C47389   4.462   0.214   0.426 -0.3416 -0.7468  0.5388
  352MOL0     C47390   4.599   0.252   0.388  0.5405  0.4414 -0.2277
  352MOL0     C47391   4.707   0.236   0.476  0.0496 -0.1770  0.0780
  352MOL0     C47392   4.691   0.165   0.589  0.4592  0.4554 -0.0243
  352MOL0     O47393   4.805   0.159   0.676 -0.4291  0.1953  0.6120
  352MOL0     C47394   4.818   0.063   0.784 -0.0484 -0.0569 -0.3230
  352MOL0     C47395   4.795  -0.086   0.741 -0.2498  0.3747  0.4671
  352MOL0     C47396   4.928  -0.166   0.724  1.0877  0.1888  0.1208
  352MOL0     C47397   4.902  -0.304   0.665 -0.3565 -0.0683 -0.0816
  352MOL0     C47398   5.025  -0.396   0.641 -0.3954 -0.7229  0.4735
  352MOL0     C47399   5.109  -0.349   0.523 -0.0887 -0.1526  0.1146
  352MOL0     C47400   5.234  -0.442   0.512  0.1899  0.9370  0.9920
  352MOL0     C47401   5.352  -0.365   0.451 -0.0673 -0.4102  0.7697
  352MOL0     N47402   5.482  -0.426   0.471 -0.8517  0.6814  0.1239
  352MOL0     C47403   5.521  -0.561   0.461  0.1821 -0.2933 -1.0633
  352MOL0     C47404   5.654  -0.551   0.483 -0.6086  0.8247 -0.4513
  352MOL0     C47405   5.758  -0.662   0.501 -0.2490 -0.0191 -0.4333
  352MOL0     C47406   5.699  -0.804   0.517 -0.0410 -0.2815 -0.4979
  352MOL0     C47407   5.664  -0.852   0.373 -0.1468 -0.0158 -0.4156
  352MOL0     C47408   5.576  -0.970   0.357  0.6696 -0.2432 -1.2397
  352MOL0     O47409   5.605  -1.096   0.419 -0.4004  0.0506  0.5845
  352MOL0     C47410   5.728  -1.150   0.394  1.0762  0.3596  0.7017
  352MOL0     C47411   5.807  -1.118   0.281 -0.5115 -0.0404  0.4123
  352MOL0     C47412   5.942  -1.165   0.272  0.1290 -0.2935 -0.5652
  352MOL0     C47413   5.988  -1.263   0.364  1.3502  0.2468 -0.5232
  352MOL0     C47414   6.130  -1.308   0.358 -0.5214 -0.0548  0.0064
  352MOL0     O47415   6.167  -1.424   0.424  0.4620  0.4407  0.0756
  352MOL0     C47416   6.295  -1.463   0.446 -0.7519  0.9884 -1.2381
  352MOL0     C47417   6.401  -1.373   0.456 -0.4631  0.7961  0.1632
  352MOL0     C47418   6.532  -1.413   0.491  0.0723 -0.1635  0.0379
  352MOL0     C47419   6.554  -1.548   0.527  0.1489 -0.5935 -0.9264
  352MOL0     O47420   6.679  -1.583   0.569 -0.0009 -0.1062 -0.0406
  352MOL0     C47421   6.705  -1.710   0.624  0.6682  0.0117 -0.8470
  352MOL0     C47422   6.835  -1.719   0.693  1.0479  0.7897 -0.0901
  352MOL0     C47423   6.828  -1.813   0.812  0.8016 -0.4320  1.0551
  352MOL0     C47424   6.962  -1.843   0.859  0.7327 -0.0053 -0.6992
  352MOL0     C47425   7.053  -1.723   0.889 -0.3731 -1.2256  0.4951
  352MOL0     C47426   7.183  -1.756   0.965 -0.4282  0.8697  0.4836
  352MOL0     C47427   7.162  -1.793   1.114 -0.2129  0.7779  0.4443
  352MOL0     C47428   7.119  -1.687   1.218  0.4580  0.3329 -0.3251
  352MOL0    Cl47429   7.044  -1.742   1.376  0.1693  0.2931 -0.3767
  352MOL0     C47430   6.448  -1.644   0.517  0.0574 -0.0919 -0.7357
  352MOL0     C47431   6.321  -1.600   0.483 -0.9706  0.0085  0.2610
  352MOL0     O47432   6.206  -1.249   0.284  0.2450  1.2885  0.5314
  352MOL0     C47433   5.895  -1.299   0.468 -0.3974  0.5207 -0.5976
  352MOL0     C47434   5.769  -1.247   0.485 -0.9456  0.4887  0.5164
  352MOL0     N47435   5.692  -0.427   0.465 -0.5051 -0.1329 -0.1058
  352MOL0     N47436   5.591  -0.347   0.462 -0.0680  0.3012  0.2117
  352MOL0     C47437   4.562   0.113   0.622  0.1455  0.9971  0.5216
  352MOL0     C47438   4.449   0.136   0.543 -0.1885 -0.0149  0.2753
  352MOL0     C47439   4.232   0.342   0.161 -1.2945 -0.3007 -0.4490
  352MOL0     C47440   4.121   0.253   0.157 -0.1379 -0.5730 -0.3009
  352MOL0     C47441   4.002   0.289   0.102  0.8745  0.0884  0.4473
  352MOL0     C47442   3.984   0.425   0.058 -0.4845  0.8668 -0.4096
  352MOL0     O47443   3.861   0.452   0.005  0.0546 -0.3732  0.2829
  352MOL0     C47444   3.817   0.560   0.088 -0.6549  0.3257  0.2126
  352MOL0     C47445   3.719   0.501   0.194  0.4845 -0.3379  0.8648
  352MOL0     C47446   3.596   0.446   0.125  0.3561  0.3533  0.5708
  352MOL0     C47447   3.473   0.423   0.217  0.7988  0.3077 -0.1258
  352MOL0     C47448   3.445   0.543   0.300 -0.0346 -0.6072 -0.5499
  352MOL0     C47449   3.419   0.639   0.371  0.1832 -0.0205 -0.2692
  352MOL0     C47450   4.098   0.508   0.055 -0.5519  0.7496  0.7307
  352MOL0     C47451   4.230   0.468   0.104  0.0820 -0.0690 -0.5229
  352MOL0     C47452   4.348   0.556   0.095  0.4741  0.3703  0.8016
  352MOL0     H47453   4.632   0.293   0.293  0.5900 -2.5113 -1.5801
  352MOL0     H47454   4.802   0.279   0.445 -0.7004  0.3030 -1.6357
  352MOL0     H47455   4.913   0.083   0.835 -0.1680  0.0398 -0.1372
  352MOL0     H47456   4.742   0.081   0.860 -0.2176 -3.3240  0.4232
  352MOL0     H47457   4.746  -0.090   0.643  0.5233  0.1703  0.0830
  352MOL0     H47458   4.737  -0.144   0.814  3.2893 -4.0974  0.2048
  352MOL0     H47459   4.980  -0.167   0.820 -0.6256 -1.0427  1.1064
  352MOL0     H47460   4.992  -0.112   0.654  0.2580 -0.2846 -1.0522
  352MOL0     H47461   4.845  -0.359   0.741 -0.3547  2.2391  1.7230
  352MOL0     H47462   4.839  -0.302   0.576  0.5988  0.4556 -0.7639
  352MOL0     H47463   5.082  -0.407   0.733  0.9554 -2.4536 -0.5075
  352MOL0     H47464   4.992  -0.499   0.628 -2.0072 -0.4337  1.8247
  352MOL0     H47465   5.051  -0.346   0.430  0.6949 -1.1032 -0.4313
  352MOL0     H47466   5.142  -0.245   0.534 -0.7016  0.4142 -2.6801
  352MOL0     H47467   5.219  -0.532   0.451 -0.0788  1.0229  0.9283
  352MOL0     H47468   5.259  -0.465   0.616  2.1700  1.1756  0.6100
  352MOL0     H47469   5.339  -0.352   0.344 -0.1055  5.2838  1.1358
  352MOL0     H47470   5.364  -0.263   0.489  2.3133 -0.8341  1.2710
  352MOL0     H47471   5.458  -0.648   0.445  1.4992 -2.0955  2.3747
  352MOL0     H47472   5.824  -0.677   0.415  0.5205  0.2447  0.0966
  352MOL0     H47473   5.826  -0.635   0.582  0.7526  2.1420 -1.8869
  352MOL0     H47474   5.775  -0.861   0.571 -1.3442  0.1326  1.8990
  352MOL0     H47475   5.618  -0.808   0.591  2.1464 -2.6863  2.0211
  352MOL0     H47476   5.757  -0.870   0.318 -0.5162 -1.0584 -0.7130
  352MOL0     H47477   5.617  -0.768   0.320  2.4625  1.0139 -1.2952
  352MOL0     H47478   5.580  -0.991   0.249 -1.9336 -1.5289 -1.1650
  352MOL0     H47479   5.471  -0.956   0.383  1.1137 -1.8690  1.8870
  352MOL0     H47480   5.797  -1.048   0.198 -1.3464 -0.6867 -0.0421
  352MOL0     H47481   5.995  -1.129   0.185 -1.0687  1.2695 -0.6998
  352MOL0     H47482   6.409  -1.266   0.439  0.7990  0.8661  1.0628
  352MOL0     H47483   6.618  -1.346   0.499 -0.2323  0.1537  0.7758
  352MOL0     H47484   6.627  -1.726   0.700  0.5065  4.3053  0.1640
  352MOL0     H47485   6.695  -1.780   0.540 -1.0918 -2.0021  0.9069
  352MOL0     H47486   6.907  -1.759   0.621 -0.5255 -1.1183 -0.6957
  352MOL0     H47487   6.870  -1.622   0.731 -0.4533  1.7806 -1.1255
  352MOL0     H47488   6.777  -1.775   0.901  0.2344 -0.0245  0.5651
  352MOL0     H47489   6.773  -1.901   0.776 -1.5007  0.8182  1.3495
  352MOL0     H47490   7.003  -1.890   0.769 -2.8077 -0.0990 -2.4255
  352MOL0     H47491   6.958  -1.918   0.938 -0.9174  0.3071 -0.4644
  352MOL0     H47492   6.999  -1.644   0.942  0.9845  1.2370 -1.6140
  352MOL0     H47493   7.089  -1.686   0.793 -2.2915 -1.3385 -0.3185
  352MOL0     H47494   7.243  -1.837   0.924  0.2394  0.8890  1.4069
  352MOL0     H47495   7.244  -1.666   0.970  3.4027 -1.3554 -1.7692
  352MOL0     H47496   7.266  -1.813   1.142  0.4246  2.6769 -0.4369
  352MOL0     H47497   7.096  -1.880   1.123 -1.9909  2.2098  2.1370
  352MOL0     H47498   7.201  -1.618   1.240  1.0632  0.3253 -2.3730
  352MOL0     H47499   7.044  -1.624   1.168 -0.3081 -0.9781 -0.8878
  352MOL0     H47500   6.460  -1.751   0.535  0.9321  0.4273  2.2610
  352MOL0     H47501   6.242  -1.674   0.470 -0.7395 -0.0964 -0.6358
  352MOL0     H47502   5.919  -1.375   0.541  0.6833  1.0591 -0.3716
  352MOL0     H47503   5.701  -1.277   0.564 -0.7160 -2.1023 -0.1705
  352MOL0     H47504   4.550   0.052   0.711 -1.4546 -0.5562 -0.6963
  352MOL0     H47505   4.354   0.090   0.570 -0.1191 -2.1727 -2.6527
  352MOL0     H47506   4.132   0.160   0.212 -3.1137 -0.0181  1.4602
  352MOL0     H47507   3.917   0.221   0.105  0.2259  0.8179  4.0140
  352MOL0     H47508   3.768   0.635   0.026  0.8007  0.1379 -1.2441
  352MOL0     H47509   3.898   0.619   0.133  0.8641  0.0916 -2.0577
  352MOL0     H47510   3.696   0.578   0.269  2.6990  0.3918  0.8863
  352MOL0     H47511   3.772   0.422   0.248 -2.4763 -2.4226  0.9010
  352MOL0     H47512   3.626   0.350   0.082 -2.8070 -1.6390  2.4201
  352MOL0     H47513   3.555   0.497   0.037  1.2210  0.1004  0.0038
  352MOL0     H47514   3.379   0.396   0.169 -0.3065  4.7019 -0.8071
  352MOL0     H47515   3.501   0.347   0.291  2.4016 -0.7657 -1.7268
  352MOL0     H47516   3.379   0.721   0.427  1.0471  1.8479 -2.2708
  352MOL0     H47517   4.084   0.609   0.019 -0.6653  0.6448  0.4787
  352MOL0     H47518   4.415   0.515   0.019 -0.3344  1.0852 -0.3097
  352MOL0     H47519   4.316   0.650   0.050 -0.1055 -0.6249 -0.9636
  352MOL0     H47520   4.399   0.577   0.190 -2.5821  1.3368  2.3440
  353MOL0     O47521   4.676   8.761   3.779  0.3389 -0.5303  0.3756
  353MOL0     C47522   4.607   8.670   3.733 -0.7346  0.2381  0.0905
  353MOL0     O47523   4.652   8.540   3.719  0.6336 -0.4817 -0.2052
  353MOL0     C47524   4.750   8.513   3.809  0.8074 -0.6371 -0.7951
  353MOL0     C47525   4.725   8.458   3.940 -0.3301 -0.3635  1.1961
  353MOL0     C47526   4.821   8.441   4.034  0.4271 -0.2899  0.4585
  353MOL0     C47527   4.959   8.463   3.999  0.0012  0.7374  0.6584
  353MOL0     O47528   5.042   8.433   4.099 -0.7933 -0.1306  0.2738
  353MOL0     C47529   5.173   8.492   4.102  0.1576  0.8539  0.1408
  353MOL0     C47530   5.280   8.380   4.079 -0.1378  0.2266  0.3811
  353MOL0     C47531   5.382   8.422   3.975  0.4874 -0.1026  0.7281
  353MOL0     C47532   5.461   8.315   3.901  0.6287  0.2988 -0.2078
  353MOL0     C47533   5.570   8.384   3.823 -0.4926  0.1733  0.5854
  353MOL0     C47534   5.645   8.298   3.717  0.2506  0.4684 -0.9554
  353MOL0     C47535   5.792   8.328   3.720  0.4088  0.5905  1.0986
  353MOL0     C47536   5.857   8.230   3.617  0.2881 -0.6818 -0.0941
  353MOL0     N47537   5.997   8.234   3.619  0.3571  0.2861  0.5857
  353MOL0     C47538   6.075   8.176   3.718 -0.3055 -0.1525  0.8192
  353MOL0     C47539   6.194   8.247   3.717  0.6908 -0.3613  0.0886
  353MOL0     C47540   6.317   8.220   3.796 -0.1627 -0.4215  0.5857
  353MOL0     C47541   6.426   8.328   3.805  0.2187 -0.1555 -0.4863
  353MOL0     C47542   6.546   8.282   3.898  0.1661 -0.9085  0.8591
  353MOL0     C47543   6.667   8.254   3.806 -0.0002  0.5629 -0.5169
  353MOL0     O47544   6.646   8.151   3.714 -0.0865  0.1402 -0.1188
  353MOL0     C47545   6.639   8.020   3.757 -0.2522 -0.1373  0.2180
  353MOL0     C47546   6.556   7.936   3.676  0.3572  0.6177  0.4449
  353MOL0     C47547   6.532   7.803   3.715 -0.9197 -0.6718  0.1581
  353MOL0     C47548   6.582   7.751   3.838 -0.3315 -0.6575  0.1799
  353MOL0     C47549   6.560   7.614   3.883  0.2595 -0.2167 -0.8961
  353MOL0     O47550   6.462   7.542   3.815 -0.5126 -0.0399  0.5046
  353MOL0     C47551   6.405   7.429   3.863 -0.0545  0.8442 -0.3095
  353MOL0     C47552   6.263   7.434   3.874  0.0516  0.6043 -0.6808
  353MOL0     C47553   6.195   7.318   3.937 -0.5753  0.6002 -0.3374
  353MOL0     C47554   6.273   7.203   3.968 -0.7921 -0.2272  0.0520
  353MOL0     O47555   6.231   7.090   4.030  0.6259 -0.1580  0.5816
  353MOL0     C47556   6.096   7.083   4.065  0.9240  0.2491 -0.3091
  353MOL0     C47557   6.064   6.943   4.122  0.4487 -0.8747  0.4734
  353MOL0     C47558   5.926   6.948   4.202  0.6561 -0.5543 -0.4246
  353MOL0     C47559   5.889   6.818   4.264 -0.6383  0.2166  0.5805
  353MOL0     C47560   5.765   6.832   4.348 -0.2903  0.1473 -0.5547
  353MOL0     C47561   5.725   6.707   4.426 -0.6182  0.2165  1.1849
  353MOL0     C47562   5.622   6.721   4.544  0.0059 -0.1693  0.1713
  353MOL0     C47563   5.527   6.602   4.555 -0.2698 -0.1031 -0.4036
  353MOL0    Cl47564   5.606   6.451   4.605  0.4009 -0.0618 -0.0162
  353MOL0     C47565   6.414   7.201   3.945  0.3157 -0.4207 -0.4274
  353MOL0     C47566   6.481   7.311   3.900  0.5190  0.1184 -0.7604
  353MOL0     O47567   6.616   7.572   3.985  0.6067  0.0720 -0.5296
  353MOL0     C47568   6.657   7.841   3.918  0.8578  0.1186  0.9951
  353MOL0     C47569   6.684   7.975   3.874 -0.0876 -0.0980  0.2982
  353MOL0     N47570   6.180   8.340   3.614 -0.6328 -0.1817  0.1654
  353MOL0     N47571   6.060   8.335   3.562 -0.0454 -0.0179 -0.4736
  353MOL0     C47572   4.986   8.499   3.863 -1.0523  0.4600 -0.0271
  353MOL0     C47573   4.882   8.528   3.768 -0.3162 -0.5598 -0.6801
  353MOL0     C47574   4.461   8.688   3.678  0.3168 -0.0831  0.0782
  353MOL0     C47575   4.385   8.581   3.632  0.3226  0.3782  0.2688
  353MOL0     C47576   4.266   8.588   3.574 -0.2730 -0.1728 -0.1037
  353MOL0     C47577   4.189   8.703   3.590  0.5346 -0.6102 -0.1886
  353MOL0     O47578   4.055   8.694   3.551 -0.0249  0.0191  0.5965
  353MOL0     C47579   3.979   8.810   3.564  0.7026  0.4717  0.4275
  353MOL0     C47580   3.834   8.782   3.517  0.3371  0.4424 -0.0887
  353MOL0     C47581   3.773   8.688   3.623 -0.8411  0.4774  0.8183
  353MOL0     C47582   3.644   8.634   3.571 -0.4647  0.5967  0.7185
  353MOL0     C47583   3.663   8.523   3.480  0.6019 -0.0085  0.0320
  353MOL0     C47584   3.683   8.436   3.395 -0.8952  0.1782 -0.7086
  353MOL0     C47585   4.252   8.815   3.646  0.5363  1.0512 -0.8207
  353MOL0     C47586   4.385   8.811   3.684 -0.0614  0.3728 -0.0355
  353MOL0     C47587   4.447   8.938   3.741  0.8453 -1.2187 -0.0493
  353MOL0     H47588   4.622   8.427   3.957 -0.4138 -2.8175 -2.5830
  353MOL0     H47589   4.790   8.404   4.132 -2.1064  0.9391  0.1903
  353MOL0     H47590   5.195   8.577   4.037  3.6429 -0.3490 -0.4888
  353MOL0     H47591   5.185   8.519   4.207 -1.0806 -0.7238  0.7178
  353MOL0     H47592   5.222   8.292   4.049  1.9759 -1.4958  1.0656
  353MOL0     H47593   5.335   8.351   4.169  2.6099  2.9753 -0.2479
  353MOL0     H47594   5.465   8.470   4.028  0.7600  0.8578 -0.5133
  353MOL0     H47595   5.340   8.492   3.902 -0.5807  2.0502  3.2588
  353MOL0     H47596   5.487   8.249   3.984  1.3663  0.4200 -0.3359
  353MOL0     H47597   5.409   8.260   3.822  2.7572 -3.6125  0.8478
  353MOL0     H47598   5.522   8.458   3.758 -1.8652 -0.3957  0.9192
  353MOL0     H47599   5.634   8.425   3.902 -2.3754 -1.1246  2.9165
  353MOL0     H47600   5.630   8.198   3.760  1.9263  1.9044  3.6081
  353MOL0     H47601   5.602   8.319   3.619  0.7676  0.2911 -1.2229
  353MOL0     H47602   5.826   8.294   3.818 -0.3809  3.8273  2.6620
  353MOL0     H47603   5.804   8.437   3.709 -5.2006  1.2955 -2.0694
  353MOL0     H47604   5.823   8.127   3.626 -1.4855  0.0571  3.1981
  353MOL0     H47605   5.831   8.259   3.514  0.3164 -0.3210 -0.0039
  353MOL0     H47606   6.070   8.087   3.780 -1.0391  0.5154  1.7520
  353MOL0     H47607   6.294   8.197   3.900  2.0202 -0.2966  1.1286
  353MOL0     H47608   6.366   8.133   3.751 -0.8259  0.5694 -2.3096
  353MOL0     H47609   6.465   8.350   3.705  1.3001 -1.4146 -0.3498
  353MOL0     H47610   6.377   8.417   3.847 -4.7149 -1.9918 -1.6751
  353MOL0     H47611   6.518   8.191   3.951  0.4930 -0.8680  1.1132
  353MOL0     H47612   6.560   8.357   3.978  1.1618 -1.5812  1.3393
  353MOL0     H47613   6.755   8.240   3.871 -0.1937 -3.9270 -0.9725
  353MOL0     H47614   6.684   8.345   3.747  2.2382 -0.1043 -0.9822
  353MOL0     H47615   6.513   7.976   3.584  0.2624 -0.5422 -0.0305
  353MOL0     H47616   6.470   7.743   3.648  0.9140 -2.0842 -0.3599
  353MOL0     H47617   6.199   7.521   3.865 -0.2099  0.9101  2.8640
  353MOL0     H47618   6.091   7.312   3.965 -0.6086  1.7249 -0.1946
  353MOL0     H47619   6.074   7.150   4.149  2.9332 -0.4321  0.8373
  353MOL0     H47620   6.031   7.110   3.982 -0.6039  0.3254  0.8614
  353MOL0     H47621   6.077   6.868   4.044  1.9298  0.7969 -0.9733
  353MOL0     H47622   6.136   6.927   4.202 -0.4607  1.7168  1.9349
  353MOL0     H47623   5.942   7.020   4.282  1.7428  1.4333 -2.3089
  353MOL0     H47624   5.845   6.984   4.138  0.3080 -0.3304  0.1363
  353MOL0     H47625   5.972   6.798   4.332  0.2997 -1.4823 -0.9626
  353MOL0     H47626   5.886   6.740   4.188 -0.4196  1.1780 -0.4399
  353MOL0     H47627   5.685   6.860   4.278  0.2694  2.0366 -0.4785
  353MOL0     H47628   5.782   6.917   4.416  5.6935 -1.0827  0.0028
  353MOL0     H47629   5.710   6.631   4.349  4.4319 -1.1872  1.1850
  353MOL0     H47630   5.813   6.664   4.476 -1.6988 -0.6727  2.4192
  353MOL0     H47631   5.555   6.802   4.515  0.0487 -0.1249  0.1946
  353MOL0     H47632   5.669   6.759   4.635 -0.2259 -0.4243  0.3974
  353MOL0     H47633   5.448   6.634   4.624  1.2810  2.8192  0.1702
  353MOL0     H47634   5.469   6.576   4.466 -0.9158  1.9247 -0.6106
  353MOL0     H47635   6.461   7.106   3.969 -0.7190 -1.7753 -3.2876
  353MOL0     H47636   6.588   7.292   3.910  0.3440 -2.7460 -2.9907
  353MOL0     H47637   6.683   7.799   4.014 -0.3336 -4.6379 -0.5150
  353MOL0     H47638   6.741   8.037   3.943  0.3118  0.4705 -0.5222
  353MOL0     H47639   5.086   8.531   3.838 -0.4301 -1.1871  0.1958
  353MOL0     H47640   4.893   8.569   3.668 -2.2645  0.6761 -0.4466
  353MOL0     H47641   4.445   8.491   3.618  0.2491  0.2791  0.5901
  353MOL0     H47642   4.232   8.502   3.517 -0.3271  0.0127 -0.3534
  353MOL0     H47643   4.019   8.883   3.494 -0.5591 -0.2612 -1.1280
  353MOL0     H47644   3.965   8.848   3.666 -2.6674  0.5093  0.0666
  353MOL0     H47645   3.827   8.753   3.411 -0.1556 -2.6921  0.7079
  353MOL0     H47646   3.784   8.879   3.523 -0.2206  0.2506 -1.3236
  353MOL0     H47647   3.749   8.737   3.718 -1.1525  2.5542 -0.2828
  353MOL0     H47648   3.842   8.605   3.642 -2.9881 -2.3035 -2.2865
  353MOL0     H47649   3.592   8.594   3.658 -1.6707 -0.4658 -0.4414
  353MOL0     H47650   3.575   8.707   3.528 -3.8589 -3.5230 -1.6399
  353MOL0     H47651   3.712   8.358   3.327  0.7810  0.6788 -0.6124
  353MOL0     H47652   4.187   8.900   3.663 -1.9017 -0.7450 -0.5255
  353MOL0     H47653   4.540   8.967   3.692 -0.6252  1.1732 -1.6696
  353MOL0     H47654   4.385   9.026   3.723  2.9765 -0.1310 -2.8136
  353MOL0     H47655   4.461   8.934   3.849  2.7122 -2.7461 -0.3045
  354MOL0     O47656   3.889   2.528  10.393 -0.1374  0.3799  0.2088
  354MOL0     C47657   3.836   2.638  10.384  0.3912  0.0894 -0.3854
  354MOL0     O47658   3.901   2.752  10.409 -0.0648  0.7319  0.7188
  354MOL0     C47659   4.037   2.758  10.419 -0.3031 -0.1976  0.0889
  354MOL0     C47660   4.095   2.784  10.544 -0.1213 -0.4660 -0.4867
  354MOL0     C47661   4.233   2.787  10.555 -0.3832  0.2803 -0.7942
  354MOL0     C47662   4.316   2.771  10.439  0.9399 -0.9275 -0.6025
  354MOL0     O47663   4.449   2.799  10.440  0.1662 -0.7593  0.0790
  354MOL0     C47664   4.542   2.789  10.549  0.6722  0.5031  0.3385
  354MOL0     C47665   4.665   2.888  10.519  0.8091 -0.1777 -0.2692
  354MOL0     C47666   4.749   2.923  10.641 -0.4508  0.1538  1.0752
  354MOL0     C47667   4.875   3.019  10.609  0.5104 -0.1361  0.2244
  354MOL0     C47668   4.970   3.030  10.731 -0.8199  0.3223  0.7894
  354MOL0     C47669   5.090   3.114  10.686 -0.7482 -0.1257  0.3381
  354MOL0     C47670   5.203   3.119  10.782 -0.0704  0.0357 -0.6338
  354MOL0     C47671   5.343   3.073  10.734  0.1487 -0.0378 -0.5650
  354MOL0     N47672   5.392   3.122  10.603  0.6667  0.0813  0.1382
  354MOL0     C47673   5.490   3.217  10.594 -0.0128 -0.4280 -0.2125
  354MOL0     C47674   5.512   3.242  10.462 -0.3979  0.5706  0.2222
  354MOL0     C47675   5.593   3.353  10.413 -0.7318 -0.4483  0.4647
  354MOL0     C47676   5.745   3.336  10.444  0.9731  0.6582  0.8727
  354MOL0     C47677   5.811   3.242  10.347  0.1023  0.8984 -0.8053
  354MOL0     C47678   5.864   3.318  10.224 -0.2197 -0.6452  0.1804
  354MOL0     O47679   5.958   3.428  10.237  0.0844 -0.3663  0.3404
  354MOL0     C47680   6.092   3.410  10.239  0.3851  0.1732 -1.1523
  354MOL0     C47681   6.168   3.523  10.233 -0.2921 -0.0681 -0.2145
  354MOL0     C47682   6.306   3.525  10.215 -0.2514 -0.6099 -0.5694
  354MOL0     C47683   6.374   3.401  10.214 -0.3030 -0.2468 -0.9438
  354MOL0     C47684   6.522   3.392  10.206 -0.2743 -0.2914 -0.7503
  354MOL0     O47685   6.578   3.280  10.162 -0.2337  0.0387  0.7642
  354MOL0     C47686   6.709   3.277  10.144 -0.7217  0.1343 -0.3580
  354MOL0     C47687   6.769   3.339  10.034  0.0059 -0.1710  0.5132
  354MOL0     C47688   6.911   3.335  10.011 -0.6219 -0.1558 -0.1144
  354MOL0     C47689   6.989   3.257  10.097  0.1843  0.8360 -0.4978
  354MOL0     O47690   7.121   3.259  10.071 -0.3721  0.6698  0.0637
  354MOL0     C47691   7.215   3.234  10.172  0.0437 -0.1021 -0.4254
  354MOL0     C47692   7.262   3.088  10.198  0.7145 -0.5878  0.1214
  354MOL0     C47693   7.270   3.011  10.063 -0.0402 -0.2018 -0.4665
  354MOL0     C47694   7.288   2.867  10.082 -0.5064  0.0351  0.0045
  354MOL0     C47695   7.413   2.824  10.164 -0.6490  0.2506 -0.8285
  354MOL0     C47696   7.446   2.675  10.167  0.5350  0.2267 -0.1692
  354MOL0     C47697   7.483   2.607  10.034 -0.0078  0.1110  1.0964
  354MOL0     C47698   7.623   2.630   9.981 -0.7508  0.2762 -0.1446
  354MOL0    Cl47699   7.742   2.544  10.076  0.7403  0.3497  0.2999
  354MOL0     C47700   6.934   3.183  10.203  0.2699 -0.1967 -0.0707
  354MOL0     C47701   6.792   3.199  10.225  0.3630 -0.0727 -0.2190
  354MOL0     O47702   6.585   3.497  10.226 -0.5851  0.2418  0.4182
  354MOL0     C47703   6.295   3.282  10.223  0.1142  0.1295  0.5407
  354MOL0     C47704   6.153   3.284  10.225  0.8140 -0.5412  0.6200
  354MOL0     N47705   5.438   3.144  10.391  1.3139 -0.1154 -0.2869
  354MOL0     N47706   5.364   3.071  10.480  0.1797  0.7241  0.5572
  354MOL0     C47707   4.260   2.760  10.312 -0.4031  0.2296 -0.4630
  354MOL0     C47708   4.118   2.756  10.301 -1.0655  0.0527 -0.1138
  354MOL0     C47709   3.688   2.626  10.398  0.2012  1.0215  1.0901
  354MOL0     C47710   3.620   2.498  10.381  0.4499 -0.2156  0.6667
  354MOL0     C47711   3.478   2.492  10.405 -0.3251  0.5290 -0.3951
  354MOL0     C47712   3.403   2.605  10.426 -1.1933 -0.2779 -0.1536
  354MOL0     O47713   3.275   2.589  10.462 -0.3495  0.0437 -0.2352
  354MOL0     C47714   3.181   2.573  10.356  0.0485  0.2504  0.6460
  354MOL0     C47715   3.041   2.520  10.375  0.6426 -0.2675  0.1004
  354MOL0     C47716   2.947   2.531  10.244 -1.1691 -1.1505 -0.0300
  354MOL0     C47717   2.968   2.393  10.182 -0.0662 -0.0904  0.5077
  354MOL0     C47718   2.894   2.385  10.048  0.0303 -0.4793 -0.5816
  354MOL0     C47719   2.827   2.400   9.948 -1.3510  0.2571  0.0211
  354MOL0     C47720   3.479   2.719  10.457 -0.2675 -0.0719  0.6326
  354MOL0     C47721   3.616   2.739  10.432  1.3864  0.7350  0.7052
  354MOL0     C47722   3.672   2.880  10.471 -0.1226  0.3035 -0.3382
  354MOL0     H47723   4.040   2.815  10.632  0.1554  2.1577 -1.1470
  354MOL0     H47724   4.285   2.814  10.646  1.1193  1.7237 -2.0122
  354MOL0     H47725   4.502   2.817  10.647  1.7688  0.9046  0.6881
  354MOL0     H47726   4.564   2.682  10.555 -1.0654 -0.0048 -1.3489
  354MOL0     H47727   4.639   2.982  10.470  0.3336 -0.1232  0.0768
  354MOL0     H47728   4.727   2.824  10.456  1.2299  0.3826 -0.4253
  354MOL0     H47729   4.770   2.837  10.704  1.2830 -0.9689 -0.9329
  354MOL0     H47730   4.680   2.987  10.698 -0.6196 -0.0983  1.1591
  354MOL0     H47731   4.925   2.968  10.526 -0.7171 -1.7631  0.4151
  354MOL0     H47732   4.841   3.116  10.573  1.5213  1.3856  3.0953
  354MOL0     H47733   4.924   3.066  10.823 -1.5162 -1.4865  1.1907
  354MOL0     H47734   5.002   2.930  10.762 -0.9215 -0.0060 -0.1221
  354MOL0     H47735   5.124   3.073  10.591  1.1631  3.1666 -0.5536
  354MOL0     H47736   5.059   3.216  10.661  1.5705  0.6875  0.5292
  354MOL0     H47737   5.182   3.067  10.877 -2.6579 -1.2848 -1.8444
  354MOL0     H47738   5.220   3.225  10.801  2.5415 -0.0061 -2.2162
  354MOL0     H47739   5.414   3.108  10.809  0.1424  0.9890 -1.0199
  354MOL0     H47740   5.336   2.964  10.730 -0.5437 -0.0531  0.6608
  354MOL0     H47741   5.541   3.265  10.676 -0.5042  1.5945 -1.0370
  354MOL0     H47742   5.571   3.361  10.306 -0.9465 -0.9797  0.4670
  354MOL0     H47743   5.555   3.441  10.466  1.7768 -0.8151  3.1547
  354MOL0     H47744   5.808   3.426  10.452  1.4016  0.4933 -0.3383
  354MOL0     H47745   5.764   3.299  10.545 -0.2216 -0.3123  0.7626
  354MOL0     H47746   5.747   3.158  10.318  1.9479 -1.2920  1.0776
  354MOL0     H47747   5.898   3.189  10.387 -1.4624  0.1107  1.8342
  354MOL0     H47748   5.776   3.351  10.168  1.2958 -0.3186 -2.1919
  354MOL0     H47749   5.898   3.239  10.155  1.3154 -0.3609  0.5650
  354MOL0     H47750   6.129   3.624  10.229  0.4635  0.3691  1.9239
  354MOL0     H47751   6.355   3.621  10.219  3.4403 -2.3725  1.7903
  354MOL0     H47752   6.710   3.392   9.959 -1.5844 -1.9744  0.4078
  354MOL0     H47753   6.948   3.391   9.926 -2.0074 -0.0350 -0.6756
  354MOL0     H47754   7.298   3.305  10.169 -0.8456  1.0827  1.3040
  354MOL0     H47755   7.165   3.258  10.267 -1.1159  3.7754 -1.8059
  354MOL0     H47756   7.362   3.084  10.241  0.1276 -1.4202  1.4399
  354MOL0     H47757   7.196   3.037  10.268 -1.6244  2.2278  0.1734
  354MOL0     H47758   7.179   3.024  10.003 -0.5245  2.2191  0.6547
  354MOL0     H47759   7.345   3.056   9.998  1.6089 -1.2032  0.6781
  354MOL0     H47760   7.300   2.819   9.984  1.7832  0.0491  0.2381
  354MOL0     H47761   7.203   2.818  10.130  1.3059 -0.9847  2.4023
  354MOL0     H47762   7.408   2.858  10.268 -1.6214 -2.0697 -0.0483
  354MOL0     H47763   7.502   2.877  10.131 -1.2439  1.2657 -0.8611
  354MOL0     H47764   7.519   2.661  10.248  0.4351  2.3370  0.3570
  354MOL0     H47765   7.360   2.624  10.210  0.1912 -0.7194 -1.8917
  354MOL0     H47766   7.409   2.615   9.955  1.4973 -3.1827 -0.8514
  354MOL0     H47767   7.486   2.501  10.064  0.5257  0.1363  1.1428
  354MOL0     H47768   7.635   2.597   9.878 -0.0163 -0.0005  0.0212
  354MOL0     H47769   7.660   2.733   9.986  0.6398 -0.2495  1.5204
  354MOL0     H47770   6.995   3.117  10.264  2.0187 -0.3899 -1.9194
  354MOL0     H47771   6.739   3.145  10.304 -3.4999  0.7565 -1.9887
  354MOL0     H47772   6.342   3.184  10.220  0.1322  0.1239  0.9286
  354MOL0     H47773   6.101   3.189  10.223 -0.8166  0.2647  2.2455
  354MOL0     H47774   4.326   2.763  10.227 -0.6150  1.2029 -0.6096
  354MOL0     H47775   4.073   2.753  10.202 -1.0904  2.2467 -0.2219
  354MOL0     H47776   3.674   2.405  10.363 -1.2261 -2.0292  4.0944
  354MOL0     H47777   3.426   2.398  10.394 -1.9565  0.9489  2.5492
  354MOL0     H47778   3.213   2.505  10.277 -2.2637  0.4081 -0.5277
  354MOL0     H47779   3.183   2.669  10.304  0.9199 -1.0359 -1.8549
  354MOL0     H47780   2.983   2.567  10.455  1.1000  1.8295 -0.7415
  354MOL0     H47781   3.053   2.415  10.403 -0.9819 -0.1637  1.3639
  354MOL0     H47782   2.988   2.613  10.183 -0.1543  0.3204  2.4583
  354MOL0     H47783   2.842   2.546  10.267 -0.7718 -0.3457  1.3507
  354MOL0     H47784   3.075   2.384  10.165  0.3984  1.2339  2.4218
  354MOL0     H47785   2.933   2.314  10.249  0.3071  1.7107  2.9557
  354MOL0     H47786   2.773   2.409   9.856  0.5257  2.0822 -0.9836
  354MOL0     H47787   3.422   2.799  10.503 -0.6667 -0.9442  1.6942
  354MOL0     H47788   3.733   2.928  10.394  1.6565 -0.4781  0.5168
  354MOL0     H47789   3.592   2.951  10.490 -0.0595  0.4208 -0.5128
  354MOL0     H47790   3.734   2.861  10.560  0.0797 -0.3174 -0.6042
  355MOL0     O47791   4.876   6.565   6.744  0.3542 -0.0092 -0.4510
  355MOL0     C47792   4.886   6.658   6.666 -0.0117  0.9595  1.0322
  355MOL0     O47793   4.977   6.758   6.667  0.7723  0.0167 -0.5971
  355MOL0     C47794   5.082   6.740   6.750 -0.1322  0.4264 -0.4427
  355MOL0     C47795   5.175   6.633   6.744  0.3694 -0.4868 -0.6575
  355MOL0     C47796   5.281   6.632   6.833  0.5070  0.3966  0.0959
  355MOL0     C47797   5.301   6.729   6.926  0.0100  0.4554  0.0655
  355MOL0     O47798   5.412   6.709   7.011  0.5639  0.5964 -0.5179
  355MOL0     C47799   5.453   6.802   7.106  0.0450  1.2003 -0.0697
  355MOL0     C47800   5.576   6.742   7.182 -0.3966  0.5949  0.3130
  355MOL0     C47801   5.695   6.735   7.077 -0.1219  0.0053  0.3347
  355MOL0     C47802   5.793   6.623   7.103 -0.1167  1.0274  0.2046
  355MOL0     C47803   5.919   6.675   7.180  0.3687  0.7429  0.1321
  355MOL0     C47804   5.987   6.568   7.265 -0.6520 -0.0769  0.2878
  355MOL0     C47805   6.054   6.449   7.178 -0.2786  0.1919  0.4417
  355MOL0     C47806   5.962   6.323   7.167 -0.5613  0.9394  0.0621
  355MOL0     N47807   6.033   6.218   7.087 -0.1488 -0.1659  0.9501
  355MOL0     C47808   6.031   6.218   6.946 -0.5629  0.4106  0.8114
  355MOL0     C47809   6.075   6.095   6.914  0.2158  0.6646  0.0439
  355MOL0     C47810   6.099   6.045   6.775 -1.0117 -0.0564 -0.1502
  355MOL0     C47811   6.002   5.944   6.713 -0.0139 -0.5564  0.2131
  355MOL0     C47812   6.019   5.806   6.778  1.0366  0.2759  0.8070
  355MOL0     C47813   5.884   5.722   6.741 -0.2503 -0.1850  0.0721
  355MOL0     O47814   5.877   5.679   6.605 -0.3357  0.2844  0.3919
  355MOL0     C47815   5.972   5.611   6.540  1.0550  0.6312  0.4501
  355MOL0     C47816   6.052   5.509   6.598 -0.4930  0.1530  0.6250
  355MOL0     C47817   6.143   5.436   6.517  0.4965  0.4531  0.1343
  355MOL0     C47818   6.125   5.444   6.377 -0.0431  0.8891 -0.3667
  355MOL0     C47819   6.226   5.378   6.291  0.1463  0.1421 -0.1007
  355MOL0     O47820   6.193   5.376   6.156  0.4700 -0.0868  0.5151
  355MOL0     C47821   6.276   5.316   6.069  0.0753 -0.7335 -1.7337
  355MOL0     C47822   6.319   5.183   6.083  0.4523 -0.6485 -0.3955
  355MOL0     C47823   6.390   5.129   5.979  0.2310 -1.1519  0.4903
  355MOL0     C47824   6.430   5.199   5.862 -0.1241 -0.1017 -0.0710
  355MOL0     O47825   6.505   5.127   5.778 -0.9766  0.4790 -0.0589
  355MOL0     C47826   6.564   5.192   5.664  0.6784 -0.8910 -0.0087
  355MOL0     C47827   6.620   5.076   5.573  0.0438  0.4846  0.0300
  355MOL0     C47828   6.755   5.093   5.510 -0.5220 -0.4728 -0.4919
  355MOL0     C47829   6.765   5.027   5.377  0.0526  0.9707 -0.1198
  355MOL0     C47830   6.889   5.070   5.308 -0.4565  0.4117  0.4324
  355MOL0     C47831   6.886   5.042   5.155 -0.4162  0.1781  0.2369
  355MOL0     C47832   6.991   4.946   5.098 -0.0028 -0.1969 -0.2934
  355MOL0     C47833   7.010   4.819   5.185 -0.1053 -0.2212  0.2325
  355MOL0    Cl47834   6.853   4.722   5.178 -0.9484  0.4633 -0.0835
  355MOL0     C47835   6.384   5.332   5.844  0.1865 -0.2821 -0.4956
  355MOL0     C47836   6.303   5.386   5.945 -0.0622  0.1873  0.0587
  355MOL0     O47837   6.311   5.299   6.340 -0.6328 -0.4557  1.6483
  355MOL0     C47838   6.037   5.528   6.316  0.1236  0.4018 -0.3062
  355MOL0     C47839   5.950   5.601   6.402  0.2401 -0.2808  0.8364
  355MOL0     N47840   6.102   6.026   7.030  0.2965  0.4816  0.1445
  355MOL0     N47841   6.083   6.101   7.129  0.1064 -0.5205  0.5738
  355MOL0     C47842   5.210   6.833   6.934  0.4680  0.3062 -0.6141
  355MOL0     C47843   5.101   6.845   6.840 -0.1666 -0.8955 -0.0372
  355MOL0     C47844   4.765   6.679   6.579  0.7851  0.8415  0.3118
  355MOL0     C47845   4.741   6.800   6.515 -0.2777 -0.0236  0.1328
  355MOL0     C47846   4.639   6.818   6.424  0.3904 -0.9707 -0.4050
  355MOL0     C47847   4.545   6.720   6.396 -0.1494  1.2655  0.3577
  355MOL0     O47848   4.437   6.747   6.314  0.5219  0.5327  0.1518
  355MOL0     C47849   4.371   6.642   6.243 -0.3289 -0.6440 -0.0374
  355MOL0     C47850   4.337   6.699   6.102 -0.6088  0.3893  0.1469
  355MOL0     C47851   4.459   6.740   6.021  0.0955 -0.5010 -0.0408
  355MOL0     C47852   4.453   6.715   5.871  0.2750 -0.5999  0.3524
  355MOL0     C47853   4.449   6.575   5.849 -0.5374  0.1225  0.1909
  355MOL0     C47854   4.432   6.460   5.825  0.3648 -0.3924  0.2837
  355MOL0     C47855   4.571   6.599   6.453  0.6930  0.4077 -0.7379
  355MOL0     C47856   4.672   6.575   6.552 -0.4852  0.2060 -0.1857
  355MOL0     C47857   4.664   6.432   6.604  0.0623  0.2971 -0.0519
  355MOL0     H47858   5.163   6.560   6.666 -2.7110 -1.7706  0.8510
  355MOL0     H47859   5.356   6.557   6.810 -1.2239 -1.4052  0.0113
  355MOL0     H47860   5.488   6.892   7.055  0.6423  1.0605  0.0825
  355MOL0     H47861   5.365   6.814   7.169 -1.1680 -2.0149 -0.9351
  355MOL0     H47862   5.552   6.643   7.221  3.8738 -0.9194 -0.4611
  355MOL0     H47863   5.614   6.794   7.270  3.1371 -0.6282 -0.3417
  355MOL0     H47864   5.735   6.836   7.067 -3.3989  1.3126 -0.8896
  355MOL0     H47865   5.655   6.721   6.976  1.5193 -0.3217 -0.3083
  355MOL0     H47866   5.743   6.539   7.151  1.5356  0.3659  0.8238
  355MOL0     H47867   5.821   6.583   7.005  0.1939  1.1663  0.2347
  355MOL0     H47868   5.993   6.712   7.108  0.5183  1.7773  0.7983
  355MOL0     H47869   5.878   6.756   7.242 -1.2585 -0.2727  0.4383
  355MOL0     H47870   6.058   6.603   7.340 -0.1408 -1.3218  0.4155
  355MOL0     H47871   5.900   6.526   7.316 -0.1447 -3.0476 -1.0540
  355MOL0     H47872   6.138   6.417   7.241  0.3039  4.1442  1.9449
  355MOL0     H47873   6.088   6.484   7.079  2.5935 -0.2704  1.1638
  355MOL0     H47874   5.939   6.283   7.267 -3.9188  3.7152  0.5899
  355MOL0     H47875   5.869   6.365   7.129  0.2345  0.4218 -2.6170
  355MOL0     H47876   6.015   6.304   6.882  1.8762 -0.1153 -0.6338
  355MOL0     H47877   6.116   6.134   6.715  3.9113  1.6371  3.1887
  355MOL0     H47878   6.194   5.991   6.780 -0.2152  1.3511  0.2562
  355MOL0     H47879   5.904   5.990   6.731 -3.3169 -5.7279 -2.3368
  355MOL0     H47880   5.996   5.932   6.605  0.7398 -1.1951  0.2291
  355MOL0     H47881   6.025   5.805   6.887 -2.3113 -4.7136  1.3089
  355MOL0     H47882   6.104   5.756   6.732 -0.4898 -1.1683 -0.6133
  355MOL0     H47883   5.786   5.772   6.745  0.8490  2.1977 -0.6314
  355MOL0     H47884   5.879   5.642   6.815 -0.2005 -1.7270 -1.5330
  355MOL0     H47885   6.036   5.493   6.704 -0.2447  1.3109  0.8473
  355MOL0     H47886   6.224   5.378   6.560  1.5882  1.4966 -0.4466
  355MOL0     H47887   6.282   5.125   6.168 -0.6845  0.9526  0.2428
  355MOL0     H47888   6.423   5.027   5.995  0.4958 -1.0505  0.5804
  355MOL0     H47889   6.487   5.247   5.609  0.2128  0.0291  1.5010
  355MOL0     H47890   6.640   5.261   5.701 -0.7382  0.6134  0.2458
  355MOL0     H47891   6.619   4.986   5.635 -2.4307  0.7778  0.5088
  355MOL0     H47892   6.559   5.053   5.485  1.0241 -3.2137  0.1415
  355MOL0     H47893   6.786   5.196   5.494 -0.8067 -0.1009  1.1637
  355MOL0     H47894   6.827   5.047   5.578 -0.6799 -2.1030 -1.3666
  355MOL0     H47895   6.677   5.057   5.320 -1.5477  1.0810  2.2617
  355MOL0     H47896   6.769   4.919   5.394 -0.9997  0.9514  0.0953
  355MOL0     H47897   6.981   5.040   5.358 -0.0065  2.3926  0.8634
  355MOL0     H47898   6.911   5.175   5.327  4.4485 -0.3561  0.2079
  355MOL0     H47899   6.785   5.006   5.135 -0.5845 -0.4370  2.0018
  355MOL0     H47900   6.899   5.135   5.100  0.1337  0.6128  1.0829
  355MOL0     H47901   7.082   5.002   5.079 -1.1921  2.2284  0.7786
  355MOL0     H47902   6.943   4.922   5.002 -2.2935  1.8393  0.2398
  355MOL0     H47903   7.086   4.761   5.133  1.4556  3.0223 -1.4115
  355MOL0     H47904   7.040   4.840   5.289  2.1086  1.2751 -0.6387
  355MOL0     H47905   6.393   5.405   5.764 -1.1191  5.1826  3.7242
  355MOL0     H47906   6.261   5.485   5.928  1.0278  0.2875 -2.3523
  355MOL0     H47907   6.042   5.554   6.211 -1.9629  0.3025 -0.4545
  355MOL0     H47908   5.871   5.652   6.349  1.4413  1.3788  0.5641
  355MOL0     H47909   5.216   6.917   7.002 -3.8571  2.2354 -2.2321
  355MOL0     H47910   5.039   6.933   6.833  1.0576  0.2381  2.2583
  355MOL0     H47911   4.802   6.889   6.528 -0.6606  0.1924  0.4833
  355MOL0     H47912   4.629   6.921   6.392  0.6380 -0.3959  1.2370
  355MOL0     H47913   4.287   6.603   6.301  0.4210  1.1056  2.4037
  355MOL0     H47914   4.441   6.561   6.218  0.2079 -0.4080  0.6520
  355MOL0     H47915   4.270   6.783   6.125  0.4008  0.5978  2.7461
  355MOL0     H47916   4.284   6.624   6.043 -0.5401  0.7257 -0.3407
  355MOL0     H47917   4.546   6.685   6.056  2.2898  1.1143 -2.5366
  355MOL0     H47918   4.469   6.849   6.030 -0.7692 -0.3730 -0.4573
  355MOL0     H47919   4.365   6.757   5.822 -1.4271 -2.1850  1.8682
  355MOL0     H47920   4.542   6.753   5.820 -0.2585 -0.0215 -0.1726
  355MOL0     H47921   4.421   6.354   5.818  1.1962 -0.5504  1.1486
  355MOL0     H47922   4.499   6.518   6.447 -1.1001  1.7219  1.3450
  355MOL0     H47923   4.617   6.425   6.702 -0.8566 -2.3416 -0.6129
  355MOL0     H47924   4.599   6.373   6.540 -3.5066  0.9047  2.6847
  355MOL0     H47925   4.762   6.384   6.599 -1.1235 -2.1727 -0.9228
  356MOL0     O47926  10.210   6.314   6.471 -0.1435  0.4057 -0.5791
  356MOL0     C47927  10.291   6.235   6.423 -0.2560 -1.4129  1.0753
  356MOL0     O47928  10.420   6.245   6.450 -0.6006 -0.6894 -0.1443
  356MOL0     C47929  10.469   6.329   6.542 -0.4337  0.1033 -0.2224
  356MOL0     C47930  10.410   6.399   6.659  0.2973 -0.1300 -0.0073
  356MOL0     C47931  10.486   6.454   6.766  0.4602 -0.2751 -0.1322
  356MOL0     C47932  10.627   6.443   6.756 -0.1015  0.1649  0.6191
  356MOL0     O47933  10.727   6.486   6.838 -0.7836 -0.1769 -0.3646
  356MOL0     C47934  10.683   6.570   6.940 -0.2335 -0.2043 -0.5164
  356MOL0     C47935  10.803   6.627   7.017 -0.2878 -0.2711 -0.1090
  356MOL0     C47936  10.775   6.716   7.141 -0.0129 -0.4588  0.3784
  356MOL0     C47937  10.909   6.782   7.192 -0.3354  0.9658  0.3438
  356MOL0     C47938  10.890   6.861   7.323  0.6532  0.0263  0.4778
  356MOL0     C47939  11.023   6.932   7.348 -0.2357  1.1271  0.2875
  356MOL0     C47940  11.019   7.019   7.476  0.8895  0.5900 -0.9856
  356MOL0     C47941  11.155   7.077   7.537  0.0865  0.3472  0.5906
  356MOL0     N47942  11.220   7.169   7.433  0.0234 -0.8336  0.7417
  356MOL0     C47943  11.312   7.144   7.337 -0.1454 -0.3543  0.2073
  356MOL0     C47944  11.337   7.260   7.278 -0.1724 -0.3050  0.5604
  356MOL0     C47945  11.452   7.282   7.175  0.6823  0.1181  0.8768
  356MOL0     C47946  11.593   7.268   7.227  0.3545  0.1315 -0.2990
  356MOL0     C47947  11.705   7.313   7.124 -0.4854  0.4991 -0.6539
  356MOL0     C47948  11.752   7.192   7.034 -0.3193  0.8917 -0.3194
  356MOL0     O47949  11.865   7.107   7.088 -0.0346 -0.1234 -0.6434
  356MOL0     C47950  11.982   7.169   7.111  0.3618  0.2724 -0.5434
  356MOL0     C47951  12.061   7.107   7.206 -0.3943  0.3337  0.7848
  356MOL0     C47952  12.187   7.161   7.236 -0.6265  0.6087  0.5260
  356MOL0     C47953  12.231   7.279   7.166 -0.0684  0.3522 -0.4476
  356MOL0     C47954  12.367   7.329   7.203  0.4847  0.3475  0.8502
  356MOL0     O47955  12.421   7.268   7.308 -0.4459  0.2723 -0.0517
  356MOL0     C47956  12.547   7.302   7.362 -0.5386  1.0706  0.1957
  356MOL0     C47957  12.601   7.431   7.384  0.1772  0.2461  0.3773
  356MOL0     C47958  12.719   7.445   7.453  0.0946 -0.1103 -0.0281
  356MOL0     C47959  12.785   7.335   7.500 -0.3364  0.1878 -0.0730
  356MOL0     O47960  12.901   7.356   7.575  0.0258 -0.0661 -0.6354
  356MOL0     C47961  13.007   7.430   7.517  0.3076  0.3093  0.2665
  356MOL0     C47962  13.131   7.363   7.600  0.4687 -0.1244  0.2317
  356MOL0     C47963  13.127   7.205   7.594  0.2315 -0.0600 -0.3240
  356MOL0     C47964  13.256   7.136   7.648  0.1131  1.1076 -0.1159
  356MOL0     C47965  13.245   6.988   7.628  0.1696 -0.1198 -0.4097
  356MOL0     C47966  13.359   6.911   7.693  1.0855  1.1843  0.1110
  356MOL0     C47967  13.321   6.757   7.704 -1.0222  0.5561  0.1340
  356MOL0     C47968  13.440   6.678   7.746 -0.4367 -0.3146 -0.5688
  356MOL0    Cl47969  13.529   6.773   7.884 -0.3040 -0.0858 -0.0749
  356MOL0     C47970  12.730   7.211   7.499  1.0178  0.4567 -0.4884
  356MOL0     C47971  12.614   7.197   7.424  0.2030  0.0691 -0.3662
  356MOL0     O47972  12.413   7.419   7.133  0.1700  0.0094  0.6809
  356MOL0     C47973  12.141   7.347   7.084 -0.6436  0.0521  0.7536
  356MOL0     C47974  12.020   7.289   7.055  1.0839  0.2163  0.2630
  356MOL0     N47975  11.270   7.361   7.345 -0.0832 -0.7359 -0.6201
  356MOL0     N47976  11.191   7.304   7.434  0.2550 -0.2990 -0.3215
  356MOL0     C47977  10.678   6.372   6.647  0.3446  0.4618 -0.1903
  356MOL0     C47978  10.603   6.324   6.536  0.4985 -0.1300 -0.8688
  356MOL0     C47979  10.244   6.152   6.305 -0.5563 -0.2074  0.3910
  356MOL0     C47980  10.102   6.132   6.290 -0.3889 -0.2768  0.2657
  356MOL0     C47981  10.051   6.054   6.188  0.8923 -0.0419 -0.4752
  356MOL0     C47982  10.131   6.014   6.089 -0.0467 -0.4637  0.4538
  356MOL0     O47983  10.099   5.958   5.970 -0.2394 -0.3200  0.9321
  356MOL0     C47984   9.976   6.000   5.901 -0.2055  0.6365 -0.1294
  356MOL0     C47985   9.927   5.889   5.804  0.3170 -0.5754 -1.0452
  356MOL0     C47986  10.026   5.874   5.686  0.0859 -0.3848 -0.2091
  356MOL0     C47987   9.986   5.757   5.599 -0.0557  0.1463  0.0071
  356MOL0     C47988   9.872   5.795   5.513 -0.4626  0.0460 -0.2999
  356MOL0     C47989   9.776   5.816   5.448  0.9158 -0.5453 -0.3680
  356MOL0     C47990  10.270   6.033   6.100 -1.1853 -0.2801  0.3917
  356MOL0     C47991  10.326   6.082   6.217 -0.2744  0.8488 -0.5509
  356MOL0     C47992  10.474   6.057   6.248  0.4308 -0.2894  0.4561
  356MOL0     H47993  10.302   6.402   6.666  0.2750 -2.5462  2.9105
  356MOL0     H47994  10.426   6.491   6.848  1.3328  0.3475  0.2371
  356MOL0     H47995  10.627   6.652   6.895 -5.2018 -2.6123  0.5057
  356MOL0     H47996  10.616   6.509   7.001 -1.7070 -0.3973 -2.2264
  356MOL0     H47997  10.853   6.688   6.941  1.2006  0.1329  1.1298
  356MOL0     H47998  10.863   6.542   7.051  1.3963  0.8090 -0.2029
  356MOL0     H47999  10.750   6.653   7.227 -2.6864 -0.4481 -0.3123
  356MOL0     H48000  10.697   6.792   7.131  0.8140  0.2369 -1.1823
  356MOL0     H48001  10.988   6.710   7.212 -0.4323  1.2978  2.0626
  356MOL0     H48002  10.942   6.857   7.119  1.4650  2.2633  2.3802
  356MOL0     H48003  10.808   6.933   7.315  0.1840 -0.2253  2.5985
  356MOL0     H48004  10.861   6.781   7.392  3.6448  0.9702  3.0491
  356MOL0     H48005  11.101   6.855   7.355 -2.7383 -1.7498 -1.3125
  356MOL0     H48006  11.052   6.987   7.258  1.0464  0.2848  0.1560
  356MOL0     H48007  10.951   6.980   7.552  0.5254  3.2437  0.1521
  356MOL0     H48008  10.973   7.114   7.450 -0.3755 -0.0011 -0.9996
  356MOL0     H48009  11.137   7.125   7.634  1.6915 -2.0887  2.2308
  356MOL0     H48010  11.227   6.995   7.543  2.2848  1.8781 -2.2483
  356MOL0     H48011  11.364   7.053   7.309  0.7431 -0.7802  2.9922
  356MOL0     H48012  11.444   7.210   7.093  0.3009  0.0530  0.9705
  356MOL0     H48013  11.446   7.382   7.131 -0.7187  0.6068  2.1126
  356MOL0     H48014  11.599   7.335   7.313  2.5256 -1.7933  1.1422
  356MOL0     H48015  11.621   7.167   7.257  0.2303 -0.4451 -1.9957
  356MOL0     H48016  11.792   7.354   7.176  0.1654 -1.6994  0.0961
  356MOL0     H48017  11.668   7.393   7.059  1.2895  1.6333 -0.3411
  356MOL0     H48018  11.773   7.227   6.933 -3.1832  1.5724 -0.7656
  356MOL0     H48019  11.667   7.123   7.030 -1.2724  2.0916 -1.4478
  356MOL0     H48020  12.017   7.022   7.256  1.3843 -1.3017 -0.3193
  356MOL0     H48021  12.246   7.107   7.310 -0.5801  1.0250  0.7944
  356MOL0     H48022  12.559   7.512   7.325 -0.0947 -0.8230 -0.9759
  356MOL0     H48023  12.765   7.539   7.481  0.2754 -0.7209  1.8947
  356MOL0     H48024  13.036   7.406   7.415  0.4260 -1.6963  0.7239
  356MOL0     H48025  12.994   7.538   7.533 -4.3039 -0.2294  1.6613
  356MOL0     H48026  13.226   7.392   7.555 -0.7458  0.9883 -1.7601
  356MOL0     H48027  13.132   7.399   7.703  0.0050 -2.7358  1.2302
  356MOL0     H48028  13.046   7.169   7.658  1.7377 -2.0494  0.5720
  356MOL0     H48029  13.110   7.183   7.488  1.6154  2.2746 -1.0978
  356MOL0     H48030  13.281   7.148   7.753  1.3776 -0.4254 -0.2113
  356MOL0     H48031  13.341   7.174   7.590  1.5183 -3.8857 -1.9138
  356MOL0     H48032  13.239   6.971   7.520  1.5003  2.2994 -0.9555
  356MOL0     H48033  13.156   6.960   7.684 -0.4117  3.0137  0.4292
  356MOL0     H48034  13.457   6.926   7.647  0.5521  2.2722 -0.7499
  356MOL0     H48035  13.369   6.937   7.798  1.7965  0.5493  0.1979
  356MOL0     H48036  13.291   6.719   7.606  0.5763  1.8632 -0.9052
  356MOL0     H48037  13.243   6.751   7.780  2.1594 -1.1961  3.6085
  356MOL0     H48038  13.403   6.583   7.786 -2.0995  0.5642  0.0437
  356MOL0     H48039  13.511   6.652   7.667  0.2700 -1.1107  0.3016
  356MOL0     H48040  12.784   7.128   7.543  1.5853  1.5931  1.0529
  356MOL0     H48041  12.568   7.100   7.406 -1.0091  0.4196  0.7739
  356MOL0     H48042  12.182   7.426   7.022  0.7964  0.2162  1.8426
  356MOL0     H48043  11.964   7.339   6.977  0.7414  2.7519  1.9792
  356MOL0     H48044  10.786   6.383   6.642  0.1407  3.0697  0.0845
  356MOL0     H48045  10.659   6.283   6.452 -1.1233 -4.0519 -0.2855
  356MOL0     H48046  10.034   6.169   6.366  2.4176  1.6159  2.0195
  356MOL0     H48047   9.943   6.046   6.176  0.9534  2.0474 -3.4049
  356MOL0     H48048  10.000   6.088   5.840  0.4587  2.3498  2.3833
  356MOL0     H48049   9.896   6.019   5.973  1.0502  1.2601  1.1781
  356MOL0     H48050   9.828   5.920   5.770  0.0376  1.2657  1.1746
  356MOL0     H48051   9.905   5.793   5.852 -6.5769 -0.0567 -2.1535
  356MOL0     H48052  10.123   5.857   5.735 -1.4185 -1.7070  2.5618
  356MOL0     H48053  10.036   5.963   5.624 -1.9176 -0.9639 -1.4631
  356MOL0     H48054  10.061   5.722   5.527 -1.1579 -0.3189 -0.9409
  356MOL0     H48055   9.952   5.670   5.655  0.8367 -1.4821 -1.8650
  356MOL0     H48056   9.684   5.828   5.394  1.2697 -1.7086 -1.2678
  356MOL0     H48057  10.339   6.004   6.021  0.7580  1.1200  1.4933
  356MOL0     H48058  10.471   6.002   6.342  1.2438  0.2929  0.8324
  356MOL0     H48059  10.531   6.010   6.167 -0.5896  0.5163 -0.7686
  356MOL0     H48060  10.511   6.159   6.259 -0.9198  0.4463 -1.3469
  357MOL0     O48061   0.501  11.147   2.987  0.5807 -0.3428 -0.1559
  357MOL0     C48062   0.426  11.082   3.056  0.5884 -0.9716 -0.0620
  357MOL0     O48063   0.366  10.962   3.016 -0.1985 -0.1708  0.0424
  357MOL0     C48064   0.417  10.906   2.902  0.8091 -0.3863 -0.2567
  357MOL0     C48065   0.458  10.772   2.906 -0.5782  0.6510 -0.3399
  357MOL0     C48066   0.509  10.713   2.785  0.2609  0.4881 -0.3726
  357MOL0     C48067   0.494  10.781   2.661 -0.2679 -0.2634  0.0086
  357MOL0     O48068   0.510  10.731   2.539  0.1592 -0.1063  0.0245
  357MOL0     C48069   0.534  10.592   2.515  0.5904 -0.0089  0.5475
  357MOL0     C48070   0.434  10.483   2.556  0.4127 -0.2827 -1.2868
  357MOL0     C48071   0.515  10.360   2.573 -0.1700  0.1622  0.4437
  357MOL0     C48072   0.429  10.236   2.603  0.9197 -0.9601 -0.4097
  357MOL0     C48073   0.496  10.102   2.589  0.2061 -0.3160 -0.0225
  357MOL0     C48074   0.536  10.080   2.448  0.3060 -0.0141 -0.4474
  357MOL0     C48075   0.432  10.091   2.339  0.3725  0.7495  0.8949
  357MOL0     C48076   0.485  10.061   2.197 -0.3167  0.5612 -0.2298
  357MOL0     N48077   0.511   9.916   2.182  0.0954 -0.2784 -0.6606
  357MOL0     C48078   0.435   9.840   2.098  0.3840  0.5460 -0.4435
  357MOL0     C48079   0.491   9.712   2.098 -0.5719 -0.6136  0.3364
  357MOL0     C48080   0.447   9.596   2.021  1.1486 -0.2644 -0.4906
  357MOL0     C48081   0.566   9.509   2.007 -0.4884 -0.1027 -0.6367
  357MOL0     C48082   0.533   9.386   1.921 -0.2230 -0.5569 -0.1881
  357MOL0     C48083   0.653   9.291   1.915  0.1073 -0.0162 -0.1565
  357MOL0     O48084   0.630   9.184   1.819 -0.6602  0.8073 -0.0728
  357MOL0     C48085   0.648   9.209   1.688 -0.5197  0.1820 -0.4235
  357MOL0     C48086   0.712   9.316   1.625 -0.0435 -0.0099  0.3975
  357MOL0     C48087   0.734   9.336   1.487 -0.1433  0.7597  0.0407
  357MOL0     C48088   0.675   9.240   1.403 -0.9055 -0.0170  0.7687
  357MOL0     C48089   0.688   9.252   1.253 -0.7822  0.9559 -0.3620
  357MOL0     O48090   0.676   9.132   1.174 -0.9102 -0.2052 -0.2542
  357MOL0     C48091   0.722   9.148   1.045  0.5784 -0.3477  0.8369
  357MOL0     C48092   0.858   9.137   1.014 -0.9352  0.1924 -1.1113
  357MOL0     C48093   0.899   9.137   0.880 -0.4922  0.0682 -0.6659
  357MOL0     C48094   0.807   9.152   0.782 -0.3732 -0.7899  0.5492
  357MOL0     O48095   0.840   9.165   0.645  0.1498 -0.1728 -0.0688
  357MOL0     C48096   0.977   9.196   0.614  0.0779  0.2580 -0.2824
  357MOL0     C48097   0.988   9.299   0.504  0.0955  0.2147 -0.7053
  357MOL0     C48098   0.887   9.266   0.391 -0.7449 -0.1441  0.6647
  357MOL0     C48099   0.926   9.322   0.263  0.1656  0.2995  0.2220
  357MOL0     C48100   0.825   9.301   0.148  0.8117  0.7899 -0.1104
  357MOL0     C48101   0.807   9.157   0.117  0.3148  0.0013 -0.0778
  357MOL0     C48102   0.706   9.138  -0.001  0.4820  0.0422  0.9752
  357MOL0     C48103   0.707   9.221  -0.132 -0.9383 -0.0952 -0.1806
  357MOL0    Cl48104   0.864   9.198  -0.220  0.2848  0.7239  0.4314
  357MOL0     C48105   0.674   9.161   0.813  0.0679  0.1247  0.5996
  357MOL0     C48106   0.626   9.147   0.938  0.2894 -0.8128 -0.0495
  357MOL0     O48107   0.720   9.358   1.207  0.6252 -0.7778  0.2571
  357MOL0     C48108   0.611   9.128   1.458 -0.7213  0.0844  0.3216
  357MOL0     C48109   0.596   9.109   1.596 -0.6168 -0.0542 -0.9839
  357MOL0     N48110   0.603   9.718   2.181 -0.6591 -0.6681  0.6474
  357MOL0     N48111   0.617   9.846   2.232 -1.0465  0.4482  0.8680
  357MOL0     C48112   0.446  10.909   2.671 -1.0989 -0.0487 -0.4018
  357MOL0     C48113   0.413  10.970   2.787  0.6596  0.4141 -0.3985
  357MOL0     C48114   0.406  11.140   3.194 -0.2795  0.0110  0.3067
  357MOL0     C48115   0.407  11.275   3.211  0.3915 -0.0469  0.1215
  357MOL0     C48116   0.399  11.332   3.338 -0.1231 -0.5698  0.3744
  357MOL0     C48117   0.410  11.253   3.446 -0.7216 -0.0003  0.0159
  357MOL0     O48118   0.417  11.307   3.576  0.3115  0.0759  0.7704
  357MOL0     C48119   0.539  11.370   3.599  0.3742  0.6742 -0.2151
  357MOL0     C48120   0.566  11.361   3.750  1.3602  0.2323  0.1091
  357MOL0     C48121   0.456  11.421   3.849 -0.9108 -0.1469  1.2349
  357MOL0     C48122   0.524  11.445   3.980 -0.7592 -0.2547  0.1596
  357MOL0     C48123   0.605  11.572   3.991 -0.2296 -0.6146 -0.7950
  357MOL0     C48124   0.664  11.678   3.993 -0.5868 -0.6601 -0.4435
  357MOL0     C48125   0.404  11.113   3.439  0.0468 -0.5287 -0.0080
  357MOL0     C48126   0.403  11.054   3.310 -1.1523 -0.2278  0.3701
  357MOL0     C48127   0.412  10.906   3.305 -0.3161 -0.3210 -0.8032
  357MOL0     H48128   0.458  10.714   2.998 -0.0779 -0.9963 -1.3430
  357MOL0     H48129   0.552  10.613   2.793  2.1873  1.1812 -1.4249
  357MOL0     H48130   0.546  10.588   2.407  1.0035 -0.3108  0.6019
  357MOL0     H48131   0.626  10.571   2.569  0.6000 -0.1897  0.4623
  357MOL0     H48132   0.366  10.464   2.473 -1.1420  1.6430 -0.5495
  357MOL0     H48133   0.376  10.517   2.643  0.2897  0.0343 -1.4908
  357MOL0     H48134   0.580  10.365   2.661  1.0087  3.9788 -0.4552
  357MOL0     H48135   0.569  10.347   2.479 -1.1935 -0.5797 -0.0642
  357MOL0     H48136   0.397  10.250   2.707  1.9731 -1.1647 -0.0450
  357MOL0     H48137   0.336  10.229   2.546  0.5588 -4.3850  0.4114
  357MOL0     H48138   0.578  10.102   2.661 -0.3614 -1.0085  0.6531
  357MOL0     H48139   0.431  10.019   2.619  0.2927 -0.0878  0.8262
  357MOL0     H48140   0.614  10.156   2.434 -2.2247  2.7285 -0.7801
  357MOL0     H48141   0.583   9.981   2.450 -2.3260 -1.4281 -1.8817
  357MOL0     H48142   0.393  10.194   2.337  1.1560  1.1112  2.4807
  357MOL0     H48143   0.361  10.013   2.367  1.1231 -1.0188 -1.7725
  357MOL0     H48144   0.415  10.103   2.125 -2.7691 -2.5181  0.1310
  357MOL0     H48145   0.581  10.114   2.190 -0.1407  0.6828  2.0984
  357MOL0     H48146   0.355   9.875   2.034  0.6308  0.4845 -0.7867
  357MOL0     H48147   0.366   9.557   2.084  0.5084  0.5703 -0.7830
  357MOL0     H48148   0.407   9.611   1.921  0.4761 -3.5711 -0.8384
  357MOL0     H48149   0.654   9.561   1.967 -1.9247  0.5197 -3.2542
  357MOL0     H48150   0.594   9.470   2.105  0.5972 -1.2604 -1.3696
  357MOL0     H48151   0.510   9.416   1.819 -0.9818  0.3269  0.2235
  357MOL0     H48152   0.455   9.323   1.965 -0.7138  0.6775  0.7911
  357MOL0     H48153   0.654   9.248   2.016  3.7304  4.5260  2.1872
  357MOL0     H48154   0.747   9.338   1.884 -1.7500  1.9210 -3.4612
  357MOL0     H48155   0.770   9.392   1.676 -2.1334  0.4400  2.2401
  357MOL0     H48156   0.773   9.429   1.446 -2.7009  0.8145 -2.6780
  357MOL0     H48157   0.931   9.123   1.093  0.1709 -0.8071 -2.2563
  357MOL0     H48158   1.005   9.123   0.862 -0.3463  1.5613 -1.0740
  357MOL0     H48159   1.028   9.255   0.691 -0.9813  1.1975 -0.2705
  357MOL0     H48160   1.033   9.107   0.585  2.6926  0.6655  2.8975
  357MOL0     H48161   0.967   9.401   0.538  0.7418 -0.4623  1.9039
  357MOL0     H48162   1.086   9.300   0.456 -0.6116  0.0482 -2.1988
  357MOL0     H48163   0.868   9.158   0.387  0.8613 -0.5656  2.7460
  357MOL0     H48164   0.789   9.308   0.416 -1.0505 -1.2321  1.3616
  357MOL0     H48165   1.021   9.285   0.222 -0.2400  0.3090 -0.7557
  357MOL0     H48166   0.935   9.430   0.272 -0.3237  0.3911 -0.3035
  357MOL0     H48167   0.871   9.351   0.063  2.6539 -1.7014 -0.7197
  357MOL0     H48168   0.726   9.340   0.170  0.0914 -1.3529  0.7968
  357MOL0     H48169   0.897   9.113   0.073 -0.3725 -0.3954 -1.1346
  357MOL0     H48170   0.789   9.092   0.203  0.4017 -1.8201 -1.3916
  357MOL0     H48171   0.610   9.156   0.049  0.3433  1.4520  0.2445
  357MOL0     H48172   0.705   9.035  -0.040 -0.5114 -0.0358  1.1727
  357MOL0     H48173   0.622   9.193  -0.196 -1.0668  0.5256 -0.2857
  357MOL0     H48174   0.686   9.324  -0.104 -1.9610 -0.8913  2.2702
  357MOL0     H48175   0.606   9.165   0.728 -0.1221 -0.2802  0.7269
  357MOL0     H48176   0.518   9.153   0.947  0.4663  3.2917  1.0539
  357MOL0     H48177   0.589   9.043   1.393  0.7424 -0.3467  0.3505
  357MOL0     H48178   0.558   9.017   1.638  1.1198 -0.0507  0.7567
  357MOL0     H48179   0.450  10.964   2.577  0.7812 -0.4565 -0.6107
  357MOL0     H48180   0.375  11.072   2.784 -0.1281  0.1740  0.7618
  357MOL0     H48181   0.399  11.344   3.127  2.2052  1.3010  0.9897
  357MOL0     H48182   0.387  11.439   3.352  0.4090 -0.3995 -0.4072
  357MOL0     H48183   0.532  11.477   3.578  0.7861  0.5259 -1.1337
  357MOL0     H48184   0.623  11.333   3.540  0.5592 -0.8788  0.9425
  357MOL0     H48185   0.662  11.407   3.772  2.1094  0.0215 -2.3744
  357MOL0     H48186   0.566  11.253   3.769 -2.6884  0.1425  0.5145
  357MOL0     H48187   0.371  11.352   3.851 -0.1372 -1.1055  2.5411
  357MOL0     H48188   0.420  11.515   3.805 -0.2527  1.0620  3.1643
  357MOL0     H48189   0.449  11.465   4.057  0.1210  3.9734  0.1185
  357MOL0     H48190   0.578  11.351   4.000 -1.1257 -0.7309 -0.9890
  357MOL0     H48191   0.716  11.772   3.994  0.3966 -1.1915  0.2075
  357MOL0     H48192   0.381  11.064   3.533  1.6086  1.8002  1.6896
  357MOL0     H48193   0.319  10.869   3.261 -1.0030 -0.8618  0.9919
  357MOL0     H48194   0.490  10.863   3.242 -2.7839 -2.2821 -2.7300
  357MOL0     H48195   0.414  10.862   3.405 -2.5639  0.5612 -0.3141
  358MOL0     O48196   7.841   2.973   0.452  0.2274  0.5321 -0.8086
  358MOL0     C48197   7.748   2.911   0.519 -0.3378  0.0088  0.6899
  358MOL0     O48198   7.759   2.873   0.650  0.4979 -0.1893  0.4465
  358MOL0     C48199   7.874   2.909   0.717 -0.2565  0.7221 -0.0962
  358MOL0     C48200   7.877   3.017   0.805 -0.0572 -0.8502 -0.0044
  358MOL0     C48201   8.000   3.046   0.875  1.6629 -1.0576  0.5974
  358MOL0     C48202   8.112   2.970   0.865 -0.3756  0.6683 -0.6839
  358MOL0     O48203   8.231   2.998   0.920  0.3198 -0.0922 -1.6575
  358MOL0     C48204   8.296   3.129   0.896 -0.8805  0.0637 -0.0864
  358MOL0     C48205   8.446   3.105   0.865 -0.0644  0.0062  0.1165
  358MOL0     C48206   8.523   3.052   0.979 -0.3259  0.1440 -0.2775
  358MOL0     C48207   8.675   3.021   0.950 -0.1313  0.2942  0.5143
  358MOL0     C48208   8.745   2.958   1.065  0.2684 -0.1402 -0.1809
  358MOL0     C48209   8.882   2.898   1.019  1.0908  0.2911  0.5768
  358MOL0     C48210   8.958   2.832   1.126  0.4439 -0.7239  0.2140
  358MOL0     C48211   9.077   2.752   1.084  0.2004  0.8055  0.2933
  358MOL0     N48212   9.032   2.618   1.021  0.3998  0.0145 -0.1802
  358MOL0     C48213   9.037   2.588   0.886  1.1193  0.3183  0.6700
  358MOL0     C48214   9.019   2.451   0.873  0.0637 -0.6879  0.4627
  358MOL0     C48215   9.019   2.373   0.743  0.1701  0.6893  0.2439
  358MOL0     C48216   8.879   2.329   0.689  0.7740  0.2173  0.5475
  358MOL0     C48217   8.885   2.231   0.573  0.1050  0.0068 -0.5948
  358MOL0     C48218   8.751   2.187   0.520 -0.1348  0.3007 -0.0004
  358MOL0     O48219   8.723   2.289   0.422  1.2906 -0.2955  0.2495
  358MOL0     C48220   8.581   2.295   0.416 -1.2189  0.4139 -0.5425
  358MOL0     C48221   8.501   2.187   0.364 -1.0795 -0.9966 -0.3957
  358MOL0     C48222   8.364   2.224   0.342  0.2514 -0.4416 -0.3712
  358MOL0     C48223   8.306   2.343   0.387  0.4793  0.5919 -0.2032
  358MOL0     C48224   8.162   2.372   0.366 -0.5674 -0.3497  0.1374
  358MOL0     O48225   8.091   2.271   0.296  0.1425  0.2510 -0.0263
  358MOL0     C48226   7.959   2.298   0.293  0.2061 -0.3761 -0.0260
  358MOL0     C48227   7.890   2.358   0.185 -0.7111 -0.6111 -0.4600
  358MOL0     C48228   7.752   2.396   0.193  0.3166 -0.8014 -0.0212
  358MOL0     C48229   7.670   2.359   0.304 -0.0617  0.4573 -0.6041
  358MOL0     O48230   7.539   2.396   0.312  0.2373 -0.7382  0.0371
  358MOL0     C48231   7.454   2.374   0.197 -0.4623  0.3004 -0.4237
  358MOL0     C48232   7.444   2.230   0.147 -0.9931 -0.0461  0.4332
  358MOL0     C48233   7.338   2.162   0.236 -0.8940 -0.2889  0.0346
  358MOL0     C48234   7.373   2.020   0.270  1.1800  0.6564 -0.0273
  358MOL0     C48235   7.285   1.961   0.379  0.0269 -0.2288 -0.3297
  358MOL0     C48236   7.331   1.821   0.420  0.7265  0.6158  1.0082
  358MOL0     C48237   7.438   1.822   0.527 -0.1694  0.3970  0.0641
  358MOL0     C48238   7.490   1.688   0.583 -0.0280  0.3488  0.7423
  358MOL0    Cl48239   7.552   1.591   0.442  0.6272  0.8027  0.4957
  358MOL0     C48240   7.740   2.305   0.415 -0.4038 -0.1129 -0.5115
  358MOL0     C48241   7.883   2.273   0.406  0.4213  0.4981  0.7281
  358MOL0     O48242   8.119   2.482   0.405  0.3199 -0.7653  0.2668
  358MOL0     C48243   8.387   2.435   0.446  0.3220 -0.3626  0.1490
  358MOL0     C48244   8.527   2.416   0.461  0.1564  0.2496 -0.8610
  358MOL0     N48245   9.004   2.406   1.003  0.8248 -0.9410 -0.2520
  358MOL0     N48246   9.004   2.503   1.084 -0.2358 -1.1450 -1.4163
  358MOL0     C48247   8.118   2.865   0.780  0.5105  0.4137  1.0250
  358MOL0     C48248   7.996   2.842   0.702 -0.1937  1.0194  0.9764
  358MOL0     C48249   7.653   2.848   0.431 -0.7490  0.4582  0.2908
  358MOL0     C48250   7.702   2.795   0.313 -0.7149  0.5625 -0.5049
  358MOL0     C48251   7.608   2.744   0.219 -0.0456  0.3809 -0.3096
  358MOL0     C48252   7.473   2.754   0.245  0.1770  0.5741  0.0902
  358MOL0     O48253   7.397   2.692   0.149  0.0095 -0.0164  0.0257
  358MOL0     C48254   7.258   2.670   0.176 -0.1224 -0.0637  0.0500
  358MOL0     C48255   7.191   2.594   0.056 -0.6240  0.4146  0.4679
  358MOL0     C48256   7.196   2.694  -0.062 -0.3489  0.6917  0.1615
  358MOL0     C48257   7.106   2.635  -0.167  1.2691  0.3043  0.3657
  358MOL0     C48258   7.140   2.696  -0.296 -0.2478 -1.0390  0.1163
  358MOL0     C48259   7.159   2.749  -0.401 -0.3090  0.7749 -0.5454
  358MOL0     C48260   7.432   2.822   0.358  0.4767 -0.0242  0.4260
  358MOL0     C48261   7.520   2.868   0.458 -0.2678 -1.1281 -0.4635
  358MOL0     C48262   7.467   2.934   0.581  0.8568 -0.6558 -0.2017
  358MOL0     H48263   7.813   3.105   0.794  2.9554  1.4867 -0.3174
  358MOL0     H48264   8.003   3.140   0.929 -2.1472 -0.4946  0.1569
  358MOL0     H48265   8.248   3.158   0.802 -5.4717 -2.3810  1.1710
  358MOL0     H48266   8.291   3.202   0.977  0.2516 -0.2151  0.2453
  358MOL0     H48267   8.475   3.206   0.834  0.8271  0.0933  1.1996
  358MOL0     H48268   8.458   3.033   0.783 -0.4554 -0.3866  0.3977
  358MOL0     H48269   8.473   2.974   1.038 -0.1081  0.1520 -0.0810
  358MOL0     H48270   8.524   3.131   1.055  1.2835  0.3534 -0.4847
  358MOL0     H48271   8.677   2.949   0.868 -2.4999  3.2038 -2.3550
  358MOL0     H48272   8.727   3.111   0.918  0.5217 -0.7156 -1.4424
  358MOL0     H48273   8.753   3.032   1.146 -6.2751  2.9237 -1.6427
  358MOL0     H48274   8.691   2.871   1.104  0.4556 -1.4180 -2.6004
  358MOL0     H48275   8.859   2.821   0.945  3.3984 -0.7830  0.9044
  358MOL0     H48276   8.944   2.973   0.969  2.6746  0.4638  2.6578
  358MOL0     H48277   8.889   2.763   1.175 -0.9250  1.8921  2.1529
  358MOL0     H48278   8.981   2.904   1.205  0.0677 -3.1888  2.7265
  358MOL0     H48279   9.128   2.815   1.011 -1.6673  2.3751  0.2533
  358MOL0     H48280   9.136   2.730   1.173 -0.1230  1.5320  0.6951
  358MOL0     H48281   9.050   2.659   0.805 -2.3308 -1.3412 -1.5843
  358MOL0     H48282   9.074   2.429   0.667 -1.7059  0.6900 -1.1628
  358MOL0     H48283   9.064   2.276   0.767 -2.2867 -0.3110  1.1405
  358MOL0     H48284   8.830   2.284   0.776  0.0960  0.3899  0.2650
  358MOL0     H48285   8.821   2.416   0.657  0.0908 -0.7516 -0.9532
  358MOL0     H48286   8.934   2.145   0.619  1.3160  1.2094  0.4385
  358MOL0     H48287   8.947   2.265   0.490  1.3615 -2.0760 -0.5859
  358MOL0     H48288   8.677   2.164   0.597 -0.7206 -3.0135 -1.4047
  358MOL0     H48289   8.756   2.088   0.474 -1.1400  0.1840  0.1238
  358MOL0     H48290   8.547   2.096   0.326  0.0525 -0.4212 -0.4368
  358MOL0     H48291   8.301   2.147   0.297 -1.3292 -0.7700  2.1988
  358MOL0     H48292   7.944   2.380   0.093  0.2695  2.2212  0.6851
  358MOL0     H48293   7.715   2.454   0.109 -0.3398  0.0446  0.8316
  358MOL0     H48294   7.356   2.420   0.215  1.1656  4.1747 -0.5821
  358MOL0     H48295   7.499   2.437   0.120 -0.6524 -1.6342 -2.2169
  358MOL0     H48296   7.410   2.229   0.043 -1.4798  2.1648  0.5260
  358MOL0     H48297   7.540   2.179   0.130  0.3233  2.7613 -1.3042
  358MOL0     H48298   7.323   2.208   0.334 -0.4454 -1.7910  0.8360
  358MOL0     H48299   7.251   2.175   0.170  0.3258  0.8888 -1.4200
  358MOL0     H48300   7.474   2.025   0.311 -0.4236  0.4031  4.4704
  358MOL0     H48301   7.363   1.958   0.180 -3.4815  0.2011  0.5640
  358MOL0     H48302   7.179   1.954   0.351 -0.2892 -2.9188  1.1611
  358MOL0     H48303   7.286   2.034   0.460  0.4439  1.0607 -1.4599
  358MOL0     H48304   7.240   1.767   0.449  0.6520  0.0533 -0.2409
  358MOL0     H48305   7.377   1.763   0.340  0.5187 -0.6501  1.7831
  358MOL0     H48306   7.399   1.885   0.607  1.0065  0.6158  0.4795
  358MOL0     H48307   7.521   1.876   0.480 -1.2646  0.2767 -2.1798
  358MOL0     H48308   7.567   1.700   0.660  0.7181 -0.2175  0.1130
  358MOL0     H48309   7.415   1.624   0.629 -1.2998 -1.5228 -3.4212
  358MOL0     H48310   7.685   2.282   0.505  0.9811  0.8876  0.6441
  358MOL0     H48311   7.936   2.232   0.491  0.6207  1.4388  1.0711
  358MOL0     H48312   8.338   2.528   0.473  1.5520  0.5794 -0.7662
  358MOL0     H48313   8.581   2.498   0.508  1.3609 -1.5004  0.9729
  358MOL0     H48314   8.204   2.802   0.761 -1.3441 -1.6554 -1.0385
  358MOL0     H48315   8.011   2.757   0.636 -1.5271 -0.4973  2.5617
  358MOL0     H48316   7.806   2.773   0.290 -0.6619  0.7621 -0.4592
  358MOL0     H48317   7.637   2.693   0.127  0.5222 -1.7261  0.9587
  358MOL0     H48318   7.217   2.764   0.214 -0.2673 -0.8905  2.0356
  358MOL0     H48319   7.254   2.603   0.262 -1.2055 -2.5508 -1.7939
  358MOL0     H48320   7.091   2.553   0.071 -0.5870 -0.9744 -2.4443
  358MOL0     H48321   7.236   2.498   0.028 -1.1540  0.8136 -1.9671
  358MOL0     H48322   7.299   2.706  -0.098 -1.0727 -2.4886 -3.5409
  358MOL0     H48323   7.148   2.788  -0.033 -2.4921 -0.5562  0.9161
  358MOL0     H48324   7.127   2.529  -0.183  0.5811  0.2249 -0.0238
  358MOL0     H48325   7.001   2.654  -0.143  0.5470 -1.3985 -1.2015
  358MOL0     H48326   7.183   2.805  -0.490 -1.9091  0.4632 -1.2017
  358MOL0     H48327   7.328   2.843   0.377  0.8641  4.8204 -1.5074
  358MOL0     H48328   7.482   2.864   0.663  2.7509 -0.4716 -0.3497
  358MOL0     H48329   7.523   3.025   0.602 -1.0256  0.1347  1.7033
  358MOL0     H48330   7.359   2.947   0.571  0.9650  0.1567 -0.3755
  359MOL0     O48331   4.381   7.238   6.307  0.8282  0.4002 -0.4209
  359MOL0     C48332   4.282   7.216   6.235  0.2203 -0.5711  0.1845
  359MOL0     O48333   4.154   7.234   6.268  0.4192 -0.2665 -0.4837
  359MOL0     C48334   4.142   7.286   6.393  0.8078  0.3339 -0.0902
  359MOL0     C48335   4.179   7.413   6.419  0.1478  0.6661 -0.6116
  359MOL0     C48336   4.141   7.476   6.540  0.0603  0.1062 -1.0572
  359MOL0     C48337   4.065   7.405   6.638  0.5962 -0.6617  0.1638
  359MOL0     O48338   4.037   7.475   6.754  0.2577 -0.2223 -0.2979
  359MOL0     C48339   3.958   7.427   6.860  0.2470 -0.0184  0.5808
  359MOL0     C48340   3.812   7.434   6.822  0.6415  0.1325 -0.0154
  359MOL0     C48341   3.718   7.389   6.934  0.0716 -0.9948 -0.4990
  359MOL0     C48342   3.677   7.241   6.908  0.5585 -0.2518  0.4441
  359MOL0     C48343   3.557   7.207   7.007  0.5761  0.2135 -0.0326
  359MOL0     C48344   3.603   7.196   7.155 -0.3578 -0.0744  0.4421
  359MOL0     C48345   3.481   7.173   7.237 -0.0289 -0.6025 -0.0262
  359MOL0     C48346   3.519   7.143   7.377  0.4235  0.4647 -0.3511
  359MOL0     N48347   3.396   7.155   7.468  0.3042  0.7296 -0.4380
  359MOL0     C48348   3.278   7.078   7.453  0.2285  0.1039  0.9899
  359MOL0     C48349   3.199   7.112   7.553  1.6097  1.1416  0.6434
  359MOL0     C48350   3.063   7.054   7.577  0.4280 -0.8595  0.4921
  359MOL0     C48351   3.021   7.047   7.722 -0.7884 -0.2117 -0.6105
  359MOL0     C48352   2.885   6.998   7.736  0.2291  0.6357  0.5729
  359MOL0     C48353   2.830   7.007   7.879  0.5420 -0.7691 -0.1165
  359MOL0     O48354   2.687   6.977   7.861  0.4475  0.0344 -0.6904
  359MOL0     C48355   2.604   6.972   7.967 -0.4090  0.4245 -0.8056
  359MOL0     C48356   2.644   6.992   8.106 -0.6069 -0.7734 -0.1903
  359MOL0     C48357   2.562   6.956   8.208 -0.4352 -0.0278  0.5701
  359MOL0     C48358   2.433   6.900   8.181  0.0979 -0.2562 -0.3583
  359MOL0     C48359   2.345   6.861   8.291 -0.0468  0.4719 -0.1614
  359MOL0     O48360   2.387   6.894   8.418 -0.2357  0.0534  0.9156
  359MOL0     C48361   2.302   6.869   8.524 -0.2521 -0.3566 -0.6063
  359MOL0     C48362   2.278   6.742   8.573  0.4115  0.4104  0.7335
  359MOL0     C48363   2.210   6.719   8.688  1.0323 -0.3211 -0.4274
  359MOL0     C48364   2.146   6.828   8.755 -0.4616 -0.5187  0.3076
  359MOL0     O48365   2.070   6.796   8.857  0.4177  1.2267 -0.8015
  359MOL0     C48366   1.981   6.882   8.921 -0.0064 -0.3727 -0.5606
  359MOL0     C48367   1.893   6.812   9.022  0.1362  0.6353 -0.3547
  359MOL0     C48368   1.970   6.746   9.127 -0.7344  0.7264 -0.5233
  359MOL0     C48369   2.053   6.836   9.215  0.4326 -1.1424  0.0071
  359MOL0     C48370   2.113   6.743   9.326  0.9567 -0.9636  0.0311
  359MOL0     C48371   2.146   6.840   9.448  0.2071  0.0215 -0.6254
  359MOL0     C48372   2.271   6.927   9.400 -0.3049 -0.2522 -0.9561
  359MOL0     C48373   2.279   7.037   9.497 -1.0084 -1.0899 -0.0264
  359MOL0    Cl48374   2.127   7.124   9.510  0.1745  0.2276  0.0262
  359MOL0     C48375   2.161   6.955   8.697  0.3674 -0.8337 -0.2935
  359MOL0     C48376   2.249   6.981   8.595 -0.3725  0.1834 -0.0784
  359MOL0     O48377   2.243   6.801   8.265 -0.0761 -0.4844  0.2272
  359MOL0     C48378   2.394   6.890   8.047  0.2797 -0.7207  0.7203
  359MOL0     C48379   2.479   6.925   7.938 -0.1027 -0.0619 -0.3721
  359MOL0     N48380   3.270   7.201   7.628 -0.3668 -0.7521 -0.1712
  359MOL0     N48381   3.387   7.226   7.579  0.3118 -0.2814  0.0678
  359MOL0     C48382   4.025   7.278   6.611 -0.5394 -0.0557 -0.1448
  359MOL0     C48383   4.059   7.229   6.494  0.3545  0.2005 -0.2373
  359MOL0     C48384   4.304   7.162   6.093  0.4339 -1.0104 -0.2224
  359MOL0     C48385   4.192   7.160   6.011 -0.5468  0.4381  0.2107
  359MOL0     C48386   4.193   7.125   5.881 -0.2532  0.6332  0.0327
  359MOL0     C48387   4.315   7.112   5.813 -0.5141  0.5228 -0.8517
  359MOL0     O48388   4.336   7.107   5.675 -0.3050 -0.0535  0.2784
  359MOL0     C48389   4.207   7.082   5.604  0.4550  0.6031 -0.2776
  359MOL0     C48390   4.238   7.018   5.461 -1.6469 -0.0239  0.4963
  359MOL0     C48391   4.104   6.982   5.393  0.3117 -0.5689  0.6804
  359MOL0     C48392   4.121   6.908   5.262  0.1889  1.0829 -0.1757
  359MOL0     C48393   4.164   6.996   5.153 -0.8839 -0.2393 -0.3617
  359MOL0     C48394   4.211   7.074   5.078 -0.3215  0.0336 -0.5467
  359MOL0     C48395   4.433   7.110   5.894  0.6824  0.7776  0.7129
  359MOL0     C48396   4.423   7.127   6.031  0.0925 -0.4427  0.3111
  359MOL0     C48397   4.553   7.120   6.103 -0.0336  0.6492 -0.4005
  359MOL0     H48398   4.240   7.471   6.351 -1.2699  4.0258  0.7617
  359MOL0     H48399   4.179   7.574   6.566  5.5277 -1.3310 -2.3430
  359MOL0     H48400   3.973   7.322   6.886 -0.9213 -0.2877  0.2495
  359MOL0     H48401   3.995   7.482   6.946 -0.5121 -1.6076  1.9833
  359MOL0     H48402   3.788   7.384   6.728 -0.5074  0.5453  0.0457
  359MOL0     H48403   3.802   7.541   6.805  1.7314  0.1270 -0.7785
  359MOL0     H48404   3.624   7.441   6.916 -1.6862 -3.3054  1.2605
  359MOL0     H48405   3.762   7.403   7.034  2.5600 -3.1361 -1.1719
  359MOL0     H48406   3.635   7.236   6.807 -0.7730 -0.4050  0.9903
  359MOL0     H48407   3.760   7.169   6.914  0.6032 -0.1312  1.3629
  359MOL0     H48408   3.492   7.295   7.009  2.7909  1.9750 -0.9922
  359MOL0     H48409   3.510   7.109   6.993  1.1833 -0.1066  0.1677
  359MOL0     H48410   3.671   7.111   7.168 -3.1827 -2.5402  0.0132
  359MOL0     H48411   3.650   7.291   7.182  1.9854 -1.3266  1.0871
  359MOL0     H48412   3.417   7.090   7.205  1.5547 -1.7332 -0.3440
  359MOL0     H48413   3.426   7.268   7.234 -1.1903 -1.2767 -1.4520
  359MOL0     H48414   3.554   7.039   7.381 -1.8383 -0.8955 -5.9749
  359MOL0     H48415   3.595   7.207   7.424 -0.5878  0.5035  1.3017
  359MOL0     H48416   3.262   7.001   7.377 -1.2172  1.7415 -0.4730
  359MOL0     H48417   3.000   7.104   7.503  1.9740 -3.5717 -2.9139
  359MOL0     H48418   3.071   6.950   7.545 -1.4319 -0.2675 -2.1836
  359MOL0     H48419   3.082   6.968   7.767  0.8760  0.0015 -2.3383
  359MOL0     H48420   3.033   7.149   7.761 -2.1635  0.1505 -1.0893
  359MOL0     H48421   2.868   6.893   7.712  0.1303 -0.1796  3.7362
  359MOL0     H48422   2.815   7.055   7.674  1.8282  0.2285 -1.7312
  359MOL0     H48423   2.826   7.107   7.922  2.2902 -0.5436 -0.4411
  359MOL0     H48424   2.887   6.935   7.938 -0.1587 -0.7442  0.6142
  359MOL0     H48425   2.744   7.031   8.121 -0.7118 -0.5650 -0.0233
  359MOL0     H48426   2.601   6.957   8.309  0.8298 -0.0102  0.0969
  359MOL0     H48427   2.316   6.649   8.532 -2.8661 -0.0156 -1.8051
  359MOL0     H48428   2.206   6.626   8.744 -1.2322  0.2175  0.4237
  359MOL0     H48429   2.045   6.958   8.967 -1.4696 -0.2379  1.3400
  359MOL0     H48430   1.924   6.938   8.846  1.5498  2.0524 -0.0362
  359MOL0     H48431   1.821   6.880   9.069  0.6400  0.7201  0.3127
  359MOL0     H48432   1.833   6.736   8.969 -1.2275  1.0511  0.5375
  359MOL0     H48433   1.906   6.680   9.186  0.4038  1.3621  1.5151
  359MOL0     H48434   2.047   6.682   9.085 -0.9571 -1.0747  1.6600
  359MOL0     H48435   1.988   6.910   9.263  0.3482 -2.1214  1.4679
  359MOL0     H48436   2.136   6.884   9.162  2.7992 -0.4346  3.9098
  359MOL0     H48437   2.205   6.695   9.292  2.3999 -0.7446  3.2614
  359MOL0     H48438   2.039   6.670   9.361 -1.0975 -0.0320 -2.1130
  359MOL0     H48439   2.051   6.891   9.467  0.6445  0.0569  1.8026
  359MOL0     H48440   2.159   6.776   9.535 -3.4357 -0.5091 -0.2842
  359MOL0     H48441   2.269   6.965   9.297  0.0058  0.2896 -0.7699
  359MOL0     H48442   2.366   6.873   9.407 -0.7322 -0.7999  1.7501
  359MOL0     H48443   2.309   6.990   9.591  0.7475  0.4494  0.2373
  359MOL0     H48444   2.365   7.103   9.479  0.0869 -2.6825 -0.9064
  359MOL0     H48445   2.107   7.038   8.742  2.9210  1.1139 -0.5473
  359MOL0     H48446   2.253   7.082   8.557  0.3118 -0.4603 -1.8362
  359MOL0     H48447   2.295   6.851   8.026 -0.0423  0.6201 -0.4194
  359MOL0     H48448   2.454   6.913   7.833 -2.9125 -1.8524  0.3886
  359MOL0     H48449   3.952   7.240   6.682  1.1449  0.9686  2.2865
  359MOL0     H48450   4.021   7.128   6.485 -3.9261  1.6877 -0.9915
  359MOL0     H48451   4.091   7.176   6.050 -2.6343 -0.0214 -4.3636
  359MOL0     H48452   4.101   7.123   5.824  0.2072 -1.6626 -0.7616
  359MOL0     H48453   4.142   7.169   5.593 -1.0227 -0.6224 -1.6934
  359MOL0     H48454   4.141   7.014   5.658 -1.6520  1.9739 -1.0086
  359MOL0     H48455   4.296   6.927   5.476 -0.4842  0.7624  0.8855
  359MOL0     H48456   4.296   7.080   5.393 -0.5381  0.7089  2.0486
  359MOL0     H48457   4.048   7.076   5.389 -2.9039 -2.2838  2.0303
  359MOL0     H48458   4.047   6.918   5.461 -2.2242 -0.1347 -0.9360
  359MOL0     H48459   4.202   6.836   5.275 -0.3250  0.8124  2.0557
  359MOL0     H48460   4.031   6.851   5.236 -1.3084  1.8079  2.8422
  359MOL0     H48461   4.246   7.151   5.012 -1.1921  0.9830  0.0805
  359MOL0     H48462   4.526   7.091   5.841  1.3978  2.0804  1.4661
  359MOL0     H48463   4.622   7.052   6.051  1.7465  2.2756 -0.2609
  359MOL0     H48464   4.596   7.221   6.101 -0.4270  0.9067  1.7617
  359MOL0     H48465   4.552   7.085   6.206  0.2541  0.8709 -0.3203
  360MOL0     O48466   9.604   1.571   1.825 -0.2734 -0.1620 -0.0936
  360MOL0     C48467   9.546   1.590   1.717  0.1127 -0.1158 -0.6733
  360MOL0     O48468   9.614   1.600   1.598 -0.4412  0.4464 -0.3934
  360MOL0     C48469   9.752   1.621   1.608 -0.2460  0.2325  0.0411
  360MOL0     C48470   9.835   1.513   1.611  1.1991  0.1440 -1.2625
  360MOL0     C48471   9.969   1.511   1.586  0.0911  0.0560  0.3792
  360MOL0     C48472  10.031   1.630   1.556 -0.1793 -1.0742  0.2462
  360MOL0     O48473  10.165   1.622   1.537 -0.6072 -1.0803 -0.2500
  360MOL0     C48474  10.223   1.727   1.450 -0.0546 -0.1170  0.5183
  360MOL0     C48475  10.340   1.670   1.364  0.5077 -0.2559 -0.5780
  360MOL0     C48476  10.445   1.583   1.441  0.5264  0.8864  0.4769
  360MOL0     C48477  10.522   1.495   1.334 -0.0835 -0.3425 -0.1627
  360MOL0     C48478  10.622   1.402   1.413  0.3107  0.3648  0.3755
  360MOL0     C48479  10.557   1.288   1.493  0.4808  0.0467 -0.4826
  360MOL0     C48480  10.652   1.172   1.548 -0.2718  0.8621 -0.2878
  360MOL0     C48481  10.734   1.227   1.666 -0.7108  0.4185 -0.5664
  360MOL0     N48482  10.868   1.282   1.627 -0.6569  0.1909 -0.0741
  360MOL0     C48483  10.977   1.199   1.604  0.0554  0.3049  0.3569
  360MOL0     C48484  11.082   1.285   1.578 -1.1272 -0.3848  0.7392
  360MOL0     C48485  11.219   1.242   1.538  0.7309 -0.9812 -0.1923
  360MOL0     C48486  11.262   1.099   1.575 -0.0886 -0.0935  0.0194
  360MOL0     C48487  11.418   1.093   1.562 -0.2154  0.9635 -0.1680
  360MOL0     C48488  11.474   0.955   1.610 -0.5167  0.0659  0.5774
  360MOL0     O48489  11.415   0.851   1.527  0.4716 -0.9894 -0.4750
  360MOL0     C48490  11.479   0.731   1.514 -0.6533 -0.8689  0.2586
  360MOL0     C48491  11.418   0.632   1.440 -0.3904  0.3803  0.3116
  360MOL0     C48492  11.459   0.495   1.431  0.9546  0.0997  0.5796
  360MOL0     C48493  11.572   0.464   1.501  0.4375  0.2720 -0.9098
  360MOL0     C48494  11.633   0.325   1.504  0.2079  0.0483 -0.0881
  360MOL0     O48495  11.592   0.236   1.411 -0.2331 -0.7350  0.3950
  360MOL0     C48496  11.683   0.139   1.369 -0.4627  0.7071 -0.9112
  360MOL0     C48497  11.646   0.005   1.359  0.8093 -0.9344  0.1806
  360MOL0     C48498  11.736  -0.094   1.321  0.6030  0.3061 -1.0546
  360MOL0     C48499  11.863  -0.060   1.294 -0.2194  0.4579 -0.4201
  360MOL0     O48500  11.945  -0.163   1.264  0.3813 -0.3038  0.3714
  360MOL0     C48501  12.082  -0.147   1.289 -0.1077 -0.4073  0.4356
  360MOL0     C48502  12.141  -0.279   1.266 -0.2371 -0.2112 -0.6816
  360MOL0     C48503  12.272  -0.318   1.341  0.4935  0.4206 -0.5809
  360MOL0     C48504  12.388  -0.230   1.305 -0.0150 -0.5407 -0.1779
  360MOL0     C48505  12.511  -0.277   1.385  0.1123  0.4257 -0.9331
  360MOL0     C48506  12.626  -0.184   1.358 -1.4630 -0.2593  0.7808
  360MOL0     C48507  12.713  -0.197   1.485 -0.2273  0.9291 -0.6376
  360MOL0     C48508  12.842  -0.118   1.477 -0.2584  0.2044  0.2814
  360MOL0    Cl48509  12.812   0.055   1.458  0.1607 -0.0502  0.2994
  360MOL0     C48510  11.902   0.071   1.283 -0.1511 -0.6157 -0.7138
  360MOL0     C48511  11.816   0.172   1.322  1.1330  0.0717  0.2096
  360MOL0     O48512  11.726   0.311   1.582  0.4412  0.0745 -0.4075
  360MOL0     C48513  11.635   0.562   1.573 -0.6209 -1.0167 -0.5646
  360MOL0     C48514  11.595   0.692   1.581  0.7598  0.7138  0.1844
  360MOL0     N48515  11.040   1.416   1.589 -0.0431  0.3351 -0.1068
  360MOL0     N48516  10.911   1.414   1.616  0.1569 -0.5690  0.4745
  360MOL0     C48517   9.947   1.748   1.545  0.3058 -0.5679 -2.1432
  360MOL0     C48518   9.807   1.743   1.574  0.0680 -0.7327 -0.3521
  360MOL0     C48519   9.391   1.601   1.726  0.3928  0.2407 -0.1013
  360MOL0     C48520   9.329   1.671   1.618  0.2383  0.2158  1.2377
  360MOL0     C48521   9.190   1.685   1.605 -0.4042 -0.0238  0.6178
  360MOL0     C48522   9.106   1.630   1.705 -0.6418 -0.1826  0.3214
  360MOL0     O48523   8.976   1.676   1.703  0.0795 -0.3793 -0.6112
  360MOL0     C48524   8.920   1.697   1.836  0.4774 -0.9021 -0.5873
  360MOL0     C48525   8.963   1.830   1.889  0.3482  0.4667 -0.1876
  360MOL0     C48526   8.914   1.863   2.031  0.1785  0.8800 -0.1815
  360MOL0     C48527   8.998   1.788   2.138  0.2365 -0.6402  0.4237
  360MOL0     C48528   8.945   1.653   2.168  0.4911  1.0697  0.2110
  360MOL0     C48529   8.897   1.547   2.202 -0.1589 -0.1528 -0.1446
  360MOL0     C48530   9.170   1.549   1.802 -0.2805  0.8609 -0.6956
  360MOL0     C48531   9.309   1.535   1.817  0.7205 -0.3945  0.3212
  360MOL0     C48532   9.364   1.429   1.919 -0.6986  0.0942  0.3452
  360MOL0     H48533   9.792   1.416   1.634  1.2543  0.1057 -1.3214
  360MOL0     H48534  10.024   1.418   1.577  1.0360  0.7879 -4.7906
  360MOL0     H48535  10.144   1.758   1.381  0.5535 -1.0454 -0.6402
  360MOL0     H48536  10.248   1.819   1.502  3.0749  0.1035 -1.1195
  360MOL0     H48537  10.388   1.754   1.314 -1.4306  2.6176  2.0087
  360MOL0     H48538  10.291   1.614   1.284 -0.0544 -0.4289 -0.1168
  360MOL0     H48539  10.415   1.522   1.527  1.5455  0.5144  0.5851
  360MOL0     H48540  10.511   1.653   1.494 -0.0403  1.9173 -0.1398
  360MOL0     H48541  10.443   1.435   1.289 -1.0680  1.5792 -1.1423
  360MOL0     H48542  10.578   1.553   1.259  0.0279 -1.9064 -1.3610
  360MOL0     H48543  10.695   1.352   1.348  1.1203 -0.7564  2.0716
  360MOL0     H48544  10.670   1.471   1.482  1.3173  1.5941 -1.4929
  360MOL0     H48545  10.499   1.317   1.581  3.2280  3.5547  0.4220
  360MOL0     H48546  10.482   1.248   1.425 -1.2358  2.3714 -0.0905
  360MOL0     H48547  10.722   1.143   1.469  2.6898  3.8057  1.0195
  360MOL0     H48548  10.594   1.087   1.585  1.6994 -1.5847 -2.3755
  360MOL0     H48549  10.694   1.302   1.735  1.8060 -0.1902  1.7680
  360MOL0     H48550  10.742   1.144   1.737 -1.7426  1.8863  1.3795
  360MOL0     H48551  10.990   1.092   1.588 -0.5858  0.1086  1.0895
  360MOL0     H48552  11.228   1.259   1.430 -1.8901  0.3256 -0.3013
  360MOL0     H48553  11.284   1.319   1.580 -1.4103  0.9071 -0.1257
  360MOL0     H48554  11.228   1.078   1.676 -3.5297 -0.4478 -1.0877
  360MOL0     H48555  11.211   1.036   1.501  2.8395 -3.8767  0.9383
  360MOL0     H48556  11.448   1.174   1.629 -0.3115  0.7529  0.1309
  360MOL0     H48557  11.456   1.110   1.461 -0.6240  0.1324 -0.4772
  360MOL0     H48558  11.451   0.934   1.715 -1.4236  1.8010  0.7667
  360MOL0     H48559  11.583   0.955   1.606 -0.4653  1.4214  1.4969
  360MOL0     H48560  11.330   0.655   1.382 -1.0683 -1.9969  0.3260
  360MOL0     H48561  11.408   0.423   1.368 -1.3112  2.1429 -0.0987
  360MOL0     H48562  11.539  -0.011   1.372  0.6662  0.0021  0.2258
  360MOL0     H48563  11.688  -0.191   1.317 -0.6709  0.8113  0.6047
  360MOL0     H48564  12.130  -0.083   1.215  0.8434  0.4036  1.7237
  360MOL0     H48565  12.090  -0.121   1.394 -1.1851 -0.2150  0.4818
  360MOL0     H48566  12.063  -0.346   1.303  0.1884 -1.4667 -1.9718
  360MOL0     H48567  12.153  -0.298   1.159 -1.0038 -3.3859 -0.2886
  360MOL0     H48568  12.253  -0.328   1.448  2.0430 -2.2540 -0.4822
  360MOL0     H48569  12.287  -0.423   1.316 -3.2441  0.1178 -2.2977
  360MOL0     H48570  12.372  -0.126   1.334  2.0612 -0.5631  1.2820
  360MOL0     H48571  12.415  -0.245   1.201 -0.8858 -1.4295 -0.2925
  360MOL0     H48572  12.528  -0.380   1.355 -1.4191 -0.1103 -0.1196
  360MOL0     H48573  12.496  -0.306   1.490 -1.6221  0.4433 -1.1392
  360MOL0     H48574  12.677  -0.209   1.264  2.8114  2.7036  2.0008
  360MOL0     H48575  12.594  -0.081   1.339  1.8240  0.7268 -0.0069
  360MOL0     H48576  12.735  -0.303   1.499  1.9960  1.6065  1.7175
  360MOL0     H48577  12.661  -0.165   1.575 -1.6923  0.3358 -1.2430
  360MOL0     H48578  12.920  -0.141   1.550  2.0511 -0.4970 -2.2467
  360MOL0     H48579  12.890  -0.151   1.384  0.2206  1.3951  0.0819
  360MOL0     H48580  12.004   0.107   1.275 -0.5151  1.5689  2.4480
  360MOL0     H48581  11.839   0.277   1.339  3.0766 -0.3756  0.5618
  360MOL0     H48582  11.717   0.536   1.639  0.8427  1.1114 -1.4183
  360MOL0     H48583  11.657   0.759   1.640 -1.3978  0.7944  2.5478
  360MOL0     H48584   9.982   1.843   1.507  1.4935  1.0134  2.2660
  360MOL0     H48585   9.749   1.833   1.564  0.2477 -0.8130 -2.8677
  360MOL0     H48586   9.405   1.709   1.551  1.4427  0.3907  2.6621
  360MOL0     H48587   9.141   1.731   1.520  0.4548  1.2830  0.7999
  360MOL0     H48588   8.942   1.615   1.905 -1.7654  0.7237  2.2800
  360MOL0     H48589   8.811   1.697   1.829  0.2253  2.6714  1.0380
  360MOL0     H48590   8.918   1.898   1.816 -0.1758 -0.3901 -0.6910
  360MOL0     H48591   9.072   1.832   1.877  0.5409  1.5521  1.4256
  360MOL0     H48592   8.811   1.829   2.044  0.6613 -1.8919 -2.7145
  360MOL0     H48593   8.924   1.969   2.057  1.8434 -0.0751  3.9083
  360MOL0     H48594   9.102   1.787   2.105 -0.1412  2.1195 -1.2354
  360MOL0     H48595   8.988   1.847   2.230  1.5601 -1.7802  1.3416
  360MOL0     H48596   8.849   1.451   2.208  2.0555 -1.3128  0.0228
  360MOL0     H48597   9.107   1.500   1.876 -1.4139  0.5123 -1.8491
  360MOL0     H48598   9.463   1.450   1.959 -0.0674 -2.5821  0.3889
  360MOL0     H48599   9.290   1.434   1.999 -3.0003  1.2201 -1.6928
  360MOL0     H48600   9.364   1.333   1.866 -2.1918  1.7102 -2.9354
  361MOL0     O48601   3.663  11.182   4.685 -0.1185  0.4224  0.3069
  361MOL0     C48602   3.580  11.271   4.692 -0.6036 -0.3227  0.5574
  361MOL0     O48603   3.598  11.393   4.753 -0.2098 -0.1232 -1.1411
  361MOL0     C48604   3.732  11.413   4.776 -0.4203 -1.1790 -0.4502
  361MOL0     C48605   3.791  11.424   4.904 -0.2476 -0.3608  0.1971
  361MOL0     C48606   3.920  11.476   4.921  0.3881  0.3495  0.7997
  361MOL0     C48607   4.003  11.510   4.809 -0.5878  0.3205 -0.1484
  361MOL0     O48608   4.135  11.549   4.834 -0.1547  0.2313  0.4002
  361MOL0     C48609   4.209  11.582   4.720  0.3628 -0.6524  1.2443
  361MOL0     C48610   4.354  11.613   4.763 -0.7092 -0.3745 -0.1483
  361MOL0     C48611   4.438  11.701   4.683  0.3991  0.7373  0.5774
  361MOL0     C48612   4.389  11.844   4.687  1.0345  0.7170 -0.4833
  361MOL0     C48613   4.495  11.935   4.614  0.2533 -0.7361 -0.0138
  361MOL0     C48614   4.443  12.074   4.645  1.0352  0.3088 -1.2466
  361MOL0     C48615   4.513  12.189   4.579 -0.1614 -0.1863  0.3398
  361MOL0     C48616   4.448  12.318   4.623  0.2727  0.5419 -0.2323
  361MOL0     N48617   4.308  12.343   4.601 -0.2314 -0.3868  1.6187
  361MOL0     C48618   4.262  12.398   4.478 -0.1122  0.8600 -0.3136
  361MOL0     C48619   4.123  12.414   4.496 -0.5831  1.0730  0.7765
  361MOL0     C48620   4.031  12.476   4.392 -0.0922 -0.6138 -0.2756
  361MOL0     C48621   3.944  12.369   4.317  0.1974 -0.2388 -0.9206
  361MOL0     C48622   3.904  12.428   4.181  0.5112 -0.1132 -0.3865
  361MOL0     C48623   3.785  12.522   4.179 -0.9429  0.3805 -0.3973
  361MOL0     O48624   3.673  12.444   4.207  0.1352 -0.4043 -0.6770
  361MOL0     C48625   3.561  12.515   4.233  0.6263 -0.8941 -0.6157
  361MOL0     C48626   3.440  12.446   4.262  0.3737  1.2084  0.1349
  361MOL0     C48627   3.319  12.517   4.287 -0.7086  0.2843  0.6883
  361MOL0     C48628   3.308  12.655   4.269 -0.7598 -0.7679 -0.8539
  361MOL0     C48629   3.173  12.713   4.286  0.3800  0.6201  0.1914
  361MOL0     O48630   3.165  12.847   4.274 -0.1112  0.1126 -0.0209
  361MOL0     C48631   3.037  12.911   4.293 -0.1612  0.6687  0.6181
  361MOL0     C48632   3.011  12.990   4.401 -0.3734  0.0794 -0.7365
  361MOL0     C48633   2.884  13.055   4.409  0.2938 -0.6842 -0.1310
  361MOL0     C48634   2.791  13.028   4.305  0.0578 -0.5421 -0.7798
  361MOL0     O48635   2.657  13.077   4.301 -0.0926  0.2527 -0.0192
  361MOL0     C48636   2.606  13.177   4.390  0.0770  1.2423  0.0368
  361MOL0     C48637   2.527  13.285   4.320 -0.5003 -0.3715 -0.0777
  361MOL0     C48638   2.618  13.344   4.208  0.1018 -0.4899 -0.5148
  361MOL0     C48639   2.738  13.428   4.264 -0.2928 -0.2535  0.0560
  361MOL0     C48640   2.795  13.517   4.154 -0.6303 -0.8444  0.1738
  361MOL0     C48641   2.910  13.591   4.210  0.4516  0.1048 -1.1798
  361MOL0     C48642   2.980  13.676   4.108  0.4662  0.0352 -0.0149
  361MOL0     C48643   2.911  13.803   4.079 -1.9824 -0.4847  0.4916
  361MOL0    Cl48644   3.021  13.894   3.983  0.2291 -0.2247  0.1278
  361MOL0     C48645   2.821  12.948   4.204 -0.9922 -0.0655  0.1545
  361MOL0     C48646   2.946  12.890   4.187 -0.6984  0.1127  0.2629
  361MOL0     O48647   3.071  12.644   4.295  0.3981 -0.7530 -0.0437
  361MOL0     C48648   3.418  12.724   4.214 -1.2494  0.6454 -0.9644
  361MOL0     C48649   3.540  12.650   4.205  0.2034  0.0356  0.2273
  361MOL0     N48650   4.087  12.356   4.617 -0.0663  0.3454  0.1841
  361MOL0     N48651   4.202  12.322   4.682 -0.2508  0.4901  0.2004
  361MOL0     C48652   3.944  11.496   4.682 -0.6085  0.4649 -0.1930
  361MOL0     C48653   3.815  11.451   4.669  0.2327 -0.4961 -0.6501
  361MOL0     C48654   3.447  11.254   4.624 -0.2020  0.8450  0.4458
  361MOL0     C48655   3.426  11.188   4.500  0.2389  0.1295 -0.9407
  361MOL0     C48656   3.303  11.170   4.450 -0.3403 -0.1341 -0.0715
  361MOL0     C48657   3.191  11.220   4.514 -0.9401 -0.0116 -0.6782
  361MOL0     O48658   3.062  11.220   4.484 -0.3937 -1.0584  0.1095
  361MOL0     C48659   3.011  11.105   4.409 -0.2274 -0.2131 -0.1952
  361MOL0     C48660   2.863  11.095   4.410 -0.0084  0.4513  1.2857
  361MOL0     C48661   2.805  11.115   4.545 -0.0508  0.0463 -0.1645
  361MOL0     C48662   2.718  10.990   4.581  0.1641 -0.2799 -0.2657
  361MOL0     C48663   2.656  11.015   4.716  0.5201  1.0528  0.9662
  361MOL0     C48664   2.597  11.022   4.814 -1.5044 -0.3882  0.0900
  361MOL0     C48665   3.207  11.294   4.636 -0.3575  0.0218 -0.9405
  361MOL0     C48666   3.330  11.315   4.692 -0.7057 -0.1910 -0.6881
  361MOL0     C48667   3.331  11.382   4.833  0.3479 -0.3976  0.4892
  361MOL0     H48668   3.731  11.409   4.994  0.4944 -3.2637  0.3027
  361MOL0     H48669   3.946  11.484   5.026  0.3715 -0.8434  0.9133
  361MOL0     H48670   4.205  11.500   4.647  1.5802  1.2718 -1.1349
  361MOL0     H48671   4.144  11.659   4.678 -2.3638 -2.0488  2.6282
  361MOL0     H48672   4.393  11.511   4.772 -2.8835 -1.1699  0.8648
  361MOL0     H48673   4.357  11.642   4.868  0.9213  1.4608 -0.6484
  361MOL0     H48674   4.437  11.669   4.578  0.0484 -1.8699  1.3035
  361MOL0     H48675   4.539  11.695   4.725  1.0443  1.0672 -0.8672
  361MOL0     H48676   4.292  11.853   4.638  0.6927 -0.9834 -0.1896
  361MOL0     H48677   4.378  11.872   4.792 -4.8838  1.4365 -0.9799
  361MOL0     H48678   4.594  11.921   4.658 -0.7660  0.1472  2.8067
  361MOL0     H48679   4.492  11.920   4.506 -2.4610  3.6511 -0.7863
  361MOL0     H48680   4.335  12.077   4.626  0.6260  0.4266  0.8649
  361MOL0     H48681   4.448  12.103   4.750  1.1375 -0.9447 -0.8949
  361MOL0     H48682   4.508  12.184   4.470  1.0203  0.3784  0.2433
  361MOL0     H48683   4.619  12.201   4.604 -0.2949 -2.1254  2.1550
  361MOL0     H48684   4.453  12.321   4.732 -0.2597 -2.1909 -0.0713
  361MOL0     H48685   4.503  12.407   4.590 -1.4935  2.2368  1.1927
  361MOL0     H48686   4.326  12.433   4.398  0.4843  1.3100  0.3552
  361MOL0     H48687   3.973  12.551   4.446  1.1962 -1.6041  2.6817
  361MOL0     H48688   4.094  12.517   4.313  0.1197 -1.1348 -0.3826
  361MOL0     H48689   4.009  12.284   4.294  4.3310  2.0616  1.2221
  361MOL0     H48690   3.857  12.341   4.377  1.7389 -1.1897  0.9946
  361MOL0     H48691   3.882  12.344   4.113 -1.7281  0.6614 -0.7064
  361MOL0     H48692   3.995  12.475   4.143  1.7124 -1.3495  0.8285
  361MOL0     H48693   3.777  12.579   4.086  0.3761 -1.2104 -1.5292
  361MOL0     H48694   3.782  12.604   4.252  0.6338  2.4700 -2.5113
  361MOL0     H48695   3.432  12.339   4.275 -1.1946  1.1830 -0.7603
  361MOL0     H48696   3.234  12.454   4.311 -0.8533  0.8496  1.7529
  361MOL0     H48697   3.083  13.003   4.480 -1.9898 -1.1304  1.0114
  361MOL0     H48698   2.858  13.115   4.495  2.6276 -0.4935  0.5204
  361MOL0     H48699   2.534  13.127   4.456  0.1558 -1.1479 -1.5743
  361MOL0     H48700   2.682  13.219   4.457  1.1257 -3.4818  2.2435
  361MOL0     H48701   2.439  13.242   4.273 -0.7116 -1.3387  1.1675
  361MOL0     H48702   2.503  13.365   4.390 -1.3356  0.1556 -0.9357
  361MOL0     H48703   2.674  13.273   4.145 -1.9304 -0.3389 -2.6378
  361MOL0     H48704   2.560  13.406   4.140 -2.1157 -1.2977  0.5496
  361MOL0     H48705   2.813  13.359   4.305 -0.8258 -0.6967  0.3023
  361MOL0     H48706   2.707  13.499   4.340  2.5498  0.9232  0.2245
  361MOL0     H48707   2.725  13.586   4.108  1.0391  0.2939 -0.7877
  361MOL0     H48708   2.837  13.464   4.067  0.7212  1.6285 -0.7776
  361MOL0     H48709   2.869  13.648   4.293 -0.5620 -3.6819  1.1607
  361MOL0     H48710   2.979  13.522   4.258 -0.8700  0.9087  2.1608
  361MOL0     H48711   2.972  13.622   4.013 -0.5810  0.1824 -0.0206
  361MOL0     H48712   3.080  13.703   4.144 -0.4527  4.7014 -0.3392
  361MOL0     H48713   2.814  13.795   4.027 -0.5347 -1.0076 -2.3350
  361MOL0     H48714   2.893  13.854   4.174 -0.8809  0.3878  0.2457
  361MOL0     H48715   2.745  12.936   4.127  0.5564 -3.3546 -1.0285
  361MOL0     H48716   2.971  12.821   4.108 -0.8608 -2.8863  2.6650
  361MOL0     H48717   3.400  12.817   4.162 -0.9057  1.1667 -0.1627
  361MOL0     H48718   3.618  12.713   4.163 -0.0022 -0.3962 -0.8212
  361MOL0     H48719   3.994  11.512   4.587  1.5445 -3.1514  0.1463
  361MOL0     H48720   3.778  11.456   4.567  2.0506  1.7213 -1.2742
  361MOL0     H48721   3.510  11.134   4.457 -0.3007 -0.9159 -0.7072
  361MOL0     H48722   3.279  11.103   4.368 -0.7904  2.1733 -1.9541
  361MOL0     H48723   3.058  11.014   4.448  3.4969  2.5110  2.4194
  361MOL0     H48724   3.038  11.126   4.305 -0.7999  1.6680 -0.0008
  361MOL0     H48725   2.826  11.001   4.368  1.6036 -0.4848  1.8774
  361MOL0     H48726   2.824  11.175   4.346 -0.0001 -1.5398 -1.3410
  361MOL0     H48727   2.741  11.203   4.542 -1.5178 -0.9620  0.4548
  361MOL0     H48728   2.885  11.129   4.618  0.5890  5.0533 -1.4259
  361MOL0     H48729   2.637  10.976   4.508 -0.0343 -1.8246  0.2115
  361MOL0     H48730   2.769  10.894   4.573  2.8394  0.8968  1.4992
  361MOL0     H48731   2.543  11.022   4.906 -0.4169  3.2131  0.8709
  361MOL0     H48732   3.122  11.333   4.690  0.8118  1.1433  0.1459
  361MOL0     H48733   3.381  11.479   4.829 -0.5822  0.1070  0.7644
  361MOL0     H48734   3.228  11.405   4.862  0.8181  1.2602  0.9525
  361MOL0     H48735   3.389  11.328   4.908  3.0894  2.4038  0.5929
  362MOL0     O48736  11.230   1.034   4.400  0.0577  0.7167  0.2159
  362MOL0     C48737  11.263   0.978   4.503  0.4971  0.7139  0.2201
  362MOL0     O48738  11.212   0.858   4.548  0.0138  0.4380  0.1904
  362MOL0     C48739  11.122   0.790   4.471 -0.4158  0.2422 -0.9107
  362MOL0     C48740  11.165   0.668   4.418  0.8937 -0.8042 -0.4560
  362MOL0     C48741  11.070   0.600   4.340  0.0709  0.0128  0.4723
  362MOL0     C48742  10.943   0.653   4.320  0.6752 -0.4552 -0.4317
  362MOL0     O48743  10.843   0.603   4.243 -0.1672  0.3482  0.4428
  362MOL0     C48744  10.866   0.501   4.139 -0.4322  0.1479  0.3219
  362MOL0     C48745  10.732   0.469   4.079  0.3168 -0.1523 -0.4811
  362MOL0     C48746  10.731   0.320   4.043  0.0084  0.5666 -0.6180
  362MOL0     C48747  10.676   0.242   4.166 -0.3451  0.3820 -1.0140
  362MOL0     C48748  10.744   0.106   4.161 -0.0598 -0.2575 -0.1472
  362MOL0     C48749  10.723   0.024   4.284  0.6250 -1.4037 -0.6298
  362MOL0     C48750  10.770  -0.111   4.271 -0.4307  0.1279  0.3207
  362MOL0     C48751  10.802  -0.177   4.407  0.3938  0.0292 -0.2065
  362MOL0     N48752  10.861  -0.305   4.383  0.3051 -0.0726  0.2330
  362MOL0     C48753  10.983  -0.344   4.422 -0.0699  0.3927  0.0201
  362MOL0     C48754  10.995  -0.474   4.385 -0.0023  0.5989 -0.2639
  362MOL0     C48755  11.106  -0.566   4.415 -0.0640 -0.1344  0.0945
  362MOL0     C48756  11.196  -0.587   4.296 -0.4807  0.1129  0.1695
  362MOL0     C48757  11.144  -0.655   4.166 -0.1285 -0.8229  0.4174
  362MOL0     C48758  11.264  -0.683   4.074  0.2172  0.1277  0.4737
  362MOL0     O48759  11.220  -0.753   3.956 -0.2869  0.1026 -0.0032
  362MOL0     C48760  11.303  -0.803   3.853  0.0913  0.1409  0.3701
  362MOL0     C48761  11.257  -0.886   3.761  0.2797 -0.2625  0.1797
  362MOL0     C48762  11.330  -0.927   3.649  0.2041 -0.5471  0.3138
  362MOL0     C48763  11.467  -0.899   3.639  0.0827  0.2567  0.0284
  362MOL0     C48764  11.549  -0.963   3.533 -0.3592 -0.2828 -0.0672
  362MOL0     O48765  11.477  -1.054   3.465 -0.0296 -0.3694 -0.1078
  362MOL0     C48766  11.530  -1.133   3.367 -0.3139  0.9690 -0.2943
  362MOL0     C48767  11.459  -1.152   3.246 -0.0025  0.5134 -0.4392
  362MOL0     C48768  11.487  -1.246   3.146  0.3146  0.6770 -0.0251
  362MOL0     C48769  11.594  -1.341   3.168  0.5191 -0.3207 -0.8355
  362MOL0     O48770  11.630  -1.445   3.085 -1.0935 -0.9277  0.3257
  362MOL0     C48771  11.599  -1.410   2.947  0.3306  0.4640 -1.1229
  362MOL0     C48772  11.657  -1.525   2.860  0.1326 -0.1245 -0.0488
  362MOL0     C48773  11.613  -1.668   2.906 -0.2005 -0.0096  0.6736
  362MOL0     C48774  11.640  -1.769   2.802 -0.8614  0.2174  0.0368
  362MOL0     C48775  11.596  -1.920   2.835 -0.7856  0.0144  0.2929
  362MOL0     C48776  11.435  -1.935   2.852 -0.8197  0.4518  0.9237
  362MOL0     C48777  11.383  -2.028   2.958  0.1631  0.0064  0.2723
  362MOL0     C48778  11.234  -2.053   2.938  1.0684  0.0806  1.1161
  362MOL0    Cl48779  11.209  -2.217   2.878 -0.2391  0.5429  0.5264
  362MOL0     C48780  11.651  -1.337   3.297 -0.2721 -0.5109 -0.5897
  362MOL0     C48781  11.621  -1.239   3.392 -0.0041 -0.2883 -0.5622
  362MOL0     O48782  11.672  -0.955   3.531  1.0488 -0.2766 -0.2190
  362MOL0     C48783  11.518  -0.820   3.747 -0.2394 -0.7830  0.2156
  362MOL0     C48784  11.439  -0.772   3.853  0.2906 -0.2209  0.0811
  362MOL0     N48785  10.878  -0.511   4.317  0.1499  0.3096 -1.0228
  362MOL0     N48786  10.796  -0.413   4.338  0.2369  0.5950  0.0855
  362MOL0     C48787  10.904   0.767   4.383 -0.8173 -0.0029  0.9665
  362MOL0     C48788  10.996   0.843   4.454 -0.5007 -0.2920  0.5713
  362MOL0     C48789  11.357   1.047   4.592 -0.0332 -0.0052  0.6049
  362MOL0     C48790  11.372   1.186   4.573 -0.0643  0.3034 -0.7879
  362MOL0     C48791  11.478   1.254   4.641  0.6116  0.5758  0.1850
  362MOL0     C48792  11.555   1.199   4.735  0.6054  0.1601  0.3175
  362MOL0     O48793  11.657   1.261   4.801 -0.8786 -0.3915  0.2009
  362MOL0     C48794  11.669   1.404   4.799 -0.1239  0.3684 -0.2661
  362MOL0     C48795  11.554   1.474   4.877  0.3871  0.1897 -0.0446
  362MOL0     C48796  11.561   1.623   4.842 -0.0355 -0.0636 -0.1260
  362MOL0     C48797  11.470   1.703   4.934 -0.5262 -0.1084  0.7965
  362MOL0     C48798  11.325   1.678   4.906  0.4464  0.1959  0.1689
  362MOL0     C48799  11.207   1.654   4.884 -0.4123  0.9187  0.5891
  362MOL0     C48800  11.521   1.069   4.765 -0.3436  0.6196  0.2671
  362MOL0     C48801  11.430   0.987   4.696 -0.4032 -0.5575 -0.1069
  362MOL0     C48802  11.426   0.847   4.741 -0.3953  0.2695 -0.2837
  362MOL0     H48803  11.267   0.644   4.444 -0.0341 -2.3258  2.1670
  362MOL0     H48804  11.095   0.505   4.295 -1.0145  0.3666 -0.9263
  362MOL0     H48805  10.930   0.544   4.062  0.7686  0.4341  1.4247
  362MOL0     H48806  10.915   0.412   4.180  1.2182  0.3813 -1.0297
  362MOL0     H48807  10.704   0.542   4.002  1.4646  0.6477 -0.1834
  362MOL0     H48808  10.656   0.476   4.157 -0.1243 -3.9408 -0.4069
  362MOL0     H48809  10.831   0.284   4.015 -0.0159 -1.1073  1.2133
  362MOL0     H48810  10.655   0.298   3.968 -1.1229 -0.2634  0.7242
  362MOL0     H48811  10.706   0.298   4.256 -1.1138 -1.0917  0.1985
  362MOL0     H48812  10.567   0.240   4.165 -0.5329  3.9553 -1.5054
  362MOL0     H48813  10.708   0.045   4.078 -1.5066 -1.0300  1.0001
  362MOL0     H48814  10.849   0.123   4.134  0.0210  2.5275  1.5344
  362MOL0     H48815  10.766   0.064   4.376  0.7198 -0.3069 -1.1363
  362MOL0     H48816  10.616   0.026   4.309  0.0745  1.2044 -2.7211
  362MOL0     H48817  10.855  -0.122   4.202 -2.4062  0.9691 -2.4528
  362MOL0     H48818  10.686  -0.161   4.223 -0.4548 -1.5590  1.9931
  362MOL0     H48819  10.878  -0.112   4.452 -0.1417 -1.1065  2.4700
  362MOL0     H48820  10.706  -0.184   4.458 -0.7058 -1.6664 -2.3339
  362MOL0     H48821  11.053  -0.287   4.483  0.5703 -1.2154  0.8268
  362MOL0     H48822  11.164  -0.513   4.491 -0.0826  3.3138 -2.0884
  362MOL0     H48823  11.059  -0.656   4.456 -0.9376  0.1771 -0.1932
  362MOL0     H48824  11.221  -0.487   4.257  1.5692 -0.2800  0.3957
  362MOL0     H48825  11.285  -0.646   4.319 -0.3210 -0.2372 -1.2530
  362MOL0     H48826  11.064  -0.593   4.125 -0.7003 -1.0377  1.1817
  362MOL0     H48827  11.091  -0.748   4.190  0.3876 -0.5513  2.8767
  362MOL0     H48828  11.341  -0.740   4.126  0.7381  0.6111  0.2424
  362MOL0     H48829  11.309  -0.588   4.043  0.8839 -0.6321 -0.9840
  362MOL0     H48830  11.149  -0.896   3.761  0.3734 -1.4953  0.5586
  362MOL0     H48831  11.281  -0.964   3.560 -0.4094  3.3020 -1.1564
  362MOL0     H48832  11.398  -1.071   3.206  1.7623  1.0864 -2.1440
  362MOL0     H48833  11.418  -1.255   3.062  2.6358  0.8067 -2.0497
  362MOL0     H48834  11.491  -1.402   2.930 -0.2942  1.3700  2.4768
  362MOL0     H48835  11.650  -1.319   2.915  2.8312  0.1340  1.5227
  362MOL0     H48836  11.634  -1.510   2.754  1.0005 -1.9411 -0.5253
  362MOL0     H48837  11.765  -1.513   2.866  0.0542  0.7575 -0.2714
  362MOL0     H48838  11.670  -1.703   2.993  0.8020 -0.7238 -0.2368
  362MOL0     H48839  11.505  -1.663   2.917 -0.3771 -0.8558 -0.4474
  362MOL0     H48840  11.746  -1.772   2.777 -0.5764 -2.6668  1.2052
  362MOL0     H48841  11.580  -1.740   2.715 -2.3244  2.5781  1.7369
  362MOL0     H48842  11.648  -1.951   2.927 -3.1419 -1.2096  1.2965
  362MOL0     H48843  11.632  -1.993   2.763  3.3646  2.0892 -0.0835
  362MOL0     H48844  11.396  -1.834   2.868 -1.7791  0.5745 -1.7768
  362MOL0     H48845  11.399  -1.964   2.753 -1.2367 -0.8260  1.4250
  362MOL0     H48846  11.405  -1.998   3.060 -1.7336 -3.6148  1.9562
  362MOL0     H48847  11.436  -2.123   2.942 -0.8145 -0.4030 -0.6675
  362MOL0     H48848  11.175  -2.055   3.031 -0.9004 -1.8986 -0.0789
  362MOL0     H48849  11.182  -1.994   2.862  2.5014 -3.8291 -3.3555
  362MOL0     H48850  11.727  -1.409   3.324 -1.7763 -2.7096 -1.8849
  362MOL0     H48851  11.684  -1.241   3.480  1.3116  0.6020 -1.4638
  362MOL0     H48852  11.623  -0.794   3.745 -0.8840  2.0862 -1.4110
  362MOL0     H48853  11.486  -0.707   3.926  4.6791 -1.1404 -1.6194
  362MOL0     H48854  10.803   0.804   4.367  0.1154  1.3247 -2.9862
  362MOL0     H48855  10.973   0.941   4.494 -1.5282  1.1924 -3.1697
  362MOL0     H48856  11.310   1.241   4.502 -0.2290 -0.2085 -1.0503
  362MOL0     H48857  11.508   1.353   4.606  0.5262 -0.6242 -3.7845
  362MOL0     H48858  11.676   1.442   4.697  2.9096  1.2048  0.1732
  362MOL0     H48859  11.765   1.420   4.848  0.1326 -1.7551  0.0464
  362MOL0     H48860  11.559   1.450   4.983 -1.0082 -1.2645 -0.2762
  362MOL0     H48861  11.463   1.432   4.834  1.8500 -3.6188  0.1853
  362MOL0     H48862  11.537   1.646   4.738  2.0386  2.0302 -0.2328
  362MOL0     H48863  11.663   1.652   4.869 -0.6586  2.0379  0.1891
  362MOL0     H48864  11.490   1.663   5.034 -0.8449 -1.9724  0.1464
  362MOL0     H48865  11.486   1.811   4.925  0.0997 -0.1094  1.7740
  362MOL0     H48866  11.102   1.638   4.868  0.0112 -0.8147 -0.7258
  362MOL0     H48867  11.587   1.014   4.832 -0.0972 -2.4323 -2.2117
  362MOL0     H48868  11.358   0.836   4.827 -1.3222  0.1745 -1.0098
  362MOL0     H48869  11.386   0.772   4.672 -1.2933  0.8459 -0.4193
  362MOL0     H48870  11.526   0.812   4.765  0.1953  0.9866 -1.6212
  363MOL0     O48871   1.577   3.694   4.971 -0.2841  0.6499  0.1154
  363MOL0     C48872   1.557   3.806   5.014  0.3186  0.5381  0.0255
  363MOL0     O48873   1.660   3.889   5.061 -0.3219 -0.4361 -0.0037
  363MOL0     C48874   1.788   3.837   5.051 -0.6973 -0.8608  0.7222
  363MOL0     C48875   1.859   3.859   4.931  0.1105 -0.7494 -0.8767
  363MOL0     C48876   1.996   3.832   4.935  1.0644  0.5108 -0.0988
  363MOL0     C48877   2.058   3.762   5.041 -0.5995 -0.0545 -0.0580
  363MOL0     O48878   2.187   3.735   5.061 -0.2579  0.3156 -0.2076
  363MOL0     C48879   2.282   3.781   4.963 -0.7995  1.1650 -0.1295
  363MOL0     C48880   2.294   3.689   4.833  0.5282 -0.8666 -0.2882
  363MOL0     C48881   2.327   3.543   4.874 -1.0551 -0.4217 -0.7366
  363MOL0     C48882   2.372   3.448   4.755 -0.5640 -0.1115  0.4761
  363MOL0     C48883   2.353   3.300   4.800  0.3501  0.4007  0.0990
  363MOL0     C48884   2.463   3.244   4.901  1.1589  0.0156  0.0197
  363MOL0     C48885   2.421   3.093   4.936  0.6347 -0.4830 -0.4369
  363MOL0     C48886   2.303   3.085   5.038 -0.6399  0.4755 -0.2237
  363MOL0     N48887   2.311   3.168   5.155 -0.5301  1.0071  0.5406
  363MOL0     C48888   2.284   3.306   5.161  0.6295 -0.1968  0.2972
  363MOL0     C48889   2.313   3.346   5.287  0.8623  0.2454  1.1238
  363MOL0     C48890   2.331   3.488   5.343 -1.2198 -0.8648 -0.5271
  363MOL0     C48891   2.475   3.530   5.336 -0.0725  0.5785 -0.5310
  363MOL0     C48892   2.510   3.676   5.380 -0.2772  0.1653  1.1776
  363MOL0     C48893   2.665   3.696   5.383 -0.5706 -0.5214 -0.9386
  363MOL0     O48894   2.716   3.639   5.513  0.0173  0.1324  0.1097
  363MOL0     C48895   2.811   3.690   5.598 -0.1101 -0.5309 -0.2715
  363MOL0     C48896   2.874   3.809   5.567  0.0069 -0.1358  0.0838
  363MOL0     C48897   2.975   3.856   5.648  0.2652  0.2149  0.8393
  363MOL0     C48898   3.014   3.789   5.768 -0.5287 -0.3029 -0.0142
  363MOL0     C48899   3.115   3.838   5.864 -0.8182 -0.3021  0.4066
  363MOL0     O48900   3.116   3.787   5.989  0.1009  0.3061 -0.7364
  363MOL0     C48901   3.178   3.838   6.098 -0.0504 -0.5217  0.2901
  363MOL0     C48902   3.194   3.974   6.126 -0.3057 -0.1624  0.2246
  363MOL0     C48903   3.228   4.023   6.245  0.6270  0.0546 -0.1535
  363MOL0     C48904   3.265   3.934   6.345 -0.6054 -0.2811 -0.4194
  363MOL0     O48905   3.302   3.987   6.466 -0.2774  0.1556 -0.4349
  363MOL0     C48906   3.430   3.954   6.525  0.1957 -0.1090 -0.9138
  363MOL0     C48907   3.438   4.001   6.679 -0.3909  0.3057  0.3022
  363MOL0     C48908   3.457   4.150   6.692  0.2390 -0.5673 -0.0757
  363MOL0     C48909   3.455   4.197   6.837 -0.3225  0.6384  0.3024
  363MOL0     C48910   3.481   4.346   6.865  0.4423  0.6228 -0.3274
  363MOL0     C48911   3.362   4.431   6.811  0.8092  0.3594 -0.2769
  363MOL0     C48912   3.401   4.586   6.837 -0.1796  0.4319 -0.7830
  363MOL0     C48913   3.445   4.618   6.989 -0.4730  0.1857  0.8874
  363MOL0    Cl48914   3.437   4.798   7.015  0.2060 -0.3686 -0.0243
  363MOL0     C48915   3.251   3.794   6.329  0.8125 -0.1506  0.4613
  363MOL0     C48916   3.200   3.752   6.207 -0.5704  0.7072  0.0251
  363MOL0     O48917   3.192   3.932   5.827  0.5520 -0.5561  0.4358
  363MOL0     C48918   2.954   3.660   5.796  0.0809  0.0258 -0.1655
  363MOL0     C48919   2.854   3.618   5.710  0.5154  0.5354 -0.1499
  363MOL0     N48920   2.359   3.229   5.355  0.1530 -0.4657  0.1799
  363MOL0     N48921   2.334   3.122   5.280 -0.9733 -0.6686 -1.1613
  363MOL0     C48922   1.986   3.745   5.154 -0.5967 -0.2079 -0.7543
  363MOL0     C48923   1.851   3.786   5.164  0.2015  0.0957  0.2671
  363MOL0     C48924   1.420   3.854   5.008  0.5805  0.0776 -0.6624
  363MOL0     C48925   1.320   3.753   4.992  0.0491  0.0103 -0.4585
  363MOL0     C48926   1.187   3.775   5.003  0.1211  0.8018  1.0302
  363MOL0     C48927   1.147   3.902   5.028 -0.7528  0.4134  0.2730
  363MOL0     O48928   1.017   3.949   5.029 -0.2586 -0.0712  0.9829
  363MOL0     C48929   0.909   3.862   5.014  0.4447  0.6847  0.2915
  363MOL0     C48930   0.765   3.939   5.003 -0.0953  0.1457 -0.2268
  363MOL0     C48931   0.761   4.052   4.894  0.4039 -0.2963  0.0918
  363MOL0     C48932   0.625   4.128   4.897 -0.3934 -0.4496  0.5796
  363MOL0     C48933   0.505   4.052   4.913  0.4806  0.0582 -1.0035
  363MOL0     C48934   0.400   3.987   4.940  0.5453  0.1697  0.8476
  363MOL0     C48935   1.236   4.001   5.061  0.1811 -0.5422 -0.5651
  363MOL0     C48936   1.376   3.987   5.048 -0.8131  0.5227  0.4132
  363MOL0     C48937   1.461   4.104   5.074 -0.0922 -0.1757 -0.3996
  363MOL0     H48938   1.809   3.903   4.845 -1.7306  1.6124  1.2420
  363MOL0     H48939   2.055   3.855   4.847 -1.2060  3.0309 -1.1145
  363MOL0     H48940   2.256   3.883   4.935 -1.1520  0.9142 -0.7481
  363MOL0     H48941   2.382   3.774   5.006 -2.1374 -2.8074  3.0362
  363MOL0     H48942   2.375   3.715   4.766  0.5303 -0.6051 -0.1821
  363MOL0     H48943   2.202   3.694   4.773  0.0461  0.6736  0.5158
  363MOL0     H48944   2.251   3.492   4.934  0.3740 -0.5790  1.0527
  363MOL0     H48945   2.413   3.554   4.941  1.3566 -1.4327 -3.4066
  363MOL0     H48946   2.296   3.468   4.680  0.5313  0.2322 -0.5822
  363MOL0     H48947   2.474   3.478   4.729 -1.3778  3.7715  1.1394
  363MOL0     H48948   2.250   3.285   4.835  0.0468  0.6852 -0.6533
  363MOL0     H48949   2.350   3.236   4.711 -2.1004  1.9254 -1.0264
  363MOL0     H48950   2.561   3.259   4.855  0.5172  2.1878 -0.7841
  363MOL0     H48951   2.475   3.323   4.976  1.3284  2.2633 -2.2294
  363MOL0     H48952   2.503   3.042   4.987 -0.4195 -0.3653  1.4892
  363MOL0     H48953   2.383   3.039   4.849 -0.0980 -0.6656 -0.0146
  363MOL0     H48954   2.207   3.104   4.989 -1.5567 -2.9305  0.0054
  363MOL0     H48955   2.295   2.981   5.071 -2.0947  0.6180 -0.0745
  363MOL0     H48956   2.259   3.378   5.084  3.2400  1.1531  0.6191
  363MOL0     H48957   2.287   3.557   5.271  1.8995 -0.1883 -1.9814
  363MOL0     H48958   2.283   3.510   5.439  1.2422  1.4447  0.3276
  363MOL0     H48959   2.531   3.467   5.406 -1.9651 -0.4694  0.1159
  363MOL0     H48960   2.518   3.517   5.236  1.4924  1.9264 -0.0668
  363MOL0     H48961   2.470   3.692   5.480 -0.6883  2.0616  0.7595
  363MOL0     H48962   2.474   3.747   5.305  0.7407 -0.6989 -0.1694
  363MOL0     H48963   2.674   3.805   5.395 -0.7247 -0.7218  1.5781
  363MOL0     H48964   2.722   3.660   5.298 -1.3742 -3.8122 -0.2039
  363MOL0     H48965   2.851   3.866   5.477  0.5394  0.7901  0.5215
  363MOL0     H48966   3.025   3.946   5.615 -1.0958  0.9827  0.7632
  363MOL0     H48967   3.173   4.042   6.044 -4.7669 -1.7897 -0.2338
  363MOL0     H48968   3.247   4.129   6.260  1.2617  0.2464 -2.0347
  363MOL0     H48969   3.443   3.846   6.519 -0.0621 -0.1275 -1.1882
  363MOL0     H48970   3.514   4.002   6.474 -1.0674  2.0801 -1.0869
  363MOL0     H48971   3.341   3.972   6.721 -2.2567  3.6889 -1.2126
  363MOL0     H48972   3.522   3.946   6.723 -0.8577 -3.1554 -2.6376
  363MOL0     H48973   3.549   4.185   6.643  0.0858  3.4717  2.1016
  363MOL0     H48974   3.368   4.197   6.649  0.7973  2.5110  1.7920
  363MOL0     H48975   3.534   4.150   6.898  1.4302  0.5755 -1.9001
  363MOL0     H48976   3.365   4.169   6.892  1.9098 -2.6023  2.7506
  363MOL0     H48977   3.574   4.389   6.825  0.2029  1.2699 -0.2042
  363MOL0     H48978   3.501   4.352   6.973  0.8311  1.0009 -0.4163
  363MOL0     H48979   3.326   4.402   6.712 -1.2515 -1.6284  0.9503
  363MOL0     H48980   3.270   4.410   6.867  1.5894 -1.8195  0.2739
  363MOL0     H48981   3.306   4.632   6.808 -0.9773 -1.9720 -2.2659
  363MOL0     H48982   3.479   4.618   6.767 -2.5620  0.6019 -3.5492
  363MOL0     H48983   3.381   4.560   7.056 -1.6312  0.2032 -0.1686
  363MOL0     H48984   3.549   4.589   7.007  0.5165  3.1018  0.2874
  363MOL0     H48985   3.274   3.726   6.411  2.2912 -0.7121 -0.3699
  363MOL0     H48986   3.163   3.652   6.191 -2.7245  1.8622 -3.1836
  363MOL0     H48987   2.978   3.598   5.882  1.1859  0.0783 -0.4106
  363MOL0     H48988   2.812   3.524   5.743  0.2681  1.2520  1.7049
  363MOL0     H48989   2.032   3.690   5.235 -2.0642 -2.3225 -1.2587
  363MOL0     H48990   1.795   3.788   5.257  1.4630  2.3625  1.0412
  363MOL0     H48991   1.346   3.648   4.980  1.1995 -0.0578  1.9926
  363MOL0     H48992   1.113   3.699   4.980 -1.4455  2.1687  1.3159
  363MOL0     H48993   0.908   3.797   5.102 -0.9393 -1.5791 -1.2839
  363MOL0     H48994   0.923   3.794   4.929  0.6864  0.1010  0.7888
  363MOL0     H48995   0.748   3.995   5.095  1.1246 -1.2713  0.8977
  363MOL0     H48996   0.689   3.861   4.999 -1.9375  1.8512  0.1415
  363MOL0     H48997   0.786   4.000   4.801  2.8462  1.7741 -0.5318
  363MOL0     H48998   0.847   4.112   4.928  2.2817 -2.2157 -1.0477
  363MOL0     H48999   0.614   4.204   4.975 -1.7860 -0.4117  0.3724
  363MOL0     H49000   0.619   4.182   4.802  0.4192 -0.7907  0.3287
  363MOL0     H49001   0.303   3.946   4.959 -0.1651  0.1487 -2.2749
  363MOL0     H49002   1.199   4.097   5.096  0.0920 -0.6333 -0.4076
  363MOL0     H49003   1.397   4.191   5.053 -0.7791 -1.1892 -2.7932
  363MOL0     H49004   1.512   4.110   5.170 -1.5754 -1.8293  0.5502
  363MOL0     H49005   1.549   4.117   5.010  0.1150  2.7193  0.3464
  364MOL0     O49006  11.129   9.071   9.412 -0.6840  0.1339  0.6569
  364MOL0     C49007  11.093   9.186   9.431  0.0216 -0.9100 -1.2148
  364MOL0     O49008  10.980   9.217   9.505  0.1519 -0.3256 -1.1089
  364MOL0     C49009  10.884   9.122   9.542 -0.1840  0.0646 -0.6449
  364MOL0     C49010  10.918   9.030   9.643  0.0686 -0.1256  0.6849
  364MOL0     C49011  10.834   8.932   9.685  0.0454  0.0785  0.3290
  364MOL0     C49012  10.700   8.923   9.637  0.5378  0.8848 -0.1935
  364MOL0     O49013  10.610   8.822   9.663  0.5101  0.2362  0.0453
  364MOL0     C49014  10.636   8.736   9.784  0.7073 -1.6028  0.1270
  364MOL0     C49015  10.524   8.634   9.774  0.1404  0.0027 -0.1074
  364MOL0     C49016  10.542   8.533   9.650 -0.7318  0.0203 -0.2006
  364MOL0     C49017  10.425   8.443   9.626 -0.0441 -0.4515  0.1850
  364MOL0     C49018  10.312   8.537   9.575 -0.2928  0.3447 -0.4261
  364MOL0     C49019  10.198   8.444   9.523 -1.6827 -0.4739 -0.4252
  364MOL0     C49020  10.062   8.509   9.514 -0.2579 -0.1562  0.1198
  364MOL0     C49021   9.957   8.422   9.451  0.1670  0.5475  0.8700
  364MOL0     N49022   9.893   8.320   9.549  0.3192 -0.2344 -0.0417
  364MOL0     C49023   9.877   8.184   9.520  0.4101  0.3470  0.2021
  364MOL0     C49024   9.797   8.138   9.626  0.2619  0.1553 -0.3734
  364MOL0     C49025   9.749   7.991   9.630  0.7515  0.2394 -0.1085
  364MOL0     C49026   9.631   7.975   9.728  1.4825  0.3353 -0.1374
  364MOL0     C49027   9.482   8.021   9.682 -1.1108  0.8547 -1.0338
  364MOL0     C49028   9.439   7.964   9.544 -0.1731 -0.3996 -0.4918
  364MOL0     O49029   9.497   8.028   9.432 -0.3384  0.2225 -0.3316
  364MOL0     C49030   9.429   8.121   9.366 -0.4224  0.3807  0.8229
  364MOL0     C49031   9.352   8.081   9.252  0.7977  0.0367 -0.3964
  364MOL0     C49032   9.295   8.179   9.173  0.0716 -0.1591  0.0516
  364MOL0     C49033   9.303   8.316   9.201  0.5084  0.4018 -1.3105
  364MOL0     C49034   9.231   8.421   9.118  0.2347  0.1767 -0.5297
  364MOL0     O49035   9.152   8.375   9.013  0.0912 -0.2786  0.2464
  364MOL0     C49036   9.081   8.458   8.927 -0.0109 -1.3148 -0.2250
  364MOL0     C49037   9.145   8.540   8.827 -0.0118 -0.4436 -0.0829
  364MOL0     C49038   9.069   8.616   8.743  0.4287  0.8327 -0.3725
  364MOL0     C49039   8.933   8.629   8.745  0.0656  0.2691  0.6412
  364MOL0     O49040   8.873   8.690   8.645 -0.1831  0.3727 -0.1123
  364MOL0     C49041   8.733   8.663   8.619 -0.2129 -0.0671  0.5573
  364MOL0     C49042   8.684   8.717   8.491  0.0685 -0.0583 -0.9571
  364MOL0     C49043   8.535   8.683   8.466  0.6366  0.4510  0.2503
  364MOL0     C49044   8.493   8.744   8.331  0.7095 -0.9137 -0.4014
  364MOL0     C49045   8.356   8.710   8.282  0.5794  0.7887  1.1015
  364MOL0     C49046   8.329   8.780   8.148  0.1215  0.2459  0.7297
  364MOL0     C49047   8.180   8.763   8.113 -0.1620  0.2969 -0.7230
  364MOL0     C49048   8.156   8.799   7.971  0.0599  0.5514  0.2578
  364MOL0    Cl49049   7.985   8.791   7.940 -0.0371  0.3019  0.1392
  364MOL0     C49050   8.869   8.550   8.846 -1.0302 -0.7154  0.5365
  364MOL0     C49051   8.943   8.470   8.935  0.4824 -0.4621  0.6028
  364MOL0     O49052   9.249   8.538   9.151  0.2895 -0.3406  0.0060
  364MOL0     C49053   9.369   8.345   9.317  0.0527 -0.6408 -0.1285
  364MOL0     C49054   9.442   8.255   9.392  0.0644 -0.6153  0.3056
  364MOL0     N49055   9.760   8.245   9.711 -0.2388  0.0696  0.2006
  364MOL0     N49056   9.830   8.348   9.669  0.3616 -0.3825 -0.2126
  364MOL0     C49057  10.658   9.015   9.533 -0.0564 -0.2142 -0.1559
  364MOL0     C49058  10.756   9.111   9.489  0.9629 -0.0663  0.3460
  364MOL0     C49059  11.194   9.295   9.400 -0.2384  0.4655 -0.9350
  364MOL0     C49060  11.170   9.420   9.460 -0.0473 -0.1567  0.1273
  364MOL0     C49061  11.255   9.532   9.433  0.5772  0.3771  0.5466
  364MOL0     C49062  11.373   9.514   9.354 -0.4025  0.5658  0.1906
  364MOL0     O49063  11.440   9.631   9.325  0.4500 -0.6413  0.1414
  364MOL0     C49064  11.572   9.626   9.280  0.3011 -0.6514  0.6287
  364MOL0     C49065  11.626   9.763   9.227  0.3536 -0.4580 -0.4933
  364MOL0     C49066  11.639   9.864   9.344  0.4835  1.0083  0.2008
  364MOL0     C49067  11.517   9.964   9.353 -0.7251 -0.1480 -1.2387
  364MOL0     C49068  11.549  10.042   9.471  0.0342 -0.1769  0.6252
  364MOL0     C49069  11.580  10.111   9.567 -1.1770 -0.3204 -0.1107
  364MOL0     C49070  11.401   9.393   9.302 -0.1988 -0.3151  0.0278
  364MOL0     C49071  11.311   9.285   9.310  0.1724  0.2746 -0.1469
  364MOL0     C49072  11.341   9.157   9.225 -0.1433 -0.3305  0.6729
  364MOL0     H49073  11.017   9.048   9.684 -1.1831  2.0417  3.0119
  364MOL0     H49074  10.870   8.857   9.754  1.0458  1.2468  1.1216
  364MOL0     H49075  10.731   8.682   9.784  1.8439  0.1858 -2.2114
  364MOL0     H49076  10.626   8.800   9.872  3.4229  0.7518 -1.1167
  364MOL0     H49077  10.427   8.686   9.773 -1.5527 -2.8661  1.2234
  364MOL0     H49078  10.524   8.574   9.865  2.7994 -1.9344 -1.2874
  364MOL0     H49079  10.634   8.476   9.664 -0.4527  0.8129  1.3392
  364MOL0     H49080  10.552   8.597   9.561 -4.5625  0.5497 -0.4475
  364MOL0     H49081  10.438   8.359   9.557 -0.5105 -1.0260  0.7865
  364MOL0     H49082  10.396   8.388   9.715  0.6156 -2.1155 -0.5881
  364MOL0     H49083  10.260   8.603   9.645 -0.4007 -0.0882 -0.0936
  364MOL0     H49084  10.353   8.580   9.483  0.4646 -0.5499 -0.5213
  364MOL0     H49085  10.228   8.402   9.426 -1.9408 -1.7194  0.0126
  364MOL0     H49086  10.189   8.355   9.585  0.1058 -1.0412 -0.9310
  364MOL0     H49087  10.081   8.596   9.451  2.9902 -1.5107 -0.9814
  364MOL0     H49088  10.031   8.540   9.614 -2.2532 -0.5615 -0.3338
  364MOL0     H49089   9.870   8.470   9.407 -0.6446 -1.5501  0.0811
  364MOL0     H49090  10.010   8.358   9.380  0.6882  0.3024  1.4637
  364MOL0     H49091   9.928   8.127   9.442  0.7531 -4.6200  3.6044
  364MOL0     H49092   9.739   7.953   9.529  0.1200  0.3860 -0.1014
  364MOL0     H49093   9.835   7.937   9.671  1.3765 -0.4407 -2.2025
  364MOL0     H49094   9.622   7.872   9.764  1.4255  0.2906 -0.2805
  364MOL0     H49095   9.660   8.025   9.821  0.0734  0.7210  0.1127
  364MOL0     H49096   9.478   8.130   9.673  2.7935  1.2838  0.3819
  364MOL0     H49097   9.415   7.989   9.762  2.4206 -2.1858  1.0501
  364MOL0     H49098   9.333   7.985   9.528 -0.0895  2.3150  1.7478
  364MOL0     H49099   9.470   7.859   9.546  1.4676  0.0633 -0.5351
  364MOL0     H49100   9.346   7.973   9.249 -1.3780  0.1432 -1.4858
  364MOL0     H49101   9.239   8.143   9.087 -1.6491 -1.3286  1.5803
  364MOL0     H49102   9.253   8.542   8.811  0.0090 -0.2657  0.0779
  364MOL0     H49103   9.132   8.662   8.667  1.5695 -1.2518 -0.7732
  364MOL0     H49104   8.734   8.556   8.599 -2.1240  0.0739 -0.4594
  364MOL0     H49105   8.661   8.687   8.697 -3.1318  1.4994 -2.3935
  364MOL0     H49106   8.693   8.825   8.482  0.4736 -0.0489 -0.5148
  364MOL0     H49107   8.746   8.669   8.415 -0.4182 -1.7681 -0.3264
  364MOL0     H49108   8.532   8.574   8.460  0.3385  0.4091  0.9714
  364MOL0     H49109   8.470   8.723   8.544  0.8730  1.1870  0.0731
  364MOL0     H49110   8.563   8.713   8.253 -0.2071 -1.2073 -1.1249
  364MOL0     H49111   8.496   8.853   8.346 -3.9075 -0.7930  0.8194
  364MOL0     H49112   8.289   8.757   8.354 -1.1884  5.6968 -3.1539
  364MOL0     H49113   8.341   8.601   8.283  2.0820  0.5104 -0.7548
  364MOL0     H49114   8.340   8.889   8.149 -3.1430  0.7951 -2.1200
  364MOL0     H49115   8.401   8.741   8.075 -1.8724 -0.1036 -1.1587
  364MOL0     H49116   8.125   8.822   8.187  0.9388  0.6564 -0.1530
  364MOL0     H49117   8.151   8.658   8.122 -0.7898  0.2142 -3.1225
  364MOL0     H49118   8.192   8.900   7.948 -0.2608  0.6745  0.2807
  364MOL0     H49119   8.222   8.736   7.912  2.7634  4.0770 -0.8383
  364MOL0     H49120   8.761   8.546   8.851 -0.9752 -2.2633  0.8240
  364MOL0     H49121   8.891   8.410   9.009  0.0540  0.6072  1.2041
  364MOL0     H49122   9.372   8.448   9.351 -0.2515 -1.1417  1.5116
  364MOL0     H49123   9.499   8.281   9.481  1.7008 -0.6353 -0.6972
  364MOL0     H49124  10.560   9.022   9.487  1.2730 -0.1465 -3.2830
  364MOL0     H49125  10.738   9.190   9.416  1.6404  0.3476  0.6071
  364MOL0     H49126  11.077   9.428   9.515  1.1697  1.1590  2.1408
  364MOL0     H49127  11.225   9.620   9.489 -1.0982 -1.1646  2.1997
  364MOL0     H49128  11.601   9.563   9.195  1.7292 -1.1592  1.4558
  364MOL0     H49129  11.641   9.595   9.359 -0.8451 -3.0962  0.7726
  364MOL0     H49130  11.553   9.800   9.155 -2.2334 -0.4079  2.0102
  364MOL0     H49131  11.720   9.756   9.170 -0.2239  3.5133 -2.2694
  364MOL0     H49132  11.731   9.921   9.329  1.1219  0.9168  3.2245
  364MOL0     H49133  11.643   9.812   9.440  0.2031 -0.8969 -0.7688
  364MOL0     H49134  11.523  10.036   9.270  0.9330  0.9634 -0.2215
  364MOL0     H49135  11.417   9.921   9.365 -0.9435  0.2536 -1.5803
  364MOL0     H49136  11.616  10.154   9.659 -1.7272  1.2582 -0.6072
  364MOL0     H49137  11.492   9.384   9.244 -0.0021  4.2119 -0.7126
  364MOL0     H49138  11.410   9.179   9.143  1.5559 -0.8178  1.9286
  364MOL0     H49139  11.376   9.083   9.297  0.4048  1.1810  2.0294
  364MOL0     H49140  11.247   9.123   9.182 -1.0616  0.9544  1.5837
  365MOL0     O49141   7.415   5.972   7.999  0.6456 -0.4895 -0.0730
  365MOL0     C49142   7.419   5.987   7.879 -0.0054  0.2573  0.7384
  365MOL0     O49143   7.410   6.102   7.805 -0.1776 -0.5873  0.2106
  365MOL0     C49144   7.406   6.219   7.882  0.5149  0.2949  0.6262
  365MOL0     C49145   7.297   6.305   7.876  0.4582 -0.0285  0.0997
  365MOL0     C49146   7.291   6.423   7.957 -0.4931  0.2574  0.3114
  365MOL0     C49147   7.404   6.453   8.037 -1.1767 -0.6037  1.1496
  365MOL0     O49148   7.417   6.575   8.101  0.4701  0.2952 -1.1824
  365MOL0     C49149   7.291   6.641   8.155  0.2929  0.8501  0.0471
  365MOL0     C49150   7.342   6.762   8.215 -0.3331  0.0481  0.0471
  365MOL0     C49151   7.414   6.726   8.344  0.5057 -0.7182 -0.5133
  365MOL0     C49152   7.497   6.844   8.382  0.5536  0.3948 -0.7368
  365MOL0     C49153   7.632   6.832   8.305  0.1574 -0.5613 -1.0154
  365MOL0     C49154   7.733   6.936   8.347 -0.5918  0.5380  0.0070
  365MOL0     C49155   7.828   6.971   8.233 -1.0257  0.6964  0.6009
  365MOL0     C49156   7.932   6.860   8.216 -0.5274 -0.1282  1.3174
  365MOL0     N49157   8.032   6.900   8.123 -1.2037 -0.4166 -0.0471
  365MOL0     C49158   8.167   6.908   8.161  0.5968  0.7012  0.7588
  365MOL0     C49159   8.242   6.917   8.044  0.8301 -0.1899 -0.1247
  365MOL0     C49160   8.391   6.915   8.041 -0.1068  0.1445 -0.6242
  365MOL0     C49161   8.447   6.773   8.062 -0.1921 -0.8176  0.1225
  365MOL0     C49162   8.406   6.711   8.197  0.0282 -0.4780  0.3611
  365MOL0     C49163   8.488   6.598   8.251  0.0430  0.0111 -1.1127
  365MOL0     O49164   8.622   6.634   8.292 -0.1318 -0.2337 -0.2043
  365MOL0     C49165   8.644   6.702   8.408 -0.2033  0.3956 -0.1419
  365MOL0     C49166   8.753   6.788   8.418 -0.3039  0.4486 -0.0626
  365MOL0     C49167   8.788   6.853   8.534  0.7887 -0.8180 -0.5821
  365MOL0     C49168   8.717   6.821   8.651 -0.3094 -0.0028  0.0691
  365MOL0     C49169   8.772   6.874   8.781 -0.9060  0.2908 -0.3879
  365MOL0     O49170   8.779   7.004   8.803 -0.3850 -0.1834 -0.5188
  365MOL0     C49171   8.886   7.049   8.877 -0.2133 -0.0498  0.9323
  365MOL0     C49172   8.882   7.053   9.018  0.5389  0.3056  0.0683
  365MOL0     C49173   8.992   7.117   9.079  0.5983 -1.2250 -0.0160
  365MOL0     C49174   9.105   7.167   9.019  0.1949  0.5259 -0.4835
  365MOL0     O49175   9.208   7.215   9.105 -0.3739 -0.1082  0.1188
  365MOL0     C49176   9.307   7.116   9.130  0.0493 -0.2776 -1.0816
  365MOL0     C49177   9.399   7.100   9.015 -0.2987  0.1962  0.1873
  365MOL0     C49178   9.534   7.028   9.042  0.3522  0.0699 -0.1375
  365MOL0     C49179   9.626   7.099   9.138 -0.1655  0.1359 -0.5958
  365MOL0     C49180   9.776   7.065   9.110  0.0824 -0.5688 -0.5820
  365MOL0     C49181   9.860   7.148   9.205  0.5546 -0.7178 -1.4645
  365MOL0     C49182  10.010   7.101   9.191 -0.1148  0.3640 -0.9946
  365MOL0     C49183  10.034   6.969   9.265 -0.0307  0.3681 -0.5906
  365MOL0    Cl49184  10.021   6.823   9.160 -0.1395 -0.1250 -0.3225
  365MOL0     C49185   9.108   7.152   8.876 -1.3819  0.8553 -1.0645
  365MOL0     C49186   9.003   7.105   8.809  0.1911  0.3977 -0.2952
  365MOL0     O49187   8.784   6.785   8.861  0.7969  0.0919 -0.6476
  365MOL0     C49188   8.608   6.734   8.652 -0.0620 -0.4034  0.5817
  365MOL0     C49189   8.572   6.674   8.529  0.3557  0.5704 -0.1397
  365MOL0     N49190   8.159   6.908   7.937 -0.2835 -0.0137 -0.0458
  365MOL0     N49191   8.034   6.890   7.985 -0.1208  0.3138  0.2315
  365MOL0     C49192   7.505   6.363   8.035 -0.5100 -0.6349 -0.7027
  365MOL0     C49193   7.510   6.249   7.959 -0.5020  0.1624  0.3373
  365MOL0     C49194   7.448   5.865   7.797  0.2368  0.1562 -0.6530
  365MOL0     C49195   7.381   5.744   7.838  0.0360  0.3530  0.3196
  365MOL0     C49196   7.383   5.631   7.752 -0.4673  0.0083  0.0828
  365MOL0     C49197   7.470   5.636   7.645 -0.7972 -0.2994  0.2056
  365MOL0     O49198   7.487   5.528   7.556  0.6396 -0.1722  0.3132
  365MOL0     C49199   7.384   5.427   7.539 -0.0417  0.2373  0.4529
  365MOL0     C49200   7.439   5.305   7.458 -0.6364  0.3292  0.0965
  365MOL0     C49201   7.339   5.238   7.365  0.1473 -0.1182  0.8209
  365MOL0     C49202   7.392   5.152   7.249  0.1942 -0.2610 -0.6741
  365MOL0     C49203   7.489   5.225   7.176  0.2375 -0.4337 -0.4636
  365MOL0     C49204   7.571   5.294   7.121  0.3442 -0.0147  1.1954
  365MOL0     C49205   7.549   5.744   7.616 -0.3433 -0.1381  0.1299
  365MOL0     C49206   7.540   5.863   7.689  0.1614 -0.0810  0.9020
  365MOL0     C49207   7.622   5.984   7.645  0.6955 -0.2476 -0.3263
  365MOL0     H49208   7.209   6.282   7.817  1.6371  3.1188 -3.2201
  365MOL0     H49209   7.200   6.482   7.951 -1.3628 -0.8053  2.1226
  365MOL0     H49210   7.220   6.648   8.072  2.7136 -1.3982 -2.4314
  365MOL0     H49211   7.249   6.581   8.237 -3.1083  0.7676 -1.5683
  365MOL0     H49212   7.262   6.834   8.232 -1.7375 -1.4546  0.1289
  365MOL0     H49213   7.417   6.807   8.150  2.3005  1.1855  3.5976
  365MOL0     H49214   7.477   6.637   8.334  2.3874  0.7473 -2.7091
  365MOL0     H49215   7.335   6.724   8.419  1.9777 -0.3455  1.1287
  365MOL0     H49216   7.449   6.940   8.361 -1.0909 -0.2975 -0.3050
  365MOL0     H49217   7.522   6.834   8.488  0.3325 -0.3935 -0.7550
  365MOL0     H49218   7.676   6.734   8.324  0.1204 -0.7777 -2.0435
  365MOL0     H49219   7.615   6.835   8.197  2.3736  2.1495 -1.4085
  365MOL0     H49220   7.685   7.032   8.365  2.3109  2.4006 -1.4068
  365MOL0     H49221   7.781   6.913   8.443 -1.5970  0.3651  0.4839
  365MOL0     H49222   7.875   7.069   8.242 -3.2099  1.9295 -0.6583
  365MOL0     H49223   7.775   6.968   8.137 -0.5159 -2.9211  0.2879
  365MOL0     H49224   7.977   6.829   8.311  0.2910 -2.0780  0.3600
  365MOL0     H49225   7.887   6.770   8.173 -1.3000  0.3334  1.1377
  365MOL0     H49226   8.206   6.888   8.260  2.7899 -0.8930 -0.3442
  365MOL0     H49227   8.423   6.955   7.944  0.6026 -0.0729 -0.4824
  365MOL0     H49228   8.431   6.982   8.117  1.0333 -1.2738  0.0657
  365MOL0     H49229   8.406   6.704   7.988  1.9381 -0.4679 -1.4820
  365MOL0     H49230   8.556   6.773   8.057 -0.2349 -0.8832 -1.2553
  365MOL0     H49231   8.305   6.673   8.178 -1.1736  2.8904 -0.7696
  365MOL0     H49232   8.403   6.783   8.279 -1.3693 -2.3079  1.9787
  365MOL0     H49233   8.498   6.524   8.171  1.4555  0.9622 -1.8537
  365MOL0     H49234   8.435   6.552   8.335  0.2975 -0.7112 -1.3424
  365MOL0     H49235   8.821   6.810   8.336  1.1757 -0.9467  0.7429
  365MOL0     H49236   8.855   6.936   8.517  0.1196 -0.3701 -1.0471
  365MOL0     H49237   8.804   7.007   9.076  1.6471 -0.0670  1.3265
  365MOL0     H49238   8.984   7.116   9.188 -1.0899  1.7516 -0.0279
  365MOL0     H49239   9.372   7.156   9.208  2.5042 -3.4113 -1.3101
  365MOL0     H49240   9.279   7.015   9.160 -1.5203  0.6904  1.0304
  365MOL0     H49241   9.336   7.040   8.948 -0.1781  1.3636 -1.0038
  365MOL0     H49242   9.417   7.201   8.978 -0.0292  0.3009  0.5941
  365MOL0     H49243   9.510   6.932   9.088  1.2824  0.6094  1.5665
  365MOL0     H49244   9.576   7.009   8.942  0.5796  1.2663 -0.2903
  365MOL0     H49245   9.599   7.068   9.240  3.4769  3.3553  1.5967
  365MOL0     H49246   9.599   7.204   9.144  1.0791  0.4623  4.8496
  365MOL0     H49247   9.807   7.107   9.014 -0.5381  0.5908 -0.3053
  365MOL0     H49248   9.800   6.959   9.117 -1.3488 -0.8810 -0.0775
  365MOL0     H49249   9.842   7.255   9.191  0.7924 -0.3560  0.6178
  365MOL0     H49250   9.826   7.132   9.308 -0.7714  2.9897 -1.1504
  365MOL0     H49251  10.068   7.180   9.241 -0.8886 -0.7446  1.8956
  365MOL0     H49252  10.034   7.093   9.085  0.4531  0.7972 -0.8991
  365MOL0     H49253  10.135   6.974   9.306 -0.5728  2.2942  0.6262
  365MOL0     H49254   9.953   6.961   9.338 -1.2310 -3.5975 -2.0794
  365MOL0     H49255   9.193   7.186   8.818  1.9465 -0.5510  2.5440
  365MOL0     H49256   9.025   7.109   8.703  1.8475 -0.3276 -0.0209
  365MOL0     H49257   8.556   6.704   8.742  0.0071  1.0771  1.1428
  365MOL0     H49258   8.489   6.606   8.544  1.6199 -0.5701  2.3662
  365MOL0     H49259   7.595   6.394   8.088  0.5056 -0.4292 -2.4746
  365MOL0     H49260   7.600   6.187   7.956 -0.7758 -0.2500  0.4762
  365MOL0     H49261   7.315   5.740   7.924 -0.5015 -1.6267 -0.1098
  365MOL0     H49262   7.323   5.543   7.769 -0.2025  0.0397  1.2905
  365MOL0     H49263   7.283   5.458   7.509 -0.4273  1.0475  2.4288
  365MOL0     H49264   7.364   5.390   7.640 -0.7220 -0.3088  0.1334
  365MOL0     H49265   7.486   5.243   7.535 -1.4414  0.0635  0.3739
  365MOL0     H49266   7.521   5.348   7.399 -2.5893  1.4325 -1.9473
  365MOL0     H49267   7.282   5.317   7.315  0.0803 -0.0293  1.0354
  365MOL0     H49268   7.275   5.179   7.432  0.7577  0.0942  1.6050
  365MOL0     H49269   7.419   5.050   7.276 -1.7837  0.2026  4.2287
  365MOL0     H49270   7.307   5.142   7.181  0.8239 -2.3931 -1.1883
  365MOL0     H49271   7.641   5.358   7.071 -1.4836 -0.6154 -2.5231
  365MOL0     H49272   7.625   5.749   7.539 -0.6610  0.5453 -0.1523
  365MOL0     H49273   7.558   6.070   7.621  0.0614 -0.3989  0.7731
  365MOL0     H49274   7.708   6.006   7.708 -1.1385  1.1051  1.8705
  365MOL0     H49275   7.665   5.958   7.548 -1.2618  0.0564 -1.3356
  366MOL0     O49276   8.993   1.241   9.232  0.0478 -0.8899 -0.6372
  366MOL0     C49277   8.917   1.296   9.309 -0.2194 -0.3819  0.0206
  366MOL0     O49278   8.946   1.321   9.441  0.5380 -0.3203 -0.3499
  366MOL0     C49279   9.078   1.291   9.485  1.0122  0.6001  0.5884
  366MOL0     C49280   9.190   1.330   9.408  0.8888 -1.5646 -0.7207
  366MOL0     C49281   9.320   1.307   9.450  0.0469 -0.4078  0.0222
  366MOL0     C49282   9.346   1.234   9.564  0.0310  0.3196 -0.2815
  366MOL0     O49283   9.478   1.209   9.608 -0.2125 -0.6407  1.0609
  366MOL0     C49284   9.569   1.322   9.617  0.0225 -0.1685 -0.0733
  366MOL0     C49285   9.707   1.274   9.676 -0.2399  1.1837 -0.2047
  366MOL0     C49286   9.771   1.167   9.587  0.6088 -0.0772 -0.0685
  366MOL0     C49287   9.917   1.136   9.623 -0.3432  0.9118  0.1332
  366MOL0     C49288   9.970   1.032   9.532 -0.5540 -0.1078 -0.2507
  366MOL0     C49289  10.111   0.981   9.574  0.4444 -0.3543 -1.0585
  366MOL0     C49290  10.094   0.886   9.696  0.5844 -0.1287 -0.2428
  366MOL0     C49291  10.233   0.837   9.739  0.8018 -0.1208 -0.5191
  366MOL0     N49292  10.216   0.759   9.860  0.7418 -0.0123 -0.0203
  366MOL0     C49293  10.188   0.810   9.983  0.4866 -0.5957  0.1920
  366MOL0     C49294  10.208   0.708  10.071 -0.0713 -0.2801  0.0895
  366MOL0     C49295  10.193   0.709  10.219  0.1612  0.8570  0.6356
  366MOL0     C49296  10.331   0.714  10.292  0.6159  0.8514 -0.3898
  366MOL0     C49297  10.310   0.724  10.443  0.0843  0.5458  0.0011
  366MOL0     C49298  10.445   0.703  10.521  0.3485 -0.2474 -0.7277
  366MOL0     O49299  10.534   0.809  10.481  0.1328 -0.2758 -0.1050
  366MOL0     C49300  10.663   0.810  10.529 -0.1804 -1.3238 -1.2309
  366MOL0     C49301  10.716   0.723  10.626  0.5996  0.0515  0.2939
  366MOL0     C49302  10.855   0.739  10.663  0.1267 -0.3379  0.0269
  366MOL0     C49303  10.934   0.840  10.606  0.4575  0.1531  0.2932
  366MOL0     C49304  11.078   0.846  10.638  0.5252  0.1005  0.9087
  366MOL0     O49305  11.114   0.798  10.762 -0.6428  0.7580  1.0993
  366MOL0     C49306  11.227   0.845  10.830 -0.8476 -0.2198  0.8379
  366MOL0     C49307  11.361   0.857  10.785  0.3704  0.0872 -0.4274
  366MOL0     C49308  11.460   0.901  10.878  0.9772  0.4586  1.2627
  366MOL0     C49309  11.433   0.935  11.005 -0.1084 -1.1512 -0.9342
  366MOL0     O49310  11.538   0.960  11.092  0.6652  0.5538  0.0683
  366MOL0     C49311  11.595   0.842  11.150  1.2113 -0.2128 -0.1358
  366MOL0     C49312  11.658   0.878  11.284  0.0065  0.6396 -0.0166
  366MOL0     C49313  11.738   0.766  11.340 -0.3592  0.5152  0.1717
  366MOL0     C49314  11.769   0.763  11.490 -0.6743  0.8876 -1.0693
  366MOL0     C49315  11.842   0.635  11.543  0.5918 -0.3389 -0.2552
  366MOL0     C49316  11.752   0.508  11.537  0.0733 -0.0315  0.1678
  366MOL0     C49317  11.844   0.380  11.543  0.2607  0.0234  0.3586
  366MOL0     C49318  11.764   0.272  11.606  0.1541 -0.3478 -0.1508
  366MOL0    Cl49319  11.720   0.326  11.770 -0.3471 -0.1651  0.0419
  366MOL0     C49320  11.302   0.934  11.052  1.5815 -0.0474  0.5192
  366MOL0     C49321  11.205   0.896  10.959  0.1123 -0.5048  0.0384
  366MOL0     O49322  11.157   0.914  10.561 -0.1873  0.7937 -0.1509
  366MOL0     C49323  10.888   0.919  10.496  0.2443 -0.3964 -0.4208
  366MOL0     C49324  10.750   0.901  10.471 -0.2937 -0.3836 -0.7640
  366MOL0     N49325  10.264   0.603   9.996  0.2088  0.4336  0.5584
  366MOL0     N49326  10.268   0.633   9.874 -0.2389 -0.4800  0.8460
  366MOL0     C49327   9.232   1.191   9.642  0.4261  0.2265 -1.2143
  366MOL0     C49328   9.101   1.225   9.601 -0.6158 -0.0850  0.2275
  366MOL0     C49329   8.781   1.338   9.266  0.4703  0.0838 -0.0884
  366MOL0     C49330   8.761   1.471   9.292 -0.8256  0.4156 -0.0717
  366MOL0     C49331   8.639   1.532   9.257 -0.7223  0.7861  0.5000
  366MOL0     C49332   8.537   1.457   9.197  0.0006 -0.1856 -0.8801
  366MOL0     O49333   8.417   1.521   9.183 -0.0862  0.5327  0.5422
  366MOL0     C49334   8.307   1.438   9.141 -0.0414  0.2249  0.3420
  366MOL0     C49335   8.175   1.513   9.122 -0.2618 -1.2931 -1.5259
  366MOL0     C49336   8.040   1.423   9.123 -0.8789  0.5346  0.4293
  366MOL0     C49337   7.917   1.517   9.087  0.7028  0.3523  0.7813
  366MOL0     C49338   7.799   1.449   9.156 -0.3077 -0.9898 -0.6664
  366MOL0     C49339   7.724   1.374   9.216 -0.8149 -0.7595  0.7677
  366MOL0     C49340   8.572   1.325   9.146 -0.0085  0.4965  0.3549
  366MOL0     C49341   8.698   1.263   9.184  0.5684 -0.2438  0.0228
  366MOL0     C49342   8.726   1.125   9.124  0.4193 -0.0755  0.4181
  366MOL0     H49343   9.178   1.381   9.313 -0.2203  2.3031  1.2566
  366MOL0     H49344   9.400   1.335   9.383 -0.8574 -2.3630 -2.0245
  366MOL0     H49345   9.597   1.357   9.518  1.4805  3.0058  1.3198
  366MOL0     H49346   9.532   1.401   9.683  4.0563  0.3014  1.9112
  366MOL0     H49347   9.681   1.222   9.768 -1.8782  0.6855 -0.9150
  366MOL0     H49348   9.780   1.352   9.702  3.4031 -1.6244 -1.2551
  366MOL0     H49349   9.773   1.197   9.482  1.0819 -0.2861 -0.1213
  366MOL0     H49350   9.707   1.080   9.602 -1.1269  1.0442 -0.6631
  366MOL0     H49351   9.959   1.236   9.606 -0.6151  0.7358 -1.8873
  366MOL0     H49352   9.928   1.110   9.728  1.9990 -1.2564 -0.5629
  366MOL0     H49353   9.901   0.947   9.532  0.8826 -1.3499 -1.2122
  366MOL0     H49354   9.987   1.064   9.428 -2.0383 -2.0437 -1.1508
  366MOL0     H49355  10.151   0.918   9.494  0.7834 -1.1308 -0.2850
  366MOL0     H49356  10.174   1.068   9.597  0.1529 -0.4588  0.2165
  366MOL0     H49357  10.029   0.800   9.675 -1.4199  1.3423 -0.4035
  366MOL0     H49358  10.038   0.929   9.780 -1.6097 -1.5874 -0.8460
  366MOL0     H49359  10.291   0.791   9.658 -0.5099 -0.3828 -1.3419
  366MOL0     H49360  10.297   0.922   9.763  4.5750 -2.5811 -0.9983
  366MOL0     H49361  10.147   0.907  10.007 -1.4010 -0.7544 -2.0779
  366MOL0     H49362  10.141   0.790  10.271 -2.0813 -1.0446  1.5349
  366MOL0     H49363  10.142   0.614  10.240  0.5875  0.3697 -0.4439
  366MOL0     H49364  10.379   0.617  10.274 -0.4149  0.2090  0.2808
  366MOL0     H49365  10.394   0.799  10.262  0.0003  2.0574  1.5277
  366MOL0     H49366  10.254   0.634  10.469 -0.8043  0.8778 -0.7216
  366MOL0     H49367  10.259   0.814  10.477  2.9267  1.7860  1.3832
  366MOL0     H49368  10.481   0.601  10.508 -0.7950 -0.6105 -1.1788
  366MOL0     H49369  10.403   0.707  10.623 -2.2239 -1.8501 -1.6118
  366MOL0     H49370  10.661   0.648  10.682  1.8084 -1.2360 -0.1961
  366MOL0     H49371  10.896   0.676  10.741  0.0882 -0.8398 -0.3519
  366MOL0     H49372  11.360   0.843  10.677  1.0826  2.8643 -0.9000
  366MOL0     H49373  11.565   0.909  10.852  0.9298  1.7140  1.3920
  366MOL0     H49374  11.517   0.766  11.160  0.2615  0.6925 -0.4439
  366MOL0     H49375  11.678   0.801  11.092  2.6161  1.4224  0.6087
  366MOL0     H49376  11.713   0.971  11.267  0.9202 -0.0336 -0.8691
  366MOL0     H49377  11.585   0.915  11.355 -1.2595 -1.5825 -0.0614
  366MOL0     H49378  11.687   0.677  11.302  2.6527 -0.7826 -1.1340
  366MOL0     H49379  11.839   0.771  11.297 -0.8346 -1.3359 -1.2946
  366MOL0     H49380  11.669   0.786  11.528 -0.8217  2.2762 -2.2080
  366MOL0     H49381  11.830   0.852  11.510 -1.8044  1.1659  1.5786
  366MOL0     H49382  11.867   0.643  11.650 -1.1829  0.1567  0.1599
  366MOL0     H49383  11.925   0.628  11.472 -2.0464  3.0134 -4.1096
  366MOL0     H49384  11.680   0.517  11.618  0.8915 -1.7645  1.1391
  366MOL0     H49385  11.700   0.515  11.441 -0.6927 -2.1313  0.3830
  366MOL0     H49386  11.934   0.400  11.601  2.6972 -5.1484 -1.0215
  366MOL0     H49387  11.879   0.342  11.446 -1.4472  0.0460 -0.3041
  366MOL0     H49388  11.678   0.251  11.543  0.0574 -0.2063 -0.0676
  366MOL0     H49389  11.831   0.185  11.608  0.6049 -0.0057 -0.0334
  366MOL0     H49390  11.281   0.963  11.154 -1.2676 -2.3577  0.7189
  366MOL0     H49391  11.100   0.890  10.987  0.2282  0.7589  0.8208
  366MOL0     H49392  10.950   0.991  10.443  1.1126 -0.1724  0.8551
  366MOL0     H49393  10.696   0.960  10.397 -1.1501  2.3030  1.7617
  366MOL0     H49394   9.242   1.123   9.726  1.8795 -2.6673 -3.5794
  366MOL0     H49395   9.015   1.187   9.655  1.2459 -2.3602  1.8325
  366MOL0     H49396   8.845   1.519   9.342 -1.1388 -0.2875  1.1691
  366MOL0     H49397   8.618   1.633   9.290 -0.2879 -0.2754  4.5423
  366MOL0     H49398   8.294   1.347   9.201  0.0539 -0.2927 -0.4120
  366MOL0     H49399   8.331   1.398   9.042  1.0645 -2.6263  1.6547
  366MOL0     H49400   8.185   1.558   9.023  3.0393 -3.0145 -2.1495
  366MOL0     H49401   8.165   1.582   9.206 -1.5377 -2.0947 -0.9897
  366MOL0     H49402   8.041   1.379   9.223  3.3890  0.9922  0.7764
  366MOL0     H49403   8.046   1.341   9.051  1.5586 -0.5619  1.7403
  366MOL0     H49404   7.925   1.623   9.109 -2.8932  1.3377 -1.6644
  366MOL0     H49405   7.895   1.495   8.982 -0.2906 -0.4063  1.1287
  366MOL0     H49406   7.657   1.303   9.260  0.6559 -3.6487 -1.3177
  366MOL0     H49407   8.498   1.261   9.099  0.2564 -0.2881  0.9820
  366MOL0     H49408   8.640   1.084   9.070  1.2949  2.8379 -3.6462
  366MOL0     H49409   8.813   1.149   9.062  1.2467 -0.1111  1.5183
  366MOL0     H49410   8.753   1.063   9.210 -0.7383  0.7867  1.4358
  367MOL0     O49411   7.088   6.912   4.757 -0.2425  0.2811  0.1981
  367MOL0     C49412   7.054   6.936   4.641 -0.1508  0.3364 -0.5381
  367MOL0     O49413   7.140   6.992   4.542 -0.8975 -0.3619  0.0873
  367MOL0     C49414   7.244   7.070   4.584 -0.1298 -0.1056  0.1017
  367MOL0     C49415   7.357   7.076   4.505 -0.8887  0.2622  0.5192
  367MOL0     C49416   7.480   7.133   4.542 -0.2003 -0.5554  0.6892
  367MOL0     C49417   7.488   7.204   4.664 -0.6943  0.0630 -0.2753
  367MOL0     O49418   7.609   7.257   4.685  0.1423  0.4526  0.1593
  367MOL0     C49419   7.639   7.286   4.820 -0.4898  0.2386  0.7491
  367MOL0     C49420   7.770   7.353   4.835 -0.3900  0.0216  0.7458
  367MOL0     C49421   7.883   7.261   4.794  0.3080 -0.4536 -0.2646
  367MOL0     C49422   8.011   7.320   4.849  0.9216  0.4471 -0.4035
  367MOL0     C49423   8.132   7.244   4.786  0.3640 -0.6469 -0.2203
  367MOL0     C49424   8.136   7.089   4.824 -0.8590  0.0883 -0.6214
  367MOL0     C49425   8.277   7.033   4.785  0.0088  0.7834 -0.7573
  367MOL0     C49426   8.297   6.879   4.819  0.0149 -0.3891  0.5941
  367MOL0     N49427   8.304   6.854   4.963  0.6238  0.2112 -0.5752
  367MOL0     C49428   8.405   6.917   5.033 -0.3761 -0.7481  0.2778
  367MOL0     C49429   8.358   6.932   5.161  0.2063 -0.9714  0.7363
  367MOL0     C49430   8.432   6.993   5.273  0.0890 -0.4152  0.4217
  367MOL0     C49431   8.384   7.140   5.309 -0.0744 -0.5012 -0.6789
  367MOL0     C49432   8.469   7.202   5.431  0.6223 -0.3467  1.2592
  367MOL0     C49433   8.457   7.140   5.577  0.2387  0.0505  0.1590
  367MOL0     O49434   8.319   7.117   5.600 -0.4904 -0.0300 -0.8279
  367MOL0     C49435   8.276   7.027   5.698  0.6864  0.0105  0.2572
  367MOL0     C49436   8.360   6.968   5.789 -0.3264 -0.2339 -0.5971
  367MOL0     C49437   8.309   6.889   5.892 -1.0954 -0.1762 -0.4007
  367MOL0     C49438   8.175   6.863   5.905  0.2317  0.2487 -0.0534
  367MOL0     C49439   8.125   6.779   6.006  0.6696  0.9284  0.6268
  367MOL0     O49440   8.205   6.730   6.099 -0.2527 -0.8096 -0.4653
  367MOL0     C49441   8.164   6.622   6.167  0.8761  0.8158 -0.7569
  367MOL0     C49442   8.046   6.621   6.253 -0.0669  0.0198  0.2235
  367MOL0     C49443   8.009   6.517   6.333  0.5848  0.5982  0.0906
  367MOL0     C49444   8.077   6.394   6.308 -0.5313  0.1889 -0.2467
  367MOL0     O49445   8.024   6.286   6.358  0.4214  0.1104  0.2243
  367MOL0     C49446   7.979   6.194   6.252  0.5485  0.2074  0.0744
  367MOL0     C49447   7.883   6.098   6.307 -0.8474  0.9367 -0.6462
  367MOL0     C49448   7.965   6.001   6.401 -0.3715  0.5998  0.1727
  367MOL0     C49449   8.018   5.877   6.330  0.4072 -0.5415  0.8170
  367MOL0     C49450   8.101   5.787   6.426  0.2760  0.2628 -0.9904
  367MOL0     C49451   8.019   5.737   6.547  0.0524  0.3565 -0.7606
  367MOL0     C49452   8.089   5.628   6.619 -0.5503  0.8095  0.0683
  367MOL0     C49453   8.204   5.667   6.709 -1.1507  0.6778  0.6651
  367MOL0    Cl49454   8.150   5.790   6.824 -0.0446 -0.0414 -0.1054
  367MOL0     C49455   8.192   6.390   6.221 -0.1407  0.8511 -0.7590
  367MOL0     C49456   8.237   6.503   6.162 -0.8547  1.2454 -0.2992
  367MOL0     O49457   8.008   6.742   5.996 -0.4005 -0.4840 -0.6087
  367MOL0     C49458   8.089   6.925   5.817 -0.0819  0.9927  0.9871
  367MOL0     C49459   8.141   6.994   5.712  0.0055  0.2458 -0.4925
  367MOL0     N49460   8.237   6.869   5.166  0.2203  0.5655  0.7120
  367MOL0     N49461   8.205   6.818   5.047 -0.2026  0.7637  0.8677
  367MOL0     C49462   7.377   7.195   4.752 -1.3923 -0.4378 -0.4637
  367MOL0     C49463   7.261   7.130   4.707 -0.2749  0.0266  0.1473
  367MOL0     C49464   6.918   6.885   4.597 -0.4220 -0.2266  0.1954
  367MOL0     C49465   6.913   6.839   4.464  0.1085 -0.0232  0.0859
  367MOL0     C49466   6.788   6.794   4.403  0.8412  0.8913  0.2303
  367MOL0     C49467   6.665   6.813   4.459 -0.1274 -0.4336  0.1221
  367MOL0     O49468   6.553   6.783   4.378 -0.1201 -0.9085 -0.3228
  367MOL0     C49469   6.449   6.718   4.452 -0.3628 -0.4767  0.6017
  367MOL0     C49470   6.343   6.686   4.361 -0.1131  0.9138 -0.6464
  367MOL0     C49471   6.226   6.619   4.440 -0.2681 -1.0199 -1.3834
  367MOL0     C49472   6.119   6.540   4.370 -0.8189 -0.2877 -0.1550
  367MOL0     C49473   6.033   6.452   4.451 -0.2040  1.0285 -0.6130
  367MOL0     C49474   5.945   6.379   4.494 -0.1813 -0.1495 -0.5570
  367MOL0     C49475   6.670   6.853   4.597 -0.2067 -0.3626 -0.1486
  367MOL0     C49476   6.791   6.890   4.662  0.6215  0.9103  0.8676
  367MOL0     C49477   6.793   6.924   4.817  0.0145  0.1135 -0.9020
  367MOL0     H49478   7.360   7.034   4.405 -0.2220 -0.8091  0.9746
  367MOL0     H49479   7.564   7.131   4.473 -0.5175 -3.8522  0.2177
  367MOL0     H49480   7.564   7.363   4.846 -2.1207 -1.4610  1.3242
  367MOL0     H49481   7.616   7.200   4.884  0.0205 -0.1582  0.4028
  367MOL0     H49482   7.782   7.375   4.941  2.0359  3.4697 -0.0998
  367MOL0     H49483   7.783   7.447   4.781  4.1311 -2.1344 -2.6273
  367MOL0     H49484   7.901   7.256   4.686 -0.8699 -1.3481 -0.4400
  367MOL0     H49485   7.866   7.158   4.826 -1.3934  0.1385  0.8236
  367MOL0     H49486   8.021   7.428   4.836 -1.1887  1.1408  2.4645
  367MOL0     H49487   8.012   7.294   4.956  1.5906 -1.3966 -0.8134
  367MOL0     H49488   8.137   7.267   4.679 -2.1025  2.1407  0.1251
  367MOL0     H49489   8.222   7.296   4.822 -0.8370  0.2992  1.5528
  367MOL0     H49490   8.131   7.068   4.931  0.1537  0.3860 -0.5058
  367MOL0     H49491   8.055   7.031   4.779  0.3169 -2.0634 -0.1125
  367MOL0     H49492   8.344   7.104   4.835 -4.3077  3.4314  1.9368
  367MOL0     H49493   8.287   7.055   4.678 -2.7298 -0.1785 -1.2917
  367MOL0     H49494   8.212   6.819   4.782  1.0902 -1.6705  0.1054
  367MOL0     H49495   8.384   6.831   4.774  0.2088 -0.9642  1.5572
  367MOL0     H49496   8.511   6.932   5.011 -0.7052  3.1675  0.7178
  367MOL0     H49497   8.408   6.932   5.360  1.1863 -2.2203 -0.4833
  367MOL0     H49498   8.539   6.991   5.255  0.2066  3.4811 -0.0591
  367MOL0     H49499   8.407   7.206   5.224 -0.4837  1.4232  0.6446
  367MOL0     H49500   8.276   7.134   5.328  0.2626 -0.4714  1.4503
  367MOL0     H49501   8.437   7.307   5.435  0.7098 -0.3009  0.7895
  367MOL0     H49502   8.572   7.205   5.393 -0.3674  3.7871 -1.8942
  367MOL0     H49503   8.483   7.216   5.652 -1.5097  0.6248  0.2510
  367MOL0     H49504   8.522   7.053   5.576  2.3865  1.5731 -0.4650
  367MOL0     H49505   8.468   6.965   5.783 -0.3941 -0.7089 -2.0068
  367MOL0     H49506   8.379   6.857   5.968 -0.8099  0.0305 -0.5747
  367MOL0     H49507   8.008   6.722   6.268 -0.2494 -0.2780  1.9695
  367MOL0     H49508   7.926   6.523   6.402  0.3812 -1.0925  0.0369
  367MOL0     H49509   7.917   6.250   6.182 -0.2545 -2.4217 -1.4538
  367MOL0     H49510   8.064   6.148   6.200 -0.4724 -0.0651 -1.4182
  367MOL0     H49511   7.804   6.146   6.366  1.9772  1.9884  2.5785
  367MOL0     H49512   7.846   6.045   6.218  0.8670  2.0660 -2.1029
  367MOL0     H49513   8.047   6.049   6.456 -1.4566  2.2094  0.4560
  367MOL0     H49514   7.897   5.963   6.478 -3.2243 -1.7512 -3.2307
  367MOL0     H49515   8.078   5.910   6.244 -2.5995  2.5771 -0.3126
  367MOL0     H49516   7.940   5.812   6.290  1.0418 -2.1078  2.0617
  367MOL0     H49517   8.190   5.840   6.463  0.0561  0.0439 -0.1114
  367MOL0     H49518   8.125   5.692   6.376 -0.0058 -0.3658  0.0385
  367MOL0     H49519   7.998   5.825   6.609 -1.4701 -0.2698 -0.3323
  367MOL0     H49520   7.917   5.705   6.521  0.6457 -1.3173 -1.1326
  367MOL0     H49521   8.125   5.561   6.541 -0.9999 -0.8432  1.2372
  367MOL0     H49522   8.016   5.569   6.675 -1.2414  0.2231 -1.3995
  367MOL0     H49523   8.241   5.583   6.769 -0.4513  1.2957  1.1079
  367MOL0     H49524   8.292   5.703   6.655  0.1474 -0.1749  2.1207
  367MOL0     H49525   8.246   6.297   6.202  0.6979  1.2047 -0.1333
  367MOL0     H49526   8.326   6.511   6.101 -1.5707  7.2300 -1.1634
  367MOL0     H49527   7.984   6.924   5.845 -1.7936  0.9740 -4.2020
  367MOL0     H49528   8.078   7.053   5.645  1.4499  0.1280 -2.0210
  367MOL0     H49529   7.384   7.241   4.850 -2.3307  1.1589 -1.1182
  367MOL0     H49530   7.192   7.116   4.789  0.8124  0.7761  1.2260
  367MOL0     H49531   7.003   6.829   4.404 -0.6405  1.0278 -1.2932
  367MOL0     H49532   6.791   6.755   4.301  1.9276  1.9678 -0.1733
  367MOL0     H49533   6.414   6.785   4.530  1.5945  1.5107 -0.1324
  367MOL0     H49534   6.490   6.622   4.486  2.0928  0.3669  0.2635
  367MOL0     H49535   6.375   6.627   4.274 -0.8609 -1.4261  0.5740
  367MOL0     H49536   6.306   6.780   4.319 -3.2096 -0.7148 -1.9808
  367MOL0     H49537   6.173   6.706   4.481  0.2024 -1.6539  0.6560
  367MOL0     H49538   6.258   6.563   4.528 -4.5480  0.6688  1.5779
  367MOL0     H49539   6.049   6.612   4.325 -0.6996 -0.5492 -0.7601
  367MOL0     H49540   6.170   6.482   4.293 -0.1305  0.0122  0.0731
  367MOL0     H49541   5.857   6.329   4.527  0.5827 -1.9254 -1.0548
  367MOL0     H49542   6.584   6.873   4.659  2.1997  2.3247  2.6424
  367MOL0     H49543   6.855   7.013   4.831  2.6834 -1.4539 -1.9616
  367MOL0     H49544   6.692   6.940   4.854  0.9488  1.3342  1.2928
  367MOL0     H49545   6.841   6.841   4.870  2.8147  1.5752 -0.9343
  368MOL0     O49546  10.761  10.442   5.583 -0.7111  0.5174 -0.5769
  368MOL0     C49547  10.816  10.466   5.691 -0.3885 -0.5025 -0.7197
  368MOL0     O49548  10.950  10.488   5.709 -0.7956 -0.5158  0.3850
  368MOL0     C49549  11.029  10.433   5.612  0.5536  0.7068 -0.6044
  368MOL0     C49550  11.023  10.307   5.555 -0.9784 -0.0534 -0.0058
  368MOL0     C49551  11.110  10.264   5.452 -1.1579  0.7340 -0.1944
  368MOL0     C49552  11.216  10.346   5.407  0.2952 -0.4135 -0.1180
  368MOL0     O49553  11.302  10.304   5.313  0.2866 -0.3908  0.6753
  368MOL0     C49554  11.405  10.397   5.256  0.1694  0.5150  0.3893
  368MOL0     C49555  11.499  10.325   5.159 -0.2327  0.0070  0.2888
  368MOL0     C49556  11.570  10.434   5.071 -0.5189  0.1426  0.1600
  368MOL0     C49557  11.688  10.374   4.980 -0.1376  0.0428  0.0532
  368MOL0     C49558  11.721  10.454   4.850 -0.0320 -0.5076  0.2463
  368MOL0     C49559  11.833  10.392   4.767 -0.9073  0.6539 -0.0130
  368MOL0     C49560  11.839  10.458   4.636  0.3012 -0.5650  0.3126
  368MOL0     C49561  11.968  10.419   4.558  0.6453 -0.0860 -1.0114
  368MOL0     N49562  11.976  10.492   4.433 -1.0677 -0.2338  0.4182
  368MOL0     C49563  12.078  10.484   4.334 -0.4598 -0.1654  0.4801
  368MOL0     C49564  12.058  10.586   4.255  0.8548  0.0288  0.6928
  368MOL0     C49565  12.141  10.636   4.144  0.6180 -0.2683  0.4017
  368MOL0     C49566  12.281  10.678   4.200  0.6002  0.7695 -1.0352
  368MOL0     C49567  12.383  10.749   4.107  0.4095 -0.3449  0.2293
  368MOL0     C49568  12.490  10.663   4.040 -0.8233  0.5593 -0.1551
  368MOL0     O49569  12.547  10.567   4.128 -0.6950 -0.0420  0.3113
  368MOL0     C49570  12.660  10.506   4.071  0.3522 -0.1982 -0.3966
  368MOL0     C49571  12.633  10.369   4.044 -0.4481  0.3335  0.1644
  368MOL0     C49572  12.738  10.282   4.011 -0.9048 -0.2694  0.0722
  368MOL0     C49573  12.866  10.335   4.002  0.4138  0.8446  0.3436
  368MOL0     C49574  12.978  10.248   3.975 -1.1458  0.5755  0.1576
  368MOL0     O49575  12.962  10.116   3.957  0.7940  0.0159  0.5683
  368MOL0     C49576  13.066  10.045   3.898 -0.1951 -0.3190 -0.6422
  368MOL0     C49577  13.032   9.964   3.790 -1.0338 -0.1680  0.1977
  368MOL0     C49578  13.124   9.879   3.724 -0.2077  0.6368  0.2685
  368MOL0     C49579  13.258   9.876   3.758 -0.5631  0.2453  0.2387
  368MOL0     O49580  13.341   9.773   3.708  0.8552 -0.5278 -0.3547
  368MOL0     C49581  13.486   9.805   3.702  0.5018  0.9210  0.3501
  368MOL0     C49582  13.557   9.685   3.628  0.7633 -0.2217  0.1898
  368MOL0     C49583  13.707   9.722   3.614  0.5256  0.3375  0.8339
  368MOL0     C49584  13.774   9.619   3.531  0.4808  0.1996 -0.8087
  368MOL0     C49585  13.923   9.656   3.533  0.5842 -0.8976 -0.3512
  368MOL0     C49586  13.992   9.551   3.445 -0.7452 -0.2355 -0.4828
  368MOL0     C49587  14.146   9.583   3.425 -0.4626 -0.2381  0.2846
  368MOL0     C49588  14.225   9.457   3.382  0.3466  0.1483  0.1509
  368MOL0    Cl49589  14.386   9.518   3.347 -0.0824  0.4247 -0.3576
  368MOL0     C49590  13.302   9.967   3.855  0.0782  0.8685 -0.6666
  368MOL0     C49591  13.211  10.045   3.930  0.5057  0.5412 -0.7298
  368MOL0     O49592  13.088  10.298   3.979  1.0635 -0.2026 -0.2687
  368MOL0     C49593  12.890  10.473   4.033  0.1724 -0.5464  0.9715
  368MOL0     C49594  12.783  10.559   4.062 -0.6613 -0.4195  0.3326
  368MOL0     N49595  11.938  10.652   4.292  0.0653  0.0020 -0.6142
  368MOL0     N49596  11.896  10.597   4.400  0.4155  0.4007  0.7759
  368MOL0     C49597  11.225  10.478   5.462  0.7350 -0.5876 -0.0479
  368MOL0     C49598  11.127  10.524   5.557 -0.3414  0.3177  1.0758
  368MOL0     C49599  10.742  10.472   5.815  0.5358 -0.5153  1.2670
  368MOL0     C49600  10.777  10.553   5.923 -0.1990 -0.6555  0.2281
  368MOL0     C49601  10.728  10.543   6.054  0.8101  0.7342  0.5729
  368MOL0     C49602  10.629  10.445   6.078  0.5804  0.3676  0.1378
  368MOL0     O49603  10.581  10.437   6.206  0.0508 -0.7442  0.5058
  368MOL0     C49604  10.542  10.306   6.253 -0.0549 -1.1501  0.4663
  368MOL0     C49605  10.670  10.260   6.340 -0.5083  0.3129  0.5929
  368MOL0     C49606  10.672  10.326   6.480 -1.5215  0.1774 -0.0209
  368MOL0     C49607  10.580  10.251   6.579 -0.1305  0.1573  0.3346
  368MOL0     C49608  10.610  10.108   6.608  0.3704 -0.4803  0.1027
  368MOL0     C49609  10.630   9.990   6.612  0.1290  0.1485 -0.6874
  368MOL0     C49610  10.590  10.364   5.966  0.4437 -0.5098 -1.0706
  368MOL0     C49611  10.666  10.362   5.851 -0.9674 -1.3047 -0.5604
  368MOL0     C49612  10.647  10.242   5.767 -0.2329 -0.5941 -0.4314
  368MOL0     H49613  10.959  10.231   5.599 -0.9315 -0.5781 -0.8252
  368MOL0     H49614  11.096  10.162   5.415 -1.5230 -0.5701  3.1986
  368MOL0     H49615  11.346  10.477   5.211 -2.3340 -2.1532 -1.4739
  368MOL0     H49616  11.462  10.430   5.343  0.6112 -4.1520  2.1867
  368MOL0     H49617  11.451  10.272   5.076  3.9078 -2.5074 -0.7617
  368MOL0     H49618  11.562  10.248   5.203  2.7870  0.7377 -2.3860
  368MOL0     H49619  11.614  10.497   5.149 -1.4563 -1.6569  2.2786
  368MOL0     H49620  11.482  10.478   5.024 -2.1430 -2.5354  0.4957
  368MOL0     H49621  11.776  10.367   5.044 -0.7055  0.4234  0.8918
  368MOL0     H49622  11.661  10.273   4.951 -1.6344 -0.0480  1.6222
  368MOL0     H49623  11.628  10.454   4.792  0.1833 -0.3856 -0.1067
  368MOL0     H49624  11.742  10.561   4.863 -0.1162 -0.4866  0.2131
  368MOL0     H49625  11.916  10.419   4.833 -1.5590 -0.7248  1.4413
  368MOL0     H49626  11.839  10.284   4.754  4.4627  0.4850  1.6550
  368MOL0     H49627  11.844  10.567   4.636  0.4876 -0.4054 -3.7558
  368MOL0     H49628  11.747  10.435   4.582 -0.3804 -2.2643  2.0814
  368MOL0     H49629  12.053  10.459   4.614  1.5591  2.7061 -4.0697
  368MOL0     H49630  11.981  10.311   4.551  0.3530 -0.2757  0.8928
  368MOL0     H49631  12.165  10.420   4.339 -0.8443 -0.6287  1.4600
  368MOL0     H49632  12.134  10.574   4.054 -1.3930  0.5367 -0.0648
  368MOL0     H49633  12.100  10.733   4.113  0.3672 -0.1251  1.1493
  368MOL0     H49634  12.261  10.748   4.281  3.1078  1.9802 -1.3654
  368MOL0     H49635  12.335  10.590   4.236  3.0327  2.6569  0.2476
  368MOL0     H49636  12.429  10.824   4.172 -0.0901  0.6617 -0.5508
  368MOL0     H49637  12.345  10.822   4.036  2.3531  0.3076 -0.1989
  368MOL0     H49638  12.573  10.728   4.010  0.1337 -0.7743 -0.4793
  368MOL0     H49639  12.445  10.633   3.945 -0.4109  2.2315 -0.9201
  368MOL0     H49640  12.533  10.336   4.071  1.2156 -3.5266  2.3204
  368MOL0     H49641  12.731  10.174   4.002  1.4643 -0.6083  1.5547
  368MOL0     H49642  12.934   9.976   3.745 -0.8187  3.2879  0.3576
  368MOL0     H49643  13.077   9.819   3.647 -0.2749  0.0997  0.7201
  368MOL0     H49644  13.504   9.901   3.654 -2.3085  1.8547  0.9721
  368MOL0     H49645  13.523   9.796   3.805 -2.9994  0.5894  1.7211
  368MOL0     H49646  13.544   9.589   3.678 -1.9457  0.4955  1.0260
  368MOL0     H49647  13.502   9.668   3.535  0.5137 -1.7617  0.5926
  368MOL0     H49648  13.719   9.816   3.559 -0.3339  0.2859  0.5432
  368MOL0     H49649  13.743   9.715   3.717 -0.4720 -1.8489  1.1011
  368MOL0     H49650  13.721   9.603   3.437 -2.9399 -1.1540  1.1995
  368MOL0     H49651  13.753   9.529   3.590 -1.5389  2.3111  1.9434
  368MOL0     H49652  13.973   9.671   3.629  1.1499  1.2835 -0.9284
  368MOL0     H49653  13.922   9.753   3.483 -2.9313 -1.3030 -1.2897
  368MOL0     H49654  13.973   9.454   3.491 -2.0014 -0.0057 -0.4917
  368MOL0     H49655  13.946   9.545   3.346  1.5431  1.9041 -1.7959
  368MOL0     H49656  14.178   9.604   3.527 -1.0138  0.9892  0.2199
  368MOL0     H49657  14.162   9.674   3.367 -0.8839  0.2033  0.8492
  368MOL0     H49658  14.216   9.384   3.463 -4.2781 -1.4585 -1.5014
  368MOL0     H49659  14.193   9.415   3.287  1.2051 -0.4630  0.1195
  368MOL0     H49660  13.408   9.975   3.879  0.0409 -0.3981  0.0121
  368MOL0     H49661  13.263  10.096   4.011 -3.1708  1.3624  1.3442
  368MOL0     H49662  12.985  10.520   4.009  0.5566 -3.1814 -3.9175
  368MOL0     H49663  12.806  10.663   4.085  0.9241 -0.3494 -1.3279
  368MOL0     H49664  11.306  10.546   5.437  0.2192 -0.5360 -1.7295
  368MOL0     H49665  11.133  10.623   5.603 -1.1447  0.1763  1.4975
  368MOL0     H49666  10.856  10.623   5.899 -0.4549 -0.0841  0.9766
  368MOL0     H49667  10.753  10.609   6.137  1.6218  2.1462 -0.7385
  368MOL0     H49668  10.530  10.229   6.176  1.0481  0.4082 -1.3593
  368MOL0     H49669  10.454  10.304   6.318 -0.3626 -1.1314  0.0578
  368MOL0     H49670  10.764  10.284   6.290 -0.5406 -3.7705 -1.8625
  368MOL0     H49671  10.669  10.150   6.334 -2.6255  0.3448 -4.7390
  368MOL0     H49672  10.646  10.432   6.471  0.7347  0.6856 -1.2387
  368MOL0     H49673  10.776  10.317   6.512 -1.7641 -0.3444  0.6436
  368MOL0     H49674  10.576  10.305   6.674  1.4158 -0.0090  0.5113
  368MOL0     H49675  10.477  10.263   6.544 -0.2221  0.3797  0.6838
  368MOL0     H49676  10.651   9.887   6.634 -0.9136  0.2098  0.7298
  368MOL0     H49677  10.518  10.284   5.974 -2.6674  2.2438  0.5369
  368MOL0     H49678  10.741  10.199   5.732  0.4574  2.9023 -3.5782
  368MOL0     H49679  10.588  10.168   5.821 -0.2478  0.0141  0.4184
  368MOL0     H49680  10.595  10.264   5.674 -2.3795 -0.8224  0.6562
  369MOL0     O49681   5.237   8.307   5.083  0.7350  0.3802  0.2005
  369MOL0     C49682   5.290   8.218   5.149 -0.4668  0.3720  0.8678
  369MOL0     O49683   5.226   8.138   5.230 -0.4052 -0.1254 -0.4312
  369MOL0     C49684   5.091   8.158   5.248 -0.1202  0.1612 -0.6275
  369MOL0     C49685   4.990   8.068   5.201 -0.1139  0.2845 -0.1202
  369MOL0     C49686   4.854   8.102   5.215 -0.6601  0.3577 -0.0645
  369MOL0     C49687   4.816   8.200   5.306 -0.1483  0.6802  0.4666
  369MOL0     O49688   4.686   8.214   5.327 -0.4900 -0.2736  0.4205
  369MOL0     C49689   4.630   8.258   5.455  0.9774 -0.2995  0.2859
  369MOL0     C49690   4.482   8.199   5.463 -0.0265 -0.6353 -0.5741
  369MOL0     C49691   4.412   8.286   5.569  0.9276  0.3723  0.5966
  369MOL0     C49692   4.441   8.245   5.704  0.4743 -0.2373 -0.2765
  369MOL0     C49693   4.362   8.334   5.802 -0.0758  1.1519  0.5316
  369MOL0     C49694   4.412   8.308   5.942 -1.2246  0.1459 -0.2288
  369MOL0     C49695   4.308   8.354   6.046  0.3827  0.2797  0.2534
  369MOL0     C49696   4.375   8.380   6.187  1.0479 -0.0071  0.2285
  369MOL0     N49697   4.424   8.515   6.189 -0.7051  0.6300  0.5366
  369MOL0     C49698   4.357   8.626   6.245 -0.8632  0.3945  0.0561
  369MOL0     C49699   4.454   8.722   6.242 -1.2244 -0.1044 -0.4415
  369MOL0     C49700   4.443   8.863   6.287  0.5351 -0.7415 -0.6280
  369MOL0     C49701   4.437   8.958   6.163 -0.1371 -0.1828 -0.9466
  369MOL0     C49702   4.415   9.110   6.179  0.2593  0.1303 -0.4842
  369MOL0     C49703   4.301   9.162   6.268  0.4544  0.2934  0.0870
  369MOL0     O49704   4.173   9.149   6.206  0.8310 -0.1151  0.3260
  369MOL0     C49705   4.077   9.068   6.268 -0.5770 -0.7026 -0.1726
  369MOL0     C49706   4.090   8.981   6.375  0.9776 -0.0250 -0.5126
  369MOL0     C49707   3.991   8.895   6.418 -0.3047 -0.2185 -0.0254
  369MOL0     C49708   3.866   8.887   6.348 -0.1977  0.4978  0.0950
  369MOL0     C49709   3.771   8.788   6.393 -0.0818  0.8184 -0.0457
  369MOL0     O49710   3.826   8.678   6.467 -0.4015  0.3220 -0.5481
  369MOL0     C49711   3.750   8.572   6.503 -1.0002 -0.8555  0.8378
  369MOL0     C49712   3.806   8.449   6.542 -0.1987  0.1234  0.2922
  369MOL0     C49713   3.732   8.328   6.561 -0.3724 -0.4688  0.6741
  369MOL0     C49714   3.597   8.312   6.546 -1.2624  0.2156  0.2452
  369MOL0     O49715   3.521   8.194   6.571  0.3797 -0.3570 -0.1152
  369MOL0     C49716   3.585   8.093   6.647  0.4162  0.2272 -0.1491
  369MOL0     C49717   3.483   8.025   6.737 -0.1925  0.0523 -0.7628
  369MOL0     C49718   3.432   7.900   6.665  0.7049  0.1946  0.0302
  369MOL0     C49719   3.312   7.842   6.746 -0.0979 -1.4939  1.0024
  369MOL0     C49720   3.352   7.766   6.874 -0.0269 -0.6026  0.3387
  369MOL0     C49721   3.240   7.678   6.925  0.2377 -0.0251  0.3335
  369MOL0     C49722   3.258   7.628   7.069  0.7844 -0.5997  1.0392
  369MOL0     C49723   3.217   7.737   7.160  0.0146  0.1336 -0.0125
  369MOL0    Cl49724   3.139   7.673   7.296 -0.4051  0.0618 -0.1568
  369MOL0     C49725   3.535   8.429   6.506 -0.4011  0.8566 -0.3992
  369MOL0     C49726   3.603   8.557   6.495 -0.1794  0.3154  0.4871
  369MOL0     O49727   3.655   8.809   6.371  0.4793 -0.0621  0.3816
  369MOL0     C49728   3.849   8.975   6.245  0.8957 -0.0358  0.0898
  369MOL0     C49729   3.953   9.066   6.201 -0.2885  0.1517  0.5302
  369MOL0     N49730   4.577   8.665   6.190  0.0889 -0.4056  0.2172
  369MOL0     N49731   4.555   8.538   6.153 -0.3633 -0.1926 -0.4161
  369MOL0     C49732   4.915   8.278   5.368  0.5557 -0.4282 -0.6032
  369MOL0     C49733   5.047   8.266   5.331 -0.2158 -0.4480 -0.3669
  369MOL0     C49734   5.441   8.217   5.149 -0.2452  0.8019 -0.0852
  369MOL0     C49735   5.501   8.098   5.207 -0.1492  0.8155  0.4777
  369MOL0     C49736   5.636   8.077   5.201  0.5728  1.0626 -0.0818
  369MOL0     C49737   5.724   8.170   5.145  0.1666 -0.1611  0.5249
  369MOL0     O49738   5.865   8.163   5.134  0.8295  0.5659 -0.3492
  369MOL0     C49739   5.925   8.034   5.102  0.0822  0.5441  0.7804
  369MOL0     C49740   6.071   8.040   5.052  0.2537  0.5046 -0.2942
  369MOL0     C49741   6.066   8.134   4.925  0.4756  0.2927  0.2598
  369MOL0     C49742   6.206   8.189   4.874  1.5422 -0.3670  0.0543
  369MOL0     C49743   6.299   8.080   4.876  0.6091 -0.4776 -1.2446
  369MOL0     C49744   6.391   7.997   4.871  0.8273  0.3499  0.8424
  369MOL0     C49745   5.671   8.292   5.109  0.6069  1.5478  0.7240
  369MOL0     C49746   5.524   8.320   5.105  0.0592  0.4792 -0.3137
  369MOL0     C49747   5.472   8.452   5.047 -0.8422 -1.1739  0.4975
  369MOL0     H49748   5.026   7.991   5.133 -0.4880  0.3051 -0.3422
  369MOL0     H49749   4.776   8.044   5.167 -1.4685  0.5159  1.0366
  369MOL0     H49750   4.684   8.203   5.533 -0.4340 -0.4685  1.1821
  369MOL0     H49751   4.639   8.366   5.459  1.5337 -0.3052 -0.6218
  369MOL0     H49752   4.490   8.097   5.502  0.3243  0.5239  2.7792
  369MOL0     H49753   4.425   8.196   5.370 -3.4448 -1.2646  1.3590
  369MOL0     H49754   4.307   8.293   5.540  0.9876  3.1879  0.7290
  369MOL0     H49755   4.454   8.384   5.545  1.2363  0.1899  0.3899
  369MOL0     H49756   4.412   8.140   5.717 -1.5439  0.4181  0.8441
  369MOL0     H49757   4.545   8.268   5.729  0.5178 -2.6591  2.3787
  369MOL0     H49758   4.379   8.441   5.785  1.3000  1.0525  1.1321
  369MOL0     H49759   4.263   8.288   5.797  0.7852 -0.8822  1.0099
  369MOL0     H49760   4.442   8.205   5.960  1.8081  0.5445 -2.3185
  369MOL0     H49761   4.499   8.374   5.951  1.2342 -2.7847 -0.9288
  369MOL0     H49762   4.236   8.275   6.069 -0.7986  0.4003 -2.6868
  369MOL0     H49763   4.256   8.446   6.017  1.4278  1.3283  1.5739
  369MOL0     H49764   4.300   8.374   6.267 -0.4491  2.1318 -0.9196
  369MOL0     H49765   4.465   8.320   6.204  0.2066 -0.9595  1.5513
  369MOL0     H49766   4.260   8.639   6.292 -1.4014  0.6836 -1.1139
  369MOL0     H49767   4.353   8.872   6.349  2.4406  0.5835  2.1827
  369MOL0     H49768   4.528   8.900   6.345 -2.0514  5.4585 -0.0174
  369MOL0     H49769   4.537   8.952   6.118  1.4018  0.6693  2.0529
  369MOL0     H49770   4.355   8.931   6.096 -2.2801 -0.4546  1.6570
  369MOL0     H49771   4.418   9.150   6.077  1.0966 -3.3111 -1.9624
  369MOL0     H49772   4.511   9.145   6.218  1.4575 -0.1423 -3.0111
  369MOL0     H49773   4.327   9.268   6.276  1.2290  0.4750 -3.4424
  369MOL0     H49774   4.311   9.113   6.366 -0.2269 -2.3292 -1.0671
  369MOL0     H49775   4.176   8.976   6.440  0.9921  2.6968 -0.2337
  369MOL0     H49776   4.006   8.836   6.507  0.3598  2.3904  1.7169
  369MOL0     H49777   3.913   8.432   6.540 -0.3141 -0.7614 -1.5687
  369MOL0     H49778   3.793   8.244   6.594  1.9153  0.2034 -1.5766
  369MOL0     H49779   3.652   8.027   6.591 -1.1131 -1.4512 -0.0805
  369MOL0     H49780   3.648   8.137   6.725  0.1618 -0.0605  0.2212
  369MOL0     H49781   3.532   7.992   6.829 -0.8429  1.1144 -0.0076
  369MOL0     H49782   3.410   8.104   6.758  1.5293  0.9105  2.7306
  369MOL0     H49783   3.394   7.916   6.564  1.5327 -0.6399 -0.4274
  369MOL0     H49784   3.511   7.824   6.658 -0.8616 -1.6959  1.5626
  369MOL0     H49785   3.262   7.770   6.681 -0.8849  1.2271 -1.6623
  369MOL0     H49786   3.243   7.925   6.762  2.7044  1.0136  0.9263
  369MOL0     H49787   3.390   7.842   6.944  1.8107 -0.0087 -1.2030
  369MOL0     H49788   3.428   7.690   6.852  1.0193 -0.3811  2.8596
  369MOL0     H49789   3.144   7.730   6.910 -0.0709 -1.3768 -3.2748
  369MOL0     H49790   3.235   7.597   6.852  0.0192  0.9842 -0.8063
  369MOL0     H49791   3.359   7.592   7.089  0.7487 -2.4801 -1.6783
  369MOL0     H49792   3.195   7.540   7.086  2.0579 -1.4202  1.5963
  369MOL0     H49793   3.308   7.795   7.181 -0.2386 -0.1363  1.9973
  369MOL0     H49794   3.151   7.814   7.118  0.2677  1.0774  1.2416
  369MOL0     H49795   3.430   8.409   6.485  0.5878 -3.5794 -2.0681
  369MOL0     H49796   3.545   8.645   6.473  0.3271  0.0105 -2.6375
  369MOL0     H49797   3.755   8.974   6.192  1.2505  0.6809 -0.5723
  369MOL0     H49798   3.960   9.124   6.110  3.9057  2.2487  1.9062
  369MOL0     H49799   4.888   8.347   5.447  1.7509 -0.0050 -0.5465
  369MOL0     H49800   5.120   8.340   5.362 -2.1862  2.0982 -1.4182
  369MOL0     H49801   5.449   8.009   5.242  3.4157 -1.9481 -0.6447
  369MOL0     H49802   5.684   7.982   5.223 -0.9821  0.4416  0.8127
  369MOL0     H49803   5.867   7.976   5.029  2.4196  0.2390 -0.9570
  369MOL0     H49804   5.923   7.981   5.198 -1.5096 -0.6697  0.1234
  369MOL0     H49805   6.102   7.941   5.018 -0.6026 -1.2603  3.5429
  369MOL0     H49806   6.138   8.073   5.131 -0.4388  1.6083 -0.1405
  369MOL0     H49807   6.000   8.220   4.942 -0.0157  0.2505 -1.3249
  369MOL0     H49808   6.027   8.070   4.845  2.5079  1.4704 -1.7882
  369MOL0     H49809   6.192   8.221   4.771  2.2713 -0.9361 -0.2302
  369MOL0     H49810   6.240   8.278   4.927  3.7138 -0.7176 -0.6506
  369MOL0     H49811   6.466   7.926   4.844  2.4021  2.4307 -0.5574
  369MOL0     H49812   5.732   8.377   5.080  0.7125  0.8275 -1.3147
  369MOL0     H49813   5.415   8.507   5.122  0.6648  0.2426  0.6625
  369MOL0     H49814   5.551   8.525   5.025 -0.5964 -1.2588  1.0783
  369MOL0     H49815   5.416   8.437   4.955  0.5538  2.6299 -1.1591
  370MOL0     O49816   1.066   7.393   5.811 -0.0086 -0.6665  0.0219
  370MOL0     C49817   1.178   7.438   5.818 -0.4690 -0.4360  0.3836
  370MOL0     O49818   1.213   7.567   5.793 -0.1715 -0.0200 -0.6711
  370MOL0     C49819   1.132   7.669   5.749 -0.9182  1.3195 -0.4356
  370MOL0     C49820   1.159   7.729   5.633  0.5931  0.0965 -0.0688
  370MOL0     C49821   1.068   7.835   5.583 -0.7323 -0.3156 -0.5565
  370MOL0     C49822   0.956   7.870   5.653  0.2580 -0.3559 -0.2095
  370MOL0     O49823   0.869   7.964   5.623  0.7759 -0.6399  0.1839
  370MOL0     C49824   0.903   8.054   5.516 -0.1818 -0.1522  0.0222
  370MOL0     C49825   0.799   8.164   5.520 -0.3255 -0.5986 -0.2595
  370MOL0     C49826   0.647   8.127   5.490  0.0338 -0.9610 -0.5603
  370MOL0     C49827   0.563   8.216   5.585 -0.8014 -0.8345  0.1143
  370MOL0     C49828   0.416   8.183   5.566  0.5083  0.0334 -0.2623
  370MOL0     C49829   0.344   8.305   5.505  0.1322 -0.3976  0.0158
  370MOL0     C49830   0.192   8.297   5.499  0.3957  0.1761 -0.6854
  370MOL0     C49831   0.125   8.308   5.646 -0.2393 -0.3476 -0.8864
  370MOL0     N49832   0.108   8.448   5.690 -0.9736  0.5439 -0.3022
  370MOL0     C49833   0.221   8.525   5.732  0.2872  0.2528 -0.0861
  370MOL0     C49834   0.164   8.634   5.796  0.3001 -0.0705 -0.4671
  370MOL0     C49835   0.240   8.753   5.858  0.4970 -0.0529  0.0736
  370MOL0     C49836   0.258   8.862   5.756  0.2411 -0.4992 -0.4805
  370MOL0     C49837   0.296   8.993   5.823 -0.2029  0.0173 -0.9699
  370MOL0     C49838   0.444   8.999   5.872 -0.1016 -0.8467  0.2476
  370MOL0     O49839   0.536   8.997   5.765  0.4256  0.6155 -0.5260
  370MOL0     C49840   0.666   8.961   5.793  0.4078 -0.0618  0.4700
  370MOL0     C49841   0.723   8.973   5.918 -0.4394 -0.7454 -0.0614
  370MOL0     C49842   0.864   8.957   5.931 -0.1213  0.2098  0.2605
  370MOL0     C49843   0.944   8.926   5.821  0.2827  0.2225  0.2540
  370MOL0     C49844   1.089   8.923   5.843 -0.3334  0.3894  0.8216
  370MOL0     O49845   1.153   8.858   5.745 -0.7874 -0.3984 -0.5268
  370MOL0     C49846   1.291   8.834   5.736 -0.2652 -0.3241  0.1910
  370MOL0     C49847   1.393   8.890   5.824  0.0136  0.0497 -0.1391
  370MOL0     C49848   1.530   8.845   5.812 -1.5388  0.7933  0.6825
  370MOL0     C49849   1.565   8.750   5.713 -0.5541  0.2974  0.1938
  370MOL0     O49850   1.700   8.721   5.710  0.5863 -0.2227 -0.5317
  370MOL0     C49851   1.751   8.632   5.615  0.0283 -0.6069 -0.2574
  370MOL0     C49852   1.901   8.626   5.637  0.3742  0.6253  0.2029
  370MOL0     C49853   1.971   8.528   5.539  0.3589 -0.1510 -0.7474
  370MOL0     C49854   2.004   8.614   5.422 -0.9306 -0.4081  0.1653
  370MOL0     C49855   2.078   8.552   5.305  0.0111  0.1178 -0.5386
  370MOL0     C49856   2.003   8.440   5.230  0.9121 -0.4471 -0.6723
  370MOL0     C49857   2.067   8.380   5.100  0.1041  0.7543 -0.7272
  370MOL0     C49858   2.205   8.323   5.121 -0.2858 -0.4379 -0.1823
  370MOL0    Cl49859   2.231   8.236   5.272 -0.0866  0.2099 -0.1155
  370MOL0     C49860   1.463   8.695   5.637 -0.3770 -0.7353  1.4533
  370MOL0     C49861   1.328   8.735   5.651 -0.1806  0.4637  0.0224
  370MOL0     O49862   1.134   8.988   5.937 -0.8827  0.3181 -0.0034
  370MOL0     C49863   0.887   8.916   5.698  0.5187 -1.1794 -0.7990
  370MOL0     C49864   0.747   8.933   5.686 -0.7740 -0.0229  0.7630
  370MOL0     N49865   0.024   8.607   5.803 -1.5091 -0.6655  0.0181
  370MOL0     N49866  -0.007   8.508   5.732  0.1484  0.9747 -0.5362
  370MOL0     C49867   0.927   7.803   5.776 -0.3473  0.6638 -0.6651
  370MOL0     C49868   1.017   7.702   5.827 -0.1695 -0.2713  0.4332
  370MOL0     C49869   1.295   7.345   5.870  0.5353 -0.3066  0.8951
  370MOL0     C49870   1.407   7.406   5.928  0.3658 -0.1993  0.5158
  370MOL0     C49871   1.515   7.325   5.975 -0.1665  0.0113  0.5340
  370MOL0     C49872   1.516   7.180   5.963 -0.7762 -0.8490  1.0419
  370MOL0     O49873   1.633   7.115   5.993  0.6715 -0.2210  0.5281
  370MOL0     C49874   1.667   6.999   5.921 -1.0031  0.5926 -0.4631
  370MOL0     C49875   1.628   6.884   6.012 -0.0203 -0.4102  0.0843
  370MOL0     C49876   1.643   6.740   5.948  1.0692 -0.1612  0.0452
  370MOL0     C49877   1.606   6.632   6.054 -0.4851  0.0079 -0.6379
  370MOL0     C49878   1.457   6.595   6.064 -0.1965 -0.6109  0.2436
  370MOL0     C49879   1.341   6.581   6.078  0.7118  0.5499 -0.4426
  370MOL0     C49880   1.401   7.123   5.909  0.1878 -0.0304  0.3301
  370MOL0     C49881   1.288   7.202   5.867  0.3237 -0.3435  0.0160
  370MOL0     C49882   1.167   7.120   5.808  0.7343  0.5781 -0.6197
  370MOL0     H49883   1.251   7.710   5.580  0.3323 -1.2055 -0.0992
  370MOL0     H49884   1.094   7.898   5.499  3.1311  0.7647  1.2031
  370MOL0     H49885   1.002   8.098   5.526  1.3889 -1.9221 -4.8501
  370MOL0     H49886   0.886   8.005   5.420 -0.0970 -0.6283  0.2482
  370MOL0     H49887   0.820   8.243   5.447  1.1547  1.9141  2.6593
  370MOL0     H49888   0.814   8.202   5.621  0.2194 -0.6898 -0.3042
  370MOL0     H49889   0.623   8.022   5.507 -0.2601 -1.3564 -3.0647
  370MOL0     H49890   0.626   8.149   5.385  1.6447  0.1779 -0.6750
  370MOL0     H49891   0.596   8.211   5.689 -2.8085  3.1803  1.1427
  370MOL0     H49892   0.589   8.319   5.558 -0.0518 -0.5495  1.8274
  370MOL0     H49893   0.396   8.092   5.510 -1.4700  0.2266  0.0347
  370MOL0     H49894   0.375   8.172   5.667 -0.0415  0.6826 -0.4054
  370MOL0     H49895   0.371   8.398   5.555  0.7783  0.9674 -2.6567
  370MOL0     H49896   0.381   8.316   5.403  2.4380  1.6644  0.9726
  370MOL0     H49897   0.167   8.200   5.455  0.1756  0.0463 -0.2829
  370MOL0     H49898   0.150   8.377   5.437 -0.5256  1.7929  1.8533
  370MOL0     H49899   0.024   8.267   5.638  0.5991 -2.8621  0.2424
  370MOL0     H49900   0.186   8.253   5.719  3.4702  1.6928 -2.1675
  370MOL0     H49901   0.327   8.502   5.723  0.1561  0.2900 -2.2800
  370MOL0     H49902   0.171   8.782   5.937  0.6721 -0.2417  0.2997
  370MOL0     H49903   0.340   8.724   5.894  0.3222 -1.6789 -0.6620
  370MOL0     H49904   0.333   8.829   5.685  0.0905 -3.6297  0.6596
  370MOL0     H49905   0.161   8.876   5.708  0.5943  0.8166 -0.8493
  370MOL0     H49906   0.219   9.018   5.897  0.0496 -2.3980  0.2063
  370MOL0     H49907   0.277   9.068   5.746 -1.8326  0.7176  0.0526
  370MOL0     H49908   0.477   8.913   5.930  4.1598 -0.3081 -1.0171
  370MOL0     H49909   0.466   9.095   5.920  1.8044  0.7181 -3.2757
  370MOL0     H49910   0.665   9.004   6.004  1.1104 -2.8162  1.8409
  370MOL0     H49911   0.901   8.978   6.031 -0.1473  1.7999 -0.0327
  370MOL0     H49912   1.369   8.971   5.892 -0.7025  0.4123 -0.7969
  370MOL0     H49913   1.613   8.881   5.872  0.5434 -4.1053  1.2539
  370MOL0     H49914   1.716   8.532   5.642  0.0070 -0.2495  1.1364
  370MOL0     H49915   1.720   8.666   5.515 -2.7504 -1.0521  0.3576
  370MOL0     H49916   1.940   8.728   5.639 -0.6597  1.1360 -2.2436
  370MOL0     H49917   1.921   8.579   5.734 -1.1436 -1.7810 -0.5528
  370MOL0     H49918   2.057   8.484   5.590  2.0386 -0.0083 -3.2527
  370MOL0     H49919   1.900   8.446   5.524 -0.5204  0.4565 -0.0375
  370MOL0     H49920   2.070   8.689   5.468  0.2622  1.7856 -4.5185
  370MOL0     H49921   1.918   8.671   5.386 -0.1174  1.4116  0.9349
  370MOL0     H49922   2.183   8.530   5.327  0.1346  0.0631 -1.1711
  370MOL0     H49923   2.067   8.629   5.228 -4.3388 -1.4643 -1.7772
  370MOL0     H49924   1.977   8.353   5.291  0.2343  0.0088 -0.3109
  370MOL0     H49925   1.913   8.492   5.198  1.9679  1.6519 -0.4036
  370MOL0     H49926   2.073   8.455   5.020  0.4847 -0.4717 -1.8811
  370MOL0     H49927   1.998   8.309   5.054 -0.6181  0.1826  1.1507
  370MOL0     H49928   2.236   8.259   5.037  0.0280 -0.6648  0.0990
  370MOL0     H49929   2.274   8.408   5.121 -2.1401  1.1144  0.0049
  370MOL0     H49930   1.490   8.623   5.560  1.1389  0.1801  1.0899
  370MOL0     H49931   1.247   8.684   5.600 -0.1855 -0.0929  0.5719
  370MOL0     H49932   0.948   8.905   5.609  3.2013  0.1274  0.7632
  370MOL0     H49933   0.699   8.913   5.591  0.7080 -0.6258  0.1153
  370MOL0     H49934   0.830   7.824   5.821 -1.1727  1.1530 -2.5686
  370MOL0     H49935   0.998   7.637   5.911 -0.4451  1.0912  1.4527
  370MOL0     H49936   1.410   7.514   5.937  0.1200 -0.1681  0.2247
  370MOL0     H49937   1.592   7.388   6.019 -0.8152  0.5164  0.9744
  370MOL0     H49938   1.775   6.991   5.904 -0.7406  2.1200  0.3387
  370MOL0     H49939   1.627   6.996   5.820  3.4072 -0.1499 -2.4165
  370MOL0     H49940   1.526   6.899   6.050  0.6622  0.6244  1.6273
  370MOL0     H49941   1.688   6.899   6.102 -2.0668  1.2694  1.2599
  370MOL0     H49942   1.749   6.729   5.923  0.6743 -0.3938 -1.6970
  370MOL0     H49943   1.578   6.723   5.861 -0.3836  0.3957  0.9723
  370MOL0     H49944   1.667   6.544   6.030  2.4376  1.8043 -0.3293
  370MOL0     H49945   1.624   6.671   6.154 -0.7459  0.9621 -0.9567
  370MOL0     H49946   1.236   6.570   6.094  1.2152 -4.0766  0.9251
  370MOL0     H49947   1.375   7.018   5.894 -1.9892  0.8293 -2.7728
  370MOL0     H49948   1.198   7.017   5.790 -0.2247  0.4232 -1.4521
  370MOL0     H49949   1.084   7.119   5.880 -1.9436  1.4438 -3.4767
  370MOL0     H49950   1.129   7.160   5.714 -0.3459  2.7257  0.6655
  371MOL0     O49951   3.998  10.842   7.446  0.1835  0.3839  0.5243
  371MOL0     C49952   4.095  10.766   7.442  0.6937  0.2741  0.8928
  371MOL0     O49953   4.226  10.803   7.471 -0.4450  0.5774 -0.6008
  371MOL0     C49954   4.259  10.923   7.528  0.8366  0.1520  0.0966
  371MOL0     C49955   4.220  11.042   7.467  0.1913 -0.0229  0.2486
  371MOL0     C49956   4.224  11.160   7.536  0.6392 -0.8715  0.3662
  371MOL0     C49957   4.267  11.164   7.674  0.2215  0.3298  0.0305
  371MOL0     O49958   4.259  11.285   7.737  0.2391  0.0403  0.0709
  371MOL0     C49959   4.328  11.298   7.863 -0.1661 -0.6618  0.4737
  371MOL0     C49960   4.473  11.303   7.844 -0.0770  1.0348 -0.8616
  371MOL0     C49961   4.513  11.444   7.797  0.2302 -0.2411  0.6066
  371MOL0     C49962   4.667  11.438   7.761  0.1869  0.1352  0.4985
  371MOL0     C49963   4.718  11.575   7.730  0.0920 -0.0750  1.1287
  371MOL0     C49964   4.669  11.632   7.598 -0.0067  0.8521  0.0748
  371MOL0     C49965   4.753  11.757   7.546  0.2685 -0.4306  0.2235
  371MOL0     C49966   4.905  11.731   7.525  1.0302 -0.5144 -0.1856
  371MOL0     N49967   4.908  11.647   7.402  0.2493 -0.8873 -1.2084
  371MOL0     C49968   4.901  11.510   7.395 -0.9571  0.5371 -0.5424
  371MOL0     C49969   4.893  11.485   7.261  0.0938 -0.2228  0.9261
  371MOL0     C49970   4.918  11.351   7.194  0.0712 -0.2826 -0.2428
  371MOL0     C49971   4.802  11.247   7.218 -0.2320 -0.3527  0.2486
  371MOL0     C49972   4.807  11.126   7.117  0.2135  0.2016 -1.0773
  371MOL0     C49973   4.943  11.051   7.128  0.8104 -0.4301 -0.1342
  371MOL0     O49974   4.956  10.995   7.263 -0.1475  0.0573  0.2690
  371MOL0     C49975   4.893  10.876   7.271  0.0737  0.1935  0.2232
  371MOL0     C49976   4.949  10.771   7.201  0.0125  0.7129 -0.5525
  371MOL0     C49977   4.882  10.652   7.189  0.3293 -0.5828  0.2883
  371MOL0     C49978   4.765  10.615   7.259 -1.0943  0.4406 -0.6689
  371MOL0     C49979   4.711  10.480   7.261 -0.3129 -0.8706 -0.2773
  371MOL0     O49980   4.610  10.450   7.355 -0.3164  0.0263 -0.4587
  371MOL0     C49981   4.592  10.315   7.363 -0.2747  0.7419  0.0846
  371MOL0     C49982   4.487  10.252   7.304  0.2673  0.1163 -0.5024
  371MOL0     C49983   4.462  10.115   7.335 -0.2764  0.0677  0.6884
  371MOL0     C49984   4.554  10.039   7.400 -0.5070 -0.0388 -0.1615
  371MOL0     O49985   4.518   9.908   7.410  0.1806  0.2460  0.4756
  371MOL0     C49986   4.611   9.818   7.465  0.3206 -0.2654 -0.6206
  371MOL0     C49987   4.588   9.803   7.622 -0.0362  0.1466  0.1187
  371MOL0     C49988   4.658   9.893   7.725  0.0575 -0.2988 -0.1652
  371MOL0     C49989   4.807   9.893   7.723  0.1981  0.5848  0.7848
  371MOL0     C49990   4.853   9.790   7.832 -0.8642 -0.5115 -0.3424
  371MOL0     C49991   5.010   9.771   7.858  0.8689  0.2045  0.1388
  371MOL0     C49992   5.070   9.869   7.950 -0.3624  0.1739  0.4355
  371MOL0     C49993   5.191   9.806   8.016  1.1062 -0.8768 -0.2589
  371MOL0    Cl49994   5.318   9.753   7.894 -0.2164  0.6243  0.1418
  371MOL0     C49995   4.674  10.106   7.452  0.1670  0.9781 -0.2602
  371MOL0     C49996   4.684  10.241   7.439 -0.1899 -0.6893  0.5075
  371MOL0     O49997   4.752  10.408   7.166  0.1450  0.1673 -0.5627
  371MOL0     C49998   4.718  10.719   7.341  0.7901 -0.4996  0.2270
  371MOL0     C49999   4.774  10.853   7.346  0.5321 -0.5994 -0.2375
  371MOL0     N50000   4.875  11.602   7.185 -0.0623 -0.1186 -0.9149
  371MOL0     N50001   4.878  11.701   7.280  0.1149  1.0507 -0.0417
  371MOL0     C50002   4.306  11.041   7.733 -0.1472  0.2152 -0.2335
  371MOL0     C50003   4.306  10.922   7.656  0.0771  0.1116 -0.6989
  371MOL0     C50004   4.072  10.624   7.404  0.5841 -0.6234  0.2473
  371MOL0     C50005   4.178  10.540   7.422 -0.1058  0.9334  0.8013
  371MOL0     C50006   4.170  10.404   7.385 -0.1639 -0.0488 -0.1414
  371MOL0     C50007   4.058  10.347   7.335 -0.8816  0.9781  0.9483
  371MOL0     O50008   4.073  10.208   7.301  0.6387  0.2152 -0.4961
  371MOL0     C50009   4.041  10.160   7.168 -0.4444 -0.9574 -0.2693
  371MOL0     C50010   3.936  10.051   7.178 -0.5078  0.2910 -0.2365
  371MOL0     C50011   3.790  10.097   7.195 -0.2091 -0.6323  0.5223
  371MOL0     C50012   3.702   9.984   7.231  0.4664 -0.2049 -0.0337
  371MOL0     C50013   3.709   9.876   7.136 -0.7324 -0.4363  0.3398
  371MOL0     C50014   3.691   9.789   7.054  0.5566 -0.2724 -0.9965
  371MOL0     C50015   3.953  10.427   7.304 -0.0841 -0.1209 -0.1689
  371MOL0     C50016   3.952  10.564   7.345 -0.5449 -0.3395 -0.6673
  371MOL0     C50017   3.842  10.652   7.300  0.6628  1.0450  0.2387
  371MOL0     H50018   4.181  11.040   7.366 -0.3216 -1.0046  0.4551
  371MOL0     H50019   4.193  11.254   7.493 -2.5515 -2.2864 -0.7936
  371MOL0     H50020   4.294  11.396   7.898 -1.9676 -1.2268  0.4534
  371MOL0     H50021   4.308  11.215   7.932 -0.1870 -1.4825 -0.5028
  371MOL0     H50022   4.488  11.214   7.783 -2.1278 -2.2609  2.9179
  371MOL0     H50023   4.528  11.295   7.939  3.4084  2.1337 -2.6144
  371MOL0     H50024   4.490  11.515   7.877  0.4156  1.0643 -0.4701
  371MOL0     H50025   4.458  11.473   7.707 -3.1784  0.4053  2.6949
  371MOL0     H50026   4.725  11.409   7.850  0.1127  0.7698  0.7599
  371MOL0     H50027   4.679  11.362   7.683 -0.8916  0.1562  0.3047
  371MOL0     H50028   4.702  11.639   7.817  3.2794 -1.3195  2.8047
  371MOL0     H50029   4.825  11.554   7.719  0.0059  0.5196 -1.5050
  371MOL0     H50030   4.665  11.549   7.526 -0.5332  0.5249  0.4780
  371MOL0     H50031   4.566  11.663   7.614  1.0488  3.7395  1.9499
  371MOL0     H50032   4.736  11.838   7.617  0.1235 -0.0945 -0.1873
  371MOL0     H50033   4.707  11.787   7.451 -1.8241 -1.4244  0.8660
  371MOL0     H50034   4.960  11.824   7.508  0.2681 -0.3973 -2.4231
  371MOL0     H50035   4.946  11.689   7.617  1.8682 -3.4522 -1.7479
  371MOL0     H50036   4.913  11.429   7.466  0.7740 -2.7094 -4.1896
  371MOL0     H50037   4.927  11.370   7.087  1.9096  0.7229  0.0330
  371MOL0     H50038   5.010  11.315   7.243  0.1895  1.7333  1.1536
  371MOL0     H50039   4.803  11.203   7.318 -0.3797 -1.1287 -0.0876
  371MOL0     H50040   4.711  11.305   7.200 -1.4566 -2.0045  0.9866
  371MOL0     H50041   4.799  11.161   7.013 -0.6381 -0.9086 -1.4127
  371MOL0     H50042   4.724  11.058   7.138  0.2730  0.7048  0.9878
  371MOL0     H50043   5.021  11.122   7.100 -0.6541  1.0519 -0.6269
  371MOL0     H50044   4.950  10.979   7.045  1.9890  1.0159 -1.3540
  371MOL0     H50045   5.042  10.785   7.146  0.8520 -1.2564  0.2821
  371MOL0     H50046   4.921  10.585   7.114  0.0549 -0.9166  0.4414
  371MOL0     H50047   4.422  10.306   7.236 -1.8706 -1.8074 -0.0756
  371MOL0     H50048   4.369  10.068   7.307  0.2060 -0.9429  0.7415
  371MOL0     H50049   4.590   9.723   7.416 -0.2770  0.4688 -1.8282
  371MOL0     H50050   4.717   9.837   7.447  0.2321  0.3826 -0.5061
  371MOL0     H50051   4.478   9.803   7.631  0.0633 -2.2540  2.7633
  371MOL0     H50052   4.616   9.701   7.651 -0.2278  0.5484  1.8132
  371MOL0     H50053   4.635   9.999   7.710  0.1267  0.1889  2.5880
  371MOL0     H50054   4.617   9.870   7.824 -2.3545 -0.1416 -1.0581
  371MOL0     H50055   4.852   9.989   7.750  2.7262 -0.6137  1.0960
  371MOL0     H50056   4.844   9.853   7.628  2.5031 -0.2368  1.9462
  371MOL0     H50057   4.821   9.690   7.801 -1.8542 -0.1176 -0.6334
  371MOL0     H50058   4.805   9.810   7.928  0.8111  4.1707 -0.2056
  371MOL0     H50059   5.022   9.665   7.884 -1.9365 -0.4383 -0.7717
  371MOL0     H50060   5.065   9.779   7.764  0.5679 -0.3052 -0.0912
  371MOL0     H50061   5.001   9.910   8.024  1.6512  0.3248  2.3294
  371MOL0     H50062   5.100   9.953   7.885  0.0022 -2.2056 -2.6890
  371MOL0     H50063   5.232   9.888   8.077  0.1119  2.8605 -4.1224
  371MOL0     H50064   5.172   9.713   8.071 -0.8866 -0.0329  0.6076
  371MOL0     H50065   4.757  10.052   7.496 -1.0164  1.2601  2.5575
  371MOL0     H50066   4.776  10.285   7.475  0.7324 -2.2209  0.1332
  371MOL0     H50067   4.623  10.710   7.393 -1.1604  1.5265 -2.6672
  371MOL0     H50068   4.722  10.928   7.404 -0.7838 -0.6539 -1.2787
  371MOL0     H50069   4.323  11.040   7.840 -2.9087 -3.1729  0.3104
  371MOL0     H50070   4.311  10.833   7.718  0.7258  1.5398  1.4160
  371MOL0     H50071   4.271  10.571   7.468  1.6594 -2.7330  0.0531
  371MOL0     H50072   4.256  10.343   7.410  0.1918  1.1140  1.6863
  371MOL0     H50073   4.132  10.129   7.117 -0.4950  2.8264 -3.1263
  371MOL0     H50074   4.004  10.243   7.107  1.3487  0.4868  0.5031
  371MOL0     H50075   3.958   9.996   7.270 -4.0202 -0.4994  0.2924
  371MOL0     H50076   3.943   9.984   7.092  1.2876 -1.2805  1.0500
  371MOL0     H50077   3.760  10.130   7.095 -0.9865 -0.0720  0.9335
  371MOL0     H50078   3.781  10.176   7.269  1.8488 -0.0495  0.2355
  371MOL0     H50079   3.753   9.940   7.317  0.4998 -3.2932 -1.4740
  371MOL0     H50080   3.599  10.014   7.252  0.6604  1.3756 -1.1460
  371MOL0     H50081   3.666   9.714   6.982 -2.2660 -0.6735  0.2731
  371MOL0     H50082   3.865  10.388   7.254 -0.5138 -0.1212  0.5685
  371MOL0     H50083   3.869  10.751   7.262 -1.5948  1.3062 -0.8141
  371MOL0     H50084   3.798  10.591   7.220  1.6652  2.4256 -1.4250
  371MOL0     H50085   3.766  10.661   7.378  1.0302 -0.1183  0.7565
  372MOL0     O50086   9.524   5.425   1.484  0.7637 -0.2896 -0.6768
  372MOL0     C50087   9.633   5.420   1.538 -0.3462  0.4444 -1.3248
  372MOL0     O50088   9.741   5.491   1.484 -0.9237  0.2848  0.0254
  372MOL0     C50089   9.723   5.602   1.411  0.2027  0.3524  0.6040
  372MOL0     C50090   9.791   5.604   1.291  0.9865  0.3644  0.3939
  372MOL0     C50091   9.766   5.701   1.196 -0.2412  0.2108 -0.0823
  372MOL0     C50092   9.668   5.809   1.219  0.0931  0.2290 -0.1207
  372MOL0     O50093   9.618   5.873   1.108 -0.2665  0.1950  0.3214
  372MOL0     C50094   9.503   5.956   1.112  1.0270 -0.5384  0.3139
  372MOL0     C50095   9.478   5.992   0.970 -0.0807  0.2135  0.3321
  372MOL0     C50096   9.591   6.047   0.894 -0.2327 -0.5420  0.4026
  372MOL0     C50097   9.583   6.018   0.747  0.8243 -0.2884  0.4672
  372MOL0     C50098   9.698   6.086   0.683  0.0925 -0.8673  0.2289
  372MOL0     C50099   9.696   6.094   0.534  0.4217 -0.4776 -0.2258
  372MOL0     C50100   9.731   5.957   0.472  0.0468 -0.0252 -0.9671
  372MOL0     C50101   9.856   5.879   0.534  0.9647  0.9353  0.5702
  372MOL0     N50102   9.993   5.943   0.518  0.3808 -0.5932  0.2286
  372MOL0     C50103  10.033   6.034   0.428 -0.2270 -0.8407 -0.3045
  372MOL0     C50104  10.167   6.032   0.426 -0.4007 -0.1310  0.4495
  372MOL0     C50105  10.256   6.131   0.363 -0.6964 -0.5712  0.0448
  372MOL0     C50106  10.355   6.075   0.252 -1.1959 -0.0707  0.0729
  372MOL0     C50107  10.475   6.000   0.327 -0.4101  0.3417  0.6410
  372MOL0     C50108  10.600   5.975   0.248 -0.0362 -0.0860 -0.2464
  372MOL0     O50109  10.686   6.087   0.220 -0.1262 -0.4793  0.8415
  372MOL0     C50110  10.810   6.054   0.174 -0.6834 -0.6445  1.2020
  372MOL0     C50111  10.851   5.942   0.099 -0.0300  0.7985 -0.9656
  372MOL0     C50112  10.984   5.906   0.070 -0.5370 -0.0494 -0.0849
  372MOL0     C50113  11.083   6.002   0.087  0.1118 -0.3222 -0.0296
  372MOL0     C50114  11.220   5.973   0.039  0.1351  0.3404 -0.5915
  372MOL0     O50115  11.245   5.846  -0.009 -0.3246  1.1376 -0.3328
  372MOL0     C50116  11.359   5.812  -0.077  0.0853  0.1575 -0.5204
  372MOL0     C50117  11.471   5.883  -0.125  0.6088 -0.0122 -0.7879
  372MOL0     C50118  11.579   5.837  -0.198  0.0018  0.1417 -0.1918
  372MOL0     C50119  11.578   5.701  -0.220  0.0787  0.0026 -0.1607
  372MOL0     O50120  11.674   5.653  -0.303 -0.4920  0.1902  0.7013
  372MOL0     C50121  11.637   5.559  -0.405  0.6630 -0.4225  0.2028
  372MOL0     C50122  11.764   5.483  -0.458 -0.0508  0.1736  0.1949
  372MOL0     C50123  11.883   5.562  -0.525 -0.5913 -0.7826 -0.5490
  372MOL0     C50124  11.833   5.671  -0.624  0.1526  0.3405  0.1750
  372MOL0     C50125  11.742   5.627  -0.727 -0.2373 -0.1165 -0.3028
  372MOL0     C50126  11.815   5.558  -0.848  0.2970  0.4858  0.6069
  372MOL0     C50127  11.723   5.513  -0.966  0.4429  1.0643 -0.6907
  372MOL0     C50128  11.596   5.439  -0.911 -0.2306  0.2948  0.1384
  372MOL0    Cl50129  11.544   5.353  -1.052 -0.0870 -0.0305 -0.1659
  372MOL0     C50130  11.480   5.621  -0.161 -0.4524  0.1696 -0.2362
  372MOL0     C50131  11.372   5.673  -0.095  0.0444 -0.3481 -0.0084
  372MOL0     O50132  11.299   6.065   0.025 -0.3671  0.1272  0.2312
  372MOL0     C50133  11.054   6.123   0.152 -0.5726 -0.2145 -0.0557
  372MOL0     C50134  10.919   6.143   0.195 -0.4335 -0.3722  0.1303
  372MOL0     N50135  10.208   5.939   0.516 -0.1311  0.8982 -0.3634
  372MOL0     N50136  10.106   5.895   0.573 -0.5895  0.2821  0.1736
  372MOL0     C50137   9.603   5.813   1.347  0.3998  0.2422 -0.9448
  372MOL0     C50138   9.634   5.709   1.434  0.6162  0.4774 -0.2336
  372MOL0     C50139   9.650   5.355   1.676 -0.6466  0.1352  1.0713
  372MOL0     C50140   9.786   5.332   1.716 -1.0625  0.3343  0.3587
  372MOL0     C50141   9.824   5.279   1.843  0.9478  0.5633 -0.5833
  372MOL0     C50142   9.728   5.254   1.944  1.2470  0.2814  0.4560
  372MOL0     O50143   9.758   5.191   2.062 -0.1069  0.1097  0.3184
  372MOL0     C50144   9.703   5.064   2.090  0.6798 -0.3448 -0.0913
  372MOL0     C50145   9.753   4.954   1.995 -0.0952 -1.0575 -0.1702
  372MOL0     C50146   9.905   4.943   2.010 -0.2137 -0.4747  0.3001
  372MOL0     C50147   9.948   4.796   2.022 -0.0959  0.1967  0.2290
  372MOL0     C50148   9.930   4.720   1.891 -0.0581  0.8915 -0.2377
  372MOL0     C50149   9.913   4.675   1.773 -0.9413  1.2195 -0.1340
  372MOL0     C50150   9.601   5.286   1.903 -0.1447  0.2549  0.7852
  372MOL0     C50151   9.558   5.331   1.778 -0.2253 -0.4773 -1.0870
  372MOL0     C50152   9.417   5.364   1.762  0.3077  0.9785  0.1055
  372MOL0     H50153   9.859   5.521   1.280  0.7666  0.2077  0.2240
  372MOL0     H50154   9.826   5.697   1.106  2.9657  0.4849  1.8757
  372MOL0     H50155   9.416   5.905   1.155 -1.5972  1.9450 -1.5804
  372MOL0     H50156   9.517   6.046   1.172 -0.4880  1.1214 -1.6443
  372MOL0     H50157   9.396   6.064   0.968  0.6782  1.1448  1.5189
  372MOL0     H50158   9.439   5.907   0.913 -0.1239 -0.9748  2.0591
  372MOL0     H50159   9.684   6.001   0.927 -0.5321 -2.0700 -0.8047
  372MOL0     H50160   9.597   6.152   0.924  2.3992  0.1637 -2.1232
  372MOL0     H50161   9.592   5.909   0.733  1.1315 -0.4092  1.5304
  372MOL0     H50162   9.484   6.047   0.711  0.2306 -3.5854 -1.0087
  372MOL0     H50163   9.695   6.193   0.706  0.7807 -0.5825 -0.9629
  372MOL0     H50164   9.789   6.049   0.732 -1.3781 -0.5730  3.4439
  372MOL0     H50165   9.604   6.132   0.490  0.4587  0.0916  0.1744
  372MOL0     H50166   9.771   6.167   0.500 -1.9564  1.2887 -2.0871
  372MOL0     H50167   9.740   5.963   0.363  4.3126  2.7874 -0.7028
  372MOL0     H50168   9.646   5.891   0.494 -0.4133  1.2807  1.5479
  372MOL0     H50169   9.834   5.853   0.638  0.8745 -1.2267  0.0411
  372MOL0     H50170   9.858   5.776   0.499  2.5231 -0.6277  4.6028
  372MOL0     H50171   9.972   6.091   0.359  0.9789 -0.4569 -1.0898
  372MOL0     H50172  10.194   6.201   0.306  1.2423  0.9844 -0.2429
  372MOL0     H50173  10.312   6.188   0.438 -0.5281  0.9027 -1.1503
  372MOL0     H50174  10.313   5.997   0.187  1.1045 -0.6830 -0.7964
  372MOL0     H50175  10.378   6.167   0.197  2.0201 -1.6015 -1.4701
  372MOL0     H50176  10.438   5.905   0.367  0.0668  0.5173  1.5191
  372MOL0     H50177  10.508   6.055   0.416  0.8500  0.6969 -0.0310
  372MOL0     H50178  10.579   5.916   0.158  3.1677  0.9226 -1.7985
  372MOL0     H50179  10.671   5.925   0.315  3.4971  1.6500 -2.4110
  372MOL0     H50180  10.769   5.880   0.063 -0.6945  1.1783 -0.1441
  372MOL0     H50181  11.016   5.814   0.022  0.5942  1.6636 -2.8246
  372MOL0     H50182  11.455   5.990  -0.117 -0.9304 -0.3082  0.7382
  372MOL0     H50183  11.653   5.901  -0.246  0.3520 -1.5700 -2.1278
  372MOL0     H50184  11.554   5.490  -0.387  0.3656  0.1033  0.9234
  372MOL0     H50185  11.605   5.631  -0.482  1.4128  1.7995  1.8453
  372MOL0     H50186  11.813   5.421  -0.383  0.7361 -2.0601 -2.0306
  372MOL0     H50187  11.726   5.414  -0.534  2.0443 -1.1859  0.2963
  372MOL0     H50188  11.931   5.617  -0.443 -0.8166  3.0677 -2.7566
  372MOL0     H50189  11.959   5.504  -0.578  4.8747  3.4093  1.6658
  372MOL0     H50190  11.917   5.720  -0.674  1.2214 -1.4587  0.0843
  372MOL0     H50191  11.781   5.745  -0.564  1.1099  0.6361  0.6519
  372MOL0     H50192  11.683   5.710  -0.769  0.9021  1.0260  0.2739
  372MOL0     H50193  11.666   5.561  -0.685  0.1924 -2.5936 -3.0568
  372MOL0     H50194  11.875   5.635  -0.898 -1.9517  0.3587 -2.5415
  372MOL0     H50195  11.873   5.475  -0.805  2.1507  1.7050  0.6078
  372MOL0     H50196  11.781   5.444  -1.028 -0.0548  2.7275 -3.1490
  372MOL0     H50197  11.697   5.602  -1.024  4.3203  1.4536 -2.1190
  372MOL0     H50198  11.622   5.377  -0.825  1.8786 -0.9347 -1.2855
  372MOL0     H50199  11.526   5.520  -0.889  0.1894  0.8275 -0.4274
  372MOL0     H50200  11.470   5.514  -0.177 -0.3210  0.2818 -1.0601
  372MOL0     H50201  11.297   5.602  -0.061  1.1346 -1.3079  0.4703
  372MOL0     H50202  11.128   6.194   0.186 -1.0293 -0.4079  1.4291
  372MOL0     H50203  10.900   6.244   0.231  4.5702  1.8950 -2.6278
  372MOL0     H50204   9.531   5.890   1.370 -0.9572 -0.7281 -1.7980
  372MOL0     H50205   9.582   5.720   1.529  0.1353  1.2356 -0.5725
  372MOL0     H50206   9.865   5.355   1.645 -0.1206 -3.2464  0.0554
  372MOL0     H50207   9.930   5.259   1.852  1.0864  1.3911 -0.3221
  372MOL0     H50208   9.594   5.059   2.082  0.7537 -0.4099 -1.2139
  372MOL0     H50209   9.725   5.043   2.195  3.6771  0.3413 -0.4984
  372MOL0     H50210   9.739   4.981   1.890 -1.1548  1.5566  0.5512
  372MOL0     H50211   9.703   4.857   1.993 -1.1947 -0.5434  1.0758
  372MOL0     H50212   9.946   4.993   2.097  1.3935 -0.9264 -0.1698
  372MOL0     H50213   9.946   4.986   1.918  1.5869 -1.8259  0.4191
  372MOL0     H50214  10.053   4.792   2.052 -0.6594  0.8782  2.4426
  372MOL0     H50215   9.887   4.752   2.102 -0.9322  3.6475  1.6626
  372MOL0     H50216   9.883   4.644   1.675 -2.7530 -1.9281  1.2590
  372MOL0     H50217   9.516   5.271   1.969 -1.8822 -0.7539 -1.5420
  372MOL0     H50218   9.375   5.280   1.706 -0.0815 -0.9560  3.0437
  372MOL0     H50219   9.360   5.362   1.856  2.9385 -1.0729  1.7977
  372MOL0     H50220   9.400   5.464   1.721 -0.2857  1.7379  2.0604
  373MOL0     O50221   4.020  10.067   2.492  0.6700 -1.2832 -0.0742
  373MOL0     C50222   4.051  10.167   2.565 -0.2162  1.1247 -0.8551
  373MOL0     O50223   4.088  10.283   2.520  0.8264 -0.0949 -0.0833
  373MOL0     C50224   4.126  10.280   2.390  0.2046 -0.4276  0.5173
  373MOL0     C50225   4.218  10.187   2.338 -0.6617 -0.0427 -0.6159
  373MOL0     C50226   4.254  10.187   2.207 -0.2835  0.4876  0.1888
  373MOL0     C50227   4.194  10.282   2.120 -0.1692  0.1374 -0.1410
  373MOL0     O50228   4.245  10.311   1.995 -0.4313  0.2721 -0.2919
  373MOL0     C50229   4.238  10.197   1.909  0.4506  0.4833  0.3739
  373MOL0     C50230   4.297  10.231   1.773 -0.0445  1.1008  0.3316
  373MOL0     C50231   4.210  10.313   1.677 -0.2221  0.3966  0.7286
  373MOL0     C50232   4.056  10.310   1.709  0.1208 -0.6575  0.2853
  373MOL0     C50233   3.979  10.356   1.585 -0.9019  0.6351  0.2174
  373MOL0     C50234   3.829  10.379   1.593 -0.7799  1.0858  1.0191
  373MOL0     C50235   3.778  10.480   1.700  0.2971  0.1257  0.2050
  373MOL0     C50236   3.659  10.436   1.784  0.4942 -0.5212  0.1085
  373MOL0     N50237   3.708  10.361   1.899  0.0257 -0.4899 -0.5066
  373MOL0     C50238   3.695  10.219   1.916  0.2736 -1.1990  0.2928
  373MOL0     C50239   3.729  10.201   2.041  1.3707  0.2035 -0.1339
  373MOL0     C50240   3.757  10.070   2.105 -0.1903 -0.0748 -0.1284
  373MOL0     C50241   3.909  10.031   2.081  1.2168 -0.6367 -0.3642
  373MOL0     C50242   3.922   9.880   2.123  0.4134  0.0404  0.6562
  373MOL0     C50243   4.050   9.829   2.061  0.7344 -0.0273 -0.5420
  373MOL0     O50244   4.038   9.692   2.067  0.2400  0.2783  0.9574
  373MOL0     C50245   4.158   9.627   2.055  0.1605 -0.0971  0.2371
  373MOL0     C50246   4.278   9.678   1.998  0.4663  0.0851 -0.2734
  373MOL0     C50247   4.393   9.604   1.990  0.2819 -0.8404 -0.5509
  373MOL0     C50248   4.401   9.480   2.051  0.2471  0.0846  0.2717
  373MOL0     C50249   4.529   9.413   2.042 -0.1636 -0.0449  0.6608
  373MOL0     O50250   4.645   9.479   2.014 -1.1672  0.1683  0.3319
  373MOL0     C50251   4.761   9.403   2.035 -0.5386  0.2024  1.4453
  373MOL0     C50252   4.810   9.328   1.927  0.8767  0.0479  0.3097
  373MOL0     C50253   4.918   9.248   1.944  0.1290  0.1903 -0.1892
  373MOL0     C50254   5.003   9.248   2.066 -0.4267  0.9567  0.0508
  373MOL0     O50255   5.108   9.158   2.083  0.3706  0.7321  0.2066
  373MOL0     C50256   5.226   9.167   2.001 -0.6164  0.0539  0.5382
  373MOL0     C50257   5.362   9.203   2.069  1.0937 -0.1320  0.2126
  373MOL0     C50258   5.378   9.163   2.220  0.2368 -0.1149  0.8734
  373MOL0     C50259   5.360   9.012   2.247 -0.6406 -0.0395  0.0157
  373MOL0     C50260   5.467   8.935   2.167  0.1407 -0.1437  0.0884
  373MOL0     C50261   5.459   8.778   2.171 -0.3228  1.0012 -0.6700
  373MOL0     C50262   5.321   8.736   2.112 -1.1526 -0.1297 -0.6614
  373MOL0     C50263   5.324   8.584   2.107  0.1977  0.6240  0.1778
  373MOL0    Cl50264   5.182   8.538   2.012  0.5939  0.2741  0.0596
  373MOL0     C50265   4.962   9.332   2.169 -0.3948 -0.3021 -0.1222
  373MOL0     C50266   4.833   9.392   2.150  0.4512  0.3652 -0.2215
  373MOL0     O50267   4.513   9.295   2.064 -0.8640  0.7033 -0.2219
  373MOL0     C50268   4.289   9.433   2.120 -0.1864  0.1597  0.1068
  373MOL0     C50269   4.171   9.505   2.114  0.0177  0.6203 -0.9096
  373MOL0     N50270   3.745  10.322   2.100  0.0128  0.3123 -0.4020
  373MOL0     N50271   3.736  10.420   2.024  0.3199  0.3681 -0.1484
  373MOL0     C50272   4.097  10.362   2.173  0.2327 -0.9722 -0.1439
  373MOL0     C50273   4.051  10.355   2.299  0.7018 -0.0425  0.1751
  373MOL0     C50274   4.038  10.155   2.710 -0.1433  0.2883 -0.6678
  373MOL0     C50275   3.924  10.096   2.760 -0.1843 -0.2424  0.0061
  373MOL0     C50276   3.887  10.101   2.893 -0.3096  0.2373  0.2795
  373MOL0     C50277   3.969  10.152   2.990  0.8560  0.5460  1.4537
  373MOL0     O50278   3.919  10.152   3.116 -0.2617  0.3533  0.1579
  373MOL0     C50279   4.015  10.170   3.222  0.0618 -0.0486 -0.5758
  373MOL0     C50280   4.120  10.051   3.235  0.1661 -0.4312  0.4262
  373MOL0     C50281   4.196  10.059   3.375 -0.3485 -0.5996 -1.1563
  373MOL0     C50282   4.099  10.039   3.489  1.1721 -0.0492  0.3168
  373MOL0     C50283   4.159  10.002   3.619 -0.1882 -0.4731 -0.2783
  373MOL0     C50284   4.214   9.993   3.729 -0.3231 -0.5883  0.0444
  373MOL0     C50285   4.091  10.206   2.942  0.5432  0.7180  0.7874
  373MOL0     C50286   4.126  10.210   2.807 -0.1701  0.8036 -0.0249
  373MOL0     C50287   4.263  10.261   2.770 -0.3785  0.1569 -0.8737
  373MOL0     H50288   4.258  10.117   2.410  1.3848  1.6591  0.0014
  373MOL0     H50289   4.338  10.132   2.166 -0.0704  0.2953  0.8747
  373MOL0     H50290   4.309  10.123   1.946 -2.3777 -2.0115  1.1287
  373MOL0     H50291   4.143  10.143   1.909  2.8308 -4.2182 -1.2460
  373MOL0     H50292   4.325  10.135   1.729 -1.5760 -0.2306  2.1110
  373MOL0     H50293   4.392  10.281   1.794  1.0777 -0.9000  0.2529
  373MOL0     H50294   4.215  10.256   1.583 -0.2096 -2.9437  2.5826
  373MOL0     H50295   4.237  10.415   1.649 -1.8774  0.1490 -2.2699
  373MOL0     H50296   4.011  10.214   1.737  0.5113 -0.8936  0.1085
  373MOL0     H50297   4.026  10.377   1.791  3.9956  1.2627  0.3275
  373MOL0     H50298   4.024  10.443   1.537 -1.8107  2.7769  2.9800
  373MOL0     H50299   3.989  10.272   1.515  0.8130  1.0946 -0.1367
  373MOL0     H50300   3.784  10.421   1.502 -2.3090  1.1668  1.7814
  373MOL0     H50301   3.800  10.275   1.613  2.6811 -0.1468  0.3630
  373MOL0     H50302   3.756  10.573   1.647  2.0316  1.2006  1.2443
  373MOL0     H50303   3.853  10.509   1.775  1.3526 -0.9803 -0.3812
  373MOL0     H50304   3.605  10.525   1.818  0.8434 -1.0340  2.1347
  373MOL0     H50305   3.588  10.389   1.716 -1.0605  1.6653  0.1085
  373MOL0     H50306   3.682  10.146   1.836 -2.1057  1.1930 -1.6829
  373MOL0     H50307   3.739  10.077   2.213  0.3783 -2.2196  0.1606
  373MOL0     H50308   3.689   9.993   2.066  1.5512 -1.8334  0.1818
  373MOL0     H50309   3.933  10.052   1.976 -0.5718  0.9731 -0.5181
  373MOL0     H50310   3.967  10.097   2.147 -3.8765  3.7544  0.4731
  373MOL0     H50311   3.837   9.815   2.098 -0.1608  0.0098  2.5321
  373MOL0     H50312   3.923   9.874   2.232  1.5468  0.4986  0.6763
  373MOL0     H50313   4.128   9.881   2.116  2.3470 -2.4063 -0.4147
  373MOL0     H50314   4.051   9.859   1.955 -0.5026  1.5727 -0.1408
  373MOL0     H50315   4.290   9.783   1.971  0.4192  0.1487 -0.0519
  373MOL0     H50316   4.478   9.645   1.937  2.2453  1.2685  3.7260
  373MOL0     H50317   4.754   9.316   1.835 -2.3158 -1.2709  2.2480
  373MOL0     H50318   4.948   9.169   1.876 -4.0846 -2.2064  0.4192
  373MOL0     H50319   5.241   9.063   1.971  0.9644 -0.2347  2.1821
  373MOL0     H50320   5.214   9.223   1.907 -0.2329  0.1373  0.5374
  373MOL0     H50321   5.449   9.168   2.012  1.2402  1.2018 -0.4364
  373MOL0     H50322   5.373   9.312   2.061 -1.8143  0.4112  2.2516
  373MOL0     H50323   5.476   9.198   2.253 -0.3774  0.0188  2.6765
  373MOL0     H50324   5.294   9.209   2.273  0.4544  3.0870 -1.2884
  373MOL0     H50325   5.265   8.960   2.237 -0.7453  0.4308 -1.9419
  373MOL0     H50326   5.382   9.015   2.354 -0.2455  0.3075 -0.0707
  373MOL0     H50327   5.566   8.958   2.207 -0.9191  2.8387  1.2949
  373MOL0     H50328   5.469   8.962   2.060 -1.2075 -0.3213  0.0089
  373MOL0     H50329   5.530   8.730   2.104 -0.4139 -0.3880  0.1882
  373MOL0     H50330   5.471   8.734   2.271  0.5072 -1.3010 -1.7163
  373MOL0     H50331   5.299   8.780   2.015 -0.8423 -0.4582 -0.8831
  373MOL0     H50332   5.240   8.764   2.181 -1.7479 -3.2705  0.0813
  373MOL0     H50333   5.414   8.553   2.054  0.3611  0.2448  0.6627
  373MOL0     H50334   5.330   8.538   2.207  0.5207  1.5383  0.5902
  373MOL0     H50335   5.020   9.341   2.261  0.6791  0.4028 -0.8458
  373MOL0     H50336   4.785   9.457   2.222 -1.5359 -2.4489  1.1695
  373MOL0     H50337   4.296   9.346   2.185 -0.8485  0.2038  0.2446
  373MOL0     H50338   4.090   9.461   2.171  0.0908 -0.6839 -1.7710
  373MOL0     H50339   4.057  10.445   2.115  0.4815  0.6396  1.8941
  373MOL0     H50340   3.963  10.409   2.332  0.1893 -1.0507  0.4708
  373MOL0     H50341   3.859  10.036   2.697  0.6564  0.4349 -1.5548
  373MOL0     H50342   3.791  10.058   2.922 -0.3495 -1.6810 -2.3444
  373MOL0     H50343   3.956  10.172   3.314  1.1431  1.0255  0.1396
  373MOL0     H50344   4.056  10.271   3.217  1.4270 -0.5599 -0.1492
  373MOL0     H50345   4.192  10.065   3.154 -2.3837  2.3509 -1.5584
  373MOL0     H50346   4.070   9.954   3.228  0.5040 -0.6110  0.4792
  373MOL0     H50347   4.261  10.145   3.399  0.4484 -1.4755 -0.0576
  373MOL0     H50348   4.272   9.981   3.381 -0.0892 -0.2330  1.8549
  373MOL0     H50349   4.043  10.127   3.519 -2.7428 -2.2792  0.2255
  373MOL0     H50350   4.029   9.958   3.467  1.7816  0.0400 -2.3211
  373MOL0     H50351   4.258   9.989   3.827  2.1186  1.2443 -0.8920
  373MOL0     H50352   4.163  10.244   3.014  2.1735 -1.1698  0.2464
  373MOL0     H50353   4.291  10.347   2.832 -2.3907  0.5108 -0.3662
  373MOL0     H50354   4.345  10.191   2.784 -1.6504 -1.2997 -0.4294
  373MOL0     H50355   4.263  10.310   2.672  2.4547  1.4720 -0.3092
  374MOL0     O50356   0.919   9.545   5.906  0.3570 -0.0183 -0.3776
  374MOL0     C50357   0.856   9.480   5.828 -0.0392 -0.2832 -0.0176
  374MOL0     O50358   0.907   9.428   5.714  0.4542  0.5627 -0.4331
  374MOL0     C50359   1.040   9.424   5.696  0.2325  0.1921  0.1173
  374MOL0     C50360   1.142   9.405   5.792 -0.2314 -0.4210  0.3941
  374MOL0     C50361   1.281   9.382   5.750 -0.2112 -0.9264  0.0666
  374MOL0     C50362   1.311   9.396   5.613  0.2168  0.0189  0.1204
  374MOL0     O50363   1.437   9.397   5.565  0.2980  0.4907 -0.5357
  374MOL0     C50364   1.475   9.279   5.497 -0.8957  0.4403 -0.0625
  374MOL0     C50365   1.548   9.179   5.580 -0.9961  0.2476 -0.1382
  374MOL0     C50366   1.676   9.220   5.654  0.3905  1.3396 -0.2194
  374MOL0     C50367   1.731   9.104   5.748 -0.0661 -0.8456 -0.2118
  374MOL0     C50368   1.864   9.140   5.810 -0.1861  0.2775 -0.0577
  374MOL0     C50369   1.907   9.042   5.927 -0.3280  0.7857 -0.0217
  374MOL0     C50370   2.029   9.102   5.989 -0.0352 -0.0811  0.0123
  374MOL0     C50371   2.090   9.004   6.090 -0.1485  0.4841 -0.0861
  374MOL0     N50372   2.190   8.919   6.019  0.0668  0.5368 -0.4321
  374MOL0     C50373   2.152   8.799   5.950 -0.1958  0.6695 -0.7371
  374MOL0     C50374   2.244   8.784   5.863  0.0203  0.0889 -0.6927
  374MOL0     C50375   2.239   8.678   5.761 -0.4967 -0.9576  0.4703
  374MOL0     C50376   2.244   8.543   5.834 -0.4982  0.2898  0.1314
  374MOL0     C50377   2.381   8.499   5.895  0.0203 -0.3833  0.5466
  374MOL0     C50378   2.388   8.543   6.042  0.5376 -1.5626  0.2039
  374MOL0     O50379   2.271   8.505   6.120  0.0129  0.2297  0.2567
  374MOL0     C50380   2.213   8.588   6.210 -0.3135 -0.3379  0.1063
  374MOL0     C50381   2.094   8.547   6.268 -0.2088 -0.3849  0.2196
  374MOL0     C50382   2.021   8.631   6.356  0.5121  0.4441 -0.6361
  374MOL0     C50383   2.076   8.749   6.401  1.1399 -0.9784  0.7513
  374MOL0     C50384   2.021   8.822   6.518  0.7890  1.2547  0.5567
  374MOL0     O50385   1.927   8.760   6.595  1.1811 -0.4857  0.9393
  374MOL0     C50386   1.866   8.841   6.686  0.4040  0.1121  0.0929
  374MOL0     C50387   1.920   8.866   6.811  1.2964 -0.2252 -1.2100
  374MOL0     C50388   1.847   8.946   6.903 -0.9771 -0.0570 -0.4162
  374MOL0     C50389   1.724   9.008   6.870  0.3348 -0.2157 -0.7745
  374MOL0     O50390   1.656   9.090   6.961 -0.0989  0.1799 -0.0960
  374MOL0     C50391   1.627   9.025   7.087 -0.5230  0.9705 -0.4992
  374MOL0     C50392   1.516   9.093   7.151  0.8012  0.3320  0.5925
  374MOL0     C50393   1.392   9.037   7.094  0.4062  0.3499  0.1132
  374MOL0     C50394   1.266   9.046   7.188 -0.9236  0.2551 -0.2154
  374MOL0     C50395   1.141   8.982   7.126 -0.2254 -0.1442  0.7355
  374MOL0     C50396   1.021   8.991   7.221 -0.3020  0.7495  0.5637
  374MOL0     C50397   0.900   8.911   7.184 -1.0442 -0.2397  1.0855
  374MOL0     C50398   0.825   8.989   7.076 -0.2575 -0.4741  0.4932
  374MOL0    Cl50399   0.699   8.876   7.024 -0.3439 -0.0703 -0.4036
  374MOL0     C50400   1.669   8.975   6.748 -0.3774 -0.2276  0.9083
  374MOL0     C50401   1.742   8.893   6.656  0.5164 -0.1136 -0.4145
  374MOL0     O50402   2.058   8.937   6.526  0.3718  0.1060  0.3840
  374MOL0     C50403   2.203   8.789   6.350  0.2823 -0.2997  0.2316
  374MOL0     C50404   2.261   8.710   6.243 -0.3684 -0.3945 -0.3592
  374MOL0     N50405   2.339   8.883   5.859  0.7227  0.0663  0.3639
  374MOL0     N50406   2.306   8.960   5.963  0.6202  0.4243  0.1946
  374MOL0     C50407   1.207   9.426   5.521  0.8447  0.9009 -0.1286
  374MOL0     C50408   1.076   9.436   5.563 -0.4030 -0.2384  0.2973
  374MOL0     C50409   0.709   9.468   5.845 -0.3627  0.8198 -1.1436
  374MOL0     C50410   0.646   9.553   5.931  0.0442 -0.1060  0.5895
  374MOL0     C50411   0.510   9.549   5.951  1.1166 -0.2809 -0.4528
  374MOL0     C50412   0.425   9.454   5.888  0.5702 -0.5834 -0.0401
  374MOL0     O50413   0.288   9.437   5.904 -0.2185 -0.0035 -0.1121
  374MOL0     C50414   0.231   9.530   5.997  0.3683 -0.1994  0.5414
  374MOL0     C50415   0.086   9.487   6.022  0.3305 -0.4844 -0.0861
  374MOL0     C50416   0.033   9.575   6.139 -0.1376 -0.3330 -0.5349
  374MOL0     C50417  -0.102   9.546   6.199  0.2208 -0.3696 -0.3100
  374MOL0     C50418  -0.208   9.556   6.098  0.4729 -0.0922  0.3443
  374MOL0     C50419  -0.301   9.551   6.027  0.4577 -0.7095 -0.4608
  374MOL0     C50420   0.488   9.367   5.801  0.4397 -0.2676  0.9540
  374MOL0     C50421   0.630   9.376   5.772  0.7910  0.9932 -0.0771
  374MOL0     C50422   0.664   9.283   5.661 -1.0089  0.0813 -0.1707
  374MOL0     H50423   1.129   9.393   5.899  0.6387  1.9111  0.8161
  374MOL0     H50424   1.353   9.352   5.825 -0.3291 -0.8467  0.2129
  374MOL0     H50425   1.386   9.237   5.449 -2.4095 -2.2498  4.4402
  374MOL0     H50426   1.541   9.318   5.419  0.2475 -0.2765  0.5177
  374MOL0     H50427   1.571   9.093   5.516  0.9024  0.1137  0.6605
  374MOL0     H50428   1.481   9.138   5.656 -1.0187 -0.7590 -0.6882
  374MOL0     H50429   1.664   9.309   5.718  0.1410  3.1580 -2.6729
  374MOL0     H50430   1.747   9.248   5.576 -1.5273 -0.2641 -2.6691
  374MOL0     H50431   1.654   9.095   5.826 -0.7151  0.9625 -0.5756
  374MOL0     H50432   1.730   9.009   5.695  0.2943 -2.1337  1.9689
  374MOL0     H50433   1.932   9.134   5.725 -2.4545  2.0788 -2.1688
  374MOL0     H50434   1.856   9.240   5.854 -0.1459  0.6723 -0.9343
  374MOL0     H50435   1.843   9.035   6.015  1.4061 -1.7698  1.1382
  374MOL0     H50436   1.926   8.939   5.896 -2.9423 -0.7140  2.8574
  374MOL0     H50437   2.011   9.189   6.052  0.6730 -0.6026  0.9428
  374MOL0     H50438   2.096   9.139   5.911 -1.9501  1.1697 -1.1356
  374MOL0     H50439   2.143   9.055   6.171  0.0110 -0.6869  0.5790
  374MOL0     H50440   2.010   8.951   6.142 -0.1349  1.7952  1.3271
  374MOL0     H50441   2.054   8.754   5.951 -0.0912  0.4266 -1.2936
  374MOL0     H50442   2.159   8.694   5.687  0.9110  0.1810 -0.8822
  374MOL0     H50443   2.323   8.688   5.692 -2.2117 -2.1827 -1.9646
  374MOL0     H50444   2.168   8.538   5.912 -1.7213  3.0276 -0.7476
  374MOL0     H50445   2.213   8.466   5.762 -2.7026 -0.2916  1.6007
  374MOL0     H50446   2.462   8.543   5.836 -0.9503  1.2564  0.3559
  374MOL0     H50447   2.383   8.390   5.903 -3.8384 -0.9800 -3.1683
  374MOL0     H50448   2.413   8.649   6.058 -1.8567 -1.2866  2.9185
  374MOL0     H50449   2.473   8.502   6.097 -0.4024  0.7373  3.7612
  374MOL0     H50450   2.058   8.448   6.239 -3.1454  1.2811 -2.5766
  374MOL0     H50451   1.918   8.615   6.385  0.4743  1.7925  0.0557
  374MOL0     H50452   2.018   8.829   6.838 -0.2941 -2.7418  1.9281
  374MOL0     H50453   1.882   8.949   7.006  0.2203 -0.6231 -0.7831
  374MOL0     H50454   1.610   8.917   7.080  2.2985  0.1712  2.7017
  374MOL0     H50455   1.712   9.032   7.156 -1.3934 -3.0543  1.3162
  374MOL0     H50456   1.507   9.075   7.258 -1.4936 -0.0810  0.3939
  374MOL0     H50457   1.518   9.201   7.131 -3.6068  0.7274  1.1831
  374MOL0     H50458   1.363   9.089   7.002 -1.4758 -1.0920 -0.1586
  374MOL0     H50459   1.403   8.933   7.062 -1.8538 -0.5725  2.0451
  374MOL0     H50460   1.265   9.153   7.210  0.3049  1.0833 -3.6445
  374MOL0     H50461   1.292   8.995   7.282  0.2863 -0.7468 -1.0693
  374MOL0     H50462   1.165   8.878   7.101  1.2436  0.3921 -0.2251
  374MOL0     H50463   1.109   9.024   7.030 -2.4203  1.0815  1.9277
  374MOL0     H50464   1.060   8.960   7.318 -0.7538  0.1219  0.5510
  374MOL0     H50465   0.987   9.095   7.234 -1.1782  0.5083  0.2772
  374MOL0     H50466   0.834   8.915   7.271 -0.2718  2.1905  1.6266
  374MOL0     H50467   0.923   8.807   7.157  1.1729  0.3591  0.4750
  374MOL0     H50468   0.784   9.084   7.110  0.5719  0.8059 -1.8305
  374MOL0     H50469   0.883   9.013   6.986 -1.3108 -1.3313 -0.4460
  374MOL0     H50470   1.579   9.021   6.708 -0.7112  1.1581  3.1125
  374MOL0     H50471   1.692   8.853   6.568  2.9607  0.3687 -2.1174
  374MOL0     H50472   2.251   8.874   6.396 -3.3394  0.5164  2.9613
  374MOL0     H50473   2.357   8.753   6.217 -0.6243  1.4025  1.3869
  374MOL0     H50474   1.237   9.441   5.418  1.2621  3.9321  0.3290
  374MOL0     H50475   1.001   9.448   5.485  0.9065  0.8442 -0.8638
  374MOL0     H50476   0.702   9.631   5.982 -0.5740  0.2156  0.7900
  374MOL0     H50477   0.466   9.625   6.015 -1.6954 -0.3755 -2.1117
  374MOL0     H50478   0.228   9.635   5.964  0.2003  0.1227  1.5497
  374MOL0     H50479   0.288   9.519   6.090  0.9739  1.9309  0.4880
  374MOL0     H50480   0.083   9.386   6.064  1.3458 -1.1187 -1.4808
  374MOL0     H50481   0.009   9.488   5.944 -0.0289 -2.0919  0.2063
  374MOL0     H50482   0.024   9.674   6.093  0.3380  0.1890  0.4643
  374MOL0     H50483   0.107   9.589   6.219  0.7405  0.6250 -1.4934
  374MOL0     H50484  -0.110   9.446   6.242 -1.2547 -0.3410 -0.4736
  374MOL0     H50485  -0.119   9.624   6.274 -1.1704 -0.0320 -0.9397
  374MOL0     H50486  -0.390   9.553   5.967  1.4217 -0.1292 -1.9282
  374MOL0     H50487   0.426   9.289   5.759 -1.4557  2.1919 -1.1472
  374MOL0     H50488   0.583   9.217   5.632  1.1497 -4.6195  3.1871
  374MOL0     H50489   0.703   9.337   5.575 -1.2770 -0.5169 -0.6697
  374MOL0     H50490   0.739   9.219   5.709 -0.6797  0.0427 -0.7314
  375MOL0     O50491   9.111   3.830   9.934 -0.6241 -0.0740 -0.1720
  375MOL0     C50492   9.047   3.764  10.016  0.4298 -0.9568  0.3926
  375MOL0     O50493   9.089   3.655  10.080 -0.0806 -0.2698  0.3597
  375MOL0     C50494   9.213   3.606  10.048  0.2606 -0.0400 -0.4919
  375MOL0     C50495   9.235   3.476   9.988 -0.1150 -0.4841  0.1538
  375MOL0     C50496   9.365   3.441   9.940 -0.3233  0.2423 -0.2576
  375MOL0     C50497   9.470   3.530   9.947 -1.1101  0.6902  0.2704
  375MOL0     O50498   9.600   3.493   9.905 -0.8870  0.0239  0.4867
  375MOL0     C50499   9.628   3.400   9.802 -0.6687 -0.3142 -0.0116
  375MOL0     C50500   9.551   3.422   9.662 -0.2589  0.1484 -0.0744
  375MOL0     C50501   9.630   3.383   9.540  0.5117  0.0720  0.6540
  375MOL0     C50502   9.651   3.224   9.528 -0.4278  0.0591 -0.6747
  375MOL0     C50503   9.670   3.172   9.389  1.0345 -0.4759 -0.9559
  375MOL0     C50504   9.663   3.019   9.385 -0.5118 -0.4697  0.0211
  375MOL0     C50505   9.738   2.967   9.263 -0.2409 -0.4928  0.6043
  375MOL0     C50506   9.746   2.813   9.260 -0.3691  0.1837  0.1309
  375MOL0     N50507   9.808   2.775   9.134  0.5799  0.5866 -0.6730
  375MOL0     C50508   9.736   2.756   9.014 -0.5788  0.4569 -0.4155
  375MOL0     C50509   9.823   2.677   8.935 -0.3919 -0.0613  0.6068
  375MOL0     C50510   9.789   2.614   8.804  0.2311  0.3724  0.6614
  375MOL0     C50511   9.707   2.472   8.824 -0.5202 -0.6511  0.7912
  375MOL0     C50512   9.790   2.358   8.896  0.1826 -0.3313 -0.4100
  375MOL0     C50513   9.899   2.306   8.811 -0.6221  0.0809  0.0491
  375MOL0     O50514   9.859   2.290   8.679  0.0472  0.0347 -0.0941
  375MOL0     C50515   9.911   2.197   8.593 -0.5697 -0.0980  0.1110
  375MOL0     C50516   9.893   2.233   8.459  0.5141 -0.0411  0.3963
  375MOL0     C50517   9.934   2.144   8.358  0.8166 -0.3092  0.4337
  375MOL0     C50518   9.997   2.018   8.396 -0.5656 -0.3077 -0.2162
  375MOL0     C50519  10.039   1.926   8.287 -0.0802 -0.4889 -0.5010
  375MOL0     O50520   9.971   1.943   8.173  0.0147  0.3397  0.2936
  375MOL0     C50521  10.037   1.882   8.067 -0.1671  1.1998 -0.0360
  375MOL0     C50522  10.010   1.746   8.042  0.4131 -0.4132 -1.0161
  375MOL0     C50523  10.068   1.682   7.936 -0.1166 -0.0809 -0.2043
  375MOL0     C50524  10.154   1.749   7.853 -0.8536 -0.6150  1.0492
  375MOL0     O50525  10.222   1.689   7.748  0.4732 -0.5624  0.6658
  375MOL0     C50526  10.177   1.562   7.702 -0.5685  0.5229 -0.5387
  375MOL0     C50527  10.269   1.522   7.590  0.3528 -0.2882 -0.5852
  375MOL0     C50528  10.409   1.489   7.639  0.8745 -0.1081 -1.0704
  375MOL0     C50529  10.494   1.430   7.531  0.3132 -0.3959  0.7397
  375MOL0     C50530  10.474   1.279   7.530 -0.4702 -0.0241 -0.3165
  375MOL0     C50531  10.594   1.202   7.481 -1.0008  0.3527  0.6644
  375MOL0     C50532  10.597   1.063   7.543  0.5709  0.2508  0.4307
  375MOL0     C50533  10.709   0.985   7.487  0.3716  0.1420 -0.5852
  375MOL0    Cl50534  10.689   0.964   7.307 -0.1439 -0.7624  0.0424
  375MOL0     C50535  10.179   1.882   7.856 -0.2428 -0.3075 -0.9851
  375MOL0     C50536  10.123   1.944   7.972 -1.3229  0.3957 -0.3558
  375MOL0     O50537  10.132   1.842   8.301  0.0425 -0.1003  0.2637
  375MOL0     C50538  10.032   1.995   8.527  0.1263 -0.5117  0.3153
  375MOL0     C50539   9.982   2.079   8.631  0.1925 -0.4725 -0.1247
  375MOL0     N50540   9.937   2.652   9.004 -0.3066 -0.8744  0.0554
  375MOL0     N50541   9.917   2.698   9.127 -0.4209  1.0485  0.4011
  375MOL0     C50542   9.454   3.661  10.011 -0.2003  0.2061 -0.0923
  375MOL0     C50543   9.326   3.692  10.054  0.3993 -0.9955  0.4699
  375MOL0     C50544   8.901   3.798  10.033  0.7119 -0.9839 -0.1239
  375MOL0     C50545   8.832   3.749  10.145 -0.0839 -0.0642  1.4625
  375MOL0     C50546   8.699   3.774  10.168 -0.0960  0.0495  0.6663
  375MOL0     C50547   8.621   3.856  10.088 -0.0008  0.1417  0.7545
  375MOL0     O50548   8.485   3.883  10.100  0.6690 -0.4100  0.1118
  375MOL0     C50549   8.419   3.852  10.225  0.2744  0.0635  0.2157
  375MOL0     C50550   8.276   3.884  10.209  0.6764  0.4517  1.0351
  375MOL0     C50551   8.196   3.781  10.119 -0.6308 -0.2866 -0.9480
  375MOL0     C50552   8.046   3.824  10.126  0.9212 -0.4678 -0.1310
  375MOL0     C50553   7.970   3.723  10.192 -0.3532 -0.3089  0.2549
  375MOL0     C50554   7.909   3.624  10.229  0.6513 -0.7783  0.6606
  375MOL0     C50555   8.690   3.916   9.978  0.0941 -0.1561 -0.9719
  375MOL0     C50556   8.816   3.885   9.942  0.0564  0.3934  0.0126
  375MOL0     C50557   8.868   3.942   9.812 -0.3314  0.0449 -0.5164
  375MOL0     H50558   9.147   3.415   9.970 -0.0199 -0.6476  0.2454
  375MOL0     H50559   9.396   3.347   9.897 -2.8834 -1.2843  1.0301
  375MOL0     H50560   9.736   3.398   9.787 -0.5054  4.3130 -0.9979
  375MOL0     H50561   9.605   3.295   9.826 -1.4405  0.2720  2.0449
  375MOL0     H50562   9.526   3.529   9.661  1.0976  0.5033  1.2088
  375MOL0     H50563   9.460   3.363   9.674  1.8972 -3.7595 -1.3465
  375MOL0     H50564   9.724   3.440   9.537  0.6418 -0.1735  0.0811
  375MOL0     H50565   9.569   3.413   9.455  2.3258  1.3938 -0.2475
  375MOL0     H50566   9.736   3.189   9.588 -0.0992  1.1636 -0.4738
  375MOL0     H50567   9.559   3.183   9.570  0.0937  0.7300  1.2504
  375MOL0     H50568   9.588   3.217   9.333 -0.5388  0.0955  1.6503
  375MOL0     H50569   9.767   3.208   9.353  0.4625  2.4314  0.1391
  375MOL0     H50570   9.704   2.978   9.477  2.0505  3.3834  0.8197
  375MOL0     H50571   9.558   2.988   9.394 -0.6775  0.7237  3.5310
  375MOL0     H50572   9.839   3.010   9.263  1.0434 -3.1253 -2.1840
  375MOL0     H50573   9.698   3.012   9.172 -0.9548 -1.8097  0.2434
  375MOL0     H50574   9.799   2.765   9.342  0.1725  0.3598 -0.1077
  375MOL0     H50575   9.646   2.768   9.256 -0.4431  0.2031  1.4246
  375MOL0     H50576   9.637   2.791   8.990 -1.3198 -1.8519 -0.9935
  375MOL0     H50577   9.711   2.674   8.756  0.7727  1.0674  0.6442
  375MOL0     H50578   9.870   2.590   8.735  1.5451  1.0675  1.9199
  375MOL0     H50579   9.624   2.486   8.894 -2.7467 -2.9264 -1.1517
  375MOL0     H50580   9.667   2.445   8.725  2.1266 -1.4492 -0.1360
  375MOL0     H50581   9.729   2.275   8.933  0.6307 -0.3500  0.3095
  375MOL0     H50582   9.817   2.418   8.983 -0.5555 -0.1006 -0.3374
  375MOL0     H50583   9.945   2.217   8.854 -1.9584 -1.1164 -0.9207
  375MOL0     H50584   9.975   2.384   8.823 -2.6431  2.1905 -0.2047
  375MOL0     H50585   9.845   2.329   8.441 -1.9052 -1.2225  0.0067
  375MOL0     H50586   9.902   2.173   8.259 -4.3512  1.2240  2.1801
  375MOL0     H50587   9.951   1.679   8.104  0.0725 -0.5932 -1.5268
  375MOL0     H50588  10.043   1.577   7.927 -2.5443  0.2599  1.5317
  375MOL0     H50589  10.201   1.496   7.786  1.7475  1.8504 -0.0640
  375MOL0     H50590  10.072   1.570   7.672 -0.5903  0.3623 -0.5097
  375MOL0     H50591  10.229   1.446   7.522 -1.4401  0.4284 -0.3904
  375MOL0     H50592  10.270   1.610   7.526  1.4204 -1.0766 -1.6975
  375MOL0     H50593  10.447   1.591   7.650 -2.3719  1.2248 -1.0308
  375MOL0     H50594  10.424   1.449   7.740 -0.5275  3.0361  0.5335
  375MOL0     H50595  10.599   1.436   7.558  0.2784  0.3431  0.7140
  375MOL0     H50596  10.465   1.474   7.435  0.4577 -1.9835 -0.0742
  375MOL0     H50597  10.384   1.250   7.474  0.4798 -1.1948 -1.2905
  375MOL0     H50598  10.463   1.249   7.634 -0.0031 -0.2890 -0.3437
  375MOL0     H50599  10.591   1.202   7.372  0.2126  1.7629  0.5792
  375MOL0     H50600  10.691   1.247   7.507 -0.9507  1.1960 -0.8384
  375MOL0     H50601  10.504   1.019   7.508  1.1034  0.0801 -0.8199
  375MOL0     H50602  10.594   1.057   7.652 -2.1130 -0.7951  0.3646
  375MOL0     H50603  10.796   1.038   7.527 -1.7494  2.7526  0.8722
  375MOL0     H50604  10.713   0.887   7.536 -0.4533  0.0863 -0.6220
  375MOL0     H50605  10.236   1.929   7.777  0.7951 -4.4582 -2.9788
  375MOL0     H50606  10.155   2.046   7.990  2.6412 -1.3869  5.5617
  375MOL0     H50607  10.095   1.920   8.574  4.0509  1.6985 -0.9588
  375MOL0     H50608  10.002   2.067   8.737 -0.9857 -0.2165  0.1361
  375MOL0     H50609   9.543   3.722  10.015 -0.9064  1.1904  0.8934
  375MOL0     H50610   9.314   3.785  10.108 -0.3507 -1.1684  0.6086
  375MOL0     H50611   8.883   3.676  10.207  1.5923 -1.9626 -1.8939
  375MOL0     H50612   8.653   3.726  10.254  1.7097 -0.1528  1.5635
  375MOL0     H50613   8.452   3.905  10.315 -2.8950  2.0281  0.3594
  375MOL0     H50614   8.420   3.743  10.241 -0.9667  0.3440  2.6288
  375MOL0     H50615   8.264   3.988  10.176 -0.1009  1.0007  2.8969
  375MOL0     H50616   8.229   3.875  10.307 -0.2939 -1.0819  0.4656
  375MOL0     H50617   8.208   3.677  10.152 -3.5350 -0.2181  0.6794
  375MOL0     H50618   8.243   3.784  10.021 -0.2254  1.0495 -0.7383
  375MOL0     H50619   8.039   3.918  10.181  0.0394  1.1442 -2.8448
  375MOL0     H50620   7.996   3.819  10.029 -3.6868 -3.2119  2.0618
  375MOL0     H50621   7.871   3.546  10.292 -1.0052  3.2211  5.2914
  375MOL0     H50622   8.635   3.988   9.918  0.4469  1.4772  0.5615
  375MOL0     H50623   8.880   4.050   9.823 -1.6949  0.0103  2.7435
  375MOL0     H50624   8.961   3.893   9.781 -0.2502 -0.8078  0.9470
  375MOL0     H50625   8.791   3.922   9.737 -3.0539  1.2082  1.7454
  376MOL0     O50626   2.663   0.848  10.960  0.8496 -0.0515  0.1518
  376MOL0     C50627   2.740   0.935  10.993 -0.2924  0.1692 -1.0257
  376MOL0     O50628   2.726   1.010  11.106 -0.3667  0.2973  0.4705
  376MOL0     C50629   2.616   0.986  11.197  0.0262  0.5183 -0.4466
  376MOL0     C50630   2.478   0.971  11.156  0.2607  0.4562 -0.1748
  376MOL0     C50631   2.385   0.934  11.254  0.9441 -0.1487 -0.1055
  376MOL0     C50632   2.418   0.924  11.387 -0.1552 -1.1144  0.4126
  376MOL0     O50633   2.315   0.899  11.475  0.3056 -0.1177 -0.8760
  376MOL0     C50634   2.353   0.854  11.602  0.0313  1.1710  0.0768
  376MOL0     C50635   2.220   0.804  11.675 -0.3579  0.0441  0.8082
  376MOL0     C50636   2.162   0.931  11.735  0.8292  0.6951 -0.5901
  376MOL0     C50637   2.010   0.892  11.768  0.2330 -0.4149  0.3163
  376MOL0     C50638   1.938   1.002  11.847 -0.9048  0.1515 -0.2912
  376MOL0     C50639   2.002   1.030  11.989  0.4815 -0.5569  0.3676
  376MOL0     C50640   1.946   1.152  12.058  0.1609  0.4621 -0.8692
  376MOL0     C50641   1.990   1.289  12.002 -0.0000 -0.1782 -0.2343
  376MOL0     N50642   2.090   1.366  12.085  0.0518  0.1887  0.2789
  376MOL0     C50643   2.220   1.389  12.046 -0.2123  1.2875  0.3031
  376MOL0     C50644   2.285   1.418  12.157  0.5888 -0.0891 -0.1347
  376MOL0     C50645   2.436   1.433  12.159  0.1805  0.1698 -0.6972
  376MOL0     C50646   2.497   1.457  12.298  0.2916  0.4088  0.1803
  376MOL0     C50647   2.562   1.327  12.342 -0.7427  0.2580  0.0299
  376MOL0     C50648   2.452   1.235  12.390 -0.3383  0.3192 -0.6397
  376MOL0     O50649   2.499   1.106  12.431  0.2670 -0.8818 -0.2677
  376MOL0     C50650   2.417   0.992  12.429  0.4329 -0.1149  0.4421
  376MOL0     C50651   2.277   0.992  12.414 -0.5293  0.1156  0.1210
  376MOL0     C50652   2.200   0.881  12.435  0.3892 -0.1655 -0.2728
  376MOL0     C50653   2.256   0.762  12.455 -0.7001  1.3516  0.6148
  376MOL0     C50654   2.187   0.630  12.454  0.1799 -1.0676  0.1441
  376MOL0     O50655   2.271   0.515  12.456  0.4725 -0.6927 -0.6923
  376MOL0     C50656   2.213   0.390  12.448  0.2607  0.2007  0.2870
  376MOL0     C50657   2.291   0.291  12.399  0.0226  0.3647  1.0890
  376MOL0     C50658   2.244   0.161  12.395  0.2099 -0.4195 -0.2161
  376MOL0     C50659   2.117   0.135  12.441 -0.1542 -0.2136  0.3636
  376MOL0     O50660   2.070   0.001  12.424  0.1396 -0.7520 -1.2513
  376MOL0     C50661   1.963   0.005  12.323  1.0065  0.3351  0.6316
  376MOL0     C50662   1.956  -0.147  12.273  0.1366  0.2072  0.0416
  376MOL0     C50663   2.037  -0.172  12.143 -0.3924  0.6047 -0.2333
  376MOL0     C50664   2.193  -0.187  12.149  0.8097  0.0029 -0.6759
  376MOL0     C50665   2.236  -0.265  12.028  0.1667  0.9482 -0.5164
  376MOL0     C50666   2.394  -0.277  12.018  0.3159  0.9267 -0.0611
  376MOL0     C50667   2.447  -0.378  11.917 -0.0565  0.6721  1.3223
  376MOL0     C50668   2.602  -0.373  11.922  0.8173  0.2788 -0.0066
  376MOL0    Cl50669   2.657  -0.491  12.038  0.0478  0.2040  0.1319
  376MOL0     C50670   2.038   0.229  12.506 -0.1624  0.0011  0.0523
  376MOL0     C50671   2.090   0.364  12.516  0.7908  0.3555  0.4525
  376MOL0     O50672   2.066   0.629  12.435 -0.0289  0.2903 -0.5294
  376MOL0     C50673   2.405   0.756  12.461  0.8830  0.3022 -0.5108
  376MOL0     C50674   2.484   0.872  12.466 -0.0186 -0.5213  0.1830
  376MOL0     N50675   2.189   1.422  12.254  0.0506  0.7266  0.2416
  376MOL0     N50676   2.073   1.399  12.216  0.7249  0.5862 -0.9656
  376MOL0     C50677   2.551   0.959  11.425 -0.4302 -0.0306 -0.7624
  376MOL0     C50678   2.659   0.968  11.332  0.6598 -0.0693 -0.2271
  376MOL0     C50679   2.865   0.957  10.909  0.3646 -0.2009 -0.5452
  376MOL0     C50680   2.967   1.044  10.961  1.2633  0.2140 -0.3892
  376MOL0     C50681   3.068   1.086  10.878  0.6663  0.2207 -1.0383
  376MOL0     C50682   3.101   1.028  10.756  0.1892  0.2822 -0.0778
  376MOL0     O50683   3.215   1.068  10.689  0.2266 -0.2838  0.8503
  376MOL0     C50684   3.307   1.142  10.762 -1.0291 -0.2528 -0.3610
  376MOL0     C50685   3.455   1.127  10.706  0.7372 -0.1969  0.3299
  376MOL0     C50686   3.555   1.203  10.791  0.3311  0.5021  0.4268
  376MOL0     C50687   3.560   1.156  10.939 -0.0387 -0.1239 -0.1482
  376MOL0     C50688   3.695   1.156  10.988 -0.3862  0.2201 -0.3179
  376MOL0     C50689   3.811   1.140  11.023  0.5883 -0.1618  0.8363
  376MOL0     C50690   3.006   0.938  10.705  0.3927  0.3212 -1.3471
  376MOL0     C50691   2.891   0.894  10.783 -0.2119 -0.6705  0.4380
  376MOL0     C50692   2.811   0.781  10.730  0.8202  0.4869 -0.4062
  376MOL0     H50693   2.445   0.963  11.053  1.2701 -0.4050 -0.4556
  376MOL0     H50694   2.288   0.901  11.217  0.0515  0.8587  1.2342
  376MOL0     H50695   2.431   0.777  11.601  0.3942  1.4613 -2.6002
  376MOL0     H50696   2.387   0.946  11.651 -0.5047  3.3248 -3.2550
  376MOL0     H50697   2.246   0.733  11.754  3.0158  1.7557  1.4101
  376MOL0     H50698   2.149   0.752  11.610  0.3404  1.0515 -0.8435
  376MOL0     H50699   2.146   1.011  11.662  1.7455 -0.1624 -1.7667
  376MOL0     H50700   2.227   0.965  11.816  1.1497  1.1605 -1.0298
  376MOL0     H50701   1.951   0.865  11.680 -2.2676 -0.4883  1.9403
  376MOL0     H50702   2.008   0.798  11.823  1.3756 -1.1224 -0.7991
  376MOL0     H50703   1.939   1.095  11.790 -3.3319  0.7441  0.5120
  376MOL0     H50704   1.835   0.967  11.863 -2.1838  2.5603 -2.4875
  376MOL0     H50705   2.001   0.951  12.065 -0.8110  0.7134  1.7230
  376MOL0     H50706   2.103   1.071  11.980 -1.2087  4.0589 -0.5926
  376MOL0     H50707   2.001   1.138  12.151 -2.6832 -0.8916  0.7394
  376MOL0     H50708   1.837   1.155  12.070  0.0986 -0.1869 -1.2342
  376MOL0     H50709   2.016   1.287  11.896  0.1917 -4.8671 -0.2941
  376MOL0     H50710   1.903   1.356  11.996 -0.2520 -0.1274  2.6316
  376MOL0     H50711   2.260   1.376  11.946 -0.4204  2.2751  0.0766
  376MOL0     H50712   2.485   1.357  12.098 -2.1492  0.9434 -3.7499
  376MOL0     H50713   2.455   1.524  12.101  0.0224  0.3423 -0.4819
  376MOL0     H50714   2.568   1.540  12.305 -1.5778  2.0046  0.9310
  376MOL0     H50715   2.430   1.488  12.378  0.7152 -0.5054  0.9021
  376MOL0     H50716   2.640   1.348  12.414  1.1755  0.6867 -2.0619
  376MOL0     H50717   2.621   1.283  12.261 -0.2197 -0.0403  0.5653
  376MOL0     H50718   2.377   1.217  12.312  1.0892 -1.5920 -1.6611
  376MOL0     H50719   2.408   1.284  12.477 -2.3510  0.0485 -1.4437
  376MOL0     H50720   2.226   1.086  12.398  1.7131  1.3632 -0.0733
  376MOL0     H50721   2.093   0.882  12.413  0.1143  0.1364  0.9943
  376MOL0     H50722   2.388   0.324  12.364  0.1011  0.2646  1.2113
  376MOL0     H50723   2.304   0.084  12.348  0.6448 -0.3180  0.1665
  376MOL0     H50724   1.867   0.040  12.363 -0.8240 -1.6742 -1.6566
  376MOL0     H50725   1.982   0.074  12.240  1.8303 -1.4410 -0.7291
  376MOL0     H50726   1.989  -0.217  12.350 -1.9952  0.1676  1.0099
  376MOL0     H50727   1.858  -0.183  12.238  2.8431 -4.3805 -4.1251
  376MOL0     H50728   1.999  -0.266  12.101  0.8328  0.9274 -2.2115
  376MOL0     H50729   2.013  -0.102  12.061 -0.4792 -2.0547 -2.6487
  376MOL0     H50730   2.218  -0.239  12.241  0.0356  0.8528  0.0318
  376MOL0     H50731   2.237  -0.087  12.147 -0.8716  0.7808 -1.7392
  376MOL0     H50732   2.198  -0.225  11.933  0.2232 -1.6657 -1.7329
  376MOL0     H50733   2.192  -0.364  12.048  1.3371  0.7175  1.1159
  376MOL0     H50734   2.430  -0.176  11.995  1.3203  0.5178 -0.3207
  376MOL0     H50735   2.435  -0.299  12.117  1.0198  0.6001 -0.4131
  376MOL0     H50736   2.420  -0.339  11.818 -1.1582  2.8939  2.4183
  376MOL0     H50737   2.400  -0.476  11.926  0.7010  0.2101  0.4322
  376MOL0     H50738   2.644  -0.384  11.822 -3.0427 -0.8011 -1.7289
  376MOL0     H50739   2.634  -0.274  11.954 -0.5591  0.2195  1.6909
  376MOL0     H50740   1.936   0.215  12.540 -0.5163  1.9733 -0.0812
  376MOL0     H50741   2.034   0.437  12.573 -0.5512  1.5569 -2.2042
  376MOL0     H50742   2.463   0.665  12.452  1.8500  0.9119 -0.5279
  376MOL0     H50743   2.590   0.879  12.487  0.3968  0.4917 -2.0474
  376MOL0     H50744   2.571   0.970  11.531 -0.1288  0.2886 -0.8481
  376MOL0     H50745   2.763   0.982  11.359  0.3874  3.6560 -0.5918
  376MOL0     H50746   2.945   1.097  11.053 -0.0800 -0.3969 -0.3386
  376MOL0     H50747   3.112   1.181  10.907  0.4208 -0.5027  1.9741
  376MOL0     H50748   3.305   1.116  10.868 -0.1378  0.1908 -0.2231
  376MOL0     H50749   3.288   1.248  10.744  2.2481  0.1224 -2.5414
  376MOL0     H50750   3.453   1.176  10.608 -2.6383  1.3844  1.0420
  376MOL0     H50751   3.484   1.022  10.699  5.7261  1.0162 -2.4107
  376MOL0     H50752   3.540   1.311  10.781  0.4808  0.6398  1.5544
  376MOL0     H50753   3.650   1.179  10.742 -0.7592 -1.2615 -0.9887
  376MOL0     H50754   3.500   1.224  11.001 -0.4488  1.1511 -1.8568
  376MOL0     H50755   3.531   1.051  10.948  2.0930 -0.6827  0.6385
  376MOL0     H50756   3.900   1.129  11.081  1.4574  2.5685  0.1581
  376MOL0     H50757   3.020   0.903  10.603  1.4354  0.6573 -1.3221
  376MOL0     H50758   2.779   0.709  10.806 -0.0074  1.2730  0.0138
  376MOL0     H50759   2.721   0.831  10.693  0.8113  2.3820  1.9914
  376MOL0     H50760   2.873   0.721  10.662 -0.7301 -1.4738 -0.2023
  377MOL0     O50761   8.729   2.325   6.091 -0.3489  0.1029 -0.6653
  377MOL0     C50762   8.812   2.326   6.184 -1.1376  0.4547 -0.2120
  377MOL0     O50763   8.914   2.239   6.186  0.4980 -0.0455 -0.6142
  377MOL0     C50764   8.916   2.135   6.098 -0.6551 -0.2380 -0.2177
  377MOL0     C50765   9.032   2.115   6.015  0.2621 -0.1252  0.3113
  377MOL0     C50766   9.036   1.994   5.936  0.1549  0.6410 -0.3739
  377MOL0     C50767   8.930   1.905   5.923 -0.0731 -0.5390  0.6823
  377MOL0     O50768   8.936   1.806   5.829 -0.0631  0.3926  0.3917
  377MOL0     C50769   8.830   1.707   5.819 -0.3289 -0.2628 -0.8360
  377MOL0     C50770   8.863   1.599   5.709 -0.8174  0.5605  0.0194
  377MOL0     C50771   8.740   1.505   5.686  0.5834  0.1516  0.9336
  377MOL0     C50772   8.691   1.489   5.540 -0.0308 -0.2897  0.4693
  377MOL0     C50773   8.558   1.409   5.537  0.4521 -0.4118 -0.0067
  377MOL0     C50774   8.520   1.366   5.397 -0.2673 -0.6220  1.1046
  377MOL0     C50775   8.410   1.266   5.398 -0.2881  0.1308  0.4699
  377MOL0     C50776   8.414   1.175   5.274  0.7755  0.2456 -0.0217
  377MOL0     N50777   8.291   1.099   5.286 -0.8425 -0.2085 -0.0213
  377MOL0     C50778   8.171   1.148   5.238  0.7709 -0.0569  0.2502
  377MOL0     C50779   8.091   1.043   5.229 -0.0840 -0.5283  0.9433
  377MOL0     C50780   7.951   1.049   5.177 -0.4224  0.3084  0.1596
  377MOL0     C50781   7.899   0.905   5.158 -1.2433 -0.7651 -0.0099
  377MOL0     C50782   7.757   0.897   5.115 -0.0744  0.3506 -0.5911
  377MOL0     C50783   7.659   0.965   5.215  0.4255  1.1015  0.6732
  377MOL0     O50784   7.631   0.881   5.329  0.3660 -0.2545 -0.5025
  377MOL0     C50785   7.514   0.891   5.407  0.7717 -0.8294  0.0528
  377MOL0     C50786   7.516   0.798   5.514  0.1762 -0.2087  1.1670
  377MOL0     C50787   7.400   0.798   5.596  0.1598  1.0292  0.1935
  377MOL0     C50788   7.294   0.870   5.569  0.9698  0.1711 -1.2359
  377MOL0     C50789   7.163   0.865   5.655 -0.0838 -0.0289 -0.0862
  377MOL0     O50790   7.168   0.776   5.763  0.9127  0.3968  0.2177
  377MOL0     C50791   7.059   0.756   5.841  0.1662 -0.0395 -0.0458
  377MOL0     C50792   6.938   0.827   5.858  0.1447 -0.4917 -0.5697
  377MOL0     C50793   6.829   0.775   5.924 -0.1810 -0.6675  0.0881
  377MOL0     C50794   6.837   0.649   5.982 -1.0575 -0.4410  0.5574
  377MOL0     O50795   6.748   0.591   6.076 -0.4300 -0.7518 -0.2515
  377MOL0     C50796   6.648   0.682   6.127  0.1802  0.1967  0.2433
  377MOL0     C50797   6.560   0.600   6.223 -0.6237  0.2122 -0.4073
  377MOL0     C50798   6.632   0.529   6.341 -0.5750 -0.4797 -0.1856
  377MOL0     C50799   6.553   0.414   6.401  0.3534  0.5781 -0.8651
  377MOL0     C50800   6.648   0.326   6.495 -0.1682  0.0219 -0.1860
  377MOL0     C50801   6.658   0.404   6.628 -0.6599 -0.3625 -0.7721
  377MOL0     C50802   6.745   0.320   6.724 -0.0288 -0.0476 -0.2690
  377MOL0     C50803   6.758   0.395   6.856  0.9158 -0.5574  0.3137
  377MOL0    Cl50804   6.614   0.348   6.968 -0.1792 -0.0241 -0.4538
  377MOL0     C50805   6.950   0.571   5.968  0.4109 -0.4110 -0.0588
  377MOL0     C50806   7.060   0.625   5.898 -0.5344 -0.7688  0.1210
  377MOL0     O50807   7.065   0.938   5.624  0.3993  0.3298 -0.3104
  377MOL0     C50808   7.293   0.971   5.473 -0.9918 -0.2029  0.2452
  377MOL0     C50809   7.404   0.986   5.391 -0.7185  0.2174 -0.5741
  377MOL0     N50810   8.155   0.938   5.291 -0.9161 -0.0283 -0.5633
  377MOL0     N50811   8.273   0.974   5.330  0.1417 -0.0363  0.2312
  377MOL0     C50812   8.828   1.919   6.011  0.0229 -0.0081 -0.1017
  377MOL0     C50813   8.815   2.036   6.092 -0.0998  0.7080  0.7378
  377MOL0     C50814   8.805   2.423   6.295 -0.4334 -0.3341  0.1855
  377MOL0     C50815   8.913   2.451   6.378  0.5301  0.6230 -0.2578
  377MOL0     C50816   8.917   2.555   6.469 -1.2586  0.1394  0.2071
  377MOL0     C50817   8.811   2.639   6.478 -0.2063 -0.5228  0.4865
  377MOL0     O50818   8.823   2.749   6.558 -0.0547  0.1605 -0.0473
  377MOL0     C50819   8.851   2.731   6.698 -0.4626 -0.5515 -0.0291
  377MOL0     C50820   8.747   2.638   6.758 -0.0450  1.1567 -0.0428
  377MOL0     C50821   8.604   2.695   6.754 -0.1548 -0.2376 -0.8260
  377MOL0     C50822   8.495   2.617   6.834 -0.2123  0.0819 -0.9185
  377MOL0     C50823   8.535   2.588   6.974 -0.5401  0.5903 -0.0938
  377MOL0     C50824   8.581   2.562   7.085  0.4441 -0.2497 -0.6161
  377MOL0     C50825   8.699   2.632   6.394 -0.7226  0.1989 -0.7057
  377MOL0     C50826   8.696   2.521   6.301  0.6653 -0.0431 -0.0796
  377MOL0     C50827   8.564   2.514   6.224 -0.0324  0.9814 -1.1759
  377MOL0     H50828   9.119   2.179   6.011  1.6324 -1.9737 -2.3205
  377MOL0     H50829   9.114   1.969   5.865 -0.1402 -1.0108 -0.1597
  377MOL0     H50830   8.816   1.658   5.916  0.1868 -0.1914 -0.7247
  377MOL0     H50831   8.745   1.771   5.792  0.2504  0.7463 -0.3117
  377MOL0     H50832   8.943   1.535   5.748 -1.8568  0.1943  1.6702
  377MOL0     H50833   8.906   1.646   5.620  3.6438 -1.4008  0.8494
  377MOL0     H50834   8.657   1.552   5.741  0.3983  0.6118  0.2741
  377MOL0     H50835   8.757   1.403   5.722 -0.6333 -1.4772 -2.6583
  377MOL0     H50836   8.669   1.586   5.495 -0.3625 -0.7792 -0.4426
  377MOL0     H50837   8.760   1.427   5.482 -0.5160  0.0624 -0.5133
  377MOL0     H50838   8.581   1.319   5.595  0.1511 -0.8029 -0.4875
  377MOL0     H50839   8.471   1.458   5.582 -0.3919  1.3598 -3.2266
  377MOL0     H50840   8.496   1.451   5.333 -3.1361 -1.7632  0.5318
  377MOL0     H50841   8.605   1.316   5.349 -0.7564  1.5921 -2.3508
  377MOL0     H50842   8.307   1.302   5.405 -1.5571 -3.4466  3.7002
  377MOL0     H50843   8.423   1.208   5.490 -0.6849  1.5755  1.4820
  377MOL0     H50844   8.419   1.230   5.180  1.7805 -1.9748 -1.3533
  377MOL0     H50845   8.501   1.110   5.281  1.0942  0.0761 -3.6680
  377MOL0     H50846   8.153   1.246   5.196 -1.6661 -0.0054  1.2206
  377MOL0     H50847   7.892   1.112   5.245  0.2780  0.7496  0.3688
  377MOL0     H50848   7.949   1.089   5.076 -2.4605 -2.2096 -0.9236
  377MOL0     H50849   7.962   0.851   5.087  1.2739  2.9552 -0.8962
  377MOL0     H50850   7.919   0.847   5.249  0.6779  0.4113  0.3765
  377MOL0     H50851   7.726   0.792   5.114 -1.1642  0.6632 -0.8297
  377MOL0     H50852   7.745   0.938   5.014  0.3123  3.2964  0.4726
  377MOL0     H50853   7.561   0.958   5.167  1.0011 -1.8797 -0.2822
  377MOL0     H50854   7.684   1.060   5.263  0.7585  2.0645 -1.2927
  377MOL0     H50855   7.606   0.738   5.525  1.0481  0.9574  0.5498
  377MOL0     H50856   7.399   0.733   5.683  4.3905  0.7190  0.2227
  377MOL0     H50857   6.914   0.918   5.805 -0.0472  0.1447  0.5716
  377MOL0     H50858   6.737   0.833   5.929  0.8347  0.9158  1.9865
  377MOL0     H50859   6.686   0.757   6.197  0.0635 -1.2045  1.8711
  377MOL0     H50860   6.588   0.725   6.046 -0.4498 -0.0286  0.5810
  377MOL0     H50861   6.477   0.658   6.265 -0.8215 -1.4026  1.6107
  377MOL0     H50862   6.526   0.514   6.165  2.1201 -2.7158  1.9208
  377MOL0     H50863   6.723   0.486   6.299  2.0951 -0.2497  4.6689
  377MOL0     H50864   6.649   0.606   6.418 -1.5991 -0.1089 -0.3068
  377MOL0     H50865   6.519   0.362   6.311 -0.0634 -0.2272 -0.2506
  377MOL0     H50866   6.474   0.442   6.470  0.2585 -0.8593 -0.3629
  377MOL0     H50867   6.746   0.309   6.450 -0.2661 -3.4891  0.6519
  377MOL0     H50868   6.615   0.222   6.498 -1.7402  0.4251 -1.6897
  377MOL0     H50869   6.695   0.505   6.611 -2.7230  0.4234 -0.9547
  377MOL0     H50870   6.560   0.423   6.674  0.7774  0.4542  2.2074
  377MOL0     H50871   6.849   0.308   6.693  0.4501  1.5390  0.5991
  377MOL0     H50872   6.701   0.222   6.743 -0.1370  0.4493  2.5821
  377MOL0     H50873   6.860   0.387   6.893  2.0577  0.4751 -2.3098
  377MOL0     H50874   6.740   0.501   6.838  0.4141 -0.5817  0.6629
  377MOL0     H50875   6.955   0.469   6.002 -2.2015 -0.1369  1.3510
  377MOL0     H50876   7.158   0.579   5.890  0.1962 -0.0790  3.5243
  377MOL0     H50877   7.202   1.030   5.468  0.7214  2.4928 -1.5974
  377MOL0     H50878   7.409   1.068   5.320  0.4108 -0.1712 -0.9729
  377MOL0     H50879   8.744   1.852   6.024  1.7611 -2.3632 -0.5219
  377MOL0     H50880   8.723   2.042   6.150 -1.7654 -2.0662 -1.3628
  377MOL0     H50881   9.005   2.393   6.369  2.1625  3.0950 -0.7954
  377MOL0     H50882   9.003   2.579   6.531 -0.0485  2.8422 -2.2498
  377MOL0     H50883   8.851   2.828   6.748 -0.6341 -0.2981 -0.5123
  377MOL0     H50884   8.954   2.699   6.715  0.9367  3.7379  0.8211
  377MOL0     H50885   8.790   2.624   6.858  0.5186  0.1143 -0.4159
  377MOL0     H50886   8.742   2.539   6.713 -5.9162 -0.1788  2.5402
  377MOL0     H50887   8.570   2.710   6.652 -1.8271  0.3458 -0.2212
  377MOL0     H50888   8.614   2.797   6.795  1.8363 -0.2058 -1.2888
  377MOL0     H50889   8.402   2.674   6.841 -2.4661 -3.1780 -1.6792
  377MOL0     H50890   8.465   2.528   6.778 -0.5567  0.4842 -1.3824
  377MOL0     H50891   8.618   2.528   7.179  2.6079 -0.6899 -1.5691
  377MOL0     H50892   8.614   2.700   6.392 -2.0105 -1.2742  0.9045
  377MOL0     H50893   8.530   2.412   6.246 -2.0624  1.4641 -1.8419
  377MOL0     H50894   8.490   2.590   6.252 -0.4017  0.5702 -1.0138
  377MOL0     H50895   8.599   2.522   6.121  1.4021  0.2652 -0.7719
  378MOL0     O50896   5.134   3.785   8.568 -0.2984 -0.0157 -0.2786
  378MOL0     C50897   5.198   3.802   8.675 -0.6911  0.5063 -0.3857
  378MOL0     O50898   5.336   3.789   8.685 -0.0219  0.8178 -0.1543
  378MOL0     C50899   5.419   3.756   8.576  0.5719  0.5713 -0.5388
  378MOL0     C50900   5.524   3.669   8.619  0.1970 -0.3496 -0.3794
  378MOL0     C50901   5.624   3.639   8.529  0.1424 -0.1495  0.4702
  378MOL0     C50902   5.612   3.676   8.400 -0.0099 -0.3467  0.4862
  378MOL0     O50903   5.724   3.648   8.315  0.0831  0.5035  0.0187
  378MOL0     C50904   5.726   3.698   8.182  0.6747  0.2259 -0.6862
  378MOL0     C50905   5.856   3.652   8.119 -0.0579  0.9267  0.1636
  378MOL0     C50906   5.864   3.506   8.075 -0.4641 -0.9218 -0.8540
  378MOL0     C50907   6.002   3.481   8.006  0.7071  0.2293  0.6350
  378MOL0     C50908   6.017   3.336   7.962 -0.6492 -0.1229  0.4012
  378MOL0     C50909   6.110   3.332   7.834 -0.6512  0.1829 -0.2703
  378MOL0     C50910   6.194   3.207   7.807 -0.2801 -0.5937 -0.9055
  378MOL0     C50911   6.291   3.241   7.695 -0.4327 -0.0849  0.0249
  378MOL0     N50912   6.355   3.118   7.645 -0.1322  0.2658 -0.8457
  378MOL0     C50913   6.484   3.082   7.682 -0.1083 -0.9321  0.0996
  378MOL0     C50914   6.517   2.978   7.601 -0.5438 -0.6506  0.3677
  378MOL0     C50915   6.636   2.905   7.580 -0.1564  0.0996  0.3460
  378MOL0     C50916   6.672   2.805   7.679  0.2358  0.5416 -0.1655
  378MOL0     C50917   6.811   2.738   7.670 -0.3771  0.3666  0.0280
  378MOL0     C50918   6.828   2.618   7.573  0.4243 -0.2316  0.8845
  378MOL0     O50919   6.769   2.499   7.627 -0.8569 -0.8830  0.1453
  378MOL0     C50920   6.856   2.402   7.665 -0.5602  0.0870  0.4227
  378MOL0     C50921   6.985   2.438   7.726 -0.0953  0.1448 -0.2275
  378MOL0     C50922   7.074   2.340   7.756  0.8316  0.7466 -0.3879
  378MOL0     C50923   7.044   2.209   7.762 -0.4310  0.1684  0.5068
  378MOL0     C50924   7.136   2.102   7.820 -0.7924  0.2803  0.3612
  378MOL0     O50925   7.267   2.143   7.866  0.5046 -1.0022 -0.0331
  378MOL0     C50926   7.339   2.066   7.952 -0.6576 -0.7994 -0.0423
  378MOL0     C50927   7.477   2.107   7.961 -0.1559  0.4810  0.1711
  378MOL0     C50928   7.571   2.031   8.029 -0.2213  0.0051 -0.2736
  378MOL0     C50929   7.532   1.919   8.107 -0.2070  0.2188  0.6044
  378MOL0     O50930   7.607   1.836   8.171 -0.1772 -0.9089 -0.2579
  378MOL0     C50931   7.732   1.892   8.212 -0.9953 -0.5953 -0.2546
  378MOL0     C50932   7.819   1.779   8.279  0.3877 -0.2688  0.0512
  378MOL0     C50933   7.953   1.827   8.346  0.6398 -1.8105  0.4258
  378MOL0     C50934   8.046   1.706   8.375  1.6406 -0.2753 -0.1008
  378MOL0     C50935   8.190   1.744   8.415  0.1035  0.0645  0.2343
  378MOL0     C50936   8.260   1.824   8.311  0.1903 -0.0515 -0.0285
  378MOL0     C50937   8.408   1.813   8.317  0.3643 -0.2578  0.5223
  378MOL0     C50938   8.466   1.846   8.447 -0.1428  0.8495  0.5368
  378MOL0    Cl50939   8.437   2.018   8.486 -0.0573 -0.2821  0.2801
  378MOL0     C50940   7.395   1.887   8.095 -0.4033 -0.0458  0.3909
  378MOL0     C50941   7.300   1.950   8.020 -0.5772 -0.1438  0.0408
  378MOL0     O50942   7.093   1.983   7.819 -0.3699  0.0857  0.5199
  378MOL0     C50943   6.910   2.181   7.718 -0.5200 -0.5535  0.7230
  378MOL0     C50944   6.820   2.266   7.657 -0.2541 -0.4942  0.1884
  378MOL0     N50945   6.412   2.951   7.515  0.0899  0.0434 -0.5460
  378MOL0     N50946   6.321   3.031   7.544 -0.3837  0.4759 -1.2878
  378MOL0     C50947   5.500   3.745   8.344 -0.2869  0.1798 -0.8015
  378MOL0     C50948   5.407   3.796   8.438  0.7062  0.1715  0.4982
  378MOL0     C50949   5.128   3.835   8.801  0.3339 -0.1857  0.3897
  378MOL0     C50950   5.022   3.923   8.789  0.9455  0.7271 -1.1815
  378MOL0     C50951   4.945   3.966   8.908 -0.2395 -0.4037 -0.7770
  378MOL0     C50952   4.969   3.913   9.037  0.5983 -0.1357 -0.1448
  378MOL0     O50953   4.893   3.930   9.146  0.2961 -1.1093 -0.3895
  378MOL0     C50954   4.762   3.870   9.155 -0.8562  0.1754  0.0261
  378MOL0     C50955   4.663   3.969   9.122 -0.3535 -0.4612 -0.4981
  378MOL0     C50956   4.522   3.942   9.185  0.6933  0.0457 -0.2935
  378MOL0     C50957   4.479   3.793   9.181  0.8308  0.0247 -0.0576
  378MOL0     C50958   4.497   3.736   9.046 -0.8275 -0.1143 -0.5504
  378MOL0     C50959   4.507   3.688   8.934  0.0064 -0.0800  0.5149
  378MOL0     C50960   5.076   3.819   9.045 -0.1850  0.2407 -0.1924
  378MOL0     C50961   5.154   3.784   8.928 -0.3659  0.2127 -0.1046
  378MOL0     C50962   5.258   3.673   8.943 -0.8744  0.3618 -0.4074
  378MOL0     H50963   5.519   3.638   8.723 -3.5409  1.0593  0.0340
  378MOL0     H50964   5.716   3.590   8.561  0.2549  0.4322  1.0569
  378MOL0     H50965   5.647   3.647   8.126 -0.3856 -1.7773  2.3765
  378MOL0     H50966   5.731   3.807   8.186  1.6010  0.1516  1.8639
  378MOL0     H50967   5.949   3.672   8.175  0.9273 -0.3685 -0.9415
  378MOL0     H50968   5.863   3.721   8.035  2.2344  2.9039  1.8179
  378MOL0     H50969   5.784   3.491   8.002 -1.1253  3.2126 -1.2071
  378MOL0     H50970   5.834   3.446   8.162 -2.6206  0.2404 -0.7178
  378MOL0     H50971   5.995   3.553   7.923 -1.3570  0.8179  1.2557
  378MOL0     H50972   6.086   3.510   8.070 -0.7039 -0.1733  2.7606
  378MOL0     H50973   6.056   3.276   8.044  0.6244  1.0123  0.6796
  378MOL0     H50974   5.918   3.301   7.933 -2.6658  1.7699  4.2570
  378MOL0     H50975   6.052   3.348   7.743  1.0521 -2.2952 -1.9396
  378MOL0     H50976   6.180   3.414   7.848  2.2989 -2.4855  2.3797
  378MOL0     H50977   6.146   3.112   7.779  0.5109 -2.0402  2.2206
  378MOL0     H50978   6.239   3.188   7.905  2.3296  1.7668 -1.5182
  378MOL0     H50979   6.247   3.293   7.609  0.1483 -1.7453 -1.3323
  378MOL0     H50980   6.370   3.304   7.736 -0.2736  0.1388 -0.6097
  378MOL0     H50981   6.541   3.132   7.760 -1.6616 -0.7800  1.1862
  378MOL0     H50982   6.652   2.863   7.480 -0.0164 -0.9526  0.7954
  378MOL0     H50983   6.715   2.980   7.583  0.4827 -0.2763 -2.8724
  378MOL0     H50984   6.670   2.856   7.776 -1.4931 -3.1863  1.9461
  378MOL0     H50985   6.596   2.727   7.681  0.3227  0.2615 -3.0880
  378MOL0     H50986   6.838   2.703   7.770  0.9748  0.4942 -0.2695
  378MOL0     H50987   6.893   2.808   7.653  0.5335 -0.8786 -0.9095
  378MOL0     H50988   6.935   2.607   7.556  0.9489 -0.2746  3.7518
  378MOL0     H50989   6.783   2.639   7.475 -0.3068 -2.1035  0.7880
  378MOL0     H50990   7.020   2.541   7.724  1.0461 -0.2208 -0.0623
  378MOL0     H50991   7.170   2.381   7.787 -0.0300  3.9506 -1.5204
  378MOL0     H50992   7.503   2.191   7.898 -1.5002 -0.5719 -1.9680
  378MOL0     H50993   7.676   2.057   8.023  0.6380 -2.6415  1.2763
  378MOL0     H50994   7.782   1.925   8.121 -2.0417 -1.1912 -1.0622
  378MOL0     H50995   7.725   1.974   8.284 -0.3520 -3.6486  3.6403
  378MOL0     H50996   7.759   1.726   8.354 -1.7177  1.0147 -0.6298
  378MOL0     H50997   7.835   1.711   8.194  0.0154  0.4226 -0.5873
  378MOL0     H50998   8.002   1.897   8.277 -1.6219 -0.2604  0.2845
  378MOL0     H50999   7.935   1.888   8.435 -0.0740 -1.7956  0.2768
  378MOL0     H51000   8.038   1.643   8.285 -1.5053  1.8286 -1.4938
  378MOL0     H51001   7.988   1.649   8.447  0.9776  0.0553 -0.3627
  378MOL0     H51002   8.236   1.644   8.418  1.5366  0.4983 -3.0510
  378MOL0     H51003   8.195   1.791   8.514  1.1527 -0.8303  0.6327
  378MOL0     H51004   8.227   1.787   8.213 -0.1173  0.2743 -0.0509
  378MOL0     H51005   8.235   1.927   8.338  0.3623 -0.5341  2.1347
  378MOL0     H51006   8.454   1.884   8.247 -1.9885  0.9182  0.0746
  378MOL0     H51007   8.444   1.713   8.294 -0.1586 -0.1578 -0.7952
  378MOL0     H51008   8.423   1.778   8.521  1.9882 -3.5570 -1.8632
  378MOL0     H51009   8.572   1.827   8.430 -0.7712 -2.1898 -0.5785
  378MOL0     H51010   7.355   1.799   8.145 -4.4019  0.8303 -0.9164
  378MOL0     H51011   7.195   1.923   8.023 -0.5512 -0.6834 -2.3674
  378MOL0     H51012   6.890   2.075   7.708 -1.6902 -0.1116 -3.0251
  378MOL0     H51013   6.726   2.231   7.615 -0.0733 -1.2491  0.3963
  378MOL0     H51014   5.510   3.793   8.247 -4.4560  3.2869  0.0346
  378MOL0     H51015   5.324   3.863   8.418  1.7360  1.0871 -0.8922
  378MOL0     H51016   5.012   3.977   8.696  1.6490  2.1416 -0.4595
  378MOL0     H51017   4.879   4.050   8.889  0.2799  0.1227 -0.2986
  378MOL0     H51018   4.736   3.856   9.260 -0.3937  2.8160  0.5423
  378MOL0     H51019   4.759   3.778   9.095 -1.4037 -1.4130  2.3570
  378MOL0     H51020   4.664   3.988   9.014 -0.9116  5.4833  0.2325
  378MOL0     H51021   4.680   4.063   9.175 -1.2978 -2.2767  3.3905
  378MOL0     H51022   4.443   4.000   9.137  1.4999  3.1494  1.7885
  378MOL0     H51023   4.509   3.976   9.289  1.9318 -0.8755  0.1810
  378MOL0     H51024   4.540   3.745   9.258  0.9561  1.2568  0.6408
  378MOL0     H51025   4.375   3.777   9.211  1.0709 -2.6311 -0.4804
  378MOL0     H51026   4.501   3.645   8.836 -2.7139  0.0320  0.5547
  378MOL0     H51027   5.101   3.765   9.135  1.4837 -0.1275 -0.8426
  378MOL0     H51028   5.258   3.625   9.042 -1.1301  4.7424  1.9559
  378MOL0     H51029   5.240   3.596   8.867 -2.7856  0.2479  0.1250
  378MOL0     H51030   5.352   3.724   8.920 -0.7312  0.3299  0.1004
  379MOL0     O51031   1.671   7.440   8.691  0.2319 -0.2939  0.1622
  379MOL0     C51032   1.703   7.499   8.785 -0.3746 -0.6240 -0.0761
  379MOL0     O51033   1.623   7.584   8.855 -0.4290 -0.3600 -0.3628
  379MOL0     C51034   1.507   7.602   8.778  0.4354  0.0229  0.1433
  379MOL0     C51035   1.390   7.535   8.822 -0.0827 -0.5233  0.5415
  379MOL0     C51036   1.267   7.547   8.752 -1.1739  0.0204 -0.6147
  379MOL0     C51037   1.267   7.629   8.635 -0.6712 -0.5274  0.3330
  379MOL0     O51038   1.154   7.639   8.555  0.1372 -0.1769  0.6201
  379MOL0     C51039   1.023   7.618   8.619 -0.2552 -0.0511 -0.2629
  379MOL0     C51040   0.918   7.635   8.513  1.6095  0.4185  0.0398
  379MOL0     C51041   0.915   7.543   8.397  0.4909  0.6155 -0.0971
  379MOL0     C51042   0.902   7.395   8.427  0.9558  0.5244  0.2854
  379MOL0     C51043   0.868   7.319   8.298  0.2427  0.3102 -0.4595
  379MOL0     C51044   0.865   7.171   8.355 -0.0185 -0.5840  0.3906
  379MOL0     C51045   0.818   7.053   8.269  0.1113 -1.0172  0.1557
  379MOL0     C51046   0.930   7.007   8.171  0.5507 -0.2948 -0.6058
  379MOL0     N51047   0.914   6.869   8.132  0.4444 -0.0532  0.3382
  379MOL0     C51048   0.859   6.815   8.020  1.4111  0.2900 -0.1767
  379MOL0     C51049   0.870   6.683   8.033  0.5557 -0.2745  0.2234
  379MOL0     C51050   0.854   6.579   7.918 -0.1722 -0.2562  0.0249
  379MOL0     C51051   0.746   6.475   7.935  0.0146 -0.4997 -0.3028
  379MOL0     C51052   0.729   6.396   7.807 -0.0360 -1.0155 -0.5509
  379MOL0     C51053   0.585   6.343   7.794  0.9109  0.7983 -0.1499
  379MOL0     O51054   0.488   6.447   7.803 -0.0556 -0.2174 -0.5186
  379MOL0     C51055   0.361   6.416   7.778 -0.0533  0.5574  0.2701
  379MOL0     C51056   0.312   6.283   7.748 -0.3119  1.0257  0.2346
  379MOL0     C51057   0.176   6.269   7.735 -0.3513 -0.7637 -0.0394
  379MOL0     C51058   0.085   6.380   7.743  0.8675 -0.0203 -0.2463
  379MOL0     C51059  -0.062   6.359   7.731 -0.2411 -0.4679 -0.3732
  379MOL0     O51060  -0.149   6.464   7.736 -0.1195 -0.6496  0.6381
  379MOL0     C51061  -0.284   6.463   7.711  0.0088 -0.2888  0.3765
  379MOL0     C51062  -0.362   6.337   7.703  0.0188  0.1239 -0.1294
  379MOL0     C51063  -0.495   6.342   7.681  0.1056 -0.9190 -0.0651
  379MOL0     C51064  -0.558   6.469   7.663  0.5372 -0.6044 -0.0448
  379MOL0     O51065  -0.693   6.462   7.646 -0.1190 -0.2500  0.1793
  379MOL0     C51066  -0.773   6.583   7.646  0.0773 -0.2904  0.2957
  379MOL0     C51067  -0.914   6.535   7.644  0.1416  1.1264 -0.0764
  379MOL0     C51068  -0.989   6.559   7.514  0.1203  0.4814 -0.5455
  379MOL0     C51069  -1.129   6.496   7.510  0.1254  0.8037 -0.0159
  379MOL0     C51070  -1.212   6.518   7.380 -0.1360 -0.0873  0.1741
  379MOL0     C51071  -1.152   6.448   7.255  0.3110  0.4713  0.3970
  379MOL0     C51072  -1.241   6.457   7.127 -0.1200  0.0523 -0.2966
  379MOL0     C51073  -1.288   6.598   7.108 -0.0620 -0.2979  0.2003
  379MOL0    Cl51074  -1.139   6.705   7.100  0.0588 -0.6542 -0.2685
  379MOL0     C51075  -0.483   6.589   7.670 -0.4233 -0.0621  0.3713
  379MOL0     C51076  -0.347   6.583   7.690  0.1479  0.0969 -0.2020
  379MOL0     O51077  -0.092   6.246   7.732 -0.3730  0.2862 -0.4468
  379MOL0     C51078   0.136   6.513   7.763  0.2683  0.9106  0.0312
  379MOL0     C51079   0.271   6.523   7.788 -0.2392 -0.3057  0.0418
  379MOL0     N51080   0.923   6.657   8.167  0.2343  0.3202 -0.2924
  379MOL0     N51081   0.957   6.771   8.212 -0.3759  0.5301 -0.6234
  379MOL0     C51082   1.389   7.698   8.593 -0.8962 -0.3645  0.2013
  379MOL0     C51083   1.509   7.686   8.664  0.9850  0.0452 -0.6601
  379MOL0     C51084   1.833   7.468   8.856 -0.0673  0.3660  1.6717
  379MOL0     C51085   1.852   7.333   8.902  0.2397  0.5656 -1.1665
  379MOL0     C51086   1.979   7.300   8.960  0.0787  0.0647 -0.2597
  379MOL0     C51087   2.082   7.398   8.967 -0.5458 -0.7603  0.6309
  379MOL0     O51088   2.197   7.362   9.033 -0.7443  0.3515  0.2028
  379MOL0     C51089   2.317   7.447   9.018 -0.1438 -0.2590 -0.2262
  379MOL0     C51090   2.443   7.370   9.044 -0.2334  0.0455  1.5937
  379MOL0     C51091   2.454   7.321   9.184 -0.1321  0.0043  0.9073
  379MOL0     C51092   2.599   7.295   9.227  0.1146  0.2818  0.1154
  379MOL0     C51093   2.627   7.351   9.364  0.3052  0.2447  1.1998
  379MOL0     C51094   2.668   7.387   9.473  0.3319  0.3320  0.3745
  379MOL0     C51095   2.062   7.525   8.912 -0.1616 -0.6390  0.0531
  379MOL0     C51096   1.945   7.557   8.853 -0.0546 -1.0992  0.2452
  379MOL0     C51097   1.940   7.694   8.777  0.3090 -0.0874  0.1418
  379MOL0     H51098   1.393   7.464   8.904 -1.1738 -1.8272 -0.5049
  379MOL0     H51099   1.183   7.490   8.791 -0.2015 -0.6410  0.6126
  379MOL0     H51100   1.023   7.518   8.663  2.0334  0.8940  2.1463
  379MOL0     H51101   1.009   7.691   8.700  1.8044 -0.0512  0.1414
  379MOL0     H51102   0.918   7.735   8.469 -1.9996 -0.2346 -1.8385
  379MOL0     H51103   0.818   7.629   8.558  0.9721  1.2252 -1.1861
  379MOL0     H51104   1.006   7.578   8.348  0.3628  1.3315  0.1752
  379MOL0     H51105   0.822   7.573   8.347 -1.1004 -1.8354  1.1722
  379MOL0     H51106   0.996   7.350   8.462 -0.5963 -2.5589  0.8904
  379MOL0     H51107   0.827   7.378   8.505 -0.0930  0.8745 -0.6130
  379MOL0     H51108   0.772   7.352   8.257 -0.2799 -2.9412 -2.2642
  379MOL0     H51109   0.937   7.336   8.214  1.5143 -3.7545 -0.4425
  379MOL0     H51110   0.971   7.146   8.364  0.4054 -0.8931 -3.6327
  379MOL0     H51111   0.831   7.172   8.459  1.5873  2.5346  1.0155
  379MOL0     H51112   0.726   7.065   8.211  1.7743 -0.0545 -2.4882
  379MOL0     H51113   0.791   6.968   8.331 -2.2127 -1.0867 -0.8685
  379MOL0     H51114   0.934   7.073   8.084 -3.4791 -0.1462 -0.9045
  379MOL0     H51115   1.026   7.008   8.223 -1.1003  4.5192  3.1349
  379MOL0     H51116   0.803   6.866   7.942  2.2667 -0.4000 -1.2692
  379MOL0     H51117   0.816   6.649   7.843  1.5954  1.3902  0.5806
  379MOL0     H51118   0.948   6.536   7.881 -0.1217 -1.9889  2.0214
  379MOL0     H51119   0.783   6.402   8.007  2.5076  0.8731 -0.1008
  379MOL0     H51120   0.649   6.515   7.967  0.0130  0.1790 -1.1115
  379MOL0     H51121   0.801   6.315   7.798  0.9128 -0.5728  2.0583
  379MOL0     H51122   0.752   6.463   7.724  2.3163  0.5433  1.2183
  379MOL0     H51123   0.570   6.266   7.871 -3.1300  1.1436 -0.3599
  379MOL0     H51124   0.581   6.310   7.690  2.0113  1.6916 -0.4957
  379MOL0     H51125   0.373   6.193   7.750 -0.8006  0.7099  1.5522
  379MOL0     H51126   0.145   6.165   7.731  2.3695 -1.6591 -0.2781
  379MOL0     H51127  -0.315   6.240   7.711  0.5277  0.1512 -2.0871
  379MOL0     H51128  -0.558   6.254   7.679 -0.8229 -0.2499 -1.8786
  379MOL0     H51129  -0.754   6.637   7.740  0.9882  0.9742 -0.5752
  379MOL0     H51130  -0.750   6.648   7.561  1.2680 -1.6322 -0.4563
  379MOL0     H51131  -0.911   6.426   7.659  0.3709  1.4074  2.2401
  379MOL0     H51132  -0.967   6.571   7.732  0.0645  0.5912  0.1031
  379MOL0     H51133  -0.994   6.667   7.500 -1.7894  0.3676 -1.0332
  379MOL0     H51134  -0.923   6.516   7.438  0.4450 -2.3102  1.1720
  379MOL0     H51135  -1.187   6.533   7.595 -1.0487 -1.4174  0.2118
  379MOL0     H51136  -1.113   6.389   7.523 -2.0408  0.2283 -1.6474
  379MOL0     H51137  -1.209   6.627   7.368  0.7907 -0.2803 -1.7106
  379MOL0     H51138  -1.316   6.490   7.398 -0.2952  2.0878  3.3907
  379MOL0     H51139  -1.051   6.488   7.238  2.0793 -2.0340  3.7620
  379MOL0     H51140  -1.139   6.343   7.280 -0.4571  0.0494 -0.8746
  379MOL0     H51141  -1.319   6.383   7.142  1.4120 -1.5095  0.4198
  379MOL0     H51142  -1.187   6.431   7.036 -0.0791 -1.7997  0.2185
  379MOL0     H51143  -1.356   6.609   7.023 -0.9863 -0.2234  0.9333
  379MOL0     H51144  -1.355   6.629   7.188 -2.4151  0.6905 -2.0296
  379MOL0     H51145  -0.534   6.683   7.648  1.1259  0.3321 -1.8440
  379MOL0     H51146  -0.289   6.675   7.694  0.1343  0.2376 -2.1387
  379MOL0     H51147   0.078   6.605   7.761  0.4579  1.2124  3.2284
  379MOL0     H51148   0.299   6.622   7.822 -1.2697 -0.4567  1.4063
  379MOL0     H51149   1.373   7.760   8.505  1.1126 -2.3947 -1.7308
  379MOL0     H51150   1.592   7.754   8.648  0.0497  1.9402  1.8273
  379MOL0     H51151   1.772   7.260   8.912 -0.3885  1.4475  0.6627
  379MOL0     H51152   1.986   7.198   8.998 -4.3428 -1.3373 -2.5451
  379MOL0     H51153   2.306   7.530   9.088  0.1354  0.8785 -1.4959
  379MOL0     H51154   2.319   7.481   8.914 -0.1733 -4.9469 -2.0313
  379MOL0     H51155   2.528   7.437   9.029  0.3979 -1.1691 -0.9991
  379MOL0     H51156   2.447   7.299   8.960 -3.2665 -0.0259  1.3932
  379MOL0     H51157   2.407   7.224   9.204  0.3972 -0.1739  1.3234
  379MOL0     H51158   2.418   7.392   9.259  1.0474  2.3059 -0.5799
  379MOL0     H51159   2.602   7.186   9.234 -1.8447  0.2323  0.8765
  379MOL0     H51160   2.667   7.333   9.151 -2.1452 -0.0859 -2.2514
  379MOL0     H51161   2.699   7.399   9.575 -1.1924  0.1338  0.8921
  379MOL0     H51162   2.143   7.597   8.903 -3.4488  3.3195 -1.5738
  379MOL0     H51163   2.034   7.749   8.783  1.1579 -1.2881 -1.3989
  379MOL0     H51164   1.924   7.679   8.670  0.5343  0.6476 -0.0019
  379MOL0     H51165   1.868   7.757   8.831 -1.4419 -2.4166  0.7199
  380MOL0     O51166   2.730   3.325   9.473 -0.4382  0.7351  0.1684
  380MOL0     C51167   2.713   3.248   9.573 -0.0674 -0.8543  0.8089
  380MOL0     O51168   2.623   3.141   9.574 -0.3983 -0.3721  0.1897
  380MOL0     C51169   2.546   3.129   9.457 -0.4602 -0.2521  0.5640
  380MOL0     C51170   2.474   3.232   9.402  0.1603  0.6442 -0.9912
  380MOL0     C51171   2.407   3.221   9.276 -0.1146 -1.1516  0.6664
  380MOL0     C51172   2.415   3.098   9.207 -0.2282 -0.7851 -0.4449
  380MOL0     O51173   2.354   3.094   9.083 -0.1038 -0.1017  0.2348
  380MOL0     C51174   2.254   2.988   9.084  0.2720 -1.0640 -0.5682
  380MOL0     C51175   2.145   3.004   8.973  0.3529  0.2333  0.2147
  380MOL0     C51176   2.053   2.880   8.933  0.5673  0.0835 -0.3647
  380MOL0     C51177   1.952   2.849   9.049 -0.1210 -1.3957  1.4359
  380MOL0     C51178   1.853   2.748   9.009 -0.3071  0.0202 -0.3965
  380MOL0     C51179   1.762   2.785   8.896  0.6075  0.0979  0.8189
  380MOL0     C51180   1.643   2.683   8.885  1.1056  0.5383 -0.2197
  380MOL0     C51181   1.673   2.526   8.879 -0.4397 -0.5043 -0.3902
  380MOL0     N51182   1.744   2.497   8.755  0.0257  0.0927  0.7764
  380MOL0     C51183   1.704   2.549   8.642  1.8294  0.5287 -0.5252
  380MOL0     C51184   1.780   2.479   8.558  0.1024  0.7353 -0.3318
  380MOL0     C51185   1.775   2.483   8.401 -0.6794 -0.0428 -0.0996
  380MOL0     C51186   1.914   2.461   8.330  0.5642  0.0242  0.5853
  380MOL0     C51187   1.890   2.398   8.189  0.9145 -0.1049 -0.3397
  380MOL0     C51188   1.909   2.250   8.174  1.2761  1.0660 -0.2697
  380MOL0     O51189   1.804   2.183   8.248  0.1292  0.1585 -0.5032
  380MOL0     C51190   1.836   2.041   8.264 -0.0172  0.8177 -0.1061
  380MOL0     C51191   1.745   1.945   8.226 -0.9153 -0.7861  0.5706
  380MOL0     C51192   1.752   1.807   8.257 -0.1265 -0.2232  0.0684
  380MOL0     C51193   1.861   1.761   8.336 -0.5117 -1.1312 -0.5552
  380MOL0     C51194   1.888   1.620   8.373 -0.0088 -0.5190  0.3618
  380MOL0     O51195   2.003   1.605   8.445 -0.3690  0.7332  0.1217
  380MOL0     C51196   2.024   1.481   8.507 -0.2844  1.1337  0.4282
  380MOL0     C51197   2.133   1.404   8.471  0.6659  0.3292  0.9417
  380MOL0     C51198   2.161   1.280   8.531 -0.2551  0.3811 -0.3203
  380MOL0     C51199   2.084   1.232   8.646  0.0999  0.1732  0.5890
  380MOL0     O51200   2.110   1.119   8.709  0.5149  0.3122  0.1615
  380MOL0     C51201   2.066   1.106   8.851 -0.1641  0.1683  0.8827
  380MOL0     C51202   1.936   1.017   8.862 -0.1126 -0.1295 -0.1761
  380MOL0     C51203   1.956   0.867   8.823 -1.3853  0.1264 -0.2912
  380MOL0     C51204   1.816   0.794   8.800 -0.8064 -0.0491  0.0844
  380MOL0     C51205   1.791   0.677   8.907 -0.1773  0.3862 -0.5138
  380MOL0     C51206   1.668   0.610   8.868  0.1632  0.6902 -0.1699
  380MOL0     C51207   1.613   0.503   8.971  1.2624  0.0605  0.1033
  380MOL0     C51208   1.483   0.455   8.934  0.3095  0.5629 -0.4647
  380MOL0    Cl51209   1.499   0.351   8.786  0.2441 -0.5861  0.5863
  380MOL0     C51210   1.969   1.301   8.668 -0.5745  0.1640  0.3864
  380MOL0     C51211   1.938   1.421   8.602  0.6759  1.0124  0.9611
  380MOL0     O51212   1.810   1.529   8.354 -0.4204  0.5650  0.1748
  380MOL0     C51213   1.957   1.860   8.381 -0.4583  0.0269  0.2751
  380MOL0     C51214   1.943   1.995   8.344  0.5993  0.0037 -0.3538
  380MOL0     N51215   1.866   2.393   8.625 -0.7091  0.5762  0.5989
  380MOL0     N51216   1.839   2.398   8.748  0.7609  0.1740  0.0994
  380MOL0     C51217   2.483   2.989   9.267 -0.1705 -0.3194  0.2846
  380MOL0     C51218   2.554   3.005   9.396 -0.5727 -0.1481 -0.2960
  380MOL0     C51219   2.797   3.262   9.696 -0.1303 -0.0989 -1.3319
  380MOL0     C51220   2.783   3.163   9.796  0.8969  0.3492  0.3411
  380MOL0     C51221   2.855   3.156   9.913  0.0890  0.0155  0.1023
  380MOL0     C51222   2.960   3.240   9.930 -0.8172 -0.7891 -0.3496
  380MOL0     O51223   3.048   3.240  10.033 -0.4429 -0.5131 -0.0847
  380MOL0     C51224   3.035   3.143  10.131 -0.4866  0.6395 -0.9936
  380MOL0     C51225   3.162   3.140  10.216 -0.5457  0.3249  0.0125
  380MOL0     C51226   3.185   3.005  10.285  0.2149  0.7700  0.3976
  380MOL0     C51227   3.071   2.958  10.377 -0.9751  0.1950  0.1757
  380MOL0     C51228   2.955   2.904  10.306 -0.0056 -0.6453 -0.4036
  380MOL0     C51229   2.871   2.847  10.240 -0.7224  0.8685 -0.3715
  380MOL0     C51230   2.968   3.353   9.850  0.4218  0.0860 -0.0914
  380MOL0     C51231   2.880   3.373   9.738  0.2509 -1.0306 -0.4562
  380MOL0     C51232   2.934   3.492   9.647  0.5389  1.0878 -0.3070
  380MOL0     H51233   2.468   3.332   9.443  0.6975 -0.5307  2.2312
  380MOL0     H51234   2.362   3.303   9.221 -3.1862 -2.4683  1.0130
  380MOL0     H51235   2.308   2.893   9.086  1.4979 -0.4906 -2.9161
  380MOL0     H51236   2.204   3.014   9.178  2.5219 -1.1939  0.7482
  380MOL0     H51237   2.212   3.021   8.888  1.1779 -1.3509  0.5034
  380MOL0     H51238   2.073   3.085   8.980 -0.0725 -0.2063  1.1420
  380MOL0     H51239   2.116   2.798   8.899 -1.5177 -0.6299 -2.8346
  380MOL0     H51240   2.004   2.915   8.841 -1.3546 -0.4366  0.4188
  380MOL0     H51241   2.001   2.823   9.144 -3.0139 -1.4316  3.0493
  380MOL0     H51242   1.905   2.947   9.061 -0.9517 -1.5511 -0.3298
  380MOL0     H51243   1.906   2.656   8.980 -3.1240 -1.3218 -1.7846
  380MOL0     H51244   1.789   2.729   9.096 -0.6494  2.6598 -0.0126
  380MOL0     H51245   1.719   2.884   8.911 -0.4582 -0.2501  0.2332
  380MOL0     H51246   1.819   2.789   8.803  1.0766 -1.1867  1.0331
  380MOL0     H51247   1.572   2.718   8.810 -0.6272 -0.9787  0.5983
  380MOL0     H51248   1.591   2.694   8.981 -1.9686 -2.3424 -1.3346
  380MOL0     H51249   1.730   2.497   8.967  0.6004  0.3183 -0.7690
  380MOL0     H51250   1.576   2.476   8.875 -1.3255  0.6345  3.2693
  380MOL0     H51251   1.628   2.625   8.625 -0.6953 -2.1016 -2.1032
  380MOL0     H51252   1.710   2.402   8.369 -0.5250 -0.9689  1.7755
  380MOL0     H51253   1.739   2.580   8.365  1.1173  1.0884  0.9965
  380MOL0     H51254   1.965   2.558   8.325 -1.6967  1.2327 -0.7595
  380MOL0     H51255   1.973   2.391   8.390  0.1282 -0.3415  0.5912
  380MOL0     H51256   1.970   2.430   8.121  0.4621 -0.5952 -1.1170
  380MOL0     H51257   1.792   2.422   8.146  0.9109 -1.3023 -1.0346
  380MOL0     H51258   2.003   2.212   8.216 -0.1374 -0.8549  1.3486
  380MOL0     H51259   1.896   2.224   8.069 -3.2673  0.7591  0.1723
  380MOL0     H51260   1.661   1.977   8.165  0.6383  1.5627 -0.4946
  380MOL0     H51261   1.689   1.728   8.217 -0.8298  1.2232 -1.8501
  380MOL0     H51262   2.213   1.441   8.407  0.9869 -1.8383  0.0193
  380MOL0     H51263   2.234   1.207   8.499 -1.1112 -0.7463  0.2579
  380MOL0     H51264   2.144   1.047   8.900 -1.1116 -2.4628 -0.5415
  380MOL0     H51265   2.061   1.202   8.902  1.4045 -0.9637  3.3564
  380MOL0     H51266   1.902   1.024   8.966 -4.2240  1.6212 -1.4250
  380MOL0     H51267   1.849   1.045   8.801 -2.3155 -2.8744  1.4439
  380MOL0     H51268   2.014   0.882   8.732 -1.4307 -0.0368 -0.3477
  380MOL0     H51269   2.019   0.820   8.899 -1.2541  0.4560 -0.1947
  380MOL0     H51270   1.822   0.750   8.700 -0.4443  0.3697 -0.0840
  380MOL0     H51271   1.736   0.868   8.792 -1.4426 -0.9162 -2.4529
  380MOL0     H51272   1.769   0.716   9.007  0.3263  0.9118 -0.6025
  380MOL0     H51273   1.866   0.598   8.915 -1.0863 -0.3756  0.8272
  380MOL0     H51274   1.589   0.684   8.851 -1.0365 -1.3580 -5.7538
  380MOL0     H51275   1.696   0.561   8.774  2.9875 -0.0245  0.9452
  380MOL0     H51276   1.607   0.550   9.070  0.3507 -0.1415  0.1581
  380MOL0     H51277   1.685   0.421   8.972  1.0383 -0.2488  3.6468
  380MOL0     H51278   1.429   0.402   9.013  1.9873 -0.2818  0.1519
  380MOL0     H51279   1.425   0.542   8.901  2.5696  1.5544 -2.0650
  380MOL0     H51280   1.894   1.264   8.737  2.2292 -1.4559  2.7809
  380MOL0     H51281   1.840   1.464   8.623 -0.3367 -0.6341 -0.1186
  380MOL0     H51282   2.034   1.844   8.455  0.2575  2.0760  0.0293
  380MOL0     H51283   2.005   2.071   8.389  1.0326  0.5364 -1.8132
  380MOL0     H51284   2.487   2.894   9.214 -1.0110 -1.3393  1.9529
  380MOL0     H51285   2.615   2.929   9.444 -0.8171  0.8059  1.6301
  380MOL0     H51286   2.717   3.078   9.779  3.5955 -2.0569  1.0454
  380MOL0     H51287   2.833   3.078   9.985 -0.2601  0.2113  0.2093
  380MOL0     H51288   3.032   3.043  10.088 -3.9503 -1.1505  2.7170
  380MOL0     H51289   2.946   3.158  10.192 -0.7931 -0.0364 -1.2630
  380MOL0     H51290   3.158   3.214  10.296  1.4217 -2.0299  2.5102
  380MOL0     H51291   3.253   3.153  10.157  2.0731 -4.7348  2.2150
  380MOL0     H51292   3.282   3.009  10.335  0.7562 -1.3658 -0.3382
  380MOL0     H51293   3.196   2.923  10.212 -3.4094 -1.0629  1.6746
  380MOL0     H51294   3.109   2.876  10.439  1.2830 -0.6564 -2.1313
  380MOL0     H51295   3.046   3.046  10.437 -0.2416 -0.7402  1.9585
  380MOL0     H51296   2.789   2.794  10.196 -0.4487  0.2483 -0.1539
  380MOL0     H51297   3.034   3.431   9.884  1.1586 -0.4675 -0.2216
  380MOL0     H51298   2.983   3.563   9.714 -0.2848  0.0618  1.4308
  380MOL0     H51299   3.006   3.462   9.570  0.1717 -0.1875 -0.1644
  380MOL0     H51300   2.854   3.548   9.597  1.5739  0.7504 -2.4885
  381MOL0     O51301   7.303   9.119  11.336 -0.6271 -0.4475 -0.3560
  381MOL0     C51302   7.346   9.063  11.238  0.4421 -1.4444 -0.0490
  381MOL0     O51303   7.286   9.074  11.120 -1.1585 -0.4225  0.0341
  381MOL0     C51304   7.164   9.138  11.121 -0.6410  0.2577 -0.0719
  381MOL0     C51305   7.167   9.275  11.090 -0.3010  0.7376 -0.3191
  381MOL0     C51306   7.044   9.346  11.097 -1.0298 -0.3947  0.1983
  381MOL0     C51307   6.926   9.286  11.132 -0.3298 -0.1022  0.0426
  381MOL0     O51308   6.809   9.359  11.144  0.3061  0.5816  0.0107
  381MOL0     C51309   6.794   9.443  11.260  0.4153  0.7430  0.2795
  381MOL0     C51310   6.644   9.490  11.273  0.1582 -0.1529 -0.3922
  381MOL0     C51311   6.564   9.385  11.345  0.6065 -0.3269 -0.0714
  381MOL0     C51312   6.421   9.430  11.390  0.5819 -0.1746  0.6523
  381MOL0     C51313   6.317   9.316  11.429 -0.6995 -0.2655 -0.2572
  381MOL0     C51314   6.326   9.181  11.338  0.8971 -0.3203 -1.2841
  381MOL0     C51315   6.219   9.082  11.385 -0.2253  0.4533  0.9206
  381MOL0     C51316   6.074   9.126  11.374 -0.0401  0.7135 -0.0371
  381MOL0     N51317   5.989   9.049  11.462 -0.5461  0.8725  0.0624
  381MOL0     C51318   5.980   9.053  11.597  0.2705 -0.7172  0.1404
  381MOL0     C51319   5.900   8.947  11.632  0.6325 -0.3260  0.3525
  381MOL0     C51320   5.854   8.925  11.772  0.7112  0.3776  0.6525
  381MOL0     C51321   5.949   8.841  11.851 -0.0161  0.6246  0.1365
  381MOL0     C51322   5.965   8.697  11.798  0.3882 -1.3246  0.4114
  381MOL0     C51323   6.085   8.620  11.859  0.4499  0.2438  0.4173
  381MOL0     O51324   6.077   8.604  12.002 -0.1042  0.0451 -0.0586
  381MOL0     C51325   6.203   8.577  12.055  0.7564 -0.9756  0.0253
  381MOL0     C51326   6.206   8.569  12.198 -0.1172  0.2878 -0.6656
  381MOL0     C51327   6.322   8.540  12.269 -0.2357 -0.1449  0.6631
  381MOL0     C51328   6.440   8.508  12.205  0.3661  0.5833  0.4201
  381MOL0     C51329   6.556   8.450  12.281 -0.2016  0.3266 -0.1030
  381MOL0     O51330   6.595   8.518  12.388  0.0772 -0.5689  0.5782
  381MOL0     C51331   6.705   8.468  12.460  0.1951 -0.7012  1.1300
  381MOL0     C51332   6.822   8.416  12.403  0.3200 -0.9026 -0.7715
  381MOL0     C51333   6.927   8.364  12.487  0.0180 -0.5471 -0.1319
  381MOL0     C51334   6.916   8.358  12.627  0.3014 -0.2904  0.3514
  381MOL0     O51335   7.025   8.308  12.709  0.6390 -0.2775  0.1821
  381MOL0     C51336   7.082   8.390  12.809 -0.1763  0.0498 -0.9363
  381MOL0     C51337   7.225   8.345  12.848 -0.3410  0.1318  0.6996
  381MOL0     C51338   7.323   8.405  12.750 -0.0190  0.3620  0.1472
  381MOL0     C51339   7.461   8.370  12.804  0.3835  0.3251 -0.1121
  381MOL0     C51340   7.563   8.426  12.703 -0.5294  0.1217  0.4277
  381MOL0     C51341   7.700   8.368  12.746 -0.5901 -0.4771  0.3757
  381MOL0     C51342   7.800   8.389  12.646  0.1141 -0.4854 -0.0232
  381MOL0     C51343   7.936   8.320  12.666  0.1948 -0.6124  0.3130
  381MOL0    Cl51344   8.043   8.395  12.774 -0.0117 -0.3974 -0.2887
  381MOL0     C51345   6.798   8.409  12.687  0.1547 -0.6481 -0.4530
  381MOL0     C51346   6.699   8.465  12.601 -0.3337 -0.3622  0.6017
  381MOL0     O51347   6.609   8.345  12.244 -0.0878 -0.1648  0.2429
  381MOL0     C51348   6.438   8.510  12.064  0.9075  0.4837  0.4684
  381MOL0     C51349   6.324   8.534  11.994  0.6998 -1.4502 -0.2420
  381MOL0     N51350   5.853   8.891  11.515 -0.0616  0.4483 -0.2705
  381MOL0     N51351   5.912   8.952  11.419 -0.0945  0.2814  0.3612
  381MOL0     C51352   6.923   9.142  11.151 -0.1993 -0.2764  0.8856
  381MOL0     C51353   7.041   9.066  11.140 -0.7015  0.4667 -0.2830
  381MOL0     C51354   7.469   8.984  11.238 -0.0212 -0.0400 -0.3088
  381MOL0     C51355   7.509   8.917  11.119 -0.3622  0.2383 -0.0457
  381MOL0     C51356   7.635   8.868  11.102 -0.2928  0.2403  0.0460
  381MOL0     C51357   7.724   8.855  11.211 -0.0883 -0.6055 -0.6906
  381MOL0     O51358   7.855   8.805  11.201  0.2120 -0.7127  0.3542
  381MOL0     C51359   7.901   8.722  11.302  0.2116  0.3006  0.5402
  381MOL0     C51360   7.845   8.577  11.304 -0.9140  0.0112  0.5253
  381MOL0     C51361   7.692   8.565  11.334  0.3488 -0.1372 -0.4760
  381MOL0     C51362   7.649   8.419  11.368  0.0179 -0.0709 -0.5820
  381MOL0     C51363   7.730   8.362  11.469 -0.4184 -0.0403  0.1445
  381MOL0     C51364   7.806   8.311  11.554  0.0801 -0.3583  0.9267
  381MOL0     C51365   7.685   8.915  11.333 -0.0922 -0.3710  0.9065
  381MOL0     C51366   7.558   8.976  11.353  0.3059 -0.3050  0.1729
  381MOL0     C51367   7.528   9.041  11.494 -0.4691  0.0899 -0.2781
  381MOL0     H51368   7.261   9.329  11.087 -0.9531  1.8933 -0.6463
  381MOL0     H51369   7.039   9.454  11.083 -1.9162 -0.1350  2.2689
  381MOL0     H51370   6.820   9.398  11.356 -2.3565 -3.3674 -0.6212
  381MOL0     H51371   6.865   9.524  11.240  1.6670 -0.7224 -1.5772
  381MOL0     H51372   6.600   9.511  11.175  0.2346  1.9791 -0.0340
  381MOL0     H51373   6.634   9.582  11.332 -4.0606  0.3649 -1.6077
  381MOL0     H51374   6.623   9.355  11.432  0.8903 -1.2537 -0.5656
  381MOL0     H51375   6.562   9.301  11.275  1.1143 -0.7466  0.4035
  381MOL0     H51376   6.438   9.496  11.476  1.3902  0.0260  0.3532
  381MOL0     H51377   6.377   9.479  11.303  0.2119 -2.5926 -0.6097
  381MOL0     H51378   6.355   9.298  11.531  1.3810  0.6633 -0.8135
  381MOL0     H51379   6.217   9.360  11.427 -0.4262  0.3286 -0.9618
  381MOL0     H51380   6.302   9.195  11.233  2.3995 -2.6973 -2.0076
  381MOL0     H51381   6.423   9.135  11.357  0.0367 -1.6069  0.3394
  381MOL0     H51382   6.238   9.061  11.490 -1.3619 -1.0536  0.8616
  381MOL0     H51383   6.237   8.983  11.341  2.5278  1.7223 -1.1507
  381MOL0     H51384   6.062   9.230  11.404 -2.0942  0.0096  1.8154
  381MOL0     H51385   6.053   9.110  11.268  0.7372  1.1207 -0.2620
  381MOL0     H51386   6.040   9.108  11.669  1.6457  0.2898 -1.6941
  381MOL0     H51387   5.824   9.026  11.801 -0.7418  1.0340 -2.6680
  381MOL0     H51388   5.757   8.874  11.767 -2.2377  5.4557 -0.7925
  381MOL0     H51389   6.046   8.892  11.859 -1.6376  3.5979  3.3667
  381MOL0     H51390   5.909   8.819  11.950 -0.0166 -0.8131 -0.1612
  381MOL0     H51391   5.997   8.702  11.694 -0.5243 -3.0414  0.0096
  381MOL0     H51392   5.871   8.642  11.807 -0.9260  0.2250 -2.3323
  381MOL0     H51393   6.178   8.671  11.834  1.1987 -0.9388  0.6791
  381MOL0     H51394   6.085   8.524  11.806 -3.0248  0.1677  0.3462
  381MOL0     H51395   6.118   8.605  12.250  1.8622  2.9652  1.1802
  381MOL0     H51396   6.331   8.536  12.377  1.8956 -0.1587  0.5229
  381MOL0     H51397   6.846   8.437  12.299 -0.7459  0.8991 -0.6986
  381MOL0     H51398   7.019   8.337  12.437 -0.6439 -2.2232 -0.4797
  381MOL0     H51399   7.088   8.494  12.777  1.7744 -0.3392 -2.0638
  381MOL0     H51400   7.013   8.390  12.894  0.0662 -1.3272 -0.7148
  381MOL0     H51401   7.255   8.384  12.946  2.1738  0.2793 -0.0704
  381MOL0     H51402   7.230   8.236  12.848  0.9777  0.1797  1.3312
  381MOL0     H51403   7.306   8.357  12.654 -3.1732  0.3557  0.5781
  381MOL0     H51404   7.306   8.512  12.729  1.2808  0.6561  0.5149
  381MOL0     H51405   7.474   8.261  12.807 -0.1993  0.2818  1.5324
  381MOL0     H51406   7.480   8.415  12.901 -2.0035 -0.2345  0.6737
  381MOL0     H51407   7.569   8.535  12.717  1.6944 -0.1695  2.1712
  381MOL0     H51408   7.538   8.420  12.597  2.5275 -0.1768 -0.3433
  381MOL0     H51409   7.733   8.414  12.840  0.4694  1.9790 -1.1134
  381MOL0     H51410   7.689   8.259  12.756 -0.5587 -0.3983  1.3422
  381MOL0     H51411   7.814   8.493  12.615  0.5907 -0.1795  1.1641
  381MOL0     H51412   7.763   8.349  12.551 -1.1636  0.1994  0.1607
  381MOL0     H51413   7.927   8.219  12.707  4.0637 -0.8017  1.0522
  381MOL0     H51414   7.984   8.312  12.568 -1.6330 -4.1317 -0.4734
  381MOL0     H51415   6.771   8.391  12.791  0.8667  0.3195 -0.0906
  381MOL0     H51416   6.602   8.494  12.641 -0.5745  0.6521 -0.6459
  381MOL0     H51417   6.528   8.489  12.007  0.8014 -0.3603  0.5902
  381MOL0     H51418   6.339   8.526  11.887 -2.8590  1.0148 -1.0937
  381MOL0     H51419   6.831   9.086  11.166 -0.3815 -0.0785  0.4948
  381MOL0     H51420   7.041   8.958  11.138 -2.4825  0.3813 -3.9215
  381MOL0     H51421   7.444   8.918  11.032  1.4230 -0.2667 -1.4374
  381MOL0     H51422   7.666   8.833  11.004  0.8112  3.1362 -0.7294
  381MOL0     H51423   7.894   8.764  11.403 -0.6963  2.1378 -0.2485
  381MOL0     H51424   8.009   8.714  11.285  0.0254  0.8665 -1.0078
  381MOL0     H51425   7.897   8.527  11.386  1.0799 -0.2913 -0.8619
  381MOL0     H51426   7.876   8.525  11.214 -0.5767  0.2467  0.5060
  381MOL0     H51427   7.636   8.597  11.246 -0.9726 -3.2628 -0.8738
  381MOL0     H51428   7.664   8.629  11.418 -1.6385 -0.4679 -0.8516
  381MOL0     H51429   7.543   8.426  11.395  1.0349 -0.5316  4.4379
  381MOL0     H51430   7.657   8.356  11.279 -1.5222  0.0094 -0.8101
  381MOL0     H51431   7.861   8.266  11.634  0.8100 -2.3226 -0.5790
  381MOL0     H51432   7.756   8.916  11.415  0.2052 -1.6586  0.6959
  381MOL0     H51433   7.584   8.980  11.565  3.7021  2.0709 -1.5599
  381MOL0     H51434   7.576   9.138  11.508 -1.9448  1.0294 -1.3482
  381MOL0     H51435   7.422   9.050  11.519 -0.0354  2.6500  0.9556
  382MOL0     O51436   4.850   2.205   1.523 -0.4129 -1.1183 -0.3374
  382MOL0     C51437   4.834   2.298   1.451 -0.4295 -0.2934 -0.2610
  382MOL0     O51438   4.919   2.407   1.443 -0.3575 -0.2700 -0.9784
  382MOL0     C51439   5.037   2.414   1.515 -0.5968 -0.2786  1.2217
  382MOL0     C51440   5.077   2.540   1.554  0.0632  0.0935 -0.4402
  382MOL0     C51441   5.190   2.563   1.631 -0.2492 -0.4711  0.4698
  382MOL0     C51442   5.277   2.457   1.668  0.0328 -0.4796 -0.3838
  382MOL0     O51443   5.398   2.471   1.734  0.2927 -0.0447 -0.1945
  382MOL0     C51444   5.439   2.609   1.753 -0.1755  0.4306 -0.2368
  382MOL0     C51445   5.574   2.607   1.812  0.4574  1.0030 -0.6185
  382MOL0     C51446   5.623   2.752   1.847  0.1273  0.1008  0.0059
  382MOL0     C51447   5.726   2.752   1.952 -0.2960 -0.3240  0.2428
  382MOL0     C51448   5.866   2.710   1.903  0.8481 -0.2295 -0.9936
  382MOL0     C51449   5.955   2.668   2.028  1.1258 -0.6847 -0.3952
  382MOL0     C51450   6.104   2.648   1.977 -0.4133 -0.3998  0.1757
  382MOL0     C51451   6.198   2.658   2.101  0.6819  0.1732 -0.1500
  382MOL0     N51452   6.337   2.632   2.078  0.3463  0.3608  0.4602
  382MOL0     C51453   6.425   2.709   1.996 -0.1122 -0.2320 -0.1279
  382MOL0     C51454   6.535   2.631   1.982 -0.6283  0.0462  0.3193
  382MOL0     C51455   6.642   2.669   1.894 -0.0297  0.0584 -0.5340
  382MOL0     C51456   6.775   2.684   1.965  0.5424  0.5325  0.2462
  382MOL0     C51457   6.779   2.804   2.053  0.3105  0.7555 -0.1359
  382MOL0     C51458   6.916   2.819   2.119  0.7266 -0.3465  0.2527
  382MOL0     O51459   7.005   2.853   2.006  1.3112  0.5388 -0.2789
  382MOL0     C51460   7.108   2.772   1.973 -0.1723  0.0767 -0.8449
  382MOL0     C51461   7.177   2.802   1.852  0.5475  0.4783  0.8187
  382MOL0     C51462   7.307   2.743   1.837  0.4946 -1.0786  0.8565
  382MOL0     C51463   7.358   2.643   1.923  0.0100  0.1779  1.2598
  382MOL0     C51464   7.485   2.576   1.885 -0.1652  0.2270  0.4315
  382MOL0     O51465   7.574   2.649   1.813 -0.1636 -0.4999  0.1434
  382MOL0     C51466   7.696   2.603   1.768  0.5253  0.3935 -0.5406
  382MOL0     C51467   7.742   2.468   1.781 -0.7232 -1.5192 -0.2771
  382MOL0     C51468   7.860   2.439   1.730  0.5481  0.2688  0.0881
  382MOL0     C51469   7.941   2.535   1.677 -0.2134 -0.3769  0.4651
  382MOL0     O51470   8.068   2.511   1.637 -0.4801  0.2289 -0.0499
  382MOL0     C51471   8.105   2.370   1.607 -0.0530 -0.9910 -0.1104
  382MOL0     C51472   8.246   2.366   1.538 -1.0210 -0.7237 -0.6109
  382MOL0     C51473   8.265   2.237   1.451 -0.4192 -0.3981 -0.2650
  382MOL0     C51474   8.376   2.265   1.345  0.7001 -0.2328 -0.3803
  382MOL0     C51475   8.513   2.294   1.408  0.6191 -0.7660 -0.5000
  382MOL0     C51476   8.617   2.331   1.300 -0.1316 -0.3525 -0.1945
  382MOL0     C51477   8.590   2.472   1.239  0.5369 -0.1129  0.2586
  382MOL0     C51478   8.700   2.523   1.142  0.2967  0.2982  1.1901
  382MOL0    Cl51479   8.632   2.633   1.019 -0.4666 -0.1717  0.0917
  382MOL0     C51480   7.895   2.662   1.648 -0.3181 -0.0774 -0.0720
  382MOL0     C51481   7.777   2.698   1.701 -0.5741 -0.7456 -0.1045
  382MOL0     O51482   7.505   2.466   1.939  0.3529 -0.1171 -0.6160
  382MOL0     C51483   7.287   2.614   2.036  0.5833 -0.0411  0.6214
  382MOL0     C51484   7.172   2.686   2.067 -0.3789  0.1342 -0.4495
  382MOL0     N51485   6.511   2.518   2.062 -0.0618  0.5677 -0.6706
  382MOL0     N51486   6.396   2.518   2.115  0.3162  0.1661  0.9577
  382MOL0     C51487   5.242   2.338   1.620 -0.6742  0.1866 -0.5761
  382MOL0     C51488   5.126   2.312   1.544 -0.1298  0.3758 -0.9163
  382MOL0     C51489   4.726   2.278   1.350  0.6532  0.1812 -0.6905
  382MOL0     C51490   4.756   2.332   1.227  0.0462  0.5566  0.1791
  382MOL0     C51491   4.659   2.325   1.129 -0.4342 -0.5280  0.2047
  382MOL0     C51492   4.539   2.258   1.142 -0.7142 -0.0073 -1.0085
  382MOL0     O51493   4.464   2.266   1.032 -0.0403  0.2918  0.8335
  382MOL0     C51494   4.348   2.183   1.025 -0.0835  0.3059 -0.0447
  382MOL0     C51495   4.281   2.207   0.892  0.1977  0.6107 -0.8592
  382MOL0     C51496   4.178   2.099   0.867  0.6551  0.5760 -0.0927
  382MOL0     C51497   4.231   1.962   0.824  0.8094 -0.1878  0.1940
  382MOL0     C51498   4.131   1.858   0.797  0.8327 -0.1811  0.3634
  382MOL0     C51499   4.035   1.776   0.802 -0.1737 -0.5012  0.1410
  382MOL0     C51500   4.509   2.189   1.262  0.0413 -0.5459 -0.0507
  382MOL0     C51501   4.596   2.204   1.371  0.9651  1.0868  0.3437
  382MOL0     C51502   4.562   2.138   1.501  0.7219  0.3790  0.3429
  382MOL0     H51503   5.011   2.623   1.531  0.5124  0.4120 -0.5925
  382MOL0     H51504   5.201   2.667   1.660  1.4695 -0.5553  0.2129
  382MOL0     H51505   5.431   2.670   1.663 -1.4528  1.7548  0.7158
  382MOL0     H51506   5.382   2.665   1.828  0.1547  0.9650 -0.3794
  382MOL0     H51507   5.639   2.550   1.745 -0.7144 -3.3190  1.5739
  382MOL0     H51508   5.577   2.550   1.906 -0.5661  0.3928 -0.9485
  382MOL0     H51509   5.541   2.815   1.882 -1.3354 -1.9537  0.4808
  382MOL0     H51510   5.667   2.803   1.760  1.4331  1.5569  1.4545
  382MOL0     H51511   5.732   2.851   1.998  1.1238 -1.5265  2.8590
  382MOL0     H51512   5.701   2.681   2.032  1.6184 -1.7536 -0.3669
  382MOL0     H51513   5.861   2.626   1.833  1.6825 -2.7471  1.7421
  382MOL0     H51514   5.908   2.800   1.857 -0.7995  2.3149  2.0633
  382MOL0     H51515   5.944   2.736   2.114 -2.8393 -0.4426 -0.9317
  382MOL0     H51516   5.912   2.570   2.051  0.5709 -0.6694 -1.3572
  382MOL0     H51517   6.144   2.722   1.907  2.6255  0.6061  2.7124
  382MOL0     H51518   6.123   2.550   1.932  1.6858 -0.7218  1.6081
  382MOL0     H51519   6.190   2.758   2.143 -0.9337 -0.4161  1.0762
  382MOL0     H51520   6.159   2.587   2.176  4.9049 -3.3963 -0.9024
  382MOL0     H51521   6.401   2.809   1.962 -3.0234 -0.3523  1.2954
  382MOL0     H51522   6.646   2.606   1.805  2.4812  1.7668 -1.7628
  382MOL0     H51523   6.625   2.764   1.842  0.5719 -1.2874 -3.4243
  382MOL0     H51524   6.796   2.589   2.015 -2.5712 -0.7457 -0.6717
  382MOL0     H51525   6.843   2.702   1.881 -0.8891  1.1799 -0.7991
  382MOL0     H51526   6.705   2.784   2.131  0.4758 -0.5772 -0.3062
  382MOL0     H51527   6.773   2.899   1.998  2.0358  0.2812 -1.2387
  382MOL0     H51528   6.941   2.727   2.172  2.0471 -1.6582 -2.4220
  382MOL0     H51529   6.921   2.912   2.177 -2.4085  0.2681 -0.2545
  382MOL0     H51530   7.156   2.876   1.776  0.4357 -0.1302  0.2457
  382MOL0     H51531   7.346   2.758   1.737  0.8816 -3.7109  0.5482
  382MOL0     H51532   7.692   2.393   1.842 -0.7058 -0.0957  1.5844
  382MOL0     H51533   7.886   2.335   1.748 -0.4809 -0.1302 -0.5740
  382MOL0     H51534   8.103   2.303   1.694  1.6545 -2.2234 -0.9691
  382MOL0     H51535   8.025   2.328   1.546  2.2538 -1.1446 -3.2322
  382MOL0     H51536   8.258   2.455   1.476  0.4023 -2.2238 -2.6219
  382MOL0     H51537   8.320   2.382   1.617 -0.1276 -0.3977 -1.5036
  382MOL0     H51538   8.288   2.158   1.523 -2.5538 -2.4685 -1.6750
  382MOL0     H51539   8.178   2.217   1.388 -0.3368  3.5105 -1.9119
  382MOL0     H51540   8.345   2.344   1.276 -0.0718 -0.4878 -0.3364
  382MOL0     H51541   8.387   2.169   1.296 -0.8529 -0.2429 -0.7768
  382MOL0     H51542   8.542   2.207   1.466 -0.1915 -1.5791 -1.2749
  382MOL0     H51543   8.509   2.379   1.478  2.3422 -1.5048  0.5477
  382MOL0     H51544   8.712   2.320   1.352  1.5646 -0.6633 -3.1236
  382MOL0     H51545   8.622   2.254   1.222  0.9514 -0.4124 -0.0780
  382MOL0     H51546   8.559   2.546   1.313 -1.5118  0.1876 -0.8439
  382MOL0     H51547   8.508   2.455   1.169  0.6666  0.3274 -0.0036
  382MOL0     H51548   8.784   2.573   1.192  1.0529  1.2742 -0.9454
  382MOL0     H51549   8.742   2.441   1.082 -1.8226 -0.5028  0.7125
  382MOL0     H51550   7.959   2.742   1.613  0.2142 -1.7282 -3.2811
  382MOL0     H51551   7.753   2.803   1.708  1.5070 -0.2871  0.8838
  382MOL0     H51552   7.330   2.534   2.095 -1.1926 -1.8046 -0.3275
  382MOL0     H51553   7.122   2.663   2.160 -3.3350  0.8436 -1.7674
  382MOL0     H51554   5.290   2.251   1.664  0.2517  1.6901  1.5724
  382MOL0     H51555   5.103   2.212   1.508 -1.1675 -0.6215  2.1674
  382MOL0     H51556   4.851   2.384   1.217 -0.8161  2.7424  2.0857
  382MOL0     H51557   4.677   2.364   1.029 -1.4690  2.2201  0.9876
  382MOL0     H51558   4.284   2.208   1.109  1.5652 -2.0869  2.0575
  382MOL0     H51559   4.366   2.076   1.040  0.1186  0.3784  0.2336
  382MOL0     H51560   4.361   2.208   0.818  2.3461  0.2143  1.3108
  382MOL0     H51561   4.236   2.305   0.914  0.5333 -0.1533  4.9869
  382MOL0     H51562   4.104   2.142   0.799  0.3185  2.0355  1.1571
  382MOL0     H51563   4.124   2.088   0.961  0.7272  1.3720  0.0449
  382MOL0     H51564   4.296   1.982   0.739  1.3927  0.0505  0.6930
  382MOL0     H51565   4.299   1.914   0.895 -2.2916 -2.5342  1.8385
  382MOL0     H51566   3.948   1.714   0.791 -1.0185  0.5860  0.5600
  382MOL0     H51567   4.411   2.143   1.266 -0.2592 -0.0759 -1.5534
  382MOL0     H51568   4.576   2.214   1.578  2.3693  1.1925 -0.7057
  382MOL0     H51569   4.457   2.107   1.506  1.2274 -1.5627 -0.1591
  382MOL0     H51570   4.625   2.054   1.533  0.0966  0.4559  1.9089
  383MOL0     O51571   4.931   1.614   0.092  0.1698 -0.3460 -0.1161
  383MOL0     C51572   4.969   1.517   0.157  0.5561  0.5313 -0.1729
  383MOL0     O51573   5.096   1.491   0.198 -0.0064 -0.3325  0.1576
  383MOL0     C51574   5.195   1.567   0.149 -0.0646 -0.9012  0.5835
  383MOL0     C51575   5.241   1.553   0.021 -0.1076 -0.3793  0.6585
  383MOL0     C51576   5.351   1.628  -0.021 -0.2212 -0.0459 -0.3101
  383MOL0     C51577   5.409   1.733   0.049  0.0942 -0.5582  0.6253
  383MOL0     O51578   5.500   1.812  -0.020 -1.1968  0.1960 -0.0753
  383MOL0     C51579   5.490   1.950   0.008  0.0008 -0.0836  0.3511
  383MOL0     C51580   5.581   2.036  -0.095  0.4908  1.0509  1.1337
  383MOL0     C51581   5.565   1.986  -0.239 -0.8369 -0.1706  0.1572
  383MOL0     C51582   5.648   2.072  -0.338  0.1849  0.2910  0.1339
  383MOL0     C51583   5.795   2.064  -0.319 -0.7515  0.1135 -0.0462
  383MOL0     C51584   5.843   1.917  -0.330 -0.2314 -0.0884  0.8478
  383MOL0     C51585   5.945   1.894  -0.435 -0.3615 -0.1545 -0.5049
  383MOL0     C51586   6.073   1.972  -0.398 -0.1709 -0.1190  0.4630
  383MOL0     N51587   6.164   1.884  -0.319 -0.3014  0.2543 -0.1675
  383MOL0     C51588   6.234   1.773  -0.365 -0.4742  0.1683  0.5918
  383MOL0     C51589   6.312   1.738  -0.257  0.7138  0.3179  1.0675
  383MOL0     C51590   6.421   1.634  -0.246 -0.6812 -0.5787  0.6184
  383MOL0     C51591   6.561   1.681  -0.299 -0.2544 -0.3276  0.2281
  383MOL0     C51592   6.629   1.812  -0.249 -0.3879  0.9526 -0.4148
  383MOL0     C51593   6.586   1.937  -0.332 -0.7439 -0.5575 -0.3236
  383MOL0     O51594   6.657   2.058  -0.289 -0.1439  1.0564 -0.0370
  383MOL0     C51595   6.785   2.075  -0.314  0.1576 -1.3410 -0.2577
  383MOL0     C51596   6.846   2.176  -0.229 -0.2724 -0.3327  0.4066
  383MOL0     C51597   6.974   2.216  -0.233  0.0720 -0.5773 -0.3192
  383MOL0     C51598   7.064   2.150  -0.320 -0.4573  0.2080  0.1169
  383MOL0     C51599   7.202   2.196  -0.345 -0.2683 -0.2255 -0.4763
  383MOL0     O51600   7.224   2.323  -0.299 -0.2658  0.5612 -0.1912
  383MOL0     C51601   7.356   2.360  -0.319  0.0671  0.1918 -0.6294
  383MOL0     C51602   7.455   2.299  -0.237 -0.2705  0.1196  0.2014
  383MOL0     C51603   7.592   2.332  -0.246 -0.5253 -1.7873  0.4452
  383MOL0     C51604   7.629   2.446  -0.326  0.7394 -0.0515  0.0442
  383MOL0     O51605   7.750   2.512  -0.332 -0.2281 -0.0339  0.2981
  383MOL0     C51606   7.861   2.428  -0.298 -0.5054 -0.3251 -0.1826
  383MOL0     C51607   7.987   2.518  -0.287  0.6975 -0.6808 -0.1264
  383MOL0     C51608   8.111   2.442  -0.235  0.1343  0.0994  0.0556
  383MOL0     C51609   8.147   2.326  -0.314 -0.5033  0.1003 -0.0325
  383MOL0     C51610   8.259   2.244  -0.251 -0.8572 -0.9142 -0.1331
  383MOL0     C51611   8.292   2.123  -0.333 -0.7185  0.4667  0.1602
  383MOL0     C51612   8.405   2.058  -0.260 -0.6068 -0.2179 -0.7480
  383MOL0     C51613   8.372   2.002  -0.119 -0.8678  0.2762  0.8504
  383MOL0    Cl51614   8.237   1.882  -0.116  0.3145 -0.1146  0.0797
  383MOL0     C51615   7.525   2.514  -0.396 -0.4051  0.3964  0.9448
  383MOL0     C51616   7.392   2.469  -0.392  0.0402  0.0784  0.3078
  383MOL0     O51617   7.282   2.118  -0.403 -0.2195  0.0132 -0.0272
  383MOL0     C51618   7.008   2.045  -0.394  1.1916 -0.5928  0.0620
  383MOL0     C51619   6.868   2.007  -0.394 -0.0158  0.3338 -0.6720
  383MOL0     N51620   6.296   1.827  -0.159  0.1413  0.1986  0.6393
  383MOL0     N51621   6.205   1.912  -0.188  0.5735  0.3335  0.3845
  383MOL0     C51622   5.354   1.751   0.174 -0.1008  0.3312  0.0092
  383MOL0     C51623   5.250   1.677   0.225  0.3964  0.9234  0.2682
  383MOL0     C51624   4.858   1.431   0.211  0.1018 -0.4892  0.1905
  383MOL0     C51625   4.894   1.345   0.318 -0.4019 -0.1160 -0.0185
  383MOL0     C51626   4.812   1.234   0.347 -0.4577 -0.1347  0.2230
  383MOL0     C51627   4.681   1.236   0.291 -0.2375  0.1334 -0.4153
  383MOL0     O51628   4.595   1.123   0.312 -0.1271  0.1279 -0.0033
  383MOL0     C51629   4.653   0.997   0.362  0.6622 -0.2427  0.2250
  383MOL0     C51630   4.540   0.905   0.393  0.7262  0.0179 -0.1273
  383MOL0     C51631   4.456   0.898   0.274  0.8084  0.1826 -0.1570
  383MOL0     C51632   4.326   0.823   0.313  0.8512  1.1802 -0.0298
  383MOL0     C51633   4.352   0.699   0.400  0.2057 -0.7202 -0.1304
  383MOL0     C51634   4.377   0.598   0.475 -0.7004 -0.6867 -0.2534
  383MOL0     C51635   4.637   1.331   0.200 -0.5031 -0.3985 -0.4975
  383MOL0     C51636   4.726   1.427   0.149 -0.2121  0.2710  0.2512
  383MOL0     C51637   4.686   1.527   0.044  1.2895  0.2695  0.4870
  383MOL0     H51638   5.189   1.488  -0.048  0.6482  0.9851 -1.2902
  383MOL0     H51639   5.376   1.624  -0.127  0.2607  0.3790 -0.2154
  383MOL0     H51640   5.386   1.982   0.004  0.7803  2.7078  0.4289
  383MOL0     H51641   5.521   1.970   0.111  0.5669 -3.4883  0.9751
  383MOL0     H51642   5.685   2.038  -0.061  1.2976 -1.2130 -0.9028
  383MOL0     H51643   5.541   2.138  -0.091  0.9686  1.2165  1.9956
  383MOL0     H51644   5.459   1.999  -0.263 -0.9031  0.0305  0.5506
  383MOL0     H51645   5.595   1.882  -0.229  2.3417  0.5968 -0.4260
  383MOL0     H51646   5.626   2.055  -0.444  1.2244  0.7537 -0.1671
  383MOL0     H51647   5.611   2.171  -0.310  0.8459  0.1319  1.6163
  383MOL0     H51648   5.846   2.129  -0.391 -1.1186  0.8709  0.3633
  383MOL0     H51649   5.822   2.093  -0.217  0.7317 -3.1674  0.6367
  383MOL0     H51650   5.878   1.882  -0.232  0.2712  1.8156  1.3865
  383MOL0     H51651   5.761   1.850  -0.361  1.8102 -2.1813 -0.3532
  383MOL0     H51652   5.904   1.917  -0.534 -1.0719  2.5110  0.3456
  383MOL0     H51653   5.967   1.787  -0.430 -5.2314 -1.4596 -1.9248
  383MOL0     H51654   6.118   2.008  -0.491 -1.0181  1.2229  0.5431
  383MOL0     H51655   6.052   2.069  -0.351  2.5810  1.0142 -0.4724
  383MOL0     H51656   6.225   1.724  -0.462  0.1063  0.8851  0.1547
  383MOL0     H51657   6.430   1.617  -0.139 -0.7558  2.1820  1.1426
  383MOL0     H51658   6.404   1.540  -0.300 -0.1866  1.0420 -2.6192
  383MOL0     H51659   6.639   1.608  -0.277  0.6276  0.1235 -1.2402
  383MOL0     H51660   6.556   1.680  -0.409  3.7564 -4.3881 -0.2209
  383MOL0     H51661   6.737   1.796  -0.240 -0.8744 -1.5580  2.3517
  383MOL0     H51662   6.599   1.813  -0.144 -0.3379 -0.7842 -0.3528
  383MOL0     H51663   6.478   1.954  -0.322 -0.4453  2.8129 -1.6975
  383MOL0     H51664   6.612   1.929  -0.438  0.8602  2.6099 -0.2705
  383MOL0     H51665   6.785   2.234  -0.161  1.3685  0.3155  1.3861
  383MOL0     H51666   7.001   2.305  -0.176  0.4585  0.5248 -2.1413
  383MOL0     H51667   7.423   2.220  -0.170 -1.7257  1.9361  1.7345
  383MOL0     H51668   7.656   2.285  -0.173  1.2871 -1.9017 -1.1290
  383MOL0     H51669   7.838   2.385  -0.200 -1.2075 -2.5005 -1.2237
  383MOL0     H51670   7.879   2.351  -0.374 -0.5559 -0.5348  0.0181
  383MOL0     H51671   8.009   2.571  -0.380 -1.9551  5.0820  2.0759
  383MOL0     H51672   7.963   2.595  -0.213  3.0084  0.3765 -0.4061
  383MOL0     H51673   8.200   2.506  -0.231  1.2883 -1.4601  0.1119
  383MOL0     H51674   8.088   2.420  -0.130 -2.7081 -0.2681 -0.5845
  383MOL0     H51675   8.177   2.348  -0.417 -3.1417 -1.1810 -1.1783
  383MOL0     H51676   8.066   2.254  -0.327  0.8689 -1.6213  0.5152
  383MOL0     H51677   8.239   2.217  -0.147  0.0033  0.7701  0.4975
  383MOL0     H51678   8.345   2.311  -0.241  0.9609 -3.2082  0.6418
  383MOL0     H51679   8.205   2.057  -0.345 -0.0844 -0.6047  1.2671
  383MOL0     H51680   8.338   2.143  -0.431  1.4231 -1.7516  0.5964
  383MOL0     H51681   8.481   2.137  -0.253 -0.0045 -0.9174  1.2535
  383MOL0     H51682   8.454   1.980  -0.319  0.7232  2.6499 -3.7085
  383MOL0     H51683   8.467   1.954  -0.096 -0.1454  0.6101 -1.1634
  383MOL0     H51684   8.359   2.080  -0.044  0.6742 -2.0556  3.7366
  383MOL0     H51685   7.559   2.603  -0.448  0.7813  0.8371  2.4017
  383MOL0     H51686   7.320   2.510  -0.462  0.6035 -0.2676 -0.4997
  383MOL0     H51687   7.074   1.986  -0.458  1.6256  1.2303 -1.2418
  383MOL0     H51688   6.827   1.930  -0.460  0.2452 -3.0404  2.7199
  383MOL0     H51689   5.385   1.832   0.240  0.6249  1.4402 -1.6100
  383MOL0     H51690   5.211   1.704   0.323 -0.7449 -4.2791  1.5269
  383MOL0     H51691   4.990   1.370   0.361 -0.1226  1.2453 -1.3110
  383MOL0     H51692   4.833   1.167   0.429 -0.4039 -0.1601  0.1882
  383MOL0     H51693   4.700   1.009   0.460 -1.0648 -1.4107  1.2503
  383MOL0     H51694   4.725   0.951   0.292  0.3575  1.0667 -0.9903
  383MOL0     H51695   4.486   0.945   0.479  0.4645 -2.2866  0.8618
  383MOL0     H51696   4.575   0.803   0.412 -0.0051 -0.5361 -1.5717
  383MOL0     H51697   4.500   0.833   0.197  3.5848  1.2963  0.3748
  383MOL0     H51698   4.429   0.998   0.239 -2.1595 -0.2065  0.7070
  383MOL0     H51699   4.258   0.892   0.364 -1.3592  0.7590 -2.2376
  383MOL0     H51700   4.276   0.789   0.222 -0.4740  0.1118  1.0469
  383MOL0     H51701   4.402   0.520   0.544 -0.1213  0.8178  1.3154
  383MOL0     H51702   4.533   1.332   0.170  0.3655  0.3768 -3.9786
  383MOL0     H51703   4.580   1.509   0.023  0.6987  0.4354  3.0096
  383MOL0     H51704   4.696   1.633   0.071  1.0305  0.5184 -0.3685
  383MOL0     H51705   4.747   1.487  -0.038 -0.1945 -3.9334  1.2041
  384MOL0     O51706   6.999   7.598   5.751  0.6194 -0.7051 -0.3692
  384MOL0     C51707   6.920   7.691   5.743 -0.5043  0.4149 -0.3299
  384MOL0     O51708   6.916   7.797   5.653  0.4561 -0.5914  0.5433
  384MOL0     C51709   6.985   7.795   5.543 -1.4958  0.4011  0.3552
  384MOL0     C51710   7.116   7.847   5.548 -0.2734  0.0508  1.1644
  384MOL0     C51711   7.209   7.829   5.447  0.2382  0.5527  0.7034
  384MOL0     C51712   7.161   7.763   5.332 -0.6864 -1.2907  0.6121
  384MOL0     O51713   7.259   7.771   5.236  0.0810  0.3225 -0.5596
  384MOL0     C51714   7.253   7.710   5.107 -0.2609 -0.8287  0.7997
  384MOL0     C51715   7.365   7.751   5.026  0.0872  0.3200  0.0505
  384MOL0     C51716   7.378   7.901   5.010  0.2292 -0.3124 -0.2587
  384MOL0     C51717   7.412   7.947   4.866 -0.5453  0.9842 -0.1575
  384MOL0     C51718   7.478   8.088   4.855  0.2483  0.8182  0.7360
  384MOL0     C51719   7.563   8.125   4.977  0.9417 -0.3982  0.2559
  384MOL0     C51720   7.680   8.032   4.993  0.3004  0.1904 -0.3215
  384MOL0     C51721   7.774   8.003   4.878 -0.0201  1.3698  0.6688
  384MOL0     N51722   7.901   7.933   4.913  0.8342  0.1019 -0.2274
  384MOL0     C51723   7.916   7.810   4.971  0.6071  0.0256  0.2590
  384MOL0     C51724   8.045   7.797   5.002 -0.0217  0.2612 -0.2654
  384MOL0     C51725   8.100   7.685   5.076 -0.1409  0.3901 -0.4419
  384MOL0     C51726   8.250   7.668   5.055 -1.1272 -0.6772  1.0268
  384MOL0     C51727   8.289   7.547   5.132 -0.8194 -0.1167  0.0706
  384MOL0     C51728   8.443   7.539   5.136 -0.4808 -0.5646 -0.4301
  384MOL0     O51729   8.513   7.547   5.003 -0.3494  0.4258  0.2965
  384MOL0     C51730   8.537   7.435   4.927  0.2116 -1.2706 -0.6775
  384MOL0     C51731   8.598   7.318   4.974  0.1283 -0.2906  0.1812
  384MOL0     C51732   8.641   7.217   4.877  1.1095  0.0052 -0.2327
  384MOL0     C51733   8.612   7.228   4.744  0.1929  0.0070 -1.0979
  384MOL0     C51734   8.648   7.126   4.646 -0.2335  0.6432  0.4459
  384MOL0     O51735   8.736   7.026   4.684 -0.0592  0.1468 -0.3139
  384MOL0     C51736   8.773   6.933   4.594 -0.1358 -0.2037 -0.3434
  384MOL0     C51737   8.778   6.951   4.454  0.3780 -0.1863 -1.0894
  384MOL0     C51738   8.832   6.843   4.375 -0.0308  0.8051  0.2008
  384MOL0     C51739   8.866   6.716   4.432 -0.2156  0.4723  0.1708
  384MOL0     O51740   8.905   6.607   4.344 -0.3282 -0.2544 -0.2223
  384MOL0     C51741   9.010   6.521   4.385  0.3805  0.1187  0.3962
  384MOL0     C51742   9.120   6.509   4.279 -0.0332  0.5686  0.0358
  384MOL0     C51743   9.194   6.646   4.286 -0.2433 -0.6005  1.1018
  384MOL0     C51744   9.314   6.636   4.189 -0.0974 -0.9163  0.1329
  384MOL0     C51745   9.404   6.761   4.183  0.1725  0.7980 -0.0610
  384MOL0     C51746   9.331   6.889   4.163 -0.5867  0.3030 -0.8964
  384MOL0     C51747   9.280   6.931   4.025  0.1456 -0.1186 -0.4402
  384MOL0     C51748   9.373   6.983   3.917 -0.2226 -0.3259  0.8817
  384MOL0    Cl51749   9.517   7.069   3.979  0.1630 -0.1618  0.0258
  384MOL0     C51750   8.862   6.696   4.574  0.9777 -0.0670 -1.0343
  384MOL0     C51751   8.816   6.808   4.652 -0.1941  0.3050 -1.3428
  384MOL0     O51752   8.575   7.125   4.546  0.7026 -0.0667 -0.4832
  384MOL0     C51753   8.538   7.337   4.698  0.3986  0.2342  1.1769
  384MOL0     C51754   8.509   7.440   4.791  0.3232  0.1104  0.1124
  384MOL0     N51755   8.105   7.915   4.964 -0.0248  0.0735 -0.2415
  384MOL0     N51756   8.025   7.989   4.904  0.5579  0.6234  0.6532
  384MOL0     C51757   7.030   7.726   5.318 -1.3427  1.0497  0.4448
  384MOL0     C51758   6.938   7.735   5.423 -0.8382 -0.1626  0.1549
  384MOL0     C51759   6.833   7.717   5.859 -0.5085  0.6359 -0.1545
  384MOL0     C51760   6.870   7.682   5.988  0.0984 -0.0652 -0.5634
  384MOL0     C51761   6.784   7.723   6.100  0.3500 -0.7213  0.3708
  384MOL0     C51762   6.660   7.773   6.090  0.5163  0.3623  0.7877
  384MOL0     O51763   6.591   7.805   6.204  0.5689  0.9275  0.5802
  384MOL0     C51764   6.471   7.881   6.203  0.4119 -0.0336  0.0398
  384MOL0     C51765   6.511   8.033   6.211  0.3795  1.0293 -0.0612
  384MOL0     C51766   6.605   8.057   6.321 -0.1094 -0.2077 -0.0043
  384MOL0     C51767   6.621   8.213   6.357 -0.1312  0.9176  0.8802
  384MOL0     C51768   6.748   8.264   6.295  0.4573  0.5921 -0.2450
  384MOL0     C51769   6.850   8.300   6.238  0.2624  0.4126 -0.7221
  384MOL0     C51770   6.620   7.788   5.957  0.4176  0.2840  1.1477
  384MOL0     C51771   6.703   7.772   5.843  0.5844  0.6879 -0.3150
  384MOL0     C51772   6.631   7.781   5.712  0.2015  0.9059 -0.1174
  384MOL0     H51773   7.151   7.889   5.641  0.6571 -0.2109  0.9493
  384MOL0     H51774   7.304   7.878   5.428 -1.2742  2.3964 -2.9953
  384MOL0     H51775   7.262   7.601   5.115  1.4550 -0.8968 -1.2532
  384MOL0     H51776   7.153   7.725   5.065 -0.8295 -2.4242  1.4860
  384MOL0     H51777   7.361   7.695   4.932  0.9934 -0.4725  0.4701
  384MOL0     H51778   7.454   7.710   5.073  0.9996  0.8118 -1.1813
  384MOL0     H51779   7.442   7.929   5.094 -1.0354  0.1724  0.5743
  384MOL0     H51780   7.283   7.949   5.031  1.6702  1.7669  1.9511
  384MOL0     H51781   7.478   7.869   4.826 -0.1583  0.7599  0.8643
  384MOL0     H51782   7.322   7.931   4.806  1.4436 -2.6616 -2.5725
  384MOL0     H51783   7.526   8.109   4.758  0.6309 -0.3060  0.6734
  384MOL0     H51784   7.393   8.157   4.854 -0.4345  0.0020 -0.8629
  384MOL0     H51785   7.600   8.226   4.958 -4.6595  1.6396 -2.0544
  384MOL0     H51786   7.493   8.136   5.060 -0.9664 -2.0033 -1.0420
  384MOL0     H51787   7.642   7.937   5.032 -0.6062  1.7929  3.1210
  384MOL0     H51788   7.734   8.083   5.074  0.9990  2.1692 -1.9416
  384MOL0     H51789   7.727   7.936   4.805  2.2670 -0.4333  0.7361
  384MOL0     H51790   7.797   8.099   4.831 -1.3858  1.0051 -0.8687
  384MOL0     H51791   7.837   7.738   4.990 -0.5938  0.8627 -1.3632
  384MOL0     H51792   8.085   7.706   5.182  0.8204 -0.7449 -0.0615
  384MOL0     H51793   8.065   7.584   5.053 -1.4444  0.3448  1.5076
  384MOL0     H51794   8.282   7.659   4.951  0.1668  0.0216  1.3441
  384MOL0     H51795   8.286   7.764   5.094 -2.6615  0.8070 -0.9630
  384MOL0     H51796   8.265   7.456   5.075 -0.3577  1.1302 -2.2279
  384MOL0     H51797   8.245   7.555   5.232 -0.3621  0.7024  0.2081
  384MOL0     H51798   8.466   7.442   5.181 -2.7554 -1.7402 -1.6296
  384MOL0     H51799   8.498   7.613   5.196  0.5431 -1.9156  0.3620
  384MOL0     H51800   8.622   7.315   5.080  2.0409 -0.8967 -0.2350
  384MOL0     H51801   8.701   7.137   4.917  0.3866  0.5559  2.0889
  384MOL0     H51802   8.751   7.042   4.402  1.3147  0.5532 -0.3165
  384MOL0     H51803   8.861   6.852   4.270  0.5943 -1.4508  0.1329
  384MOL0     H51804   9.062   6.557   4.474  0.2644 -0.0607  0.5378
  384MOL0     H51805   8.969   6.421   4.404  2.4035 -0.9074 -0.3554
  384MOL0     H51806   9.188   6.425   4.294 -0.9485 -0.5881 -1.8540
  384MOL0     H51807   9.079   6.486   4.180 -1.5575 -2.1557  1.1912
  384MOL0     H51808   9.130   6.730   4.259  3.0860  1.9063  0.3857
  384MOL0     H51809   9.231   6.669   4.386 -0.4378 -0.5183  1.1542
  384MOL0     H51810   9.274   6.612   4.090 -1.5572  0.7129  0.2669
  384MOL0     H51811   9.377   6.551   4.216 -0.4270 -0.7105  1.6318
  384MOL0     H51812   9.471   6.755   4.096 -1.1558 -0.4881 -1.0549
  384MOL0     H51813   9.450   6.757   4.282 -0.5618 -0.0362  0.2624
  384MOL0     H51814   9.243   6.888   4.228 -0.7582  0.3386 -1.1228
  384MOL0     H51815   9.396   6.964   4.207  0.5618 -0.7362 -0.7812
  384MOL0     H51816   9.207   7.013   4.031 -1.1518 -1.2675 -0.0029
  384MOL0     H51817   9.220   6.847   3.990  0.8024 -0.9595  0.4012
  384MOL0     H51818   9.412   6.913   3.842 -0.4931  2.7923 -2.4267
  384MOL0     H51819   9.316   7.047   3.849 -0.6419  0.6831  2.1396
  384MOL0     H51820   8.884   6.603   4.625  2.1616  1.0836  0.6596
  384MOL0     H51821   8.814   6.810   4.761 -1.6551 -0.7377 -1.3342
  384MOL0     H51822   8.516   7.358   4.594  2.5023 -1.5109  0.2887
  384MOL0     H51823   8.461   7.527   4.747  3.1789  1.5385 -0.3803
  384MOL0     H51824   6.979   7.702   5.225 -1.3653  0.8589  0.5060
  384MOL0     H51825   6.836   7.703   5.403 -0.8217 -0.6750  0.8579
  384MOL0     H51826   6.965   7.640   6.021  0.3778 -1.6104 -3.1340
  384MOL0     H51827   6.803   7.696   6.203 -5.2971 -0.2222  1.8249
  384MOL0     H51828   6.402   7.855   6.283 -1.0417  1.5349 -0.6281
  384MOL0     H51829   6.417   7.871   6.108  1.3274 -1.8566 -0.3384
  384MOL0     H51830   6.410   8.073   6.224 -0.2505 -0.5944  0.3620
  384MOL0     H51831   6.561   8.069   6.121  4.8015  2.9737  2.8226
  384MOL0     H51832   6.698   8.002   6.303  2.4528  2.9077  2.3031
  384MOL0     H51833   6.557   8.009   6.406 -0.2524  3.3748  2.1327
  384MOL0     H51834   6.540   8.272   6.314  1.5843  1.5312 -1.7687
  384MOL0     H51835   6.638   8.221   6.465  2.5166  1.3352  0.5099
  384MOL0     H51836   6.940   8.332   6.190  0.6251 -0.4397 -0.6430
  384MOL0     H51837   6.525   7.829   5.923  1.3857  0.6610 -1.2847
  384MOL0     H51838   6.622   7.885   5.680 -2.2288  1.0363  0.7803
  384MOL0     H51839   6.681   7.717   5.638  1.8079  2.3027 -0.3040
  384MOL0     H51840   6.531   7.743   5.730  2.2735 -5.4428  0.3694
  385MOL0     O51841   9.121   1.406   0.079  0.3754 -0.3755  0.6935
  385MOL0     C51842   9.174   1.417  -0.034 -0.4995 -0.4560 -0.2558
  385MOL0     O51843   9.126   1.371  -0.153  0.1320 -0.0832  0.0005
  385MOL0     C51844   9.012   1.303  -0.169  0.3732 -0.8779  0.8514
  385MOL0     C51845   9.013   1.170  -0.153 -0.0797 -0.5090  0.1315
  385MOL0     C51846   8.902   1.096  -0.202 -0.5218 -0.3692  0.0286
  385MOL0     C51847   8.800   1.169  -0.262 -0.6728 -0.1596 -0.0559
  385MOL0     O51848   8.687   1.108  -0.300  0.5820  0.6522 -0.2672
  385MOL0     C51849   8.706   0.973  -0.360 -0.0240  0.4461 -0.0447
  385MOL0     C51850   8.588   0.964  -0.465 -0.9110  0.6661  0.1180
  385MOL0     C51851   8.591   1.073  -0.576  0.5221 -0.0974 -0.6009
  385MOL0     C51852   8.709   1.058  -0.675 -0.1188  0.0188 -0.6055
  385MOL0     C51853   8.700   1.155  -0.788 -0.3031  0.4720  0.4268
  385MOL0     C51854   8.827   1.159  -0.884  1.1419  0.6145 -0.6086
  385MOL0     C51855   8.853   1.031  -0.964 -0.5782  0.2771  0.5183
  385MOL0     C51856   8.940   0.925  -0.899  0.9549 -0.3209  0.0096
  385MOL0     N51857   9.070   0.987  -0.840  0.7024  0.2809  0.0669
  385MOL0     C51858   9.095   1.000  -0.700  0.3904  0.1566  0.6785
  385MOL0     C51859   9.202   1.080  -0.694  0.1023 -0.7290 -0.5964
  385MOL0     C51860   9.268   1.123  -0.562  0.5211 -0.4425  0.1197
  385MOL0     C51861   9.192   1.235  -0.491 -0.1768  0.2416  0.1264
  385MOL0     C51862   9.207   1.379  -0.545  0.4690  0.5679  0.6684
  385MOL0     C51863   9.343   1.445  -0.590 -0.0869 -1.4443 -0.2755
  385MOL0     O51864   9.452   1.400  -0.505  0.5664  0.2259 -0.0764
  385MOL0     C51865   9.568   1.473  -0.505  0.2808  0.9622  0.6409
  385MOL0     C51866   9.656   1.455  -0.398  1.2479 -0.5547  0.3223
  385MOL0     C51867   9.765   1.540  -0.375  0.1403  0.1032  0.9930
  385MOL0     C51868   9.803   1.637  -0.470  0.0620  0.3869  0.4221
  385MOL0     C51869   9.908   1.724  -0.452 -0.3968 -0.6967  0.2172
  385MOL0     O51870   9.957   1.738  -0.319  0.3693  0.6760  0.8208
  385MOL0     C51871  10.074   1.793  -0.289 -0.7979 -0.8694  0.0623
  385MOL0     C51872  10.197   1.750  -0.330  0.2227 -0.1432  0.1397
  385MOL0     C51873  10.312   1.823  -0.297 -0.1350  0.3190  0.1304
  385MOL0     C51874  10.306   1.942  -0.228  0.0686 -0.1277 -0.4904
  385MOL0     O51875  10.428   1.998  -0.213 -0.2032  0.0342  0.2639
  385MOL0     C51876  10.454   2.141  -0.231 -0.2761  0.1703 -0.0327
  385MOL0     C51877  10.380   2.233  -0.137  0.1028 -0.6359  1.3124
  385MOL0     C51878  10.377   2.183   0.004  0.1884 -0.2655 -0.7316
  385MOL0     C51879  10.287   2.260   0.093  0.4982 -0.7017  0.2139
  385MOL0     C51880  10.314   2.228   0.247  0.1101  0.0157  0.6576
  385MOL0     C51881  10.269   2.083   0.263 -0.4439 -0.0516 -0.0614
  385MOL0     C51882  10.239   2.037   0.408  0.2271 -0.2366 -0.2090
  385MOL0     C51883  10.358   2.053   0.505  0.6237 -0.1161  0.5038
  385MOL0    Cl51884  10.326   1.967   0.649  0.2154 -0.7040  0.3981
  385MOL0     C51885  10.179   1.990  -0.191  0.6500  0.2253  0.3962
  385MOL0     C51886  10.067   1.912  -0.225 -0.0476 -0.3279 -0.2446
  385MOL0     O51887   9.969   1.765  -0.547 -0.2491 -0.1883  0.1109
  385MOL0     C51888   9.725   1.642  -0.590 -1.2378  0.6865  0.8459
  385MOL0     C51889   9.607   1.566  -0.609  0.5738  0.7291 -0.1307
  385MOL0     N51890   9.237   1.118  -0.821 -0.1079 -0.3327  0.2374
  385MOL0     N51891   9.154   1.068  -0.909 -0.1309  0.3028 -0.0489
  385MOL0     C51892   8.795   1.314  -0.264 -0.2251 -0.1928 -0.3690
  385MOL0     C51893   8.902   1.377  -0.209 -0.5571  0.0164  0.3848
  385MOL0     C51894   9.289   1.525  -0.039 -0.2372  0.2964  0.8767
  385MOL0     C51895   9.316   1.586  -0.164  0.5309 -0.3137  0.6126
  385MOL0     C51896   9.431   1.667  -0.191  0.1596 -0.9409  1.0934
  385MOL0     C51897   9.517   1.690  -0.090 -0.9162  0.3920 -0.3872
  385MOL0     O51898   9.626   1.777  -0.124  0.0668  0.3181 -0.8941
  385MOL0     C51899   9.692   1.836  -0.004  0.7129  0.5032  0.2444
  385MOL0     C51900   9.819   1.763   0.047  0.5789  0.0247 -0.7826
  385MOL0     C51901   9.931   1.848   0.121  0.4319 -0.4039 -0.5707
  385MOL0     C51902  10.028   1.762   0.193 -0.0710  0.6276  0.4740
  385MOL0     C51903  10.127   1.691   0.103 -0.4618 -0.6780  0.7002
  385MOL0     C51904  10.197   1.643   0.013 -0.7845  0.4658  0.1602
  385MOL0     C51905   9.493   1.629   0.037 -0.6786  0.0014 -0.6386
  385MOL0     C51906   9.381   1.542   0.068 -0.4662  0.1380  1.1023
  385MOL0     C51907   9.378   1.475   0.196  0.3318  0.7528 -0.3026
  385MOL0     H51908   9.106   1.132  -0.111  1.1128  2.6104  0.5650
  385MOL0     H51909   8.903   0.988  -0.198 -0.4265 -0.4153 -0.9721
  385MOL0     H51910   8.803   0.964  -0.410  1.0069  2.3275  1.4673
  385MOL0     H51911   8.694   0.897  -0.283 -0.6132  3.1837  2.7953
  385MOL0     H51912   8.490   0.972  -0.418 -1.4706 -0.0281 -0.8946
  385MOL0     H51913   8.596   0.862  -0.505  1.7082  0.3525  1.2267
  385MOL0     H51914   8.594   1.172  -0.531  0.0289 -0.5074  0.3733
  385MOL0     H51915   8.490   1.087  -0.616  0.4335  2.0315  0.2308
  385MOL0     H51916   8.804   1.066  -0.622  0.0283  0.1381 -0.8843
  385MOL0     H51917   8.699   0.953  -0.705 -0.3681  0.1740 -1.0849
  385MOL0     H51918   8.612   1.123  -0.844  0.2295  0.7539 -0.5947
  385MOL0     H51919   8.658   1.252  -0.758  1.1027  1.1648  0.2817
  385MOL0     H51920   8.821   1.244  -0.952 -0.2017 -0.9440 -2.5655
  385MOL0     H51921   8.907   1.180  -0.813 -0.2143  2.4155  0.4690
  385MOL0     H51922   8.895   1.048  -1.063 -2.0007 -0.9803 -0.3425
  385MOL0     H51923   8.755   0.992  -0.994  1.1087 -2.9794 -1.3501
  385MOL0     H51924   8.892   0.870  -0.817 -0.2486  0.7150  0.0296
  385MOL0     H51925   8.957   0.853  -0.981 -0.2541  0.0000 -0.5557
  385MOL0     H51926   9.040   0.952  -0.620  0.9543 -0.9033  0.4538
  385MOL0     H51927   9.262   1.033  -0.500 -0.8238 -0.2118  0.3423
  385MOL0     H51928   9.374   1.149  -0.572  0.6329 -0.4304  1.2373
  385MOL0     H51929   9.088   1.202  -0.483 -0.4071  0.2560 -2.0841
  385MOL0     H51930   9.217   1.230  -0.385 -4.6483 -2.3205  1.2931
  385MOL0     H51931   9.169   1.435  -0.459 -1.8121 -0.9519  0.7282
  385MOL0     H51932   9.140   1.392  -0.630  2.3880 -0.2183 -1.0446
  385MOL0     H51933   9.333   1.554  -0.579 -0.3195 -1.3076 -1.6408
  385MOL0     H51934   9.360   1.437  -0.698 -5.1958  0.3443 -1.4662
  385MOL0     H51935   9.631   1.384  -0.320 -0.2621 -3.2130 -2.3649
  385MOL0     H51936   9.817   1.552  -0.281  0.3661 -0.3294  0.9240
  385MOL0     H51937  10.207   1.661  -0.392  1.2023  0.2558 -0.2888
  385MOL0     H51938  10.409   1.789  -0.332  0.5164  1.4810  0.7661
  385MOL0     H51939  10.557   2.158  -0.199  0.5410  1.5214 -2.9483
  385MOL0     H51940  10.448   2.171  -0.337 -1.1913  1.6177  0.3966
  385MOL0     H51941  10.430   2.330  -0.135  0.3997 -0.7887  3.4092
  385MOL0     H51942  10.276   2.253  -0.166  0.3920 -0.9487 -0.0285
  385MOL0     H51943  10.331   2.084   0.004  1.7687 -1.0346 -1.9129
  385MOL0     H51944  10.472   2.188   0.058 -1.2480  2.0807  1.8950
  385MOL0     H51945  10.180   2.257   0.072  0.5897  0.4335 -0.5222
  385MOL0     H51946  10.299   2.368   0.083 -0.2849 -0.4793  1.4109
  385MOL0     H51947  10.247   2.296   0.300  0.2423  1.3253 -0.7893
  385MOL0     H51948  10.412   2.267   0.278 -1.2681  2.4258  2.3002
  385MOL0     H51949  10.177   2.070   0.205  0.8455 -2.6588 -1.7371
  385MOL0     H51950  10.347   2.017   0.226 -1.0044 -2.9732  3.3674
  385MOL0     H51951  10.215   1.930   0.399  2.4228 -0.6865 -1.8997
  385MOL0     H51952  10.155   2.097   0.442  0.8256 -0.2435  1.3381
  385MOL0     H51953  10.455   2.017   0.469  1.2672  1.2942  0.7686
  385MOL0     H51954  10.371   2.157   0.535  1.0061 -0.2278  0.7258
  385MOL0     H51955  10.167   2.078  -0.128 -0.0095  0.7577 -0.4453
  385MOL0     H51956   9.973   1.940  -0.178 -0.0997 -0.2083 -0.4201
  385MOL0     H51957   9.757   1.698  -0.677  3.0256 -0.4943  1.4192
  385MOL0     H51958   9.564   1.581  -0.708  1.9486  4.6957 -0.3165
  385MOL0     H51959   8.713   1.381  -0.288  0.7423  1.9900  1.9744
  385MOL0     H51960   8.910   1.485  -0.203  2.3518 -0.0678 -0.1651
  385MOL0     H51961   9.251   1.571  -0.249 -0.0514  0.0707  0.9856
  385MOL0     H51962   9.452   1.698  -0.293 -3.0911 -1.3283  0.2003
  385MOL0     H51963   9.619   1.858   0.075  0.2967 -0.4215  0.1328
  385MOL0     H51964   9.725   1.929  -0.050 -0.7436 -0.4399 -3.0046
  385MOL0     H51965   9.862   1.705  -0.036  2.6065  0.0149  0.1918
  385MOL0     H51966   9.773   1.684   0.107 -2.0253  1.2341 -1.0560
  385MOL0     H51967   9.880   1.919   0.187 -0.5825 -1.1355 -0.5490
  385MOL0     H51968   9.986   1.917   0.056  0.7555  1.9692  1.9909
  385MOL0     H51969  10.081   1.837   0.252  0.5384 -1.1980  2.3636
  385MOL0     H51970   9.975   1.704   0.269  0.5816 -0.0163  0.4526
  385MOL0     H51971  10.271   1.613  -0.058 -0.9344  0.0710  0.1629
  385MOL0     H51972   9.568   1.641   0.114  0.3896  1.8098 -1.8784
  385MOL0     H51973   9.331   1.522   0.283 -0.6265 -0.3553 -0.1916
  385MOL0     H51974   9.328   1.378   0.184  4.1729 -1.4213 -0.5439
  385MOL0     H51975   9.477   1.452   0.236  0.4363  1.6964 -0.0097
  386MOL0     O51976   1.705   8.204   5.951  0.1848 -0.6907 -0.5441
  386MOL0     C51977   1.749   8.307   5.903 -0.2752 -0.0507  0.7169
  386MOL0     O51978   1.829   8.321   5.797  0.4629 -0.0053  0.6279
  386MOL0     C51979   1.883   8.212   5.733 -0.3011 -0.6665  0.0743
  386MOL0     C51980   2.014   8.177   5.752  0.1346  0.6523 -0.0972
  386MOL0     C51981   2.069   8.065   5.690 -0.0326  0.1208  0.0309
  386MOL0     C51982   1.979   7.974   5.620 -0.0113 -1.0765  1.5762
  386MOL0     O51983   2.011   7.854   5.559  0.1446 -0.5181  0.0635
  386MOL0     C51984   2.129   7.782   5.603  0.4103 -0.5234 -1.3453
  386MOL0     C51985   2.256   7.809   5.530 -0.1435  0.3638  0.4707
  386MOL0     C51986   2.378   7.769   5.616 -0.7010 -0.7900 -0.2968
  386MOL0     C51987   2.472   7.676   5.530  0.1023  0.3040 -0.2236
  386MOL0     C51988   2.615   7.656   5.594 -0.1552 -0.1681  0.1215
  386MOL0     C51989   2.628   7.577   5.717 -0.5254  0.2250  0.6556
  386MOL0     C51990   2.772   7.580   5.786  0.3890 -0.3402 -0.3079
  386MOL0     C51991   2.785   7.477   5.899  0.1903  0.4611 -0.1783
  386MOL0     N51992   2.777   7.538   6.032  0.7206  0.0727 -0.7015
  386MOL0     C51993   2.698   7.495   6.134  0.1543  0.4575 -0.0610
  386MOL0     C51994   2.720   7.592   6.232  1.1463 -0.6639 -0.2353
  386MOL0     C51995   2.643   7.579   6.372 -0.4006 -0.0273 -0.1420
  386MOL0     C51996   2.614   7.719   6.424 -0.4046  0.2606 -0.1548
  386MOL0     C51997   2.575   7.711   6.577 -0.5756 -0.8199 -0.5515
  386MOL0     C51998   2.544   7.851   6.631 -0.4720 -1.4082  0.1788
  386MOL0     O51999   2.443   7.913   6.548  0.1414 -0.0436  0.2042
  386MOL0     C52000   2.326   7.897   6.614 -0.3531 -1.3023  1.3107
  386MOL0     C52001   2.299   7.979   6.729  0.2339  0.5291 -0.3136
  386MOL0     C52002   2.170   7.973   6.792  0.0235 -0.6499 -0.5325
  386MOL0     C52003   2.071   7.905   6.738  0.4881  0.0390 -0.6976
  386MOL0     C52004   1.930   7.909   6.799  0.2202 -0.2692 -0.1968
  386MOL0     O52005   1.842   7.864   6.702 -0.3901  0.0747 -0.4001
  386MOL0     C52006   1.711   7.862   6.732 -0.2685  1.2658 -0.3641
  386MOL0     C52007   1.625   7.842   6.622 -1.0614 -0.7932 -0.0150
  386MOL0     C52008   1.485   7.829   6.635 -0.0181  0.0263 -0.1134
  386MOL0     C52009   1.424   7.831   6.766 -1.2021 -0.1022  0.6755
  386MOL0     O52010   1.293   7.830   6.774  1.1129 -0.3930  0.0753
  386MOL0     C52011   1.253   7.953   6.720  0.0919 -0.0638 -0.5462
  386MOL0     C52012   1.112   7.995   6.767  0.0110 -0.7798  0.5476
  386MOL0     C52013   1.081   8.140   6.736  0.9308  0.8086  0.5192
  386MOL0     C52014   0.931   8.173   6.742  0.6429  0.5642 -0.0910
  386MOL0     C52015   0.866   8.157   6.886 -0.5710 -0.1600 -0.5202
  386MOL0     C52016   0.908   8.267   6.987 -0.4763  0.0584  1.0033
  386MOL0     C52017   0.849   8.406   6.954 -0.7365 -0.0885  0.1369
  386MOL0     C52018   0.958   8.488   6.875  0.3222  0.1419  0.1048
  386MOL0    Cl52019   0.941   8.664   6.896 -0.3185  0.3629  0.3522
  386MOL0     C52020   1.504   7.833   6.879 -0.3429  0.1630 -0.3480
  386MOL0     C52021   1.645   7.850   6.860 -0.6128 -0.0455  0.7562
  386MOL0     O52022   1.909   7.958   6.912  0.6354 -0.0949  0.3074
  386MOL0     C52023   2.099   7.821   6.628  0.1683  1.4067  0.6868
  386MOL0     C52024   2.225   7.812   6.561 -0.4045 -0.8824  0.3784
  386MOL0     N52025   2.803   7.687   6.191  0.0959  0.5611 -0.3184
  386MOL0     N52026   2.845   7.655   6.073  0.0419 -0.1078  0.5191
  386MOL0     C52027   1.849   8.022   5.587  0.3577 -0.4343 -0.5333
  386MOL0     C52028   1.803   8.130   5.655 -0.3841  0.2098  0.2614
  386MOL0     C52029   1.708   8.427   5.976 -0.1927  0.8059  0.5070
  386MOL0     C52030   1.805   8.496   6.045  0.6266 -0.4953 -0.6316
  386MOL0     C52031   1.772   8.619   6.111  0.1606 -0.5966  0.2212
  386MOL0     C52032   1.647   8.674   6.108  0.0382 -0.0441 -0.5375
  386MOL0     O52033   1.635   8.794   6.164 -0.3326  0.5954  0.3044
  386MOL0     C52034   1.503   8.829   6.211 -0.4744 -0.7427 -0.0356
  386MOL0     C52035   1.524   8.953   6.291  0.7703  1.0875 -0.6303
  386MOL0     C52036   1.614   9.051   6.237 -0.4025 -0.0441  0.2399
  386MOL0     C52037   1.547   9.114   6.117 -0.0351 -0.3078 -0.9538
  386MOL0     C52038   1.626   9.225   6.073 -0.1247 -0.3334 -0.2743
  386MOL0     C52039   1.688   9.319   6.032 -0.5095  0.0893 -0.5269
  386MOL0     C52040   1.550   8.597   6.040 -0.2693  0.1364 -0.4565
  386MOL0     C52041   1.578   8.477   5.977  0.2636  0.7515  0.5110
  386MOL0     C52042   1.472   8.406   5.899 -0.9498  0.6057 -0.0844
  386MOL0     H52043   2.079   8.248   5.803  1.0888  0.1130 -0.5174
  386MOL0     H52044   2.176   8.053   5.702  0.3777  2.2175 -0.9808
  386MOL0     H52045   2.143   7.795   5.710  1.4090 -4.5522 -0.8182
  386MOL0     H52046   2.105   7.677   5.582 -0.5179 -0.1789 -2.0751
  386MOL0     H52047   2.256   7.918   5.521 -0.2473  0.3451  0.2240
  386MOL0     H52048   2.273   7.749   5.440  0.5495  2.2614 -0.7193
  386MOL0     H52049   2.349   7.719   5.709 -1.3804 -0.6526 -0.4254
  386MOL0     H52050   2.435   7.856   5.648  0.4502 -0.3814 -3.1714
  386MOL0     H52051   2.429   7.579   5.502  0.0749  0.2063  0.1469
  386MOL0     H52052   2.500   7.728   5.438  0.8445 -0.1738 -0.2770
  386MOL0     H52053   2.676   7.604   5.520 -1.7078  0.2685 -1.5307
  386MOL0     H52054   2.667   7.751   5.611  0.9500 -0.7516  0.0703
  386MOL0     H52055   2.559   7.616   5.792  2.4033  1.0618  3.1439
  386MOL0     H52056   2.596   7.477   5.687 -0.8649  0.1290  1.3302
  386MOL0     H52057   2.799   7.682   5.815  0.9101 -0.3084 -0.8760
  386MOL0     H52058   2.847   7.547   5.714 -0.1798  0.7460 -1.4417
  386MOL0     H52059   2.701   7.409   5.884 -0.7349  1.5511 -0.1021
  386MOL0     H52060   2.876   7.415   5.895 -0.6397 -0.7551 -1.0232
  386MOL0     H52061   2.623   7.417   6.135  0.7423 -0.1785 -1.5931
  386MOL0     H52062   2.548   7.527   6.354 -0.9585  1.2073 -0.9548
  386MOL0     H52063   2.701   7.524   6.446 -3.4375 -0.0878  2.4228
  386MOL0     H52064   2.705   7.778   6.410 -1.1586  1.3737 -0.5853
  386MOL0     H52065   2.529   7.762   6.369  1.0689  0.9326 -2.0133
  386MOL0     H52066   2.662   7.670   6.630  1.2549  0.3177 -2.5109
  386MOL0     H52067   2.483   7.656   6.595 -0.7910 -0.1125  0.6306
  386MOL0     H52068   2.626   7.923   6.634 -0.9767 -0.8305  2.2820
  386MOL0     H52069   2.512   7.840   6.735 -0.2547 -0.5246  0.3434
  386MOL0     H52070   2.375   8.040   6.776 -0.8347  1.0549  0.7807
  386MOL0     H52071   2.149   8.028   6.883 -4.5952 -1.5335 -0.8611
  386MOL0     H52072   1.667   7.858   6.523  0.4002 -1.7232  0.4335
  386MOL0     H52073   1.433   7.810   6.541  1.2752 -1.6326 -0.5492
  386MOL0     H52074   1.317   8.038   6.746  1.2591  0.0216 -3.3258
  386MOL0     H52075   1.253   7.946   6.611 -4.9257  3.1918 -1.0624
  386MOL0     H52076   1.030   7.931   6.732 -0.7180  1.0237 -1.2863
  386MOL0     H52077   1.112   7.988   6.876 -0.2728 -2.5822  0.4644
  386MOL0     H52078   1.143   8.204   6.799  2.1224  0.0063  0.1831
  386MOL0     H52079   1.095   8.157   6.629  0.8002 -0.6214  0.2518
  386MOL0     H52080   0.873   8.106   6.678 -1.7721 -0.2247  2.7377
  386MOL0     H52081   0.912   8.275   6.708 -2.4802  0.2301  0.4011
  386MOL0     H52082   0.896   8.057   6.919  1.8401  1.3765  2.4470
  386MOL0     H52083   0.758   8.156   6.870 -0.4225 -1.2686 -1.6305
  386MOL0     H52084   0.870   8.235   7.085 -2.4844  1.8464  0.8878
  386MOL0     H52085   1.017   8.269   6.998 -0.6269  0.1056  2.8206
  386MOL0     H52086   0.841   8.453   7.052  1.9000 -2.8644  1.8461
  386MOL0     H52087   0.751   8.390   6.909  0.2193 -2.9728 -1.1612
  386MOL0     H52088   1.059   8.464   6.907 -0.5792 -1.5182  1.9845
  386MOL0     H52089   0.958   8.458   6.770  1.1051 -5.9048  1.4612
  386MOL0     H52090   1.470   7.824   6.982  0.9664  0.4934  0.1400
  386MOL0     H52091   1.705   7.838   6.949  1.3617 -2.2191 -0.7496
  386MOL0     H52092   2.013   7.768   6.588 -0.2766  3.7454 -1.7119
  386MOL0     H52093   2.237   7.744   6.477 -4.4983 -2.9720  1.2391
  386MOL0     H52094   1.786   7.965   5.520 -1.4083 -0.5854  1.1713
  386MOL0     H52095   1.698   8.158   5.651 -0.8051 -1.4224 -1.4677
  386MOL0     H52096   1.905   8.453   6.040 -0.3650 -2.9391 -0.7154
  386MOL0     H52097   1.851   8.665   6.168  0.1514 -0.9051  0.4837
  386MOL0     H52098   1.455   8.751   6.272 -0.4720 -0.4543  0.3380
  386MOL0     H52099   1.438   8.863   6.131  1.8038  4.8970  0.0686
  386MOL0     H52100   1.552   8.912   6.389 -4.2674 -3.3370 -0.6169
  386MOL0     H52101   1.427   8.999   6.311  1.2612  1.4510  1.0833
  386MOL0     H52102   1.715   9.019   6.208  2.1178  4.0072  3.3928
  386MOL0     H52103   1.638   9.138   6.299  2.0690 -0.9244  0.6464
  386MOL0     H52104   1.540   9.054   6.026 -1.1775  2.7006 -3.0019
  386MOL0     H52105   1.449   9.141   6.158  0.7661 -3.0229  3.3942
  386MOL0     H52106   1.753   9.393   5.989  0.3314 -0.2627  0.1180
  386MOL0     H52107   1.453   8.640   6.017 -1.7075 -1.6539  1.7413
  386MOL0     H52108   1.445   8.304   5.931  0.6018 -0.9655 -3.3228
  386MOL0     H52109   1.388   8.476   5.897 -1.7560 -0.2298  1.8382
  386MOL0     H52110   1.514   8.403   5.798 -2.2089  2.3212 -0.6975
  387MOL0     O52111  11.391   2.759  11.151  0.3834  0.0768  0.2152
  387MOL0     C52112  11.355   2.642  11.153 -0.1122 -0.5569 -0.5299
  387MOL0     O52113  11.424   2.543  11.224 -1.1941 -0.0940 -0.4662
  387MOL0     C52114  11.539   2.588  11.287  1.0495  0.0569  0.2476
  387MOL0     C52115  11.658   2.623  11.218 -0.6454 -0.7547  0.5926
  387MOL0     C52116  11.776   2.661  11.284  0.0731  0.0348 -0.1032
  387MOL0     C52117  11.768   2.681  11.426 -0.2347 -0.1821  0.2761
  387MOL0     O52118  11.875   2.700  11.514 -0.4138 -0.6184  0.4351
  387MOL0     C52119  11.995   2.762  11.456  0.6257 -0.0839  0.7788
  387MOL0     C52120  12.099   2.799  11.565  0.1851 -0.3550 -0.0565
  387MOL0     C52121  12.031   2.875  11.683  0.8400 -0.4236 -1.0187
  387MOL0     C52122  12.139   2.930  11.788 -0.5482  0.2918 -0.7007
  387MOL0     C52123  12.068   2.999  11.905 -0.2208 -0.3929 -0.2512
  387MOL0     C52124  12.151   3.017  12.036  0.2634  0.6517 -0.0849
  387MOL0     C52125  12.138   3.153  12.101  0.4483 -0.6411  0.5278
  387MOL0     C52126  12.017   3.186  12.196  0.4792 -0.6073  0.3891
  387MOL0     N52127  11.891   3.189  12.114  0.3683 -0.7897  0.6267
  387MOL0     C52128  11.840   3.304  12.051  0.7281  0.3283 -0.3173
  387MOL0     C52129  11.735   3.263  11.978 -0.0557  0.5854  0.1197
  387MOL0     C52130  11.636   3.350  11.922 -0.1170  0.4272 -0.4803
  387MOL0     C52131  11.594   3.444  12.035  0.0058  0.7570 -0.7989
  387MOL0     C52132  11.487   3.541  11.980  1.0797 -0.3996 -1.1552
  387MOL0     C52133  11.357   3.467  11.932 -0.1134 -0.1595  0.3963
  387MOL0     O52134  11.315   3.341  12.005 -0.5410 -0.4885  0.2239
  387MOL0     C52135  11.192   3.306  12.032 -0.0062 -0.6347  0.0754
  387MOL0     C52136  11.151   3.176  12.020  0.2807 -0.3895  0.4984
  387MOL0     C52137  11.026   3.134  12.052  0.6012  0.1854 -0.5976
  387MOL0     C52138  10.931   3.226  12.094  0.6027  0.2304  0.8804
  387MOL0     C52139  10.790   3.195  12.134 -0.8715  0.1672 -0.4914
  387MOL0     O52140  10.689   3.290  12.159 -0.7077 -0.2302 -0.0471
  387MOL0     C52141  10.561   3.239  12.164  0.2368  0.2542 -0.0045
  387MOL0     C52142  10.523   3.143  12.257 -0.4956 -0.1608 -0.5864
  387MOL0     C52143  10.392   3.086  12.248 -1.0844  0.2889  0.3591
  387MOL0     C52144  10.303   3.121  12.154  0.6600  0.9889  0.2939
  387MOL0     O52145  10.190   3.043  12.155 -0.1917 -0.5711  0.2545
  387MOL0     C52146  10.064   3.110  12.136  0.8524  0.3843  0.4869
  387MOL0     C52147   9.952   3.037  12.196  0.5402 -0.2784 -0.2861
  387MOL0     C52148   9.820   3.122  12.189  0.9537 -0.2843 -0.2339
  387MOL0     C52149   9.812   3.242  12.296  0.3333 -0.6777  0.5025
  387MOL0     C52150   9.694   3.329  12.272  0.2357 -1.1163 -0.1909
  387MOL0     C52151   9.662   3.426  12.387 -0.5004 -0.6399 -0.1315
  387MOL0     C52152   9.556   3.528  12.354  0.6330 -0.4330  0.4578
  387MOL0     C52153   9.521   3.599  12.483  0.5237 -1.0217  0.5511
  387MOL0    Cl52154   9.437   3.489  12.583  0.1403  0.0667  0.0688
  387MOL0     C52155  10.341   3.216  12.062  0.3836  0.3942  0.7542
  387MOL0     C52156  10.474   3.269  12.064 -0.3792 -0.8681  0.1906
  387MOL0     O52157  10.773   3.073  12.135  0.2304 -0.0346 -0.3297
  387MOL0     C52158  10.969   3.360  12.110  0.2036 -0.3400  0.6077
  387MOL0     C52159  11.104   3.403  12.078  0.6167  0.7242 -0.4615
  387MOL0     N52160  11.712   3.134  12.020 -0.5204 -0.0266  0.1938
  387MOL0     N52161  11.801   3.085  12.103 -0.1253 -0.4500  0.4014
  387MOL0     C52162  11.647   2.664  11.486  0.2488  0.5931 -0.6916
  387MOL0     C52163  11.536   2.604  11.423 -0.6440 -0.2008 -0.1030
  387MOL0     C52164  11.231   2.600  11.093 -0.4370  0.4855  0.4916
  387MOL0     C52165  11.177   2.481  11.133 -0.4840  0.0840  0.9734
  387MOL0     C52166  11.055   2.435  11.088 -0.2702 -0.4018  0.0239
  387MOL0     C52167  10.983   2.518  10.999  0.8000  0.9913 -0.1726
  387MOL0     O52168  10.866   2.459  10.964  0.1058 -0.1057 -0.1522
  387MOL0     C52169  10.747   2.549  10.959 -0.4369 -0.9710 -0.1099
  387MOL0     C52170  10.726   2.614  11.098 -0.0791  0.1573 -0.0771
  387MOL0     C52171  10.714   2.520  11.217 -0.0377  0.7628  0.1086
  387MOL0     C52172  10.711   2.560  11.352 -0.4812 -0.2129 -0.2776
  387MOL0     C52173  10.596   2.642  11.377  0.1557 -0.2821 -0.9158
  387MOL0     C52174  10.504   2.719  11.383 -0.2121 -0.9492 -0.0934
  387MOL0     C52175  11.047   2.629  10.942  1.2823 -0.5547  0.0731
  387MOL0     C52176  11.173   2.675  10.984 -0.4462  0.0613  0.3813
  387MOL0     C52177  11.246   2.776  10.908  0.5445  0.1635  0.0504
  387MOL0     H52178  11.655   2.636  11.111 -0.2372  2.6398  0.8869
  387MOL0     H52179  11.862   2.689  11.224 -1.2414 -1.2020 -2.7135
  387MOL0     H52180  12.029   2.683  11.389 -0.4954 -0.4373  0.6020
  387MOL0     H52181  11.972   2.851  11.396  2.9806 -2.4977 -4.3708
  387MOL0     H52182  12.175   2.864  11.519  3.4645 -4.1713 -0.5377
  387MOL0     H52183  12.147   2.705  11.589 -3.6924 -3.3978 -2.8472
  387MOL0     H52184  11.975   2.801  11.741 -1.2783  1.8254  0.0113
  387MOL0     H52185  11.965   2.954  11.645 -4.1571 -2.2685  2.7250
  387MOL0     H52186  12.202   2.850  11.829  1.7521  1.7876 -1.1400
  387MOL0     H52187  12.215   2.990  11.737  1.4749 -2.7662 -1.5435
  387MOL0     H52188  12.033   3.098  11.874 -1.2535 -1.1401 -1.5370
  387MOL0     H52189  11.987   2.937  11.943  0.5541  0.0460  2.3344
  387MOL0     H52190  12.145   2.932  12.105  0.2953  2.5612  2.3909
  387MOL0     H52191  12.257   3.008  12.009  0.3676 -0.1322  0.5289
  387MOL0     H52192  12.138   3.230  12.024  1.0576 -1.8567 -0.7349
  387MOL0     H52193  12.218   3.170  12.173  0.6905 -1.6736  0.5241
  387MOL0     H52194  12.005   3.108  12.271 -0.3734 -1.2774 -0.4180
  387MOL0     H52195  12.032   3.284  12.242 -1.5140 -2.0570  4.5985
  387MOL0     H52196  11.878   3.405  12.068  5.3411 -1.5343  2.1163
  387MOL0     H52197  11.686   3.405  11.842  0.9762  1.7312  1.0361
  387MOL0     H52198  11.554   3.295  11.876  1.1416 -2.2875  0.2940
  387MOL0     H52199  11.566   3.401  12.131 -1.4950  2.5854 -0.3723
  387MOL0     H52200  11.674   3.512  12.065  1.4455 -1.5987  1.1518
  387MOL0     H52201  11.528   3.612  11.908 -0.4091  2.8419  0.9708
  387MOL0     H52202  11.452   3.613  12.055  0.8060  1.7646 -3.2437
  387MOL0     H52203  11.370   3.451  11.824 -3.0097  0.2546 -0.1061
  387MOL0     H52204  11.270   3.534  11.934  1.1601  1.5738 -0.0566
  387MOL0     H52205  11.216   3.103  11.972 -0.1343 -1.3000  1.2702
  387MOL0     H52206  11.006   3.029  12.034  0.1516 -0.1829  1.6924
  387MOL0     H52207  10.598   3.116  12.331 -0.4667  0.2399 -0.4684
  387MOL0     H52208  10.389   3.004  12.319  0.8100 -0.9512 -0.9178
  387MOL0     H52209  10.066   3.207  12.187 -0.5662 -0.6088  2.5646
  387MOL0     H52210  10.054   3.137  12.030  0.8367  0.2450  0.4524
  387MOL0     H52211   9.937   2.943  12.142  1.0443 -0.9556  0.7080
  387MOL0     H52212   9.974   3.005  12.298  0.6237 -1.2963 -0.6138
  387MOL0     H52213   9.807   3.175  12.094 -0.1539 -1.6148 -0.8583
  387MOL0     H52214   9.733   3.058  12.200 -1.7542  3.1810  0.2607
  387MOL0     H52215   9.894   3.314  12.286 -0.4231  0.4940  2.2882
  387MOL0     H52216   9.829   3.199  12.395  4.4256 -0.4203  0.0943
  387MOL0     H52217   9.607   3.268  12.242 -0.8861  0.5519 -0.4432
  387MOL0     H52218   9.707   3.392  12.184 -1.3599  0.9549  0.9587
  387MOL0     H52219   9.651   3.372  12.481  2.4147  0.9276  1.2611
  387MOL0     H52220   9.761   3.469  12.405  0.0732 -0.7686 -2.5988
  387MOL0     H52221   9.472   3.489  12.296  1.1452  0.4844 -0.9716
  387MOL0     H52222   9.607   3.600  12.288  1.5648 -1.1655  0.3556
  387MOL0     H52223   9.614   3.637  12.528 -2.2561  3.4929  3.2416
  387MOL0     H52224   9.460   3.684  12.452  1.0398 -1.1235 -0.8178
  387MOL0     H52225  10.285   3.248  11.974  1.8761 -2.6690 -1.4685
  387MOL0     H52226  10.505   3.338  11.987  1.7604 -2.8870 -0.8810
  387MOL0     H52227  10.910   3.442  12.151  0.4676 -0.7734  1.8956
  387MOL0     H52228  11.122   3.509  12.090 -0.4429  0.6964  2.2172
  387MOL0     H52229  11.645   2.694  11.590 -1.2110  1.4497 -0.9381
  387MOL0     H52230  11.450   2.575  11.482  1.6912 -3.8163  1.9547
  387MOL0     H52231  11.215   2.422  11.216  1.5582  1.0574  0.7973
  387MOL0     H52232  11.020   2.340  11.130 -1.1189  0.0041  0.2572
  387MOL0     H52233  10.655   2.495  10.933 -0.2422 -2.2888  1.7326
  387MOL0     H52234  10.769   2.629  10.887  4.1102 -1.3945  0.5005
  387MOL0     H52235  10.637   2.677  11.095  0.0124  0.2877 -0.0684
  387MOL0     H52236  10.820   2.668  11.112 -0.1809  0.1202  0.7882
  387MOL0     H52237  10.794   2.446  11.222 -2.6275 -2.1913  0.5150
  387MOL0     H52238  10.628   2.455  11.201  2.7540 -3.5554  0.9595
  387MOL0     H52239  10.693   2.473  11.417  0.5591  1.0113  1.7542
  387MOL0     H52240  10.793   2.619  11.393 -1.7799  3.7019 -2.8600
  387MOL0     H52241  10.425   2.791  11.387  1.6225  1.2570 -1.4063
  387MOL0     H52242  10.993   2.682  10.864 -0.2739 -1.8399  0.2172
  387MOL0     H52243  11.354   2.757  10.913  0.3521 -0.7610  1.0164
  387MOL0     H52244  11.215   2.779  10.803  0.7933  3.6525 -0.0411
  387MOL0     H52245  11.227   2.874  10.952 -0.7948  0.9329 -2.0872
  388MOL0     O52246   1.134   2.148  10.060  0.0300 -0.3607 -0.8438
  388MOL0     C52247   1.157   2.029  10.068  0.4188 -0.7635 -0.5040
  388MOL0     O52248   1.060   1.932  10.081  0.1508 -0.4076  0.5933
  388MOL0     C52249   0.928   1.943  10.113  0.4118 -0.1338 -0.2293
  388MOL0     C52250   0.861   2.050  10.177 -0.2107  0.5873 -0.3933
  388MOL0     C52251   0.723   2.044  10.221  0.0147  0.4340  0.0828
  388MOL0     C52252   0.647   1.922  10.205 -1.2102 -0.9090 -0.3495
  388MOL0     O52253   0.527   1.913  10.269  0.6823 -0.1159  0.6394
  388MOL0     C52254   0.446   1.787  10.277 -0.1314  0.3144  0.0894
  388MOL0     C52255   0.458   1.741  10.425  0.0730 -0.4889  0.8362
  388MOL0     C52256   0.383   1.617  10.457 -0.6512 -0.6768 -0.9100
  388MOL0     C52257   0.353   1.623  10.605  0.0944  0.1945  0.1032
  388MOL0     C52258   0.286   1.495  10.640 -1.1444 -0.1508 -1.4220
  388MOL0     C52259   0.148   1.472  10.576 -0.0924  0.0524 -0.2881
  388MOL0     C52260   0.090   1.344  10.640 -0.2454  0.7503  0.0331
  388MOL0     C52261   0.139   1.217  10.573  0.0537 -0.0717 -0.6376
  388MOL0     N52262   0.072   1.196  10.447 -0.7578 -0.1315  0.7286
  388MOL0     C52263  -0.021   1.098  10.420 -0.2770  0.0071  0.2420
  388MOL0     C52264  -0.029   1.086  10.285  0.2571  0.0988 -0.1058
  388MOL0     C52265  -0.114   0.991  10.195  0.4114 -0.3233 -0.2844
  388MOL0     C52266  -0.246   1.045  10.162  0.3696  0.4444 -0.0726
  388MOL0     C52267  -0.317   0.933  10.081 -0.0716 -0.6146  0.0261
  388MOL0     C52268  -0.469   0.947  10.082  0.0372 -0.2502 -1.4065
  388MOL0     O52269  -0.504   1.077  10.042  0.3491 -0.1875  0.2127
  388MOL0     C52270  -0.635   1.118  10.058  0.3290 -0.2490 -0.6375
  388MOL0     C52271  -0.741   1.027  10.063 -0.4153 -0.8431  0.0513
  388MOL0     C52272  -0.876   1.058  10.058  0.3436 -0.1334  0.2697
  388MOL0     C52273  -0.906   1.198  10.054  0.0400  0.3619 -0.0342
  388MOL0     C52274  -1.042   1.247  10.047  0.4126  0.7000 -0.1414
  388MOL0     O52275  -1.135   1.149  10.035 -0.0723 -0.2181  0.5860
  388MOL0     C52276  -1.273   1.177  10.030 -0.3926 -0.2079  0.6780
  388MOL0     C52277  -1.342   1.248   9.928  0.0223 -0.8099 -0.6017
  388MOL0     C52278  -1.476   1.262   9.956 -0.1091 -0.6997  0.4054
  388MOL0     C52279  -1.545   1.225  10.067  0.2890  0.4458  0.0054
  388MOL0     O52280  -1.676   1.259  10.067  0.5314  0.2018  0.3686
  388MOL0     C52281  -1.734   1.305  10.187 -0.2292 -0.3194  0.5779
  388MOL0     C52282  -1.878   1.354  10.157  0.2465 -0.4556  0.0949
  388MOL0     C52283  -1.894   1.449  10.038 -0.4883  0.5383 -1.4790
  388MOL0     C52284  -2.043   1.491  10.034  0.0356  0.1934 -0.2483
  388MOL0     C52285  -2.049   1.590   9.918  0.1307  0.1285  0.8013
  388MOL0     C52286  -2.199   1.637   9.898 -0.1483 -0.9585  0.7605
  388MOL0     C52287  -2.207   1.716   9.763  0.9788 -0.5025 -0.1714
  388MOL0     C52288  -2.347   1.768   9.731 -0.6041 -0.3301 -0.4061
  388MOL0    Cl52289  -2.415   1.859   9.871  0.6331  0.1949 -0.1799
  388MOL0     C52290  -1.474   1.157  10.170  0.0276 -0.1482  0.9497
  388MOL0     C52291  -1.340   1.126  10.138  0.7765 -0.7928 -0.5073
  388MOL0     O52292  -1.065   1.366  10.040 -0.0592  0.7596 -0.5667
  388MOL0     C52293  -0.803   1.288  10.044  0.0478  0.5004 -0.3281
  388MOL0     C52294  -0.674   1.248  10.045 -0.5636 -0.1897  0.5791
  388MOL0     N52295   0.069   1.167  10.235 -0.2961  0.1604  0.4343
  388MOL0     N52296   0.133   1.227  10.329  0.1983 -0.8008  0.8066
  388MOL0     C52297   0.721   1.820  10.148 -0.3339 -0.0100  0.1297
  388MOL0     C52298   0.850   1.830  10.102  0.1110  0.4749  0.1202
  388MOL0     C52299   1.295   1.978  10.070  0.5923 -0.1395 -0.8034
  388MOL0     C52300   1.318   1.851  10.024 -0.1502 -0.0160 -0.8704
  388MOL0     C52301   1.438   1.775  10.040 -0.3068  0.0302 -0.9163
  388MOL0     C52302   1.545   1.846  10.098  0.1382  0.4826  0.2397
  388MOL0     O52303   1.661   1.771  10.100 -1.2061  0.1744 -0.7671
  388MOL0     C52304   1.776   1.842  10.149 -0.0243 -0.4481 -0.2438
  388MOL0     C52305   1.897   1.731  10.156  0.8661 -0.0965  0.3641
  388MOL0     C52306   1.951   1.687  10.019  0.5072 -1.0637  0.7082
  388MOL0     C52307   2.047   1.798   9.963 -0.0065 -0.9674  0.2232
  388MOL0     C52308   2.159   1.810  10.060 -0.2230 -0.5194 -0.0524
  388MOL0     C52309   2.257   1.801  10.130  0.3422 -0.3119 -0.8256
  388MOL0     C52310   1.529   1.980  10.148  0.7994 -0.3993 -0.8318
  388MOL0     C52311   1.405   2.044  10.126 -0.0240  0.5360 -0.3243
  388MOL0     C52312   1.393   2.183  10.169  0.6251  0.5624  0.6266
  388MOL0     H52313   0.910   2.140  10.212 -1.8749  1.1667  0.6250
  388MOL0     H52314   0.676   2.119  10.284 -0.5976 -0.9424  1.3146
  388MOL0     H52315   0.342   1.816  10.256  0.0425  0.2115 -0.9353
  388MOL0     H52316   0.469   1.705  10.209 -1.6986 -0.7661  0.8080
  388MOL0     H52317   0.425   1.822  10.491 -0.9709 -0.5548  0.4100
  388MOL0     H52318   0.562   1.720  10.453 -0.3572 -1.8306  1.4850
  388MOL0     H52319   0.446   1.530  10.436  1.4292  0.4199  0.4571
  388MOL0     H52320   0.297   1.612  10.390 -1.0716 -1.1178 -0.3509
  388MOL0     H52321   0.441   1.629  10.668 -0.8943  0.9397  1.4581
  388MOL0     H52322   0.286   1.708  10.620 -1.3998 -0.5429 -1.8373
  388MOL0     H52323   0.353   1.411  10.623  0.3022  0.7734 -0.4858
  388MOL0     H52324   0.266   1.492  10.747  0.8567  0.2476 -0.9994
  388MOL0     H52325   0.083   1.560  10.583 -0.5216 -0.1437 -1.5011
  388MOL0     H52326   0.171   1.456  10.470  2.9849 -0.7172  0.3938
  388MOL0     H52327  -0.019   1.346  10.637 -0.3223 -0.8383  0.8283
  388MOL0     H52328   0.116   1.333  10.746  1.6404  1.0336 -0.3669
  388MOL0     H52329   0.244   1.235  10.547  0.9538  0.1623  2.6787
  388MOL0     H52330   0.134   1.125  10.632 -1.3997 -1.7129 -3.1151
  388MOL0     H52331  -0.065   1.042  10.502  4.6966  0.9317  4.0342
  388MOL0     H52332  -0.064   0.975  10.100  1.4073 -3.2060  0.6107
  388MOL0     H52333  -0.131   0.894  10.243 -1.4365 -0.4812 -1.1870
  388MOL0     H52334  -0.293   1.053  10.261 -1.4512  1.4154 -0.9655
  388MOL0     H52335  -0.242   1.146  10.120 -3.4762  0.7746  0.0213
  388MOL0     H52336  -0.290   0.836  10.124  2.3428 -0.7723 -1.6522
  388MOL0     H52337  -0.287   0.956   9.978 -1.7840  0.1300 -0.3488
  388MOL0     H52338  -0.504   0.919  10.181  2.2586 -0.8494 -0.7372
  388MOL0     H52339  -0.497   0.878  10.002  0.1426 -0.4101 -1.3060
  388MOL0     H52340  -0.709   0.923  10.064  1.9243 -0.2066 -1.3194
  388MOL0     H52341  -0.951   0.979  10.061  2.6554 -2.6158 -1.8597
  388MOL0     H52342  -1.286   1.286   9.843  0.2923  1.6953  0.6090
  388MOL0     H52343  -1.523   1.306   9.869  0.7812  0.6503  0.5809
  388MOL0     H52344  -1.747   1.223  10.258  1.4979  0.4260  1.8086
  388MOL0     H52345  -1.674   1.385  10.231  1.1790 -0.8676 -0.2852
  388MOL0     H52346  -1.937   1.266  10.130 -3.8943  1.6335  1.5394
  388MOL0     H52347  -1.922   1.397  10.247 -0.1954  1.5378 -1.0063
  388MOL0     H52348  -1.831   1.537  10.053  0.0799  0.6340 -4.0025
  388MOL0     H52349  -1.854   1.406   9.946  1.1533 -0.6599 -0.2587
  388MOL0     H52350  -2.075   1.536  10.128 -3.4500  2.4052 -2.2613
  388MOL0     H52351  -2.118   1.413  10.016 -1.2650  1.7799 -2.1175
  388MOL0     H52352  -2.003   1.563   9.823 -1.5892  0.4755 -0.1780
  388MOL0     H52353  -1.987   1.673   9.951  1.3560 -0.3864 -0.1290
  388MOL0     H52354  -2.273   1.557   9.894 -0.6797 -0.4777  0.7124
  388MOL0     H52355  -2.226   1.707   9.978 -3.2977 -1.6930  0.4455
  388MOL0     H52356  -2.175   1.654   9.679 -0.0599 -2.0470  0.5284
  388MOL0     H52357  -2.136   1.798   9.768 -1.8951  2.3382 -2.1031
  388MOL0     H52358  -2.339   1.834   9.644 -0.5250  3.3837  2.1767
  388MOL0     H52359  -2.416   1.684   9.714  0.8093 -1.9961  1.6274
  388MOL0     H52360  -1.510   1.129  10.268 -2.3621 -4.2730 -0.8262
  388MOL0     H52361  -1.285   1.078  10.218 -0.0056  1.2138  1.3340
  388MOL0     H52362  -0.816   1.396  10.038  2.2582  0.7301 -3.3582
  388MOL0     H52363  -0.595   1.322  10.043  0.9228 -1.7348 -0.0212
  388MOL0     H52364   0.670   1.724  10.144 -0.2413 -0.1007  0.8950
  388MOL0     H52365   0.885   1.743  10.048 -0.9076  0.5878 -0.7708
  388MOL0     H52366   1.243   1.790   9.975 -0.1497 -1.1177  0.4432
  388MOL0     H52367   1.445   1.674  10.000  0.6121 -0.1136 -0.4246
  388MOL0     H52368   1.759   1.876  10.252 -3.5950 -0.6752 -0.6126
  388MOL0     H52369   1.809   1.923  10.084  1.3816  1.0262  2.1410
  388MOL0     H52370   1.865   1.635  10.196  3.6642  0.1298  3.5889
  388MOL0     H52371   1.973   1.769  10.224 -0.6190  2.4047  0.7762
  388MOL0     H52372   1.870   1.668   9.949  1.2310 -0.0424 -0.4660
  388MOL0     H52373   2.018   1.602  10.032  1.6647 -0.4038 -0.6327
  388MOL0     H52374   2.085   1.769   9.865  1.2817 -0.5167  0.5755
  388MOL0     H52375   1.994   1.892   9.944  1.7876  0.6461  2.6199
  388MOL0     H52376   2.342   1.787  10.194 -0.3710  0.3230  0.2967
  388MOL0     H52377   1.611   2.032  10.197  0.6219  1.8087 -2.7058
  388MOL0     H52378   1.348   2.240  10.087 -1.3503  2.6160  3.0088
  388MOL0     H52379   1.325   2.191  10.253  1.8661 -3.0193  2.1698
  388MOL0     H52380   1.490   2.232  10.185 -0.1401  2.5410 -0.4797
  389MOL0     O52381   9.131   0.554   9.280  0.0622 -0.2029  0.0919
  389MOL0     C52382   9.244   0.529   9.317 -0.5991 -0.4353  0.3887
  389MOL0     O52383   9.328   0.440   9.246  0.4529 -0.4094 -0.1915
  389MOL0     C52384   9.329   0.420   9.113 -0.5746  0.4071  0.4745
  389MOL0     C52385   9.406   0.315   9.075  0.0932 -0.3851 -0.3740
  389MOL0     C52386   9.433   0.292   8.939 -0.2396  0.0079  0.0460
  389MOL0     C52387   9.354   0.347   8.843 -0.1738 -0.6587 -1.3778
  389MOL0     O52388   9.358   0.309   8.716  0.0729  0.1366 -0.1763
  389MOL0     C52389   9.257   0.203   8.691  0.0516 -0.0961 -0.0325
  389MOL0     C52390   9.313   0.061   8.719  0.9901  0.5307  0.1548
  389MOL0     C52391   9.244  -0.066   8.668  0.6236  0.0577 -0.2448
  389MOL0     C52392   9.127  -0.086   8.764 -0.2436 -0.6231 -0.2643
  389MOL0     C52393   9.050  -0.218   8.731 -0.7327 -0.4559 -0.9885
  389MOL0     C52394   9.152  -0.339   8.728  0.4720 -0.2582  0.8359
  389MOL0     C52395   9.077  -0.468   8.765 -1.1085 -0.6092 -1.2343
  389MOL0     C52396   9.172  -0.590   8.783  0.3687 -0.1996  0.1112
  389MOL0     N52397   9.088  -0.705   8.742 -0.6832 -0.5794 -0.5265
  389MOL0     C52398   8.980  -0.737   8.816  0.2578 -1.1485  0.1983
  389MOL0     C52399   8.918  -0.839   8.754  0.0819 -1.2366  0.3202
  389MOL0     C52400   8.795  -0.917   8.787 -0.4448 -0.2088  0.0811
  389MOL0     C52401   8.785  -0.955   8.933 -0.6196  0.6438 -0.7675
  389MOL0     C52402   8.694  -1.071   8.937  0.5913  0.0860 -0.6846
  389MOL0     C52403   8.551  -1.056   8.881 -0.0259  1.3606  0.0418
  389MOL0     O52404   8.499  -0.928   8.910 -0.3995 -0.0430 -0.4761
  389MOL0     C52405   8.372  -0.907   8.885 -0.4899 -0.2451 -0.1384
  389MOL0     C52406   8.334  -0.918   8.755  0.5760 -0.8274 -0.3107
  389MOL0     C52407   8.209  -0.892   8.718  0.5808 -0.7712 -0.0490
  389MOL0     C52408   8.113  -0.840   8.812  0.4185  0.3310 -0.0020
  389MOL0     C52409   7.989  -0.787   8.758 -0.3386  0.8990 -0.2739
  389MOL0     O52410   7.914  -0.725   8.856 -0.6444 -0.0906 -0.7149
  389MOL0     C52411   7.813  -0.647   8.827 -0.2687  0.8229  0.2649
  389MOL0     C52412   7.746  -0.626   8.710 -0.0649  0.0253 -0.0546
  389MOL0     C52413   7.651  -0.521   8.687  0.0902 -0.3265 -0.6182
  389MOL0     C52414   7.607  -0.443   8.796 -0.6373  0.4276  0.5968
  389MOL0     O52415   7.526  -0.339   8.775 -0.3702  0.1118 -0.9403
  389MOL0     C52416   7.465  -0.265   8.888  0.1722 -0.2005  0.4665
  389MOL0     C52417   7.386  -0.149   8.828  0.5709  0.1540 -0.8138
  389MOL0     C52418   7.326  -0.070   8.944 -0.7287  0.2415 -0.3409
  389MOL0     C52419   7.193  -0.130   8.989 -1.2172 -0.4651  0.0055
  389MOL0     C52420   7.138  -0.089   9.124 -0.1467 -0.8541 -0.2276
  389MOL0     C52421   7.172   0.056   9.164  0.3218 -0.6371 -1.0717
  389MOL0     C52422   7.083   0.113   9.281  0.8489  1.0130  1.0832
  389MOL0     C52423   7.077   0.024   9.400 -1.0347  0.1675  0.3143
  389MOL0    Cl52424   7.233  -0.043   9.447 -0.2520 -0.5172 -0.1238
  389MOL0     C52425   7.656  -0.481   8.924  0.6987 -0.4045  0.4149
  389MOL0     C52426   7.756  -0.584   8.943  0.6668 -0.2451 -0.1976
  389MOL0     O52427   7.970  -0.799   8.636  0.3986  0.1688 -0.1322
  389MOL0     C52428   8.153  -0.830   8.945  0.5805  0.0452 -0.0197
  389MOL0     C52429   8.285  -0.857   8.976 -0.3047  0.6709 -0.2186
  389MOL0     N52430   8.991  -0.858   8.639 -0.5223  0.5130 -0.1024
  389MOL0     N52431   9.090  -0.772   8.624  0.2040 -0.5207  0.4262
  389MOL0     C52432   9.263   0.446   8.880 -0.2619  0.5774 -0.7577
  389MOL0     C52433   9.254   0.487   9.018 -0.0915  0.5683 -0.1032
  389MOL0     C52434   9.288   0.587   9.450  0.1826  0.6392  0.1762
  389MOL0     C52435   9.395   0.518   9.516  0.0978 -1.0700 -0.3259
  389MOL0     C52436   9.460   0.580   9.621  0.6828  0.0307  0.2284
  389MOL0     C52437   9.418   0.704   9.675  1.1347  0.5144  0.2488
  389MOL0     O52438   9.472   0.765   9.783  0.2348  0.3136 -0.1697
  389MOL0     C52439   9.558   0.879   9.764 -0.1681 -0.5176  0.0669
  389MOL0     C52440   9.711   0.836   9.731  0.2354  0.5014  0.4456
  389MOL0     C52441   9.770   0.757   9.845  0.2273 -1.3942  0.1351
  389MOL0     C52442   9.776   0.835   9.979  0.3375 -0.2363 -0.8146
  389MOL0     C52443   9.788   0.732  10.086 -0.0567 -0.7416  0.3910
  389MOL0     C52444   9.808   0.655  10.175 -0.1311 -0.1017  0.1875
  389MOL0     C52445   9.306   0.770   9.616  0.0732 -0.1997 -0.0078
  389MOL0     C52446   9.241   0.710   9.503 -0.1499 -0.5023 -0.8085
  389MOL0     C52447   9.136   0.795   9.430 -0.1606 -0.4037 -0.3903
  389MOL0     H52448   9.465   0.265   9.151  0.0752  0.4037  0.1725
  389MOL0     H52449   9.506   0.215   8.918  2.1784  2.3147 -0.6245
  389MOL0     H52450   9.162   0.226   8.740 -2.1499  1.1433 -4.3568
  389MOL0     H52451   9.230   0.210   8.586 -3.6971  0.5947  0.8239
  389MOL0     H52452   9.335   0.048   8.825  2.3655  0.8783 -0.0713
  389MOL0     H52453   9.406   0.060   8.661  0.2602 -2.0746 -1.1162
  389MOL0     H52454   9.320  -0.144   8.664 -0.1210 -1.1299  3.8331
  389MOL0     H52455   9.197  -0.059   8.570  0.8558  0.5920 -0.3238
  389MOL0     H52456   9.170  -0.085   8.865  0.2678 -0.3416 -0.4777
  389MOL0     H52457   9.062   0.002   8.774 -2.3419 -2.2056  0.7517
  389MOL0     H52458   8.970  -0.238   8.803 -1.6067 -0.0423 -1.8248
  389MOL0     H52459   8.990  -0.206   8.641 -2.1215  2.5619  0.1887
  389MOL0     H52460   9.201  -0.336   8.630  1.1561 -0.1540  1.1745
  389MOL0     H52461   9.229  -0.314   8.801  2.4055  0.7291 -1.4008
  389MOL0     H52462   9.003  -0.479   8.685 -4.1916 -1.1560  1.4905
  389MOL0     H52463   9.028  -0.450   8.861  0.6781  0.8676 -0.5295
  389MOL0     H52464   9.263  -0.565   8.728  1.3850  0.7663  2.1300
  389MOL0     H52465   9.204  -0.603   8.887 -2.6297 -2.2551  0.9221
  389MOL0     H52466   8.953  -0.696   8.913  1.6013 -3.0383  1.4240
  389MOL0     H52467   8.713  -0.855   8.751  0.5950  0.1150 -1.8591
  389MOL0     H52468   8.809  -1.005   8.724  1.6109 -0.0789  0.2925
  389MOL0     H52469   8.877  -1.002   8.971 -1.4371 -0.5469 -0.2119
  389MOL0     H52470   8.754  -0.872   8.996 -4.7403  0.4299 -2.2677
  389MOL0     H52471   8.688  -1.092   9.044  3.5413  1.4677 -0.1401
  389MOL0     H52472   8.736  -1.161   8.892  2.0485 -0.2920  1.2990
  389MOL0     H52473   8.492  -1.138   8.924 -0.2977  1.6270  0.1824
  389MOL0     H52474   8.576  -1.071   8.776 -2.2062 -0.8160 -0.2722
  389MOL0     H52475   8.398  -0.947   8.671  0.8528  1.1001 -0.8285
  389MOL0     H52476   8.188  -0.903   8.612  1.3981 -2.1977 -0.0921
  389MOL0     H52477   7.766  -0.681   8.618 -1.8819 -2.6604  1.0107
  389MOL0     H52478   7.617  -0.495   8.587  1.5640 -1.7203 -1.5316
  389MOL0     H52479   7.394  -0.324   8.947 -1.8325  0.4350 -1.1922
  389MOL0     H52480   7.547  -0.213   8.940 -0.3264  0.0758  0.9923
  389MOL0     H52481   7.460  -0.094   8.768  3.8068 -0.9366  1.8673
  389MOL0     H52482   7.302  -0.187   8.770 -0.8836 -1.0743  1.9180
  389MOL0     H52483   7.387  -0.069   9.036 -2.3923  2.2987  0.8286
  389MOL0     H52484   7.313   0.036   8.917 -2.2520  1.2121  3.4870
  389MOL0     H52485   7.185  -0.239   8.985 -0.7466 -0.6969  2.7694
  389MOL0     H52486   7.126  -0.089   8.913 -1.4691 -0.6106  0.1502
  389MOL0     H52487   7.176  -0.161   9.198 -0.9341 -2.4322 -1.2961
  389MOL0     H52488   7.028  -0.087   9.129 -0.1189 -1.4795  2.7186
  389MOL0     H52489   7.279   0.056   9.189  0.2434 -0.3098 -0.7241
  389MOL0     H52490   7.176   0.124   9.078  0.6148 -0.5918 -1.0253
  389MOL0     H52491   6.980   0.131   9.251  1.5540  0.9265 -1.7067
  389MOL0     H52492   7.121   0.208   9.318  3.1943 -0.0429  1.5987
  389MOL0     H52493   7.029   0.071   9.486  0.4703  0.1456  1.2045
  389MOL0     H52494   7.021  -0.068   9.380  1.7361 -2.0702  2.0631
  389MOL0     H52495   7.611  -0.433   9.010 -2.6715  1.0495 -1.9205
  389MOL0     H52496   7.802  -0.597   9.040 -1.1470 -1.8501  0.5140
  389MOL0     H52497   8.091  -0.785   9.022  2.2851  0.1107  1.3621
  389MOL0     H52498   8.324  -0.839   9.076 -0.1275 -2.0018  0.2763
  389MOL0     H52499   9.203   0.489   8.800  0.2784  1.6210 -0.6255
  389MOL0     H52500   9.190   0.572   9.041  0.3518  0.8347  0.1503
  389MOL0     H52501   9.434   0.426   9.472  1.5589 -1.0242  0.7903
  389MOL0     H52502   9.539   0.539   9.682  0.3859  0.9602  1.2861
  389MOL0     H52503   9.545   0.953   9.844  0.8807  0.8415 -0.9525
  389MOL0     H52504   9.510   0.947   9.693  0.8307 -0.7356 -0.8553
  389MOL0     H52505   9.777   0.921   9.710  2.4814 -0.1213  4.1161
  389MOL0     H52506   9.708   0.767   9.645 -0.1720  0.3578  0.5744
  389MOL0     H52507   9.870   0.726   9.814  0.4641 -0.1934 -0.3657
  389MOL0     H52508   9.711   0.669   9.870 -2.6182  0.1137 -0.7918
  389MOL0     H52509   9.859   0.907   9.977  0.3888 -0.3148 -2.2678
  389MOL0     H52510   9.685   0.895   9.986  0.2654 -0.4666  4.5922
  389MOL0     H52511   9.839   0.607  10.265  0.1982 -0.4009 -0.0796
  389MOL0     H52512   9.273   0.863   9.660  2.4511  0.6335  0.1490
  389MOL0     H52513   9.168   0.817   9.328 -1.0635 -2.5351 -1.1928
  389MOL0     H52514   9.043   0.737   9.423 -1.4927  1.7007 -1.1226
  389MOL0     H52515   9.113   0.882   9.493  1.4631 -1.5573  1.9658
  390MOL0     O52516   0.150   6.339   4.925 -0.2049  0.2060 -0.6773
  390MOL0     C52517   0.239   6.267   4.871  0.0975 -1.0296  0.0207
  390MOL0     O52518   0.215   6.158   4.792 -0.0751  0.8461  0.5628
  390MOL0     C52519   0.079   6.123   4.774 -0.5621  0.6616 -0.7735
  390MOL0     C52520   0.044   6.004   4.835  0.7038 -0.4568  0.3000
  390MOL0     C52521  -0.082   5.948   4.814 -0.7739  0.0456 -0.3707
  390MOL0     C52522  -0.178   6.011   4.730  0.0815  0.7508 -1.5069
  390MOL0     O52523  -0.303   5.958   4.717 -0.2697 -0.2218  0.0696
  390MOL0     C52524  -0.413   6.031   4.775  0.5545 -0.1972 -0.8342
  390MOL0     C52525  -0.555   5.967   4.749  0.2963  0.9159  0.9405
  390MOL0     C52526  -0.622   5.859   4.841 -1.0742  1.1779 -0.2267
  390MOL0     C52527  -0.540   5.723   4.832  0.1631  0.2721 -0.3644
  390MOL0     C52528  -0.616   5.610   4.909 -0.6610  0.0137 -0.1588
  390MOL0     C52529  -0.699   5.531   4.813  0.0289 -0.4850 -0.2016
  390MOL0     C52530  -0.613   5.419   4.745 -0.1741  0.0701  0.0397
  390MOL0     C52531  -0.617   5.291   4.829 -0.0405 -0.3075 -0.4499
  390MOL0     N52532  -0.494   5.211   4.808 -0.1901  0.2998 -0.1551
  390MOL0     C52533  -0.462   5.158   4.680  0.4438 -0.1181 -0.0350
  390MOL0     C52534  -0.350   5.088   4.704 -0.1768  0.0616  0.6528
  390MOL0     C52535  -0.286   5.021   4.591  0.0184 -0.6477  0.3137
  390MOL0     C52536  -0.192   5.107   4.506 -0.2053  0.8702  0.0218
  390MOL0     C52537  -0.072   5.166   4.581  0.6144  0.5319  0.2475
  390MOL0     C52538   0.045   5.075   4.605  0.2599 -0.2242 -0.3637
  390MOL0     O52539   0.159   5.140   4.666  0.2080  1.2297 -0.7157
  390MOL0     C52540   0.269   5.189   4.591 -0.4285 -0.2704  0.3419
  390MOL0     C52541   0.293   5.170   4.451 -0.1866 -0.2272 -0.7621
  390MOL0     C52542   0.410   5.196   4.396 -0.3301  0.4515  0.4750
  390MOL0     C52543   0.508   5.267   4.472 -0.9229  0.3648 -0.1148
  390MOL0     C52544   0.642   5.295   4.422 -0.2880  0.2402 -0.6877
  390MOL0     O52545   0.680   5.231   4.306  0.0194  0.0614  0.7293
  390MOL0     C52546   0.804   5.268   4.254  0.7895 -0.4568  0.7276
  390MOL0     C52547   0.916   5.238   4.322 -0.5643  0.7560 -0.4047
  390MOL0     C52548   1.049   5.269   4.266 -0.4873 -0.0557 -0.4453
  390MOL0     C52549   1.063   5.331   4.147 -0.1510  0.1328  0.3701
  390MOL0     O52550   1.190   5.340   4.096  0.4521 -0.4776 -0.3090
  390MOL0     C52551   1.204   5.339   3.958 -0.4055  0.2130 -0.0728
  390MOL0     C52552   1.166   5.199   3.905  0.3815 -0.5179 -0.1279
  390MOL0     C52553   1.189   5.196   3.754  0.4438  0.6485  0.0543
  390MOL0     C52554   1.314   5.111   3.721 -0.1324  0.2772 -0.2608
  390MOL0     C52555   1.339   5.085   3.569  0.0818 -0.4476 -0.4144
  390MOL0     C52556   1.476   5.003   3.543 -0.8640  0.0492  0.3356
  390MOL0     C52557   1.497   4.992   3.389 -0.0917 -0.0976  0.0546
  390MOL0     C52558   1.643   4.948   3.357  0.1461  0.6983  0.7446
  390MOL0    Cl52559   1.652   4.902   3.188  0.0916  0.7986  0.2272
  390MOL0     C52560   0.945   5.361   4.080  0.8195  0.7051  0.0314
  390MOL0     C52561   0.817   5.339   4.131  1.5521  1.1528 -1.0265
  390MOL0     O52562   0.713   5.372   4.487  0.3546  0.8030 -0.3453
  390MOL0     C52563   0.476   5.305   4.606 -0.0488 -0.4003 -0.7493
  390MOL0     C52564   0.364   5.260   4.673 -0.3656  0.7449  0.1457
  390MOL0     N52565  -0.308   5.113   4.832 -0.2621  0.3219 -0.5932
  390MOL0     N52566  -0.405   5.173   4.900 -0.0724 -0.1139  0.4325
  390MOL0     C52567  -0.135   6.123   4.664 -0.2093 -0.2339  0.5860
  390MOL0     C52568  -0.009   6.189   4.686  0.1569  0.7821 -0.3229
  390MOL0     C52569   0.378   6.323   4.882  0.9004  0.5329  0.4201
  390MOL0     C52570   0.476   6.242   4.845  0.0452  0.3403 -0.3255
  390MOL0     C52571   0.615   6.275   4.847 -0.2349 -0.3193 -0.1489
  390MOL0     C52572   0.653   6.392   4.907  0.3570  0.4311 -0.4165
  390MOL0     O52573   0.777   6.443   4.929  0.3932  0.1404 -0.5495
  390MOL0     C52574   0.894   6.361   4.923  0.4539  0.8288 -0.4221
  390MOL0     C52575   1.000   6.428   5.005  0.1716  0.8391 -0.2882
  390MOL0     C52576   1.053   6.550   4.921 -0.4179  1.1196  0.5140
  390MOL0     C52577   1.195   6.600   4.951  0.4214 -0.2520  0.6708
  390MOL0     C52578   1.231   6.729   4.905 -0.4435  0.5489  0.2133
  390MOL0     C52579   1.274   6.837   4.867  0.4123 -0.9185 -0.6578
  390MOL0     C52580   0.559   6.476   4.970  0.0618  0.0022  0.5747
  390MOL0     C52581   0.419   6.451   4.942  0.7205  0.6317 -0.1156
  390MOL0     C52582   0.318   6.549   4.996 -0.7318 -0.2819  0.1779
  390MOL0     H52583   0.113   5.943   4.892  0.9240  0.8505  1.4843
  390MOL0     H52584  -0.106   5.865   4.881  1.2874 -0.8401 -0.6432
  390MOL0     H52585  -0.395   6.044   4.882  0.5544 -1.8669 -0.6042
  390MOL0     H52586  -0.419   6.130   4.729  0.6211  1.5099  2.5279
  390MOL0     H52587  -0.543   5.912   4.655 -2.0007  1.0055  0.5544
  390MOL0     H52588  -0.632   6.043   4.738  0.3678  0.6446 -2.1609
  390MOL0     H52589  -0.728   5.848   4.818 -0.9393  0.2760 -0.4422
  390MOL0     H52590  -0.633   5.890   4.946  1.3386  5.0017 -0.9056
  390MOL0     H52591  -0.516   5.697   4.728 -0.5169  0.5604 -0.5964
  390MOL0     H52592  -0.443   5.738   4.880  0.1417 -0.3140 -0.1283
  390MOL0     H52593  -0.555   5.543   4.970 -1.0854  0.6230  0.9488
  390MOL0     H52594  -0.692   5.652   4.975 -0.0751  0.3511  0.3107
  390MOL0     H52595  -0.779   5.481   4.869 -1.1168  0.9867 -0.4577
  390MOL0     H52596  -0.738   5.599   4.737  3.0912 -0.5247 -1.9627
  390MOL0     H52597  -0.509   5.450   4.733  0.0820 -1.2960 -1.8771
  390MOL0     H52598  -0.659   5.399   4.648 -1.1057  0.3917  0.4042
  390MOL0     H52599  -0.627   5.321   4.934  1.1048 -1.4601  0.0253
  390MOL0     H52600  -0.706   5.235   4.802 -0.6680  0.2767  0.3703
  390MOL0     H52601  -0.522   5.179   4.592 -2.1728  1.3711  1.9437
  390MOL0     H52602  -0.235   4.936   4.636 -2.4835 -1.2483  2.2639
  390MOL0     H52603  -0.360   4.983   4.520  1.0530 -5.3128  1.4094
  390MOL0     H52604  -0.160   5.039   4.426 -1.3862  0.3547 -0.0260
  390MOL0     H52605  -0.257   5.179   4.456  2.1186  2.6243 -0.6578
  390MOL0     H52606  -0.100   5.210   4.677 -5.0230 -0.1445 -0.7462
  390MOL0     H52607  -0.034   5.247   4.518 -0.1087 -0.6341 -1.7847
  390MOL0     H52608   0.075   5.018   4.517 -1.0279 -0.5227 -0.6241
  390MOL0     H52609   0.013   5.007   4.684 -0.2972  1.0348  0.5401
  390MOL0     H52610   0.213   5.124   4.395  2.1123 -2.2865 -2.6104
  390MOL0     H52611   0.436   5.172   4.293  0.7098 -1.5234  1.1370
  390MOL0     H52612   0.901   5.174   4.408 -0.9606  0.1210 -0.9381
  390MOL0     H52613   1.140   5.247   4.320  0.5991  1.4433 -1.6102
  390MOL0     H52614   1.169   5.429   3.907 -0.1556  1.6750  2.2451
  390MOL0     H52615   1.310   5.355   3.936 -0.3707  0.7185  0.4603
  390MOL0     H52616   1.229   5.124   3.955  0.4378 -0.6232 -0.3530
  390MOL0     H52617   1.060   5.179   3.920  0.0658 -0.1758 -1.7102
  390MOL0     H52618   1.112   5.130   3.712  0.7253 -0.4274  1.1691
  390MOL0     H52619   1.182   5.294   3.706 -1.4390  0.3383 -0.3935
  390MOL0     H52620   1.313   5.014   3.772 -1.4112  0.5148  0.1858
  390MOL0     H52621   1.398   5.176   3.748  2.0040 -2.5745  0.4470
  390MOL0     H52622   1.344   5.189   3.534 -1.9457  0.1221  0.8152
  390MOL0     H52623   1.254   5.040   3.518 -0.3804  0.9640 -0.9570
  390MOL0     H52624   1.560   5.058   3.588 -0.0832  1.9697 -3.1442
  390MOL0     H52625   1.460   4.906   3.590  0.0682 -0.5278 -0.5063
  390MOL0     H52626   1.489   5.089   3.339 -0.4539  0.2088  0.6966
  390MOL0     H52627   1.437   4.912   3.345  4.9424 -4.4656  0.0265
  390MOL0     H52628   1.718   5.027   3.372  0.3632  0.4310  1.0665
  390MOL0     H52629   1.672   4.855   3.406  1.7499  0.6608 -0.1992
  390MOL0     H52630   0.938   5.412   3.984 -0.5580 -1.3519 -1.0425
  390MOL0     H52631   0.723   5.373   4.087  0.3660  1.0349  1.2756
  390MOL0     H52632   0.548   5.358   4.667 -0.4782 -0.9631  0.2746
  390MOL0     H52633   0.342   5.275   4.778 -1.4350  1.6420 -0.1822
  390MOL0     H52634  -0.199   6.173   4.593  2.3307  3.1362  0.4228
  390MOL0     H52635   0.008   6.283   4.634  0.2681  2.0830  1.9406
  390MOL0     H52636   0.458   6.139   4.814 -1.0785  0.6136 -0.6107
  390MOL0     H52637   0.688   6.212   4.797 -1.5252 -2.4606  0.4898
  390MOL0     H52638   0.923   6.349   4.819  1.6224 -0.3736  0.0172
  390MOL0     H52639   0.866   6.262   4.959 -0.9411  1.7498  1.2410
  390MOL0     H52640   1.078   6.352   5.014 -2.5052 -2.0716  0.1142
  390MOL0     H52641   0.959   6.458   5.102  1.4530  0.7886  0.2931
  390MOL0     H52642   0.993   6.637   4.949  0.5427  0.8849  3.6240
  390MOL0     H52643   1.042   6.522   4.816  1.6451  1.4350  0.1672
  390MOL0     H52644   1.207   6.598   5.060  0.4093  2.5295  0.7981
  390MOL0     H52645   1.252   6.523   4.898 -0.7003 -1.0879  0.6453
  390MOL0     H52646   1.299   6.927   4.815  0.7402 -1.0057 -0.6539
  390MOL0     H52647   0.582   6.570   5.018  2.9420  0.9324 -2.1946
  390MOL0     H52648   0.261   6.580   4.908 -0.5098 -1.1622 -0.2850
  390MOL0     H52649   0.257   6.496   5.070  1.6675 -3.4463  0.1262
  390MOL0     H52650   0.373   6.636   5.033 -0.5658  1.0651 -2.9008
  391MOL0     O52651   5.174   7.031   2.031 -0.4921 -0.2484  0.2425
  391MOL0     C52652   5.224   7.065   1.927 -1.2111 -0.9393  0.2808
  391MOL0     O52653   5.330   7.161   1.917 -0.5745  0.0840  0.5719
  391MOL0     C52654   5.418   7.188   2.020  0.6107  0.2621 -0.1647
  391MOL0     C52655   5.437   7.100   2.128  0.3686  0.2323  0.1368
  391MOL0     C52656   5.536   7.119   2.226 -0.8258 -0.3508  0.3160
  391MOL0     C52657   5.606   7.245   2.230 -0.3470  0.5176  0.2381
  391MOL0     O52658   5.691   7.257   2.336 -0.1602  0.2933 -0.0925
  391MOL0     C52659   5.742   7.387   2.365 -0.4982 -1.1584 -0.3232
  391MOL0     C52660   5.789   7.401   2.515 -0.1288 -0.6537 -0.5854
  391MOL0     C52661   5.684   7.358   2.615 -0.1391  0.1980 -0.4492
  391MOL0     C52662   5.723   7.254   2.720  0.7198  0.0195  0.2554
  391MOL0     C52663   5.611   7.241   2.821  0.2645 -1.1042 -0.5002
  391MOL0     C52664   5.678   7.183   2.950 -0.1618  0.2103  0.6038
  391MOL0     C52665   5.706   7.033   2.929 -0.3052  0.4183 -0.0048
  391MOL0     C52666   5.719   6.945   3.054 -0.1920  0.0408  0.0419
  391MOL0     N52667   5.820   6.997   3.145 -0.2617  0.0985 -0.1646
  391MOL0     C52668   5.800   7.103   3.231 -1.0645  0.6438  0.2257
  391MOL0     C52669   5.918   7.141   3.284 -0.2718  0.3077  0.0609
  391MOL0     C52670   5.950   7.262   3.369  0.4096 -0.5702 -0.9028
  391MOL0     C52671   5.919   7.248   3.527  0.4475  0.8707  0.1030
  391MOL0     C52672   5.974   7.381   3.587  0.2274  0.1105 -0.1309
  391MOL0     C52673   5.888   7.426   3.710  0.5761 -0.6009 -0.6088
  391MOL0     O52674   5.903   7.318   3.813 -0.3137  0.1771 -0.3658
  391MOL0     C52675   5.792   7.282   3.888  0.1154 -0.4385 -0.0002
  391MOL0     C52676   5.799   7.276   4.031  0.4219 -0.5270  0.0020
  391MOL0     C52677   5.695   7.252   4.117  0.0817  0.1392  0.3830
  391MOL0     C52678   5.569   7.230   4.056  0.0833  0.7558 -0.0805
  391MOL0     C52679   5.455   7.198   4.140 -0.4898 -0.1119 -0.1107
  391MOL0     O52680   5.476   7.230   4.277  0.8912  0.1138 -0.5571
  391MOL0     C52681   5.370   7.196   4.355  0.8775  0.2486  0.7399
  391MOL0     C52682   5.361   7.074   4.425 -0.7652 -0.2216  0.0153
  391MOL0     C52683   5.247   7.054   4.500  0.5038 -0.2963  0.5418
  391MOL0     C52684   5.147   7.148   4.517 -0.6739 -0.2137 -0.5246
  391MOL0     O52685   5.046   7.108   4.596 -0.2594  0.1747 -0.1326
  391MOL0     C52686   4.922   7.165   4.567 -0.1483  0.3022 -0.1560
  391MOL0     C52687   4.827   7.116   4.678 -0.3516  0.3056 -0.6395
  391MOL0     C52688   4.712   7.207   4.701 -0.5362  0.2060 -0.2740
  391MOL0     C52689   4.623   7.171   4.817  0.2819  0.0838 -0.4201
  391MOL0     C52690   4.567   7.298   4.887  0.3652  0.9994 -0.5448
  391MOL0     C52691   4.476   7.383   4.806  0.5965 -0.1094  0.0190
  391MOL0     C52692   4.400   7.493   4.887  0.5663  0.3965 -0.1781
  391MOL0     C52693   4.309   7.571   4.793 -0.2638  0.4202  0.2548
  391MOL0    Cl52694   4.249   7.719   4.861 -0.5612 -0.2326  0.1112
  391MOL0     C52695   5.162   7.277   4.458  0.6916 -0.4083 -0.3003
  391MOL0     C52696   5.276   7.296   4.382 -0.1216  0.6764 -0.0674
  391MOL0     O52697   5.355   7.158   4.091  0.2720 -0.1860  0.0762
  391MOL0     C52698   5.554   7.229   3.913 -0.1721 -0.0930  0.2293
  391MOL0     C52699   5.665   7.260   3.834  0.9166 -0.0422  0.0402
  391MOL0     N52700   6.011   7.055   3.232  0.4976  0.0357 -0.8851
  391MOL0     N52701   5.951   6.966   3.158 -0.7186  0.0895  0.2220
  391MOL0     C52702   5.584   7.338   2.130 -0.2127 -0.7502  0.6635
  391MOL0     C52703   5.492   7.309   2.029 -0.5080 -0.0470 -0.4673
  391MOL0     C52704   5.139   7.057   1.808 -0.9620 -0.3743 -0.3609
  391MOL0     C52705   5.126   7.163   1.716 -0.7986  0.0128  0.3684
  391MOL0     C52706   5.039   7.156   1.609 -0.3829 -0.2358 -0.1115
  391MOL0     C52707   4.961   7.046   1.582 -0.7843  0.1248  0.3671
  391MOL0     O52708   4.861   7.046   1.488 -0.3985 -0.0546  0.2525
  391MOL0     C52709   4.852   7.155   1.392  0.7421  0.1297 -0.2974
  391MOL0     C52710   4.747   7.122   1.287 -0.6110 -0.2483 -0.4132
  391MOL0     C52711   4.754   6.982   1.235 -0.4141  0.3081  0.3111
  391MOL0     C52712   4.653   6.957   1.120 -0.3169 -0.4213  0.1114
  391MOL0     C52713   4.688   7.015   0.989  0.2898 -0.1069 -0.0068
  391MOL0     C52714   4.719   7.056   0.876  0.8016 -0.5860 -0.0644
  391MOL0     C52715   4.976   6.941   1.675  0.0018 -0.3884 -0.2435
  391MOL0     C52716   5.058   6.945   1.785 -1.3366  0.6446 -1.3517
  391MOL0     C52717   5.052   6.823   1.878 -0.7104 -0.3349  0.4483
  391MOL0     H52718   5.378   7.009   2.134  0.0323  0.3878 -0.6372
  391MOL0     H52719   5.544   7.045   2.304 -1.1609 -0.5574  0.1547
  391MOL0     H52720   5.821   7.403   2.291 -0.1875  0.0587  0.2406
  391MOL0     H52721   5.682   7.475   2.341  1.8616  0.0864 -2.0677
  391MOL0     H52722   5.796   7.508   2.533  0.8377 -0.9724  1.0774
  391MOL0     H52723   5.883   7.351   2.540  0.0924  1.1048  2.6580
  391MOL0     H52724   5.599   7.317   2.560 -0.8094  2.2793 -1.0542
  391MOL0     H52725   5.642   7.448   2.661  0.0151 -0.2322  0.5622
  391MOL0     H52726   5.731   7.158   2.667  1.5573  0.0268  0.3583
  391MOL0     H52727   5.817   7.295   2.759  0.6981 -1.9552  2.6126
  391MOL0     H52728   5.568   7.338   2.852  0.1747 -1.0405 -0.8263
  391MOL0     H52729   5.532   7.180   2.777 -0.7477 -0.6314  0.5710
  391MOL0     H52730   5.768   7.242   2.972  1.8369 -2.8888  1.3450
  391MOL0     H52731   5.609   7.196   3.033 -1.3097  1.0648 -0.4482
  391MOL0     H52732   5.797   7.022   2.869 -1.1692  0.0030 -1.2832
  391MOL0     H52733   5.631   6.999   2.857  0.6202  1.9858 -1.7801
  391MOL0     H52734   5.626   6.947   3.112  0.4864  1.5247  1.1326
  391MOL0     H52735   5.733   6.841   3.022  2.1659  0.5351 -0.7587
  391MOL0     H52736   5.709   7.158   3.252 -2.5092  0.2991 -4.1313
  391MOL0     H52737   6.052   7.300   3.357  0.3187 -0.0799 -0.1582
  391MOL0     H52738   5.881   7.338   3.333 -0.3197 -0.8940 -0.2001
  391MOL0     H52739   5.811   7.237   3.540  0.7535 -2.4885  0.6080
  391MOL0     H52740   5.975   7.164   3.570 -0.7302  0.5989  1.1867
  391MOL0     H52741   5.965   7.468   3.521  1.0696 -0.5917 -1.2080
  391MOL0     H52742   6.081   7.373   3.606  0.2100  1.8329  0.9183
  391MOL0     H52743   5.785   7.447   3.680 -0.9039  1.3552  4.6507
  391MOL0     H52744   5.927   7.519   3.754 -2.0799  0.1809  0.2885
  391MOL0     H52745   5.888   7.316   4.079 -0.2075  1.3748 -0.3366
  391MOL0     H52746   5.716   7.220   4.218  0.9099 -0.2387  0.0933
  391MOL0     H52747   5.436   6.996   4.416  2.1461  1.9822  2.6899
  391MOL0     H52748   5.236   6.959   4.552  1.7443 -0.0891  1.2225
  391MOL0     H52749   4.936   7.273   4.578 -2.9974  0.7618 -0.2177
  391MOL0     H52750   4.878   7.148   4.468  1.9433 -0.9246 -0.9398
  391MOL0     H52751   4.780   7.022   4.647 -1.9607  0.8959 -0.0625
  391MOL0     H52752   4.876   7.108   4.776 -0.2211  3.7009 -0.3202
  391MOL0     H52753   4.759   7.306   4.712  0.0878 -0.1657  0.5115
  391MOL0     H52754   4.653   7.225   4.611  1.2556 -0.3127 -1.6140
  391MOL0     H52755   4.674   7.103   4.887  1.4565  1.4368  0.0882
  391MOL0     H52756   4.543   7.108   4.779 -1.4449  2.3156 -0.6837
  391MOL0     H52757   4.654   7.354   4.923 -0.3254  0.8030  1.6110
  391MOL0     H52758   4.517   7.269   4.980  2.3098  1.7922  0.8292
  391MOL0     H52759   4.535   7.432   4.728  2.1318  0.3130  1.3877
  391MOL0     H52760   4.399   7.324   4.756  1.2873 -0.4202 -0.6721
  391MOL0     H52761   4.475   7.558   4.933  0.1878  1.3385 -0.8612
  391MOL0     H52762   4.345   7.447   4.969 -1.7052 -0.5099 -2.0695
  391MOL0     H52763   4.364   7.592   4.700 -0.3647  1.8305  0.4796
  391MOL0     H52764   4.226   7.510   4.757 -1.3030  1.8251  0.1972
  391MOL0     H52765   5.087   7.355   4.469  1.6830  0.5548 -0.1882
  391MOL0     H52766   5.292   7.398   4.347  1.2698  0.8592  1.0308
  391MOL0     H52767   5.458   7.201   3.869  0.5693  0.8993 -2.1810
  391MOL0     H52768   5.654   7.261   3.726  0.3741 -0.6125  0.0888
  391MOL0     H52769   5.636   7.433   2.131  2.2060 -1.9894  0.8833
  391MOL0     H52770   5.494   7.396   1.965 -3.0191  2.8459  3.0221
  391MOL0     H52771   5.178   7.258   1.721 -0.4909 -0.0542 -1.0358
  391MOL0     H52772   5.039   7.250   1.555  1.8979  1.0496  1.9550
  391MOL0     H52773   4.938   7.164   1.325 -0.0135  1.2449 -1.1435
  391MOL0     H52774   4.814   7.247   1.437 -2.4844 -0.5372 -1.4047
  391MOL0     H52775   4.766   7.190   1.204  1.1793 -0.0263  0.1173
  391MOL0     H52776   4.647   7.143   1.324 -2.0099  0.4785 -4.1934
  391MOL0     H52777   4.733   6.915   1.318  2.6331 -2.4613 -0.9432
  391MOL0     H52778   4.856   6.967   1.199  0.3536  2.9158  1.1820
  391MOL0     H52779   4.653   6.848   1.110 -0.2073 -0.6420  2.1520
  391MOL0     H52780   4.554   6.986   1.154  0.3180  0.2407  1.4631
  391MOL0     H52781   4.739   7.090   0.777 -0.5743  1.0938  0.2008
  391MOL0     H52782   4.904   6.860   1.666 -2.4352  1.6582 -0.3142
  391MOL0     H52783   5.152   6.803   1.917  1.7777  1.3834 -4.2389
  391MOL0     H52784   4.987   6.853   1.961 -0.6982  1.1516 -0.0388
  391MOL0     H52785   5.018   6.731   1.830  2.1127 -0.9202 -0.5542
  392MOL0     O52786   0.348   9.853  10.385  0.1293  0.3356 -0.5853
  392MOL0     C52787   0.251   9.919  10.422 -0.1534  0.0747  0.0991
  392MOL0     O52788   0.258  10.039  10.475 -0.3371  0.0113 -0.1883
  392MOL0     C52789   0.380  10.078  10.524  0.4595 -0.1951  0.3933
  392MOL0     C52790   0.416  10.061  10.656 -1.0308  0.6948 -0.3557
  392MOL0     C52791   0.546  10.094  10.709  0.6116  0.5253  0.0040
  392MOL0     C52792   0.637  10.144  10.620 -0.2232 -0.2895  0.1021
  392MOL0     O52793   0.763  10.190  10.657 -0.4775 -0.3906  0.3499
  392MOL0     C52794   0.829  10.115  10.757  0.5587  0.1506 -0.1721
  392MOL0     C52795   0.866   9.972  10.709  0.7087 -0.5186 -0.0396
  392MOL0     C52796   0.983   9.992  10.599  0.1762 -0.1565 -0.9167
  392MOL0     C52797   1.061   9.862  10.581 -0.8628 -0.7470  0.0084
  392MOL0     C52798   1.161   9.870  10.462 -0.3220  0.1588  0.4825
  392MOL0     C52799   1.220   9.728  10.434  0.6783  0.2527 -0.2484
  392MOL0     C52800   1.303   9.744  10.311  0.1434  0.5192 -0.0060
  392MOL0     C52801   1.377   9.605  10.295  0.6096 -0.5894 -0.2132
  392MOL0     N52802   1.457   9.594  10.170 -0.6716  0.0725 -0.4891
  392MOL0     C52803   1.575   9.666  10.141 -0.5423  0.4174 -1.0129
  392MOL0     C52804   1.611   9.620  10.017  0.4939  0.2270 -0.0453
  392MOL0     C52805   1.729   9.664   9.933  0.0173  0.1232  0.1158
  392MOL0     C52806   1.849   9.687  10.021 -0.8205  0.0169 -0.5438
  392MOL0     C52807   1.977   9.701   9.932  0.7082 -0.4689 -0.0185
  392MOL0     C52808   1.991   9.839   9.871 -0.8434 -0.0550 -0.5111
  392MOL0     O52809   2.105   9.840   9.784  0.5653 -0.1035 -0.4245
  392MOL0     C52810   2.094   9.801   9.646  0.5100  0.0994  0.4193
  392MOL0     C52811   2.212   9.820   9.583 -0.3579  0.4681 -1.0916
  392MOL0     C52812   2.236   9.778   9.455  0.1268 -0.9540 -1.2340
  392MOL0     C52813   2.141   9.692   9.394 -0.5678  0.2670  0.3267
  392MOL0     C52814   2.179   9.640   9.260  1.2621 -0.0160  0.7117
  392MOL0     O52815   2.308   9.626   9.231  0.9010 -0.2805 -0.2032
  392MOL0     C52816   2.355   9.623   9.102  0.2857  0.3763  0.1169
  392MOL0     C52817   2.295   9.669   8.989  0.7260  0.6012 -0.2194
  392MOL0     C52818   2.353   9.662   8.862  0.1472  0.1554 -0.2356
  392MOL0     C52819   2.483   9.612   8.844 -0.2567 -0.6632 -0.0842
  392MOL0     O52820   2.543   9.633   8.726 -0.2249 -0.6813 -0.1338
  392MOL0     C52821   2.651   9.549   8.692  0.6865  0.4099  0.3865
  392MOL0     C52822   2.601   9.412   8.666 -0.1076  0.4844 -0.3448
  392MOL0     C52823   2.705   9.312   8.608  0.2406 -0.8333 -0.5528
  392MOL0     C52824   2.626   9.184   8.567  0.5042 -0.0517  0.1976
  392MOL0     C52825   2.712   9.075   8.490 -0.3687 -0.9781  0.4953
  392MOL0     C52826   2.629   8.945   8.490 -0.4030  0.1606  0.3345
  392MOL0     C52827   2.487   8.940   8.429 -0.9985 -1.1556  0.1975
  392MOL0     C52828   2.448   8.795   8.393 -0.4014 -0.6994 -0.0475
  392MOL0    Cl52829   2.287   8.790   8.310  0.0653  0.4242  0.0310
  392MOL0     C52830   2.547   9.562   8.969 -0.9515 -0.4656 -0.4349
  392MOL0     C52831   2.482   9.569   9.087  0.6002  1.2498 -0.5069
  392MOL0     O52832   2.085   9.622   9.182 -0.5219 -0.5469 -0.5910
  392MOL0     C52833   2.018   9.680   9.454 -0.4990  1.0722 -1.1072
  392MOL0     C52834   1.986   9.741   9.577 -0.0877 -0.3670 -0.2816
  392MOL0     N52835   1.508   9.540   9.969 -0.8594 -0.5716 -0.2990
  392MOL0     N52836   1.432   9.519  10.066  0.0170 -0.5231  0.7999
  392MOL0     C52837   0.608  10.157  10.486 -0.0980 -0.2756 -0.1891
  392MOL0     C52838   0.485  10.117  10.433 -0.0949  0.4469 -1.1154
  392MOL0     C52839   0.117   9.866  10.377 -0.0861  0.9460 -0.9599
  392MOL0     C52840   0.116   9.748  10.308  0.2825 -0.0825  0.9279
  392MOL0     C52841  -0.004   9.695  10.249 -0.1813 -0.3345  0.4540
  392MOL0     C52842  -0.120   9.757  10.274  0.0267 -0.4047 -0.0262
  392MOL0     O52843  -0.235   9.690  10.246 -0.0450 -0.8002 -0.9767
  392MOL0     C52844  -0.291   9.740  10.124 -0.0021  0.1379 -0.4581
  392MOL0     C52845  -0.439   9.703  10.108 -0.0960  0.1898  0.7962
  392MOL0     C52846  -0.537   9.795  10.206 -0.1343  0.3187 -0.5532
  392MOL0     C52847  -0.674   9.720  10.246  0.2475 -0.0971 -0.8146
  392MOL0     C52848  -0.757   9.702  10.131  0.3727  1.1299  0.1411
  392MOL0     C52849  -0.819   9.703  10.024  0.2800  0.0445  0.1189
  392MOL0     C52850  -0.127   9.887  10.334 -0.6936 -0.6909  0.1295
  392MOL0     C52851  -0.005   9.937  10.393 -0.0848  0.8224  0.2846
  392MOL0     C52852  -0.020  10.080  10.464  0.2514  0.5184 -0.6387
  392MOL0     H52853   0.342  10.025  10.726 -0.9558 -0.1974 -0.7300
  392MOL0     H52854   0.566  10.076  10.814 -1.1403 -3.0437 -0.1064
  392MOL0     H52855   0.915  10.179  10.779 -0.5003  1.1015  1.3284
  392MOL0     H52856   0.781  10.110  10.855 -1.6742 -1.1086 -1.2524
  392MOL0     H52857   0.790   9.901  10.674  0.9493 -2.3699  2.8862
  392MOL0     H52858   0.908   9.927  10.799  0.9159 -0.0347  0.1129
  392MOL0     H52859   1.054  10.070  10.629 -0.5949 -0.4923  2.0840
  392MOL0     H52860   0.938  10.023  10.505  0.3189  1.0823 -0.5964
  392MOL0     H52861   1.118   9.844  10.673  0.4751  0.6438 -0.4922
  392MOL0     H52862   0.986   9.783  10.579 -2.6274  0.7139  2.3129
  392MOL0     H52863   1.110   9.909  10.374  0.7501 -0.0250 -0.2497
  392MOL0     H52864   1.240   9.938  10.497  1.0637 -0.4837 -1.2396
  392MOL0     H52865   1.271   9.694  10.525 -0.2528  1.2011  0.6677
  392MOL0     H52866   1.136   9.661  10.411  2.7436 -2.5521 -0.1011
  392MOL0     H52867   1.376   9.824  10.319 -1.7892  2.4624 -0.7694
  392MOL0     H52868   1.235   9.769  10.228  0.3568  3.2317  0.5490
  392MOL0     H52869   1.448   9.613  10.378 -0.7331  1.7765  0.8030
  392MOL0     H52870   1.310   9.520  10.311  3.0743 -2.5442  0.4935
  392MOL0     H52871   1.642   9.732  10.195 -0.6027 -2.0200  2.3790
  392MOL0     H52872   1.753   9.579   9.869  0.9034 -1.0494  1.9179
  392MOL0     H52873   1.711   9.747   9.865 -1.3576  0.1671  0.4976
  392MOL0     H52874   1.835   9.773  10.088  2.1008 -0.2493  0.5734
  392MOL0     H52875   1.865   9.594  10.076  1.9538 -0.5028 -2.0167
  392MOL0     H52876   1.982   9.620   9.858 -1.2354 -0.3861 -0.2750
  392MOL0     H52877   2.069   9.688   9.990  0.7970 -0.6256 -0.1918
  392MOL0     H52878   2.015   9.909   9.951  1.7895 -1.3691 -0.0264
  392MOL0     H52879   1.906   9.881   9.815  0.5370  2.9538 -0.5677
  392MOL0     H52880   2.294   9.859   9.642 -1.4717  2.1935 -0.6269
  392MOL0     H52881   2.333   9.803   9.415  0.8595  1.0703  1.5181
  392MOL0     H52882   2.188   9.684   8.973 -0.6495 -2.0773  4.4389
  392MOL0     H52883   2.306   9.673   8.765  0.2010  0.2709 -0.2478
  392MOL0     H52884   2.688   9.589   8.597  0.3006  2.8144  1.1804
  392MOL0     H52885   2.733   9.544   8.765 -1.5513  1.0194  3.1150
  392MOL0     H52886   2.571   9.367   8.761 -2.1332 -1.9111 -1.9770
  392MOL0     H52887   2.511   9.415   8.604 -3.2924 -0.5457  3.7785
  392MOL0     H52888   2.766   9.346   8.524 -1.5223  2.6941 -0.5794
  392MOL0     H52889   2.775   9.279   8.685  2.0013 -0.7794 -2.0698
  392MOL0     H52890   2.548   9.217   8.498  0.6422 -0.9521 -0.4040
  392MOL0     H52891   2.583   9.137   8.655 -0.4345 -2.9768 -1.7109
  392MOL0     H52892   2.817   9.075   8.520  0.9112  2.5363 -3.1300
  392MOL0     H52893   2.725   9.109   8.387  3.8786 -1.2562  0.7355
  392MOL0     H52894   2.696   8.875   8.439  0.4294  2.1677 -1.4363
  392MOL0     H52895   2.624   8.924   8.598  0.6672 -1.5508  0.0963
  392MOL0     H52896   2.488   9.000   8.337 -2.1343 -1.5428 -0.0744
  392MOL0     H52897   2.423   8.977   8.509 -1.2620 -2.5337  0.6539
  392MOL0     H52898   2.524   8.746   8.332  0.4000 -4.4963  3.5497
  392MOL0     H52899   2.459   8.738   8.486  0.6254  2.0338  1.6340
  392MOL0     H52900   2.650   9.527   8.975 -0.5519  0.9064  2.0483
  392MOL0     H52901   2.531   9.524   9.173  0.0993  0.5192 -0.5957
  392MOL0     H52902   1.942   9.620   9.405  0.1939 -1.7572  1.0599
  392MOL0     H52903   1.888   9.736   9.622  0.2764 -1.4002  0.4369
  392MOL0     H52904   0.688  10.203  10.430 -1.3697 -0.5414 -2.3343
  392MOL0     H52905   0.464  10.122  10.327  0.2980  0.2880 -1.2021
  392MOL0     H52906   0.194   9.675  10.288  0.1343  0.4451 -1.9400
  392MOL0     H52907   0.007   9.599  10.200  0.2904  1.2418 -2.8409
  392MOL0     H52908  -0.236   9.692  10.043  0.9584  1.4733 -0.6367
  392MOL0     H52909  -0.282   9.849  10.121  0.3886  0.1487 -4.1589
  392MOL0     H52910  -0.454   9.596  10.127  2.3007 -0.6833 -1.5580
  392MOL0     H52911  -0.459   9.718  10.001  3.0662 -1.5914 -0.2011
  392MOL0     H52912  -0.549   9.897  10.168 -0.1072  0.2475 -0.7528
  392MOL0     H52913  -0.476   9.795  10.297  0.9041 -1.5326 -1.1987
  392MOL0     H52914  -0.644   9.622  10.284  0.5723  1.4031  3.3265
  392MOL0     H52915  -0.722   9.781  10.323 -0.7331 -0.6492 -0.9692
  392MOL0     H52916  -0.866   9.682   9.930  0.9451 -1.7886  0.1584
  392MOL0     H52917  -0.221   9.941  10.340 -0.0245  0.4187  0.7254
  392MOL0     H52918  -0.125  10.095  10.493  0.4319 -2.1161  1.7347
  392MOL0     H52919   0.032  10.069  10.559  0.2392 -2.3665 -0.8670
  392MOL0     H52920   0.010  10.168  10.406 -2.8469  3.1794  1.4460
  393MOL0     O52921   1.478   8.828   2.686 -0.2780 -1.0310 -0.5073
  393MOL0     C52922   1.363   8.874   2.663 -0.8152 -1.2921  0.0461
  393MOL0     O52923   1.340   8.986   2.603 -0.2999  0.5824  0.0585
  393MOL0     C52924   1.446   9.075   2.585 -0.2652  0.2242  1.0125
  393MOL0     C52925   1.430   9.209   2.624  0.6232  0.8716 -0.6253
  393MOL0     C52926   1.529   9.301   2.599  0.1920 -0.4961  0.1319
  393MOL0     C52927   1.635   9.268   2.517 -0.0846 -0.2320  0.6804
  393MOL0     O52928   1.727   9.360   2.485  0.0868  0.6799 -0.6312
  393MOL0     C52929   1.727   9.418   2.353 -0.2242  0.4333  0.5333
  393MOL0     C52930   1.747   9.574   2.354 -0.2353  0.5852 -0.3591
  393MOL0     C52931   1.886   9.615   2.408 -0.2323 -1.0425  1.4301
  393MOL0     C52932   1.918   9.770   2.418 -0.9517  0.1994  0.5406
  393MOL0     C52933   2.069   9.797   2.380 -0.4195  0.5109 -0.5019
  393MOL0     C52934   2.099   9.940   2.398  0.0810  0.0659  0.2626
  393MOL0     C52935   2.240   9.984   2.372 -1.1089  0.1669 -0.3187
  393MOL0     C52936   2.266  10.124   2.330  0.9324  0.0151 -0.0826
  393MOL0     N52937   2.201  10.220   2.422 -0.7058 -0.2577 -0.6646
  393MOL0     C52938   2.273  10.270   2.537  0.3686 -0.0071  0.2534
  393MOL0     C52939   2.176  10.350   2.603 -0.5696 -0.3358  0.4732
  393MOL0     C52940   2.196  10.418   2.737  0.1015  0.2837 -1.0873
  393MOL0     C52941   2.322  10.501   2.742 -0.3717 -0.5312 -0.1982
  393MOL0     C52942   2.329  10.619   2.638  0.5684 -0.0664  0.2433
  393MOL0     C52943   2.470  10.687   2.645 -0.2034 -0.2407 -0.0330
  393MOL0     O52944   2.567  10.590   2.613  0.3530 -0.5374 -1.1107
  393MOL0     C52945   2.699  10.622   2.603  0.3887 -0.6217 -1.0791
  393MOL0     C52946   2.750  10.752   2.614  0.8380  0.4356  0.1273
  393MOL0     C52947   2.878  10.784   2.572  0.6467 -0.1132 -0.1928
  393MOL0     C52948   2.973  10.687   2.543  0.9140  1.0845 -0.6743
  393MOL0     C52949   3.108  10.722   2.506 -0.5198  0.6687 -0.8254
  393MOL0     O52950   3.195  10.613   2.479 -0.5126 -0.9297  0.2182
  393MOL0     C52951   3.317  10.653   2.434 -0.5915  0.1921  0.6038
  393MOL0     C52952   3.350  10.663   2.296 -0.1752 -0.0126 -0.3087
  393MOL0     C52953   3.478  10.708   2.253 -0.6525  0.0923 -0.2492
  393MOL0     C52954   3.574  10.750   2.342  0.2059 -0.4916 -0.1394
  393MOL0     O52955   3.697  10.790   2.302  0.5271  0.3252  0.6831
  393MOL0     C52956   3.778  10.686   2.237 -0.6479 -1.1290 -0.2682
  393MOL0     C52957   3.927  10.713   2.246 -0.5167 -0.0707  0.0156
  393MOL0     C52958   3.992  10.700   2.110 -0.4412  0.1878  0.4604
  393MOL0     C52959   4.145  10.695   2.112  0.2439  0.0177 -0.5031
  393MOL0     C52960   4.213  10.678   1.978  0.1855  0.1570  0.3513
  393MOL0     C52961   4.369  10.710   1.984  0.1536  0.4172 -0.4544
  393MOL0     C52962   4.438  10.690   1.843 -0.2415  0.9340 -1.5122
  393MOL0     C52963   4.585  10.655   1.853 -0.4131 -0.6462  0.1458
  393MOL0    Cl52964   4.663  10.798   1.902 -0.1049  0.0927 -0.5360
  393MOL0     C52965   3.540  10.748   2.483 -0.2398 -0.0096  1.1711
  393MOL0     C52966   3.411  10.701   2.524  0.8057 -0.1340 -0.2889
  393MOL0     O52967   3.137  10.847   2.500  0.6956 -0.9329  0.2428
  393MOL0     C52968   2.923  10.556   2.561 -0.0731 -0.1088  0.3847
  393MOL0     C52969   2.789  10.525   2.586  0.5911  1.1386 -0.1436
  393MOL0     N52970   2.067  10.360   2.513  0.6667 -0.2924 -0.4405
  393MOL0     N52971   2.074  10.272   2.418 -0.1987 -0.2871  0.5428
  393MOL0     C52972   1.653   9.139   2.473 -0.0388  0.2329 -0.2114
  393MOL0     C52973   1.561   9.042   2.509  0.4545  0.5533 -0.9796
  393MOL0     C52974   1.243   8.790   2.706  0.4552  0.0799 -0.5462
  393MOL0     C52975   1.141   8.787   2.621  0.0659 -0.9397  0.2374
  393MOL0     C52976   1.028   8.712   2.652  1.4715  0.6899 -0.3157
  393MOL0     C52977   1.014   8.641   2.774  0.1428 -0.1020  0.0053
  393MOL0     O52978   0.903   8.552   2.787  0.0431  0.3557 -0.1805
  393MOL0     C52979   0.885   8.469   2.909 -0.7630 -0.0255  0.4644
  393MOL0     C52980   0.756   8.381   2.910 -0.6109 -1.0353 -0.5311
  393MOL0     C52981   0.638   8.465   2.879  0.5552  0.1225 -0.0162
  393MOL0     C52982   0.503   8.409   2.929 -0.1183  0.6042 -0.1404
  393MOL0     C52983   0.497   8.261   2.930 -0.7008 -0.4737  0.4996
  393MOL0     C52984   0.513   8.146   2.922 -0.2134 -0.2507 -0.0617
  393MOL0     C52985   1.116   8.644   2.866  0.0090 -0.3611 -0.6904
  393MOL0     C52986   1.233   8.719   2.831  0.7006 -1.1864  0.4293
  393MOL0     C52987   1.332   8.746   2.937 -0.6217 -0.6991  0.1160
  393MOL0     H52988   1.340   9.251   2.669  0.2562 -1.4101  0.9178
  393MOL0     H52989   1.525   9.407   2.622 -0.6559  0.0891 -2.4261
  393MOL0     H52990   1.782   9.362   2.277 -2.8449 -0.7475 -0.6003
  393MOL0     H52991   1.630   9.411   2.303  0.6035 -0.0528 -1.0811
  393MOL0     H52992   1.677   9.633   2.414  0.6643  0.9916  0.3141
  393MOL0     H52993   1.724   9.620   2.257 -2.5380 -2.7212 -1.5932
  393MOL0     H52994   1.949   9.575   2.327  1.5627 -0.4021  2.4372
  393MOL0     H52995   1.903   9.565   2.503 -2.3763 -1.1427  1.8059
  393MOL0     H52996   1.879   9.826   2.333  0.6367 -1.4448 -1.3671
  393MOL0     H52997   1.893   9.816   2.514  1.5862 -0.5082  1.6228
  393MOL0     H52998   2.127   9.739   2.452 -1.3761 -2.6625 -2.0736
  393MOL0     H52999   2.098   9.771   2.278  2.1015  2.1793 -0.2883
  393MOL0     H53000   2.036   9.994   2.327 -0.3124 -0.6955  0.0228
  393MOL0     H53001   2.077   9.980   2.497 -1.9678  1.0593 -0.5491
  393MOL0     H53002   2.291   9.924   2.297  0.7106 -0.3758  1.2638
  393MOL0     H53003   2.292   9.974   2.468  0.8640 -0.4462 -1.4014
  393MOL0     H53004   2.373  10.145   2.333  0.5468  2.4081 -0.8559
  393MOL0     H53005   2.222  10.137   2.230 -1.5894 -1.5593  0.7239
  393MOL0     H53006   2.371  10.244   2.577 -1.5092 -4.1760  2.8287
  393MOL0     H53007   2.103  10.473   2.749 -0.1943  0.4542 -3.5477
  393MOL0     H53008   2.204  10.340   2.813  0.6035 -0.0608 -1.4842
  393MOL0     H53009   2.332  10.537   2.845  0.7636 -0.2253 -0.3991
  393MOL0     H53010   2.409  10.436   2.728  0.6355 -0.0398  2.8441
  393MOL0     H53011   2.244  10.687   2.653  0.1995 -0.4857  0.0956
  393MOL0     H53012   2.315  10.569   2.541  1.2533 -0.8279  0.5319
  393MOL0     H53013   2.477  10.724   2.748  0.4712  0.4819 -0.3244
  393MOL0     H53014   2.476  10.773   2.578 -0.4463 -1.6901 -2.0028
  393MOL0     H53015   2.680  10.831   2.642 -0.7343  0.0587 -2.4583
  393MOL0     H53016   2.897  10.891   2.576  0.9215 -0.1860  1.0330
  393MOL0     H53017   3.267  10.643   2.229 -0.3596 -0.0352 -0.0794
  393MOL0     H53018   3.495  10.728   2.148 -1.7108  2.3247 -0.0558
  393MOL0     H53019   3.756  10.591   2.287  0.4058 -0.5179  1.4389
  393MOL0     H53020   3.752  10.683   2.131 -1.6410  2.0173 -0.1925
  393MOL0     H53021   3.950  10.818   2.268 -2.5325  0.0691  1.6927
  393MOL0     H53022   3.975  10.653   2.324  0.3737 -0.5393 -0.8658
  393MOL0     H53023   3.946  10.623   2.048  0.0103  1.0494 -0.9841
  393MOL0     H53024   3.977  10.784   2.042  0.3581  0.3219  0.4363
  393MOL0     H53025   4.173  10.612   2.178  0.0509 -0.3071 -0.8305
  393MOL0     H53026   4.183  10.793   2.141 -0.2475  0.6437 -1.9056
  393MOL0     H53027   4.172  10.745   1.903 -0.7576  0.3540  1.0264
  393MOL0     H53028   4.194  10.573   1.953  0.4398  0.4107 -1.0046
  393MOL0     H53029   4.374  10.814   2.016 -1.6461  1.0632 -2.1059
  393MOL0     H53030   4.417  10.648   2.060  0.7111  3.0025  1.4469
  393MOL0     H53031   4.428  10.775   1.776 -2.0073  0.0044 -2.5112
  393MOL0     H53032   4.388  10.608   1.789  1.9557 -2.8933  1.6973
  393MOL0     H53033   4.595  10.560   1.907 -0.5895 -1.8275 -1.8256
  393MOL0     H53034   4.611  10.639   1.748 -1.5102  2.8368 -0.7866
  393MOL0     H53035   3.629  10.766   2.541 -0.0361  3.1237  0.0604
  393MOL0     H53036   3.394  10.679   2.629 -2.3512 -4.3932 -1.3981
  393MOL0     H53037   2.978  10.464   2.545  1.6700  1.2832 -2.4512
  393MOL0     H53038   2.758  10.421   2.595 -0.0808  0.8042 -4.4922
  393MOL0     H53039   1.740   9.133   2.408  0.2688  0.7740  0.1395
  393MOL0     H53040   1.576   8.935   2.502 -1.5646  0.1562  0.1589
  393MOL0     H53041   1.147   8.837   2.525 -0.6663 -1.2323  0.0234
  393MOL0     H53042   0.954   8.706   2.573  0.2896  0.6485  0.7720
  393MOL0     H53043   0.895   8.524   3.003 -1.8449 -2.2913  2.0073
  393MOL0     H53044   0.973   8.403   2.905 -1.4014 -0.8354 -1.9288
  393MOL0     H53045   0.742   8.326   3.004  1.5569  3.2811  2.6660
  393MOL0     H53046   0.760   8.302   2.833 -0.2296  0.3795 -2.0145
  393MOL0     H53047   0.639   8.464   2.769  2.1086 -1.9763 -0.0537
  393MOL0     H53048   0.650   8.567   2.915  0.8887  1.7473 -4.1125
  393MOL0     H53049   0.485   8.437   3.034 -0.3885 -4.1644  1.3063
  393MOL0     H53050   0.419   8.454   2.875  0.2465  2.6636  0.8779
  393MOL0     H53051   0.539   8.042   2.913 -2.1942 -0.6969 -1.3196
  393MOL0     H53052   1.111   8.593   2.962 -2.9484 -2.0497 -1.5778
  393MOL0     H53053   1.436   8.724   2.910  0.2217  2.2051  0.6817
  393MOL0     H53054   1.337   8.852   2.964 -0.0415 -1.0334  1.4145
  393MOL0     H53055   1.309   8.692   3.030 -0.9340  2.3284  1.9377
  394MOL0     O53056   1.946   3.870   4.622 -0.3762 -0.1084 -0.4098
  394MOL0     C53057   1.909   3.769   4.561 -1.3587  0.0027  1.1760
  394MOL0     O53058   1.777   3.744   4.523 -0.8779 -0.1312  0.0414
  394MOL0     C53059   1.682   3.835   4.556  0.2796 -0.5746  0.2090
  394MOL0     C53060   1.699   3.970   4.514 -0.2362  0.2761  0.1632
  394MOL0     C53061   1.600   4.065   4.541 -0.1911  0.4561 -0.2209
  394MOL0     C53062   1.477   4.026   4.595 -1.2158  0.3077  0.0040
  394MOL0     O53063   1.378   4.120   4.612 -0.0614 -0.6999 -0.2904
  394MOL0     C53064   1.308   4.127   4.743 -0.6011  0.3024 -0.4027
  394MOL0     C53065   1.201   4.234   4.740 -0.2279  0.6418 -1.0333
  394MOL0     C53066   1.114   4.210   4.613 -0.3119  0.5040  0.1016
  394MOL0     C53067   1.056   4.069   4.608 -0.3129  0.2307  0.4327
  394MOL0     C53068   0.941   4.055   4.495 -0.7185  0.3600  0.3526
  394MOL0     C53069   0.993   4.032   4.351  0.3085 -0.6393  0.2360
  394MOL0     C53070   1.077   4.133   4.274  0.1980 -0.6156  0.3329
  394MOL0     C53071   1.119   4.095   4.138 -0.6918 -0.2181  0.0588
  394MOL0     N53072   1.011   4.060   4.046  0.2100  0.2887 -0.4614
  394MOL0     C53073   0.897   4.130   4.028  0.8694 -0.2583  0.8774
  394MOL0     C53074   0.822   4.062   3.937  0.2910  1.0643 -0.2112
  394MOL0     C53075   0.686   4.103   3.880 -0.4198  0.5481 -0.5527
  394MOL0     C53076   0.592   4.000   3.826  0.2060 -0.6975  0.0164
  394MOL0     C53077   0.481   4.067   3.745  0.3506  0.1175  0.8657
  394MOL0     C53078   0.357   3.972   3.729 -0.4309  0.2650 -0.2637
  394MOL0     O53079   0.393   3.840   3.709 -0.5059  0.1636  0.3120
  394MOL0     C53080   0.328   3.744   3.780 -0.0490 -0.8294 -0.1202
  394MOL0     C53081   0.410   3.643   3.829 -0.4200 -0.3220 -0.6466
  394MOL0     C53082   0.355   3.552   3.925 -0.4532  0.9974  0.5672
  394MOL0     C53083   0.213   3.553   3.956  0.2108  0.4177  0.1702
  394MOL0     C53084   0.164   3.457   4.067  0.6696 -0.0978  0.0035
  394MOL0     O53085   0.244   3.358   4.106 -0.9006 -0.8131  0.3978
  394MOL0     C53086   0.200   3.274   4.205 -1.0635  0.6391 -0.0447
  394MOL0     C53087   0.225   3.305   4.340 -0.0623 -0.4248 -0.1148
  394MOL0     C53088   0.171   3.216   4.439 -0.6889 -0.8062  0.3570
  394MOL0     C53089   0.111   3.097   4.410  0.7902  0.2158 -0.0751
  394MOL0     O53090   0.055   3.006   4.491  0.0709  0.5100  0.5971
  394MOL0     C53091  -0.046   3.051   4.580 -0.0077 -0.1774  0.2530
  394MOL0     C53092  -0.053   2.959   4.695 -1.1283  0.3914  0.6668
  394MOL0     C53093   0.058   2.979   4.799 -0.6590 -0.1580  0.9015
  394MOL0     C53094   0.075   2.856   4.884 -0.4277  0.5220 -0.3397
  394MOL0     C53095   0.180   2.864   5.001 -0.3457 -0.1293 -0.3139
  394MOL0     C53096   0.168   2.752   5.103 -0.0402  0.4124 -0.5399
  394MOL0     C53097   0.281   2.771   5.204 -0.3225  0.3165 -0.0409
  394MOL0     C53098   0.260   2.701   5.338 -0.4240  0.1237  0.2023
  394MOL0    Cl53099   0.138   2.795   5.428 -0.0985  0.1444 -0.1854
  394MOL0     C53100   0.098   3.062   4.271  0.0307  0.9730  0.5332
  394MOL0     C53101   0.142   3.157   4.173  0.9641 -0.9877 -0.3542
  394MOL0     O53102   0.042   3.463   4.091 -0.1388  0.2211  0.2557
  394MOL0     C53103   0.130   3.650   3.895 -0.1194 -0.2493  0.3253
  394MOL0     C53104   0.192   3.747   3.814  0.0519 -0.2159  0.4266
  394MOL0     N53105   0.897   3.951   3.897  0.4821 -0.0806 -0.3815
  394MOL0     N53106   1.013   3.952   3.962  0.4379 -0.0183  0.9186
  394MOL0     C53107   1.465   3.888   4.634  0.1660  0.2564  1.1929
  394MOL0     C53108   1.567   3.792   4.617  0.5243  0.1745 -0.2245
  394MOL0     C53109   2.008   3.666   4.517 -0.7587  0.9691 -0.1581
  394MOL0     C53110   1.967   3.534   4.520 -0.5454 -0.6952 -1.0312
  394MOL0     C53111   2.055   3.427   4.484 -0.3686  0.0470 -0.2250
  394MOL0     C53112   2.184   3.452   4.434 -0.6215 -0.2450  1.0826
  394MOL0     O53113   2.273   3.357   4.387  0.2773 -0.2258  0.1504
  394MOL0     C53114   2.253   3.217   4.417 -0.5265 -0.4176 -0.0465
  394MOL0     C53115   2.157   3.164   4.323  0.0570  0.8172 -0.1334
  394MOL0     C53116   2.221   3.163   4.182 -0.1048  0.9748  0.4164
  394MOL0     C53117   2.230   3.014   4.128 -0.0058 -0.8200  0.1243
  394MOL0     C53118   2.319   2.934   4.209  0.1981  0.3480 -0.6239
  394MOL0     C53119   2.403   2.870   4.266  0.9799  0.6706  1.4709
  394MOL0     C53120   2.219   3.589   4.404  0.9704  0.3594 -0.6894
  394MOL0     C53121   2.134   3.689   4.469 -0.5893 -0.2293  0.7312
  394MOL0     C53122   2.185   3.830   4.468 -0.0472  1.0386  0.3812
  394MOL0     H53123   1.794   3.999   4.471 -0.8670  2.4872  0.1846
  394MOL0     H53124   1.603   4.168   4.504 -2.2735 -0.2232 -2.5641
  394MOL0     H53125   1.260   4.032   4.768 -1.2148  1.1613  1.9834
  394MOL0     H53126   1.381   4.159   4.818  0.0278  2.7788 -1.9488
  394MOL0     H53127   1.261   4.325   4.745  1.2344 -0.1380 -2.9758
  394MOL0     H53128   1.132   4.223   4.824 -0.2298 -2.3635 -1.3104
  394MOL0     H53129   1.169   4.219   4.519 -1.0929  0.5206 -0.3611
  394MOL0     H53130   1.029   4.279   4.608 -0.7917 -0.1349 -0.7790
  394MOL0     H53131   1.137   3.999   4.587 -0.8547  0.2020 -1.8633
  394MOL0     H53132   1.006   4.039   4.701  3.4658  1.3323  3.0644
  394MOL0     H53133   0.879   3.967   4.510  1.2049 -1.1196  0.0532
  394MOL0     H53134   0.867   4.135   4.492 -0.9460  0.1305 -0.1040
  394MOL0     H53135   1.051   3.940   4.351 -2.1116 -2.4313 -3.5039
  394MOL0     H53136   0.907   4.011   4.285  0.0144 -2.0475  1.0291
  394MOL0     H53137   1.169   4.158   4.328  0.0212  3.5255 -0.9436
  394MOL0     H53138   1.025   4.227   4.256 -0.6940 -1.6978 -3.7091
  394MOL0     H53139   1.171   4.181   4.094 -2.7851  1.3270  0.4617
  394MOL0     H53140   1.188   4.010   4.137  0.9614  0.9865  1.8276
  394MOL0     H53141   0.870   4.225   4.072  2.2349 -0.3223  1.9299
  394MOL0     H53142   0.648   4.142   3.975  0.8557 -0.9045  0.6160
  394MOL0     H53143   0.696   4.176   3.799 -1.3432  1.6109  0.2641
  394MOL0     H53144   0.658   3.939   3.764  2.3183  1.7257 -0.3053
  394MOL0     H53145   0.555   3.933   3.904 -1.8562 -0.3862 -0.6303
  394MOL0     H53146   0.514   4.093   3.644 -1.4895  1.6520  0.6044
  394MOL0     H53147   0.448   4.156   3.799  0.6176 -0.0450  1.2963
  394MOL0     H53148   0.296   4.005   3.644 -2.5756  0.2037  1.1758
  394MOL0     H53149   0.293   3.997   3.815 -1.2955  1.3621 -1.1908
  394MOL0     H53150   0.517   3.634   3.814 -0.2375  0.6649  0.0273
  394MOL0     H53151   0.418   3.488   3.984 -1.1876  1.3981  1.8302
  394MOL0     H53152   0.286   3.395   4.347 -1.5363  0.4909  2.2573
  394MOL0     H53153   0.195   3.250   4.539  0.6799 -1.7959  0.3833
  394MOL0     H53154  -0.031   3.149   4.626 -2.1280 -0.3745  1.4905
  394MOL0     H53155  -0.137   3.056   4.520  1.4009  0.6503 -1.8983
  394MOL0     H53156  -0.145   2.983   4.749 -0.1522 -0.6626  2.9333
  394MOL0     H53157  -0.049   2.855   4.661  2.5572  0.1492  1.4251
  394MOL0     H53158   0.156   3.004   4.756  1.1685 -3.8117  2.4502
  394MOL0     H53159   0.032   3.059   4.868  0.6508 -0.0341  1.2889
  394MOL0     H53160   0.096   2.772   4.817  0.9878  0.9400 -0.4548
  394MOL0     H53161  -0.017   2.827   4.935 -0.3888 -3.1415 -1.9870
  394MOL0     H53162   0.165   2.961   5.050 -1.5818 -0.7138  0.5059
  394MOL0     H53163   0.276   2.860   4.948 -0.0326  0.9698  0.1284
  394MOL0     H53164   0.073   2.764   5.156  1.3953  0.9484  2.0765
  394MOL0     H53165   0.169   2.652   5.057 -0.7727  0.1435  0.0087
  394MOL0     H53166   0.301   2.874   5.234  1.1803  0.4556 -1.4037
  394MOL0     H53167   0.373   2.730   5.162 -1.2318 -0.9952 -0.8074
  394MOL0     H53168   0.221   2.599   5.334 -0.1039 -0.1279  2.3652
  394MOL0     H53169   0.353   2.676   5.389  1.2617 -1.4998 -3.2918
  394MOL0     H53170   0.042   2.970   4.255 -0.9774  1.4398  1.2233
  394MOL0     H53171   0.114   3.157   4.069 -2.1025  3.1575  0.2448
  394MOL0     H53172   0.027   3.662   3.929  0.3699  0.9132  1.4768
  394MOL0     H53173   0.136   3.830   3.773  2.6477 -0.2228 -3.7084
  394MOL0     H53174   1.368   3.868   4.678 -0.7518  0.3457 -0.6792
  394MOL0     H53175   1.562   3.689   4.652  1.8183 -0.4445 -1.7587
  394MOL0     H53176   1.867   3.505   4.553 -0.5011 -0.8972 -1.0732
  394MOL0     H53177   2.017   3.326   4.500  0.4461 -0.0894  0.9232
  394MOL0     H53178   2.215   3.194   4.517 -1.6368 -0.0762 -0.3748
  394MOL0     H53179   2.350   3.166   4.415 -1.0310 -1.4033 -0.0137
  394MOL0     H53180   2.063   3.220   4.333 -0.9580 -1.0641  1.9299
  394MOL0     H53181   2.126   3.066   4.361 -4.4121  1.3552 -1.8309
  394MOL0     H53182   2.322   3.205   4.193 -0.2464  0.8011  2.9851
  394MOL0     H53183   2.155   3.212   4.109 -0.7405 -2.5422 -1.5879
  394MOL0     H53184   2.135   2.960   4.126  0.3595 -1.5960 -3.0992
  394MOL0     H53185   2.273   3.011   4.027 -0.8347  2.3105 -0.4177
  394MOL0     H53186   2.473   2.808   4.318  0.5753  1.0057  2.4483
  394MOL0     H53187   2.320   3.611   4.369  0.4085 -0.7059 -3.1817
  394MOL0     H53188   2.130   3.896   4.400 -0.7974 -1.6828 -1.8547
  394MOL0     H53189   2.177   3.865   4.571  3.1543 -1.9017  1.8391
  394MOL0     H53190   2.291   3.829   4.439  0.5215 -3.4407  1.8012
  395MOL0     O53191   5.281   3.675   2.446 -0.3814 -0.2611 -0.8360
  395MOL0     C53192   5.181   3.749   2.430  0.5597  0.2885  0.0666
  395MOL0     O53193   5.188   3.855   2.347 -0.0065  0.0258  0.0303
  395MOL0     C53194   5.304   3.921   2.321  0.2302 -0.1662  0.1516
  395MOL0     C53195   5.300   4.015   2.212 -0.6355  0.1829 -0.1023
  395MOL0     C53196   5.402   4.108   2.183  0.3699  1.0746 -0.9152
  395MOL0     C53197   5.515   4.110   2.266 -0.5723 -0.1783 -0.0077
  395MOL0     O53198   5.607   4.217   2.241 -0.4131  0.4643 -0.1839
  395MOL0     C53199   5.728   4.219   2.331  0.2200  0.0831 -0.2109
  395MOL0     C53200   5.817   4.343   2.316  0.2838 -0.0726 -1.0152
  395MOL0     C53201   5.736   4.467   2.361 -0.6771  0.1184  0.4751
  395MOL0     C53202   5.837   4.592   2.368  1.2717  0.0075  0.1819
  395MOL0     C53203   5.804   4.701   2.452 -0.0838 -0.1051 -0.9853
  395MOL0     C53204   5.912   4.804   2.424 -0.3404 -0.1639  0.2101
  395MOL0     C53205   5.887   4.938   2.492 -0.2666 -0.1532 -0.4689
  395MOL0     C53206   5.870   4.930   2.649  0.1686 -0.0246  0.6138
  395MOL0     N53207   5.982   4.873   2.717 -0.0218 -0.2452 -0.7691
  395MOL0     C53208   6.112   4.909   2.688  0.1287 -0.3306  0.6135
  395MOL0     C53209   6.193   4.821   2.753 -0.0289 -0.3437  0.0173
  395MOL0     C53210   6.333   4.813   2.728  0.7064 -0.0526  0.1419
  395MOL0     C53211   6.405   4.767   2.852 -0.1819  0.4665  0.5171
  395MOL0     C53212   6.554   4.751   2.844 -0.6860  0.0860  0.5110
  395MOL0     C53213   6.619   4.708   2.972 -0.1712  0.1155 -0.1375
  395MOL0     O53214   6.755   4.670   2.937 -0.0730  0.3975  0.1900
  395MOL0     C53215   6.837   4.649   3.046 -0.7647  0.4153  0.8693
  395MOL0     C53216   6.967   4.603   3.012  0.5581  0.3027  0.3683
  395MOL0     C53217   7.070   4.597   3.104  0.8312 -0.4302  0.2791
  395MOL0     C53218   7.033   4.619   3.240 -0.0994  0.4936 -0.0866
  395MOL0     C53219   7.137   4.616   3.341  0.5971 -0.6016  0.4117
  395MOL0     O53220   7.246   4.540   3.324  0.8625 -0.3909 -0.0980
  395MOL0     C53221   7.339   4.534   3.425 -0.5830  0.2878 -0.2174
  395MOL0     C53222   7.471   4.524   3.384  1.3313 -0.2210  0.0206
  395MOL0     C53223   7.577   4.498   3.470 -0.0975  0.3273  0.0047
  395MOL0     C53224   7.551   4.514   3.606  0.0211  0.1651  0.4999
  395MOL0     O53225   7.658   4.511   3.689  0.3625 -0.0823  0.3617
  395MOL0     C53226   7.669   4.596   3.806  0.0039 -1.5701 -1.2437
  395MOL0     C53227   7.638   4.745   3.767  0.9686  0.0267  0.0589
  395MOL0     C53228   7.704   4.802   3.640 -0.2317 -0.2468  0.5952
  395MOL0     C53229   7.843   4.757   3.617  0.9324  1.4825  0.6115
  395MOL0     C53230   7.938   4.828   3.717 -0.2087  0.3342  0.1498
  395MOL0     C53231   7.938   4.981   3.707 -0.5797 -1.0700  0.8856
  395MOL0     C53232   7.845   5.062   3.816 -1.0539  0.7845  0.2337
  395MOL0     C53233   7.899   5.196   3.857 -0.8132 -1.2263  0.2223
  395MOL0    Cl53234   7.920   5.305   3.715 -0.3061  0.1749  0.1059
  395MOL0     C53235   7.415   4.516   3.651  0.4073  0.4756 -1.1801
  395MOL0     C53236   7.309   4.525   3.559  0.4449  0.5622 -0.5802
  395MOL0     O53237   7.116   4.684   3.438  0.1059  0.3440 -1.0007
  395MOL0     C53238   6.898   4.643   3.280 -0.2391  1.1699  1.2641
  395MOL0     C53239   6.798   4.643   3.179  0.4530 -0.6685 -0.7284
  395MOL0     N53240   6.107   4.741   2.827  0.3691  0.2112  0.5584
  395MOL0     N53241   5.977   4.772   2.808  0.4207  0.1663  0.9962
  395MOL0     C53242   5.528   4.011   2.370 -0.3520  0.8589  0.3593
  395MOL0     C53243   5.425   3.922   2.394 -0.1650  0.7014 -0.4253
  395MOL0     C53244   5.053   3.724   2.498  0.4365 -0.3348  0.3206
  395MOL0     C53245   4.945   3.824   2.497 -0.1356 -0.5629 -0.4730
  395MOL0     C53246   4.817   3.794   2.545 -0.4173 -0.2007 -0.0993
  395MOL0     C53247   4.787   3.659   2.583  0.6419  0.1790 -0.6365
  395MOL0     O53248   4.670   3.635   2.649 -0.1473  0.2239  0.6857
  395MOL0     C53249   4.560   3.591   2.570  1.0671  0.2981  0.5993
  395MOL0     C53250   4.571   3.446   2.556  0.6660 -0.2689 -1.4028
  395MOL0     C53251   4.445   3.376   2.512 -0.5024 -0.2180 -0.4476
  395MOL0     C53252   4.460   3.227   2.477 -0.0714  0.1797  0.8114
  395MOL0     C53253   4.333   3.170   2.428  0.7405 -0.1902  0.3271
  395MOL0     C53254   4.225   3.139   2.381 -0.1638  0.3518 -0.5067
  395MOL0     C53255   4.891   3.567   2.591 -0.2295 -0.7211  0.6389
  395MOL0     C53256   5.023   3.595   2.551 -0.4305 -1.7977 -0.2787
  395MOL0     C53257   5.119   3.481   2.560  0.0824  0.0760  0.1556
  395MOL0     H53258   5.207   4.041   2.163 -1.1512  0.5383  1.0249
  395MOL0     H53259   5.383   4.173   2.099 -0.6935 -1.7833 -3.0441
  395MOL0     H53260   5.706   4.216   2.438  0.9636  0.4019 -0.0424
  395MOL0     H53261   5.785   4.127   2.317  1.1534  0.0976  2.8329
  395MOL0     H53262   5.879   4.361   2.227  1.0458  1.6076 -0.2010
  395MOL0     H53263   5.893   4.323   2.391 -0.6260 -3.0911 -0.7737
  395MOL0     H53264   5.702   4.437   2.461 -0.5114 -1.8952 -0.0163
  395MOL0     H53265   5.661   4.480   2.283  1.6782 -1.7701 -2.3422
  395MOL0     H53266   5.935   4.558   2.405  1.5462  1.4124  0.8040
  395MOL0     H53267   5.857   4.629   2.267  2.4172  2.7243  1.3082
  395MOL0     H53268   5.705   4.736   2.422 -0.1457 -0.0518 -0.7231
  395MOL0     H53269   5.795   4.669   2.556  3.5958  0.4671 -0.3511
  395MOL0     H53270   6.002   4.767   2.475  0.4464 -0.2144 -1.1626
  395MOL0     H53271   5.934   4.825   2.319  0.9155  0.4728  0.5795
  395MOL0     H53272   5.803   4.993   2.449  1.4054  1.3280 -2.0568
  395MOL0     H53273   5.966   5.012   2.478 -1.5281  1.4814  0.6861
  395MOL0     H53274   5.850   5.036   2.669  0.4329  0.2632 -0.5304
  395MOL0     H53275   5.774   4.887   2.680 -1.3725  1.2274 -2.0282
  395MOL0     H53276   6.146   4.992   2.628 -1.5647  0.1119  0.2109
  395MOL0     H53277   6.353   4.745   2.644  1.0166 -0.5339  0.6023
  395MOL0     H53278   6.373   4.910   2.694  1.3223 -1.0664 -2.3049
  395MOL0     H53279   6.384   4.842   2.929  2.2302 -0.2878  2.0453
  395MOL0     H53280   6.352   4.678   2.887 -2.2542  0.2411 -2.7661
  395MOL0     H53281   6.596   4.840   2.795 -2.1736 -0.1355 -1.2835
  395MOL0     H53282   6.574   4.675   2.768  0.3274 -1.6157  2.3798
  395MOL0     H53283   6.560   4.633   3.025  0.3399  0.6138  1.1700
  395MOL0     H53284   6.622   4.794   3.039 -0.5892  0.3190 -0.3760
  395MOL0     H53285   6.982   4.583   2.906  0.2781  0.8662  0.2197
  395MOL0     H53286   7.165   4.560   3.068  0.2423 -0.2744 -1.5002
  395MOL0     H53287   7.476   4.528   3.276 -1.5913 -1.0729 -0.2400
  395MOL0     H53288   7.680   4.478   3.441 -1.1399 -1.9477 -2.5946
  395MOL0     H53289   7.592   4.555   3.873  1.5858 -0.2270  1.5952
  395MOL0     H53290   7.772   4.586   3.842 -0.7170 -0.9398  1.2256
  395MOL0     H53291   7.532   4.742   3.741  0.3069  3.0025  1.9103
  395MOL0     H53292   7.649   4.806   3.857  1.0485 -1.6305  1.2272
  395MOL0     H53293   7.639   4.768   3.559 -0.7811  1.8519  0.0949
  395MOL0     H53294   7.698   4.910   3.649 -0.4160 -0.0620 -1.4282
  395MOL0     H53295   7.869   4.787   3.515  2.1398  0.9833  0.7548
  395MOL0     H53296   7.843   4.647   3.625 -0.8760  1.3449 -0.7089
  395MOL0     H53297   8.041   4.793   3.708 -0.3592 -0.2374  0.5687
  395MOL0     H53298   7.895   4.787   3.809  0.6007 -3.8881 -1.0985
  395MOL0     H53299   8.041   5.020   3.705 -0.1235 -2.2707 -1.3570
  395MOL0     H53300   7.905   5.009   3.607 -0.0723 -3.2549  0.0561
  395MOL0     H53301   7.820   5.005   3.906 -0.8061 -0.6827 -0.6018
  395MOL0     H53302   7.743   5.076   3.778 -1.3468 -1.1932  0.2074
  395MOL0     H53303   7.833   5.249   3.927 -1.3832  0.3191 -1.4102
  395MOL0     H53304   7.991   5.183   3.914 -0.4644  1.6367  0.4442
  395MOL0     H53305   7.394   4.514   3.757  2.2923 -3.3959 -0.7054
  395MOL0     H53306   7.209   4.535   3.601  1.2772  2.7989  1.0674
  395MOL0     H53307   6.875   4.654   3.386  1.7798 -2.2902  2.2196
  395MOL0     H53308   6.694   4.657   3.205  0.6180 -1.0696  0.2028
  395MOL0     H53309   5.623   4.002   2.422  1.0374 -0.5590 -2.2227
  395MOL0     H53310   5.434   3.847   2.471  1.5464 -0.0186 -1.2844
  395MOL0     H53311   4.967   3.924   2.459  0.2082  0.1086  1.4097
  395MOL0     H53312   4.744   3.873   2.534 -0.2376  0.0567  0.5405
  395MOL0     H53313   4.559   3.629   2.468 -0.5545 -0.0132  0.4693
  395MOL0     H53314   4.461   3.604   2.615 -0.2238 -0.5217 -1.8678
  395MOL0     H53315   4.595   3.409   2.657 -1.1105  0.9679 -0.4651
  395MOL0     H53316   4.645   3.418   2.481 -0.5989  1.4235 -3.3844
  395MOL0     H53317   4.418   3.421   2.416  1.5634 -1.1682 -1.5326
  395MOL0     H53318   4.369   3.390   2.589  0.8011  0.0271  0.8361
  395MOL0     H53319   4.541   3.211   2.404  1.4665 -2.2366  2.9003
  395MOL0     H53320   4.489   3.175   2.568  2.2855  1.0679  0.6510
  395MOL0     H53321   4.124   3.117   2.353 -0.9684 -0.5695  2.6947
  395MOL0     H53322   4.859   3.471   2.629 -2.4138 -1.3024 -2.3089
  395MOL0     H53323   5.164   3.463   2.461 -0.0717 -0.0321  0.1050
  395MOL0     H53324   5.202   3.506   2.627  1.5063 -0.7835 -1.2059
  395MOL0     H53325   5.072   3.388   2.593  0.1235 -0.4428 -1.1906
  396MOL0     O53326  10.661   6.938   7.709  1.0407  0.1148 -0.2754
  396MOL0     C53327  10.538   6.943   7.738  0.0048  0.8062 -0.9174
  396MOL0     O53328  10.451   6.833   7.756 -0.2038 -0.2579  0.2638
  396MOL0     C53329  10.323   6.842   7.720  1.3593 -0.5133  0.3442
  396MOL0     C53330  10.228   6.826   7.819  0.7282  0.1388 -0.8425
  396MOL0     C53331  10.088   6.824   7.788  0.1332  1.1977 -0.1796
  396MOL0     C53332  10.044   6.847   7.653  0.1914 -0.5712  0.1354
  396MOL0     O53333   9.909   6.856   7.621  0.1568 -0.4869 -0.3342
  396MOL0     C53334   9.869   6.777   7.505  0.1221  0.5572  0.3030
  396MOL0     C53335   9.710   6.775   7.505  0.0559  0.3040  0.5590
  396MOL0     C53336   9.663   6.679   7.616  0.3224 -0.1714  0.3395
  396MOL0     C53337   9.508   6.662   7.612 -0.7822 -0.2940  0.2877
  396MOL0     C53338   9.465   6.570   7.734  0.7059  0.1724 -0.0881
  396MOL0     C53339   9.534   6.437   7.738 -0.2554  0.5888 -0.1354
  396MOL0     C53340   9.460   6.361   7.857 -0.0257 -0.5039 -0.4705
  396MOL0     C53341   9.521   6.225   7.879  0.2587  0.2664 -0.1038
  396MOL0     N53342   9.462   6.157   7.990  0.0469 -0.1501  0.2639
  396MOL0     C53343   9.520   6.099   8.095  0.1687 -0.2357  0.1153
  396MOL0     C53344   9.421   6.042   8.173 -0.2261 -0.0598  0.0596
  396MOL0     C53345   9.434   5.970   8.303  0.2425 -0.1850 -0.0374
  396MOL0     C53346   9.327   5.864   8.325  0.3059  0.0196  0.0848
  396MOL0     C53347   9.336   5.760   8.442 -0.4005  1.1052  0.2467
  396MOL0     C53348   9.345   5.828   8.577  0.9755 -0.2711 -0.3649
  396MOL0     O53349   9.459   5.909   8.607 -0.1636 -1.4383 -0.2088
  396MOL0     C53350   9.584   5.842   8.595  0.5120 -0.0367  0.5105
  396MOL0     C53351   9.691   5.908   8.536 -0.2127  0.2439 -0.1198
  396MOL0     C53352   9.820   5.850   8.538 -0.2192 -1.0894  0.9482
  396MOL0     C53353   9.838   5.720   8.588 -0.4984 -0.0110  0.8263
  396MOL0     C53354   9.978   5.673   8.607 -0.5963  0.1387 -0.1443
  396MOL0     O53355  10.082   5.766   8.579  0.5408  0.3609 -1.2466
  396MOL0     C53356  10.210   5.724   8.609 -0.5320 -0.5736 -0.6358
  396MOL0     C53357  10.277   5.766   8.723 -0.6634  0.6386  0.4019
  396MOL0     C53358  10.412   5.718   8.756  0.0701 -0.4091  0.6051
  396MOL0     C53359  10.472   5.631   8.666  0.2091  0.6311 -0.4178
  396MOL0     O53360  10.596   5.572   8.693  0.1626 -0.9777 -0.3641
  396MOL0     C53361  10.619   5.435   8.645  0.1481 -0.3991 -0.6392
  396MOL0     C53362  10.755   5.403   8.710 -0.6214 -1.0467  0.0776
  396MOL0     C53363  10.867   5.501   8.690  0.5504 -0.1157 -0.1583
  396MOL0     C53364  11.003   5.434   8.684 -0.2432  0.7458 -0.1591
  396MOL0     C53365  11.059   5.386   8.824 -0.6260  0.4399  0.2528
  396MOL0     C53366  11.188   5.308   8.812 -1.2574  0.1774 -0.2809
  396MOL0     C53367  11.173   5.169   8.766 -0.6307 -0.2093 -0.2729
  396MOL0     C53368  11.301   5.094   8.761  0.0153  0.5031  0.9269
  396MOL0    Cl53369  11.426   5.178   8.669 -0.5985  0.5129 -0.0754
  396MOL0     C53370  10.392   5.595   8.556 -0.6813 -1.0439  0.1616
  396MOL0     C53371  10.271   5.635   8.529 -0.6280 -0.8101 -0.0940
  396MOL0     O53372   9.997   5.560   8.654 -0.1172 -0.7329  0.1217
  396MOL0     C53373   9.724   5.654   8.645  1.1976  0.8384 -0.6155
  396MOL0     C53374   9.596   5.711   8.642 -0.0290  0.2007  0.2439
  396MOL0     N53375   9.299   6.077   8.110  0.0025 -0.4892 -1.1657
  396MOL0     N53376   9.323   6.140   8.003  0.1339 -0.0686 -0.2120
  396MOL0     C53377  10.140   6.876   7.559 -1.0250  0.3441  0.8444
  396MOL0     C53378  10.273   6.874   7.587 -0.0256  0.0853 -0.8980
  396MOL0     C53379  10.478   7.080   7.747  0.6231 -0.8292  0.5264
  396MOL0     C53380  10.399   7.112   7.853  0.5393  0.3043 -0.3085
  396MOL0     C53381  10.335   7.236   7.867  0.5710 -0.4004  0.4900
  396MOL0     C53382  10.349   7.330   7.760 -0.9177 -1.1122  0.7462
  396MOL0     O53383  10.290   7.461   7.761 -0.6353 -0.1516 -0.1786
  396MOL0     C53384  10.165   7.483   7.701  0.4839  0.2660  0.3639
  396MOL0     C53385  10.048   7.452   7.781  0.0725 -0.2739  0.1112
  396MOL0     C53386   9.928   7.523   7.734  0.6053 -0.0263  0.4329
  396MOL0     C53387   9.807   7.521   7.829  0.2561 -0.0637 -0.4523
  396MOL0     C53388   9.675   7.561   7.774 -0.1962  0.0547 -0.2864
  396MOL0     C53389   9.582   7.599   7.707 -0.9637 -0.1425 -0.5187
  396MOL0     C53390  10.433   7.310   7.656 -0.1816 -0.0174 -0.3178
  396MOL0     C53391  10.498   7.183   7.645  0.1542  0.5213 -0.5294
  396MOL0     C53392  10.602   7.149   7.530  0.3498 -0.2578 -0.7392
  396MOL0     H53393  10.259   6.810   7.922  0.7841  3.3484 -0.2637
  396MOL0     H53394  10.007   6.824   7.861  0.3162 -0.0221  0.0425
  396MOL0     H53395   9.883   6.834   7.413 -1.5515 -0.8578 -0.8830
  396MOL0     H53396   9.921   6.681   7.507  2.0443  1.5498  0.4112
  396MOL0     H53397   9.680   6.741   7.406 -1.6027  0.1735  1.0626
  396MOL0     H53398   9.680   6.878   7.528  1.8569  0.6617  1.4928
  396MOL0     H53399   9.696   6.718   7.713 -1.2880 -0.6301  1.1005
  396MOL0     H53400   9.710   6.581   7.599 -1.1255 -0.5281 -2.1006
  396MOL0     H53401   9.460   6.761   7.612  0.1065  0.1676  1.3494
  396MOL0     H53402   9.473   6.616   7.520 -0.4785 -0.5163  0.2795
  396MOL0     H53403   9.482   6.621   7.830 -0.6277 -0.3978  0.4772
  396MOL0     H53404   9.356   6.562   7.738  0.7345  0.1875  1.7642
  396MOL0     H53405   9.528   6.373   7.650 -0.1370 -2.6099  1.9767
  396MOL0     H53406   9.636   6.447   7.777 -0.6396 -2.0252  1.8048
  396MOL0     H53407   9.353   6.353   7.837 -0.8899 -0.5825  3.3642
  396MOL0     H53408   9.483   6.412   7.951 -1.3822 -0.5787 -0.0798
  396MOL0     H53409   9.519   6.165   7.787  2.5787  0.3727 -0.2658
  396MOL0     H53410   9.622   6.240   7.917 -0.3827 -0.1013  1.8361
  396MOL0     H53411   9.627   6.093   8.114 -0.2755 -0.1760  3.1419
  396MOL0     H53412   9.531   5.918   8.309  0.4249  0.2495  0.9064
  396MOL0     H53413   9.428   6.043   8.383 -3.4243 -0.2009 -0.1486
  396MOL0     H53414   9.229   5.912   8.330 -0.0651  0.0180 -4.0060
  396MOL0     H53415   9.304   5.799   8.240 -4.1820  2.8520 -1.2221
  396MOL0     H53416   9.424   5.696   8.431 -1.6165 -0.9727  1.8996
  396MOL0     H53417   9.256   5.686   8.434  1.4538 -1.0775  1.0526
  396MOL0     H53418   9.340   5.751   8.654  2.2432  1.5605  1.6484
  396MOL0     H53419   9.264   5.899   8.595  2.3049  1.5290 -1.1630
  396MOL0     H53420   9.672   6.007   8.497 -0.4631  0.1575 -0.2252
  396MOL0     H53421   9.897   5.913   8.495 -0.3739  0.6159  2.9671
  396MOL0     H53422  10.228   5.827   8.799 -3.7998  0.6652 -1.4765
  396MOL0     H53423  10.458   5.721   8.854 -1.6197  0.0889  1.4347
  396MOL0     H53424  10.543   5.362   8.672 -2.5381  1.5394 -2.3888
  396MOL0     H53425  10.626   5.431   8.536 -1.7014  2.1414 -0.9456
  396MOL0     H53426  10.740   5.381   8.816 -0.6132  1.5974  0.7012
  396MOL0     H53427  10.791   5.309   8.667  0.9969 -0.6072  0.4130
  396MOL0     H53428  10.855   5.561   8.599  1.5223 -0.3119 -0.4263
  396MOL0     H53429  10.852   5.579   8.765 -2.6928  0.4122 -1.2197
  396MOL0     H53430  11.080   5.487   8.627  4.7932 -3.0109  2.3304
  396MOL0     H53431  10.990   5.351   8.613 -1.9299 -0.7604  1.7763
  396MOL0     H53432  10.993   5.319   8.879  1.1323 -0.9256  0.7973
  396MOL0     H53433  11.071   5.475   8.886 -1.8965  2.5028 -2.2479
  396MOL0     H53434  11.253   5.373   8.752 -0.8593 -1.5658 -1.8291
  396MOL0     H53435  11.228   5.291   8.913 -3.2363 -2.5062  0.1576
  396MOL0     H53436  11.112   5.163   8.676 -1.2598  3.1214 -0.1937
  396MOL0     H53437  11.112   5.112   8.837  2.0310 -1.8442  0.8854
  396MOL0     H53438  11.339   5.094   8.864  0.3590 -0.8102  0.8190
  396MOL0     H53439  11.293   4.989   8.731  0.5022 -0.0974  2.7639
  396MOL0     H53440  10.420   5.518   8.485 -2.8929 -2.1921  0.4409
  396MOL0     H53441  10.226   5.597   8.438  1.0626 -3.0187 -0.1007
  396MOL0     H53442   9.731   5.558   8.695  1.6797  1.3530  0.3320
  396MOL0     H53443   9.512   5.650   8.673 -1.3239 -0.7557 -4.3924
  396MOL0     H53444  10.118   6.903   7.456  1.5113 -1.3887 -0.2484
  396MOL0     H53445  10.348   6.895   7.512  2.1997  1.9062  1.6374
  396MOL0     H53446  10.375   7.045   7.935  1.7062 -1.4401 -1.3173
  396MOL0     H53447  10.268   7.257   7.950 -1.1523 -2.3320 -0.3196
  396MOL0     H53448  10.174   7.419   7.613 -0.2600  0.2676  0.2811
  396MOL0     H53449  10.160   7.589   7.673  0.0537  0.1497 -0.0105
  396MOL0     H53450  10.081   7.475   7.882  1.2390  2.7535 -0.8683
  396MOL0     H53451  10.025   7.345   7.773 -4.0855  0.2310  2.3639
  396MOL0     H53452   9.905   7.492   7.632  0.2951 -0.0276  0.5027
  396MOL0     H53453   9.960   7.627   7.743 -1.7620  0.6453  2.0295
  396MOL0     H53454   9.798   7.421   7.874  0.5861  0.2878  0.4141
  396MOL0     H53455   9.838   7.584   7.913  2.3612  1.4392 -2.2437
  396MOL0     H53456   9.498   7.646   7.659 -1.1705  0.0247  0.0011
  396MOL0     H53457  10.442   7.392   7.586  2.5678  2.4271  2.6224
  396MOL0     H53458  10.584   7.050   7.488 -3.3192  0.8154 -2.0146
  396MOL0     H53459  10.594   7.221   7.448 -2.2120  1.2628  0.6919
  396MOL0     H53460  10.707   7.142   7.562  0.4900 -0.9050 -1.3157
  397MOL0     O53461   7.812   9.707   2.398 -0.2760  0.2975 -0.0841
  397MOL0     C53462   7.819   9.625   2.487  0.1287  0.1655 -0.5125
  397MOL0     O53463   7.921   9.547   2.522  0.2284 -0.1244  0.5003
  397MOL0     C53464   8.018   9.492   2.440  0.9405  0.8445 -0.3603
  397MOL0     C53465   8.026   9.512   2.305  0.0443  0.4806  0.4984
  397MOL0     C53466   8.140   9.469   2.233 -0.1873  0.2045 -0.5685
  397MOL0     C53467   8.249   9.395   2.293  0.5611 -0.2067  0.5286
  397MOL0     O53468   8.365   9.354   2.219  0.1778 -0.0343 -0.0456
  397MOL0     C53469   8.478   9.294   2.290 -0.6291 -0.0910  0.3331
  397MOL0     C53470   8.588   9.243   2.193 -0.2971 -0.2382  0.4533
  397MOL0     C53471   8.688   9.345   2.146 -0.1901  0.3834 -0.9807
  397MOL0     C53472   8.788   9.396   2.260 -0.5145  0.1032  0.3684
  397MOL0     C53473   8.910   9.459   2.198  0.3687  0.5362 -1.1273
  397MOL0     C53474   8.964   9.551   2.308 -0.0420  0.2531  0.0332
  397MOL0     C53475   8.884   9.678   2.355  0.0551  0.2456  0.0146
  397MOL0     C53476   8.958   9.762   2.453 -0.5831  0.1251  0.4345
  397MOL0     N53477   8.911   9.899   2.451 -0.3343 -0.0877 -0.0303
  397MOL0     C53478   8.932   9.992   2.552  0.3503  0.1626  1.1539
  397MOL0     C53479   8.848  10.092   2.524 -0.0140 -1.8006 -0.3016
  397MOL0     C53480   8.806  10.218   2.593 -0.0373 -0.7778 -0.1577
  397MOL0     C53481   8.930  10.307   2.631  0.8685  0.4796 -0.0507
  397MOL0     C53482   8.903  10.463   2.667  0.5132 -0.6068  0.2894
  397MOL0     C53483   9.038  10.532   2.681 -0.0037 -0.6246 -0.3911
  397MOL0     O53484   9.108  10.500   2.800 -0.5810  0.4314 -0.1285
  397MOL0     C53485   9.222  10.569   2.835 -0.0025  0.2017 -0.5718
  397MOL0     C53486   9.275  10.560   2.963  0.6484 -0.2946 -0.2486
  397MOL0     C53487   9.396  10.620   2.999 -0.1661 -0.7157  0.6119
  397MOL0     C53488   9.461  10.709   2.912  0.1267  0.1465 -0.0381
  397MOL0     C53489   9.572  10.796   2.953  0.7503 -1.0187 -0.2171
  397MOL0     O53490   9.600  10.884   2.862  0.2854 -0.9106  0.4259
  397MOL0     C53491   9.703  10.980   2.893  0.6141 -0.0173 -0.5492
  397MOL0     C53492   9.687  11.082   2.990 -0.3472  0.3936  0.2786
  397MOL0     C53493   9.788  11.181   3.005 -0.0238  0.4780 -0.0516
  397MOL0     C53494   9.910  11.162   2.942 -0.8998 -0.2671 -0.7284
  397MOL0     O53495  10.015  11.247   2.970  0.5005  0.1463  0.4733
  397MOL0     C53496  10.123  11.267   2.881  0.0006  0.2310  0.2503
  397MOL0     C53497  10.077  11.363   2.772  0.0316  0.2907  0.3262
  397MOL0     C53498  10.191  11.355   2.667  0.4315 -0.7498 -0.7697
  397MOL0     C53499  10.176  11.446   2.551  0.2310 -1.0002 -0.0324
  397MOL0     C53500  10.202  11.593   2.594  0.0777  1.6947 -0.4326
  397MOL0     C53501  10.161  11.692   2.490  0.9742  0.9053  0.5987
  397MOL0     C53502  10.221  11.834   2.525 -0.3176 -0.1480  0.4412
  397MOL0     C53503  10.156  11.953   2.448 -0.3773 -0.3713  0.8356
  397MOL0    Cl53504  10.190  11.946   2.261 -0.0440 -0.2759 -0.3460
  397MOL0     C53505   9.928  11.055   2.852  0.1831  0.1987  0.4404
  397MOL0     C53506   9.819  10.964   2.829 -0.0917 -0.3342 -0.1410
  397MOL0     O53507   9.629  10.783   3.061 -0.1932 -0.5568  0.0152
  397MOL0     C53508   9.406  10.724   2.786  0.2455 -0.2831  0.4861
  397MOL0     C53509   9.286  10.654   2.751  0.4382  0.1323 -0.5637
  397MOL0     N53510   8.796  10.067   2.403 -0.8390 -0.7877  0.6017
  397MOL0     N53511   8.848   9.963   2.347  0.4206 -0.0617  0.0215
  397MOL0     C53512   8.239   9.378   2.433 -0.1947  0.6991  0.3733
  397MOL0     C53513   8.132   9.433   2.503  0.3477 -0.8931  0.0508
  397MOL0     C53514   7.710   9.615   2.576  1.1581  0.8161  0.5433
  397MOL0     C53515   7.609   9.707   2.571 -0.3082 -0.6894  1.2090
  397MOL0     C53516   7.489   9.710   2.643 -0.5215 -0.7770 -0.9172
  397MOL0     C53517   7.469   9.607   2.733 -0.3863  0.2964  0.3310
  397MOL0     O53518   7.356   9.579   2.815  0.0531  0.1789  0.1439
  397MOL0     C53519   7.251   9.680   2.800 -0.4895  0.4938 -0.2355
  397MOL0     C53520   7.119   9.616   2.842 -1.2243 -0.1219 -0.8533
  397MOL0     C53521   7.127   9.600   2.996 -0.1926 -0.2925 -0.4301
  397MOL0     C53522   6.990   9.561   3.058 -0.3800 -0.4919 -0.1408
  397MOL0     C53523   6.944   9.441   3.010 -0.1020  0.8338 -0.1270
  397MOL0     C53524   6.901   9.330   2.972 -0.6780  0.6023  0.0774
  397MOL0     C53525   7.564   9.509   2.750  0.2924  0.3128  0.5503
  397MOL0     C53526   7.690   9.513   2.675 -0.9550 -0.1606 -0.4387
  397MOL0     C53527   7.790   9.411   2.724  0.0459  0.6181  0.3499
  397MOL0     H53528   7.947   9.577   2.269 -0.1187  1.9088  3.1766
  397MOL0     H53529   8.140   9.488   2.126  0.5398 -1.6280 -0.9201
  397MOL0     H53530   8.539   9.368   2.343 -0.4263  0.2349 -0.3321
  397MOL0     H53531   8.441   9.207   2.344  1.3706 -0.4416  1.2454
  397MOL0     H53532   8.537   9.195   2.109 -0.6994  1.0351 -0.0400
  397MOL0     H53533   8.648   9.181   2.261  0.2727  3.0308  3.2294
  397MOL0     H53534   8.637   9.428   2.096  0.1202  0.3101 -1.4340
  397MOL0     H53535   8.746   9.299   2.065  0.1374  1.8561 -1.6287
  397MOL0     H53536   8.737   9.468   2.325 -0.9890  0.2264 -0.1323
  397MOL0     H53537   8.816   9.312   2.323  1.7484  1.1489  0.8399
  397MOL0     H53538   8.970   9.373   2.166  0.0893 -0.1345  0.1073
  397MOL0     H53539   8.879   9.526   2.117  2.2485  0.7883 -1.6917
  397MOL0     H53540   8.979   9.493   2.399  1.4649  1.5265  0.6554
  397MOL0     H53541   9.059   9.583   2.263 -1.2510 -0.2350 -3.0998
  397MOL0     H53542   8.788   9.645   2.395 -0.2562  0.5200 -0.5028
  397MOL0     H53543   8.864   9.748   2.273 -0.8959  3.2371  2.6174
  397MOL0     H53544   8.945   9.723   2.554 -2.4643  0.0508  0.2016
  397MOL0     H53545   9.065   9.767   2.431 -0.4910 -0.6909  0.6666
  397MOL0     H53546   9.013   9.979   2.623  3.1865  0.5546 -1.8162
  397MOL0     H53547   8.765  10.282   2.514  0.6517  2.5341  1.9649
  397MOL0     H53548   8.735  10.201   2.675 -0.4899  0.7610 -0.2055
  397MOL0     H53549   8.970  10.257   2.719 -0.7799 -0.9204 -0.0404
  397MOL0     H53550   8.999  10.306   2.546 -0.6019 -1.1742 -1.3027
  397MOL0     H53551   8.840  10.472   2.757 -2.1690 -0.7483 -1.4758
  397MOL0     H53552   8.850  10.510   2.584 -2.3136  1.0387  2.8103
  397MOL0     H53553   9.018  10.639   2.684 -0.1782 -0.5829  4.2210
  397MOL0     H53554   9.105  10.508   2.598  0.4405 -0.8711  0.0324
  397MOL0     H53555   9.212  10.504   3.031 -0.3195  0.2149 -0.6976
  397MOL0     H53556   9.424  10.604   3.102 -0.8500 -2.7824  0.5170
  397MOL0     H53557   9.587  11.092   3.032  1.2094  0.4679  4.5164
  397MOL0     H53558   9.774  11.267   3.071 -2.7348  0.8463 -0.9598
  397MOL0     H53559  10.207  11.317   2.931  0.4346  1.1305 -1.2919
  397MOL0     H53560  10.171  11.180   2.836 -2.0517 -0.0884 -1.4521
  397MOL0     H53561   9.982  11.329   2.730  0.1108  0.6882 -0.1687
  397MOL0     H53562  10.065  11.469   2.795 -1.3381  0.5040 -1.2379
  397MOL0     H53563  10.280  11.391   2.720  0.6914  0.8205 -2.1905
  397MOL0     H53564  10.203  11.251   2.637  0.6190 -0.7637 -0.6504
  397MOL0     H53565  10.077  11.426   2.506 -0.4007 -0.9300  1.2940
  397MOL0     H53566  10.256  11.428   2.479  3.0993  0.6371  2.5541
  397MOL0     H53567  10.311  11.599   2.607  0.7895 -1.6681 -3.3668
  397MOL0     H53568  10.142  11.616   2.683  0.4921 -1.7450  0.8686
  397MOL0     H53569  10.201  11.656   2.395  0.7589 -0.2256  0.9226
  397MOL0     H53570  10.053  11.689   2.479  1.1427  1.5047 -1.9807
  397MOL0     H53571  10.329  11.829   2.509 -0.7192 -2.3190 -2.3559
  397MOL0     H53572  10.212  11.850   2.633  0.3990  0.9227  0.3568
  397MOL0     H53573  10.048  11.938   2.462 -0.9658  2.5549  0.0445
  397MOL0     H53574  10.179  12.053   2.485  0.0750  0.5600 -1.7828
  397MOL0     H53575  10.017  11.022   2.800 -0.2326 -4.3408  2.2215
  397MOL0     H53576   9.826  10.878   2.763 -4.0101 -1.3108  0.4418
  397MOL0     H53577   9.436  10.803   2.717  0.2640  0.3163  1.1779
  397MOL0     H53578   9.248  10.687   2.655  0.2063  2.8231  0.3530
  397MOL0     H53579   8.325   9.334   2.482 -0.6058  0.2810  0.7191
  397MOL0     H53580   8.119   9.419   2.610  1.8853 -0.5414  0.3091
  397MOL0     H53581   7.620   9.793   2.505 -1.1215  0.1310  2.1211
  397MOL0     H53582   7.431   9.801   2.630 -0.3783 -0.7571 -1.4603
  397MOL0     H53583   7.245   9.706   2.694  2.2839 -0.6397 -0.7753
  397MOL0     H53584   7.268   9.767   2.863 -0.7593 -0.1184  0.7103
  397MOL0     H53585   7.114   9.528   2.778  1.6696  0.3330 -1.8419
  397MOL0     H53586   7.043   9.692   2.823  1.8326  2.7439 -2.6768
  397MOL0     H53587   7.150   9.693   3.048 -3.3844 -0.0894  0.8592
  397MOL0     H53588   7.206   9.528   3.019  1.0014  0.4249 -2.0765
  397MOL0     H53589   6.992   9.559   3.167 -0.7986  1.1926 -0.0752
  397MOL0     H53590   6.917   9.640   3.036 -0.5009 -0.7820 -0.8365
  397MOL0     H53591   6.879   9.226   2.968  0.1157  0.2763  2.4883
  397MOL0     H53592   7.556   9.437   2.831  0.2543  1.7319  1.8563
  397MOL0     H53593   7.742   9.346   2.798 -0.1919  0.0189 -0.3181
  397MOL0     H53594   7.829   9.349   2.643  1.5011  0.8850  0.8179
  397MOL0     H53595   7.883   9.455   2.761  0.6415 -0.1295 -0.2135
  398MOL0     O53596   2.170   8.414   6.776 -0.4819 -1.1420  0.0737
  398MOL0     C53597   2.136   8.387   6.663  0.5513  0.6200  0.1076
  398MOL0     O53598   2.011   8.349   6.633 -0.0853  1.0198 -0.0894
  398MOL0     C53599   1.906   8.358   6.725  0.5274  0.7429  0.5998
  398MOL0     C53600   1.881   8.463   6.810 -0.0409 -0.4727 -0.2162
  398MOL0     C53601   1.769   8.481   6.886  0.4605 -0.8284  0.2791
  398MOL0     C53602   1.679   8.376   6.897  0.4886  0.1834  0.5068
  398MOL0     O53603   1.572   8.398   6.977  0.1358  0.4852 -0.2275
  398MOL0     C53604   1.540   8.322   7.090 -0.2414  0.6687 -0.3242
  398MOL0     C53605   1.426   8.235   7.052 -0.9897  1.0661 -0.0745
  398MOL0     C53606   1.379   8.166   7.176 -0.2466  0.0862  0.1772
  398MOL0     C53607   1.482   8.097   7.265 -0.2570  0.0062  0.0346
  398MOL0     C53608   1.419   8.052   7.390  1.1031 -0.0107 -0.0675
  398MOL0     C53609   1.514   8.021   7.506 -0.9894 -0.3863 -1.0570
  398MOL0     C53610   1.642   7.951   7.488 -0.1927 -0.3173 -0.2109
  398MOL0     C53611   1.629   7.824   7.403 -0.3693  0.2928 -0.5630
  398MOL0     N53612   1.769   7.789   7.374  0.4873 -1.0472 -0.1473
  398MOL0     C53613   1.844   7.846   7.269  0.4319 -0.0704 -0.1760
  398MOL0     C53614   1.969   7.786   7.276  0.9557  0.2644  0.0845
  398MOL0     C53615   2.097   7.813   7.199 -0.2312 -0.6997  0.0382
  398MOL0     C53616   2.148   7.693   7.121  0.0006  0.0218 -0.0700
  398MOL0     C53617   2.298   7.710   7.070 -0.0036  0.4944  0.1005
  398MOL0     C53618   2.327   7.639   6.935 -0.3451 -0.0011 -1.1165
  398MOL0     O53619   2.468   7.615   6.911 -0.4844  0.4232 -0.6039
  398MOL0     C53620   2.505   7.507   6.834  0.1254 -0.3379 -0.1639
  398MOL0     C53621   2.427   7.451   6.731 -0.5234 -0.3604 -0.1730
  398MOL0     C53622   2.491   7.358   6.642  0.1659 -0.6782  0.1406
  398MOL0     C53623   2.628   7.317   6.649  0.6888 -0.3967  0.5582
  398MOL0     C53624   2.699   7.221   6.545  0.9954  0.1857 -0.1292
  398MOL0     O53625   2.617   7.170   6.439  0.4155  0.3405 -0.4155
  398MOL0     C53626   2.658   7.150   6.309 -0.3052 -0.3113 -0.9740
  398MOL0     C53627   2.777   7.200   6.256  0.0216 -0.1204 -0.7600
  398MOL0     C53628   2.811   7.165   6.128  0.1330 -0.5000  0.1284
  398MOL0     C53629   2.727   7.087   6.044  0.8474 -0.5894 -1.6614
  398MOL0     O53630   2.744   7.074   5.907 -0.5657  0.3073  0.7925
  398MOL0     C53631   2.867   7.054   5.844  0.1317 -0.2438 -0.3518
  398MOL0     C53632   2.934   6.927   5.888 -0.0077 -0.3351 -0.1184
  398MOL0     C53633   2.854   6.796   5.857 -0.2675  0.4294  1.3683
  398MOL0     C53634   2.856   6.761   5.708  0.3494  0.1221 -0.5934
  398MOL0     C53635   2.785   6.622   5.689  0.2516  0.8000 -0.6202
  398MOL0     C53636   2.891   6.506   5.685  0.1622  0.4420 -0.0949
  398MOL0     C53637   2.812   6.376   5.637 -0.8523 -0.1839 -0.2016
  398MOL0     C53638   2.910   6.265   5.641 -0.9479  0.2707  0.3150
  398MOL0    Cl53639   2.988   6.276   5.482  0.6401  0.0443  0.1119
  398MOL0     C53640   2.604   7.035   6.098 -0.0081 -0.1934 -0.1508
  398MOL0     C53641   2.580   7.065   6.230  0.4026  0.3110  0.2903
  398MOL0     O53642   2.818   7.189   6.564 -0.3055  0.0027 -0.4574
  398MOL0     C53643   2.694   7.372   6.760 -0.0213  0.7336 -0.4030
  398MOL0     C53644   2.634   7.462   6.850 -0.0133  0.3602  0.1257
  398MOL0     N53645   1.963   7.691   7.388 -0.0272 -1.1176 -0.3977
  398MOL0     N53646   1.842   7.695   7.435  0.4617  0.2726 -0.5168
  398MOL0     C53647   1.688   8.269   6.802 -0.2597 -1.1444 -0.6255
  398MOL0     C53648   1.806   8.257   6.716 -0.1769 -0.4906 -0.8851
  398MOL0     C53649   2.243   8.359   6.563 -0.1489  0.1561  0.0708
  398MOL0     C53650   2.228   8.236   6.487  0.6688 -0.3558 -0.4355
  398MOL0     C53651   2.313   8.201   6.379 -0.0652 -0.4538 -0.2221
  398MOL0     C53652   2.422   8.290   6.349  0.1295  0.3119  0.0576
  398MOL0     O53653   2.519   8.263   6.259  0.0384 -0.5122 -0.6984
  398MOL0     C53654   2.503   8.158   6.170  0.7501  0.0613 -1.0279
  398MOL0     C53655   2.635   8.106   6.121  0.2246  0.8287 -0.0426
  398MOL0     C53656   2.616   7.994   6.017  0.0532 -0.1667 -0.2576
  398MOL0     C53657   2.744   7.944   5.961 -0.2638 -0.5461  1.2710
  398MOL0     C53658   2.797   8.039   5.851 -0.3680  0.7470  0.0802
  398MOL0     C53659   2.838   8.095   5.756 -0.4608 -0.5917 -0.4353
  398MOL0     C53660   2.441   8.399   6.434  0.3812 -0.6389  0.4139
  398MOL0     C53661   2.351   8.436   6.534  0.1564  0.3087 -0.6166
  398MOL0     C53662   2.377   8.571   6.606 -0.3912  0.1951 -0.1479
  398MOL0     H53663   1.961   8.534   6.824  1.4359 -1.9322 -0.9682
  398MOL0     H53664   1.760   8.575   6.939  1.6313 -0.3948 -0.2645
  398MOL0     H53665   1.632   8.271   7.118  1.1075  2.6955 -0.8217
  398MOL0     H53666   1.515   8.392   7.170  3.4330  0.2773  1.3802
  398MOL0     H53667   1.468   8.173   6.973 -1.9646  0.2925  0.0046
  398MOL0     H53668   1.341   8.290   7.011 -0.5979  2.1553  0.5240
  398MOL0     H53669   1.319   8.081   7.143  3.0563 -2.6257  0.5836
  398MOL0     H53670   1.313   8.240   7.222  1.5073  1.2851  0.8515
  398MOL0     H53671   1.531   8.016   7.211  1.0524 -0.4618  1.8586
  398MOL0     H53672   1.566   8.161   7.293  0.3857 -1.8645  2.7154
  398MOL0     H53673   1.369   8.144   7.423  0.4187 -1.6507  4.1462
  398MOL0     H53674   1.339   7.980   7.368  0.9202  0.5215 -1.2076
  398MOL0     H53675   1.549   8.109   7.560  0.2176 -2.1724  1.2577
  398MOL0     H53676   1.453   7.960   7.574 -0.6598 -0.1107 -0.5095
  398MOL0     H53677   1.694   7.924   7.580  2.4110  1.8195 -0.9334
  398MOL0     H53678   1.710   8.023   7.443  0.6320 -0.1058  1.3407
  398MOL0     H53679   1.576   7.746   7.459  0.7143  0.2735  0.4789
  398MOL0     H53680   1.579   7.843   7.308 -1.1558 -0.0763 -0.2387
  398MOL0     H53681   1.813   7.924   7.201  2.1774 -0.8967 -2.0210
  398MOL0     H53682   2.086   7.888   7.120 -0.9512 -0.8892 -0.0475
  398MOL0     H53683   2.176   7.843   7.268  0.2178 -1.7868  0.0261
  398MOL0     H53684   2.151   7.600   7.179 -1.4867 -1.3155 -2.0027
  398MOL0     H53685   2.094   7.675   7.027  0.9011 -0.7509 -0.4616
  398MOL0     H53686   2.356   7.657   7.147 -1.8200 -2.4831 -0.3906
  398MOL0     H53687   2.326   7.815   7.070 -2.6985  1.2881 -0.9205
  398MOL0     H53688   2.292   7.701   6.852  0.0340 -1.1471 -2.1784
  398MOL0     H53689   2.262   7.551   6.927 -0.8116  0.1489  0.7394
  398MOL0     H53690   2.327   7.493   6.723  0.2180  1.6887  0.6673
  398MOL0     H53691   2.432   7.305   6.568 -0.9045  1.6991 -0.8245
  398MOL0     H53692   2.844   7.258   6.318 -0.0787 -3.6796  3.0934
  398MOL0     H53693   2.901   7.211   6.087 -1.3329  3.1000  0.5714
  398MOL0     H53694   2.860   7.065   5.735 -1.0946 -1.8100 -0.4687
  398MOL0     H53695   2.932   7.139   5.866  0.1064 -0.6323  1.4013
  398MOL0     H53696   3.020   6.932   5.822  0.2783  2.9763  0.3517
  398MOL0     H53697   2.950   6.939   5.996 -1.0523 -3.5282  0.5067
  398MOL0     H53698   2.915   6.718   5.904  1.4085  0.4036 -0.7174
  398MOL0     H53699   2.749   6.797   5.889 -0.4377  0.1927  0.8239
  398MOL0     H53700   2.961   6.752   5.676  1.1515  1.9127  1.3054
  398MOL0     H53701   2.800   6.839   5.656  1.6759 -0.6576 -3.4457
  398MOL0     H53702   2.726   6.630   5.597 -2.1759 -1.5967  0.5810
  398MOL0     H53703   2.713   6.596   5.767  1.3851  0.5403  0.3575
  398MOL0     H53704   2.976   6.518   5.617  0.8591 -1.0805  0.4511
  398MOL0     H53705   2.932   6.491   5.785 -0.3166  2.3766  0.4442
  398MOL0     H53706   2.768   6.383   5.537  1.3453  2.0620 -1.1178
  398MOL0     H53707   2.721   6.355   5.693 -1.5950  2.4954 -0.2685
  398MOL0     H53708   2.972   6.273   5.730 -1.8761 -0.8372  1.0929
  398MOL0     H53709   2.850   6.175   5.657  2.2068 -1.5284  3.2304
  398MOL0     H53710   2.537   6.968   6.045 -0.6400  2.1753 -2.5998
  398MOL0     H53711   2.486   7.022   6.262  1.8368 -3.6823 -0.3206
  398MOL0     H53712   2.801   7.358   6.770 -0.4843 -2.0972  1.9420
  398MOL0     H53713   2.702   7.508   6.922 -0.0127 -0.1529  0.4559
  398MOL0     H53714   1.610   8.194   6.800  0.8515 -2.3938  0.7547
  398MOL0     H53715   1.814   8.177   6.642  2.8336  0.9033 -2.2145
  398MOL0     H53716   2.147   8.165   6.496 -0.4788  1.0990  1.3684
  398MOL0     H53717   2.292   8.112   6.321  0.0371 -1.3909  1.1389
  398MOL0     H53718   2.447   8.204   6.088  1.4854  2.8421 -0.0914
  398MOL0     H53719   2.458   8.067   6.212 -0.4522 -0.4514 -3.2361
  398MOL0     H53720   2.698   8.064   6.200 -0.7773 -1.2423 -0.2679
  398MOL0     H53721   2.687   8.191   6.076  5.4718 -1.5694  0.7551
  398MOL0     H53722   2.552   8.026   5.935  1.4171  0.8442 -0.9723
  398MOL0     H53723   2.577   7.910   6.076 -2.7725  2.4868  2.0042
  398MOL0     H53724   2.820   7.928   6.038 -0.3208 -2.2859  1.0066
  398MOL0     H53725   2.733   7.844   5.917  2.6326 -0.4054  0.0274
  398MOL0     H53726   2.882   8.149   5.674 -1.1973 -1.1570 -1.2232
  398MOL0     H53727   2.529   8.455   6.405 -1.2521  0.2444 -3.3941
  398MOL0     H53728   2.302   8.643   6.573 -0.9130 -0.3529 -0.1708
  398MOL0     H53729   2.388   8.556   6.714  2.1185 -0.3735 -0.4063
  398MOL0     H53730   2.472   8.618   6.578  0.2630 -2.7549 -3.5389
  399MOL0     O53731   1.631   8.026   4.239  0.3870  1.4762 -0.1329
  399MOL0     C53732   1.656   8.068   4.129 -0.3623  0.8639  0.7197
  399MOL0     O53733   1.563   8.099   4.039  0.2486  0.5111  0.3261
  399MOL0     C53734   1.430   8.074   4.060 -0.6161  0.1808 -0.2517
  399MOL0     C53735   1.368   7.950   4.030  1.0456 -0.2084  0.3391
  399MOL0     C53736   1.238   7.918   4.075 -0.3117  0.1502 -0.2153
  399MOL0     C53737   1.158   8.014   4.142 -0.2671  0.9995  0.1723
  399MOL0     O53738   1.017   8.009   4.153 -0.5672  0.6478 -0.2537
  399MOL0     C53739   0.960   7.914   4.065  1.0126  0.0013 -0.0268
  399MOL0     C53740   0.807   7.947   4.057  0.4095  0.0311  0.3821
  399MOL0     C53741   0.737   7.995   4.191 -0.8003  0.3950  0.3585
  399MOL0     C53742   0.775   7.902   4.310  0.6068 -0.7010 -0.3445
  399MOL0     C53743   0.666   7.893   4.416 -0.1810  1.0972 -0.3513
  399MOL0     C53744   0.638   8.027   4.474 -0.5370 -0.4131 -0.1021
  399MOL0     C53745   0.565   8.033   4.605 -1.0914  1.0491  0.9279
  399MOL0     C53746   0.420   7.967   4.610  0.0848  0.8100 -0.9435
  399MOL0     N53747   0.321   8.021   4.523 -0.2028 -0.0897  0.5013
  399MOL0     C53748   0.203   8.075   4.569 -0.1880 -0.6060  1.2062
  399MOL0     C53749   0.121   8.067   4.459  0.9160 -0.0495  0.2176
  399MOL0     C53750  -0.017   8.122   4.458  0.8392  0.0981 -0.3595
  399MOL0     C53751  -0.015   8.283   4.450  0.4551  0.3184 -0.8125
  399MOL0     C53752  -0.164   8.344   4.436 -0.3243  0.2425  1.0198
  399MOL0     C53753  -0.267   8.298   4.539  0.1657  0.0589  0.4621
  399MOL0     O53754  -0.389   8.365   4.507 -0.3984  0.3195  0.3397
  399MOL0     C53755  -0.485   8.344   4.598 -0.1617  0.3046  0.3459
  399MOL0     C53756  -0.481   8.235   4.696  0.2735  0.1091 -0.5766
  399MOL0     C53757  -0.582   8.225   4.792  0.3130  0.0789 -0.5693
  399MOL0     C53758  -0.694   8.309   4.794  0.2827 -0.0033 -0.1596
  399MOL0     C53759  -0.798   8.302   4.902 -0.0237  0.7431 -0.6234
  399MOL0     O53760  -0.864   8.413   4.936 -0.5628  0.3216  0.0674
  399MOL0     C53761  -0.958   8.418   5.039 -1.2569  0.3242 -0.4980
  399MOL0     C53762  -1.060   8.311   5.058 -0.3561 -0.8075  0.5391
  399MOL0     C53763  -1.166   8.345   5.139 -0.2567 -0.6241  0.4253
  399MOL0     C53764  -1.174   8.466   5.214  0.7832  0.3178  1.5301
  399MOL0     O53765  -1.271   8.487   5.297 -0.0389 -0.3334  0.2503
  399MOL0     C53766  -1.354   8.607   5.278  0.1185 -0.0091 -0.0387
  399MOL0     C53767  -1.487   8.537   5.300  0.0682 -0.3784  0.7065
  399MOL0     C53768  -1.605   8.639   5.278 -0.3840 -0.3353 -0.4914
  399MOL0     C53769  -1.606   8.756   5.387  0.3326  0.0764  0.6236
  399MOL0     C53770  -1.718   8.856   5.381  0.2024  0.1213  0.4061
  399MOL0     C53771  -1.861   8.803   5.355 -0.0201 -0.5588 -0.3585
  399MOL0     C53772  -1.952   8.929   5.317 -0.1166  0.4770  0.3030
  399MOL0     C53773  -2.092   8.886   5.284  0.3932  0.0307 -0.0625
  399MOL0    Cl53774  -2.156   8.820   5.446 -0.1198  0.1523 -0.2977
  399MOL0     C53775  -1.078   8.557   5.187 -1.3838  0.2473 -0.5874
  399MOL0     C53776  -0.973   8.537   5.098 -0.3030  0.4681  0.7241
  399MOL0     O53777  -0.802   8.197   4.966 -0.1383 -0.0190 -0.0345
  399MOL0     C53778  -0.698   8.411   4.692 -0.1775  0.1464  0.6436
  399MOL0     C53779  -0.594   8.431   4.595 -0.0617  0.2586 -0.5476
  399MOL0     N53780   0.184   8.002   4.350  0.9156 -0.1935  0.0758
  399MOL0     N53781   0.303   7.977   4.391 -0.3672 -0.7944 -0.0853
  399MOL0     C53782   1.215   8.131   4.174 -0.0933 -0.5292 -0.2927
  399MOL0     C53783   1.350   8.166   4.134  0.8114 -0.0751 -0.0296
  399MOL0     C53784   1.794   8.100   4.087  0.0687  0.3476 -0.1830
  399MOL0     C53785   1.825   8.077   3.950  0.7144 -0.0297  0.5884
  399MOL0     C53786   1.956   8.074   3.894 -1.1002 -0.5377  0.2118
  399MOL0     C53787   2.060   8.113   3.978 -0.2555  0.1201  0.4777
  399MOL0     O53788   2.188   8.101   3.947  0.6460 -0.7841 -0.1309
  399MOL0     C53789   2.233   7.964   3.951 -0.0297 -0.9752  0.1531
  399MOL0     C53790   2.388   7.961   3.976  0.5955 -0.3420  0.4130
  399MOL0     C53791   2.483   7.919   3.852 -0.1004 -0.1999  0.1930
  399MOL0     C53792   2.466   8.005   3.725  0.5382 -0.0631  0.3989
  399MOL0     C53793   2.557   7.956   3.621 -0.2991 -0.1754  0.6373
  399MOL0     C53794   2.642   7.923   3.534  0.2813  0.2811 -0.1474
  399MOL0     C53795   2.024   8.157   4.110 -0.7959  0.2205 -0.4360
  399MOL0     C53796   1.895   8.152   4.163 -0.7500 -0.7691  0.2350
  399MOL0     C53797   1.885   8.201   4.305  0.3286  0.3472  0.1644
  399MOL0     H53798   1.430   7.877   3.978  0.5543 -0.6387  0.3508
  399MOL0     H53799   1.190   7.824   4.050 -2.0156  1.0645 -0.5532
  399MOL0     H53800   1.005   7.910   3.966 -1.4667 -0.5801 -1.2045
  399MOL0     H53801   0.964   7.812   4.106 -0.8826 -0.3977 -0.6940
  399MOL0     H53802   0.764   7.866   3.997  0.6601 -0.7945  1.2950
  399MOL0     H53803   0.797   8.038   3.997  0.8432 -1.7492 -2.6398
  399MOL0     H53804   0.629   7.989   4.174 -0.4101  0.6254 -3.0158
  399MOL0     H53805   0.778   8.093   4.218  0.1575 -0.8296  3.8248
  399MOL0     H53806   0.772   7.797   4.279  0.4370 -1.3576  1.7444
  399MOL0     H53807   0.877   7.919   4.348  1.1177 -4.6553  0.5215
  399MOL0     H53808   0.569   7.849   4.389 -0.7281  1.9402  0.1949
  399MOL0     H53809   0.692   7.836   4.505 -0.7579  3.1418  1.2133
  399MOL0     H53810   0.725   8.091   4.493 -1.6154  1.5561 -1.5113
  399MOL0     H53811   0.585   8.079   4.394  1.0362 -1.4047 -1.8552
  399MOL0     H53812   0.553   8.136   4.640 -2.8870  1.3799 -0.5089
  399MOL0     H53813   0.631   7.981   4.675 -0.1856 -1.0996 -1.3644
  399MOL0     H53814   0.431   7.859   4.596  1.4314  0.4875  1.8724
  399MOL0     H53815   0.392   7.966   4.715  0.3153  1.0121 -0.8788
  399MOL0     H53816   0.183   8.122   4.665 -0.3517  2.0962 -0.0395
  399MOL0     H53817  -0.064   8.072   4.373  1.0995 -1.2561  0.2659
  399MOL0     H53818  -0.069   8.108   4.553  0.8219 -2.0572 -0.6341
  399MOL0     H53819   0.026   8.316   4.546  2.2524 -0.6809 -1.1805
  399MOL0     H53820   0.053   8.323   4.373  1.4193 -1.0928 -0.7375
  399MOL0     H53821  -0.193   8.333   4.331  2.3799  0.1399  0.2040
  399MOL0     H53822  -0.150   8.450   4.457 -1.2579  0.6283 -0.2552
  399MOL0     H53823  -0.233   8.324   4.640  0.8721  2.2784 -0.2749
  399MOL0     H53824  -0.278   8.190   4.523 -0.9071  0.2467 -0.2153
  399MOL0     H53825  -0.404   8.159   4.703 -0.3673 -0.5240 -0.2376
  399MOL0     H53826  -0.599   8.141   4.858 -0.4122  0.1264 -0.6870
  399MOL0     H53827  -1.058   8.232   4.983  0.5273  2.0438 -2.7293
  399MOL0     H53828  -1.255   8.283   5.150  0.4384 -2.0400 -1.4798
  399MOL0     H53829  -1.344   8.681   5.358 -1.4296  0.6505 -0.4236
  399MOL0     H53830  -1.347   8.659   5.182  1.0832  0.4024  0.2361
  399MOL0     H53831  -1.483   8.458   5.224  0.7087  0.7185 -0.4505
  399MOL0     H53832  -1.493   8.480   5.393  1.6779 -3.3231 -0.8409
  399MOL0     H53833  -1.599   8.674   5.174 -0.7747 -1.0061 -0.7411
  399MOL0     H53834  -1.696   8.580   5.286 -0.1929 -0.7988 -1.5443
  399MOL0     H53835  -1.517   8.819   5.382 -0.9500  2.0306  1.2888
  399MOL0     H53836  -1.605   8.713   5.487 -2.7622  2.1192  1.6650
  399MOL0     H53837  -1.690   8.920   5.297  2.5688 -2.5837 -1.0157
  399MOL0     H53838  -1.723   8.901   5.480 -2.9623 -1.1205  0.9309
  399MOL0     H53839  -1.865   8.731   5.273 -2.2671 -0.0351 -0.7665
  399MOL0     H53840  -1.880   8.757   5.453 -1.2107 -1.6420 -1.0737
  399MOL0     H53841  -1.902   8.983   5.236 -2.7146  0.3342 -1.4822
  399MOL0     H53842  -1.959   9.005   5.395  1.1118  2.3359 -1.3098
  399MOL0     H53843  -2.146   8.974   5.248  3.2874  2.3453  0.8679
  399MOL0     H53844  -2.087   8.808   5.207 -0.8689 -1.1675  1.0049
  399MOL0     H53845  -1.099   8.656   5.227 -4.2532 -0.7435  0.6748
  399MOL0     H53846  -0.903   8.617   5.079  1.9640 -1.0709  2.1228
  399MOL0     H53847  -0.783   8.478   4.689 -0.4035 -0.0216 -3.4941
  399MOL0     H53848  -0.595   8.517   4.529 -3.9342  2.8137  2.4319
  399MOL0     H53849   1.159   8.203   4.233  0.7854  2.2606 -2.5839
  399MOL0     H53850   1.375   8.266   4.169 -0.5583  0.0169  0.7528
  399MOL0     H53851   1.740   8.057   3.885 -0.3482  0.1639  1.8816
  399MOL0     H53852   1.973   8.049   3.790 -3.0446  1.4294 -0.6703
  399MOL0     H53853   2.209   7.921   3.854  0.7432 -0.3209 -0.3385
  399MOL0     H53854   2.172   7.903   4.019 -1.1306 -0.6663 -0.5379
  399MOL0     H53855   2.396   7.871   4.038 -2.1490 -1.4670 -0.6911
  399MOL0     H53856   2.429   8.053   4.019 -3.0927  0.9378  1.6322
  399MOL0     H53857   2.470   7.812   3.832 -1.1214 -0.1016  0.2756
  399MOL0     H53858   2.587   7.930   3.883 -0.2301  0.2032  0.4833
  399MOL0     H53859   2.367   7.989   3.682  1.0154 -1.0169 -0.4021
  399MOL0     H53860   2.481   8.111   3.746 -4.8918  0.9472  0.5077
  399MOL0     H53861   2.694   7.886   3.448 -0.1529 -0.0466 -0.2733
  399MOL0     H53862   2.110   8.174   4.174 -1.3241 -1.7137  0.8535
  399MOL0     H53863   1.927   8.302   4.306  3.0354 -0.6976  1.6023
  399MOL0     H53864   1.781   8.209   4.339  0.5528  0.3105  0.8756
  399MOL0     H53865   1.950   8.149   4.376 -0.3964 -2.6246 -1.1729
  400MOL0     O53866   7.668   5.505   1.822  0.3245  0.0051 -0.3685
  400MOL0     C53867   7.677   5.621   1.864  0.4520  0.2827 -0.4384
  400MOL0     O53868   7.586   5.682   1.933  0.1447 -0.6499  0.6645
  400MOL0     C53869   7.506   5.604   2.013  0.1878 -0.5328 -0.2700
  400MOL0     C53870   7.519   5.617   2.148  0.4272  0.0663 -0.4421
  400MOL0     C53871   7.468   5.527   2.243 -0.1204  0.0384  0.2586
  400MOL0     C53872   7.399   5.412   2.197 -0.8501 -0.9790  0.1719
  400MOL0     O53873   7.342   5.337   2.293  0.4872 -0.1069  0.5586
  400MOL0     C53874   7.201   5.351   2.291  0.3339  0.1909 -0.4795
  400MOL0     C53875   7.141   5.266   2.403  0.2519  0.6392 -0.5727
  400MOL0     C53876   7.186   5.312   2.542  1.4646  0.0266 -0.4334
  400MOL0     C53877   7.078   5.400   2.621 -0.2051  0.3545 -0.3437
  400MOL0     C53878   7.145   5.452   2.748 -0.6594 -0.8730 -0.0719
  400MOL0     C53879   7.063   5.575   2.792  1.1782  0.5831 -0.0612
  400MOL0     C53880   6.932   5.527   2.858  0.0356 -0.0455 -0.0951
  400MOL0     C53881   6.842   5.650   2.892  0.4209  0.4900 -0.1108
  400MOL0     N53882   6.723   5.596   2.954 -0.4719 -0.8035 -0.1528
  400MOL0     C53883   6.598   5.569   2.909 -0.0336  0.1637 -0.4227
  400MOL0     C53884   6.527   5.547   3.030  0.1250  0.8634  0.6484
  400MOL0     C53885   6.382   5.517   3.019  0.3242  0.5227 -0.4588
  400MOL0     C53886   6.299   5.611   3.096  0.3855 -0.9362 -0.0830
  400MOL0     C53887   6.310   5.759   3.054  0.4190  0.6881  0.6113
  400MOL0     C53888   6.214   5.851   3.118  0.4707  0.2423 -1.1261
  400MOL0     O53889   6.076   5.826   3.069 -0.3854  0.3880 -0.5273
  400MOL0     C53890   5.980   5.795   3.158 -0.2298  0.5228 -0.3523
  400MOL0     C53891   5.894   5.690   3.136  0.7752  0.2090 -0.8923
  400MOL0     C53892   5.783   5.670   3.220  0.4435 -0.8144  0.6439
  400MOL0     C53893   5.767   5.742   3.340 -0.2152  0.1236 -0.5486
  400MOL0     C53894   5.654   5.718   3.425  0.3424 -0.2910  0.7119
  400MOL0     O53895   5.576   5.609   3.392  0.4339  0.0585 -0.2359
  400MOL0     C53896   5.454   5.585   3.453 -1.0436 -0.4178  0.3303
  400MOL0     C53897   5.437   5.566   3.594 -0.7660  0.4321  0.3214
  400MOL0     C53898   5.314   5.534   3.651  1.3975 -0.8299  0.1314
  400MOL0     C53899   5.199   5.527   3.563  0.5186 -0.6494  0.1024
  400MOL0     O53900   5.069   5.513   3.606  0.2298 -0.0509  0.3349
  400MOL0     C53901   5.044   5.469   3.740 -0.2857 -0.3095  0.5368
  400MOL0     C53902   4.913   5.388   3.756  0.4618 -0.5826  1.1898
  400MOL0     C53903   4.900   5.347   3.903  0.5414 -0.7205 -0.6264
  400MOL0     C53904   4.781   5.246   3.920  0.3254 -0.5697 -0.1095
  400MOL0     C53905   4.742   5.225   4.067  0.4387 -0.2769 -0.1324
  400MOL0     C53906   4.675   5.341   4.140 -0.0618 -0.3111 -0.5841
  400MOL0     C53907   4.608   5.277   4.262  1.3687  0.1820  0.1705
  400MOL0     C53908   4.565   5.377   4.365 -0.1093  1.0484 -1.1919
  400MOL0    Cl53909   4.433   5.482   4.305  0.0865 -0.4683  0.1745
  400MOL0     C53910   5.218   5.561   3.422  0.0419  0.5738  1.0717
  400MOL0     C53911   5.339   5.591   3.373 -1.4647 -0.5704  0.2031
  400MOL0     O53912   5.638   5.793   3.519  0.1973 -0.0366 -0.7411
  400MOL0     C53913   5.859   5.841   3.366 -0.5667  0.0791 -0.2004
  400MOL0     C53914   5.962   5.871   3.272 -0.3523 -0.0827 -0.0254
  400MOL0     N53915   6.609   5.582   3.142 -0.8459 -0.3767 -0.3079
  400MOL0     N53916   6.729   5.604   3.091 -0.5311  0.5014  0.2691
  400MOL0     C53917   7.376   5.398   2.062 -0.0433  0.2912  0.3525
  400MOL0     C53918   7.435   5.489   1.972  0.2163 -0.1306  0.1948
  400MOL0     C53919   7.773   5.709   1.792 -1.0717 -0.5862  0.3677
  400MOL0     C53920   7.730   5.838   1.750  0.1634  0.6349  0.2962
  400MOL0     C53921   7.820   5.931   1.689  0.7348 -0.9676  0.1790
  400MOL0     C53922   7.953   5.898   1.668 -0.2044 -0.4470  0.1844
  400MOL0     O53923   8.044   5.984   1.601 -0.1277  0.0056 -0.1164
  400MOL0     C53924   8.135   6.068   1.686  1.0732  0.6158 -0.4081
  400MOL0     C53925   8.273   6.053   1.620  0.9578  0.9020 -0.4377
  400MOL0     C53926   8.357   6.186   1.601 -1.0215  0.1229 -0.7341
  400MOL0     C53927   8.507   6.172   1.596 -1.3020 -0.3610  0.0610
  400MOL0     C53928   8.550   6.081   1.500 -0.6769 -0.1148  1.1896
  400MOL0     C53929   8.595   6.007   1.416  0.4649  0.7921  0.3525
  400MOL0     C53930   8.001   5.775   1.716 -0.3606  0.1703  0.1888
  400MOL0     C53931   7.912   5.679   1.774 -0.0287 -0.4610  0.1247
  400MOL0     C53932   7.966   5.542   1.796 -0.3597  0.3158  0.4636
  400MOL0     H53933   7.573   5.697   2.198 -0.9618  0.2531  0.8327
  400MOL0     H53934   7.461   5.539   2.351 -0.9009 -1.9824  0.4774
  400MOL0     H53935   7.162   5.453   2.292  0.2536  0.1615 -0.6491
  400MOL0     H53936   7.158   5.315   2.197 -1.5112  1.9556 -0.3807
  400MOL0     H53937   7.184   5.166   2.398  1.2282  0.9575  0.8556
  400MOL0     H53938   7.031   5.262   2.398  0.1382  1.2522  1.0219
  400MOL0     H53939   7.273   5.378   2.537  1.4196  0.0962 -0.2812
  400MOL0     H53940   7.210   5.226   2.605 -0.8669  0.0944  0.6407
  400MOL0     H53941   7.042   5.482   2.558  0.8405  1.5438  0.5631
  400MOL0     H53942   6.999   5.335   2.661  2.2268 -1.6210  1.6025
  400MOL0     H53943   7.157   5.374   2.824  1.0858 -0.0732  0.5120
  400MOL0     H53944   7.249   5.479   2.728 -1.2585  0.4830 -1.5880
  400MOL0     H53945   7.116   5.628   2.871  1.4886 -0.6061  0.5568
  400MOL0     H53946   7.041   5.649   2.715 -2.1870 -0.0917  0.0788
  400MOL0     H53947   6.968   5.480   2.949  2.4392  0.8104 -0.5369
  400MOL0     H53948   6.875   5.460   2.793 -1.1921 -0.0133  0.8952
  400MOL0     H53949   6.906   5.710   2.957  2.8781 -0.9096 -1.1022
  400MOL0     H53950   6.805   5.704   2.804 -0.6455  1.9760  1.2001
  400MOL0     H53951   6.566   5.553   2.806 -0.5200 -0.9180 -0.1212
  400MOL0     H53952   6.342   5.505   2.918  1.1561 -0.8681 -0.6522
  400MOL0     H53953   6.365   5.420   3.068 -3.0834  1.6437  0.8592
  400MOL0     H53954   6.194   5.585   3.080 -0.1687  2.2556 -2.4756
  400MOL0     H53955   6.335   5.595   3.198  2.8148 -0.1774 -0.7641
  400MOL0     H53956   6.294   5.753   2.946 -0.8932 -4.3959  0.8513
  400MOL0     H53957   6.411   5.789   3.083  0.3059 -1.1230  3.2682
  400MOL0     H53958   6.237   5.954   3.093 -0.1621 -0.0651 -3.1432
  400MOL0     H53959   6.219   5.840   3.227 -0.1523 -1.8737 -1.2651
  400MOL0     H53960   5.895   5.641   3.039 -2.0235  0.1556 -0.9779
  400MOL0     H53961   5.712   5.601   3.175 -1.2058  1.3838 -0.3191
  400MOL0     H53962   5.521   5.563   3.662  0.2889 -0.9986 -0.9741
  400MOL0     H53963   5.323   5.510   3.757  2.3122 -3.2385 -0.4386
  400MOL0     H53964   5.121   5.397   3.769 -0.6971 -0.9369  0.0993
  400MOL0     H53965   5.055   5.554   3.809  1.9457  1.6195 -1.9668
  400MOL0     H53966   4.825   5.446   3.727  1.4147  1.1548  1.6251
  400MOL0     H53967   4.919   5.297   3.695  1.9191 -0.0335  0.4501
  400MOL0     H53968   4.990   5.297   3.939  1.1131 -0.7844 -2.0859
  400MOL0     H53969   4.873   5.436   3.960 -2.1569 -1.9092  0.1603
  400MOL0     H53970   4.802   5.146   3.881 -1.8948 -1.5397  1.0024
  400MOL0     H53971   4.690   5.281   3.872  1.9291 -0.3345 -3.2635
  400MOL0     H53972   4.819   5.183   4.133 -0.5158 -0.9406  0.5994
  400MOL0     H53973   4.659   5.154   4.073 -0.4374  0.6320 -1.1835
  400MOL0     H53974   4.747   5.419   4.164 -2.4644  2.0361 -0.5178
  400MOL0     H53975   4.602   5.397   4.081 -0.8641 -0.5496  0.1516
  400MOL0     H53976   4.676   5.203   4.306 -0.7728 -3.2760 -1.8089
  400MOL0     H53977   4.513   5.229   4.234  0.2402  0.8695  2.5261
  400MOL0     H53978   4.523   5.319   4.448 -0.9609 -1.1700 -3.0873
  400MOL0     H53979   4.655   5.432   4.396 -1.1300  2.0327  0.1943
  400MOL0     H53980   5.139   5.584   3.351  1.7532 -0.1142 -1.1684
  400MOL0     H53981   5.364   5.608   3.269 -0.0470 -1.2326  0.4128
  400MOL0     H53982   5.856   5.900   3.457  1.5508  3.7700 -2.2779
  400MOL0     H53983   6.032   5.952   3.291 -1.9053  1.3731 -0.2530
  400MOL0     H53984   7.308   5.319   2.033 -0.5223  1.1875 -1.0404
  400MOL0     H53985   7.418   5.476   1.866 -0.1258  2.9614 -0.2244
  400MOL0     H53986   7.628   5.870   1.765  0.4130  2.8344 -2.0509
  400MOL0     H53987   7.795   6.031   1.656 -0.6387 -1.2161  0.4193
  400MOL0     H53988   8.118   6.041   1.791 -5.2332 -2.8577 -1.8385
  400MOL0     H53989   8.111   6.175   1.682 -1.8979  0.3778  4.0034
  400MOL0     H53990   8.263   6.010   1.519 -1.1408 -0.3794  0.2525
  400MOL0     H53991   8.331   5.991   1.688  2.4815  0.7182 -1.8302
  400MOL0     H53992   8.325   6.254   1.680 -1.0385 -0.7748  0.0456
  400MOL0     H53993   8.325   6.227   1.504 -0.7611  1.7767 -0.1422
  400MOL0     H53994   8.540   6.271   1.563 -3.6867 -0.2459 -2.3621
  400MOL0     H53995   8.542   6.145   1.696  0.7504  1.7870  0.0190
  400MOL0     H53996   8.640   5.938   1.348 -4.3076 -0.7266 -1.6770
  400MOL0     H53997   8.104   5.757   1.687 -0.1785  2.0429 -0.4869
  400MOL0     H53998   8.067   5.534   1.755 -0.1769 -1.1966  1.1422
  400MOL0     H53999   7.964   5.537   1.906  1.4994  0.2013  0.5340
  400MOL0     H54000   7.907   5.463   1.749  1.3032 -0.5416 -0.2652
  401MOL0     O54001   7.971   9.568   6.594 -0.8112 -0.7999  1.0193
  401MOL0     C54002   7.905   9.477   6.554 -0.6001 -0.4716  0.5665
  401MOL0     O54003   7.892   9.435   6.425  1.1334  0.2821  0.2400
  401MOL0     C54004   7.929   9.515   6.324  0.4428 -0.2063  0.3331
  401MOL0     C54005   8.050   9.497   6.256  0.3350 -0.2236 -0.3867
  401MOL0     C54006   8.092   9.576   6.147  0.2087  0.6966  0.2423
  401MOL0     C54007   7.991   9.662   6.093 -0.8468  0.1328 -0.0648
  401MOL0     O54008   8.020   9.745   5.978  0.0121 -0.2400  0.1975
  401MOL0     C54009   8.153   9.750   5.922 -0.0980  0.8244  0.5092
  401MOL0     C54010   8.266   9.829   5.983 -0.1493  0.4811  0.0505
  401MOL0     C54011   8.382   9.848   5.881 -0.3481  0.0555  0.1304
  401MOL0     C54012   8.470   9.722   5.869  0.8355 -0.7136  0.0192
  401MOL0     C54013   8.603   9.758   5.797 -0.2543 -0.1092 -0.0056
  401MOL0     C54014   8.685   9.622   5.776  0.1488 -0.4828 -0.6479
  401MOL0     C54015   8.803   9.647   5.677 -0.3713 -0.4427 -0.4062
  401MOL0     C54016   8.902   9.526   5.683 -0.3114 -0.2677 -0.2449
  401MOL0     N54017   9.032   9.554   5.606  0.5593  0.4173 -0.0045
  401MOL0     C54018   9.145   9.472   5.584  0.2804  0.1892 -0.6667
  401MOL0     C54019   9.235   9.543   5.510 -0.5385 -0.1924 -0.7613
  401MOL0     C54020   9.373   9.493   5.484 -0.8460  0.1649 -0.4598
  401MOL0     C54021   9.387   9.351   5.422 -0.3226 -0.0148 -0.2285
  401MOL0     C54022   9.540   9.309   5.424  0.6566 -0.3894  0.9197
  401MOL0     C54023   9.585   9.256   5.560  0.2255  0.9105 -0.5153
  401MOL0     O54024   9.721   9.203   5.552 -0.1980  0.1187 -1.1836
  401MOL0     C54025   9.804   9.195   5.659 -0.0966  0.8809  0.8407
  401MOL0     C54026   9.948   9.196   5.630  0.1712 -0.2416  0.1645
  401MOL0     C54027  10.047   9.198   5.737  0.2741 -0.1467 -0.1706
  401MOL0     C54028   9.997   9.206   5.870 -0.1640 -0.2529 -0.1599
  401MOL0     C54029  10.094   9.196   5.981  0.3921 -0.3031  0.4249
  401MOL0     O54030  10.034   9.201   6.102  0.0431  0.2658 -0.4573
  401MOL0     C54031  10.110   9.201   6.216  0.2777 -0.0440 -0.3866
  401MOL0     C54032  10.055   9.256   6.329 -0.9458  0.0991 -0.0605
  401MOL0     C54033  10.132   9.248   6.449 -0.5719  1.0192  0.0415
  401MOL0     C54034  10.245   9.173   6.459 -0.2078 -0.0632  0.2827
  401MOL0     O54035  10.319   9.164   6.575  0.0867 -0.8231 -0.3901
  401MOL0     C54036  10.356   9.289   6.639 -0.3071 -0.1283 -0.1759
  401MOL0     C54037  10.499   9.255   6.679 -0.4068 -0.0872 -0.1440
  401MOL0     C54038  10.607   9.240   6.576 -0.7212  0.3216  0.0832
  401MOL0     C54039  10.649   9.369   6.500  0.2952  0.7499  0.1427
  401MOL0     C54040  10.773   9.328   6.426  0.2254 -0.7337  0.8065
  401MOL0     C54041  10.827   9.442   6.338 -1.1594  0.6270  0.2590
  401MOL0     C54042  10.897   9.551   6.414  0.0891  0.1456 -0.0803
  401MOL0     C54043  10.913   9.686   6.341  0.2925  0.9579  1.0314
  401MOL0    Cl54044  10.759   9.765   6.313 -0.1699  0.2156 -0.3437
  401MOL0     C54045  10.288   9.093   6.354  0.3007  0.1605 -0.2461
  401MOL0     C54046  10.212   9.109   6.239  0.2206  0.5937 -0.0400
  401MOL0     O54047  10.212   9.203   5.956 -0.3932 -1.0317  0.1321
  401MOL0     C54048   9.857   9.219   5.893 -0.2827  0.1024 -0.2780
  401MOL0     C54049   9.760   9.208   5.791  0.1199 -0.2263  0.6056
  401MOL0     N54050   9.179   9.666   5.485 -0.3974 -1.1286 -0.2080
  401MOL0     N54051   9.060   9.672   5.540 -0.2899  0.0342  0.5268
  401MOL0     C54052   7.876   9.681   6.165  0.5070 -0.1720 -0.0614
  401MOL0     C54053   7.841   9.609   6.280 -0.1821 -0.8828  1.7771
  401MOL0     C54054   7.850   9.386   6.650  0.6749 -0.6792  0.3931
  401MOL0     C54055   7.720   9.337   6.620 -0.6497 -0.5686  0.0327
  401MOL0     C54056   7.662   9.248   6.704  0.5680 -0.2654 -0.2452
  401MOL0     C54057   7.730   9.212   6.824  0.0755 -0.1056  0.1978
  401MOL0     O54058   7.675   9.116   6.909 -0.1519  0.2520  0.1313
  401MOL0     C54059   7.528   9.100   6.915 -0.1335 -0.1632 -0.1978
  401MOL0     C54060   7.499   9.049   7.053 -0.6717 -1.1720  0.4583
  401MOL0     C54061   7.366   8.975   7.079 -0.9850  0.4853  0.4604
  401MOL0     C54062   7.340   8.963   7.234 -0.1338  0.2318  0.9969
  401MOL0     C54063   7.269   9.086   7.291 -0.8741  0.1124  0.1207
  401MOL0     C54064   7.199   9.182   7.324  0.1273  0.3175  0.1226
  401MOL0     C54065   7.860   9.250   6.852 -0.0719 -0.8143  0.3032
  401MOL0     C54066   7.914   9.350   6.773 -0.5288  0.3515 -0.2632
  401MOL0     C54067   8.052   9.411   6.819  0.4418  0.1201  0.3332
  401MOL0     H54068   8.106   9.411   6.292 -0.4768  0.1210  1.8920
  401MOL0     H54069   8.192   9.557   6.110 -0.4811 -0.8852 -0.9246
  401MOL0     H54070   8.197   9.651   5.904  0.6225  0.9745  1.3419
  401MOL0     H54071   8.128   9.802   5.830 -0.3584 -0.6150 -0.2549
  401MOL0     H54072   8.307   9.777   6.069  1.0434  0.8395 -0.2789
  401MOL0     H54073   8.219   9.925   6.009  3.1882  2.3267 -0.1970
  401MOL0     H54074   8.447   9.929   5.917 -1.3360  0.0241  2.1365
  401MOL0     H54075   8.353   9.885   5.782  4.5862  1.4895 -1.0606
  401MOL0     H54076   8.503   9.679   5.964  1.6071 -2.4378 -0.9890
  401MOL0     H54077   8.416   9.639   5.823 -3.1391  0.2057  2.5132
  401MOL0     H54078   8.585   9.817   5.707 -3.4282  0.6400  0.9863
  401MOL0     H54079   8.656   9.821   5.869 -0.3331 -2.7296  2.5310
  401MOL0     H54080   8.720   9.583   5.872  2.6117  0.2984 -1.1527
  401MOL0     H54081   8.629   9.542   5.727  1.1351 -1.0797 -0.8203
  401MOL0     H54082   8.853   9.737   5.712  0.8710 -1.3091  0.1299
  401MOL0     H54083   8.760   9.654   5.576  0.3854  0.3994 -0.6835
  401MOL0     H54084   8.916   9.501   5.788  2.0201  1.3718 -0.0810
  401MOL0     H54085   8.856   9.440   5.634  4.2189 -2.6620 -0.8276
  401MOL0     H54086   9.154   9.369   5.618 -2.7062 -0.0197 -0.2830
  401MOL0     H54087   9.427   9.560   5.416 -1.2443  1.4302  0.4363
  401MOL0     H54088   9.422   9.490   5.581 -1.6527  2.3825  0.0791
  401MOL0     H54089   9.330   9.268   5.467 -0.8887  0.5913  0.2035
  401MOL0     H54090   9.342   9.349   5.322  0.5195 -3.8816 -0.7135
  401MOL0     H54091   9.603   9.393   5.393 -2.7343  1.3439 -1.9346
  401MOL0     H54092   9.559   9.234   5.347  0.4033  0.7468 -0.2656
  401MOL0     H54093   9.527   9.169   5.593  2.5996  0.0946  1.7985
  401MOL0     H54094   9.567   9.333   5.636 -1.5252  0.7440 -0.7138
  401MOL0     H54095   9.986   9.203   5.528 -1.1149 -2.3528 -0.5213
  401MOL0     H54096  10.154   9.196   5.721  0.3093  3.9788 -1.8330
  401MOL0     H54097   9.964   9.314   6.316  0.2773  1.7422 -1.8363
  401MOL0     H54098  10.097   9.305   6.534 -3.4253 -0.2036 -0.2099
  401MOL0     H54099  10.350   9.373   6.569  3.0603  0.5607  0.1917
  401MOL0     H54100  10.301   9.309   6.731  1.5465  2.8219  0.4174
  401MOL0     H54101  10.541   9.332   6.744  1.6313 -2.8670  2.1407
  401MOL0     H54102  10.501   9.164   6.741  0.1694 -0.0253 -0.0647
  401MOL0     H54103  10.695   9.206   6.630 -1.3929  1.3697  1.9005
  401MOL0     H54104  10.567   9.164   6.507  0.6796  0.1944 -0.6372
  401MOL0     H54105  10.657   9.457   6.565  2.9502  2.6598 -2.5432
  401MOL0     H54106  10.572   9.391   6.426  1.1732 -1.9159 -1.7324
  401MOL0     H54107  10.742   9.249   6.357  2.1653 -0.5762 -0.3088
  401MOL0     H54108  10.853   9.295   6.493  0.4275 -2.1468 -0.0815
  401MOL0     H54109  10.909   9.394   6.283 -0.8477 -0.4942  1.6384
  401MOL0     H54110  10.758   9.483   6.264  1.4401  1.6849 -1.7562
  401MOL0     H54111  10.997   9.514   6.440 -0.0197 -1.1134 -1.3329
  401MOL0     H54112  10.851   9.567   6.512 -2.5247 -1.1780 -1.0046
  401MOL0     H54113  10.986   9.749   6.394  3.0833 -2.0300  1.0738
  401MOL0     H54114  10.955   9.668   6.242  0.4241  3.8137  0.4728
  401MOL0     H54115  10.375   9.027   6.355 -1.0482 -1.6779  0.0427
  401MOL0     H54116  10.234   9.033   6.164  0.5170  1.0515 -0.4231
  401MOL0     H54117   9.821   9.224   5.996  0.6149  2.3679 -0.0017
  401MOL0     H54118   9.658   9.185   5.818 -0.2347 -0.4054 -0.8130
  401MOL0     H54119   7.803   9.756   6.135 -0.8854 -1.5714 -0.3348
  401MOL0     H54120   7.748   9.622   6.334 -1.4569  1.1786 -0.7137
  401MOL0     H54121   7.672   9.373   6.530  0.2161  0.8946  0.1197
  401MOL0     H54122   7.567   9.203   6.676  0.3260  0.7731 -1.1930
  401MOL0     H54123   7.487   9.024   6.847 -1.6627 -0.0381  0.5405
  401MOL0     H54124   7.472   9.191   6.893 -0.7422 -0.3533  0.4873
  401MOL0     H54125   7.517   9.132   7.122 -1.7392  0.4546 -1.1575
  401MOL0     H54126   7.585   8.985   7.072  0.3051  0.5045  1.9941
  401MOL0     H54127   7.376   8.879   7.027 -1.9020  1.8352 -2.3882
  401MOL0     H54128   7.278   9.030   7.044 -1.0101  0.6061  0.7092
  401MOL0     H54129   7.276   8.877   7.255 -4.9325  2.5611 -2.0742
  401MOL0     H54130   7.434   8.948   7.288 -0.0818  2.3388  1.5929
  401MOL0     H54131   7.119   9.253   7.333 -0.4437 -0.3670  0.5353
  401MOL0     H54132   7.914   9.222   6.942  1.4178 -0.9976 -0.6229
  401MOL0     H54133   8.132   9.349   6.778 -0.8970 -0.4282 -1.6356
  401MOL0     H54134   8.074   9.511   6.781 -2.2451  1.9425  3.0538
  401MOL0     H54135   8.066   9.416   6.927  0.3128  3.7910  0.3028
  402MOL0     O54136   7.742   8.912   9.873  0.0428 -0.6849  0.1353
  402MOL0     C54137   7.629   8.921   9.925 -0.9821  0.4318  0.9632
  402MOL0     O54138   7.579   8.840  10.023  0.9124 -0.3052  0.1878
  402MOL0     C54139   7.654   8.755  10.087 -0.5218  0.7995  0.2908
  402MOL0     C54140   7.652   8.614  10.059 -0.7312 -0.7673  0.6466
  402MOL0     C54141   7.760   8.529  10.090  0.5131 -0.3484 -0.2383
  402MOL0     C54142   7.872   8.586  10.161  0.4507 -0.6162  0.3666
  402MOL0     O54143   7.974   8.502  10.173 -0.7070  0.0726 -0.2643
  402MOL0     C54144   8.033   8.498  10.303 -0.9328 -0.2994  0.5093
  402MOL0     C54145   8.116   8.373  10.321  0.4630  0.0955 -0.0135
  402MOL0     C54146   8.194   8.333  10.203 -0.5461  1.2379  0.3762
  402MOL0     C54147   8.278   8.212  10.222 -0.6206 -0.6418  0.1822
  402MOL0     C54148   8.359   8.165  10.094 -0.6665 -0.2151  0.1974
  402MOL0     C54149   8.409   8.028  10.134 -1.0957 -0.4932  0.6097
  402MOL0     C54150   8.508   8.023  10.250 -0.1438 -0.8699  0.1819
  402MOL0     C54151   8.549   7.876  10.294  0.6170 -0.5896  0.1162
  402MOL0     N54152   8.612   7.795  10.191  0.0122 -0.6499  1.0129
  402MOL0     C54153   8.565   7.686  10.113 -0.1534 -0.8987  0.2771
  402MOL0     C54154   8.666   7.649  10.042  0.2849 -0.4434  0.5837
  402MOL0     C54155   8.687   7.525   9.951 -1.4394  0.0864  0.2164
  402MOL0     C54156   8.601   7.510   9.828  0.2547  0.2184  0.3673
  402MOL0     C54157   8.641   7.382   9.741  0.3441  0.1407 -0.5052
  402MOL0     C54158   8.564   7.366   9.610 -0.2097  1.1864  0.6998
  402MOL0     O54159   8.642   7.297   9.513  0.3452 -0.4561  0.1040
  402MOL0     C54160   8.582   7.291   9.388  0.2502  0.2372  0.5428
  402MOL0     C54161   8.674   7.278   9.284 -0.8043  0.4493 -0.0509
  402MOL0     C54162   8.622   7.276   9.150  0.0828  0.4121  0.4124
  402MOL0     C54163   8.487   7.301   9.121 -0.4054  0.1489 -0.4073
  402MOL0     C54164   8.442   7.318   8.986  0.2575  0.4383  0.1677
  402MOL0     O54165   8.522   7.372   8.891  0.3677 -0.6445 -0.0223
  402MOL0     C54166   8.457   7.404   8.773 -1.0340  0.3965 -0.7762
  402MOL0     C54167   8.445   7.309   8.680 -2.4310 -0.0070  0.8382
  402MOL0     C54168   8.382   7.350   8.562  0.3032 -1.1023  0.9315
  402MOL0     C54169   8.334   7.481   8.545 -0.1520 -0.5129  0.1130
  402MOL0     O54170   8.262   7.516   8.435 -1.4540 -0.2048 -0.0769
  402MOL0     C54171   8.212   7.645   8.418 -0.0038  0.7778 -0.6751
  402MOL0     C54172   8.157   7.629   8.283 -0.1481 -0.7944 -0.3482
  402MOL0     C54173   8.047   7.524   8.274 -0.3142  0.3310  0.5405
  402MOL0     C54174   7.975   7.540   8.137  0.5122  0.1701 -0.4430
  402MOL0     C54175   7.870   7.426   8.136  0.0457 -0.0062 -0.4571
  402MOL0     C54176   7.783   7.401   8.009 -0.6997 -0.2925 -0.7004
  402MOL0     C54177   7.632   7.372   8.044 -0.3903  0.2113  0.2074
  402MOL0     C54178   7.556   7.295   7.931  0.4557  0.0946 -0.0863
  402MOL0    Cl54179   7.566   7.382   7.782 -0.2551 -0.0184  0.0134
  402MOL0     C54180   8.337   7.576   8.652 -1.4321  0.4715  0.2527
  402MOL0     C54181   8.399   7.533   8.771  0.9063 -0.3900  0.0681
  402MOL0     O54182   8.328   7.279   8.965  0.0225  0.0786  1.2493
  402MOL0     C54183   8.390   7.308   9.236 -0.7437  0.3737  1.2233
  402MOL0     C54184   8.441   7.305   9.362 -0.2928 -0.4729  0.2434
  402MOL0     N54185   8.771   7.736  10.076 -0.0248  0.0902 -0.7348
  402MOL0     N54186   8.740   7.818  10.159  0.8527 -0.1063  0.4271
  402MOL0     C54187   7.869   8.713  10.205  0.3556 -0.3893  0.6469
  402MOL0     C54188   7.766   8.802  10.157  0.4532  0.0741 -0.2068
  402MOL0     C54189   7.543   9.034   9.887  0.3057 -0.3477  0.3865
  402MOL0     C54190   7.433   9.060   9.969  0.2669 -0.2909 -0.2177
  402MOL0     C54191   7.356   9.179   9.942 -0.3475 -0.5703  0.3310
  402MOL0     C54192   7.388   9.258   9.825 -0.3495  0.4748 -0.0810
  402MOL0     O54193   7.334   9.371   9.779  0.1318  0.2762 -0.5115
  402MOL0     C54194   7.236   9.449   9.872 -0.5771  0.2294 -0.8073
  402MOL0     C54195   7.239   9.588   9.825  0.7903  0.7336  0.2221
  402MOL0     C54196   7.136   9.686   9.890 -0.3547  0.3329  0.1821
  402MOL0     C54197   7.150   9.824   9.830 -0.2327  0.0218  0.0055
  402MOL0     C54198   7.279   9.879   9.850 -0.4322  0.9039 -0.2464
  402MOL0     C54199   7.380   9.947   9.856 -0.6636  0.7702 -0.4498
  402MOL0     C54200   7.491   9.222   9.745 -0.8805  0.5144  1.3427
  402MOL0     C54201   7.565   9.104   9.765  0.6704 -0.0479 -0.5314
  402MOL0     C54202   7.666   9.064   9.655  0.6764  0.0958 -0.3203
  402MOL0     H54203   7.567   8.570  10.007 -0.5851  0.6725 -0.8938
  402MOL0     H54204   7.757   8.425  10.059 -0.8955 -0.7540  1.1012
  402MOL0     H54205   8.095   8.588  10.309 -0.9532 -0.3527  2.1031
  402MOL0     H54206   7.954   8.507  10.378 -2.5689 -1.7500 -0.9618
  402MOL0     H54207   8.044   8.291  10.332  1.0590 -0.7028 -1.7591
  402MOL0     H54208   8.190   8.358  10.401  0.5977 -4.6310 -0.7578
  402MOL0     H54209   8.244   8.419  10.157 -3.3300  3.0022  0.3328
  402MOL0     H54210   8.118   8.291  10.135  2.3509 -2.3986 -0.9334
  402MOL0     H54211   8.361   8.246  10.285  0.8485  0.8694 -2.4079
  402MOL0     H54212   8.219   8.132  10.267 -2.4959  0.1455 -0.8003
  402MOL0     H54213   8.290   8.150  10.010 -0.7766 -3.6568  0.7637
  402MOL0     H54214   8.433   8.241  10.063 -1.1295 -1.0487 -3.4877
  402MOL0     H54215   8.323   7.963  10.154 -0.4206 -0.5760  3.7083
  402MOL0     H54216   8.470   7.989  10.052  1.8246  0.1224  2.3815
  402MOL0     H54217   8.456   8.061  10.339 -2.0573  2.1201 -2.0542
  402MOL0     H54218   8.587   8.093  10.225 -0.7497 -1.3321 -3.5829
  402MOL0     H54219   8.625   7.894  10.370 -0.9616  2.3459  1.1800
  402MOL0     H54220   8.464   7.825  10.340 -0.6318 -1.6375 -3.0766
  402MOL0     H54221   8.476   7.625  10.126 -1.7130  1.2286  0.1341
  402MOL0     H54222   8.787   7.543   9.910 -1.5976  0.9072  0.1851
  402MOL0     H54223   8.687   7.431  10.008  0.5721 -1.3009 -1.8719
  402MOL0     H54224   8.496   7.502   9.856  0.4033  0.9531  1.1609
  402MOL0     H54225   8.617   7.598   9.765 -0.1341 -0.7442 -1.1337
  402MOL0     H54226   8.629   7.290   9.799 -0.4009  0.8611  0.5393
  402MOL0     H54227   8.746   7.400   9.718 -0.2613  1.7465 -2.2778
  402MOL0     H54228   8.528   7.457   9.562 -1.6700 -0.7527 -2.1624
  402MOL0     H54229   8.476   7.302   9.620 -0.9301  1.8741 -0.8442
  402MOL0     H54230   8.781   7.258   9.288 -1.0511 -1.3102 -1.2085
  402MOL0     H54231   8.690   7.282   9.065 -0.3870 -1.7283 -0.1675
  402MOL0     H54232   8.488   7.209   8.679 -1.2772  0.3739 -3.0812
  402MOL0     H54233   8.359   7.281   8.481 -2.1714  3.3854 -2.7014
  402MOL0     H54234   8.132   7.669   8.489  0.1158  0.0430 -0.2802
  402MOL0     H54235   8.287   7.724   8.427  0.8506 -0.1210  0.3888
  402MOL0     H54236   8.105   7.724   8.265  0.1581 -0.4141  0.7003
  402MOL0     H54237   8.225   7.609   8.200  0.2385  1.4915 -0.6440
  402MOL0     H54238   8.092   7.426   8.290 -0.3591  0.3592  0.8446
  402MOL0     H54239   7.980   7.538   8.359 -1.9914 -0.8226 -0.5161
  402MOL0     H54240   8.043   7.533   8.052  0.5969  1.1696 -0.4722
  402MOL0     H54241   7.916   7.631   8.126 -0.1199 -0.2598 -0.6836
  402MOL0     H54242   7.810   7.437   8.227  1.4028  0.5213  0.4088
  402MOL0     H54243   7.920   7.330   8.146  1.9564  0.7815 -1.9261
  402MOL0     H54244   7.783   7.481   7.933 -4.9608 -0.2669 -0.9060
  402MOL0     H54245   7.825   7.322   7.946 -1.7851  1.2212 -3.5583
  402MOL0     H54246   7.579   7.465   8.066 -0.9143 -0.6843  3.2431
  402MOL0     H54247   7.609   7.306   8.128 -1.7606 -0.9881 -1.0644
  402MOL0     H54248   7.602   7.196   7.922  1.0260  0.3443  0.0233
  402MOL0     H54249   7.452   7.279   7.960  0.7320 -0.1112  0.8515
  402MOL0     H54250   8.311   7.681   8.638 -0.2895  0.6339 -0.8010
  402MOL0     H54251   8.410   7.602   8.855  2.9396  0.3209 -0.7056
  402MOL0     H54252   8.283   7.314   9.220 -0.6189 -0.9098 -0.2977
  402MOL0     H54253   8.378   7.329   9.447 -0.0985 -1.5210  0.7044
  402MOL0     H54254   7.963   8.742  10.251 -0.4344  0.2173  1.9395
  402MOL0     H54255   7.784   8.906  10.181  0.2136  0.0445  0.1092
  402MOL0     H54256   7.406   9.007  10.060 -0.7290  0.2738 -0.1753
  402MOL0     H54257   7.267   9.217   9.991  0.7563  2.7910  0.0150
  402MOL0     H54258   7.268   9.452   9.976  0.4377 -1.3901 -1.0291
  402MOL0     H54259   7.135   9.407   9.877 -0.9766  1.2402 -0.0516
  402MOL0     H54260   7.226   9.589   9.716  2.0276 -3.1336 -0.1040
  402MOL0     H54261   7.338   9.620   9.856  0.0081  0.3625  3.4302
  402MOL0     H54262   7.157   9.681   9.997  2.5336 -0.7774 -0.3721
  402MOL0     H54263   7.035   9.643   9.885 -0.4197  0.5919 -1.4832
  402MOL0     H54264   7.123   9.821   9.725 -3.2005 -0.4093  0.7011
  402MOL0     H54265   7.079   9.882   9.890 -4.0399 -0.9167 -3.2427
  402MOL0     H54266   7.466  10.007   9.879  0.1258 -1.6909  4.5463
  402MOL0     H54267   7.518   9.264   9.649  2.3775 -0.8566  1.5271
  402MOL0     H54268   7.631   9.114   9.564 -0.6664  2.3005  1.3172
  402MOL0     H54269   7.764   9.104   9.682 -0.3842  2.2309  0.5987
  402MOL0     H54270   7.669   8.957   9.632 -0.9827 -0.0803  0.1545
  403MOL0     O54271   3.718   9.826   7.757 -0.1207  0.5183 -0.2569
  403MOL0     C54272   3.809   9.814   7.667 -0.1026  0.3621 -0.1043
  403MOL0     O54273   3.795   9.759   7.540 -0.1513 -0.2930  0.1754
  403MOL0     C54274   3.678   9.725   7.486  0.0959 -0.5110 -1.1629
  403MOL0     C54275   3.544   9.763   7.527 -0.5932 -0.0713  1.0563
  403MOL0     C54276   3.440   9.705   7.448 -0.3605 -0.0527 -0.6708
  403MOL0     C54277   3.459   9.619   7.342  0.1880  0.0839 -0.8458
  403MOL0     O54278   3.346   9.567   7.286 -0.1823 -0.2126 -0.4517
  403MOL0     C54279   3.292   9.600   7.158 -0.3759  0.5471 -0.6228
  403MOL0     C54280   3.240   9.747   7.150  0.4997  0.5015  0.3894
  403MOL0     C54281   3.201   9.777   7.007 -0.6277 -0.8078  0.0217
  403MOL0     C54282   3.185   9.926   6.973  0.3908  0.2720 -0.8410
  403MOL0     C54283   3.110   9.955   6.837  0.1379 -0.3175 -0.8343
  403MOL0     C54284   3.030  10.091   6.841  0.3831  0.4553  0.0831
  403MOL0     C54285   2.962  10.122   6.706  0.8723  0.0069 -0.7824
  403MOL0     C54286   2.861  10.237   6.712  0.3477  0.3190  0.5524
  403MOL0     N54287   2.781  10.236   6.587 -0.2492 -1.5170 -0.1687
  403MOL0     C54288   2.814  10.311   6.482  0.1158 -0.1682  0.3546
  403MOL0     C54289   2.737  10.267   6.384  0.6811  0.4229  1.1184
  403MOL0     C54290   2.742  10.312   6.240  0.6593 -0.2374  0.0170
  403MOL0     C54291   2.696  10.226   6.128 -0.5700  0.3103  0.0967
  403MOL0     C54292   2.744  10.285   5.993  0.3312  0.8718  0.8775
  403MOL0     C54293   2.887  10.253   5.960 -0.6953 -0.7131  0.2758
  403MOL0     O54294   2.896  10.270   5.824 -0.3513  0.0370  0.2419
  403MOL0     C54295   3.023  10.287   5.768  0.5103 -0.3871 -0.6171
  403MOL0     C54296   3.138  10.253   5.837  0.3191 -0.4622  1.0529
  403MOL0     C54297   3.264  10.252   5.775  0.0531 -0.0836  0.7760
  403MOL0     C54298   3.277  10.295   5.641 -1.2837 -0.4054 -0.2538
  403MOL0     C54299   3.405  10.288   5.567  0.8820  0.3647 -0.0256
  403MOL0     O54300   3.391  10.287   5.428 -0.4136  0.4075 -0.7501
  403MOL0     C54301   3.502  10.244   5.355 -0.2579 -0.0989 -0.2362
  403MOL0     C54302   3.636  10.299   5.362  0.4954  0.0909 -0.4810
  403MOL0     C54303   3.738  10.248   5.282 -0.2595 -0.4385 -0.6637
  403MOL0     C54304   3.716  10.149   5.185 -0.5288 -0.3839  0.2699
  403MOL0     O54305   3.821  10.086   5.115 -0.4843  0.0890  0.0542
  403MOL0     C54306   3.953  10.106   5.160  0.3832 -0.3668 -0.3649
  403MOL0     C54307   4.063  10.024   5.100 -0.1789  0.2766 -0.8663
  403MOL0     C54308   4.115   9.912   5.186  0.7476 -0.5746 -0.0072
  403MOL0     C54309   4.005   9.811   5.229 -0.0266  0.4345 -0.4409
  403MOL0     C54310   4.070   9.689   5.295  0.5034  0.1373 -0.1576
  403MOL0     C54311   3.989   9.627   5.409 -0.0425 -0.0782  0.4551
  403MOL0     C54312   3.856   9.565   5.368 -0.1331 -0.2962  0.7468
  403MOL0     C54313   3.778   9.519   5.496  0.6487 -0.7456 -0.2053
  403MOL0    Cl54314   3.636   9.427   5.439  0.4939  0.3061 -0.0927
  403MOL0     C54315   3.582  10.106   5.162 -0.2657 -0.2247 -0.1151
  403MOL0     C54316   3.480  10.144   5.260 -0.2274  1.0559 -0.5553
  403MOL0     O54317   3.506  10.262   5.631  1.0119 -0.2444 -0.0514
  403MOL0     C54318   3.158  10.349   5.578  0.7482 -1.1585 -0.6995
  403MOL0     C54319   3.035  10.353   5.640  0.0644  0.1509 -0.4703
  403MOL0     N54320   2.681  10.151   6.425 -0.0065  0.0863  0.0463
  403MOL0     N54321   2.703  10.134   6.548 -0.8761 -0.0806  0.0491
  403MOL0     C54322   3.582   9.583   7.301 -0.3791 -0.2096 -0.1982
  403MOL0     C54323   3.688   9.639   7.372  0.3980  0.8003 -0.9009
  403MOL0     C54324   3.930   9.893   7.692 -0.6631  0.2522  0.0663
  403MOL0     C54325   4.005   9.943   7.583 -0.0079  0.3041  0.2352
  403MOL0     C54326   4.119  10.019   7.601  0.5445 -0.4487  0.0818
  403MOL0     C54327   4.160  10.062   7.720 -0.3552  0.0264 -0.6427
  403MOL0     O54328   4.267  10.140   7.730 -0.3576  0.1381  0.4418
  403MOL0     C54329   4.256  10.243   7.818  0.1319 -0.4590  0.3202
  403MOL0     C54330   4.316  10.368   7.746  0.6622  1.2262 -0.4348
  403MOL0     C54331   4.459  10.338   7.709  0.6283  0.0214  0.0427
  403MOL0     C54332   4.541  10.459   7.659  1.4144 -0.0544 -1.5463
  403MOL0     C54333   4.556  10.558   7.767  0.2936  0.1209  0.1934
  403MOL0     C54334   4.555  10.635   7.855  0.5801  0.8318  0.0153
  403MOL0     C54335   4.085  10.020   7.834  0.5695  0.0139  0.2597
  403MOL0     C54336   3.973   9.932   7.827 -0.4407  0.5389  0.0189
  403MOL0     C54337   3.915   9.882   7.963 -0.4090 -0.2264  1.0530
  403MOL0     H54338   3.526   9.817   7.620  0.2998 -0.7706  1.6585
  403MOL0     H54339   3.340   9.713   7.489  0.9488 -2.1353  3.5626
  403MOL0     H54340   3.365   9.592   7.078  0.4520  1.6989 -0.0158
  403MOL0     H54341   3.218   9.524   7.131  0.8445 -0.3514 -1.4939
  403MOL0     H54342   3.324   9.814   7.170  0.2945  0.4512  1.4843
  403MOL0     H54343   3.165   9.776   7.224 -2.0429  0.4260 -1.9739
  403MOL0     H54344   3.108   9.724   6.983 -1.1215 -0.5466  1.2639
  403MOL0     H54345   3.282   9.745   6.941  0.2762 -0.1686  0.7902
  403MOL0     H54346   3.135   9.977   7.055  2.9800  0.5671  0.6614
  403MOL0     H54347   3.285   9.972   6.970  2.0353 -2.9930 -0.6101
  403MOL0     H54348   3.178   9.958   6.751  0.1101  1.6892 -0.8212
  403MOL0     H54349   3.046   9.867   6.826  1.5302 -1.5922  0.6488
  403MOL0     H54350   2.951  10.067   6.913 -0.6130 -1.3111 -1.4930
  403MOL0     H54351   3.081  10.179   6.880  0.5555  0.3801  0.0317
  403MOL0     H54352   2.924  10.028   6.665  4.1341 -1.2067 -1.2730
  403MOL0     H54353   3.040  10.155   6.637  1.1107  0.0542 -0.4917
  403MOL0     H54354   2.788  10.222   6.793 -0.7298 -0.4037 -0.5108
  403MOL0     H54355   2.914  10.332   6.724 -2.8422  2.2700  0.4227
  403MOL0     H54356   2.886  10.393   6.478  1.0402 -0.9912 -0.3669
  403MOL0     H54357   2.684  10.405   6.247  2.2049  0.8602 -1.2119
  403MOL0     H54358   2.846  10.339   6.221 -0.0172  1.8271 -1.1270
  403MOL0     H54359   2.737  10.126   6.145  0.7401  0.5057 -1.6224
  403MOL0     H54360   2.588  10.213   6.124 -0.2351 -3.7798  0.1794
  403MOL0     H54361   2.722  10.391   5.975  0.8833  0.8204 -0.2180
  403MOL0     H54362   2.671  10.235   5.928 -3.2017  3.4883  2.4384
  403MOL0     H54363   2.913  10.149   5.984 -2.7155 -1.5641 -0.9182
  403MOL0     H54364   2.952  10.318   6.019  0.6445 -1.3920 -0.4128
  403MOL0     H54365   3.126  10.218   5.939  0.8700  2.1792  2.1092
  403MOL0     H54366   3.352  10.229   5.835 -0.4042  2.0173  2.3616
  403MOL0     H54367   3.652  10.387   5.424 -2.1934 -0.4951  1.2378
  403MOL0     H54368   3.839  10.286   5.299  0.1341 -0.4383 -2.6909
  403MOL0     H54369   3.965  10.214   5.151 -2.0203  0.0729  0.9815
  403MOL0     H54370   3.950  10.098   5.269 -0.9204  2.0582 -0.1539
  403MOL0     H54371   4.023   9.974   5.012  0.3824  1.2218 -1.6772
  403MOL0     H54372   4.147  10.091   5.081  1.0146 -0.6098  1.0263
  403MOL0     H54373   4.192   9.870   5.120  0.0835  0.2754 -1.3630
  403MOL0     H54374   4.168   9.956   5.271 -0.5148  0.8161  0.1089
  403MOL0     H54375   3.947   9.785   5.140 -1.5727  0.4845  0.5222
  403MOL0     H54376   3.930   9.858   5.293  0.2593  1.4048 -0.7930
  403MOL0     H54377   4.160   9.728   5.343 -0.0673  2.8329 -1.1081
  403MOL0     H54378   4.105   9.622   5.217 -2.5143  1.3915 -2.8046
  403MOL0     H54379   4.043   9.547   5.462  0.1457 -0.3910 -0.1989
  403MOL0     H54380   3.966   9.702   5.485  0.6041  0.1777  0.4084
  403MOL0     H54381   3.886   9.481   5.304  2.0499 -2.1987  4.0115
  403MOL0     H54382   3.803   9.640   5.308  1.5497 -0.4884 -1.0843
  403MOL0     H54383   3.855   9.461   5.547  0.2411 -1.0510  0.0698
  403MOL0     H54384   3.754   9.590   5.575 -0.0581  1.7700 -2.5415
  403MOL0     H54385   3.564  10.060   5.066 -3.6092  1.7872 -0.6232
  403MOL0     H54386   3.389  10.086   5.269  2.7627 -3.8871  2.1207
  403MOL0     H54387   3.181  10.394   5.482  1.7903  0.4681  0.2803
  403MOL0     H54388   2.946  10.385   5.587  0.2126  0.6403 -0.4292
  403MOL0     H54389   3.594   9.514   7.219 -0.4969 -1.2975  0.6805
  403MOL0     H54390   3.791   9.632   7.341  0.9561 -0.8713  1.0590
  403MOL0     H54391   3.984   9.907   7.482  0.3672  2.7379 -0.7716
  403MOL0     H54392   4.175  10.040   7.510 -0.1331  3.3435  0.3853
  403MOL0     H54393   4.317  10.227   7.907  0.1014  3.2980  1.1565
  403MOL0     H54394   4.156  10.267   7.855 -1.0662 -1.8162 -1.8285
  403MOL0     H54395   4.324  10.450   7.817  3.5640  0.7308 -0.0781
  403MOL0     H54396   4.260  10.399   7.657 -0.6156 -0.3103 -0.2237
  403MOL0     H54397   4.460  10.258   7.635  0.0687  1.6251 -1.7739
  403MOL0     H54398   4.512  10.292   7.794  0.6869 -2.6382 -1.3358
  403MOL0     H54399   4.640  10.430   7.622  1.3803 -2.4014 -0.0218
  403MOL0     H54400   4.492  10.508   7.574 -0.5755 -1.6855 -1.4194
  403MOL0     H54401   4.548  10.700   7.940  1.4782  0.5483  0.3197
  403MOL0     H54402   4.118  10.046   7.934 -1.7282 -2.1660  1.7321
  403MOL0     H54403   3.840   9.959   7.984  0.5970  1.1505 -0.2674
  403MOL0     H54404   3.884   9.778   7.951 -0.5989 -0.1780  1.1300
  403MOL0     H54405   3.991   9.888   8.042 -0.7143  0.2116  1.3196
  404MOL0     O54406   8.819   8.381  10.642 -0.1405  0.2320 -0.4140
  404MOL0     C54407   8.899   8.348  10.560  0.3866 -0.2584 -0.5717
  404MOL0     O54408   8.979   8.438  10.491  1.0346 -0.8625 -0.9736
  404MOL0     C54409   9.101   8.411  10.432  0.5131  0.7399  0.5806
  404MOL0     C54410   9.202   8.322  10.472  0.8722 -0.1053 -0.1099
  404MOL0     C54411   9.327   8.320  10.404 -0.1074  0.3375 -0.1698
  404MOL0     C54412   9.328   8.398  10.282  0.0048 -0.5856 -0.7316
  404MOL0     O54413   9.449   8.378  10.221 -0.2252  0.5321 -0.1848
  404MOL0     C54414   9.477   8.455  10.101  0.3956  0.2350 -0.0339
  404MOL0     C54415   9.604   8.385  10.058  0.1226  1.1127 -0.3946
  404MOL0     C54416   9.730   8.404  10.146 -0.0290  0.9289 -0.2956
  404MOL0     C54417   9.799   8.530  10.118 -1.7094 -0.6005  0.3133
  404MOL0     C54418   9.942   8.540  10.174 -0.2582 -0.3021  1.1556
  404MOL0     C54419  10.013   8.675  10.144  0.8047  0.3543 -0.2822
  404MOL0     C54420  10.169   8.676  10.146  0.0348  0.1950  0.5704
  404MOL0     C54421  10.233   8.627  10.010  0.1398 -0.0830 -0.1862
  404MOL0     N54422  10.232   8.485   9.994 -0.4653  0.1377 -0.4621
  404MOL0     C54423  10.170   8.418   9.891 -0.5468  0.4487 -0.3232
  404MOL0     C54424  10.211   8.289   9.907 -0.2622  0.3671  0.0159
  404MOL0     C54425  10.187   8.176   9.812  0.3958  0.7250  0.3215
  404MOL0     C54426  10.123   8.054   9.878  0.3542  0.3132 -0.7542
  404MOL0     C54427  10.007   8.099   9.963  0.5807 -0.2226  0.6050
  404MOL0     C54428   9.918   7.992  10.010  0.0255 -0.2126 -0.5718
  404MOL0     O54429   9.810   8.037  10.082  0.5550 -0.2720 -0.2751
  404MOL0     C54430   9.720   7.945  10.127 -0.3328  1.0796 -0.9291
  404MOL0     C54431   9.719   7.813  10.091 -0.7368  0.3021  0.3183
  404MOL0     C54432   9.638   7.717  10.165  0.5424 -0.3622  0.1123
  404MOL0     C54433   9.543   7.765  10.259 -0.8008 -1.1906  0.5357
  404MOL0     C54434   9.428   7.686  10.305 -0.4718  0.0937  0.2574
  404MOL0     O54435   9.379   7.600  10.211  0.1262 -0.0352  0.0756
  404MOL0     C54436   9.310   7.482  10.245  0.3424 -0.4026 -0.1929
  404MOL0     C54437   9.209   7.450  10.150 -0.0571 -0.6722  0.6401
  404MOL0     C54438   9.117   7.350  10.180 -0.8489  0.4276  0.4174
  404MOL0     C54439   9.130   7.274  10.293  0.4750 -0.3871 -0.4870
  404MOL0     O54440   9.055   7.159  10.324  0.6648  0.4137  0.1269
  404MOL0     C54441   8.920   7.136  10.273 -0.4481 -0.5124 -0.7866
  404MOL0     C54442   8.823   7.087  10.389  0.5808  0.0900 -1.0167
  404MOL0     C54443   8.892   6.973  10.472  0.1581 -0.5325  0.1822
  404MOL0     C54444   8.800   6.964  10.595  0.4324 -0.2405 -0.3202
  404MOL0     C54445   8.851   6.866  10.695  0.3276  0.2145 -0.0659
  404MOL0     C54446   8.961   6.927  10.778 -0.2575 -0.4957  0.6265
  404MOL0     C54447   8.893   7.011  10.893 -0.2198 -0.5706 -0.6601
  404MOL0     C54448   8.822   6.923  10.996  0.5927  0.6515  0.2933
  404MOL0    Cl54449   8.744   7.039  11.105 -0.0289 -0.1029  0.2478
  404MOL0     C54450   9.240   7.296  10.376 -1.0012 -1.1359 -0.1602
  404MOL0     C54451   9.324   7.401  10.352 -0.3129  0.3370 -1.5671
  404MOL0     O54452   9.370   7.721  10.408 -0.0237  0.0948 -0.8548
  404MOL0     C54453   9.537   7.908  10.281 -0.8158  0.7319  0.6640
  404MOL0     C54454   9.635   7.993  10.219 -0.0071  0.7417  0.6770
  404MOL0     N54455  10.285   8.276  10.026  0.1757 -1.5693  0.4779
  404MOL0     N54456  10.306   8.394  10.074  0.3281 -0.1498 -0.4608
  404MOL0     C54457   9.224   8.477  10.232  0.3278 -0.9109  0.7689
  404MOL0     C54458   9.116   8.494  10.312 -0.5018 -0.4364 -0.0170
  404MOL0     C54459   8.903   8.207  10.520  0.2374  0.3500 -0.8576
  404MOL0     C54460   8.892   8.181  10.381  0.3105  1.0474  0.1739
  404MOL0     C54461   8.909   8.054  10.327 -0.1530 -0.0960 -0.0720
  404MOL0     C54462   8.937   7.943  10.412  0.2521 -0.3555  0.4181
  404MOL0     O54463   8.943   7.824  10.354 -0.7419  0.1831 -0.2041
  404MOL0     C54464   9.029   7.727  10.424  0.1373 -0.1234  0.7473
  404MOL0     C54465   8.957   7.631  10.516  0.4977  0.2467 -0.1154
  404MOL0     C54466   9.062   7.539  10.582  0.4041  0.2158  0.1784
  404MOL0     C54467   8.986   7.447  10.677 -0.3831 -0.1068  0.1570
  404MOL0     C54468   9.087   7.370  10.737 -0.0678  0.6683 -0.2399
  404MOL0     C54469   9.164   7.299  10.798 -0.4856  0.5456  0.4935
  404MOL0     C54470   8.935   7.970  10.550 -0.7820 -0.1646 -0.4564
  404MOL0     C54471   8.927   8.097  10.609 -0.5798  0.0281 -1.0735
  404MOL0     C54472   8.936   8.115  10.759  0.3933  0.0436  0.1328
  404MOL0     H54473   9.200   8.261  10.562 -0.3099 -0.5690 -0.4368
  404MOL0     H54474   9.415   8.262  10.431  1.9008  2.2129 -2.1811
  404MOL0     H54475   9.402   8.445  10.022 -0.1978 -0.3105  0.5897
  404MOL0     H54476   9.491   8.563  10.117 -0.7243  0.9639 -3.1631
  404MOL0     H54477   9.632   8.396   9.953 -0.5148 -1.4195 -0.8904
  404MOL0     H54478   9.570   8.281  10.062 -1.3023  1.6011  1.1538
  404MOL0     H54479   9.801   8.320  10.139  1.7638  2.4763 -2.1773
  404MOL0     H54480   9.703   8.398  10.251  0.7033 -1.6861 -0.1657
  404MOL0     H54481   9.814   8.553  10.012 -1.3045 -1.6700  0.1301
  404MOL0     H54482   9.732   8.606  10.160 -3.6232 -3.1012  2.0417
  404MOL0     H54483   9.952   8.520  10.281  0.2573 -1.3951  0.9180
  404MOL0     H54484  10.006   8.470  10.119  0.1508 -2.1008  3.7146
  404MOL0     H54485   9.976   8.708  10.047  0.9342  1.2253 -0.0444
  404MOL0     H54486   9.981   8.755  10.211 -0.1653  1.6515 -2.2131
  404MOL0     H54487  10.203   8.620  10.234 -4.0694 -1.7106  1.1505
  404MOL0     H54488  10.200   8.780  10.162 -3.5086  1.9827 -2.6175
  404MOL0     H54489  10.182   8.679   9.928  0.7935  2.2408  0.8069
  404MOL0     H54490  10.335   8.664  10.000 -0.2146  0.9797 -0.0570
  404MOL0     H54491  10.115   8.460   9.808  0.5806  1.9234 -0.3649
  404MOL0     H54492  10.114   8.204   9.735  0.1999  0.2628  0.3371
  404MOL0     H54493  10.271   8.143   9.750 -1.5615  0.3724 -2.3462
  404MOL0     H54494  10.092   7.984   9.800  1.5711  2.2349 -3.1044
  404MOL0     H54495  10.196   8.009   9.946  0.2220  0.9332 -0.1931
  404MOL0     H54496   9.942   8.167   9.908 -1.5361 -3.5160 -1.2550
  404MOL0     H54497  10.035   8.158  10.051 -1.6553 -1.3666  2.1679
  404MOL0     H54498   9.980   7.935  10.079  0.2854  0.0512 -0.5849
  404MOL0     H54499   9.889   7.940   9.918 -0.3754  0.9204 -1.0994
  404MOL0     H54500   9.790   7.776  10.017 -1.3151  3.2994 -1.9248
  404MOL0     H54501   9.656   7.611  10.149  2.3270 -0.0128 -0.3889
  404MOL0     H54502   9.190   7.499  10.055  0.4459 -4.2336 -1.4823
  404MOL0     H54503   9.042   7.330  10.104 -0.0899  1.4592 -0.6575
  404MOL0     H54504   8.882   7.225  10.222 -1.6899 -1.1904 -1.0716
  404MOL0     H54505   8.928   7.053  10.203  1.6934 -2.0777  1.1454
  404MOL0     H54506   8.796   7.170  10.455  2.8846  0.4960 -0.4747
  404MOL0     H54507   8.733   7.050  10.341  0.0382 -2.0196  1.3760
  404MOL0     H54508   8.920   6.881  10.420  1.4809 -0.6491  1.0638
  404MOL0     H54509   8.987   7.017  10.504 -0.6492  1.8890 -0.5343
  404MOL0     H54510   8.699   6.941  10.559 -0.9232  0.4987  2.6572
  404MOL0     H54511   8.808   7.062  10.644  0.5665  0.8815 -2.4843
  404MOL0     H54512   8.898   6.782  10.644  1.8199  0.9751  0.0145
  404MOL0     H54513   8.769   6.825  10.756  1.1809  0.7548  1.5171
  404MOL0     H54514   9.022   6.844  10.815  1.2381  1.4278  2.7238
  404MOL0     H54515   9.030   6.988  10.719  0.1650 -1.3490  0.2192
  404MOL0     H54516   8.818   7.080  10.853  0.7016 -0.7601 -2.8894
  404MOL0     H54517   8.982   7.058  10.938 -0.1380 -1.6943  0.4016
  404MOL0     H54518   8.746   6.851  10.963 -1.7857  3.2545 -0.3431
  404MOL0     H54519   8.896   6.871  11.058 -0.3361 -0.2819  0.6679
  404MOL0     H54520   9.256   7.242  10.469  1.1519 -1.1099 -0.4690
  404MOL0     H54521   9.391   7.429  10.432 -2.6089  0.5841  0.3996
  404MOL0     H54522   9.460   7.952  10.343 -1.5130 -0.7598  0.8869
  404MOL0     H54523   9.637   8.101  10.233  2.0053  0.7802  0.3429
  404MOL0     H54524   9.228   8.544  10.147  3.3680 -2.1373 -0.1828
  404MOL0     H54525   9.042   8.567  10.282 -1.2172 -1.8795 -1.9361
  404MOL0     H54526   8.868   8.268  10.321 -2.2071  1.8076  2.1332
  404MOL0     H54527   8.895   8.042  10.220 -0.7008  0.7488 -0.1080
  404MOL0     H54528   9.122   7.773  10.461  3.1971 -1.5313 -4.1893
  404MOL0     H54529   9.070   7.670  10.340  1.9754  0.2439  1.3398
  404MOL0     H54530   8.881   7.572  10.464  1.8955 -1.5633 -0.1912
  404MOL0     H54531   8.900   7.681  10.595  1.6425  2.1961 -0.4608
  404MOL0     H54532   9.143   7.599  10.624  0.4248  1.5360 -1.6363
  404MOL0     H54533   9.106   7.464  10.516 -0.3296  0.6989 -0.8905
  404MOL0     H54534   8.923   7.509  10.742 -0.0364  1.4752 -0.9407
  404MOL0     H54535   8.921   7.373  10.629 -0.7173  0.4444 -0.2618
  404MOL0     H54536   9.224   7.231  10.854 -0.5918  0.8660  0.9987
  404MOL0     H54537   8.939   7.889  10.621  0.0095  0.9794  0.8598
  404MOL0     H54538   9.004   8.199  10.775 -0.7936  1.1282 -0.3667
  404MOL0     H54539   8.841   8.127  10.812  0.5667 -0.2044  0.5102
  404MOL0     H54540   8.984   8.026  10.801 -0.8980 -1.2200 -0.9685
  405MOL0     O54541   9.125   3.998   5.048  0.8332  0.2235 -0.0099
  405MOL0     C54542   9.077   3.923   4.963 -0.1059 -0.1035 -0.3335
  405MOL0     O54543   9.135   3.811   4.916  1.1090 -0.7820  1.5438
  405MOL0     C54544   9.273   3.783   4.947  0.4303 -0.3488 -0.3944
  405MOL0     C54545   9.385   3.868   4.909  0.5751  0.3384  0.3873
  405MOL0     C54546   9.516   3.829   4.938 -0.5094  0.5578  0.2722
  405MOL0     C54547   9.541   3.719   5.020  0.2995  0.2065 -0.0087
  405MOL0     O54548   9.671   3.668   5.042  0.0398  0.1670  0.4828
  405MOL0     C54549   9.741   3.641   4.924 -0.1460 -0.3097  0.0331
  405MOL0     C54550   9.823   3.511   4.919 -1.1319 -0.3238  0.4231
  405MOL0     C54551   9.942   3.532   5.000  0.0062 -0.5344 -0.2569
  405MOL0     C54552  10.063   3.453   4.954  0.8914  0.1574 -0.8515
  405MOL0     C54553  10.050   3.296   4.970  0.6630 -0.4141  0.6037
  405MOL0     C54554  10.031   3.243   4.816  0.0356  0.8418 -0.0373
  405MOL0     C54555   9.934   3.126   4.815 -0.5139  0.3340 -0.4946
  405MOL0     C54556   9.930   3.052   4.679 -0.7538 -0.4296  0.3502
  405MOL0     N54557   9.868   3.132   4.574 -0.3856 -0.4869  0.3445
  405MOL0     C54558   9.752   3.205   4.574  1.1159  0.1166  0.2870
  405MOL0     C54559   9.741   3.249   4.445  0.1408 -0.1620 -0.1871
  405MOL0     C54560   9.625   3.337   4.389 -0.8029  0.8315 -0.4474
  405MOL0     C54561   9.534   3.257   4.290  0.3978 -0.3139  0.6388
  405MOL0     C54562   9.383   3.266   4.331 -0.0560 -0.6610  0.1746
  405MOL0     C54563   9.351   3.196   4.463 -0.3432  0.6017  0.2466
  405MOL0     O54564   9.373   3.058   4.437 -0.0564 -0.4396 -0.0537
  405MOL0     C54565   9.442   2.999   4.539  0.0751  0.7094  0.8716
  405MOL0     C54566   9.550   2.919   4.507 -0.5798  0.3054 -0.9433
  405MOL0     C54567   9.619   2.846   4.607  0.5303 -0.0584 -0.2377
  405MOL0     C54568   9.588   2.860   4.742  0.2671 -0.4027 -0.3981
  405MOL0     C54569   9.662   2.794   4.855  1.2461 -0.4468  0.7035
  405MOL0     O54570   9.782   2.745   4.823 -0.4255 -0.4713  0.0722
  405MOL0     C54571   9.860   2.674   4.919 -0.7435 -0.2533 -0.5639
  405MOL0     C54572   9.799   2.581   5.001 -0.5389 -0.2035  0.0902
  405MOL0     C54573   9.876   2.502   5.084 -0.2059  0.2619  0.1648
  405MOL0     C54574  10.020   2.518   5.097  0.0015 -0.5496  0.6991
  405MOL0     O54575  10.098   2.441   5.173  0.5190  0.2799 -0.1883
  405MOL0     C54576  10.057   2.317   5.242 -0.1089  0.1522 -0.4773
  405MOL0     C54577  10.188   2.276   5.309 -0.1313  0.0681  0.3639
  405MOL0     C54578  10.178   2.137   5.365 -0.6303 -0.7703 -0.3028
  405MOL0     C54579  10.260   2.114   5.489  0.0228  0.7224  0.6182
  405MOL0     C54580  10.206   1.992   5.575 -0.2173  0.5295 -0.0375
  405MOL0     C54581  10.299   1.966   5.683  0.3473  0.5761  0.2073
  405MOL0     C54582  10.297   1.821   5.739  1.2018 -0.2043  0.5496
  405MOL0     C54583  10.376   1.818   5.869  0.3973  0.3512  0.1133
  405MOL0    Cl54584  10.356   1.662   5.938  0.0601 -0.1279  0.4104
  405MOL0     C54585  10.084   2.602   5.005  0.7769 -0.6306  0.4454
  405MOL0     C54586   9.999   2.679   4.918 -0.4589  0.4502 -0.0134
  405MOL0     O54587   9.610   2.793   4.968 -0.2055  0.0418  0.1680
  405MOL0     C54588   9.484   2.949   4.772  0.5407  0.1224  0.4181
  405MOL0     C54589   9.413   3.022   4.676  0.6549  0.6827 -0.5114
  405MOL0     N54590   9.862   3.223   4.372 -0.2626 -0.5258  0.1728
  405MOL0     N54591   9.934   3.154   4.456 -0.5846 -0.4989  0.0201
  405MOL0     C54592   9.436   3.640   5.069 -0.9719  0.0695  0.2841
  405MOL0     C54593   9.307   3.668   5.038  0.7841  0.8732  0.8610
  405MOL0     C54594   8.927   3.938   4.912 -0.2387  0.1627 -0.2574
  405MOL0     C54595   8.896   3.875   4.795  0.6470  0.5667  0.0362
  405MOL0     C54596   8.763   3.885   4.738 -1.0242 -0.0892 -0.5395
  405MOL0     C54597   8.672   3.980   4.785  0.4272  0.2481 -0.4106
  405MOL0     O54598   8.545   4.011   4.736 -0.1676 -0.5232 -0.5898
  405MOL0     C54599   8.489   3.905   4.652  0.6624  0.6134  0.7905
  405MOL0     C54600   8.351   3.938   4.604 -0.1367  0.2629 -0.1734
  405MOL0     C54601   8.351   4.058   4.512 -0.1451  0.0310  0.4792
  405MOL0     C54602   8.218   4.121   4.501 -0.1720  0.5745 -0.1791
  405MOL0     C54603   8.205   4.223   4.385  0.2322  0.5397 -0.3133
  405MOL0     C54604   8.201   4.315   4.303  0.8392 -0.6911 -0.4049
  405MOL0     C54605   8.705   4.042   4.904 -0.5609 -0.9995 -1.2300
  405MOL0     C54606   8.831   4.021   4.977 -0.3979  0.2608 -0.2202
  405MOL0     C54607   8.865   4.098   5.101  0.3794 -0.2147  0.0470
  405MOL0     H54608   9.365   3.968   4.872 -2.1024  0.4678  1.8947
  405MOL0     H54609   9.600   3.891   4.911  2.2789 -1.6123  3.1666
  405MOL0     H54610   9.672   3.625   4.841  0.3384  1.1252 -0.6715
  405MOL0     H54611   9.804   3.726   4.899 -0.6180  0.2952  0.8412
  405MOL0     H54612   9.853   3.486   4.817  0.8135 -0.0032  0.8703
  405MOL0     H54613   9.779   3.419   4.959  1.8305 -1.0669  2.3381
  405MOL0     H54614   9.922   3.521   5.106  2.1739 -0.7320  0.1735
  405MOL0     H54615   9.983   3.630   4.975  2.3508 -1.3159  0.2611
  405MOL0     H54616  10.087   3.465   4.848  1.7881 -2.0422 -0.9629
  405MOL0     H54617  10.143   3.488   5.020  0.0096 -1.7451  1.3600
  405MOL0     H54618  10.137   3.249   5.017  1.4382 -0.0111 -0.3797
  405MOL0     H54619   9.967   3.253   5.026  1.2869  0.5872  2.3795
  405MOL0     H54620   9.979   3.328   4.770  3.1800  4.3642  2.3162
  405MOL0     H54621  10.126   3.219   4.767 -0.6374  1.7663 -1.9017
  405MOL0     H54622   9.832   3.150   4.848  0.0905  0.0732  1.7062
  405MOL0     H54623   9.963   3.047   4.886 -0.1024  1.9557  1.2116
  405MOL0     H54624  10.029   3.035   4.636 -0.9030  2.2542 -1.2836
  405MOL0     H54625   9.872   2.960   4.693  0.9286 -1.9844 -2.0878
  405MOL0     H54626   9.681   3.224   4.654 -0.5374  2.3640 -1.6076
  405MOL0     H54627   9.569   3.383   4.470 -1.2037  1.2367 -0.9512
  405MOL0     H54628   9.679   3.421   4.344  0.8757  0.4113  0.6770
  405MOL0     H54629   9.552   3.292   4.188 -1.3598 -3.4357 -0.8913
  405MOL0     H54630   9.565   3.153   4.277  0.9145 -0.0498 -0.3348
  405MOL0     H54631   9.332   3.212   4.251  1.4402 -3.0795  0.7590
  405MOL0     H54632   9.359   3.373   4.337 -0.5506 -0.5233 -2.7521
  405MOL0     H54633   9.250   3.213   4.501 -0.0078  0.0133  1.4404
  405MOL0     H54634   9.420   3.235   4.538 -1.6539  0.7391  1.4288
  405MOL0     H54635   9.575   2.898   4.404 -2.0286  0.0009 -1.2574
  405MOL0     H54636   9.703   2.781   4.581  0.2661 -0.2163 -0.6958
  405MOL0     H54637   9.695   2.574   5.032 -0.5708 -0.4496 -0.0662
  405MOL0     H54638   9.820   2.425   5.138 -0.9040 -1.8735 -3.2960
  405MOL0     H54639   9.977   2.330   5.316 -0.4684 -0.3493 -0.7679
  405MOL0     H54640  10.010   2.241   5.178  3.2427 -1.2265 -1.4856
  405MOL0     H54641  10.268   2.300   5.239  0.4654  0.8509  1.2890
  405MOL0     H54642  10.201   2.355   5.383 -1.5889 -0.0699  0.8069
  405MOL0     H54643  10.074   2.112   5.387 -0.7646  0.0194 -0.0109
  405MOL0     H54644  10.222   2.070   5.290  2.3685  1.3622 -0.6160
  405MOL0     H54645  10.243   2.196   5.559 -1.3965 -1.4058  2.9169
  405MOL0     H54646  10.364   2.114   5.456  0.0682  2.0892  0.7133
  405MOL0     H54647  10.201   1.900   5.516  0.7470  0.5409 -0.1636
  405MOL0     H54648  10.104   2.005   5.611  0.0022  1.7774  0.1912
  405MOL0     H54649  10.402   1.974   5.650  1.1648 -1.4129  2.0540
  405MOL0     H54650  10.281   2.027   5.772 -0.6931 -1.9594  1.8475
  405MOL0     H54651  10.355   1.758   5.670  1.7354  2.1941 -1.3169
  405MOL0     H54652  10.195   1.782   5.751  1.8236 -1.9739  0.3747
  405MOL0     H54653  10.481   1.847   5.861  0.8238 -1.1879 -0.0318
  405MOL0     H54654  10.331   1.893   5.936  1.0830 -0.0139  1.0078
  405MOL0     H54655  10.191   2.615   4.995  0.4434  0.7559 -2.7090
  405MOL0     H54656  10.039   2.740   4.837 -1.0311  0.5690 -0.2169
  405MOL0     H54657   9.453   2.966   4.874 -0.9261 -0.2658  0.0611
  405MOL0     H54658   9.340   3.097   4.702  1.5769  2.4695 -2.6955
  405MOL0     H54659   9.462   3.555   5.131 -2.3244  0.3537  1.2886
  405MOL0     H54660   9.232   3.598   5.072  0.1314  1.0850 -0.1231
  405MOL0     H54661   8.945   3.808   4.725 -2.9680 -0.6432 -1.6005
  405MOL0     H54662   8.747   3.823   4.651  1.1590 -0.3789 -0.7854
  405MOL0     H54663   8.490   3.807   4.700 -1.1746 -0.4416 -1.1288
  405MOL0     H54664   8.549   3.889   4.561 -1.0665  1.4525 -0.5531
  405MOL0     H54665   8.285   3.953   4.690 -1.7530 -1.6841 -0.9893
  405MOL0     H54666   8.307   3.857   4.546  0.5096  0.4240 -0.9077
  405MOL0     H54667   8.370   4.021   4.410 -1.2433  0.8503 -0.0460
  405MOL0     H54668   8.419   4.137   4.543  1.7640  0.3749 -3.8489
  405MOL0     H54669   8.147   4.041   4.477 -3.2280  2.6648  1.2780
  405MOL0     H54670   8.186   4.176   4.589 -1.7146 -1.7270  0.7897
  405MOL0     H54671   8.189   4.403   4.244 -2.0954 -0.8453 -0.1455
  405MOL0     H54672   8.636   4.113   4.948  3.0791  3.7485 -2.4342
  405MOL0     H54673   8.775   4.120   5.160  2.0319  0.6945  2.3841
  405MOL0     H54674   8.920   4.034   5.171  3.6199  0.7389 -1.4569
  405MOL0     H54675   8.931   4.181   5.076 -0.6648  0.9263  0.9054
  406MOL0     O54676   1.220   4.341  10.386  0.3115  0.0439 -0.9065
  406MOL0     C54677   1.254   4.292  10.275 -0.6493  0.1195 -1.0268
  406MOL0     O54678   1.190   4.331  10.154  0.0201  0.0380 -0.4075
  406MOL0     C54679   1.108   4.450  10.158 -1.3880 -0.2674  0.2125
  406MOL0     C54680   1.004   4.452  10.065  0.3223 -0.6325 -0.0696
  406MOL0     C54681   0.925   4.563  10.050 -0.6321 -0.1777  0.9626
  406MOL0     C54682   0.961   4.680  10.124 -0.2179 -0.2328  0.2472
  406MOL0     O54683   0.900   4.794  10.077 -0.2082  0.2629 -0.3796
  406MOL0     C54684   0.905   4.917  10.152  0.7245  0.5305 -0.1345
  406MOL0     C54685   0.760   4.973  10.152 -0.0316 -1.1442 -0.6590
  406MOL0     C54686   0.659   4.900  10.246  0.6920 -0.9669 -0.0815
  406MOL0     C54687   0.657   4.750  10.223  0.1422 -1.2241  0.1618
  406MOL0     C54688   0.512   4.701  10.269 -1.3993  0.6870  0.5071
  406MOL0     C54689   0.474   4.757  10.403  0.5204  0.0074  0.0159
  406MOL0     C54690   0.361   4.693  10.479  0.2336  0.0000  0.7792
  406MOL0     C54691   0.228   4.709  10.398 -0.5901  0.4845 -0.0827
  406MOL0     N54692   0.114   4.663  10.473  0.7700  0.1738 -0.1312
  406MOL0     C54693   0.014   4.581  10.435  0.4034  0.2894  0.0482
  406MOL0     C54694  -0.087   4.608  10.519 -0.4595 -1.1504 -0.0322
  406MOL0     C54695  -0.221   4.534  10.516  0.3224  0.4022 -0.1901
  406MOL0     C54696  -0.230   4.434  10.631 -0.0555  0.1936  0.1693
  406MOL0     C54697  -0.158   4.297  10.603 -0.6527  0.7739 -0.0502
  406MOL0     C54698  -0.158   4.231  10.742 -0.2460  0.3907 -0.5981
  406MOL0     O54699  -0.100   4.301  10.860  0.7498  0.5828 -0.1447
  406MOL0     C54700   0.040   4.321  10.857 -1.3005  1.2904 -0.2360
  406MOL0     C54701   0.103   4.431  10.801  0.3249 -0.1359  0.9791
  406MOL0     C54702   0.246   4.446  10.806  1.0543  0.7910 -0.4218
  406MOL0     C54703   0.325   4.346  10.865  0.1408 -0.4637  0.1710
  406MOL0     C54704   0.466   4.361  10.856  0.4027  0.4266 -0.6452
  406MOL0     O54705   0.508   4.483  10.824 -0.6805 -0.3318  0.4091
  406MOL0     C54706   0.633   4.514  10.777 -0.4067 -1.1913 -0.0244
  406MOL0     C54707   0.655   4.643  10.753 -0.1384 -0.5593 -0.2151
  406MOL0     C54708   0.784   4.692  10.707  0.2641  0.0249 -0.3042
  406MOL0     C54709   0.880   4.603  10.669 -0.1925  0.5790 -0.3126
  406MOL0     O54710   1.002   4.666  10.632  0.2592 -0.7333 -0.7154
  406MOL0     C54711   1.126   4.591  10.619  0.0670  0.5876 -0.5602
  406MOL0     C54712   1.241   4.687  10.589 -0.1102  0.8555 -0.3687
  406MOL0     C54713   1.265   4.771  10.714  0.1957  0.4002 -0.5683
  406MOL0     C54714   1.420   4.813  10.706  0.1639 -1.0395 -1.1520
  406MOL0     C54715   1.478   4.893  10.822 -0.1939 -0.4594 -0.9110
  406MOL0     C54716   1.398   5.015  10.866 -0.5257  0.4441  0.6539
  406MOL0     C54717   1.465   5.115  10.963  0.2509 -0.2132 -0.7124
  406MOL0     C54718   1.450   5.066  11.109  0.7950  0.3262  0.1944
  406MOL0    Cl54719   1.303   5.011  11.180  0.0000  0.2463 -0.5439
  406MOL0     C54720   0.850   4.465  10.694 -0.1294 -0.4880 -0.3812
  406MOL0     C54721   0.731   4.420  10.738 -0.2478 -0.0593  0.3462
  406MOL0     O54722   0.538   4.269  10.880 -0.0996 -0.7892  0.4320
  406MOL0     C54723   0.268   4.231  10.904 -0.0627 -0.1280  0.7487
  406MOL0     C54724   0.127   4.217  10.906  0.2380  0.0878  0.0539
  406MOL0     N54725  -0.042   4.697  10.610 -0.0313  0.1411  0.5415
  406MOL0     N54726   0.081   4.731  10.596  0.4384  0.1801  0.2462
  406MOL0     C54727   1.058   4.681  10.223  0.5050 -0.2261  0.2388
  406MOL0     C54728   1.130   4.562  10.243 -0.6407 -0.5391 -0.2612
  406MOL0     C54729   1.363   4.192  10.272 -0.1671  0.0742 -0.4236
  406MOL0     C54730   1.371   4.098  10.374 -0.1803  0.7456  0.3128
  406MOL0     C54731   1.465   3.987  10.361  1.3308 -0.0064  0.0832
  406MOL0     C54732   1.548   3.982  10.249  0.2261  0.1127  0.0692
  406MOL0     O54733   1.645   3.887  10.227 -0.8359 -0.2904 -0.0279
  406MOL0     C54734   1.697   3.807  10.336  0.3380 -0.3120  0.1654
  406MOL0     C54735   1.818   3.726  10.296  0.3969  0.5348 -0.7264
  406MOL0     C54736   1.778   3.592  10.226 -0.5611 -0.2945  0.3388
  406MOL0     C54737   1.887   3.486  10.231 -0.3104  0.4230 -0.5590
  406MOL0     C54738   1.855   3.375  10.127  0.1157  0.4861 -0.1799
  406MOL0     C54739   1.854   3.289  10.046  0.5772  1.1976  0.4324
  406MOL0     C54740   1.547   4.084  10.155  0.6200 -0.1932  0.6978
  406MOL0     C54741   1.456   4.191  10.161  0.1459 -0.4215  0.4569
  406MOL0     C54742   1.450   4.286  10.034 -0.2855 -0.3517 -0.4423
  406MOL0     H54743   0.982   4.367  10.000 -0.3516  1.2877 -2.5109
  406MOL0     H54744   0.841   4.564   9.981 -0.3378  2.5036  0.5382
  406MOL0     H54745   0.913   4.916  10.261  2.0167  3.2621 -0.1238
  406MOL0     H54746   0.983   4.981  10.109  2.2113 -1.1321 -0.0301
  406MOL0     H54747   0.718   4.968  10.052  1.8998  1.5869 -1.7227
  406MOL0     H54748   0.768   5.078  10.181  0.0425 -0.9644 -1.3233
  406MOL0     H54749   0.565   4.953  10.229  0.9986 -0.5140 -0.3835
  406MOL0     H54750   0.696   4.923  10.347 -0.1642  0.8228 -0.1366
  406MOL0     H54751   0.669   4.717  10.119 -2.5308 -0.7638 -0.3815
  406MOL0     H54752   0.745   4.710  10.274  1.5690  2.1551  0.6444
  406MOL0     H54753   0.446   4.730  10.186 -0.4227  0.7540 -0.2594
  406MOL0     H54754   0.525   4.593  10.279  2.2484  0.8606 -0.7883
  406MOL0     H54755   0.568   4.754  10.461  1.7637  2.3846 -1.7210
  406MOL0     H54756   0.460   4.865  10.411  0.9469 -0.0049  1.2203
  406MOL0     H54757   0.347   4.743  10.576 -2.5325  0.9874 -0.0446
  406MOL0     H54758   0.383   4.587  10.493  0.5557  0.2336  2.2225
  406MOL0     H54759   0.211   4.816  10.381  1.4560  1.4225  3.0818
  406MOL0     H54760   0.236   4.651  10.305  3.2259  0.9713 -0.1925
  406MOL0     H54761  -0.007   4.511  10.355 -0.8338  1.4846 -0.7147
  406MOL0     H54762  -0.306   4.603  10.524 -2.1084 -2.3801 -0.6466
  406MOL0     H54763  -0.224   4.475  10.424  1.4535 -0.2439  0.1655
  406MOL0     H54764  -0.197   4.494  10.717 -0.4959  1.7336 -0.6998
  406MOL0     H54765  -0.336   4.410  10.640 -0.2494  0.8610 -0.2875
  406MOL0     H54766  -0.053   4.324  10.586  0.2304 -1.5749  1.1618
  406MOL0     H54767  -0.210   4.239  10.527  0.2953  0.4008 -0.4370
  406MOL0     H54768  -0.110   4.133  10.734 -2.0305 -0.8143  1.9505
  406MOL0     H54769  -0.260   4.197  10.762 -0.2461  0.0278 -1.2046
  406MOL0     H54770   0.041   4.505  10.753  1.8240  0.6481  0.2067
  406MOL0     H54771   0.287   4.540  10.771 -0.2562  1.0666 -1.2806
  406MOL0     H54772   0.578   4.717  10.773 -0.3026 -0.4437 -1.2173
  406MOL0     H54773   0.808   4.797  10.696 -1.5380  0.4574 -0.2951
  406MOL0     H54774   1.157   4.540  10.710  1.4134  0.6051 -0.9892
  406MOL0     H54775   1.106   4.521  10.537 -2.3417  0.5845 -0.0564
  406MOL0     H54776   1.330   4.633  10.553  1.4258  4.4226 -2.4032
  406MOL0     H54777   1.212   4.751  10.505  0.6213  1.3599 -0.2439
  406MOL0     H54778   1.212   4.867  10.717  0.0458  0.3453 -1.3236
  406MOL0     H54779   1.250   4.721  10.810 -2.5096  0.8811 -0.6671
  406MOL0     H54780   1.438   4.863  10.610 -1.5870 -1.4956 -1.7450
  406MOL0     H54781   1.484   4.725  10.707  0.3461 -0.9482  1.6311
  406MOL0     H54782   1.571   4.927  10.776  0.1638  0.3764  0.3864
  406MOL0     H54783   1.504   4.828  10.906 -0.5919  0.9116  0.3202
  406MOL0     H54784   1.361   5.061  10.775  0.1285 -0.4567 -0.0859
  406MOL0     H54785   1.307   4.981  10.916 -0.9042  1.3935  0.6375
  406MOL0     H54786   1.410   5.208  10.950 -0.0704 -0.5515 -1.8533
  406MOL0     H54787   1.568   5.138  10.937 -0.2112 -0.3422 -2.7999
  406MOL0     H54788   1.518   4.983  11.131  1.2203  0.5316 -0.3162
  406MOL0     H54789   1.487   5.156  11.159  2.2316  1.0459 -2.0425
  406MOL0     H54790   0.937   4.405  10.669 -0.8549 -0.3825 -3.5746
  406MOL0     H54791   0.729   4.312  10.750  4.1306 -0.5336 -1.2927
  406MOL0     H54792   0.329   4.145  10.930 -0.2021 -0.8465 -1.1240
  406MOL0     H54793   0.086   4.141  10.971 -1.2437  0.7776 -0.0395
  406MOL0     H54794   1.080   4.765  10.287  1.1582 -0.2622  0.0693
  406MOL0     H54795   1.211   4.553  10.315  0.5656  1.4736 -1.2873
  406MOL0     H54796   1.296   4.103  10.451 -1.0912 -1.0009 -0.4033
  406MOL0     H54797   1.459   3.917  10.443 -1.6668 -1.5149 -1.2804
  406MOL0     H54798   1.624   3.730  10.360 -0.4312 -0.5096 -2.4683
  406MOL0     H54799   1.721   3.871  10.422  3.1194  2.0370 -2.1330
  406MOL0     H54800   1.873   3.698  10.386  1.5523 -1.6075 -2.0138
  406MOL0     H54801   1.883   3.783  10.229 -0.1856  0.8023 -1.0702
  406MOL0     H54802   1.765   3.625  10.122  0.6169  0.5800  0.4445
  406MOL0     H54803   1.677   3.560  10.253 -1.1938  1.3340  0.0094
  406MOL0     H54804   1.982   3.532  10.200 -0.7817 -0.1660 -3.1631
  406MOL0     H54805   1.884   3.448  10.333 -3.5767  3.1783  0.5491
  406MOL0     H54806   1.838   3.220   9.965 -0.2685  0.6614  1.0452
  406MOL0     H54807   1.618   4.082  10.073  0.3705  2.5985  0.3169
  406MOL0     H54808   1.526   4.257   9.961 -2.6621 -0.0311 -3.2102
  406MOL0     H54809   1.363   4.285   9.968 -0.9321 -1.3724  0.3738
  406MOL0     H54810   1.463   4.388  10.071  1.5386 -1.2857  1.7755
  407MOL0     O54811   1.808   3.260   6.711  0.7037  0.4115  0.4375
  407MOL0     C54812   1.798   3.202   6.602 -0.7368  0.5270 -0.1089
  407MOL0     O54813   1.773   3.264   6.480 -0.1458  0.4889 -0.4238
  407MOL0     C54814   1.773   3.397   6.478  0.5750 -0.2118 -0.1359
  407MOL0     C54815   1.878   3.467   6.424  1.2989  1.1646 -0.1128
  407MOL0     C54816   1.878   3.606   6.439  1.2650 -1.1792 -0.0534
  407MOL0     C54817   1.766   3.678   6.499 -0.8686 -0.5534  0.0081
  407MOL0     O54818   1.777   3.805   6.544 -0.4039  0.1627  0.1668
  407MOL0     C54819   1.849   3.883   6.451  0.4999  0.1255  0.5831
  407MOL0     C54820   1.818   4.035   6.469  0.1908  0.6231  0.2729
  407MOL0     C54821   1.763   4.084   6.601 -0.6956 -0.4014 -0.0973
  407MOL0     C54822   1.614   4.113   6.596 -1.0072  0.3765  0.7390
  407MOL0     C54823   1.567   4.210   6.708  0.3828  0.1237  0.4428
  407MOL0     C54824   1.429   4.274   6.687 -0.4746  0.7549 -0.1968
  407MOL0     C54825   1.373   4.354   6.811 -0.2818 -0.3761 -1.0828
  407MOL0     C54826   1.346   4.281   6.942  0.5871  0.6805 -0.3451
  407MOL0     N54827   1.237   4.185   6.929  0.0915 -0.9886  0.6510
  407MOL0     C54828   1.226   4.063   6.859 -1.2370 -0.3900 -0.5337
  407MOL0     C54829   1.096   4.025   6.865 -1.3864  1.2128 -0.9479
  407MOL0     C54830   1.038   3.922   6.773  0.1173 -0.3055  0.2756
  407MOL0     C54831   0.883   3.904   6.784  0.9348  0.1304  0.1259
  407MOL0     C54832   0.800   4.026   6.746  0.0322 -0.6162 -0.1681
  407MOL0     C54833   0.788   4.045   6.589 -0.8622  0.2110 -0.0066
  407MOL0     O54834   0.733   3.934   6.514  0.0408 -0.9459 -0.0555
  407MOL0     C54835   0.612   3.962   6.456 -1.1579  0.2408  0.2817
  407MOL0     C54836   0.504   3.899   6.507  0.2973 -0.2252  0.7692
  407MOL0     C54837   0.381   3.915   6.443 -0.1156  0.8547  0.4763
  407MOL0     C54838   0.364   3.989   6.332  0.9505  0.0315  0.8442
  407MOL0     C54839   0.230   4.020   6.273 -0.7115  0.3089  0.2395
  407MOL0     O54840   0.123   3.947   6.291  0.4412 -0.0516  0.1051
  407MOL0     C54841  -0.003   3.984   6.247  0.3443  0.4411 -0.1489
  407MOL0     C54842  -0.078   4.081   6.324  0.2964 -0.1943 -0.3028
  407MOL0     C54843  -0.212   4.117   6.290  0.0310 -0.4902 -0.8822
  407MOL0     C54844  -0.275   4.040   6.186  0.8074 -0.1626  0.2238
  407MOL0     O54845  -0.414   4.054   6.156 -0.6934 -0.4566 -0.4222
  407MOL0     C54846  -0.502   4.071   6.270  0.2766 -0.8420 -0.3591
  407MOL0     C54847  -0.645   4.008   6.244 -0.3203 -0.0589 -0.0391
  407MOL0     C54848  -0.710   4.096   6.133 -0.2924 -0.4381 -0.2792
  407MOL0     C54849  -0.836   4.034   6.083  0.1619  0.1042  0.1713
  407MOL0     C54850  -0.894   4.139   5.987  0.6104  0.2248  0.0523
  407MOL0     C54851  -1.037   4.094   5.944 -0.0142 -0.8208 -0.1669
  407MOL0     C54852  -1.146   4.102   6.053 -0.0811 -0.1705 -1.0985
  407MOL0     C54853  -1.174   4.236   6.110  0.0370  0.1557  0.6428
  407MOL0    Cl54854  -1.297   4.326   6.009  0.4656 -0.2250  0.3919
  407MOL0     C54855  -0.199   3.953   6.113  0.1448 -0.2467 -0.0756
  407MOL0     C54856  -0.070   3.920   6.151 -0.0697  0.1627 -0.0732
  407MOL0     O54857   0.233   4.122   6.201  0.2465  0.0821 -0.4755
  407MOL0     C54858   0.480   4.043   6.268  0.3464 -0.7654 -0.4443
  407MOL0     C54859   0.603   4.024   6.331 -0.1786  0.1437  0.2828
  407MOL0     N54860   1.029   4.116   6.938 -0.8225  0.0143 -0.9203
  407MOL0     N54861   1.113   4.208   6.982 -0.6538 -0.4069 -0.0121
  407MOL0     C54862   1.658   3.604   6.530  0.2085 -0.3329 -0.2403
  407MOL0     C54863   1.659   3.462   6.518 -0.4984  0.5657 -0.2396
  407MOL0     C54864   1.806   3.052   6.615  0.3939  0.0096 -0.1151
  407MOL0     C54865   1.865   2.983   6.507  0.7716 -0.9079  0.0082
  407MOL0     C54866   1.892   2.845   6.506 -0.2715 -0.3450  0.3758
  407MOL0     C54867   1.869   2.776   6.626  0.0848 -0.1710  0.0384
  407MOL0     O54868   1.893   2.637   6.646  0.1293  0.4629 -0.5704
  407MOL0     C54869   1.929   2.541   6.542 -0.8440 -0.1519 -0.3799
  407MOL0     C54870   2.085   2.530   6.527  0.2474  1.5143 -0.3382
  407MOL0     C54871   2.127   2.470   6.394  0.1235 -0.2221  0.0903
  407MOL0     C54872   2.186   2.581   6.301 -0.4428 -0.2886 -0.4441
  407MOL0     C54873   2.076   2.654   6.235 -0.5269  0.4351  0.5036
  407MOL0     C54874   1.982   2.707   6.182 -0.3842  0.7509  0.1593
  407MOL0     C54875   1.811   2.843   6.739  0.1098 -0.2672  0.8437
  407MOL0     C54876   1.776   2.982   6.740  0.4584 -0.5544  0.7216
  407MOL0     C54877   1.695   3.028   6.858  0.1041  0.4598  0.1319
  407MOL0     H54878   1.958   3.404   6.386 -0.1886 -1.0359  0.2210
  407MOL0     H54879   1.977   3.642   6.411  0.7545  2.1201  1.8602
  407MOL0     H54880   1.956   3.862   6.454  0.3550 -0.5735  1.2991
  407MOL0     H54881   1.816   3.860   6.349  2.9778  3.1426 -1.0954
  407MOL0     H54882   1.749   4.064   6.389 -1.4871  0.5043  1.6335
  407MOL0     H54883   1.913   4.088   6.457  0.7362  0.4777  3.3103
  407MOL0     H54884   1.820   4.168   6.641 -0.1906 -0.1686 -1.2591
  407MOL0     H54885   1.790   4.012   6.678  2.3906 -0.6897 -1.3011
  407MOL0     H54886   1.594   4.163   6.501  1.0609  0.2083  0.1846
  407MOL0     H54887   1.550   4.024   6.591 -1.3051  0.6804 -1.9338
  407MOL0     H54888   1.585   4.148   6.796  0.0551 -0.9650 -0.2308
  407MOL0     H54889   1.639   4.292   6.703  3.1628 -2.1288  0.6537
  407MOL0     H54890   1.436   4.328   6.592  1.1017 -0.6544 -0.9230
  407MOL0     H54891   1.358   4.191   6.682  0.0719  0.2276  0.6942
  407MOL0     H54892   1.288   4.413   6.775  1.2155  0.4048 -3.6159
  407MOL0     H54893   1.447   4.430   6.838  1.6823 -2.8224  0.9360
  407MOL0     H54894   1.425   4.212   6.971 -0.1568  0.0511  0.2206
  407MOL0     H54895   1.331   4.350   7.025  0.4913 -0.0510  0.2599
  407MOL0     H54896   1.303   3.993   6.829  0.8745  0.6809  2.0005
  407MOL0     H54897   1.063   3.963   6.675 -2.1064  3.2009  0.9869
  407MOL0     H54898   1.086   3.829   6.806 -1.2224 -2.0842 -2.3929
  407MOL0     H54899   0.857   3.833   6.705  0.2862  1.1728 -0.6218
  407MOL0     H54900   0.855   3.858   6.879  2.4108 -2.0655 -0.4317
  407MOL0     H54901   0.834   4.116   6.798 -1.7587 -0.2560  0.4605
  407MOL0     H54902   0.696   4.013   6.779  0.5646 -2.3902  0.8832
  407MOL0     H54903   0.881   4.089   6.552 -2.0559  3.5189  0.5787
  407MOL0     H54904   0.718   4.128   6.572 -1.3060  0.2963  1.9329
  407MOL0     H54905   0.514   3.844   6.600 -1.6678 -2.8940 -0.4526
  407MOL0     H54906   0.299   3.866   6.495  0.1661  1.2605  1.3276
  407MOL0     H54907  -0.035   4.126   6.413 -1.5810  0.8350  0.1338
  407MOL0     H54908  -0.270   4.198   6.334 -0.1415  0.3286 -2.5488
  407MOL0     H54909  -0.452   4.033   6.360  1.3386 -0.1927 -0.6547
  407MOL0     H54910  -0.516   4.180   6.270  0.3409 -0.7743  2.1806
  407MOL0     H54911  -0.624   3.904   6.215 -1.7777 -0.6728  0.9981
  407MOL0     H54912  -0.704   4.012   6.336  0.1615  2.9266  0.2215
  407MOL0     H54913  -0.728   4.198   6.167  0.0783  0.0204 -1.4368
  407MOL0     H54914  -0.641   4.117   6.051  0.3721  0.2341  0.4275
  407MOL0     H54915  -0.898   4.019   6.172  0.8333  0.3445  0.6822
  407MOL0     H54916  -0.812   3.938   6.036  0.2787 -0.6582  1.7384
  407MOL0     H54917  -0.823   4.128   5.904  0.5559 -2.6609  0.2838
  407MOL0     H54918  -0.906   4.238   6.030 -0.2951  0.1488 -0.0072
  407MOL0     H54919  -1.069   4.162   5.864 -0.4875 -1.4511 -0.5211
  407MOL0     H54920  -1.018   4.001   5.889  0.9165 -0.0861 -1.1345
  407MOL0     H54921  -1.113   4.044   6.140  1.7000  3.2233  0.7087
  407MOL0     H54922  -1.239   4.055   6.020  0.8806 -2.6258 -0.5094
  407MOL0     H54923  -1.216   4.238   6.211 -1.3621  2.5296  0.0864
  407MOL0     H54924  -1.081   4.292   6.118 -0.6939  1.4033  0.5967
  407MOL0     H54925  -0.251   3.899   6.034 -1.8363  0.0608  0.9618
  407MOL0     H54926  -0.027   3.834   6.102 -4.3019 -2.8276  0.9177
  407MOL0     H54927   0.469   4.102   6.177  0.6225  0.9281  0.5717
  407MOL0     H54928   0.688   4.064   6.276  0.3022 -0.6603  0.4230
  407MOL0     H54929   1.572   3.654   6.572  1.1223 -1.1520  2.8641
  407MOL0     H54930   1.576   3.397   6.545  2.6133 -2.8431  2.0259
  407MOL0     H54931   1.895   3.027   6.413  0.9413 -1.5522 -0.2481
  407MOL0     H54932   1.948   2.806   6.422  2.5284  0.5136  1.7195
  407MOL0     H54933   1.891   2.577   6.446  0.5466  1.4632 -0.3816
  407MOL0     H54934   1.874   2.450   6.568  1.8637 -1.9668 -0.6348
  407MOL0     H54935   2.128   2.475   6.611 -0.9501 -0.9790 -1.2685
  407MOL0     H54936   2.126   2.632   6.525  0.7694  1.3008 -1.6551
  407MOL0     H54937   2.050   2.401   6.358  0.3927  0.3452 -1.6842
  407MOL0     H54938   2.217   2.409   6.407  0.5573  0.6121  1.2011
  407MOL0     H54939   2.254   2.643   6.359  0.8362 -2.3988  0.4083
  407MOL0     H54940   2.256   2.542   6.227  0.1391 -1.0638  0.5058
  407MOL0     H54941   1.904   2.757   6.128  1.2699  0.8036 -2.3603
  407MOL0     H54942   1.791   2.792   6.833 -1.6749 -0.8608  0.2041
  407MOL0     H54943   1.760   3.045   6.943 -0.4541 -0.1292  0.6898
  407MOL0     H54944   1.629   3.113   6.841 -2.3119 -1.0281  1.4395
  407MOL0     H54945   1.620   2.952   6.881 -1.6859  1.6523 -1.4111
  408MOL0     O54946   5.824   3.995   1.556  0.3508  0.3134 -0.3514
  408MOL0     C54947   5.775   4.078   1.621 -0.7098 -0.3323 -0.2120
  408MOL0     O54948   5.830   4.199   1.643 -0.0027 -0.8014  0.1260
  408MOL0     C54949   5.967   4.209   1.670  0.2300 -0.3437  0.4194
  408MOL0     C54950   6.063   4.171   1.576 -0.3294  0.1001 -1.0098
  408MOL0     C54951   6.199   4.199   1.583 -1.1668 -0.1729 -0.2756
  408MOL0     C54952   6.249   4.269   1.694 -0.8267 -0.3614 -0.1460
  408MOL0     O54953   6.378   4.308   1.713  0.3535 -0.4532 -0.1877
  408MOL0     C54954   6.476   4.291   1.605 -0.1804 -0.2339 -0.7893
  408MOL0     C54955   6.614   4.336   1.642  0.4519  0.3096  1.0192
  408MOL0     C54956   6.681   4.256   1.762  0.5871 -0.3597 -0.5772
  408MOL0     C54957   6.831   4.297   1.784 -0.4932 -0.1968 -0.5367
  408MOL0     C54958   6.920   4.214   1.696 -0.3220 -0.1042 -0.4074
  408MOL0     C54959   6.915   4.061   1.711 -0.0174  0.3502  0.7022
  408MOL0     C54960   7.044   4.012   1.633 -0.0908  1.4873 -0.0177
  408MOL0     C54961   7.054   3.855   1.663  0.8273 -0.1928  0.2390
  408MOL0     N54962   7.154   3.815   1.576  1.3131  0.1821  0.4377
  408MOL0     C54963   7.282   3.848   1.598 -0.3360  0.4053  1.1283
  408MOL0     C54964   7.352   3.811   1.485  0.3991  0.7287 -0.0560
  408MOL0     C54965   7.499   3.818   1.462  0.4524 -1.2450  0.2360
  408MOL0     C54966   7.531   3.867   1.320 -0.5724 -0.4390  0.2485
  408MOL0     C54967   7.671   3.826   1.264 -1.2866  0.0261 -0.6572
  408MOL0     C54968   7.668   3.716   1.162 -0.2799  0.1823 -0.7201
  408MOL0     O54969   7.794   3.689   1.104  0.3386 -0.5216 -0.7029
  408MOL0     C54970   7.829   3.780   1.011 -0.2145  0.8355  0.3537
  408MOL0     C54971   7.747   3.840   0.914 -0.8041 -0.5750 -0.9102
  408MOL0     C54972   7.806   3.927   0.819  0.2814  0.2810 -0.3361
  408MOL0     C54973   7.946   3.943   0.811  0.4688 -0.1524  0.1016
  408MOL0     C54974   8.018   4.014   0.700  0.2761  0.2421  0.7726
  408MOL0     O54975   8.153   4.004   0.689 -0.5529 -0.3127 -0.6905
  408MOL0     C54976   8.220   4.055   0.582  0.0320 -0.2911  0.4969
  408MOL0     C54977   8.353   4.090   0.612  0.5833 -0.5895 -0.0370
  408MOL0     C54978   8.449   4.085   0.511  0.4948  0.7018 -0.5430
  408MOL0     C54979   8.415   4.076   0.382  0.0306 -0.1021  0.3573
  408MOL0     O54980   8.500   4.086   0.271 -0.2153 -0.2478 -0.1663
  408MOL0     C54981   8.638   4.136   0.291  0.4460  0.4456  0.1977
  408MOL0     C54982   8.700   4.177   0.150  0.2044 -0.8952  0.3998
  408MOL0     C54983   8.700   4.071   0.043  0.4058 -0.1628 -0.4270
  408MOL0     C54984   8.794   3.963   0.071 -0.5191  0.0434 -0.0417
  408MOL0     C54985   8.788   3.857  -0.037  0.1218  0.1598  1.2303
  408MOL0     C54986   8.905   3.757  -0.028  1.3483  0.5627  0.2186
  408MOL0     C54987   8.894   3.646  -0.131  0.3274  0.2044  0.5649
  408MOL0     C54988   9.030   3.563  -0.142  0.3290 -0.3524 -0.6000
  408MOL0    Cl54989   9.016   3.439  -0.256  0.0563  0.2483  0.0542
  408MOL0     C54990   8.280   4.060   0.347  0.5483 -1.0584 -0.4830
  408MOL0     C54991   8.185   4.042   0.446  0.2350 -0.3348  0.2571
  408MOL0     O54992   7.945   4.050   0.612  1.0497 -0.9216  0.3407
  408MOL0     C54993   8.022   3.876   0.909  0.6101 -0.2415 -0.3408
  408MOL0     C54994   7.967   3.796   1.010 -0.4367  0.4401 -0.0074
  408MOL0     N54995   7.268   3.726   1.421 -0.2060 -0.4089 -0.5279
  408MOL0     N54996   7.152   3.734   1.465  0.0452 -0.4150 -0.2015
  408MOL0     C54997   6.161   4.312   1.784  0.5649  0.4898  0.1005
  408MOL0     C54998   6.017   4.285   1.775  0.8315  0.6502  1.2174
  408MOL0     C54999   5.640   4.059   1.663  0.9225 -0.3070 -0.3989
  408MOL0     C55000   5.574   3.952   1.589 -0.1030 -0.7210 -0.0221
  408MOL0     C55001   5.437   3.936   1.612 -0.1815  0.1325 -0.3333
  408MOL0     C55002   5.368   4.007   1.707  0.7793  0.1465 -0.1473
  408MOL0     O55003   5.238   3.962   1.718  0.4357 -1.0410 -0.3014
  408MOL0     C55004   5.176   4.000   1.841  0.0226  0.3685  0.0732
  408MOL0     C55005   5.099   3.883   1.899  0.2852  0.0396  0.1932
  408MOL0     C55006   5.183   3.767   1.947  0.8730  0.1354  0.3061
  408MOL0     C55007   5.104   3.638   1.966  0.6533  0.8265 -1.0916
  408MOL0     C55008   5.016   3.654   2.090  0.7443 -0.5611  0.8531
  408MOL0     C55009   4.949   3.639   2.189  0.2833  0.2072  0.3431
  408MOL0     C55010   5.424   4.121   1.766  0.2350 -0.3687 -0.4871
  408MOL0     C55011   5.562   4.148   1.744  0.0848 -0.1057 -0.0265
  408MOL0     C55012   5.609   4.265   1.821  0.1769 -0.3259 -0.3344
  408MOL0     H55013   6.042   4.106   1.492 -0.0319 -1.9566  0.4126
  408MOL0     H55014   6.264   4.154   1.508  0.2627  0.1083  0.7587
  408MOL0     H55015   6.480   4.187   1.573  3.6646 -0.3754 -0.3071
  408MOL0     H55016   6.442   4.356   1.524 -0.6669 -1.0832 -1.2748
  408MOL0     H55017   6.614   4.443   1.669  1.9406  0.5104  0.3374
  408MOL0     H55018   6.676   4.316   1.553  0.0500  0.7865  0.6213
  408MOL0     H55019   6.666   4.148   1.753 -3.3970 -0.0233  0.1651
  408MOL0     H55020   6.624   4.289   1.849  3.1546  2.9540  0.0214
  408MOL0     H55021   6.848   4.405   1.773 -0.0736  0.1009  2.2393
  408MOL0     H55022   6.856   4.283   1.889  1.0350  1.1561 -0.6803
  408MOL0     H55023   6.910   4.237   1.590 -0.7114 -0.9986 -0.5735
  408MOL0     H55024   7.020   4.246   1.728 -0.7887 -0.6618  1.8068
  408MOL0     H55025   6.902   4.026   1.814 -1.0004  1.7066  1.0643
  408MOL0     H55026   6.828   4.028   1.654  0.6793 -0.2463 -0.0306
  408MOL0     H55027   7.131   4.066   1.672  0.5106  0.4338  0.1117
  408MOL0     H55028   7.032   4.004   1.525  1.0118 -2.8548 -0.0027
  408MOL0     H55029   7.091   3.828   1.763  1.7956 -1.5726 -0.4560
  408MOL0     H55030   6.957   3.808   1.646 -1.1938  3.6980 -0.0749
  408MOL0     H55031   7.338   3.895   1.678  0.8962 -2.2790  1.9680
  408MOL0     H55032   7.551   3.882   1.534 -0.0444  1.0341 -1.3210
  408MOL0     H55033   7.538   3.716   1.470  0.3504 -1.5831 -2.5345
  408MOL0     H55034   7.447   3.843   1.255  0.5976 -0.0541 -1.4756
  408MOL0     H55035   7.541   3.976   1.317 -2.7740 -0.2136 -1.0004
  408MOL0     H55036   7.743   3.807   1.344 -0.9352  1.6303 -0.5713
  408MOL0     H55037   7.710   3.915   1.215 -0.2780 -1.2755 -2.3378
  408MOL0     H55038   7.588   3.753   1.097 -1.9631 -1.3606  0.3574
  408MOL0     H55039   7.620   3.622   1.190 -0.5183  0.4638 -0.1640
  408MOL0     H55040   7.641   3.823   0.932 -0.0074 -3.0092  2.7643
  408MOL0     H55041   7.744   3.985   0.751 -1.3962  0.9050  1.6144
  408MOL0     H55042   8.396   4.103   0.711  2.3190 -2.4387 -0.4846
  408MOL0     H55043   8.552   4.097   0.543  0.7506  2.9991 -1.9826
  408MOL0     H55044   8.636   4.219   0.362 -1.7864  3.2128 -2.8218
  408MOL0     H55045   8.708   4.065   0.336  2.3535  0.0493 -3.0533
  408MOL0     H55046   8.653   4.272   0.123  0.6052 -1.2841 -1.9001
  408MOL0     H55047   8.805   4.197   0.173  0.5579 -0.7129 -1.2381
  408MOL0     H55048   8.599   4.033   0.022 -0.6543  2.0289  0.4205
  408MOL0     H55049   8.715   4.121  -0.053  0.8469 -0.8160 -0.7033
  408MOL0     H55050   8.770   3.915   0.166  0.5284 -1.3862 -0.4650
  408MOL0     H55051   8.900   3.986   0.086  0.3276 -2.1452 -2.0298
  408MOL0     H55052   8.802   3.907  -0.134  0.8462  0.4719  1.4889
  408MOL0     H55053   8.695   3.800  -0.034  0.6856 -1.2027 -1.9959
  408MOL0     H55054   8.997   3.816  -0.034  2.7759 -1.6173 -0.5680
  408MOL0     H55055   8.912   3.706   0.068 -2.4271 -2.0596 -0.6855
  408MOL0     H55056   8.870   3.692  -0.228 -1.3109 -1.0160  0.3406
  408MOL0     H55057   8.822   3.568  -0.106  0.6920 -0.0829  0.7201
  408MOL0     H55058   9.113   3.630  -0.168  1.5511 -2.3430 -2.1959
  408MOL0     H55059   9.056   3.519  -0.045  0.5275  1.3868  0.1724
  408MOL0     H55060   8.246   4.072   0.244 -0.1912  4.3838  0.0946
  408MOL0     H55061   8.085   4.009   0.419  0.6391 -1.6279  0.3277
  408MOL0     H55062   8.129   3.885   0.917  0.6510 -0.8157 -0.1997
  408MOL0     H55063   8.029   3.751   1.087 -0.8347  1.8695  1.1763
  408MOL0     H55064   6.189   4.375   1.868 -1.9523 -0.0284  1.4288
  408MOL0     H55065   5.945   4.330   1.842 -0.1412  0.6188  0.2156
  408MOL0     H55066   5.620   3.883   1.519 -2.6146 -4.0544  1.3370
  408MOL0     H55067   5.385   3.848   1.577  1.0130 -0.1242 -1.5351
  408MOL0     H55068   5.099   4.069   1.807 -0.0023 -1.2414 -3.6402
  408MOL0     H55069   5.245   4.036   1.918 -1.0331 -0.0978  1.2772
  408MOL0     H55070   5.028   3.850   1.822  1.2669 -0.8470 -0.3651
  408MOL0     H55071   5.052   3.924   1.989  3.3418  0.8935  1.5147
  408MOL0     H55072   5.225   3.787   2.046  1.7440  1.9079 -0.3779
  408MOL0     H55073   5.264   3.751   1.875  0.8840 -1.4792  0.6329
  408MOL0     H55074   5.049   3.621   1.873 -0.4694 -1.8756 -0.0442
  408MOL0     H55075   5.165   3.555   2.002  1.4806  2.4987  1.7033
  408MOL0     H55076   4.878   3.629   2.268 -0.5857  3.9512  0.1765
  408MOL0     H55077   5.367   4.186   1.832 -0.2280 -1.9489  0.7416
  408MOL0     H55078   5.520   4.329   1.830 -3.0542 -4.1311 -2.2217
  408MOL0     H55079   5.640   4.241   1.924 -3.7501  5.5229  2.8129
  408MOL0     H55080   5.688   4.322   1.771 -1.2873 -0.7003 -3.2428
  409MOL0     O55081   6.329   5.109   1.970  0.1637  0.4886  0.0136
  409MOL0     C55082   6.263   5.041   1.894  0.9923  0.2694  1.3961
  409MOL0     O55083   6.313   4.981   1.779  0.0458 -0.4338 -0.0174
  409MOL0     C55084   6.446   4.980   1.762  0.6341  0.7757 -0.3643
  409MOL0     C55085   6.492   4.853   1.726 -0.3487  0.1588  0.3990
  409MOL0     C55086   6.621   4.842   1.666 -0.3195 -0.4876 -0.1283
  409MOL0     C55087   6.708   4.963   1.670  1.2408 -1.1208 -0.6159
  409MOL0     O55088   6.839   4.956   1.631 -0.0087  0.9349 -0.4555
  409MOL0     C55089   6.866   5.042   1.520 -0.0895  0.2942  0.0523
  409MOL0     C55090   7.018   5.042   1.493  0.1208  0.0840  0.0855
  409MOL0     C55091   7.112   5.078   1.612  0.1078 -0.4157  0.0727
  409MOL0     C55092   7.257   5.058   1.558 -0.1480  0.7347 -0.2783
  409MOL0     C55093   7.361   5.083   1.663 -0.0610 -0.2785 -0.0561
  409MOL0     C55094   7.495   5.080   1.594 -0.6314  0.9471 -0.9339
  409MOL0     C55095   7.617   5.104   1.693 -0.4126  0.2233 -1.2857
  409MOL0     C55096   7.747   5.110   1.617 -0.7423  0.3314 -0.7549
  409MOL0     N55097   7.789   4.983   1.559  0.0021  0.3558  0.0196
  409MOL0     C55098   7.763   4.938   1.429  0.8949 -0.6581  0.2898
  409MOL0     C55099   7.839   4.823   1.412  0.0321 -0.6160 -0.7849
  409MOL0     C55100   7.825   4.725   1.302 -0.5086 -0.3394 -0.7329
  409MOL0     C55101   7.950   4.717   1.212 -0.8442  0.1997 -0.3074
  409MOL0     C55102   8.041   4.612   1.285 -0.5074  0.4733  0.2278
  409MOL0     C55103   8.173   4.596   1.206 -0.4768 -0.0851  1.1967
  409MOL0     O55104   8.140   4.511   1.096  0.0561 -0.8905  0.4256
  409MOL0     C55105   8.252   4.476   1.016  0.4426  0.0784  0.4577
  409MOL0     C55106   8.306   4.351   1.034  0.8099  0.1859 -0.5435
  409MOL0     C55107   8.417   4.306   0.962  0.4314  1.2188 -0.2003
  409MOL0     C55108   8.496   4.396   0.891 -0.1758  0.1836  0.5637
  409MOL0     C55109   8.618   4.356   0.817  0.1153  0.1398 -0.2753
  409MOL0     O55110   8.685   4.452   0.745 -0.2462  0.6034 -0.1862
  409MOL0     C55111   8.780   4.423   0.652  0.1996 -0.1605 -0.9505
  409MOL0     C55112   8.790   4.506   0.541  0.0531  0.6964 -0.3639
  409MOL0     C55113   8.894   4.499   0.453  0.3207 -1.1403  0.1272
  409MOL0     C55114   9.001   4.413   0.466 -0.0862  0.3499  0.6733
  409MOL0     O55115   9.103   4.414   0.372  0.5957  0.3745 -0.0492
  409MOL0     C55116   9.180   4.531   0.363  0.5288  0.4402 -0.6631
  409MOL0     C55117   9.312   4.511   0.292  0.8362 -0.6429 -0.5906
  409MOL0     C55118   9.283   4.471   0.151 -0.0318  0.1834 -0.1216
  409MOL0     C55119   9.227   4.578   0.061  0.3593  0.5074  0.4680
  409MOL0     C55120   9.181   4.514  -0.073 -0.5838  0.0033 -0.7492
  409MOL0     C55121   9.069   4.409  -0.066 -0.0536  0.5093 -1.3676
  409MOL0     C55122   8.970   4.449  -0.170 -0.0688 -0.9241 -0.2991
  409MOL0     C55123   8.831   4.382  -0.162 -1.2604  0.2435  0.0256
  409MOL0    Cl55124   8.750   4.419  -0.310  0.3885 -0.0577 -0.2935
  409MOL0     C55125   8.996   4.325   0.574 -0.1180 -0.6166  0.1161
  409MOL0     C55126   8.886   4.333   0.665  0.1271 -0.7442 -0.4725
  409MOL0     O55127   8.655   4.236   0.823  0.1662  0.6381 -0.0947
  409MOL0     C55128   8.447   4.526   0.888 -0.8670 -0.4006 -0.3576
  409MOL0     C55129   8.323   4.567   0.946  0.9598  0.2810 -0.5219
  409MOL0     N55130   7.920   4.813   1.523  0.2105  0.4708  0.4172
  409MOL0     N55131   7.879   4.894   1.621 -1.1968 -0.0751 -0.6387
  409MOL0     C55132   6.663   5.085   1.726  0.5597  1.1804  0.7884
  409MOL0     C55133   6.534   5.093   1.772 -0.1315 -0.4446 -0.7022
  409MOL0     C55134   6.121   5.007   1.929  1.0451 -0.3758  0.3051
  409MOL0     C55135   6.052   4.919   1.851 -0.6028 -0.0311  0.5106
  409MOL0     C55136   5.922   4.871   1.878 -0.7710 -0.0593  1.0338
  409MOL0     C55137   5.858   4.908   1.996  0.3840 -0.2445 -1.2053
  409MOL0     O55138   5.749   4.834   2.040  0.3699 -0.1369  0.4029
  409MOL0     C55139   5.663   4.897   2.133  0.0349 -0.0018  0.1990
  409MOL0     C55140   5.533   4.808   2.163 -1.0601  0.5475  0.2152
  409MOL0     C55141   5.430   4.768   2.052 -0.4509  0.2794  0.0456
  409MOL0     C55142   5.317   4.690   2.111  0.7864 -0.7900  0.1015
  409MOL0     C55143   5.353   4.561   2.165 -0.1848  0.4482 -0.5419
  409MOL0     C55144   5.371   4.448   2.218  0.3753 -0.5901 -0.6071
  409MOL0     C55145   5.918   5.006   2.082 -0.7163 -0.0018  0.8623
  409MOL0     C55146   6.043   5.057   2.043 -0.0476  0.1410 -0.0167
  409MOL0     C55147   6.099   5.173   2.122  0.8374  0.1219  0.2186
  409MOL0     H55148   6.425   4.769   1.736 -0.2735  0.1993  1.4280
  409MOL0     H55149   6.664   4.748   1.635  0.7693  0.5556 -1.9912
  409MOL0     H55150   6.812   4.999   1.435  1.0204 -0.0886 -0.4725
  409MOL0     H55151   6.831   5.146   1.529 -0.8634  0.1782 -1.3480
  409MOL0     H55152   7.038   5.112   1.410 -1.3229  2.4232  1.5916
  409MOL0     H55153   7.047   4.942   1.462  2.0371 -0.0691  2.1455
  409MOL0     H55154   7.084   5.026   1.705 -0.4314 -0.8975 -0.3533
  409MOL0     H55155   7.098   5.182   1.643 -1.9453 -0.6794  0.1449
  409MOL0     H55156   7.268   4.951   1.536  0.3824 -0.5163  4.7961
  409MOL0     H55157   7.275   5.107   1.462 -0.1436 -1.9544 -1.7324
  409MOL0     H55158   7.346   5.177   1.718 -0.8156  1.8954 -3.6488
  409MOL0     H55159   7.364   4.994   1.726  0.3579 -0.2355 -0.0102
  409MOL0     H55160   7.508   4.981   1.548  3.1203  1.0037 -0.2673
  409MOL0     H55161   7.504   5.157   1.517 -1.8825  2.2306  0.1547
  409MOL0     H55162   7.627   5.028   1.771  2.7314 -1.6001 -3.2425
  409MOL0     H55163   7.597   5.194   1.753 -0.3645 -0.7045  0.1637
  409MOL0     H55164   7.752   5.187   1.540 -0.4905  1.6814  0.5682
  409MOL0     H55165   7.821   5.150   1.687  0.2350  0.0574 -1.6051
  409MOL0     H55166   7.688   4.974   1.358  1.6502  3.7275  1.4296
  409MOL0     H55167   7.802   4.626   1.344 -0.2114 -0.7522 -1.5130
  409MOL0     H55168   7.739   4.756   1.242  2.3399  0.9943 -4.5764
  409MOL0     H55169   7.927   4.694   1.108  2.0551 -0.7583 -0.8431
  409MOL0     H55170   8.006   4.810   1.220 -2.4793  1.1530  0.5387
  409MOL0     H55171   7.993   4.515   1.294  0.0954  0.1863  0.4173
  409MOL0     H55172   8.062   4.626   1.391 -0.8398 -0.8512  0.4839
  409MOL0     H55173   8.253   4.556   1.268  1.4063  2.6892  0.7554
  409MOL0     H55174   8.222   4.686   1.167  0.1434 -0.6469  0.6653
  409MOL0     H55175   8.256   4.289   1.108  1.3306  1.8840  1.2962
  409MOL0     H55176   8.430   4.199   0.976 -1.1421  0.3784 -3.8580
  409MOL0     H55177   8.724   4.589   0.516  0.5024  0.7976 -1.2279
  409MOL0     H55178   8.892   4.565   0.367 -0.7614  1.8414  2.2695
  409MOL0     H55179   9.117   4.596   0.302  0.2828  1.1059  0.2827
  409MOL0     H55180   9.200   4.559   0.467  0.3782 -1.2778 -0.1530
  409MOL0     H55181   9.376   4.599   0.300 -0.8439  0.5027  1.1586
  409MOL0     H55182   9.369   4.442   0.355 -1.5186 -0.5847  1.7977
  409MOL0     H55183   9.378   4.444   0.104 -1.1460  0.0768 -2.4308
  409MOL0     H55184   9.231   4.375   0.156  0.9704 -0.3154  3.0723
  409MOL0     H55185   9.302   4.655   0.040  1.9997 -0.0732  3.6563
  409MOL0     H55186   9.135   4.621   0.102 -0.0429 -0.2873  0.4219
  409MOL0     H55187   9.271   4.462  -0.108  0.0358  0.1200  0.6135
  409MOL0     H55188   9.165   4.592  -0.148 -0.2544 -1.1324 -2.0484
  409MOL0     H55189   9.110   4.309  -0.078  0.1257  0.0050  2.3037
  409MOL0     H55190   9.008   4.406   0.024  0.8406  0.9984 -0.7222
  409MOL0     H55191   9.001   4.397  -0.261 -2.7842 -4.3125  0.5022
  409MOL0     H55192   8.941   4.555  -0.174  1.1213 -0.5920 -0.5845
  409MOL0     H55193   8.853   4.275  -0.162  0.7022  0.6047  0.6834
  409MOL0     H55194   8.778   4.412  -0.071 -1.9744 -0.9980  0.0376
  409MOL0     H55195   9.067   4.243   0.568 -2.2308 -2.5356 -0.1565
  409MOL0     H55196   8.883   4.272   0.755 -1.3275  1.2885  0.9452
  409MOL0     H55197   8.497   4.608   0.837  0.7698 -1.1109  0.0273
  409MOL0     H55198   8.275   4.662   0.924  0.3771  0.2866  0.6925
  409MOL0     H55199   6.742   5.160   1.730  2.9713 -1.1500 -0.3004
  409MOL0     H55200   6.510   5.192   1.810  2.8562  0.0209  0.3054
  409MOL0     H55201   6.093   4.877   1.760  0.1847 -1.0255  1.3076
  409MOL0     H55202   5.887   4.801   1.802  4.9588  2.2522 -4.6071
  409MOL0     H55203   5.641   4.989   2.078 -0.2271  0.7686  1.5676
  409MOL0     H55204   5.707   4.923   2.229 -1.0462 -2.9618  1.6494
  409MOL0     H55205   5.488   4.856   2.250  3.0775 -0.2090  3.0734
  409MOL0     H55206   5.575   4.709   2.185  0.2549  1.1068  0.2917
  409MOL0     H55207   5.479   4.712   1.973 -1.1877  0.9260 -0.8848
  409MOL0     H55208   5.397   4.859   2.001 -1.3800  1.0092  1.8364
  409MOL0     H55209   5.255   4.750   2.178  0.0956  1.5506 -2.4693
  409MOL0     H55210   5.247   4.672   2.028 -0.7332  4.0755  0.0015
  409MOL0     H55211   5.398   4.348   2.242  2.7711 -0.5516 -2.7865
  409MOL0     H55212   5.884   5.056   2.172 -0.0060  3.6509 -0.6898
  409MOL0     H55213   6.032   5.204   2.202  1.0890 -0.5247  0.6924
  409MOL0     H55214   6.194   5.147   2.171 -0.7818 -2.2482  2.3777
  409MOL0     H55215   6.110   5.257   2.053  2.4658 -1.3276 -1.3843
  410MOL0     O55216   3.800   2.558   5.250 -0.4246  0.0886  0.4140
  410MOL0     C55217   3.733   2.547   5.351  0.6504  0.2823  0.1942
  410MOL0     O55218   3.718   2.434   5.431  0.0065  0.1780 -0.4607
  410MOL0     C55219   3.787   2.332   5.375  0.3677  0.2052  0.6237
  410MOL0     C55220   3.920   2.303   5.408 -0.9333 -0.3015  0.0661
  410MOL0     C55221   3.989   2.205   5.342 -0.2186 -0.1563 -0.3373
  410MOL0     C55222   3.935   2.131   5.233  0.1546 -0.9697 -0.5790
  410MOL0     O55223   4.004   2.025   5.159  0.1090 -0.5877 -0.0864
  410MOL0     C55224   4.098   1.941   5.237 -0.4428 -0.2464  0.8558
  410MOL0     C55225   4.026   1.851   5.334  0.5392 -1.0804  0.3338
  410MOL0     C55226   4.098   1.723   5.370  0.7250  0.9380  0.4951
  410MOL0     C55227   4.021   1.641   5.468  0.6093  0.9059  0.2460
  410MOL0     C55228   4.001   1.481   5.440  0.2820  0.8240  0.2730
  410MOL0     C55229   3.904   1.404   5.527  0.1583 -0.2289 -0.2625
  410MOL0     C55230   3.763   1.457   5.506  0.4130  0.0954  0.3993
  410MOL0     C55231   3.713   1.449   5.348  0.5913 -0.7167 -0.1349
  410MOL0     N55232   3.571   1.457   5.335 -0.5100  0.8306 -0.8582
  410MOL0     C55233   3.488   1.347   5.300  0.5047 -0.4424 -0.1551
  410MOL0     C55234   3.377   1.410   5.264  0.5433 -0.1519  0.2208
  410MOL0     C55235   3.252   1.338   5.202 -0.1902  0.2578  0.0784
  410MOL0     C55236   3.270   1.299   5.047  0.4359 -0.3028 -0.3292
  410MOL0     C55237   3.330   1.418   4.967  0.7290  0.1366 -0.1741
  410MOL0     C55238   3.299   1.413   4.818 -0.0847  0.6364 -0.2984
  410MOL0     O55239   3.170   1.447   4.785 -0.0331 -0.2868 -0.5567
  410MOL0     C55240   3.133   1.586   4.778 -0.5355 -0.6017  1.0146
  410MOL0     C55241   3.225   1.690   4.767 -0.1105  0.6566 -0.9871
  410MOL0     C55242   3.189   1.819   4.732 -0.0380  0.2366 -0.1073
  410MOL0     C55243   3.053   1.855   4.734 -0.9297  0.1972  0.1333
  410MOL0     C55244   3.012   1.991   4.698 -0.2508 -0.8146 -0.0518
  410MOL0     O55245   3.101   2.095   4.714 -0.4301  0.0830 -0.4226
  410MOL0     C55246   3.089   2.223   4.673 -0.0830 -0.3616 -0.2019
  410MOL0     C55247   3.154   2.327   4.747 -1.6208  0.1622  0.3752
  410MOL0     C55248   3.149   2.457   4.707 -0.1743 -1.3108  0.7298
  410MOL0     C55249   3.080   2.500   4.585 -0.4936 -0.5312 -0.3904
  410MOL0     O55250   3.093   2.622   4.525 -0.3912  0.1057 -0.6927
  410MOL0     C55251   3.026   2.722   4.604 -0.1897 -0.1593  0.2640
  410MOL0     C55252   2.882   2.748   4.557  0.1923 -0.0927  0.6921
  410MOL0     C55253   2.820   2.882   4.599  0.8130 -0.8702 -0.0168
  410MOL0     C55254   2.677   2.900   4.543 -0.2636 -0.7925 -0.2042
  410MOL0     C55255   2.624   3.042   4.577  0.0535  0.5988  0.3627
  410MOL0     C55256   2.673   3.155   4.493 -0.3140  0.4423 -0.3868
  410MOL0     C55257   2.619   3.290   4.540 -0.3710 -0.1264 -0.2635
  410MOL0     C55258   2.657   3.400   4.447  0.3867 -0.6543 -0.1930
  410MOL0    Cl55259   2.605   3.554   4.498  0.5049 -0.3845 -0.3327
  410MOL0     C55260   3.021   2.395   4.512  1.0137  0.2008 -0.2111
  410MOL0     C55261   3.018   2.266   4.563 -0.0250 -0.3264  0.3727
  410MOL0     O55262   2.897   2.003   4.657 -0.5944  0.1533 -0.5561
  410MOL0     C55263   2.959   1.754   4.735 -0.0724  0.6295  0.3503
  410MOL0     C55264   3.001   1.625   4.767  0.2251 -0.0194 -0.5818
  410MOL0     N55265   3.388   1.542   5.288  0.6699 -0.7144 -0.0389
  410MOL0     N55266   3.500   1.571   5.334  1.5286  0.0736 -0.8294
  410MOL0     C55267   3.800   2.160   5.202  0.9818 -0.0567 -0.0545
  410MOL0     C55268   3.724   2.258   5.272  0.1189  0.7513  0.1381
  410MOL0     C55269   3.670   2.671   5.396 -0.2659  0.3464  0.4296
  410MOL0     C55270   3.659   2.689   5.537 -0.1047  0.4848 -0.4143
  410MOL0     C55271   3.602   2.805   5.600 -0.5329  0.0111  0.0521
  410MOL0     C55272   3.580   2.913   5.511  0.5820 -0.6427 -0.1658
  410MOL0     O55273   3.535   3.045   5.546  0.7009 -0.6213  0.5482
  410MOL0     C55274   3.490   3.085   5.675 -0.8483 -0.9272 -0.0288
  410MOL0     C55275   3.419   3.219   5.659 -0.1770  1.5778 -0.2573
  410MOL0     C55276   3.501   3.315   5.560  0.5484  1.1208 -0.2956
  410MOL0     C55277   3.633   3.362   5.618 -0.3885  0.2550 -0.3830
  410MOL0     C55278   3.638   3.491   5.687 -0.5271  0.3336  1.0422
  410MOL0     C55279   3.657   3.594   5.750  0.2267  0.7580  1.3187
  410MOL0     C55280   3.588   2.892   5.370  0.0224 -0.1016  0.3872
  410MOL0     C55281   3.632   2.777   5.317  1.4153 -0.5945  0.1186
  410MOL0     C55282   3.637   2.774   5.169  0.1084 -0.1590 -0.1174
  410MOL0     H55283   3.964   2.369   5.481 -0.2280  1.7370 -2.0814
  410MOL0     H55284   4.093   2.198   5.373 -0.8270 -1.2257  1.6594
  410MOL0     H55285   4.144   1.873   5.165  0.4316  0.2261  0.9475
  410MOL0     H55286   4.179   1.989   5.293 -1.0387  0.2239  1.3180
  410MOL0     H55287   3.927   1.835   5.291  0.6368  0.0289 -0.3577
  410MOL0     H55288   4.002   1.910   5.424 -1.2217 -0.7567 -0.3038
  410MOL0     H55289   4.189   1.752   5.424  0.2938  3.1093  0.1248
  410MOL0     H55290   4.121   1.664   5.281 -0.6836 -0.3898  0.9699
  410MOL0     H55291   4.065   1.667   5.565 -0.4905  3.5203  0.1148
  410MOL0     H55292   3.919   1.679   5.476 -0.6408 -1.9747 -0.7012
  410MOL0     H55293   3.977   1.474   5.333  4.7026  3.0140 -1.1454
  410MOL0     H55294   4.101   1.437   5.451  0.4743  1.3941  0.8803
  410MOL0     H55295   3.904   1.297   5.506  2.0362 -0.8149  2.2671
  410MOL0     H55296   3.931   1.423   5.631  4.2640  0.0024 -1.2147
  410MOL0     H55297   3.747   1.559   5.541 -3.8660 -0.3692  0.3221
  410MOL0     H55298   3.705   1.392   5.571  1.8845 -1.6265  0.0852
  410MOL0     H55299   3.759   1.538   5.303 -0.0669 -0.2621  0.0646
  410MOL0     H55300   3.748   1.358   5.300  0.7229 -0.3136 -0.8169
  410MOL0     H55301   3.506   1.242   5.279 -4.8645 -1.3436 -1.7629
  410MOL0     H55302   3.236   1.245   5.257  1.2024 -1.6977 -2.5768
  410MOL0     H55303   3.166   1.405   5.194 -0.3351 -0.1557 -2.5091
  410MOL0     H55304   3.311   1.199   5.030 -1.6982 -1.0700 -1.2778
  410MOL0     H55305   3.166   1.290   5.015  0.5637 -2.9730 -0.1876
  410MOL0     H55306   3.438   1.427   4.982  0.9478  1.9294 -2.3299
  410MOL0     H55307   3.287   1.514   5.000  2.3213  0.8517 -0.1010
  410MOL0     H55308   3.305   1.309   4.784  1.3577  1.1409 -1.7174
  410MOL0     H55309   3.366   1.477   4.760  1.5212 -0.1156  0.6664
  410MOL0     H55310   3.333   1.685   4.766  0.3633  5.4041  0.2575
  410MOL0     H55311   3.268   1.892   4.717  0.7115  0.2064  2.9228
  410MOL0     H55312   3.208   2.295   4.836 -1.3430 -1.6428 -0.3965
  410MOL0     H55313   3.202   2.529   4.768 -2.2203  0.5758  0.3977
  410MOL0     H55314   3.025   2.694   4.710 -1.9917  1.7500  0.8324
  410MOL0     H55315   3.079   2.817   4.589 -0.2963 -0.2991 -1.1572
  410MOL0     H55316   2.878   2.741   4.447 -1.5415 -0.1140  0.7253
  410MOL0     H55317   2.815   2.671   4.596  1.2799 -2.8976 -2.4835
  410MOL0     H55318   2.819   2.892   4.708  0.6894  0.7631 -0.1446
  410MOL0     H55319   2.883   2.964   4.565 -2.1706  1.1132 -1.1534
  410MOL0     H55320   2.608   2.826   4.582  0.9939 -1.8934  0.0041
  410MOL0     H55321   2.687   2.894   4.434  2.0813  3.7647 -0.4870
  410MOL0     H55322   2.644   3.057   4.684  1.4610  0.3226  0.1639
  410MOL0     H55323   2.517   3.039   4.555  0.0061 -2.3114  0.5776
  410MOL0     H55324   2.782   3.156   4.485 -0.2548  2.0760  0.2346
  410MOL0     H55325   2.637   3.141   4.391 -0.7438 -1.0530 -0.0616
  410MOL0     H55326   2.660   3.306   4.640 -1.6240 -3.0544  0.8075
  410MOL0     H55327   2.510   3.280   4.542 -0.4972  1.1032  1.9010
  410MOL0     H55328   2.765   3.413   4.434  0.4695 -1.9696 -1.0156
  410MOL0     H55329   2.598   3.382   4.357 -0.8755 -1.2266  0.7141
  410MOL0     H55330   2.987   2.414   4.411  2.9061 -0.3492 -1.0104
  410MOL0     H55331   2.953   2.197   4.511  0.3174 -0.4242  0.0676
  410MOL0     H55332   2.853   1.774   4.720 -0.1376 -1.5379 -3.0997
  410MOL0     H55333   2.925   1.548   4.769 -0.6136  0.7415  2.2465
  410MOL0     H55334   3.758   2.100   5.123 -1.0994 -0.3495  1.1924
  410MOL0     H55335   3.621   2.276   5.244 -0.3764 -0.8475  0.7978
  410MOL0     H55336   3.692   2.609   5.602 -1.9000 -0.1913 -0.2544
  410MOL0     H55337   3.595   2.796   5.708 -2.2885 -0.9359 -0.1054
  410MOL0     H55338   3.571   3.101   5.746  1.3153 -0.6159 -2.3993
  410MOL0     H55339   3.429   3.007   5.722  1.4419 -2.6241  0.3297
  410MOL0     H55340   3.402   3.268   5.755 -1.5700 -1.3293  1.1153
  410MOL0     H55341   3.320   3.193   5.620  0.8729 -1.8861 -0.9552
  410MOL0     H55342   3.441   3.404   5.539  0.1233  0.8333 -0.3094
  410MOL0     H55343   3.506   3.265   5.463  2.1759 -1.2806  0.9388
  410MOL0     H55344   3.693   3.287   5.670  1.8068  0.6528 -2.1581
  410MOL0     H55345   3.687   3.382   5.525 -0.8587 -0.7723 -0.8968
  410MOL0     H55346   3.658   3.692   5.794 -0.2706  1.3638  0.0299
  410MOL0     H55347   3.571   2.977   5.304 -1.3657 -2.1055 -1.9913
  410MOL0     H55348   3.568   2.848   5.127 -1.9835 -1.8426  0.1756
  410MOL0     H55349   3.734   2.807   5.130 -1.6272  3.4915 -1.8499
  410MOL0     H55350   3.602   2.676   5.138 -2.5421 -0.1882  2.5049
  411MOL0     O55351   3.685   3.503   4.904 -0.4073  0.4425 -0.0162
  411MOL0     C55352   3.702   3.620   4.874  0.2085 -0.2427  0.0864
  411MOL0     O55353   3.830   3.675   4.859  0.6220 -0.9227 -0.5877
  411MOL0     C55354   3.935   3.594   4.848 -0.6789 -0.1467  0.4714
  411MOL0     C55355   3.932   3.490   4.752  0.1067  0.1541  0.3764
  411MOL0     C55356   4.032   3.390   4.752  0.0048 -0.5973  0.6900
  411MOL0     C55357   4.139   3.399   4.841 -0.1104 -1.0060 -0.2280
  411MOL0     O55358   4.232   3.298   4.839 -0.4820 -0.3966  0.8004
  411MOL0     C55359   4.348   3.305   4.917 -0.6251  0.1104 -0.3556
  411MOL0     C55360   4.437   3.172   4.886  0.3674 -0.0088  0.0463
  411MOL0     C55361   4.436   3.071   5.005 -0.4196 -0.1886  0.8689
  411MOL0     C55362   4.560   2.982   4.991 -0.2585 -0.7597 -0.4108
  411MOL0     C55363   4.692   3.043   5.032  0.0019  0.7000 -0.2820
  411MOL0     C55364   4.718   3.064   5.187  0.5654  0.4138  0.5422
  411MOL0     C55365   4.706   2.925   5.266  0.6457 -1.0404  0.3874
  411MOL0     C55366   4.796   2.819   5.212 -0.4436 -0.2681 -0.1813
  411MOL0     N55367   4.777   2.699   5.285 -0.0126  0.5973  0.1643
  411MOL0     C55368   4.783   2.681   5.424 -0.0221  0.3142 -0.6093
  411MOL0     C55369   4.766   2.546   5.434 -0.0139  1.0445  0.0023
  411MOL0     C55370   4.748   2.476   5.563  1.0487 -0.0534  0.4289
  411MOL0     C55371   4.855   2.371   5.574 -0.3429  0.0006  0.2036
  411MOL0     C55372   4.830   2.286   5.698 -0.3202 -0.8275  0.0182
  411MOL0     C55373   4.822   2.349   5.843 -0.5440  0.3017  0.2254
  411MOL0     O55374   4.944   2.415   5.880  0.1769 -0.2941  0.8949
  411MOL0     C55375   4.962   2.427   6.018 -0.4895 -0.3186 -0.4048
  411MOL0     C55376   5.091   2.453   6.051 -0.3311  0.1436  0.3130
  411MOL0     C55377   5.126   2.481   6.182 -0.4207  0.1866 -0.0652
  411MOL0     C55378   5.029   2.484   6.291 -0.6202  0.0511  0.1033
  411MOL0     C55379   5.075   2.512   6.429 -0.3697  0.2772  0.2985
  411MOL0     O55380   5.001   2.468   6.522  0.1469 -0.4531 -0.3434
  411MOL0     C55381   5.012   2.504   6.655  0.0971 -0.4500 -0.5048
  411MOL0     C55382   4.942   2.430   6.741  0.2573  0.8274 -0.4453
  411MOL0     C55383   4.925   2.451   6.871  0.6455 -0.4828 -0.7461
  411MOL0     C55384   4.999   2.558   6.933  0.6803 -0.4824  0.1067
  411MOL0     O55385   4.988   2.581   7.068  0.3959 -0.0654 -0.4964
  411MOL0     C55386   5.092   2.665   7.137  0.6912 -0.1217  0.2498
  411MOL0     C55387   5.057   2.671   7.285  0.0228  0.6873 -0.7156
  411MOL0     C55388   4.923   2.724   7.315 -0.3255 -0.2184  0.4378
  411MOL0     C55389   4.871   2.668   7.448  0.3962  0.7187 -0.5931
  411MOL0     C55390   4.727   2.726   7.477 -0.6161 -0.1360 -0.0313
  411MOL0     C55391   4.665   2.700   7.620 -0.6245  0.2012  1.2627
  411MOL0     C55392   4.518   2.649   7.604 -0.0107  0.2063 -0.6705
  411MOL0     C55393   4.456   2.576   7.729 -0.3535  0.9910 -0.6006
  411MOL0    Cl55394   4.286   2.577   7.708  0.0113 -0.2534 -0.2409
  411MOL0     C55395   5.074   2.638   6.841 -0.5989  0.1035 -0.6972
  411MOL0     C55396   5.083   2.609   6.706 -0.4094  0.1336 -0.6932
  411MOL0     O55397   5.186   2.563   6.432  0.1097 -0.4121 -0.0765
  411MOL0     C55398   4.899   2.441   6.256 -0.1520 -0.0455  0.0757
  411MOL0     C55399   4.862   2.416   6.120  0.4968  0.9233  0.4317
  411MOL0     N55400   4.759   2.491   5.310 -0.4179  0.1146 -0.4629
  411MOL0     N55401   4.768   2.579   5.217 -0.2638  0.5467  0.1997
  411MOL0     C55402   4.139   3.506   4.933 -0.6902 -0.2328 -0.5716
  411MOL0     C55403   4.035   3.595   4.939  0.9527 -0.1196 -0.1556
  411MOL0     C55404   3.585   3.695   4.829 -0.8572  0.3832  0.4266
  411MOL0     C55405   3.591   3.836   4.832  0.7537 -0.2511  0.8231
  411MOL0     C55406   3.480   3.915   4.809  0.5832 -0.2615 -0.0758
  411MOL0     C55407   3.360   3.855   4.777  0.1218 -0.6130  0.0518
  411MOL0     O55408   3.244   3.924   4.756  0.6421  0.0948  0.0019
  411MOL0     C55409   3.203   4.028   4.846  0.1556 -0.7384  0.3172
  411MOL0     C55410   3.222   4.002   5.000 -0.5687 -1.4250  0.3694
  411MOL0     C55411   3.151   3.869   5.043 -0.4268  0.0305  0.6861
  411MOL0     C55412   3.103   3.884   5.189 -0.5606  0.1053  0.2791
  411MOL0     C55413   3.044   3.753   5.231 -0.8334 -0.8536 -0.4471
  411MOL0     C55414   3.000   3.640   5.257  0.5166 -0.2800 -1.1552
  411MOL0     C55415   3.353   3.720   4.759  0.7205 -0.3103  0.4046
  411MOL0     C55416   3.464   3.634   4.778 -0.4448 -1.0010 -0.6529
  411MOL0     C55417   3.441   3.490   4.745 -0.4046  0.3880  1.0816
  411MOL0     H55418   3.846   3.483   4.686  1.0968  0.5380 -1.0055
  411MOL0     H55419   4.023   3.302   4.688 -2.8841  0.3627 -0.3873
  411MOL0     H55420   4.415   3.384   4.883  0.0752 -1.0510 -1.7680
  411MOL0     H55421   4.335   3.325   5.024 -1.6497 -0.3906 -0.3761
  411MOL0     H55422   4.531   3.208   4.844 -0.8193  0.8053 -2.0964
  411MOL0     H55423   4.386   3.123   4.802  0.2416  0.9619 -0.4587
  411MOL0     H55424   4.336   3.027   5.005 -1.1592  1.4074  0.2430
  411MOL0     H55425   4.452   3.113   5.105  0.4060 -1.3753  1.2600
  411MOL0     H55426   4.538   2.889   5.044  0.8607 -0.8234 -0.0210
  411MOL0     H55427   4.571   2.961   4.885  0.6550 -0.8137 -0.3169
  411MOL0     H55428   4.774   2.982   4.994 -1.0021 -0.4674 -0.6351
  411MOL0     H55429   4.708   3.132   4.970 -0.1547  0.7613 -0.2363
  411MOL0     H55430   4.813   3.116   5.204  1.9520 -1.7054 -0.3869
  411MOL0     H55431   4.643   3.132   5.228 -0.9887 -0.2125 -1.1393
  411MOL0     H55432   4.603   2.893   5.245  1.4257 -2.1341 -2.1355
  411MOL0     H55433   4.721   2.931   5.374  0.3082  1.4913  0.3518
  411MOL0     H55434   4.783   2.798   5.105 -0.8079 -1.2152  0.0344
  411MOL0     H55435   4.901   2.848   5.218 -0.2649 -0.0307 -3.2095
  411MOL0     H55436   4.784   2.759   5.499 -3.0658 -0.7374  0.7047
  411MOL0     H55437   4.761   2.547   5.645  3.0594 -0.0118  0.1300
  411MOL0     H55438   4.645   2.440   5.554  0.2674  1.9961  0.7373
  411MOL0     H55439   4.869   2.304   5.490  2.7480 -1.4647  1.7406
  411MOL0     H55440   4.955   2.415   5.578  1.1564 -3.1009 -0.1389
  411MOL0     H55441   4.899   2.202   5.692 -0.2364 -0.6494 -2.4969
  411MOL0     H55442   4.733   2.239   5.680 -0.6265  0.3809 -1.7726
  411MOL0     H55443   4.785   2.267   5.905 -1.8319 -0.6533 -1.6599
  411MOL0     H55444   4.748   2.429   5.838 -0.7441  0.0527 -2.5753
  411MOL0     H55445   5.164   2.452   5.971 -3.3555 -0.2715 -2.6927
  411MOL0     H55446   5.233   2.493   6.197 -0.0713  0.8426 -2.6336
  411MOL0     H55447   4.884   2.350   6.697  0.6465 -0.5551  1.4757
  411MOL0     H55448   4.857   2.384   6.923 -0.7146  0.9552 -0.5757
  411MOL0     H55449   5.190   2.619   7.126  0.0076 -1.2864 -1.2734
  411MOL0     H55450   5.082   2.766   7.096  0.2215  1.2129  3.3461
  411MOL0     H55451   5.054   2.565   7.312  1.0021 -0.2787 -3.9940
  411MOL0     H55452   5.140   2.709   7.344  0.0419  1.2260 -1.0822
  411MOL0     H55453   4.932   2.833   7.310  2.1308 -0.3279  1.2955
  411MOL0     H55454   4.854   2.702   7.232  2.6139  0.6622 -2.4563
  411MOL0     H55455   4.930   2.699   7.535  0.0822  1.8176 -0.7530
  411MOL0     H55456   4.866   2.559   7.445  0.3924  0.7319 -1.2199
  411MOL0     H55457   4.662   2.673   7.407  1.0483 -0.9170 -1.0163
  411MOL0     H55458   4.725   2.832   7.450 -0.2454 -0.0742  0.1795
  411MOL0     H55459   4.735   2.630   7.667  1.6744  1.7834  0.3576
  411MOL0     H55460   4.673   2.789   7.684  0.5669  1.5144 -0.6134
  411MOL0     H55461   4.521   2.574   7.525  0.9080 -3.2327  2.3622
  411MOL0     H55462   4.445   2.726   7.580 -0.7993  0.6549  2.6920
  411MOL0     H55463   4.496   2.474   7.736  1.0948  1.5627 -0.1443
  411MOL0     H55464   4.484   2.624   7.823 -3.6740 -3.1326  2.9253
  411MOL0     H55465   5.138   2.720   6.872 -2.5095  1.3323  0.1952
  411MOL0     H55466   5.141   2.677   6.645 -0.4962  0.2079 -0.6922
  411MOL0     H55467   4.832   2.436   6.341  1.1370  2.7605  1.4003
  411MOL0     H55468   4.759   2.392   6.095  1.5197 -1.4030 -1.9592
  411MOL0     H55469   4.219   3.534   5.001 -1.8848  1.7947  0.0685
  411MOL0     H55470   4.031   3.667   5.020 -4.5335  1.6116 -1.4742
  411MOL0     H55471   3.681   3.879   4.874 -0.5868  2.4080  1.1909
  411MOL0     H55472   3.497   4.023   4.812  1.4094 -0.3888  0.2571
  411MOL0     H55473   3.103   4.058   4.815  0.2035 -0.4028  0.4886
  411MOL0     H55474   3.269   4.113   4.829  1.6417 -2.2334 -2.0110
  411MOL0     H55475   3.187   4.087   5.060 -0.0828  0.4138 -1.7960
  411MOL0     H55476   3.329   3.996   5.022  0.2513  4.2368 -0.3321
  411MOL0     H55477   3.220   3.784   5.036 -0.5649 -0.3104  2.7332
  411MOL0     H55478   3.067   3.853   4.975  1.1198 -0.1827 -1.2747
  411MOL0     H55479   3.186   3.913   5.254 -1.0146  0.6157  0.6433
  411MOL0     H55480   3.032   3.968   5.187  1.8140  2.2294 -0.0187
  411MOL0     H55481   2.973   3.537   5.269  1.6322 -0.5838 -1.1231
  411MOL0     H55482   3.254   3.687   4.730  0.3522  1.3541 -0.3389
  411MOL0     H55483   3.519   3.437   4.689 -2.1210  0.4704 -1.5653
  411MOL0     H55484   3.441   3.434   4.839  3.6513  0.5843  1.3764
  411MOL0     H55485   3.348   3.483   4.689 -1.7202  0.0048  3.1864
  412MOL0     O55486  10.298   7.155   5.143 -0.7588 -0.0963 -0.5822
  412MOL0     C55487  10.287   7.277   5.165 -1.3165 -0.5641  0.1634
  412MOL0     O55488  10.240   7.372   5.080 -0.0954 -0.4462  0.2867
  412MOL0     C55489  10.295   7.376   4.952  0.3158 -0.3302 -1.2008
  412MOL0     C55490  10.218   7.377   4.838 -0.1179 -0.5644  0.1378
  412MOL0     C55491  10.274   7.384   4.709  0.8238  0.8010  0.3686
  412MOL0     C55492  10.413   7.426   4.688  0.4857 -0.7095 -0.1234
  412MOL0     O55493  10.476   7.442   4.562 -0.3459 -0.1855 -0.3653
  412MOL0     C55494  10.403   7.399   4.446 -0.0926  1.1387  0.2981
  412MOL0     C55495  10.498   7.424   4.325  0.2500 -0.9334  0.6003
  412MOL0     C55496  10.588   7.311   4.285 -0.2375 -0.2295 -0.1893
  412MOL0     C55497  10.698   7.337   4.191  0.4013  0.5444  0.2084
  412MOL0     C55498  10.652   7.351   4.042  0.4648 -0.5319 -0.2490
  412MOL0     C55499  10.740   7.451   3.975  0.1736 -0.1543  1.0575
  412MOL0     C55500  10.897   7.421   3.981  0.6899  0.5726  0.4974
  412MOL0     C55501  10.979   7.465   3.848  0.7211  0.0907 -0.3523
  412MOL0     N55502  11.123   7.449   3.853 -1.1020  0.2873  0.0144
  412MOL0     C55503  11.184   7.334   3.899 -0.1365  0.5149  0.3601
  412MOL0     C55504  11.317   7.359   3.900 -0.2582  0.3117  0.1540
  412MOL0     C55505  11.427   7.259   3.909  0.1581  0.4433  0.3986
  412MOL0     C55506  11.410   7.155   4.029 -1.1341 -0.4708 -0.7264
  412MOL0     C55507  11.392   7.213   4.166 -0.4774 -0.0660 -0.5688
  412MOL0     C55508  11.518   7.283   4.221  0.3796  0.3325  0.8231
  412MOL0     O55509  11.486   7.348   4.341  0.6328 -0.1564 -0.1649
  412MOL0     C55510  11.465   7.272   4.454 -0.5483  0.7487 -0.9829
  412MOL0     C55511  11.385   7.328   4.559  0.3884 -0.1669  0.2555
  412MOL0     C55512  11.367   7.260   4.686 -0.1919  0.1297  0.1152
  412MOL0     C55513  11.431   7.132   4.704 -0.0519  0.5385 -0.4410
  412MOL0     C55514  11.413   7.059   4.832  0.3038 -0.2297  0.2125
  412MOL0     O55515  11.452   6.930   4.834  1.0722 -0.3720  0.4152
  412MOL0     C55516  11.456   6.870   4.962  0.7581 -0.7804  0.5402
  412MOL0     C55517  11.369   6.771   4.992  0.7893 -0.6034 -0.3672
  412MOL0     C55518  11.396   6.696   5.105 -0.1947 -0.3447 -0.8748
  412MOL0     C55519  11.490   6.732   5.207 -0.8889  0.3606  0.0173
  412MOL0     O55520  11.533   6.666   5.316 -0.3351  0.1528  0.3934
  412MOL0     C55521  11.469   6.542   5.322  0.5102  0.1280 -0.9907
  412MOL0     C55522  11.502   6.457   5.448 -0.0613 -1.0386 -0.1167
  412MOL0     C55523  11.637   6.384   5.432 -0.4608 -0.3493 -0.0537
  412MOL0     C55524  11.639   6.270   5.321 -0.3405  0.7715  0.3138
  412MOL0     C55525  11.782   6.232   5.282  0.2915 -0.1197  0.6216
  412MOL0     C55526  11.780   6.093   5.204  0.3291 -0.4610  0.1875
  412MOL0     C55527  11.918   6.028   5.181 -0.5996 -0.0176  0.4659
  412MOL0     C55528  11.983   6.004   5.312 -0.0295 -0.4303  1.0169
  412MOL0    Cl55529  12.131   5.933   5.269  0.1791  0.1998 -0.1003
  412MOL0     C55530  11.587   6.830   5.165  0.4856 -0.0195 -0.1119
  412MOL0     C55531  11.562   6.897   5.054  0.7687 -0.5341  0.0517
  412MOL0     O55532  11.360   7.115   4.926 -0.0361 -0.3745  0.0412
  412MOL0     C55533  11.492   7.077   4.602  0.3780 -0.2629  0.4451
  412MOL0     C55534  11.508   7.144   4.481  0.0864 -0.4293 -0.2449
  412MOL0     N55535  11.331   7.494   3.861  0.5247 -0.3032 -0.6372
  412MOL0     N55536  11.214   7.544   3.829  0.7346 -0.5392  0.6342
  412MOL0     C55537  10.484   7.436   4.808 -0.5219  0.4321 -0.4062
  412MOL0     C55538  10.430   7.407   4.934 -0.3568 -1.0711 -0.0713
  412MOL0     C55539  10.282   7.314   5.306  0.4610 -0.1296  0.2062
  412MOL0     C55540  10.181   7.416   5.336 -0.1643 -0.4123  0.5656
  412MOL0     C55541  10.165   7.459   5.461 -0.5760  0.2128 -1.3165
  412MOL0     C55542  10.236   7.401   5.571  0.2438 -0.1784  0.7469
  412MOL0     O55543  10.205   7.417   5.702 -0.0016  0.0079  0.1631
  412MOL0     C55544  10.085   7.492   5.730 -0.2663  0.8818 -0.0279
  412MOL0     C55545  10.053   7.478   5.884 -0.4245  0.1390  0.3894
  412MOL0     C55546  10.015   7.329   5.920 -0.5967 -0.0531  0.5593
  412MOL0     C55547   9.921   7.320   6.040  0.0198 -0.8910  0.0593
  412MOL0     C55548   9.984   7.290   6.166  0.2542 -0.0874 -0.1215
  412MOL0     C55549  10.045   7.280   6.265 -0.6046 -0.1205  0.6713
  412MOL0     C55550  10.320   7.296   5.547 -0.5637 -0.9499 -0.7296
  412MOL0     C55551  10.347   7.248   5.410  0.5246  0.0533 -1.0590
  412MOL0     C55552  10.451   7.145   5.403 -0.5488  0.5245 -0.1940
  412MOL0     H55553  10.111   7.360   4.846 -0.8871  3.9009  2.4850
  412MOL0     H55554  10.209   7.384   4.622 -0.0150  1.2488  0.9857
  412MOL0     H55555  10.384   7.292   4.459 -1.1162  1.3307  0.4844
  412MOL0     H55556  10.309   7.454   4.442 -2.0467 -1.8351  1.6492
  412MOL0     H55557  10.541   7.521   4.350 -0.7584  0.1360 -1.6082
  412MOL0     H55558  10.444   7.447   4.233 -0.8140 -1.6710  1.0181
  412MOL0     H55559  10.525   7.233   4.240 -0.5949  1.3150 -2.5539
  412MOL0     H55560  10.627   7.273   4.380  0.2274 -0.1944 -0.3668
  412MOL0     H55561  10.737   7.433   4.227  0.1622  0.5218  0.5339
  412MOL0     H55562  10.768   7.254   4.201 -2.5310 -2.1889 -0.0960
  412MOL0     H55563  10.651   7.255   3.989 -2.0976  0.5229 -2.2881
  412MOL0     H55564  10.549   7.386   4.042  0.1691 -1.0547  3.1836
  412MOL0     H55565  10.717   7.450   3.868  4.5365 -1.3540 -0.0839
  412MOL0     H55566  10.715   7.546   4.024  1.4058 -0.2591  1.9322
  412MOL0     H55567  10.906   7.317   4.014 -1.2600  0.6821  1.5157
  412MOL0     H55568  10.944   7.480   4.060 -0.9291  1.6200  0.7293
  412MOL0     H55569  10.927   7.408   3.770 -3.1712 -0.4096  2.3038
  412MOL0     H55570  10.956   7.569   3.825 -1.2356  0.4811  2.6767
  412MOL0     H55571  11.133   7.240   3.918 -0.0001  0.6508  1.5003
  412MOL0     H55572  11.428   7.206   3.813  1.2077  2.4203 -0.7580
  412MOL0     H55573  11.528   7.295   3.934  0.6284 -2.3758  3.1119
  412MOL0     H55574  11.319   7.095   4.018 -1.9413  0.5656  0.0826
  412MOL0     H55575  11.498   7.091   4.036  0.0816  1.3159  3.8002
  412MOL0     H55576  11.356   7.135   4.234  0.7912  0.1630  0.3946
  412MOL0     H55577  11.318   7.293   4.154  0.4099  0.7761 -0.4667
  412MOL0     H55578  11.542   7.359   4.146 -5.2463  1.0283 -0.7766
  412MOL0     H55579  11.601   7.215   4.240 -0.7350 -1.6540 -0.9079
  412MOL0     H55580  11.337   7.424   4.543 -2.7741 -1.5693  0.6491
  412MOL0     H55581  11.309   7.315   4.759  1.3725  3.3659 -0.9087
  412MOL0     H55582  11.292   6.741   4.922  0.3229  1.2137 -0.6910
  412MOL0     H55583  11.333   6.613   5.137 -0.3270  0.2855  0.5849
  412MOL0     H55584  11.364   6.568   5.330  0.2637 -0.8167 -0.9799
  412MOL0     H55585  11.479   6.478   5.234 -0.5351  2.1485 -2.6666
  412MOL0     H55586  11.518   6.516   5.539  0.9363 -0.7933 -0.4408
  412MOL0     H55587  11.424   6.382   5.466 -2.1715  1.3538  1.4342
  412MOL0     H55588  11.724   6.447   5.414  1.9739 -3.4525 -0.0050
  412MOL0     H55589  11.658   6.338   5.529 -0.3342 -1.5765 -0.6411
  412MOL0     H55590  11.589   6.309   5.232 -2.9103 -1.4729  0.6338
  412MOL0     H55591  11.572   6.190   5.353  0.4834  1.5733  4.7053
  412MOL0     H55592  11.834   6.217   5.377 -0.4240  0.2675  1.0802
  412MOL0     H55593  11.833   6.313   5.229 -0.1454  0.5188  1.1604
  412MOL0     H55594  11.716   6.021   5.257  0.8235 -0.3021  1.0128
  412MOL0     H55595  11.737   6.097   5.104 -3.3070 -2.8179  1.4325
  412MOL0     H55596  11.979   6.094   5.118  2.0486 -3.6682 -1.1973
  412MOL0     H55597  11.911   5.936   5.122  0.3090  1.8252 -2.7498
  412MOL0     H55598  11.996   6.094   5.374  1.9701  0.3162 -0.3777
  412MOL0     H55599  11.931   5.928   5.371  0.7493 -3.6992 -2.1710
  412MOL0     H55600  11.677   6.843   5.224  2.0850 -0.7845 -2.2559
  412MOL0     H55601  11.633   6.976   5.032  1.3645 -1.7487 -2.8202
  412MOL0     H55602  11.532   6.978   4.618 -0.0534 -0.8859 -1.9866
  412MOL0     H55603  11.572   7.091   4.410 -1.2291  0.0964 -1.8876
  412MOL0     H55604  10.590   7.457   4.800 -0.8131  2.2867  0.2632
  412MOL0     H55605  10.497   7.431   5.016 -2.0915 -2.9226  1.9891
  412MOL0     H55606  10.115   7.462   5.263 -0.1602 -1.5938 -0.2142
  412MOL0     H55607  10.085   7.528   5.483 -1.4523 -1.3409  0.6689
  412MOL0     H55608  10.006   7.455   5.664  3.1315 -3.2399 -2.2660
  412MOL0     H55609  10.090   7.599   5.711 -5.8774  1.5388  0.4984
  412MOL0     H55610   9.977   7.552   5.909 -0.6068  0.5132 -1.1388
  412MOL0     H55611  10.139   7.504   5.947  0.2381 -0.1406 -0.3816
  412MOL0     H55612  10.108   7.275   5.939 -0.0876  0.8640  0.7205
  412MOL0     H55613   9.957   7.275   5.844 -2.6822  1.6473  0.8413
  412MOL0     H55614   9.867   7.414   6.058 -1.0787 -1.7937  1.6925
  412MOL0     H55615   9.846   7.245   6.014  1.5472 -2.6417  0.5620
  412MOL0     H55616  10.109   7.262   6.349 -2.1924  0.0572  1.9624
  412MOL0     H55617  10.354   7.251   5.640  0.7578 -0.0635 -0.7548
  412MOL0     H55618  10.407   7.045   5.392 -3.9424  1.5998  2.1674
  412MOL0     H55619  10.506   7.150   5.308  0.9822 -0.6252  0.5784
  412MOL0     H55620  10.521   7.157   5.486  0.0600 -1.4072 -0.3561
  413MOL0     O55621   1.160  10.073   9.424 -0.2367 -0.1456 -1.1409
  413MOL0     C55622   1.131  10.063   9.308  0.4694  0.2723  0.2585
  413MOL0     O55623   1.045   9.970   9.255 -0.1153  1.2215  0.0543
  413MOL0     C55624   0.979   9.887   9.341  0.4424  0.1776 -0.4788
  413MOL0     C55625   0.986   9.752   9.323  0.5190 -0.2246 -0.2880
  413MOL0     C55626   0.921   9.657   9.402  0.3064  0.4013 -0.1475
  413MOL0     C55627   0.836   9.702   9.505 -0.0775  0.2660 -0.0177
  413MOL0     O55628   0.786   9.619   9.605  0.4466 -0.2899 -0.1589
  413MOL0     C55629   0.869   9.510   9.635 -0.5932  0.6687 -0.8538
  413MOL0     C55630   0.850   9.473   9.774 -0.4528 -0.7371  0.0527
  413MOL0     C55631   0.949   9.363   9.825  0.5007 -0.5727 -0.7881
  413MOL0     C55632   0.894   9.215   9.817  0.1173 -0.8578  0.1340
  413MOL0     C55633   0.979   9.108   9.893  0.6655  0.0238  0.1156
  413MOL0     C55634   0.898   8.983   9.886  0.4939  1.0167  0.0322
  413MOL0     C55635   0.966   8.867   9.946  0.1701 -0.3063 -0.0898
  413MOL0     C55636   1.014   8.761   9.846  0.7412 -0.2269 -0.5691
  413MOL0     N55637   1.060   8.648   9.933  0.5260 -0.2167  1.3472
  413MOL0     C55638   1.190   8.617   9.958 -0.6339  1.4705 -0.9430
  413MOL0     C55639   1.188   8.493  10.014 -0.8190 -0.0054  0.3409
  413MOL0     C55640   1.307   8.422  10.054 -0.0025 -1.1917 -0.6709
  413MOL0     C55641   1.343   8.459  10.200  0.3884  0.8408 -0.0376
  413MOL0     C55642   1.238   8.429  10.306 -0.6171 -0.5940  0.1156
  413MOL0     C55643   1.201   8.279  10.319 -0.0953 -0.1721  0.2380
  413MOL0     O55644   1.130   8.265  10.442  0.1189  0.3324  0.6615
  413MOL0     C55645   1.106   8.140  10.505 -1.1375  0.5255 -0.0177
  413MOL0     C55646   1.134   8.014  10.443 -0.1572  0.8903 -0.0576
  413MOL0     C55647   1.077   7.895  10.504 -0.1302  0.0855  0.2829
  413MOL0     C55648   0.996   7.905  10.628  0.5206 -0.5298  1.1380
  413MOL0     C55649   0.940   7.784  10.694 -0.2588 -0.0144  0.2273
  413MOL0     O55650   0.940   7.655  10.627  0.5770 -0.1306  0.0931
  413MOL0     C55651   0.929   7.527  10.689  0.2681 -0.0635 -0.3317
  413MOL0     C55652   0.936   7.427  10.599 -1.1285 -0.5494  0.4727
  413MOL0     C55653   0.929   7.295  10.652  0.2184  1.7821  0.3128
  413MOL0     C55654   0.913   7.260  10.790 -0.8118 -0.1366  1.5399
  413MOL0     O55655   0.911   7.136  10.841  0.7869  0.6566 -0.4956
  413MOL0     C55656   0.823   7.045  10.781  0.1762  0.0352 -0.6533
  413MOL0     C55657   0.738   6.986  10.893 -0.4698  0.1372  0.1127
  413MOL0     C55658   0.810   6.872  10.963  0.0221  0.0215  1.0723
  413MOL0     C55659   0.844   6.920  11.099 -0.2679  0.0182 -0.6970
  413MOL0     C55660   0.926   6.808  11.169  0.1498  0.0273 -0.6102
  413MOL0     C55661   0.908   6.819  11.321  0.2089 -0.1519 -0.6229
  413MOL0     C55662   0.951   6.954  11.379  1.6244 -1.0050 -0.0912
  413MOL0     C55663   0.915   6.964  11.525 -0.9668  0.2058 -0.1806
  413MOL0    Cl55664   0.739   6.967  11.524 -0.3243 -0.1847  0.0275
  413MOL0     C55665   0.878   7.372  10.868  0.4037  0.3504 -0.0533
  413MOL0     C55666   0.892   7.502  10.821 -0.1624 -1.3199 -0.0850
  413MOL0     O55667   0.886   7.806  10.807 -0.2907  0.0264  0.6264
  413MOL0     C55668   0.987   8.028  10.687 -0.5332  0.0035  0.2868
  413MOL0     C55669   1.035   8.146  10.626  0.2182 -0.1655  0.0355
  413MOL0     N55670   1.052   8.455  10.024  0.0460  0.2086 -0.7435
  413MOL0     N55671   0.977   8.551   9.982  0.1646  0.5105 -0.0759
  413MOL0     C55672   0.832   9.842   9.523 -0.9615  0.4038 -0.8221
  413MOL0     C55673   0.901   9.936   9.442 -0.7675  0.4531 -0.3693
  413MOL0     C55674   1.188  10.149   9.204  1.0972  0.4692 -0.5976
  413MOL0     C55675   1.234  10.113   9.079  0.1922  0.2545  0.0701
  413MOL0     C55676   1.290  10.207   8.995 -0.1534 -0.2238  0.1650
  413MOL0     C55677   1.294  10.347   9.011  0.6172  0.2016 -0.0225
  413MOL0     O55678   1.331  10.450   8.922  0.2169 -0.4010 -0.1991
  413MOL0     C55679   1.381  10.419   8.787  0.4262 -0.1339  0.5690
  413MOL0     C55680   1.531  10.397   8.775  0.6401  0.0111 -0.8492
  413MOL0     C55681   1.555  10.422   8.618  0.2394  1.0275  0.5322
  413MOL0     C55682   1.705  10.457   8.591 -0.6475  0.4910 -0.2106
  413MOL0     C55683   1.730  10.476   8.448  0.1919  0.2931  0.2059
  413MOL0     C55684   1.750  10.504   8.335 -0.7931  0.4822  0.5924
  413MOL0     C55685   1.243  10.382   9.141 -0.0708  0.6166 -0.2333
  413MOL0     C55686   1.192  10.289   9.226  0.3271 -0.1637 -1.3214
  413MOL0     C55687   1.148  10.353   9.357  0.4637 -0.0524 -0.5989
  413MOL0     H55688   1.048   9.721   9.239  0.5101  4.6598 -2.4271
  413MOL0     H55689   0.948   9.554   9.383  0.4793  0.6837 -1.5267
  413MOL0     H55690   0.839   9.423   9.576 -2.9347 -3.4617  5.4091
  413MOL0     H55691   0.973   9.544   9.628  0.1944 -1.2532  0.6101
  413MOL0     H55692   0.747   9.469   9.811 -0.3961 -0.5983  0.2289
  413MOL0     H55693   0.888   9.565   9.820  0.7650 -0.2923 -1.7265
  413MOL0     H55694   0.970   9.384   9.930 -1.1840  2.2427 -0.9000
  413MOL0     H55695   1.047   9.364   9.777  0.7032 -4.5025 -0.7199
  413MOL0     H55696   0.793   9.213   9.860  0.4128  0.9880  1.0442
  413MOL0     H55697   0.884   9.187   9.712  0.9196  1.6927 -0.7064
  413MOL0     H55698   1.079   9.094   9.851  0.8106 -1.4131  0.8936
  413MOL0     H55699   0.994   9.124  10.000  0.5599  1.4624 -0.0647
  413MOL0     H55700   0.809   9.006   9.946  0.0648 -1.5843  0.5128
  413MOL0     H55701   0.875   8.972   9.780  2.8124  0.3089 -0.4623
  413MOL0     H55702   0.897   8.822  10.018  2.2206 -0.4001  1.9423
  413MOL0     H55703   1.052   8.899  10.005  0.8152 -1.1334 -0.5502
  413MOL0     H55704   0.942   8.733   9.769  2.2203 -0.0131 -2.0699
  413MOL0     H55705   1.102   8.800   9.796  1.9724  0.2429  1.8237
  413MOL0     H55706   1.276   8.675   9.925  2.0759 -1.5163  0.3066
  413MOL0     H55707   1.302   8.316  10.026 -0.4591 -0.9079 -1.7261
  413MOL0     H55708   1.381   8.471   9.989 -2.9677  1.8666 -2.0505
  413MOL0     H55709   1.436   8.414  10.237 -1.7330 -4.4481 -0.2375
  413MOL0     H55710   1.355   8.568  10.197 -0.6600  1.1173  2.8972
  413MOL0     H55711   1.149   8.492  10.295  0.8360  1.2390 -1.9937
  413MOL0     H55712   1.283   8.456  10.403  1.6618  1.4443 -1.3926
  413MOL0     H55713   1.291   8.217  10.306  1.2506  1.9679 -1.2277
  413MOL0     H55714   1.138   8.240  10.239  3.9907 -2.9148 -2.0547
  413MOL0     H55715   1.188   7.995  10.351  4.8930 -0.1054  2.7146
  413MOL0     H55716   1.103   7.797  10.466 -0.7107  0.5452 -1.4028
  413MOL0     H55717   0.961   7.440  10.494 -0.6742  2.7380  0.8816
  413MOL0     H55718   0.931   7.209  10.585  0.0179  0.2214  2.2388
  413MOL0     H55719   0.753   7.092  10.711  1.5316  0.8972 -1.4785
  413MOL0     H55720   0.883   6.967  10.733  1.7511 -1.8312  3.7983
  413MOL0     H55721   0.711   7.062  10.967 -0.4428 -1.5670  1.9465
  413MOL0     H55722   0.641   6.950  10.857 -1.5631  0.2514  2.7390
  413MOL0     H55723   0.761   6.774  10.970  2.2360 -1.3161 -0.5737
  413MOL0     H55724   0.908   6.855  10.916 -0.8113  1.7953 -1.5083
  413MOL0     H55725   0.751   6.950  11.149  1.2490  2.6790  0.7303
  413MOL0     H55726   0.907   7.008  11.090  0.4387 -0.6143 -2.5146
  413MOL0     H55727   1.031   6.834  11.154  1.0046 -0.3683  3.5194
  413MOL0     H55728   0.893   6.709  11.137 -3.3394  0.7735  0.1832
  413MOL0     H55729   0.803   6.797  11.343  0.6268 -2.5063 -0.7010
  413MOL0     H55730   0.964   6.738  11.368 -0.9680 -2.1504 -2.4667
  413MOL0     H55731   0.922   7.034  11.309 -2.8523 -2.4702 -0.2267
  413MOL0     H55732   1.060   6.964  11.378  1.5853 -0.2187  1.1836
  413MOL0     H55733   0.957   6.881  11.581  0.8755  0.9339 -0.3979
  413MOL0     H55734   0.961   7.055  11.564  1.0604 -0.0819 -1.7387
  413MOL0     H55735   0.835   7.364  10.968 -1.8808  4.2459 -0.5039
  413MOL0     H55736   0.873   7.588  10.883 -1.0797 -2.2838  1.0276
  413MOL0     H55737   0.933   8.033  10.782 -0.1380 -0.6748  0.5519
  413MOL0     H55738   1.028   8.243  10.674  2.4496 -0.4806  1.1878
  413MOL0     H55739   0.783   9.877   9.613  0.6847  1.0401 -0.1442
  413MOL0     H55740   0.887  10.043   9.455 -0.4963  0.8580 -2.9536
  413MOL0     H55741   1.225  10.010   9.046 -3.1229  0.1296  0.9875
  413MOL0     H55742   1.325  10.168   8.899  2.4876  2.4061 -0.1121
  413MOL0     H55743   1.359  10.515   8.739 -0.5447  0.1182  1.4945
  413MOL0     H55744   1.323  10.343   8.733 -1.5438  1.2664  0.6202
  413MOL0     H55745   1.557  10.297   8.811 -3.5778 -0.6702  0.8592
  413MOL0     H55746   1.587  10.470   8.834 -2.9812  2.4094 -0.0590
  413MOL0     H55747   1.488  10.492   8.567 -2.7901 -1.9530 -0.0241
  413MOL0     H55748   1.529  10.324   8.577  1.2150 -1.1980  4.6934
  413MOL0     H55749   1.714  10.552   8.645  0.5037  0.1819  0.1692
  413MOL0     H55750   1.768  10.386   8.645 -2.4190 -0.8856  0.1196
  413MOL0     H55751   1.786  10.527   8.237  0.0322 -0.9707  0.5152
  413MOL0     H55752   1.244  10.489   9.157  1.9483  0.6190 -0.1316
  413MOL0     H55753   1.044  10.332   9.385  0.7472  1.7030  2.1854
  413MOL0     H55754   1.208  10.320   9.442  1.1566  0.0093 -1.0603
  413MOL0     H55755   1.160  10.462   9.357 -0.9619  0.1430  0.6568
  414MOL0     O55756  11.012   1.556   3.984 -0.3302 -0.1632  0.7111
  414MOL0     C55757  11.047   1.494   4.081  0.5067  0.1674 -1.2588
  414MOL0     O55758  11.156   1.512   4.161  0.2599 -0.6161 -0.5935
  414MOL0     C55759  11.253   1.604   4.119 -0.1468  1.3945 -0.6659
  414MOL0     C55760  11.231   1.741   4.127  0.4109 -0.7120  0.2469
  414MOL0     C55761  11.315   1.829   4.050  0.0873 -0.2945 -0.0467
  414MOL0     C55762  11.434   1.784   4.002  0.7384  0.8506 -0.5982
  414MOL0     O55763  11.511   1.883   3.939  0.4275  0.2145  0.1597
  414MOL0     C55764  11.655   1.875   3.948  0.4723 -0.4715  0.2229
  414MOL0     C55765  11.698   1.875   4.094  0.3809 -0.0626  0.2230
  414MOL0     C55766  11.849   1.842   4.102 -0.3056  0.0234 -0.3289
  414MOL0     C55767  11.885   1.689   4.076  0.0917  0.1627 -0.5230
  414MOL0     C55768  12.029   1.655   4.110  0.3138  0.1603 -0.0734
  414MOL0     C55769  12.050   1.503   4.089 -0.2395 -0.0191  0.5999
  414MOL0     C55770  12.020   1.454   3.947  0.4023 -0.1155 -0.6010
  414MOL0     C55771  12.106   1.519   3.845 -0.8373  0.1929  0.7271
  414MOL0     N55772  12.250   1.506   3.876 -0.1888  0.1099  0.1271
  414MOL0     C55773  12.317   1.388   3.843 -0.7762 -0.2339  0.2293
  414MOL0     C55774  12.431   1.419   3.799 -0.3920  0.7442  0.3117
  414MOL0     C55775  12.533   1.314   3.761  0.2739  0.3832 -0.0927
  414MOL0     C55776  12.591   1.237   3.879  0.7034 -0.0480 -0.5864
  414MOL0     C55777  12.741   1.286   3.901 -0.4940  0.0965  1.1027
  414MOL0     C55778  12.749   1.430   3.948 -0.3599  0.2492 -0.6917
  414MOL0     O55779  12.742   1.539   3.851 -0.4866 -0.3086  0.7903
  414MOL0     C55780  12.820   1.657   3.880 -0.0542  0.7545  0.5810
  414MOL0     C55781  12.830   1.748   3.772  0.7780  1.1205 -0.4202
  414MOL0     C55782  12.905   1.862   3.788 -0.6616 -0.0618  0.3033
  414MOL0     C55783  12.959   1.902   3.915 -0.1643 -0.2115 -0.1687
  414MOL0     C55784  13.037   2.030   3.937  0.7277  0.0952  0.7989
  414MOL0     O55785  13.050   2.111   3.826  0.5141 -0.3409 -0.1583
  414MOL0     C55786  13.138   2.211   3.835  0.7459 -0.0041  0.4826
  414MOL0     C55787  13.085   2.338   3.820 -0.2946 -0.4730  0.2084
  414MOL0     C55788  13.175   2.449   3.829  0.1469  0.0068  0.2338
  414MOL0     C55789  13.304   2.432   3.869 -0.4270 -0.0213  0.1746
  414MOL0     O55790  13.400   2.535   3.875  0.2512 -0.3804  0.3195
  414MOL0     C55791  13.360   2.671   3.875  1.0360 -0.3351 -0.2865
  414MOL0     C55792  13.366   2.740   3.748 -0.8639 -0.7768  0.5346
  414MOL0     C55793  13.508   2.782   3.694  0.2123 -0.0813 -0.0935
  414MOL0     C55794  13.509   2.927   3.656 -0.4671  0.5722 -0.2872
  414MOL0     C55795  13.552   3.033   3.760 -0.0737 -0.1780  0.7718
  414MOL0     C55796  13.439   3.055   3.864 -0.4307 -0.4183 -0.8015
  414MOL0     C55797  13.307   3.124   3.807 -0.6418 -0.3246  0.2284
  414MOL0     C55798  13.191   3.114   3.899  0.0085  0.6307 -0.1777
  414MOL0    Cl55799  13.241   3.167   4.075  0.6107  0.0494  0.2615
  414MOL0     C55800  13.355   2.303   3.879  0.7125 -0.0931  0.2372
  414MOL0     C55801  13.274   2.190   3.860 -0.3281 -0.1847  0.4542
  414MOL0     O55802  13.077   2.049   4.051  0.2008 -0.6856  0.6385
  414MOL0     C55803  12.948   1.808   4.017  0.1301 -0.0873 -0.3257
  414MOL0     C55804  12.881   1.684   3.998 -0.6924  1.0980  1.0755
  414MOL0     N55805  12.443   1.563   3.806  0.6152 -0.5761 -0.2967
  414MOL0     N55806  12.333   1.610   3.857 -0.1550 -0.0339 -0.0171
  414MOL0     C55807  11.469   1.650   4.007  0.6509  0.1574  0.2448
  414MOL0     C55808  11.380   1.566   4.066  0.5162 -0.4630 -0.4787
  414MOL0     C55809  10.943   1.388   4.136  0.5155  0.0907 -0.2473
  414MOL0     C55810  10.982   1.317   4.252  1.0331  0.0501  0.2089
  414MOL0     C55811  10.875   1.240   4.320 -0.0251 -0.2227 -0.2260
  414MOL0     C55812  10.748   1.233   4.267 -0.6171  0.0744  0.0949
  414MOL0     O55813  10.638   1.176   4.317  0.1468 -0.2436  0.6457
  414MOL0     C55814  10.653   1.061   4.404 -0.2811 -0.0354  0.1601
  414MOL0     C55815  10.526   0.982   4.395 -0.5932  0.9204  0.1131
  414MOL0     C55816  10.402   1.063   4.439  0.2237 -0.2950 -0.0113
  414MOL0     C55817  10.283   0.977   4.472  0.9695 -0.4793 -0.0115
  414MOL0     C55818  10.199   1.033   4.574  0.4612 -1.2603  0.5557
  414MOL0     C55819  10.134   1.082   4.665 -0.6446 -0.7778 -0.8649
  414MOL0     C55820  10.730   1.277   4.139  0.1367 -0.7796 -0.1521
  414MOL0     C55821  10.824   1.350   4.070 -0.4440  0.0858  0.5747
  414MOL0     C55822  10.791   1.373   3.926 -0.3446  0.3644  0.8786
  414MOL0     H55823  11.140   1.783   4.169 -0.4951  1.4754 -3.4813
  414MOL0     H55824  11.294   1.934   4.038  2.0640  0.7325  3.9946
  414MOL0     H55825  11.694   1.795   3.886  0.8454 -1.5166  1.7517
  414MOL0     H55826  11.689   1.973   3.912  1.5285 -0.3643  1.3992
  414MOL0     H55827  11.640   1.807   4.157  3.4864 -0.3248  3.1077
  414MOL0     H55828  11.688   1.975   4.135  0.9860 -1.1132  3.1739
  414MOL0     H55829  11.896   1.887   4.190 -2.3564  0.1255  0.7823
  414MOL0     H55830  11.903   1.901   4.027 -0.2361  1.4060  0.7560
  414MOL0     H55831  11.814   1.629   4.133  2.9924 -1.0002  2.1423
  414MOL0     H55832  11.868   1.662   3.971  0.2220  0.1411 -0.5387
  414MOL0     H55833  12.099   1.704   4.041  1.0677  1.2856  1.4277
  414MOL0     H55834  12.067   1.688   4.207  0.6311  1.5203 -0.6424
  414MOL0     H55835  12.157   1.504   4.109 -0.1805  0.7999  0.3039
  414MOL0     H55836  11.990   1.446   4.161 -1.8090 -1.0439 -1.3865
  414MOL0     H55837  11.922   1.483   3.909  1.2092  0.8333 -2.0222
  414MOL0     H55838  12.042   1.348   3.933  4.1241  0.7320 -2.3757
  414MOL0     H55839  12.082   1.474   3.748  1.4212  1.9714 -0.7596
  414MOL0     H55840  12.089   1.627   3.847  1.6661  0.6675  2.6371
  414MOL0     H55841  12.295   1.282   3.850  1.4820 -1.4524 -5.4933
  414MOL0     H55842  12.484   1.252   3.686 -1.1432  0.7603  0.4925
  414MOL0     H55843  12.616   1.369   3.716  0.1458  1.8678  1.3683
  414MOL0     H55844  12.544   1.252   3.977  1.4910  1.7220 -0.4492
  414MOL0     H55845  12.587   1.129   3.861  1.4441 -0.3876  1.0845
  414MOL0     H55846  12.795   1.267   3.808 -1.7546 -0.4319  0.4631
  414MOL0     H55847  12.789   1.227   3.980 -1.6470  0.2956  1.9764
  414MOL0     H55848  12.841   1.431   4.007 -0.7570  0.1160 -0.0726
  414MOL0     H55849  12.666   1.430   4.019  1.6128  0.1500  1.7434
  414MOL0     H55850  12.790   1.714   3.677  0.2784 -0.4227  0.2936
  414MOL0     H55851  12.900   1.931   3.704 -1.1952  0.4616  0.7550
  414MOL0     H55852  12.982   2.350   3.789 -0.4144  1.3468  1.1583
  414MOL0     H55853  13.151   2.547   3.791  0.7217 -0.6739 -2.0282
  414MOL0     H55854  13.274   2.687   3.940  0.6800  2.9414 -1.3661
  414MOL0     H55855  13.439   2.721   3.931 -0.2871  3.3294 -1.4004
  414MOL0     H55856  13.334   2.673   3.667 -1.6447  0.3807 -0.1567
  414MOL0     H55857  13.304   2.831   3.747  3.5312  2.5454 -0.6526
  414MOL0     H55858  13.579   2.762   3.775 -0.6983  0.5072  0.8708
  414MOL0     H55859  13.553   2.729   3.610  2.8084  0.9578  0.5186
  414MOL0     H55860  13.410   2.954   3.619  0.0583  0.6079 -1.7124
  414MOL0     H55861  13.566   2.948   3.565  1.5007  1.1985  1.0130
  414MOL0     H55862  13.567   3.134   3.721 -2.8720  1.4695  3.5703
  414MOL0     H55863  13.644   2.997   3.809 -0.5471 -2.4795  0.1031
  414MOL0     H55864  13.417   2.957   3.908 -1.6085  0.4168  0.5730
  414MOL0     H55865  13.478   3.117   3.945  1.2040 -2.0340 -0.2819
  414MOL0     H55866  13.273   3.084   3.710  1.2374 -0.8297 -0.2556
  414MOL0     H55867  13.330   3.228   3.781  1.6200 -1.9258 -6.2601
  414MOL0     H55868  13.106   3.166   3.855  0.0285  1.6369  0.9216
  414MOL0     H55869  13.175   3.006   3.897 -1.8488  0.8844 -0.4355
  414MOL0     H55870  13.456   2.300   3.917  0.2534 -1.8156  1.4153
  414MOL0     H55871  13.314   2.091   3.880 -0.8374 -0.0316  2.4853
  414MOL0     H55872  12.984   1.827   4.117  0.6340  1.5638 -0.7750
  414MOL0     H55873  12.885   1.613   4.079 -1.4242  0.3505  0.4798
  414MOL0     H55874  11.564   1.614   3.969 -0.8875 -2.8724 -1.0124
  414MOL0     H55875  11.397   1.460   4.056  0.2233 -1.0689  3.7590
  414MOL0     H55876  11.083   1.322   4.290  2.1458  1.3438 -2.6087
  414MOL0     H55877  10.907   1.187   4.409  0.2215 -0.0924 -0.2355
  414MOL0     H55878  10.671   1.093   4.507  1.9847 -3.7600  1.1014
  414MOL0     H55879  10.738   0.996   4.379 -0.0014 -0.0372  1.0620
  414MOL0     H55880  10.542   0.897   4.463  0.3799  0.3208 -0.8297
  414MOL0     H55881  10.504   0.937   4.298 -1.9014  0.3366  0.6458
  414MOL0     H55882  10.370   1.140   4.368 -0.9619 -0.8746 -0.1425
  414MOL0     H55883  10.427   1.114   4.532  0.7826 -0.8200  0.1272
  414MOL0     H55884  10.226   0.959   4.381  2.2333 -3.8256 -0.2844
  414MOL0     H55885  10.318   0.880   4.508  2.2659 -0.3353 -0.8243
  414MOL0     H55886  10.092   1.106   4.761 -1.1980 -0.9949 -1.0500
  414MOL0     H55887  10.638   1.264   4.082  0.3273  1.2236 -0.9886
  414MOL0     H55888  10.783   1.480   3.905 -3.4851  0.2797  1.2308
  414MOL0     H55889  10.872   1.329   3.867 -0.0497 -0.8111  2.1044
  414MOL0     H55890  10.702   1.322   3.890  1.0414  0.1653 -2.6862
  415MOL0     O55891   7.983   6.207   4.870 -0.6661  1.0207 -0.4172
  415MOL0     C55892   7.927   6.201   4.767  0.0645 -0.6247  0.0992
  415MOL0     O55893   7.943   6.290   4.669 -0.5720  1.0201  0.3187
  415MOL0     C55894   8.026   6.389   4.652  0.5949 -0.2451 -0.4218
  415MOL0     C55895   8.006   6.451   4.532  0.3528 -1.0533 -0.6418
  415MOL0     C55896   8.084   6.558   4.492  0.2878 -0.1913  0.4307
  415MOL0     C55897   8.189   6.608   4.582 -0.7613 -0.0694 -0.5191
  415MOL0     O55898   8.270   6.711   4.556 -0.5684 -0.4233  0.4111
  415MOL0     C55899   8.301   6.742   4.423 -0.2984  0.1414  0.4018
  415MOL0     C55900   8.409   6.844   4.422 -0.0432  0.8072  0.5223
  415MOL0     C55901   8.438   6.900   4.287  0.2197  0.4028 -0.4972
  415MOL0     C55902   8.521   6.802   4.218 -0.5417  1.1770  0.3265
  415MOL0     C55903   8.603   6.873   4.104  0.0042  1.1214 -0.6731
  415MOL0     C55904   8.660   6.780   3.997  0.5899  0.6477 -0.4355
  415MOL0     C55905   8.769   6.670   4.039  1.0074 -0.4004 -0.0535
  415MOL0     C55906   8.914   6.722   4.035  0.0506 -0.5474 -0.1571
  415MOL0     N55907   8.947   6.761   3.896  0.2750 -0.5330 -0.0113
  415MOL0     C55908   9.005   6.684   3.791  0.2568  0.2670 -0.1555
  415MOL0     C55909   9.017   6.765   3.685  0.5541 -0.5714  0.4526
  415MOL0     C55910   9.043   6.745   3.536  0.1250 -0.9292  0.0817
  415MOL0     C55911   9.185   6.787   3.483 -0.1368  0.2022  0.8016
  415MOL0     C55912   9.173   6.931   3.427 -0.1467  0.4981 -0.7119
  415MOL0     C55913   9.309   6.976   3.355 -0.6610 -0.3734 -0.7938
  415MOL0     O55914   9.341   6.907   3.231 -0.4498  0.1471  0.0668
  415MOL0     C55915   9.465   6.932   3.176 -0.1549 -0.1466  0.0252
  415MOL0     C55916   9.542   7.040   3.203 -0.1378 -0.2298  0.5857
  415MOL0     C55917   9.645   7.064   3.119 -1.0654 -0.2126 -0.0338
  415MOL0     C55918   9.683   6.971   3.020 -0.7817  0.2954 -0.3723
  415MOL0     C55919   9.794   7.013   2.929 -0.7044  0.2244  0.4671
  415MOL0     O55920   9.826   6.931   2.826 -0.0209  0.1948 -0.6321
  415MOL0     C55921   9.891   6.977   2.711  0.4387  0.5078  0.0232
  415MOL0     C55922   9.920   7.108   2.674  0.3100  0.2110 -0.5945
  415MOL0     C55923   9.987   7.139   2.556  0.2522 -0.3307 -0.4812
  415MOL0     C55924  10.039   7.034   2.474 -0.5260 -0.3151  0.2866
  415MOL0     O55925  10.115   7.072   2.360 -0.2709  0.4808 -0.0777
  415MOL0     C55926  10.140   6.974   2.256 -0.4203 -0.2763 -0.3256
  415MOL0     C55927  10.191   7.056   2.137 -0.0997  0.3423 -0.0137
  415MOL0     C55928  10.164   6.983   2.001 -0.1643  0.2735  0.0338
  415MOL0     C55929  10.241   6.842   2.005  0.0957 -0.6386 -0.2709
  415MOL0     C55930  10.262   6.783   1.871  0.4464 -0.5558 -0.5981
  415MOL0     C55931  10.373   6.853   1.796 -0.1945  0.0667 -0.3745
  415MOL0     C55932  10.413   6.769   1.667 -0.4650  0.1104 -0.3991
  415MOL0     C55933  10.528   6.836   1.603  0.8855 -0.2441 -0.0393
  415MOL0    Cl55934  10.584   6.753   1.457  0.3796  0.2178  0.0083
  415MOL0     C55935  10.010   6.896   2.512  0.0228 -0.0469 -0.0290
  415MOL0     C55936   9.937   6.871   2.626 -0.2276 -0.8463 -0.9674
  415MOL0     O55937   9.858   7.113   2.968 -0.5987 -0.1578 -0.0518
  415MOL0     C55938   9.614   6.855   3.007 -0.6085 -0.0033  0.6526
  415MOL0     C55939   9.512   6.833   3.087 -0.4718 -0.6769 -0.3354
  415MOL0     N55940   8.990   6.898   3.732  0.1749  0.2654  0.9476
  415MOL0     N55941   8.971   6.895   3.862  0.2083 -0.0880 -0.3991
  415MOL0     C55942   8.195   6.556   4.715  0.3027 -0.2139  0.4462
  415MOL0     C55943   8.115   6.444   4.755 -0.4942 -0.2597  0.1455
  415MOL0     C55944   7.808   6.112   4.745 -0.0108 -0.4582 -0.2693
  415MOL0     C55945   7.814   5.969   4.784  0.0733  0.2794  1.0238
  415MOL0     C55946   7.716   5.875   4.748 -0.0153  0.0903 -0.3839
  415MOL0     C55947   7.592   5.921   4.690  0.0052  0.1677 -0.3826
  415MOL0     O55948   7.495   5.829   4.661 -0.8665 -0.3132  0.0053
  415MOL0     C55949   7.490   5.706   4.728 -0.1112  0.2028  0.4728
  415MOL0     C55950   7.350   5.634   4.700  0.4203 -0.6484  0.3073
  415MOL0     C55951   7.232   5.689   4.794 -0.2748  0.0926  0.2347
  415MOL0     C55952   7.105   5.610   4.761 -0.5693  0.1097  0.0704
  415MOL0     C55953   6.981   5.680   4.825 -0.0150  0.1478  1.0640
  415MOL0     C55954   6.875   5.719   4.870  0.4857 -0.5762 -0.4136
  415MOL0     C55955   7.585   6.055   4.654  0.3693 -0.4690  0.0163
  415MOL0     C55956   7.690   6.149   4.676 -0.2114  0.1750  0.3878
  415MOL0     C55957   7.651   6.296   4.649  0.0486 -0.2324 -0.2245
  415MOL0     H55958   7.939   6.405   4.460  0.1043  1.6286 -2.2963
  415MOL0     H55959   8.077   6.600   4.393  2.0924  1.1896  0.8206
  415MOL0     H55960   8.324   6.651   4.365 -1.9784 -0.5729  0.8146
  415MOL0     H55961   8.208   6.780   4.382  0.4846  1.3835 -0.2880
  415MOL0     H55962   8.503   6.809   4.464  0.6014 -0.0618 -1.5434
  415MOL0     H55963   8.373   6.919   4.494 -0.7343 -1.3458  2.5736
  415MOL0     H55964   8.490   6.996   4.292 -2.2723  1.7949  1.0873
  415MOL0     H55965   8.347   6.916   4.228  1.5554  2.3507 -2.1821
  415MOL0     H55966   8.574   6.735   4.286  0.7868  0.7304 -1.0919
  415MOL0     H55967   8.452   6.740   4.160 -1.0260  1.9155  0.0960
  415MOL0     H55968   8.530   6.937   4.053  0.0521  0.5647 -1.4573
  415MOL0     H55969   8.685   6.934   4.143 -0.7256  1.7582 -0.1064
  415MOL0     H55970   8.573   6.726   3.958  1.2424  1.5965 -3.4141
  415MOL0     H55971   8.696   6.840   3.914  0.0210 -0.9183 -1.8700
  415MOL0     H55972   8.759   6.581   3.975  1.4675  0.0544 -0.7659
  415MOL0     H55973   8.745   6.633   4.139  1.3554  0.6439  0.4190
  415MOL0     H55974   8.922   6.812   4.098  3.4248  1.7258 -3.3504
  415MOL0     H55975   8.982   6.645   4.072 -0.1720 -0.9051 -0.4941
  415MOL0     H55976   9.022   6.576   3.789 -0.0462  0.0509  3.4775
  415MOL0     H55977   9.044   6.635   3.536  3.1975 -0.9715 -0.7129
  415MOL0     H55978   8.966   6.799   3.481  2.5995  1.2052 -1.5050
  415MOL0     H55979   9.262   6.779   3.560  0.5737  0.8096  0.1693
  415MOL0     H55980   9.237   6.724   3.410  0.6114  0.2455  1.2839
  415MOL0     H55981   9.154   7.001   3.508  0.0603 -0.0106 -0.2207
  415MOL0     H55982   9.093   6.937   3.352  1.6985 -0.6780 -2.9176
  415MOL0     H55983   9.383   6.945   3.430 -2.4979  0.9443  1.7378
  415MOL0     H55984   9.302   7.084   3.340  2.5517 -0.3979 -3.6246
  415MOL0     H55985   9.507   7.116   3.272 -2.5101 -2.8223  2.4947
  415MOL0     H55986   9.705   7.154   3.123 -0.8505 -0.3055 -0.8089
  415MOL0     H55987   9.890   7.195   2.733  0.7956 -0.3090  0.4481
  415MOL0     H55988  10.003   7.239   2.517 -2.8615 -0.6265 -2.9579
  415MOL0     H55989  10.203   6.888   2.278 -1.0288 -0.7993 -0.6041
  415MOL0     H55990  10.039   6.943   2.227 -0.2888  1.9205 -3.6531
  415MOL0     H55991  10.147   7.155   2.135  1.2375  0.9868 -2.3186
  415MOL0     H55992  10.298   7.077   2.146  0.1374  0.4573 -2.3638
  415MOL0     H55993  10.056   6.974   1.986 -0.4804 -0.6054  2.4109
  415MOL0     H55994  10.207   7.054   1.930  3.1555  1.3067  2.8174
  415MOL0     H55995  10.177   6.784   2.073 -0.6767  2.4145  1.8364
  415MOL0     H55996  10.331   6.843   2.066 -0.5183 -2.5552  0.7526
  415MOL0     H55997  10.171   6.776   1.812  0.6112  2.5237 -1.3959
  415MOL0     H55998  10.288   6.679   1.895  0.1106 -1.1792 -2.7745
  415MOL0     H55999  10.328   6.945   1.757 -2.6227 -0.9760 -0.2245
  415MOL0     H56000  10.460   6.886   1.853 -1.7370  0.7974  1.6717
  415MOL0     H56001  10.324   6.765   1.604 -1.4727 -1.7606  1.0447
  415MOL0     H56002  10.448   6.667   1.686 -1.2526 -0.3827 -1.5162
  415MOL0     H56003  10.488   6.936   1.583 -1.9470 -0.4436  3.5312
  415MOL0     H56004  10.612   6.854   1.670  0.1810  0.8746  0.5805
  415MOL0     H56005  10.057   6.813   2.462 -1.7011 -0.5568 -0.8613
  415MOL0     H56006   9.915   6.768   2.653 -1.2248 -0.7215 -1.2784
  415MOL0     H56007   9.624   6.791   2.920  0.5861  2.6264 -1.2610
  415MOL0     H56008   9.454   6.747   3.057  0.0659 -1.0552 -0.3142
  415MOL0     H56009   8.269   6.592   4.786  0.4472 -1.4415  0.9481
  415MOL0     H56010   8.116   6.396   4.852 -1.6571 -1.3712 -0.3607
  415MOL0     H56011   7.901   5.931   4.837  3.4474  2.3534 -2.4853
  415MOL0     H56012   7.736   5.770   4.765 -1.2659  0.1575  1.9757
  415MOL0     H56013   7.516   5.711   4.834  0.4935 -0.2631  0.3480
  415MOL0     H56014   7.568   5.641   4.687  0.6669  1.5352 -0.1979
  415MOL0     H56015   7.358   5.527   4.722  0.9796 -0.6584  0.0737
  415MOL0     H56016   7.323   5.638   4.594 -1.5616  1.2300  0.8228
  415MOL0     H56017   7.199   5.791   4.773 -0.4968  0.4783  2.2036
  415MOL0     H56018   7.254   5.690   4.901 -1.2807 -1.4303  0.4858
  415MOL0     H56019   7.096   5.610   4.652  0.2577 -4.7796 -0.2534
  415MOL0     H56020   7.114   5.503   4.782 -1.0957 -0.0437 -0.4425
  415MOL0     H56021   6.791   5.772   4.911  2.4319  1.2957  1.3923
  415MOL0     H56022   7.491   6.089   4.612 -0.4751 -0.1237  2.0738
  415MOL0     H56023   7.629   6.301   4.542  0.5791 -1.9633 -0.4512
  415MOL0     H56024   7.560   6.320   4.704 -1.2116 -2.5139 -1.1709
  415MOL0     H56025   7.728   6.370   4.669  1.4851 -1.6505 -0.2568
  416MOL0     O56026  10.636   1.766  10.692  0.5026  0.8612  0.2530
  416MOL0     C56027  10.667   1.669  10.753 -0.0811 -0.2928  0.4939
  416MOL0     O56028  10.789   1.606  10.747 -0.5783 -0.1883 -0.1453
  416MOL0     C56029  10.892   1.671  10.678 -0.0258  0.5149  0.2582
  416MOL0     C56030  11.021   1.671  10.736  0.4694 -0.0115 -0.2344
  416MOL0     C56031  11.131   1.736  10.685  0.1208 -0.1076  0.1019
  416MOL0     C56032  11.127   1.807  10.561 -0.3226 -0.7654 -0.4708
  416MOL0     O56033  11.235   1.877  10.516 -0.9291  0.0862  0.1400
  416MOL0     C56034  11.348   1.806  10.480 -0.1607  0.0759 -0.1905
  416MOL0     C56035  11.483   1.876  10.528 -0.7893  0.3168  0.2113
  416MOL0     C56036  11.557   1.964  10.422  0.3539  0.2491 -0.5868
  416MOL0     C56037  11.645   2.058  10.494 -0.4728 -0.6174  0.5447
  416MOL0     C56038  11.728   2.149  10.393 -0.1921 -0.0784 -0.3381
  416MOL0     C56039  11.825   2.251  10.469  0.0330  0.2410 -0.0020
  416MOL0     C56040  11.935   2.174  10.541 -0.4623  0.8353  0.3891
  416MOL0     C56041  12.037   2.266  10.609 -1.3851  0.6716  0.2918
  416MOL0     N56042  12.150   2.180  10.663 -0.1425 -0.4295  0.6014
  416MOL0     C56043  12.135   2.110  10.783 -0.1299 -0.0961  0.6537
  416MOL0     C56044  12.239   2.020  10.774  0.0404 -0.0964 -0.0163
  416MOL0     C56045  12.259   1.907  10.872  0.7967  0.0039  0.2372
  416MOL0     C56046  12.172   1.794  10.837 -0.2761  0.5736  0.2532
  416MOL0     C56047  12.206   1.728  10.698 -0.5425 -0.6861 -0.2736
  416MOL0     C56048  12.330   1.639  10.716 -0.1674 -0.0610 -0.1659
  416MOL0     O56049  12.310   1.533  10.813 -0.9048 -0.1057  0.3317
  416MOL0     C56050  12.207   1.446  10.783  0.2792  0.6220 -0.1738
  416MOL0     C56051  12.142   1.418  10.656 -0.6023 -0.4607  0.0996
  416MOL0     C56052  12.046   1.320  10.633 -0.2283 -0.0138 -0.7584
  416MOL0     C56053  12.005   1.245  10.742  0.0989  0.0518 -0.1058
  416MOL0     C56054  11.908   1.131  10.735  0.1130 -0.6662 -0.8081
  416MOL0     O56055  11.914   1.067  10.619 -0.3372  1.2614 -0.7990
  416MOL0     C56056  11.827   0.962  10.601  0.0493 -0.1999 -0.0903
  416MOL0     C56057  11.761   0.964  10.477 -0.1125  0.5374  0.5737
  416MOL0     C56058  11.666   0.870  10.427 -0.4930  1.1434 -0.1996
  416MOL0     C56059  11.639   0.765  10.515  0.5837  0.7305  0.3175
  416MOL0     O56060  11.552   0.664  10.469 -0.1058 -0.1012 -0.3855
  416MOL0     C56061  11.424   0.708  10.414 -0.4225  0.4755 -0.4167
  416MOL0     C56062  11.321   0.593  10.440 -0.2259 -0.7239  0.7457
  416MOL0     C56063  11.188   0.613  10.363 -0.5604  0.1136  0.2790
  416MOL0     C56064  11.087   0.505  10.389  0.8939 -0.1323  0.3846
  416MOL0     C56065  10.949   0.542  10.334 -0.3211 -0.2109  0.2394
  416MOL0     C56066  10.940   0.529  10.184 -0.4919 -0.9066  0.4499
  416MOL0     C56067  10.800   0.567  10.134 -0.0920  0.4172 -0.3075
  416MOL0     C56068  10.783   0.542   9.978 -0.3610 -0.7020 -0.7427
  416MOL0    Cl56069  10.893   0.643   9.896 -0.0366 -0.0412  0.3123
  416MOL0     C56070  11.709   0.756  10.638  0.2145 -0.0351 -0.0471
  416MOL0     C56071  11.804   0.856  10.680 -1.1052 -0.4952 -0.0788
  416MOL0     O56072  11.843   1.102  10.836 -0.2947 -0.1485 -0.1602
  416MOL0     C56073  12.068   1.272  10.867  0.0135 -0.1851 -0.3785
  416MOL0     C56074  12.162   1.367  10.885 -0.7989  0.6100  0.2086
  416MOL0     N56075  12.318   2.040  10.667  0.0162 -0.2739  0.5307
  416MOL0     N56076  12.258   2.127  10.597  0.3274 -0.1663  0.2001
  416MOL0     C56077  10.996   1.796  10.496  0.4956 -0.0885 -0.5091
  416MOL0     C56078  10.883   1.737  10.555 -0.0136  0.2274 -0.4653
  416MOL0     C56079  10.559   1.615  10.833  0.3787  0.6910  0.0847
  416MOL0     C56080  10.605   1.552  10.953  0.1487  0.4108  0.4295
  416MOL0     C56081  10.520   1.469  11.030  0.1244 -0.3535  0.5428
  416MOL0     C56082  10.385   1.460  10.991 -0.3212  0.9114 -0.0925
  416MOL0     O56083  10.307   1.398  11.090 -0.5120 -0.1918  0.1850
  416MOL0     C56084  10.167   1.388  11.088  0.2896 -0.8926 -0.5297
  416MOL0     C56085  10.129   1.281  11.182 -0.1201 -0.7288  0.0050
  416MOL0     C56086   9.985   1.276  11.219 -0.2933 -0.2605  0.7679
  416MOL0     C56087   9.960   1.357  11.340  0.2822  0.0335 -0.3463
  416MOL0     C56088   9.822   1.353  11.383  0.2819  0.0991 -0.1116
  416MOL0     C56089   9.710   1.363  11.437 -0.5742  0.2216 -0.0330
  416MOL0     C56090  10.330   1.528  10.881 -0.4495 -0.2428  0.3047
  416MOL0     C56091  10.423   1.595  10.797  0.2568 -0.3449  0.0735
  416MOL0     C56092  10.380   1.662  10.675  1.2676  0.1220 -0.1220
  416MOL0     H56093  11.041   1.613  10.825  0.1179  0.1072 -0.0780
  416MOL0     H56094  11.220   1.718  10.744  0.5519 -0.2031 -0.5720
  416MOL0     H56095  11.340   1.700  10.509 -0.9782  0.1028 -0.3158
  416MOL0     H56096  11.351   1.799  10.371  3.3486 -0.1210 -0.2101
  416MOL0     H56097  11.555   1.800  10.561  0.3338  0.6964 -1.2800
  416MOL0     H56098  11.457   1.946  10.607 -1.3111 -1.3919  1.6279
  416MOL0     H56099  11.478   2.018  10.369 -0.9208 -1.0225 -0.0297
  416MOL0     H56100  11.611   1.904  10.347  2.0226 -0.8741  1.4134
  416MOL0     H56101  11.579   2.122  10.551 -0.1277 -1.7596  2.3116
  416MOL0     H56102  11.704   2.002  10.567  0.3371  0.3849  0.6817
  416MOL0     H56103  11.787   2.078  10.335  0.4370  0.3836 -0.2760
  416MOL0     H56104  11.666   2.213  10.328  0.2842  0.9413  0.1817
  416MOL0     H56105  11.869   2.310  10.388  1.0755 -1.3015 -0.5864
  416MOL0     H56106  11.773   2.309  10.546  0.4673 -0.1420  0.5916
  416MOL0     H56107  11.985   2.116  10.463 -0.7836 -2.0279  2.1679
  416MOL0     H56108  11.897   2.105  10.618 -0.5622  0.6752  0.1964
  416MOL0     H56109  12.069   2.340  10.536  4.3715 -1.1092  0.4770
  416MOL0     H56110  11.975   2.306  10.690 -1.4302  0.5793  0.3028
  416MOL0     H56111  12.058   2.116  10.860  1.5600  0.7581  2.3809
  416MOL0     H56112  12.364   1.876  10.877  0.9703 -0.2847 -3.1298
  416MOL0     H56113  12.239   1.941  10.974  0.8951 -3.4143  1.5180
  416MOL0     H56114  12.177   1.718  10.915 -0.4659 -0.0083 -0.2887
  416MOL0     H56115  12.067   1.824  10.847 -0.8638 -1.6111  1.2909
  416MOL0     H56116  12.233   1.801  10.621 -0.1606  0.6091  1.0349
  416MOL0     H56117  12.121   1.665  10.670 -0.7586 -0.2283 -0.6804
  416MOL0     H56118  12.414   1.690  10.763  0.6475 -2.7972  1.5776
  416MOL0     H56119  12.363   1.605  10.617 -1.6892 -1.9823 -0.0782
  416MOL0     H56120  12.170   1.466  10.563 -0.8153  1.3312  0.9187
  416MOL0     H56121  12.014   1.303  10.531 -1.4228  0.1796 -0.4263
  416MOL0     H56122  11.784   1.041  10.403 -2.3809  0.5011 -0.2448
  416MOL0     H56123  11.617   0.879  10.330 -0.7664 -2.8661 -0.6390
  416MOL0     H56124  11.380   0.800  10.454 -0.5562  1.1001 -1.8992
  416MOL0     H56125  11.428   0.725  10.306  1.3589  2.0435 -0.1535
  416MOL0     H56126  11.356   0.494  10.410  0.7143  0.1351 -1.1994
  416MOL0     H56127  11.307   0.608  10.547 -0.9066  2.8704  0.2756
  416MOL0     H56128  11.140   0.711  10.376 -0.2092  0.1862  1.0502
  416MOL0     H56129  11.228   0.610  10.261 -0.8394 -3.8012  0.1393
  416MOL0     H56130  11.067   0.488  10.496 -1.7515  3.4232  0.6317
  416MOL0     H56131  11.111   0.407  10.348 -0.2082 -0.6846  1.0097
  416MOL0     H56132  10.943   0.651  10.350 -1.9559 -0.2438 -0.0399
  416MOL0     H56133  10.874   0.484  10.388  1.1465 -2.9386 -0.4928
  416MOL0     H56134  11.012   0.602  10.146 -1.5328 -0.4919 -0.7699
  416MOL0     H56135  10.979   0.431  10.153  3.2791  0.2635  0.9585
  416MOL0     H56136  10.781   0.674  10.146 -0.9332  0.6723 -3.1829
  416MOL0     H56137  10.727   0.512  10.194  2.5013 -2.1383  0.7347
  416MOL0     H56138  10.800   0.435   9.963  0.7250 -0.3095 -2.4819
  416MOL0     H56139  10.678   0.562   9.951 -0.3113 -0.8386 -1.0375
  416MOL0     H56140  11.681   0.663  10.687  0.7835  0.4079  1.1375
  416MOL0     H56141  11.850   0.853  10.779 -0.8706 -0.7230 -0.1935
  416MOL0     H56142  12.058   1.208  10.954 -3.6171 -0.5676 -0.9051
  416MOL0     H56143  12.219   1.370  10.977 -0.0829 -1.4385 -0.1355
  416MOL0     H56144  10.987   1.847  10.400  1.7538 -1.7084 -1.5434
  416MOL0     H56145  10.787   1.757  10.507  1.1240  2.4809 -1.9981
  416MOL0     H56146  10.704   1.564  10.994  1.3464 -1.7188 -1.5974
  416MOL0     H56147  10.548   1.431  11.128  4.4540 -1.8653 -1.0579
  416MOL0     H56148  10.127   1.349  10.994 -0.0466 -1.8290 -0.0120
  416MOL0     H56149  10.122   1.485  11.110 -1.1538 -1.5839 -0.2910
  416MOL0     H56150  10.183   1.308  11.274 -0.8209  0.7016  0.0332
  416MOL0     H56151  10.166   1.186  11.145  1.1025 -0.4634  0.4921
  416MOL0     H56152   9.967   1.169  11.234  0.1643 -0.3156  0.9334
  416MOL0     H56153   9.941   1.313  11.126  1.8983  0.4384 -0.0595
  416MOL0     H56154  10.023   1.316  11.419  0.9539 -0.0471 -0.9141
  416MOL0     H56155   9.990   1.461  11.323  1.5960 -0.0974  0.9750
  416MOL0     H56156   9.615   1.363  11.487  0.1655  2.6413  1.5909
  416MOL0     H56157  10.224   1.528  10.857 -0.6794 -3.0367  0.9481
  416MOL0     H56158  10.272   1.656  10.655  1.0818 -0.8287  1.1002
  416MOL0     H56159  10.392   1.771  10.676 -0.0430  0.3460 -1.8592
  416MOL0     H56160  10.429   1.621  10.586  0.9632  1.5603 -0.9946
  417MOL0     O56161   5.099   2.262   4.735 -0.7393  0.1657 -0.4003
  417MOL0     C56162   5.041   2.290   4.630 -0.0452  0.9896 -0.3812
  417MOL0     O56163   5.058   2.230   4.511 -0.2823 -0.5385 -0.7170
  417MOL0     C56164   5.168   2.152   4.487  0.3402 -0.6907 -0.4286
  417MOL0     C56165   5.151   2.060   4.387  0.1046 -0.4598  0.5295
  417MOL0     C56166   5.253   1.977   4.333  0.9866  0.2611 -0.9080
  417MOL0     C56167   5.372   1.992   4.390 -0.0526  0.1011  0.8684
  417MOL0     O56168   5.484   1.910   4.358 -0.3267 -0.1110 -0.8487
  417MOL0     C56169   5.510   1.880   4.225  0.8714 -0.0466  1.1650
  417MOL0     C56170   5.664   1.879   4.196  0.7288  0.4815 -0.7215
  417MOL0     C56171   5.732   2.017   4.234  0.1711 -0.5056 -0.4221
  417MOL0     C56172   5.797   2.001   4.371 -0.1946  0.2379  0.0868
  417MOL0     C56173   5.921   2.083   4.378  0.1550  0.8191 -0.0837
  417MOL0     C56174   5.903   2.236   4.369  0.1777 -0.2565 -0.3506
  417MOL0     C56175   5.922   2.315   4.502 -0.0069 -0.4940 -1.2969
  417MOL0     C56176   5.900   2.467   4.467 -0.5349 -0.7084 -0.1641
  417MOL0     N56177   5.980   2.525   4.350 -0.1783  0.8106 -0.8248
  417MOL0     C56178   6.117   2.532   4.343  0.6169 -0.2912 -0.0556
  417MOL0     C56179   6.148   2.594   4.226  0.4731 -0.1521  0.0773
  417MOL0     C56180   6.293   2.608   4.184  0.5054  0.2851  0.2046
  417MOL0     C56181   6.309   2.669   4.047 -0.4158  0.0582 -0.5383
  417MOL0     C56182   6.448   2.647   3.999 -0.2867 -0.0397  0.7350
  417MOL0     C56183   6.431   2.610   3.846  0.5743 -0.1415  0.9684
  417MOL0     O56184   6.549   2.645   3.764 -0.7928  0.7626  0.0340
  417MOL0     C56185   6.673   2.590   3.786  0.6959  0.2105 -0.5795
  417MOL0     C56186   6.714   2.497   3.877  0.0601 -0.0767 -0.3552
  417MOL0     C56187   6.842   2.442   3.877 -0.8343 -1.0847 -0.2738
  417MOL0     C56188   6.939   2.486   3.787 -0.3584 -0.5017  0.6156
  417MOL0     C56189   7.082   2.446   3.786  0.4098  0.2347  0.0579
  417MOL0     O56190   7.123   2.371   3.891  0.0831  0.8739 -0.5628
  417MOL0     C56191   7.255   2.345   3.910 -0.2170 -0.1052 -0.7574
  417MOL0     C56192   7.317   2.387   4.029 -0.4615  0.5260  0.4992
  417MOL0     C56193   7.452   2.355   4.049  0.2806 -0.6382  0.4127
  417MOL0     C56194   7.528   2.284   3.954  0.1574 -0.2284 -0.1112
  417MOL0     O56195   7.661   2.233   3.970  0.8597  0.0145 -0.7952
  417MOL0     C56196   7.737   2.304   4.073 -0.2013 -0.1582  0.4171
  417MOL0     C56197   7.886   2.276   4.068  0.0544  0.5553 -0.6116
  417MOL0     C56198   7.936   2.152   4.148 -0.0277  0.7194 -0.3033
  417MOL0     C56199   8.088   2.162   4.182  0.0267 -0.9857  0.4813
  417MOL0     C56200   8.134   2.035   4.265  0.9316  0.1705  0.5459
  417MOL0     C56201   8.095   1.893   4.205  1.4729  0.3266 -1.1957
  417MOL0     C56202   8.179   1.787   4.267  0.7498  0.5222 -0.3089
  417MOL0     C56203   8.094   1.663   4.303  0.0681 -0.4002  0.0174
  417MOL0    Cl56204   8.179   1.507   4.301 -0.0929  0.5746  0.4265
  417MOL0     C56205   7.466   2.252   3.835  0.1155  0.7515  0.3084
  417MOL0     C56206   7.328   2.279   3.810  0.3137 -0.9933  0.3749
  417MOL0     O56207   7.150   2.508   3.703  0.5048 -0.3589 -0.3615
  417MOL0     C56208   6.897   2.589   3.700 -0.4610  0.2030  0.7998
  417MOL0     C56209   6.769   2.644   3.698  0.1140  0.3870 -0.0304
  417MOL0     N56210   6.034   2.646   4.176  0.2135  0.3777  0.2153
  417MOL0     N56211   5.929   2.595   4.242  0.8689 -0.4167 -0.6634
  417MOL0     C56212   5.401   2.090   4.480 -0.7990  0.2388  0.0884
  417MOL0     C56213   5.301   2.174   4.531  0.3274 -0.5857  0.4010
  417MOL0     C56214   4.940   2.396   4.632  0.7605  0.0566 -0.6773
  417MOL0     C56215   4.857   2.404   4.518 -0.5448  0.7996  0.8263
  417MOL0     C56216   4.739   2.488   4.526  0.2535  0.0879  0.5156
  417MOL0     C56217   4.702   2.560   4.645 -0.4597  0.9776 -0.3523
  417MOL0     O56218   4.585   2.625   4.672 -0.3171 -0.0572 -0.1191
  417MOL0     C56219   4.479   2.609   4.581  0.1271  0.4576 -0.6796
  417MOL0     C56220   4.354   2.686   4.613  0.6776 -0.2642  0.3683
  417MOL0     C56221   4.255   2.612   4.715  0.9952 -0.3056  0.0941
  417MOL0     C56222   4.238   2.683   4.852 -0.2045 -1.0813 -0.2285
  417MOL0     C56223   4.160   2.805   4.840 -0.8757  0.1969 -0.1330
  417MOL0     C56224   4.116   2.918   4.849  0.4077  0.7492 -0.5815
  417MOL0     C56225   4.795   2.567   4.747  0.2662  0.0103  0.2924
  417MOL0     C56226   4.908   2.484   4.747 -0.8877  0.3134  1.5340
  417MOL0     C56227   4.990   2.481   4.876 -0.3283 -0.1293 -0.0691
  417MOL0     H56228   5.052   2.037   4.350 -0.2816  1.5239  0.2333
  417MOL0     H56229   5.234   1.892   4.268 -1.5665  0.7056 -0.8480
  417MOL0     H56230   5.464   1.785   4.199  1.6020  0.1082 -0.8531
  417MOL0     H56231   5.462   1.955   4.161  0.7606 -0.8153  0.3224
  417MOL0     H56232   5.696   1.872   4.091  5.5071  1.6773  0.4001
  417MOL0     H56233   5.723   1.799   4.242  0.1886  0.9162  0.7728
  417MOL0     H56234   5.654   2.094   4.235 -1.6139 -2.2271  0.3968
  417MOL0     H56235   5.806   2.041   4.157  1.2381 -0.9540  0.4328
  417MOL0     H56236   5.723   2.005   4.451 -2.0303 -1.3093 -1.4278
  417MOL0     H56237   5.840   1.901   4.385  2.0914  1.0103 -0.9411
  417MOL0     H56238   5.976   2.065   4.470  1.9210  2.8289 -0.6472
  417MOL0     H56239   5.989   2.059   4.295 -1.3743 -0.6050 -0.9806
  417MOL0     H56240   5.959   2.280   4.286 -2.7412 -1.0596 -2.9710
  417MOL0     H56241   5.800   2.262   4.339 -1.0952 -1.2663  2.7548
  417MOL0     H56242   6.024   2.319   4.542 -0.4896  2.8612 -0.1174
  417MOL0     H56243   5.848   2.279   4.574  0.9421  2.2710  1.2523
  417MOL0     H56244   5.795   2.484   4.440 -0.9487  1.1014  2.2504
  417MOL0     H56245   5.911   2.531   4.555 -1.6489  1.9938 -1.8569
  417MOL0     H56246   6.189   2.485   4.409  1.3835  2.5324  1.2768
  417MOL0     H56247   6.342   2.681   4.250 -1.4830 -0.4795  2.6627
  417MOL0     H56248   6.335   2.508   4.198 -0.4274 -0.4200 -1.7474
  417MOL0     H56249   6.243   2.606   3.986 -1.4761 -2.3146  2.7464
  417MOL0     H56250   6.272   2.772   4.046  3.0512  1.4267 -0.5435
  417MOL0     H56251   6.489   2.564   4.057  0.3404  0.4681  1.0216
  417MOL0     H56252   6.505   2.740   4.004 -0.8869  0.4862 -1.1908
  417MOL0     H56253   6.348   2.658   3.792  1.5717 -1.8956 -2.4545
  417MOL0     H56254   6.406   2.504   3.838  1.7631 -0.8270  4.6072
  417MOL0     H56255   6.649   2.459   3.955 -1.9170 -0.3916 -2.0675
  417MOL0     H56256   6.871   2.378   3.960  1.1372 -2.3282 -1.8523
  417MOL0     H56257   7.254   2.431   4.107  0.7022  0.9079  1.2522
  417MOL0     H56258   7.494   2.399   4.139  1.6403 -1.1218  0.0260
  417MOL0     H56259   7.727   2.411   4.049  2.2224  0.3449  1.3595
  417MOL0     H56260   7.687   2.288   4.170 -3.4075 -1.3165 -1.2711
  417MOL0     H56261   7.909   2.257   3.963 -0.5969 -1.2990 -0.4609
  417MOL0     H56262   7.937   2.357   4.120  1.5238 -1.2507  0.9354
  417MOL0     H56263   7.875   2.131   4.236 -1.8857  1.3353 -1.3865
  417MOL0     H56264   7.929   2.065   4.082  0.7697 -0.9630  1.7257
  417MOL0     H56265   8.093   2.249   4.248 -1.6571 -1.6825  1.5826
  417MOL0     H56266   8.148   2.186   4.094 -0.4684  2.3131  0.9209
  417MOL0     H56267   8.091   2.050   4.365  0.2573  0.6386  0.1975
  417MOL0     H56268   8.243   2.037   4.278  1.4047 -2.7055 -1.8605
  417MOL0     H56269   7.991   1.877   4.238  1.1014 -3.4581 -3.5445
  417MOL0     H56270   8.103   1.890   4.096  0.1173  1.7513 -1.3682
  417MOL0     H56271   8.233   1.818   4.357  1.1416 -2.2556  0.5277
  417MOL0     H56272   8.254   1.743   4.201  0.7302 -3.7261  2.1217
  417MOL0     H56273   8.058   1.675   4.406  0.7211 -0.5969  0.2730
  417MOL0     H56274   8.019   1.652   4.224 -1.7452 -0.7665  1.7013
  417MOL0     H56275   7.524   2.194   3.765 -0.7511 -2.4270  2.0178
  417MOL0     H56276   7.276   2.257   3.717 -0.6111  0.5477  0.4979
  417MOL0     H56277   6.970   2.630   3.631 -0.9886 -1.1207 -0.5897
  417MOL0     H56278   6.737   2.719   3.626 -3.7868  2.0004  2.9952
  417MOL0     H56279   5.506   2.100   4.505 -0.6571 -0.7210 -0.0917
  417MOL0     H56280   5.332   2.259   4.590  2.2724  0.5851 -2.0869
  417MOL0     H56281   4.867   2.332   4.437  0.5652  0.2502  1.4259
  417MOL0     H56282   4.666   2.479   4.446 -0.5004 -2.8664  1.3995
  417MOL0     H56283   4.446   2.505   4.570 -0.6762  0.8079 -1.6830
  417MOL0     H56284   4.529   2.646   4.491 -2.2253 -1.9319 -3.1717
  417MOL0     H56285   4.299   2.698   4.519  0.1599 -0.6430  0.6146
  417MOL0     H56286   4.388   2.781   4.654 -0.4800  0.2743  0.1399
  417MOL0     H56287   4.309   2.522   4.746  2.1935 -0.4544 -2.2121
  417MOL0     H56288   4.152   2.602   4.679  0.9053 -0.4080  0.3790
  417MOL0     H56289   4.177   2.623   4.920  1.4096  0.5661  2.9066
  417MOL0     H56290   4.341   2.697   4.886  1.9757 -5.1545 -4.1147
  417MOL0     H56291   4.088   3.021   4.852  1.8662  1.3574 -3.8386
  417MOL0     H56292   4.776   2.624   4.838 -1.6993 -1.0212  0.5627
  417MOL0     H56293   4.979   2.401   4.950  0.4919  0.9389  1.2568
  417MOL0     H56294   5.097   2.488   4.852  0.1646 -0.8116  1.7742
  417MOL0     H56295   4.969   2.570   4.936  0.9426 -0.8387  1.5054
  418MOL0     O56296   5.496   5.724  10.405  0.0078  0.1466 -0.7647
  418MOL0     C56297   5.551   5.727  10.516 -0.1422 -0.7009  0.3549
  418MOL0     O56298   5.683   5.687  10.548 -0.2819 -0.4707 -0.8131
  418MOL0     C56299   5.758   5.616  10.460  0.0862 -0.0425  0.8603
  418MOL0     C56300   5.894   5.609  10.486 -0.2122 -0.5772 -0.2279
  418MOL0     C56301   5.984   5.534  10.415  0.6708  0.6981  0.5262
  418MOL0     C56302   5.934   5.456  10.303 -0.2548  0.3672 -0.9909
  418MOL0     O56303   6.003   5.384  10.215 -0.3262 -0.0405 -0.0967
  418MOL0     C56304   6.140   5.416  10.217  0.4551  0.1264 -0.3325
  418MOL0     C56305   6.209   5.342  10.105  0.7128  0.4220 -0.6645
  418MOL0     C56306   6.182   5.187  10.099  0.3199 -0.3917  1.3311
  418MOL0     C56307   6.271   5.117  10.201  0.5220 -0.2953 -0.1064
  418MOL0     C56308   6.246   4.963  10.200  0.1885 -0.2264 -0.1207
  418MOL0     C56309   6.383   4.901  10.239  0.1354 -0.2879  0.3961
  418MOL0     C56310   6.381   4.744  10.229  0.1131 -0.3125  0.4267
  418MOL0     C56311   6.268   4.676  10.311  0.1136 -0.6447  0.1195
  418MOL0     N56312   6.300   4.703  10.449  0.0657  0.2398  0.1516
  418MOL0     C56313   6.402   4.645  10.530 -0.5333  0.7015  0.4612
  418MOL0     C56314   6.412   4.727  10.635  0.2193 -0.3346  0.0123
  418MOL0     C56315   6.517   4.737  10.737  0.5779  0.7456  0.6659
  418MOL0     C56316   6.578   4.881  10.730 -1.1380  0.6527  0.2543
  418MOL0     C56317   6.531   4.986  10.831 -0.0273 -0.3772  0.2106
  418MOL0     C56318   6.584   4.961  10.976  0.1438  0.4703 -0.7222
  418MOL0     O56319   6.569   5.087  11.053  0.1404  0.2387  0.5270
  418MOL0     C56320   6.448   5.122  11.106 -0.2061  0.9606 -0.6183
  418MOL0     C56321   6.412   5.259  11.106  0.2137  0.2754  0.6036
  418MOL0     C56322   6.305   5.297  11.187 -0.8928  0.6683 -0.0465
  418MOL0     C56323   6.218   5.202  11.241  0.1089  0.7042 -1.0453
  418MOL0     C56324   6.093   5.247  11.313  0.4796 -0.0179  0.3006
  418MOL0     O56325   6.060   5.379  11.311  0.6543 -0.4545 -1.0076
  418MOL0     C56326   5.953   5.408  11.393  0.5087  0.0555  0.1483
  418MOL0     C56327   5.947   5.434  11.528 -0.1725  0.3238 -0.4078
  418MOL0     C56328   5.834   5.457  11.595 -0.4689 -0.2999 -0.0719
  418MOL0     C56329   5.714   5.470  11.527 -0.4149  0.1930  0.1371
  418MOL0     O56330   5.598   5.518  11.588  0.4546  0.0472 -0.7259
  418MOL0     C56331   5.516   5.402  11.633  0.0074 -1.0202 -0.0189
  418MOL0     C56332   5.388   5.386  11.561  0.4358 -0.1278 -0.4082
  418MOL0     C56333   5.287   5.502  11.597  0.0470  0.4864 -0.3833
  418MOL0     C56334   5.171   5.501  11.492  0.5755  0.1761  1.2868
  418MOL0     C56335   5.052   5.580  11.553 -0.7416 -0.6765  0.7821
  418MOL0     C56336   4.914   5.572  11.475 -0.3657 -0.5192  0.9428
  418MOL0     C56337   4.805   5.661  11.537  0.3703  1.3018  0.7328
  418MOL0     C56338   4.824   5.806  11.493 -0.0029  0.6597 -0.0287
  418MOL0    Cl56339   4.722   5.901  11.587 -0.5182 -0.2170 -0.1766
  418MOL0     C56340   5.713   5.418  11.396  0.0667 -0.6996  0.1609
  418MOL0     C56341   5.831   5.389  11.332 -0.6003  0.3218  0.9982
  418MOL0     O56342   6.022   5.154  11.354 -0.3276  0.0219 -0.4667
  418MOL0     C56343   6.248   5.065  11.232  0.3099 -0.6221 -0.5487
  418MOL0     C56344   6.360   5.026  11.168 -0.3711  0.3274 -0.4464
  418MOL0     N56345   6.304   4.820  10.632 -0.2164 -0.3618  0.3606
  418MOL0     N56346   6.244   4.814  10.524  0.1169 -0.0997  0.0548
  418MOL0     C56347   5.808   5.470  10.265  0.6070 -0.3508 -0.4571
  418MOL0     C56348   5.719   5.549  10.340 -0.1695  0.6181 -0.7357
  418MOL0     C56349   5.466   5.798  10.627  0.2157 -0.5420 -0.4168
  418MOL0     C56350   5.530   5.839  10.743  0.4250  1.3768  0.3761
  418MOL0     C56351   5.468   5.912  10.849 -0.1290 -1.1903 -0.3926
  418MOL0     C56352   5.340   5.964  10.830  0.7260 -0.7939 -0.8809
  418MOL0     O56353   5.297   6.041  10.936  0.3662 -0.2826  0.0186
  418MOL0     C56354   5.166   6.095  10.915 -0.3777 -0.0301  0.1977
  418MOL0     C56355   5.133   6.178  11.040  0.1999  0.1796 -0.4138
  418MOL0     C56356   5.156   6.331  11.023 -0.2616  0.0978  1.2954
  418MOL0     C56357   5.291   6.363  10.950  0.4411 -0.1320 -0.3871
  418MOL0     C56358   5.298   6.502  10.912 -0.9597 -0.6339  0.4175
  418MOL0     C56359   5.291   6.625  10.892 -0.4001  0.7490  0.6877
  418MOL0     C56360   5.268   5.924  10.720 -0.0045  0.2885  1.0398
  418MOL0     C56361   5.329   5.839  10.618 -0.4839 -0.0304 -0.0510
  418MOL0     C56362   5.250   5.796  10.499 -0.5777  0.0277 -0.1353
  418MOL0     H56363   5.938   5.649  10.577  0.4918  0.6378 -1.0787
  418MOL0     H56364   6.090   5.534  10.439  1.0054  3.1157 -0.6045
  418MOL0     H56365   6.157   5.524  10.216  3.9342 -0.2646  1.8480
  418MOL0     H56366   6.186   5.383  10.310 -0.9019  1.3034  0.8036
  418MOL0     H56367   6.314   5.368  10.120  0.2093  0.9773  2.5279
  418MOL0     H56368   6.165   5.375  10.010  1.0763 -1.1171 -1.4040
  418MOL0     H56369   6.217   5.152  10.002 -1.0316 -3.1615  1.7550
  418MOL0     H56370   6.077   5.157  10.099  0.4443 -0.8867  2.5341
  418MOL0     H56371   6.375   5.149  10.187  0.4155  0.5860  0.9390
  418MOL0     H56372   6.244   5.148  10.302 -0.0506 -2.3944  0.4316
  418MOL0     H56373   6.180   4.944  10.285  1.9766  1.0749  1.6177
  418MOL0     H56374   6.209   4.919  10.106 -0.8490  0.0814  0.1320
  418MOL0     H56375   6.450   4.943  10.163 -1.7439 -0.4385 -1.4647
  418MOL0     H56376   6.412   4.937  10.338  2.1782  3.1689 -1.2646
  418MOL0     H56377   6.477   4.700  10.257 -0.4227 -2.6344 -1.0557
  418MOL0     H56378   6.378   4.716  10.123  5.2104 -1.4229  0.3461
  418MOL0     H56379   6.173   4.717  10.276  0.7348  1.0078  0.2787
  418MOL0     H56380   6.270   4.571  10.280  1.0821 -0.4113 -0.6352
  418MOL0     H56381   6.470   4.567  10.499 -0.2543  1.3201 -0.5578
  418MOL0     H56382   6.478   4.710  10.835  0.5073 -1.8504 -0.0084
  418MOL0     H56383   6.609   4.683  10.712  1.3403  0.0537  4.3553
  418MOL0     H56384   6.687   4.873  10.731 -1.1083 -0.9582 -3.1618
  418MOL0     H56385   6.556   4.923  10.632  0.8958  2.9705  0.6956
  418MOL0     H56386   6.421   4.986  10.832 -0.0251 -0.2958  1.2945
  418MOL0     H56387   6.567   5.081  10.790 -0.0802 -0.9988 -1.3702
  418MOL0     H56388   6.691   4.938  10.974  0.4868  1.7760  0.6872
  418MOL0     H56389   6.529   4.880  11.025  3.2963 -2.4093 -1.5916
  418MOL0     H56390   6.476   5.324  11.047  4.0269 -5.0071 -1.8158
  418MOL0     H56391   6.278   5.402  11.196 -2.4454  0.1095  4.1607
  418MOL0     H56392   6.039   5.429  11.587  0.0425  2.3435 -0.4885
  418MOL0     H56393   5.849   5.494  11.695  0.2296 -2.7039  0.7799
  418MOL0     H56394   5.568   5.308  11.611 -2.8974 -2.3487 -1.7671
  418MOL0     H56395   5.495   5.418  11.739  1.5355  1.4280 -0.0100
  418MOL0     H56396   5.401   5.402  11.454 -0.1296 -0.3785 -0.5223
  418MOL0     H56397   5.337   5.290  11.576  1.8601 -0.9397 -0.6438
  418MOL0     H56398   5.243   5.489  11.696  1.4924  0.5588  0.2888
  418MOL0     H56399   5.348   5.593  11.597  1.3175 -0.3482  0.6905
  418MOL0     H56400   5.143   5.398  11.472 -0.9174  1.3216 -4.2078
  418MOL0     H56401   5.204   5.539  11.395 -2.6640  0.4977  0.1845
  418MOL0     H56402   5.078   5.686  11.549 -1.0350 -0.6449 -1.3644
  418MOL0     H56403   5.052   5.558  11.660  2.0519 -1.4125  0.7211
  418MOL0     H56404   4.922   5.595  11.368  0.0080 -1.5183  0.7445
  418MOL0     H56405   4.864   5.475  11.473 -3.9334  1.1572  1.0588
  418MOL0     H56406   4.798   5.643  11.645  3.3074 -0.7520  0.7256
  418MOL0     H56407   4.712   5.622  11.494  0.7582  1.1803 -0.0184
  418MOL0     H56408   4.922   5.851  11.510 -0.5954  1.5978  1.0684
  418MOL0     H56409   4.809   5.803  11.385  0.9551 -3.6293 -0.2473
  418MOL0     H56410   5.617   5.416  11.344  0.7935 -0.2637 -1.2392
  418MOL0     H56411   5.832   5.353  11.230  0.7328  2.0210  0.3565
  418MOL0     H56412   6.173   4.993  11.262 -0.6763  0.7692  0.4627
  418MOL0     H56413   6.376   4.920  11.152  1.7078  0.2915  1.4562
  418MOL0     H56414   5.782   5.412  10.177 -1.1071 -2.1483  1.1194
  418MOL0     H56415   5.616   5.561  10.306 -0.4313 -0.6120 -0.4036
  418MOL0     H56416   5.632   5.810  10.767  0.6948  0.5548 -1.6048
  418MOL0     H56417   5.509   5.938  10.946  2.8311 -2.4862 -1.1797
  418MOL0     H56418   5.078   6.031  10.903 -0.8395  0.9992 -2.4687
  418MOL0     H56419   5.162   6.158  10.825  1.2006  0.3728  0.3763
  418MOL0     H56420   5.175   6.127  11.127  2.0885  0.1885 -1.2579
  418MOL0     H56421   5.024   6.178  11.048  0.1530 -1.1934 -0.8207
  418MOL0     H56422   5.137   6.373  11.121 -2.7587 -1.7561  1.7098
  418MOL0     H56423   5.079   6.366  10.954  0.5910 -1.5614 -0.6285
  418MOL0     H56424   5.377   6.336  11.011 -1.0282  0.0435  1.8569
  418MOL0     H56425   5.296   6.311  10.854  1.4291  2.7623 -2.0427
  418MOL0     H56426   5.281   6.729  10.866  1.1195  1.2903  2.0816
  418MOL0     H56427   5.164   5.952  10.710  0.2652  1.1346  0.4717
  418MOL0     H56428   5.149   5.827  10.526 -0.3865  0.0597  0.5644
  418MOL0     H56429   5.279   5.840  10.403  2.4449 -0.7388  0.3245
  418MOL0     H56430   5.246   5.687  10.494 -1.5136  0.0319  0.3680
  419MOL0     O56431  10.120   3.499  10.218  0.1882  0.1977 -0.7512
  419MOL0     C56432   9.998   3.479  10.235 -0.6252 -0.0606 -0.7694
  419MOL0     O56433   9.921   3.400  10.157  0.7928  0.0453  0.2205
  419MOL0     C56434   9.952   3.279  10.089  0.4480  0.0971  0.6688
  419MOL0     C56435  10.080   3.224  10.087 -0.3753  0.2716  0.5989
  419MOL0     C56436  10.103   3.101  10.024 -0.9615 -0.9956 -1.1770
  419MOL0     C56437  10.002   3.036   9.949  0.2299  0.2333  0.3687
  419MOL0     O56438  10.023   2.918   9.878 -0.4787 -0.1674 -0.2389
  419MOL0     C56439  10.157   2.858   9.870  0.9962  0.1681 -0.0819
  419MOL0     C56440  10.139   2.717   9.813 -0.2880  0.6450 -0.4382
  419MOL0     C56441  10.191   2.704   9.676 -0.2357  0.5491  0.1410
  419MOL0     C56442  10.137   2.810   9.580  0.5060  0.5639 -0.1419
  419MOL0     C56443  10.158   2.753   9.435 -0.5308  0.6321 -0.0727
  419MOL0     C56444  10.305   2.773   9.394  0.6332 -0.2988 -0.4853
  419MOL0     C56445  10.314   2.762   9.243  0.4758  0.8533 -0.4174
  419MOL0     C56446  10.419   2.657   9.201 -0.2350  0.9201 -0.9322
  419MOL0     N56447  10.557   2.707   9.189 -0.1917 -0.3850  0.3983
  419MOL0     C56448  10.594   2.781   9.079 -0.4701  0.0996  0.6760
  419MOL0     C56449  10.729   2.773   9.082 -0.0074  0.2256  0.1978
  419MOL0     C56450  10.832   2.836   8.991  0.6676  0.4941  0.4553
  419MOL0     C56451  10.849   2.986   9.023  0.0505 -0.0979 -0.0961
  419MOL0     C56452  10.928   3.008   9.158 -0.7442  0.7594 -0.6211
  419MOL0     C56453  10.983   3.147   9.182  0.1104  0.5738 -0.4632
  419MOL0     O56454  11.092   3.155   9.088 -0.0482  0.2064 -0.4561
  419MOL0     C56455  11.124   3.275   9.032  1.0022 -0.8483 -0.9429
  419MOL0     C56456  11.064   3.407   9.068  0.0442  0.0630 -0.1250
  419MOL0     C56457  11.116   3.524   9.011 -0.2352 -0.4091 -0.1701
  419MOL0     C56458  11.219   3.518   8.915 -0.6770 -0.3755 -0.2349
  419MOL0     C56459  11.270   3.628   8.830 -1.1364 -0.3093  0.7708
  419MOL0     O56460  11.380   3.612   8.755 -0.7248 -0.3234 -0.1381
  419MOL0     C56461  11.409   3.677   8.638  0.2999  0.3876 -0.0397
  419MOL0     C56462  11.338   3.779   8.564  0.0870  0.1434 -0.4021
  419MOL0     C56463  11.379   3.839   8.449 -0.1295  0.0892 -0.0193
  419MOL0     C56464  11.509   3.811   8.407 -0.1456 -0.5036  0.2999
  419MOL0     O56465  11.566   3.871   8.299 -0.5415 -0.1245 -0.4496
  419MOL0     C56466  11.542   4.006   8.287 -0.7675  0.2641 -0.2013
  419MOL0     C56467  11.664   4.074   8.210  0.3451 -0.3417  0.6040
  419MOL0     C56468  11.800   4.026   8.261 -1.3598  0.2546  0.5930
  419MOL0     C56469  11.861   4.060   8.397 -0.1493  0.2175 -0.1444
  419MOL0     C56470  11.981   3.974   8.433  0.2923 -0.4081 -0.2782
  419MOL0     C56471  12.080   4.042   8.532  0.1475  0.4085  1.0078
  419MOL0     C56472  12.171   3.934   8.592 -0.4366 -0.3138 -0.6120
  419MOL0     C56473  12.310   3.993   8.644  0.1942 -0.2286  0.5097
  419MOL0    Cl56474  12.394   4.088   8.511  0.0115  0.0039  0.2230
  419MOL0     C56475  11.584   3.727   8.475 -0.0790  0.4174  1.1598
  419MOL0     C56476  11.533   3.656   8.583  0.8106 -0.4897  0.7801
  419MOL0     O56477  11.215   3.741   8.840 -0.4059 -0.1750 -0.2853
  419MOL0     C56478  11.283   3.398   8.893 -0.9267  0.1420 -0.3850
  419MOL0     C56479  11.241   3.279   8.953  0.7499 -0.2863 -0.8164
  419MOL0     N56480  10.770   2.712   9.198 -0.5132  0.4339  0.3788
  419MOL0     N56481  10.666   2.681   9.263  0.1241  0.2829  0.0006
  419MOL0     C56482   9.877   3.104   9.941 -0.2497  0.0475 -0.0187
  419MOL0     C56483   9.857   3.216  10.022 -0.5659  0.2377 -0.0193
  419MOL0     C56484   9.931   3.566  10.333 -0.4006 -0.1451  0.3392
  419MOL0     C56485   9.792   3.587  10.322  0.9129 -0.5366 -0.0295
  419MOL0     C56486   9.724   3.684  10.399  0.4128  0.0729  0.1666
  419MOL0     C56487   9.786   3.753  10.499 -0.3111 -0.0434 -0.4916
  419MOL0     O56488   9.733   3.842  10.582 -0.2826  0.5919 -0.1478
  419MOL0     C56489   9.593   3.864  10.599  0.5038 -0.4666  0.0052
  419MOL0     C56490   9.524   3.754  10.676  0.8494 -0.0514 -0.5437
  419MOL0     C56491   9.400   3.794  10.759 -0.7834  0.1043  0.1484
  419MOL0     C56492   9.285   3.874  10.692 -0.4636 -0.7565 -0.6817
  419MOL0     C56493   9.251   3.820  10.558  0.2062 -0.3756 -0.0588
  419MOL0     C56494   9.236   3.766  10.450 -0.6812  0.2880  0.2325
  419MOL0     C56495   9.923   3.728  10.524  0.5360  0.6101 -0.3195
  419MOL0     C56496  10.002   3.645  10.435  0.0665 -0.3814 -0.6240
  419MOL0     C56497  10.153   3.638  10.454 -0.3626 -0.0857 -0.2020
  419MOL0     H56498  10.157   3.259  10.154  0.2741 -1.1129  0.5956
  419MOL0     H56499  10.198   3.056  10.048  1.1620  3.7303  0.5792
  419MOL0     H56500  10.228   2.921   9.814 -1.2118  1.7795 -1.2266
  419MOL0     H56501  10.208   2.851   9.966 -0.7214  0.0668  0.8566
  419MOL0     H56502  10.042   2.666   9.819  0.3416 -0.6097 -0.5191
  419MOL0     H56503  10.202   2.660   9.882 -2.2381  0.9042  1.6612
  419MOL0     H56504  10.158   2.605   9.643  1.3528  0.2570 -0.6745
  419MOL0     H56505  10.300   2.693   9.675 -0.2660 -0.2680  1.9648
  419MOL0     H56506  10.029   2.821   9.594  0.4522 -0.9357  0.8070
  419MOL0     H56507  10.185   2.908   9.586 -0.2821  1.0951 -1.9100
  419MOL0     H56508  10.136   2.647   9.421  3.9111 -0.8392  2.3428
  419MOL0     H56509  10.096   2.816   9.370 -0.8340 -0.9813 -1.3889
  419MOL0     H56510  10.341   2.871   9.426 -1.3886  1.1719 -2.3440
  419MOL0     H56511  10.373   2.695   9.428  1.4829  0.1818 -1.0360
  419MOL0     H56512  10.324   2.858   9.190  1.3022  0.9413 -0.1212
  419MOL0     H56513  10.219   2.721   9.208  0.8348 -1.3212  0.9725
  419MOL0     H56514  10.414   2.572   9.271 -0.1839  2.4503  1.0019
  419MOL0     H56515  10.390   2.611   9.106  0.7954 -3.4853  0.6329
  419MOL0     H56516  10.526   2.829   9.010 -0.1736  1.1437  1.1001
  419MOL0     H56517  10.924   2.779   9.008 -0.4197 -1.3789  0.3298
  419MOL0     H56518  10.807   2.831   8.885  1.0992 -2.0318  0.4221
  419MOL0     H56519  10.899   3.043   8.945  1.0599 -2.4223 -1.2480
  419MOL0     H56520  10.753   3.032   9.047  1.0090  1.2856  1.3015
  419MOL0     H56521  11.020   2.950   9.165  0.9614  3.2171 -1.1512
  419MOL0     H56522  10.869   2.988   9.248 -1.1904  2.4558 -0.5061
  419MOL0     H56523  11.010   3.167   9.287  0.5127 -0.2164 -0.4036
  419MOL0     H56524  10.909   3.223   9.160  1.0125  1.6008 -0.0477
  419MOL0     H56525  10.991   3.430   9.146  0.7291 -0.9103  0.8393
  419MOL0     H56526  11.074   3.623   9.018 -1.0624 -0.8568  1.6758
  419MOL0     H56527  11.246   3.816   8.609  1.7458  1.4982  2.1484
  419MOL0     H56528  11.305   3.906   8.407 -1.2615 -0.9303  0.3094
  419MOL0     H56529  11.454   4.038   8.230 -0.6045 -0.2212 -0.7351
  419MOL0     H56530  11.538   4.054   8.386 -3.2880  2.0537 -1.0680
  419MOL0     H56531  11.653   4.040   8.107  1.3881 -0.0826  0.3918
  419MOL0     H56532  11.644   4.182   8.213 -0.4686 -0.3698 -1.9141
  419MOL0     H56533  11.809   3.918   8.241 -2.3071 -0.1584  2.1656
  419MOL0     H56534  11.867   4.055   8.180 -2.2764 -1.6977 -0.9397
  419MOL0     H56535  11.786   4.050   8.476  3.0706  1.8548  3.4755
  419MOL0     H56536  11.886   4.166   8.393  0.6676  0.0387 -0.1033
  419MOL0     H56537  12.032   3.940   8.343 -1.1435  0.0118 -1.2819
  419MOL0     H56538  11.930   3.892   8.485 -1.9252  0.6355 -0.7031
  419MOL0     H56539  12.138   4.112   8.472  1.4165 -1.9302 -0.6452
  419MOL0     H56540  12.026   4.104   8.605  1.7332  2.8543  0.2207
  419MOL0     H56541  12.209   3.874   8.509  2.9900 -0.7481  1.0988
  419MOL0     H56542  12.124   3.881   8.675 -1.5980  1.1783 -0.2678
  419MOL0     H56543  12.294   4.059   8.730  0.9924  0.0006  0.4930
  419MOL0     H56544  12.373   3.907   8.671 -0.3629 -0.4120  1.2669
  419MOL0     H56545  11.683   3.705   8.437 -0.2194  2.5949 -0.6519
  419MOL0     H56546  11.604   3.595   8.639  2.9191  2.9591  2.1563
  419MOL0     H56547  11.372   3.387   8.832  0.9325 -0.5177  2.2752
  419MOL0     H56548  11.298   3.187   8.946 -0.0252 -0.7911 -0.6516
  419MOL0     H56549   9.792   3.058   9.890 -0.4132 -1.1247  1.2517
  419MOL0     H56550   9.758   3.262  10.022 -0.0517  1.4298 -1.4618
  419MOL0     H56551   9.737   3.541  10.240  1.1195  0.7293 -0.9185
  419MOL0     H56552   9.618   3.697  10.380  0.7953 -0.1182 -2.3794
  419MOL0     H56553   9.550   3.881  10.500  3.5198  1.5350 -1.0911
  419MOL0     H56554   9.580   3.956  10.658  0.7420 -1.7184  2.1218
  419MOL0     H56555   9.601   3.711  10.740  0.8974 -0.0917 -0.6285
  419MOL0     H56556   9.506   3.678  10.600  3.9667 -0.7567 -0.7232
  419MOL0     H56557   9.445   3.852  10.841  2.1731  0.0034 -1.2488
  419MOL0     H56558   9.367   3.698  10.800  0.3630 -1.7878 -2.9816
  419MOL0     H56559   9.200   3.855  10.758 -0.1729  1.8281  0.5415
  419MOL0     H56560   9.295   3.983  10.696  1.1099 -0.8343 -1.7758
  419MOL0     H56561   9.231   3.734  10.348 -0.7875 -3.4560  1.2899
  419MOL0     H56562   9.969   3.780  10.607  0.4894  0.0176  0.0867
  419MOL0     H56563  10.208   3.663  10.363  1.9764 -1.6101  0.7097
  419MOL0     H56564  10.191   3.705  10.532  1.9274 -1.2941 -0.1988
  419MOL0     H56565  10.166   3.537  10.494 -2.3099  0.4211  1.9512
  420MOL0     O56566   3.297   4.841   4.277 -0.0477  0.7645 -0.2614
  420MOL0     C56567   3.300   4.723   4.237  0.0295  0.2932 -0.6758
  420MOL0     O56568   3.395   4.635   4.251  0.4468 -0.2223 -0.7904
  420MOL0     C56569   3.500   4.670   4.337 -0.1771  0.7800 -0.3023
  420MOL0     C56570   3.480   4.688   4.475  0.8385 -0.2522 -0.0592
  420MOL0     C56571   3.589   4.698   4.562  0.0120 -0.2894 -0.5750
  420MOL0     C56572   3.716   4.699   4.519  0.2816 -0.0320  1.0242
  420MOL0     O56573   3.811   4.709   4.612 -0.2523 -0.0703 -0.0768
  420MOL0     C56574   3.884   4.834   4.614 -0.4258  0.4518 -1.1565
  420MOL0     C56575   4.006   4.820   4.702  0.7030 -0.4846  0.1840
  420MOL0     C56576   4.069   4.681   4.693 -0.4316 -0.2621  0.3789
  420MOL0     C56577   4.209   4.699   4.764 -0.6406 -0.4726 -0.3846
  420MOL0     C56578   4.308   4.581   4.757 -0.1437  0.6879 -0.3509
  420MOL0     C56579   4.399   4.561   4.889 -0.2051 -0.0371 -0.5635
  420MOL0     C56580   4.310   4.508   5.012 -0.5147  0.2192  0.4493
  420MOL0     C56581   4.389   4.446   5.129  0.2068  0.2599 -0.2778
  420MOL0     N56582   4.478   4.545   5.192  0.0802  0.1820 -0.5075
  420MOL0     C56583   4.614   4.531   5.177 -0.1771 -0.2216  0.3703
  420MOL0     C56584   4.671   4.647   5.216 -0.0940 -0.5333  0.2173
  420MOL0     C56585   4.817   4.685   5.194 -0.7984  0.9490  0.2616
  420MOL0     C56586   4.843   4.800   5.101  0.1472  0.3256 -0.2822
  420MOL0     C56587   4.767   4.775   4.969  0.2917  0.4161 -0.2189
  420MOL0     C56588   4.820   4.847   4.847 -0.0814 -1.1596 -0.4791
  420MOL0     O56589   4.808   4.988   4.854 -0.2157 -0.7886 -0.0609
  420MOL0     C56590   4.867   5.054   4.755 -0.3286 -0.2141  0.4604
  420MOL0     C56591   5.000   5.036   4.716  0.5044 -0.7205  0.4735
  420MOL0     C56592   5.051   5.113   4.608  0.5908 -0.3842 -0.3442
  420MOL0     C56593   4.975   5.204   4.539 -0.7195  0.3631  0.4401
  420MOL0     C56594   5.032   5.274   4.422 -0.3925  0.2663  0.4710
  420MOL0     O56595   4.984   5.395   4.399  1.2573 -0.5204 -0.4891
  420MOL0     C56596   5.032   5.482   4.301  0.3945  0.0121 -0.0007
  420MOL0     C56597   5.083   5.446   4.173  0.1211  0.5964 -1.1903
  420MOL0     C56598   5.131   5.544   4.080 -0.2755  0.1533 -0.3428
  420MOL0     C56599   5.113   5.684   4.120 -0.1809 -0.4681 -0.4365
  420MOL0     O56600   5.162   5.781   4.038 -0.1846  0.3002 -0.4228
  420MOL0     C56601   5.090   5.900   4.014  0.6034  0.2584  0.8391
  420MOL0     C56602   5.187   5.998   3.966 -0.1505 -0.3522 -0.4737
  420MOL0     C56603   5.224   5.973   3.817  0.3990 -0.3271  1.0087
  420MOL0     C56604   5.366   5.999   3.781 -0.0689 -0.3645 -0.3152
  420MOL0     C56605   5.469   5.909   3.864  0.2130 -0.0538 -0.3330
  420MOL0     C56606   5.616   5.955   3.847  0.6772 -0.4297  0.0088
  420MOL0     C56607   5.709   5.852   3.901  0.3342  1.4514  0.5826
  420MOL0     C56608   5.847   5.913   3.902 -0.2607 -0.6353 -1.2568
  420MOL0    Cl56609   5.915   5.932   3.732  0.2309 -0.2066  0.1432
  420MOL0     C56610   5.052   5.712   4.248  0.0618  0.0609 -0.2973
  420MOL0     C56611   5.012   5.616   4.340 -0.9057  0.8415 -0.1485
  420MOL0     O56612   5.128   5.222   4.366 -0.4616 -0.2018  0.6767
  420MOL0     C56613   4.843   5.230   4.591  0.3492  0.1463  0.0622
  420MOL0     C56614   4.797   5.156   4.697  0.7333 -0.1549  0.0025
  420MOL0     N56615   4.562   4.727   5.265  0.9238  0.9742 -0.5432
  420MOL0     N56616   4.446   4.671   5.243 -0.1379  0.0571  0.7772
  420MOL0     C56617   3.740   4.678   4.392 -0.4660  0.1378  0.4324
  420MOL0     C56618   3.631   4.654   4.298  0.1605  0.7052 -0.7871
  420MOL0     C56619   3.191   4.685   4.139  0.1188 -0.0872  0.7758
  420MOL0     C56620   3.220   4.583   4.049  0.2540 -0.4641  0.4579
  420MOL0     C56621   3.137   4.540   3.943 -0.6088 -0.5163 -0.8616
  420MOL0     C56622   3.013   4.601   3.928 -0.2231  0.4657 -1.0051
  420MOL0     O56623   2.932   4.536   3.831 -0.6102 -0.1334 -0.5694
  420MOL0     C56624   2.788   4.527   3.863 -0.0948 -0.3348 -0.2814
  420MOL0     C56625   2.751   4.383   3.871 -0.0052  0.2844  1.1606
  420MOL0     C56626   2.792   4.300   3.750  0.1636 -0.1134  0.5180
  420MOL0     C56627   2.735   4.156   3.736 -0.3201  0.4073  0.7847
  420MOL0     C56628   2.788   4.059   3.837 -0.3733 -0.2794 -0.6347
  420MOL0     C56629   2.814   3.971   3.919  0.6528  0.3373 -0.1347
  420MOL0     C56630   2.977   4.706   4.022  0.1690  0.2301 -0.1449
  420MOL0     C56631   3.058   4.745   4.131 -0.6568  0.9420 -0.2585
  420MOL0     C56632   3.010   4.857   4.224  0.7558 -0.4197 -0.8030
  420MOL0     H56633   3.374   4.698   4.499  0.8237 -1.4886  0.4661
  420MOL0     H56634   3.586   4.689   4.670  3.1903 -1.6899 -0.4814
  420MOL0     H56635   3.916   4.866   4.514 -2.2272  2.1303 -1.2552
  420MOL0     H56636   3.811   4.904   4.655 -1.7876 -1.7093  0.3446
  420MOL0     H56637   3.981   4.825   4.809  0.2879 -3.1132  0.2718
  420MOL0     H56638   4.076   4.900   4.675  2.5866 -2.2051 -0.2823
  420MOL0     H56639   4.083   4.653   4.588  0.3524 -1.7832  0.8650
  420MOL0     H56640   4.005   4.613   4.751 -0.3802 -1.3351 -0.7823
  420MOL0     H56641   4.263   4.778   4.711 -1.0070 -1.5262 -2.4102
  420MOL0     H56642   4.190   4.741   4.864 -0.7153  1.8898 -1.3268
  420MOL0     H56643   4.266   4.481   4.745  2.5723 -0.8660  1.8950
  420MOL0     H56644   4.367   4.592   4.666  0.2689  1.2694 -0.0145
  420MOL0     H56645   4.474   4.485   4.865 -0.0987  0.0448 -0.4878
  420MOL0     H56646   4.458   4.650   4.909  2.8717 -1.8080 -1.0848
  420MOL0     H56647   4.237   4.436   4.976 -1.4852  1.3238  0.1207
  420MOL0     H56648   4.260   4.599   5.048  1.1327  0.5834  2.0072
  420MOL0     H56649   4.305   4.418   5.193 -0.3744  0.7325 -0.8204
  420MOL0     H56650   4.441   4.353   5.106 -0.2709 -0.2439  0.6001
  420MOL0     H56651   4.662   4.454   5.117  0.9936  1.3581 -0.8229
  420MOL0     H56652   4.860   4.687   5.295 -2.1465  1.1317  0.8583
  420MOL0     H56653   4.860   4.597   5.147  0.7333  1.0727  1.3384
  420MOL0     H56654   4.801   4.893   5.138  0.4428  0.8052 -1.1196
  420MOL0     H56655   4.952   4.813   5.102  0.3478 -1.1817  0.6194
  420MOL0     H56656   4.665   4.813   4.977  0.6624  1.6870 -1.0989
  420MOL0     H56657   4.765   4.668   4.948  0.7062 -0.3378  3.1414
  420MOL0     H56658   4.767   4.806   4.761  0.7467 -1.3443 -0.9066
  420MOL0     H56659   4.924   4.819   4.831 -0.8619 -2.3677 -4.3944
  420MOL0     H56660   5.064   4.957   4.756 -0.0804 -2.2946 -1.5129
  420MOL0     H56661   5.157   5.107   4.586  0.7280 -0.9729  0.3993
  420MOL0     H56662   5.087   5.339   4.157  0.1872  0.1922  1.1416
  420MOL0     H56663   5.162   5.516   3.980 -1.3655  0.0464 -0.6580
  420MOL0     H56664   5.012   5.886   3.939 -1.1221  1.3415  2.3312
  420MOL0     H56665   5.045   5.927   4.110 -1.8543 -0.3795 -0.0500
  420MOL0     H56666   5.149   6.101   3.974  0.5816  0.0663 -1.9929
  420MOL0     H56667   5.274   6.006   4.031 -0.1616 -0.6451 -0.4240
  420MOL0     H56668   5.197   5.870   3.796  0.8708 -0.1255 -0.6764
  420MOL0     H56669   5.159   6.042   3.761 -0.8414  0.3234  3.1058
  420MOL0     H56670   5.377   6.106   3.801 -3.5235  0.5461 -2.5376
  420MOL0     H56671   5.384   5.996   3.673 -1.3297 -0.0772 -0.5470
  420MOL0     H56672   5.463   5.807   3.823 -2.7946 -2.2771  4.6700
  420MOL0     H56673   5.453   5.895   3.972 -1.6126 -0.8655 -0.6727
  420MOL0     H56674   5.639   5.967   3.740 -0.1158  1.3117 -0.0057
  420MOL0     H56675   5.631   6.054   3.890 -2.2851  0.9052 -1.6391
  420MOL0     H56676   5.710   5.769   3.830  1.6220  0.2391  1.9376
  420MOL0     H56677   5.681   5.814   4.000  0.9219  1.4247  0.7412
  420MOL0     H56678   5.851   6.011   3.951  2.2422 -1.8655  1.2765
  420MOL0     H56679   5.911   5.847   3.961  0.8772  0.9745 -0.5975
  420MOL0     H56680   5.030   5.815   4.275 -3.3439 -0.6159 -0.1433
  420MOL0     H56681   4.988   5.648   4.440  2.3166 -0.5422  1.2155
  420MOL0     H56682   4.783   5.309   4.547 -1.3942 -1.4027 -0.4843
  420MOL0     H56683   4.692   5.173   4.716  0.5749  0.4674 -1.3121
  420MOL0     H56684   3.843   4.666   4.359 -0.5434  0.3029  0.1187
  420MOL0     H56685   3.635   4.631   4.192 -2.9228  0.4333 -0.9306
  420MOL0     H56686   3.319   4.540   4.058 -0.0773 -1.0619  1.4326
  420MOL0     H56687   3.176   4.465   3.875  0.0571  0.1246 -1.2015
  420MOL0     H56688   2.733   4.581   3.786 -2.3917 -0.3549  1.2465
  420MOL0     H56689   2.753   4.588   3.947  0.3818 -1.1813  0.5689
  420MOL0     H56690   2.642   4.374   3.885 -0.3723  1.7478 -0.4193
  420MOL0     H56691   2.806   4.344   3.957 -0.3068 -2.7772  0.0747
  420MOL0     H56692   2.901   4.292   3.749  0.1108 -2.7400  2.7896
  420MOL0     H56693   2.755   4.351   3.660  0.8673 -1.3634 -0.5126
  420MOL0     H56694   2.626   4.155   3.729 -0.2096 -0.4735 -1.6374
  420MOL0     H56695   2.771   4.126   3.638 -1.1065  1.3274  0.1877
  420MOL0     H56696   2.820   3.900   4.000  2.3560  2.0109  1.2916
  420MOL0     H56697   2.882   4.756   4.011  1.5815  3.2275  0.1841
  420MOL0     H56698   2.998   4.822   4.328 -2.0541 -0.1503 -0.9721
  420MOL0     H56699   3.063   4.952   4.211 -3.7666  2.6185  0.5224
  420MOL0     H56700   2.909   4.890   4.198  1.7865  4.6978  0.4947
  421MOL0     O56701   2.003   2.127   6.856 -0.3308 -0.2309  0.1197
  421MOL0     C56702   2.058   2.021   6.842  0.8144  0.1557  0.2960
  421MOL0     O56703   2.001   1.914   6.771 -0.2071  0.8101  0.9107
  421MOL0     C56704   1.870   1.913   6.733  0.0084  0.1540  0.6174
  421MOL0     C56705   1.845   1.855   6.607 -0.9078 -0.5568  1.0311
  421MOL0     C56706   1.717   1.848   6.550  1.0584 -0.5605  0.6098
  421MOL0     C56707   1.604   1.884   6.628  0.1276 -0.9344 -0.2405
  421MOL0     O56708   1.478   1.857   6.596 -0.1835  0.3780 -0.0636
  421MOL0     C56709   1.442   1.812   6.467 -0.6036  0.1773  0.1736
  421MOL0     C56710   1.302   1.754   6.483 -0.0662  0.5753  0.6569
  421MOL0     C56711   1.236   1.757   6.337 -0.6577  0.4572  0.4189
  421MOL0     C56712   1.081   1.748   6.335  0.4296  0.5851 -0.5139
  421MOL0     C56713   1.036   1.609   6.379 -0.4444 -0.3426  0.4776
  421MOL0     C56714   0.893   1.606   6.424 -0.6227 -0.8371 -0.6082
  421MOL0     C56715   0.786   1.633   6.316 -0.1432  0.2441  0.1235
  421MOL0     C56716   0.644   1.583   6.357 -0.0296 -0.6324 -0.3638
  421MOL0     N56717   0.535   1.599   6.259 -0.5448 -1.6315  0.4675
  421MOL0     C56718   0.483   1.721   6.228  0.4910 -0.8213 -0.6162
  421MOL0     C56719   0.395   1.689   6.132  0.3855  1.0096  0.1593
  421MOL0     C56720   0.298   1.801   6.065 -0.1422  0.1462 -0.6442
  421MOL0     C56721   0.170   1.753   5.998  0.0068 -0.2414  1.0781
  421MOL0     C56722   0.079   1.681   6.101  0.7876  0.3789  0.0537
  421MOL0     C56723  -0.056   1.626   6.025 -0.9549 -0.4319  0.2907
  421MOL0     O56724  -0.018   1.520   5.941 -0.1650 -0.3141 -0.4829
  421MOL0     C56725  -0.109   1.471   5.850 -0.2414  0.1303  0.8075
  421MOL0     C56726  -0.243   1.494   5.864  0.4385  0.0078  0.1421
  421MOL0     C56727  -0.333   1.434   5.780  0.0715 -0.6720  0.3000
  421MOL0     C56728  -0.296   1.353   5.675  0.6570  0.7951 -0.5737
  421MOL0     C56729  -0.395   1.294   5.581  0.1609 -0.7198 -0.0737
  421MOL0     O56730  -0.358   1.177   5.530 -0.5701  0.0128 -0.1320
  421MOL0     C56731  -0.444   1.091   5.465  0.4162 -0.7004  0.0693
  421MOL0     C56732  -0.575   1.064   5.507  0.4650 -0.5018 -0.5453
  421MOL0     C56733  -0.669   0.992   5.424 -0.2952  0.6802 -0.2796
  421MOL0     C56734  -0.609   0.921   5.315 -0.2320 -0.5858  0.0152
  421MOL0     O56735  -0.700   0.846   5.245 -0.4497 -0.2215  0.7298
  421MOL0     C56736  -0.662   0.780   5.129 -0.4696  0.6785  0.7391
  421MOL0     C56737  -0.754   0.666   5.108  0.1495 -0.0762 -0.2407
  421MOL0     C56738  -0.895   0.722   5.070  0.1635 -0.6134 -0.4497
  421MOL0     C56739  -0.992   0.605   5.059 -0.9223 -0.8610 -0.2479
  421MOL0     C56740  -1.135   0.649   5.046 -0.4357  0.9388  0.3542
  421MOL0     C56741  -1.174   0.693   4.900  0.3839  0.3208  0.2463
  421MOL0     C56742  -1.325   0.688   4.863  0.2648  0.8537  1.0640
  421MOL0     C56743  -1.346   0.697   4.708  0.1950 -0.5215  0.5654
  421MOL0    Cl56744  -1.517   0.656   4.648 -0.0583 -0.6297 -0.4139
  421MOL0     C56745  -0.479   0.941   5.274 -0.3403  0.1653  0.0427
  421MOL0     C56746  -0.400   1.027   5.350 -0.1109  0.2914  0.2367
  421MOL0     O56747  -0.499   1.357   5.559 -0.3935 -0.9714  0.5230
  421MOL0     C56748  -0.161   1.327   5.662  0.1004 -0.2182 -0.9940
  421MOL0     C56749  -0.070   1.381   5.757  0.1130  0.4689 -1.0481
  421MOL0     N56750   0.415   1.559   6.093 -0.5868  0.1116  0.6747
  421MOL0     N56751   0.499   1.507   6.169 -0.1826  0.2351  0.8030
  421MOL0     C56752   1.632   1.937   6.760  0.6658 -0.0357  0.4158
  421MOL0     C56753   1.762   1.958   6.806  1.2649  0.2894 -0.3004
  421MOL0     C56754   2.195   2.016   6.886 -0.7974 -0.1964 -0.6267
  421MOL0     C56755   2.271   2.137   6.888 -0.2310 -0.2530 -0.9419
  421MOL0     C56756   2.409   2.142   6.933  0.1625  0.7293  0.3403
  421MOL0     C56757   2.471   2.021   6.973  0.6624 -0.2522  0.2514
  421MOL0     O56758   2.587   2.004   7.044  0.7149  0.2141  0.0298
  421MOL0     C56759   2.673   2.126   7.058  0.4018  0.8319 -0.3383
  421MOL0     C56760   2.806   2.103   6.994 -0.8038 -0.7272  0.2633
  421MOL0     C56761   2.903   2.218   7.013  0.9846  0.2428  0.0071
  421MOL0     C56762   3.050   2.196   7.001  0.0824 -0.0252  0.4135
  421MOL0     C56763   3.121   2.117   7.104 -0.7106  0.8870  0.0871
  421MOL0     C56764   3.190   2.056   7.185  0.4884 -0.3227  0.6820
  421MOL0     C56765   2.397   1.906   6.980  0.1549  0.7799  1.2650
  421MOL0     C56766   2.267   1.902   6.923  0.3541  0.6412  0.0386
  421MOL0     C56767   2.202   1.768   6.922 -0.4184  0.4786 -0.4947
  421MOL0     H56768   1.927   1.811   6.551 -1.9636 -1.0795 -0.1648
  421MOL0     H56769   1.709   1.797   6.455 -1.6605 -0.0398  0.4611
  421MOL0     H56770   1.448   1.896   6.397 -1.9634 -1.2316 -1.7530
  421MOL0     H56771   1.514   1.736   6.434 -1.0687  0.0028 -0.4715
  421MOL0     H56772   1.249   1.823   6.549 -0.8556  0.4069  0.2147
  421MOL0     H56773   1.306   1.658   6.534 -0.8683  1.0213  1.5903
  421MOL0     H56774   1.272   1.675   6.273  1.7606  1.5827  0.2263
  421MOL0     H56775   1.263   1.854   6.294 -0.6723 -0.8105 -2.7248
  421MOL0     H56776   1.046   1.822   6.407  0.5659  0.0796  0.0861
  421MOL0     H56777   1.046   1.767   6.234  0.2273 -1.3651 -0.8505
  421MOL0     H56778   1.048   1.545   6.291  1.9589  0.4377  0.1902
  421MOL0     H56779   1.102   1.564   6.454 -1.8100 -2.6410  0.3950
  421MOL0     H56780   0.886   1.515   6.484  3.9493 -0.4087  0.9345
  421MOL0     H56781   0.885   1.682   6.503  0.2321 -1.1513 -0.2055
  421MOL0     H56782   0.815   1.590   6.220  3.4244 -1.6966  1.8849
  421MOL0     H56783   0.775   1.742   6.309  0.4463  0.3080  0.1876
  421MOL0     H56784   0.641   1.475   6.372 -2.6533 -1.0791 -3.1267
  421MOL0     H56785   0.616   1.619   6.457 -3.3389 -2.5492 -0.4468
  421MOL0     H56786   0.500   1.813   6.282 -1.2360 -2.1154  2.3980
  421MOL0     H56787   0.276   1.867   6.149 -0.4188 -0.6802 -0.0540
  421MOL0     H56788   0.360   1.869   6.006 -0.1446  1.8552  1.2420
  421MOL0     H56789   0.122   1.844   5.961  0.0666  1.2398  4.2870
  421MOL0     H56790   0.207   1.683   5.922  2.1440  1.5621  0.3589
  421MOL0     H56791   0.047   1.746   6.183 -4.3941 -1.5851 -0.0122
  421MOL0     H56792   0.127   1.598   6.153 -1.3145 -1.0635 -0.1778
  421MOL0     H56793  -0.113   1.701   5.970 -0.7685 -2.0022 -2.2285
  421MOL0     H56794  -0.115   1.591   6.110  4.2840 -2.5483  3.5916
  421MOL0     H56795  -0.284   1.550   5.948 -0.0214  0.6548 -0.5053
  421MOL0     H56796  -0.440   1.453   5.782  0.1616 -0.1625  0.3538
  421MOL0     H56797  -0.606   1.105   5.602  0.4380 -0.1023 -0.7273
  421MOL0     H56798  -0.775   0.978   5.442 -0.1318 -1.2251 -0.6241
  421MOL0     H56799  -0.673   0.841   5.039  0.1673 -1.2914 -0.7393
  421MOL0     H56800  -0.568   0.728   5.145 -3.2912 -4.9278  1.4963
  421MOL0     H56801  -0.723   0.610   5.018  0.4903  2.5687 -1.8896
  421MOL0     H56802  -0.762   0.595   5.191 -1.0712 -0.9315 -1.0545
  421MOL0     H56803  -0.933   0.784   5.152 -0.4838  1.0693 -1.9492
  421MOL0     H56804  -0.884   0.789   4.985  1.1335  2.9721  2.2554
  421MOL0     H56805  -0.980   0.557   5.156 -0.8235 -1.2332 -0.4451
  421MOL0     H56806  -0.965   0.523   4.992  1.3713  0.5107 -1.1403
  421MOL0     H56807  -1.151   0.740   5.105  1.3959  1.7094 -0.2669
  421MOL0     H56808  -1.195   0.559   5.065 -0.9871  0.4811 -3.0041
  421MOL0     H56809  -1.136   0.796   4.890 -2.4006  1.5053  0.8817
  421MOL0     H56810  -1.125   0.626   4.828  0.6932  0.7338  0.0635
  421MOL0     H56811  -1.379   0.768   4.915 -1.9867  0.9357 -1.1645
  421MOL0     H56812  -1.364   0.596   4.907  1.0349  0.7382  1.5280
  421MOL0     H56813  -1.323   0.799   4.674 -0.2605 -0.1051  1.4633
  421MOL0     H56814  -1.279   0.637   4.645 -1.3503  1.0314 -2.8329
  421MOL0     H56815  -0.441   0.897   5.183  0.6209  1.2110 -0.0837
  421MOL0     H56816  -0.300   1.053   5.317  1.2403 -1.2351  2.7238
  421MOL0     H56817  -0.128   1.267   5.578  2.4194  1.7291 -1.5699
  421MOL0     H56818   0.036   1.359   5.757 -0.1178 -0.7940  0.4151
  421MOL0     H56819   1.549   1.946   6.829  1.2877 -0.3783  1.2273
  421MOL0     H56820   1.787   2.005   6.900 -2.7556  0.2095  0.9977
  421MOL0     H56821   2.217   2.228   6.866 -0.8565 -0.0924  1.0777
  421MOL0     H56822   2.453   2.239   6.950  1.1248  0.2520  0.6458
  421MOL0     H56823   2.694   2.143   7.164  2.6721  1.3926 -0.8208
  421MOL0     H56824   2.629   2.220   7.023  5.5711  3.5902 -0.4875
  421MOL0     H56825   2.781   2.093   6.888 -1.9396 -4.6354  0.7624
  421MOL0     H56826   2.843   2.011   7.039  0.3353  0.5299  2.0846
  421MOL0     H56827   2.896   2.248   7.118 -1.1993  1.3313 -0.4107
  421MOL0     H56828   2.867   2.298   6.949 -3.2551 -2.2106 -1.0424
  421MOL0     H56829   3.069   2.151   6.903 -0.0821  0.5019  0.1374
  421MOL0     H56830   3.087   2.298   7.000 -1.4576  0.5775 -1.4222
  421MOL0     H56831   3.246   2.019   7.268  1.0118  2.3356  1.6363
  421MOL0     H56832   2.449   1.813   7.003  1.6431  1.2985  0.1404
  421MOL0     H56833   2.254   1.690   6.980 -3.0525 -1.7419 -0.8975
  421MOL0     H56834   2.096   1.765   6.951  0.2942 -0.5816  2.3728
  421MOL0     H56835   2.209   1.738   6.817  4.8948 -1.7118  0.1453
  422MOL0     O56836   6.333   9.028   9.926 -0.2087  0.0720  0.0216
  422MOL0     C56837   6.400   9.113   9.865  0.8416  0.0787  0.6370
  422MOL0     O56838   6.531   9.097   9.843  0.1639 -0.6678  0.0589
  422MOL0     C56839   6.597   8.976   9.872 -0.0938 -0.2961  0.4446
  422MOL0     C56840   6.685   8.964   9.980  0.9151 -0.2171  0.0581
  422MOL0     C56841   6.744   8.843  10.019 -0.7045  1.2769  0.4615
  422MOL0     C56842   6.712   8.727   9.949 -0.0319 -0.3236 -0.0418
  422MOL0     O56843   6.747   8.598   9.983  0.1975  0.1348 -0.1269
  422MOL0     C56844   6.715   8.553  10.121  0.0731 -0.2484  0.3309
  422MOL0     C56845   6.819   8.451  10.165  0.3226 -0.1089 -0.4938
  422MOL0     C56846   6.961   8.471  10.111 -0.1379 -1.0590 -0.4942
  422MOL0     C56847   7.056   8.367  10.167  0.4268 -0.2440  0.1598
  422MOL0     C56848   7.194   8.397  10.105 -0.1435  0.3680 -0.0421
  422MOL0     C56849   7.284   8.292  10.148 -0.4812 -0.1256 -1.1014
  422MOL0     C56850   7.348   8.310  10.289  0.1212  0.4028 -0.6592
  422MOL0     C56851   7.469   8.220  10.314  0.1526 -0.1042 -0.3230
  422MOL0     N56852   7.463   8.079  10.267  0.1688  0.1598 -0.0866
  422MOL0     C56853   7.499   8.040  10.137  0.4687 -0.2950  0.3470
  422MOL0     C56854   7.464   7.910  10.121 -0.5728  0.2665 -0.7799
  422MOL0     C56855   7.512   7.824  10.009 -0.3483 -1.3310 -0.2972
  422MOL0     C56856   7.396   7.780   9.921  0.3021  0.1151  0.4144
  422MOL0     C56857   7.439   7.674   9.818 -0.2116  0.4839 -0.4938
  422MOL0     C56858   7.352   7.675   9.692  0.0185  0.1322 -0.8788
  422MOL0     O56859   7.396   7.784   9.600 -0.2791  0.0216 -0.1109
  422MOL0     C56860   7.313   7.892   9.571 -0.1228 -0.0111 -0.0653
  422MOL0     C56861   7.176   7.885   9.529 -0.2101  1.1365 -0.4685
  422MOL0     C56862   7.096   7.999   9.506  0.3752 -0.0499  0.8330
  422MOL0     C56863   7.149   8.132   9.524  0.2953  0.2472  0.3782
  422MOL0     C56864   7.065   8.248   9.497  0.2999  0.1490  0.1634
  422MOL0     O56865   7.124   8.367   9.501  0.0538 -0.3529 -0.1322
  422MOL0     C56866   7.046   8.482   9.499 -1.0274  0.1950  0.0760
  422MOL0     C56867   7.012   8.550   9.384  0.3064 -0.1425  0.1956
  422MOL0     C56868   6.913   8.654   9.381 -0.2144  0.1133 -0.7657
  422MOL0     C56869   6.866   8.706   9.507 -0.3691 -0.1077  0.5958
  422MOL0     O56870   6.765   8.803   9.530  0.0759 -0.2232 -0.6117
  422MOL0     C56871   6.765   8.903   9.433 -0.8498 -0.1512  0.3394
  422MOL0     C56872   6.646   8.985   9.442 -0.5827 -0.4698 -0.1449
  422MOL0     C56873   6.664   9.118   9.367 -0.1019  0.4052 -0.0231
  422MOL0     C56874   6.543   9.164   9.282  0.2942 -0.6352 -0.9479
  422MOL0     C56875   6.422   9.197   9.368 -0.7780  0.1832  0.8961
  422MOL0     C56876   6.313   9.261   9.289 -0.5474 -0.2522 -0.3216
  422MOL0     C56877   6.195   9.307   9.373  0.5057  0.2832 -0.4152
  422MOL0     C56878   6.178   9.453   9.392  0.2142  0.2899  0.2151
  422MOL0    Cl56879   6.019   9.511   9.456 -0.5156 -0.0688 -0.4716
  422MOL0     C56880   6.892   8.631   9.617  0.3758  0.6861  0.3346
  422MOL0     C56881   6.987   8.524   9.617  0.1277  0.1657 -0.4327
  422MOL0     O56882   6.949   8.229   9.454  0.1639 -0.6352  0.8412
  422MOL0     C56883   7.279   8.134   9.561  0.3971  0.3434  0.0359
  422MOL0     C56884   7.360   8.019   9.584 -0.0365 -0.0650 -0.0265
  422MOL0     N56885   7.401   7.871  10.244 -0.3763  0.2084 -0.2168
  422MOL0     N56886   7.406   7.973  10.330  0.0468  0.1828 -0.7470
  422MOL0     C56887   6.634   8.740   9.834  0.5376  0.2787  0.1631
  422MOL0     C56888   6.577   8.858   9.795 -0.5463 -0.9886  0.1241
  422MOL0     C56889   6.334   9.247   9.831 -0.0356  0.1670 -0.3482
  422MOL0     C56890   6.418   9.329   9.737 -0.2384 -0.3731  0.3400
  422MOL0     C56891   6.381   9.450   9.707 -0.2511  0.7270  0.3588
  422MOL0     C56892   6.269   9.510   9.759  0.1322 -0.1225  0.1006
  422MOL0     O56893   6.255   9.640   9.723  0.4517 -0.1477 -0.0784
  422MOL0     C56894   6.195   9.722   9.825  0.0217  0.9672 -0.5830
  422MOL0     C56895   6.050   9.760   9.802 -0.7645 -0.4066  0.2207
  422MOL0     C56896   6.027   9.904   9.735 -0.2360 -0.1058 -0.5780
  422MOL0     C56897   6.055   9.901   9.587 -0.8170 -0.6475  0.2264
  422MOL0     C56898   6.053  10.031   9.516  0.1298  0.5671 -0.1795
  422MOL0     C56899   6.059  10.124   9.440 -0.8003 -0.3404 -0.2115
  422MOL0     C56900   6.188   9.441   9.850  0.2892  0.4789  0.8862
  422MOL0     C56901   6.217   9.309   9.881  0.8248  0.4188  0.2011
  422MOL0     C56902   6.116   9.221   9.954  0.8301 -0.1567  0.5259
  422MOL0     H56903   6.705   9.048  10.046  3.7674 -0.4945 -0.3187
  422MOL0     H56904   6.808   8.860  10.105 -1.6153 -0.2947  1.5198
  422MOL0     H56905   6.708   8.642  10.184  1.4163  0.4735 -0.5080
  422MOL0     H56906   6.615   8.508  10.131  0.0678  0.1165  2.5187
  422MOL0     H56907   6.777   8.352  10.144 -2.4366  0.8034  0.1877
  422MOL0     H56908   6.820   8.452  10.275  0.4997  1.4016 -0.4876
  422MOL0     H56909   6.991   8.575  10.125  1.4869 -1.4658 -0.7992
  422MOL0     H56910   6.953   8.444  10.005 -1.2107 -1.0921 -0.4180
  422MOL0     H56911   7.058   8.379  10.276  0.3366  0.2127  0.1160
  422MOL0     H56912   7.027   8.269  10.129 -0.1175  0.8350 -2.4367
  422MOL0     H56913   7.188   8.406   9.996  3.2154  3.7055 -0.1552
  422MOL0     H56914   7.225   8.496  10.140 -0.2179  0.3834 -0.0184
  422MOL0     H56915   7.249   8.190  10.134  0.0905 -0.5369  0.3254
  422MOL0     H56916   7.371   8.312  10.084 -1.4748  2.6543 -1.7186
  422MOL0     H56917   7.261   8.293  10.353 -2.3908  1.7366 -3.4256
  422MOL0     H56918   7.378   8.414  10.309 -1.6298  0.9642 -0.7909
  422MOL0     H56919   7.561   8.270  10.284  0.3137 -0.5925 -0.6485
  422MOL0     H56920   7.478   8.205  10.422  3.2835 -0.9343 -0.6177
  422MOL0     H56921   7.557   8.097  10.066 -2.8456  0.5704 -1.8734
  422MOL0     H56922   7.590   7.874   9.951 -1.0101  0.7171  0.4958
  422MOL0     H56923   7.560   7.732  10.045  2.3589 -1.3778 -3.5425
  422MOL0     H56924   7.315   7.737   9.981 -1.2798 -2.6242 -3.2995
  422MOL0     H56925   7.359   7.872   9.876  0.0151  0.0620  0.5382
  422MOL0     H56926   7.425   7.574   9.862 -1.0071  1.5918  1.9586
  422MOL0     H56927   7.541   7.688   9.782 -0.0416 -0.6274 -0.4871
  422MOL0     H56928   7.250   7.675   9.729  0.6116  3.5325  1.1705
  422MOL0     H56929   7.373   7.584   9.636 -0.1487  0.7025 -1.8940
  422MOL0     H56930   7.134   7.786   9.517 -1.5229  1.5110  0.8038
  422MOL0     H56931   6.991   7.984   9.481 -0.0418 -3.1994  3.7318
  422MOL0     H56932   7.063   8.506   9.299  1.4023  1.1400  0.1569
  422MOL0     H56933   6.876   8.697   9.288  0.2322 -0.6126 -1.2928
  422MOL0     H56934   6.858   8.959   9.453 -0.9723  0.0755  0.2762
  422MOL0     H56935   6.776   8.876   9.327 -1.8899 -1.5443  0.5673
  422MOL0     H56936   6.559   8.938   9.395 -2.3089  1.7049  0.6718
  422MOL0     H56937   6.618   8.995   9.548 -0.6452  2.6646 -0.3743
  422MOL0     H56938   6.685   9.198   9.439  0.3693  0.4917 -0.2548
  422MOL0     H56939   6.740   9.102   9.290 -2.1476  0.3011 -2.1093
  422MOL0     H56940   6.508   9.085   9.214 -4.1900 -0.1542  0.5242
  422MOL0     H56941   6.568   9.244   9.211 -2.6171  0.0016 -1.3811
  422MOL0     H56942   6.455   9.264   9.448 -3.1600 -0.9556  2.9410
  422MOL0     H56943   6.396   9.103   9.417  0.2312 -0.5434  0.0871
  422MOL0     H56944   6.359   9.348   9.241  2.2279 -1.5678 -0.2566
  422MOL0     H56945   6.280   9.193   9.210  0.9610  1.3978 -2.5045
  422MOL0     H56946   6.197   9.253   9.469  1.1731 -2.3028 -1.7840
  422MOL0     H56947   6.114   9.256   9.319  1.9960 -0.8243 -1.7010
  422MOL0     H56948   6.262   9.479   9.458  0.4267  0.7874 -0.2416
  422MOL0     H56949   6.180   9.510   9.299 -0.0658  0.1724  0.1339
  422MOL0     H56950   6.846   8.658   9.711 -1.0212  0.0311 -0.1271
  422MOL0     H56951   7.006   8.461   9.703 -0.7783  0.2710 -0.1407
  422MOL0     H56952   7.331   8.227   9.579  0.5261  0.6700 -1.8144
  422MOL0     H56953   7.460   8.046   9.617  0.4562  1.7411 -2.6738
  422MOL0     H56954   6.602   8.651   9.780 -2.0552  0.6883  0.8636
  422MOL0     H56955   6.502   8.868   9.718  0.4845 -0.7328 -0.8762
  422MOL0     H56956   6.506   9.286   9.690  0.8229  1.7415  0.2776
  422MOL0     H56957   6.453   9.509   9.652 -1.5518  2.1245  0.0683
  422MOL0     H56958   6.261   9.808   9.840  0.1613  0.7020  0.3763
  422MOL0     H56959   6.206   9.669   9.920 -4.6779 -0.9085 -0.8402
  422MOL0     H56960   6.009   9.756   9.903  1.3780  0.8077  1.2030
  422MOL0     H56961   6.007   9.681   9.740 -1.6517  1.6384 -1.9074
  422MOL0     H56962   6.087   9.983   9.782 -0.5572  1.2847 -2.3849
  422MOL0     H56963   5.921   9.921   9.755 -0.8847 -1.6108 -2.4410
  422MOL0     H56964   6.157   9.863   9.576 -0.1336  0.7092  1.4135
  422MOL0     H56965   5.995   9.832   9.528 -1.6219 -0.2300  0.5460
  422MOL0     H56966   6.060  10.209   9.373 -0.0884 -0.4076 -0.2956
  422MOL0     H56967   6.097   9.494   9.875  1.3097  2.3840  0.7318
  422MOL0     H56968   6.185   9.166  10.019  0.8418  1.7527  2.1936
  422MOL0     H56969   6.039   9.281  10.004 -0.7310 -1.0020 -0.7559
  422MOL0     H56970   6.058   9.154   9.890  0.7323 -1.6337  2.0823
  423MOL0     O56971  10.186   6.902   0.419  0.1959  0.0667  0.0443
  423MOL0     C56972  10.068   6.907   0.455 -1.0040  0.4407  0.1937
  423MOL0     O56973  10.027   6.911   0.591 -0.3239 -0.1541  1.2328
  423MOL0     C56974  10.137   6.916   0.679  0.5730 -0.3370 -0.0939
  423MOL0     C56975  10.199   7.038   0.714 -0.2352  0.1769 -0.3401
  423MOL0     C56976  10.319   7.032   0.802  0.9260 -1.0359 -0.2588
  423MOL0     C56977  10.363   6.909   0.848 -0.4089  0.9302 -1.0050
  423MOL0     O56978  10.487   6.899   0.917  0.8955  0.1979  0.7281
  423MOL0     C56979  10.582   6.816   0.859 -0.2729 -0.0248 -0.3263
  423MOL0     C56980  10.701   6.796   0.959  0.0046  0.7453  0.1423
  423MOL0     C56981  10.758   6.939   0.977 -0.2333 -0.1617 -0.1024
  423MOL0     C56982  10.802   7.005   0.853 -0.6072 -0.7000  0.6806
  423MOL0     C56983  10.901   6.942   0.763 -0.4001 -0.0687  0.1922
  423MOL0     C56984  10.920   7.035   0.646 -0.1617 -0.1830  0.4898
  423MOL0     C56985  11.021   6.977   0.545 -0.9803  0.0422 -0.0045
  423MOL0     C56986  11.065   7.084   0.445 -0.0549  0.4291  0.5069
  423MOL0     N56987  11.115   7.020   0.322 -0.2595  0.2929 -0.0967
  423MOL0     C56988  11.079   7.055   0.192 -0.6620  0.8433  0.2573
  423MOL0     C56989  11.161   6.983   0.108 -1.1063 -0.0681  0.4339
  423MOL0     C56990  11.153   6.972  -0.047 -0.1977 -0.1725  0.2255
  423MOL0     C56991  11.243   6.867  -0.099  0.1762  0.6301 -1.3510
  423MOL0     C56992  11.386   6.913  -0.117 -1.2281  0.4094 -0.4789
  423MOL0     C56993  11.469   6.803  -0.189 -0.6142 -0.6711 -0.1453
  423MOL0     O56994  11.598   6.850  -0.228  0.2706  0.3083 -0.2977
  423MOL0     C56995  11.670   6.784  -0.326  1.0325  0.1768 -0.6383
  423MOL0     C56996  11.803   6.820  -0.344 -0.0260 -0.2818 -0.2600
  423MOL0     C56997  11.879   6.755  -0.443 -0.6444 -0.8283 -0.4355
  423MOL0     C56998  11.831   6.654  -0.525 -0.7718  0.0909  0.1651
  423MOL0     C56999  11.919   6.585  -0.622 -0.2530 -0.3965  0.6109
  423MOL0     O57000  11.860   6.494  -0.708  0.6578  0.7700 -0.3420
  423MOL0     C57001  11.935   6.446  -0.806  0.4358 -0.0751 -1.2434
  423MOL0     C57002  11.901   6.475  -0.932 -0.1755  0.0217  0.5063
  423MOL0     C57003  11.966   6.414  -1.042  0.3430  0.0497 -0.3798
  423MOL0     C57004  12.077   6.327  -1.020  0.5515 -0.7189  0.0723
  423MOL0     O57005  12.148   6.288  -1.130 -0.1120 -0.5268 -0.1384
  423MOL0     C57006  12.268   6.211  -1.110 -0.0828  0.3280  0.5722
  423MOL0     C57007  12.330   6.164  -1.240 -0.6690 -0.3430  0.4603
  423MOL0     C57008  12.399   6.267  -1.329 -0.2484  0.1761 -0.0727
  423MOL0     C57009  12.468   6.202  -1.447 -0.5602 -1.0026 -0.2162
  423MOL0     C57010  12.528   6.303  -1.551 -0.5702 -0.4785  0.3900
  423MOL0     C57011  12.552   6.260  -1.698 -0.2686  0.0906 -1.0941
  423MOL0     C57012  12.662   6.151  -1.704  0.1292  0.4883  0.7378
  423MOL0     C57013  12.675   6.106  -1.855  0.2089  0.8064 -0.2037
  423MOL0    Cl57014  12.743   6.246  -1.952  0.3050 -0.0456  0.9397
  423MOL0     C57015  12.106   6.296  -0.887 -0.6630  0.0092 -0.1439
  423MOL0     C57016  12.039   6.352  -0.782  0.5352 -0.7207  0.1201
  423MOL0     O57017  12.038   6.617  -0.626 -0.3852 -0.4433 -0.1356
  423MOL0     C57018  11.705   6.611  -0.490 -0.4477 -0.5797  0.1123
  423MOL0     C57019  11.618   6.673  -0.399 -0.0895  0.3306  0.6537
  423MOL0     N57020  11.249   6.913   0.193 -0.2577  0.3199  0.0166
  423MOL0     N57021  11.220   6.937   0.323 -0.2616  0.1934  0.8015
  423MOL0     C57022  10.288   6.798   0.823  0.1375  0.1062 -0.4115
  423MOL0     C57023  10.175   6.804   0.741  0.0389  0.6194 -0.3566
  423MOL0     C57024   9.969   6.887   0.355  0.9061  0.0899  0.4047
  423MOL0     C57025   9.835   6.904   0.390  0.2491 -0.2789 -0.5210
  423MOL0     C57026   9.730   6.887   0.298  0.3470 -0.7941 -0.0976
  423MOL0     C57027   9.757   6.856   0.164  0.2478  0.2857  0.2438
  423MOL0     O57028   9.664   6.873   0.060  0.0522  0.0733  0.2972
  423MOL0     C57029   9.617   7.007   0.074 -0.7938 -0.2293  0.3815
  423MOL0     C57030   9.723   7.115   0.056  0.0201  0.1861  0.0250
  423MOL0     C57031   9.664   7.243  -0.001 -0.1309  0.1833  0.5662
  423MOL0     C57032   9.762   7.366   0.001  0.2307 -0.2513 -0.2621
  423MOL0     C57033   9.867   7.346  -0.101  1.2648 -0.7923 -0.1266
  423MOL0     C57034   9.951   7.333  -0.185 -0.1218 -0.2136  0.0634
  423MOL0     C57035   9.888   6.821   0.133  0.4343  0.5369  0.5341
  423MOL0     C57036   9.996   6.833   0.221  0.0940 -0.4095 -0.8831
  423MOL0     C57037  10.132   6.804   0.170 -0.3332  1.0143  0.4697
  423MOL0     H57038  10.163   7.130   0.670  2.8123 -0.0244 -3.6686
  423MOL0     H57039  10.382   7.116   0.832 -2.1542  1.6809 -0.8086
  423MOL0     H57040  10.551   6.712   0.851  1.6422 -0.4707 -4.6005
  423MOL0     H57041  10.616   6.849   0.760 -1.3730 -2.5388 -1.6422
  423MOL0     H57042  10.777   6.733   0.911 -2.0957  0.6203 -3.3138
  423MOL0     H57043  10.672   6.753   1.055  0.5321 -0.9410 -0.4217
  423MOL0     H57044  10.842   6.942   1.046 -0.1822  0.6659 -0.1959
  423MOL0     H57045  10.684   7.003   1.025 -0.3121  0.3821 -0.9253
  423MOL0     H57046  10.717   7.041   0.794 -0.2139 -0.1050  0.4653
  423MOL0     H57047  10.834   7.107   0.880 -2.9183 -0.2589  1.9535
  423MOL0     H57048  10.995   6.934   0.818 -1.2207 -0.0299  1.6435
  423MOL0     H57049  10.866   6.845   0.727  0.4357 -0.4498  0.3845
  423MOL0     H57050  10.824   7.051   0.595 -0.0152  0.1512  0.3189
  423MOL0     H57051  10.957   7.135   0.673 -1.9351  0.4496  0.7210
  423MOL0     H57052  10.973   6.894   0.491 -1.6523  0.8714 -0.7174
  423MOL0     H57053  11.113   6.951   0.598 -1.3162  0.7949  0.9859
  423MOL0     H57054  10.981   7.147   0.415  0.4498  0.8394 -0.0695
  423MOL0     H57055  11.148   7.138   0.491  1.2144 -0.6240 -0.4649
  423MOL0     H57056  11.014   7.140   0.169 -0.6461  0.6595 -0.5076
  423MOL0     H57057  11.051   6.963  -0.084 -0.0921  1.1693 -0.4838
  423MOL0     H57058  11.200   7.066  -0.080 -1.2736  0.1014 -0.5843
  423MOL0     H57059  11.238   6.777  -0.037  0.1155  1.2726 -0.3916
  423MOL0     H57060  11.201   6.843  -0.197 -2.2474 -1.0218 -0.0347
  423MOL0     H57061  11.439   6.924  -0.022 -0.0275 -1.4903 -0.8724
  423MOL0     H57062  11.389   7.008  -0.172  1.2037 -0.6132 -2.3111
  423MOL0     H57063  11.418   6.777  -0.282  2.2168 -3.1522 -1.2032
  423MOL0     H57064  11.490   6.725  -0.115 -3.5451 -1.2417  0.2078
  423MOL0     H57065  11.853   6.890  -0.277 -0.5457  1.4071 -1.5726
  423MOL0     H57066  11.980   6.787  -0.469 -0.5169  0.2271  1.2568
  423MOL0     H57067  11.812   6.532  -0.956 -1.6336 -1.1936  2.6971
  423MOL0     H57068  11.933   6.444  -1.140  0.9705  3.5335  0.3396
  423MOL0     H57069  12.351   6.261  -1.059  0.2939 -0.1319  0.4171
  423MOL0     H57070  12.231   6.125  -1.053 -1.0059  1.3980  1.6557
  423MOL0     H57071  12.407   6.093  -1.205  0.7597  1.6313  1.5072
  423MOL0     H57072  12.244   6.122  -1.292 -0.7707 -0.6128  0.8343
  423MOL0     H57073  12.320   6.336  -1.362 -0.1107  0.7742  0.8225
  423MOL0     H57074  12.467   6.336  -1.279  0.0595  0.2929 -0.6394
  423MOL0     H57075  12.395   6.135  -1.493 -2.8064  0.0871  1.5388
  423MOL0     H57076  12.556   6.145  -1.417  0.9330  0.7778 -1.0315
  423MOL0     H57077  12.626   6.317  -1.504  1.1076 -6.2248 -0.7215
  423MOL0     H57078  12.463   6.390  -1.565 -1.8471 -1.4939 -0.1903
  423MOL0     H57079  12.458   6.220  -1.736 -1.2282 -1.9136  2.8810
  423MOL0     H57080  12.586   6.344  -1.761 -0.8070  0.5523 -0.7766
  423MOL0     H57081  12.623   6.073  -1.637 -0.9106 -0.2557 -0.7014
  423MOL0     H57082  12.760   6.180  -1.664 -0.3627  0.5337  1.9840
  423MOL0     H57083  12.743   6.021  -1.853 -0.7878  0.0079  1.1854
  423MOL0     H57084  12.576   6.072  -1.889 -0.2877  1.1806  0.8163
  423MOL0     H57085  12.186   6.225  -0.866 -0.6834  0.3065  1.0448
  423MOL0     H57086  12.068   6.322  -0.682  2.7003 -0.2154 -0.2978
  423MOL0     H57087  11.672   6.520  -0.538 -1.7448  1.2658 -2.7889
  423MOL0     H57088  11.523   6.620  -0.397  0.3253 -0.6410 -2.1476
  423MOL0     H57089  10.335   6.706   0.859  0.8013  0.3300 -0.6804
  423MOL0     H57090  10.114   6.717   0.719 -2.4374  1.2931  2.9399
  423MOL0     H57091   9.808   6.931   0.492 -0.1385 -0.5916 -0.5382
  423MOL0     H57092   9.625   6.905   0.321  0.7116  0.1408  0.9263
  423MOL0     H57093   9.552   7.032   0.158 -2.0992  0.2192 -0.7277
  423MOL0     H57094   9.545   7.008  -0.008  0.1835 -1.7722 -0.5440
  423MOL0     H57095   9.792   7.076  -0.019  0.1262  0.2077  0.1121
  423MOL0     H57096   9.781   7.129   0.148  3.6570 -1.7763 -1.7604
  423MOL0     H57097   9.580   7.274   0.062 -2.2501 -0.1266 -1.9124
  423MOL0     H57098   9.632   7.228  -0.104 -1.1788  2.4575  0.5031
  423MOL0     H57099   9.704   7.458  -0.009 -2.3745 -1.6590  0.7750
  423MOL0     H57100   9.817   7.372   0.095  0.7058 -2.3445 -0.3570
  423MOL0     H57101  10.029   7.330  -0.259  0.1604 -1.5141  0.3956
  423MOL0     H57102   9.908   6.800   0.029 -0.7061 -1.9096  0.7366
  423MOL0     H57103  10.186   6.898   0.185 -0.9710  1.6991 -1.2491
  423MOL0     H57104  10.156   6.724   0.241 -0.2639 -1.4783 -2.1466
  423MOL0     H57105  10.144   6.766   0.068 -0.3736  3.9426 -0.7158
  424MOL0     O57106   1.882   8.868   4.690 -0.5149  0.0209 -0.0398
  424MOL0     C57107   1.854   8.886   4.812 -0.7944 -0.8545  0.2386
  424MOL0     O57108   1.925   8.846   4.915  0.6251 -0.1938 -0.3618
  424MOL0     C57109   2.048   8.804   4.914 -1.1260  0.5532 -0.8720
  424MOL0     C57110   2.098   8.718   4.820 -0.4577  1.0371  0.1767
  424MOL0     C57111   2.224   8.654   4.840 -0.7674  0.5747  0.4391
  424MOL0     C57112   2.297   8.679   4.957  0.4012 -0.1293 -0.3082
  424MOL0     O57113   2.413   8.617   4.991 -0.7470 -0.3553  0.8217
  424MOL0     C57114   2.496   8.536   4.907 -0.8299  0.7096  0.7239
  424MOL0     C57115   2.576   8.624   4.810  0.1161 -0.5743  0.1952
  424MOL0     C57116   2.697   8.540   4.748  0.0955 -0.4674 -0.1385
  424MOL0     C57117   2.646   8.436   4.653 -0.0339  0.5529 -0.0742
  424MOL0     C57118   2.748   8.348   4.588 -0.2206 -0.2754  1.2301
  424MOL0     C57119   2.879   8.410   4.540  0.8684  0.6039  0.1677
  424MOL0     C57120   2.944   8.326   4.441 -0.6491  0.4836  0.7286
  424MOL0     C57121   3.081   8.380   4.394 -1.0202 -0.8516 -0.1303
  424MOL0     N57122   3.160   8.282   4.331  0.1720  1.1409 -0.9499
  424MOL0     C57123   3.213   8.302   4.206 -0.7331  0.1063  0.4747
  424MOL0     C57124   3.251   8.176   4.174  0.0998  0.0798 -0.0438
  424MOL0     C57125   3.313   8.140   4.038  0.5458  0.3727  0.1369
  424MOL0     C57126   3.449   8.071   4.039  0.5068 -0.1174 -0.5426
  424MOL0     C57127   3.484   8.013   3.900 -0.4670  0.6013  0.0385
  424MOL0     C57128   3.517   8.109   3.790 -0.6754  0.7247  0.6674
  424MOL0     O57129   3.611   8.213   3.833  0.3738 -0.0190  1.0846
  424MOL0     C57130   3.739   8.169   3.797  0.7374 -0.2068  0.0022
  424MOL0     C57131   3.782   8.191   3.669  0.2314  0.5170  0.4023
  424MOL0     C57132   3.906   8.147   3.622  0.5841 -0.2163  0.5585
  424MOL0     C57133   3.992   8.069   3.702  0.8069  0.2402 -0.2257
  424MOL0     C57134   4.135   8.049   3.674  0.7267 -0.2431 -0.0460
  424MOL0     O57135   4.209   7.987   3.767  0.3126 -0.1348  0.1647
  424MOL0     C57136   4.342   8.012   3.749 -0.4879  0.7330  0.7309
  424MOL0     C57137   4.411   8.132   3.733  0.7026 -0.1649 -0.3436
  424MOL0     C57138   4.547   8.142   3.717 -0.0741  0.8957 -0.7864
  424MOL0     C57139   4.617   8.019   3.725  0.6250  0.7193  0.2794
  424MOL0     O57140   4.751   8.012   3.694  0.1281 -0.1866  0.2993
  424MOL0     C57141   4.821   8.109   3.770 -0.0681  0.0363 -0.0327
  424MOL0     C57142   4.962   8.067   3.834 -0.4422 -0.0707  0.4432
  424MOL0     C57143   5.071   8.028   3.733 -0.2646 -0.5748 -0.4306
  424MOL0     C57144   5.089   8.140   3.631 -0.6845 -0.4762 -0.0796
  424MOL0     C57145   5.204   8.104   3.540 -0.2982 -0.1627  0.0945
  424MOL0     C57146   5.243   8.228   3.459  0.0554 -0.6109 -0.6202
  424MOL0     C57147   5.309   8.190   3.330  0.9278  1.1477 -0.4934
  424MOL0     C57148   5.420   8.288   3.301 -0.0021  0.1064  0.4546
  424MOL0    Cl57149   5.575   8.237   3.376  0.2804  0.0726 -0.5396
  424MOL0     C57150   4.555   7.896   3.742 -0.2015 -0.8351 -0.7621
  424MOL0     C57151   4.419   7.897   3.768 -1.3082 -0.0583  0.6489
  424MOL0     O57152   4.168   8.086   3.557  0.3941 -0.6676  0.0770
  424MOL0     C57153   3.942   8.034   3.831  0.2117 -0.2971 -0.7367
  424MOL0     C57154   3.825   8.089   3.876 -0.1524  0.3004  0.0868
  424MOL0     N57155   3.235   8.093   4.278  0.3536  0.3397 -0.1631
  424MOL0     N57156   3.186   8.153   4.380  0.0115 -0.1505  0.1031
  424MOL0     C57157   2.253   8.779   5.051  0.8407  1.3314 -0.5863
  424MOL0     C57158   2.125   8.838   5.030  0.3630 -0.0981  0.8619
  424MOL0     C57159   1.738   8.972   4.854 -0.2796  0.3083  0.1996
  424MOL0     C57160   1.623   8.961   4.767 -0.6584  0.6608  0.4952
  424MOL0     C57161   1.508   9.022   4.791  0.0629  0.2991 -0.0019
  424MOL0     C57162   1.496   9.107   4.903  0.6730  0.2221  0.4507
  424MOL0     O57163   1.371   9.176   4.899 -0.4193 -0.4708  0.1233
  424MOL0     C57164   1.362   9.302   4.969  0.3300  0.0412  1.0072
  424MOL0     C57165   1.267   9.295   5.090  0.0756  0.0410  0.0769
  424MOL0     C57166   1.124   9.273   5.044  0.0932 -0.2109 -0.4504
  424MOL0     C57167   1.073   9.357   4.926  0.0539 -0.2666  0.3859
  424MOL0     C57168   0.925   9.374   4.926 -0.1790  0.0774 -0.2241
  424MOL0     C57169   0.802   9.376   4.933 -0.0098 -0.3295  0.3371
  424MOL0     C57170   1.608   9.126   4.987  0.3748 -0.6180 -0.3292
  424MOL0     C57171   1.730   9.055   4.968  0.4025  0.8537  0.2302
  424MOL0     C57172   1.846   9.085   5.067  0.7599 -0.4782 -0.4348
  424MOL0     H57173   2.042   8.680   4.735  0.6121  0.5806 -0.3377
  424MOL0     H57174   2.257   8.564   4.789  2.3368  0.9273  1.5778
  424MOL0     H57175   2.569   8.474   4.960  0.4798 -0.8389 -2.6015
  424MOL0     H57176   2.440   8.462   4.848  2.7988 -0.6981 -1.2902
  424MOL0     H57177   2.598   8.718   4.861 -2.4564  0.1184  0.1756
  424MOL0     H57178   2.515   8.652   4.723 -2.4569 -3.6229  0.8358
  424MOL0     H57179   2.758   8.492   4.825 -2.1327 -0.7790  1.5522
  424MOL0     H57180   2.765   8.615   4.707 -0.3367  1.6498  2.6980
  424MOL0     H57181   2.561   8.379   4.691 -0.1115 -0.7917 -2.0878
  424MOL0     H57182   2.599   8.498   4.576 -4.6130 -1.6726  0.5678
  424MOL0     H57183   2.776   8.263   4.651  1.9924 -1.5895 -1.2744
  424MOL0     H57184   2.696   8.298   4.506  1.2742  0.7801 -0.4421
  424MOL0     H57185   2.861   8.512   4.504 -2.2742  0.3043  0.5357
  424MOL0     H57186   2.954   8.430   4.617 -0.4994 -0.0931  1.7453
  424MOL0     H57187   2.880   8.302   4.355 -2.2147  0.9138  1.7247
  424MOL0     H57188   2.974   8.231   4.484  2.7826  0.8398 -0.5440
  424MOL0     H57189   3.070   8.462   4.321 -2.4588 -0.8902  0.0035
  424MOL0     H57190   3.136   8.421   4.479  1.3054 -3.1387 -0.4261
  424MOL0     H57191   3.230   8.391   4.147  0.9450 -0.5455 -0.0792
  424MOL0     H57192   3.243   8.066   3.998  1.0762  1.1564 -2.3993
  424MOL0     H57193   3.300   8.220   3.964 -4.1861  2.1026  2.3796
  424MOL0     H57194   3.531   8.131   4.080 -1.7029  2.3869  0.4728
  424MOL0     H57195   3.446   7.985   4.106  2.4402 -0.7093 -1.1487
  424MOL0     H57196   3.402   7.949   3.864 -1.6586  1.6104  0.8747
  424MOL0     H57197   3.571   7.951   3.923 -0.7425  0.8736  1.9668
  424MOL0     H57198   3.433   8.171   3.759 -1.0286  0.6359  1.4408
  424MOL0     H57199   3.546   8.049   3.703 -2.8318 -0.7744  0.9044
  424MOL0     H57200   3.714   8.219   3.589  0.6935 -1.9875 -0.9627
  424MOL0     H57201   3.930   8.161   3.517 -1.8277 -2.9307 -0.5069
  424MOL0     H57202   4.349   8.220   3.726  1.7881  0.5843 -0.9758
  424MOL0     H57203   4.606   8.232   3.705  2.8262 -0.6169  0.9396
  424MOL0     H57204   4.839   8.200   3.712  0.7662 -0.3563 -0.4007
  424MOL0     H57205   4.748   8.137   3.847 -1.2659  1.4828 -1.6230
  424MOL0     H57206   5.010   8.139   3.901  4.1986  0.8213 -3.2562
  424MOL0     H57207   4.951   7.978   3.897  1.5117  1.1319  2.6499
  424MOL0     H57208   5.162   8.017   3.792 -0.4683  1.5472  0.3788
  424MOL0     H57209   5.057   7.933   3.681  0.1074  1.3039 -4.3976
  424MOL0     H57210   5.112   8.234   3.682  2.2763 -2.0487  1.7418
  424MOL0     H57211   5.006   8.143   3.559  0.9824 -2.7730 -2.3174
  424MOL0     H57212   5.177   8.027   3.468  1.1415 -0.1709 -0.4711
  424MOL0     H57213   5.287   8.065   3.599 -1.1514 -0.1806  1.3210
  424MOL0     H57214   5.153   8.286   3.438 -0.3775 -1.5939 -1.5744
  424MOL0     H57215   5.316   8.295   3.506  0.4920 -0.2649 -1.7551
  424MOL0     H57216   5.230   8.187   3.254 -0.5927  2.7454  0.9350
  424MOL0     H57217   5.347   8.089   3.346 -0.7529  0.8813  2.8517
  424MOL0     H57218   5.445   8.301   3.195  0.3354 -4.1813 -0.1980
  424MOL0     H57219   5.384   8.387   3.327  1.1360  1.0296 -1.2646
  424MOL0     H57220   4.625   7.816   3.760 -0.4643 -0.7500  0.8136
  424MOL0     H57221   4.390   7.792   3.772  0.9697 -0.7995 -0.6761
  424MOL0     H57222   4.010   7.979   3.896 -2.5329 -1.7030  1.1594
  424MOL0     H57223   3.806   8.062   3.980  0.3543 -0.5429 -0.0370
  424MOL0     H57224   2.308   8.813   5.139  0.0557 -1.4123  1.0864
  424MOL0     H57225   2.079   8.905   5.103  1.5662  1.8553 -0.0724
  424MOL0     H57226   1.622   8.883   4.691 -4.5490 -0.9171  1.9073
  424MOL0     H57227   1.417   9.001   4.735 -0.2047  1.5043 -0.0418
  424MOL0     H57228   1.320   9.377   4.901  0.7007 -1.8365 -1.4230
  424MOL0     H57229   1.464   9.331   4.997  0.7247 -0.0513 -0.2631
  424MOL0     H57230   1.269   9.393   5.138 -4.5775 -0.3545  1.5349
  424MOL0     H57231   1.306   9.210   5.148  2.1354  2.0982  1.8948
  424MOL0     H57232   1.067   9.294   5.135  1.7043 -2.4731  1.1921
  424MOL0     H57233   1.119   9.165   5.031  2.3468 -0.2235 -1.7366
  424MOL0     H57234   1.105   9.461   4.935 -0.2573 -0.2496  1.5698
  424MOL0     H57235   1.100   9.311   4.831 -3.2509  0.8143 -1.2233
  424MOL0     H57236   0.696   9.380   4.920 -0.0052  0.0515  0.4052
  424MOL0     H57237   1.597   9.183   5.078  4.3173 -1.2948  0.7578
  424MOL0     H57238   1.889   8.999   5.118 -0.4431 -1.3116 -0.7764
  424MOL0     H57239   1.930   9.136   5.019  0.8270 -0.2994 -0.1290
  424MOL0     H57240   1.810   9.145   5.151  0.1612 -1.0080 -0.3077
  425MOL0     O57241   4.421  10.060  11.020 -0.6247  0.2535 -0.6419
  425MOL0     C57242   4.401  10.138  10.927  0.3494  0.5384  0.1947
  425MOL0     O57243   4.285  10.205  10.901  0.2888  0.4859 -0.3142
  425MOL0     C57244   4.177  10.214  10.981 -0.1170 -0.1155  0.1344
  425MOL0     C57245   4.060  10.265  10.917  0.7004  0.2812 -0.3973
  425MOL0     C57246   3.937  10.243  10.969 -0.1242 -0.0933 -0.0636
  425MOL0     C57247   3.919  10.196  11.099  0.7866  0.1221  0.0983
  425MOL0     O57248   3.788  10.184  11.146  0.4623  0.2565  0.3565
  425MOL0     C57249   3.760  10.284  11.247 -0.2837  0.6353 -0.0955
  425MOL0     C57250   3.605  10.267  11.270  0.2600  0.0193  0.6773
  425MOL0     C57251   3.565  10.244  11.422 -0.1639 -0.5241 -0.3113
  425MOL0     C57252   3.414  10.237  11.417  0.8044  0.3092  0.2962
  425MOL0     C57253   3.349  10.235  11.561 -0.5518  0.0584 -0.5179
  425MOL0     C57254   3.205  10.160  11.574 -0.2162 -0.6047  0.3110
  425MOL0     C57255   3.084  10.237  11.520 -0.9812 -0.0127 -0.8013
  425MOL0     C57256   2.973  10.136  11.531 -0.1396 -0.4120  0.3763
  425MOL0     N57257   2.925  10.141  11.673 -0.2874  0.1176  0.2507
  425MOL0     C57258   2.927  10.028  11.748  0.2812 -0.6063 -0.1770
  425MOL0     C57259   2.836  10.052  11.844 -0.6327 -0.4576 -0.0248
  425MOL0     C57260   2.799   9.962  11.964  0.2013  0.6371 -0.6317
  425MOL0     C57261   2.847  10.024  12.099  0.0213  0.4680 -0.4681
  425MOL0     C57262   2.992   9.964  12.143 -0.0292 -0.3239 -0.1792
  425MOL0     C57263   3.097  10.013  12.061  0.2854 -0.4632 -0.6484
  425MOL0     O57264   3.119   9.902  11.966 -0.0425 -0.1342 -0.0533
  425MOL0     C57265   3.235   9.911  11.896 -1.3038  0.2056 -0.3876
  425MOL0     C57266   3.255   9.803  11.806 -0.7515 -0.0855 -0.3696
  425MOL0     C57267   3.377   9.785  11.745  0.6549 -0.3726 -0.6790
  425MOL0     C57268   3.479   9.879  11.763 -0.3161  0.2251 -0.7558
  425MOL0     C57269   3.612   9.851  11.710  0.5447  0.3732  0.6852
  425MOL0     O57270   3.707   9.957  11.692  0.6093  0.3478  0.2405
  425MOL0     C57271   3.797   9.932  11.599  0.0237  0.9616 -0.2822
  425MOL0     C57272   3.760   9.909  11.466  0.2271 -0.3498 -0.0159
  425MOL0     C57273   3.860   9.878  11.373 -1.0815  0.1509 -0.2161
  425MOL0     C57274   3.998   9.862  11.420  0.1008 -0.3724 -0.5053
  425MOL0     O57275   4.106   9.834  11.342  0.5225 -0.1222 -0.6880
  425MOL0     C57276   4.088   9.809  11.194  0.7480 -0.3718 -0.3885
  425MOL0     C57277   4.224   9.799  11.125  0.3739 -0.8153 -0.9465
  425MOL0     C57278   4.222   9.729  10.990 -0.2348 -0.7243  0.4012
  425MOL0     C57279   4.097   9.742  10.913 -0.1758  0.0238 -0.5415
  425MOL0     C57280   4.110   9.693  10.771  0.7373  0.0674 -0.1073
  425MOL0     C57281   3.985   9.728  10.680  0.0022 -0.4231 -0.5466
  425MOL0     C57282   3.979   9.881  10.659  0.3989  0.6094  0.2857
  425MOL0     C57283   4.102   9.960  10.631 -0.2104  0.3919 -0.0597
  425MOL0    Cl57284   4.200   9.867  10.503 -0.1051 -0.0865  0.4217
  425MOL0     C57285   4.033   9.905  11.543 -0.1626  0.0975 -0.1682
  425MOL0     C57286   3.934   9.940  11.635  0.4897 -0.3925  0.7119
  425MOL0     O57287   3.631   9.733  11.685  0.1637 -0.2813  0.0395
  425MOL0     C57288   3.452   9.997  11.832  0.4807  0.0767 -0.3444
  425MOL0     C57289   3.336  10.019  11.898  0.8380  1.5252  0.4107
  425MOL0     N57290   2.773  10.177  11.821  0.5621  0.6129 -0.0898
  425MOL0     N57291   2.834  10.226  11.721 -0.3841 -0.0663  1.5346
  425MOL0     C57292   4.031  10.149  11.161  0.2381 -0.1960 -0.5816
  425MOL0     C57293   4.160  10.148  11.110 -0.4682 -1.3596  0.5611
  425MOL0     C57294   4.506  10.142  10.820 -0.0019  0.7457 -0.3106
  425MOL0     C57295   4.466  10.132  10.686  0.9657  0.1288 -0.6330
  425MOL0     C57296   4.566  10.145  10.589  1.1468  0.3905  0.4216
  425MOL0     C57297   4.702  10.155  10.616  0.7234  1.3390  0.8753
  425MOL0     O57298   4.788  10.170  10.508 -0.0781 -0.2592 -0.1975
  425MOL0     C57299   4.922  10.129  10.525  0.7873  0.0120  0.2514
  425MOL0     C57300   4.998  10.147  10.394 -0.7481 -0.2027 -0.9158
  425MOL0     C57301   5.004  10.299  10.370  0.0313  0.0548 -0.7847
  425MOL0     C57302   5.115  10.335  10.264  0.4219  1.3014 -0.7198
  425MOL0     C57303   5.143  10.474  10.234 -0.9058 -0.1298 -0.6195
  425MOL0     C57304   5.165  10.588  10.211  1.0989  0.1948  0.1206
  425MOL0     C57305   4.739  10.163  10.747  0.3468 -0.0964 -0.7904
  425MOL0     C57306   4.644  10.147  10.852 -0.3470  0.7446  0.9977
  425MOL0     C57307   4.703  10.160  10.991 -0.1949 -0.1892  0.5937
  425MOL0     H57308   4.081  10.300  10.817 -0.1724  0.2476 -0.5950
  425MOL0     H57309   3.862  10.286  10.904  0.5852 -1.2702 -1.7449
  425MOL0     H57310   3.793  10.246  11.344 -2.6480 -2.7750 -0.4475
  425MOL0     H57311   3.790  10.386  11.220 -2.3121  0.7225 -2.4051
  425MOL0     H57312   3.561  10.190  11.207  2.6570 -2.7375  2.1370
  425MOL0     H57313   3.569  10.366  11.240  1.9323  0.1198 -1.2208
  425MOL0     H57314   3.599  10.331  11.478 -1.4635  0.3626 -0.8514
  425MOL0     H57315   3.609  10.154  11.466 -3.2572 -0.8086  2.5532
  425MOL0     H57316   3.380  10.329  11.368  0.1260 -0.7050 -1.2334
  425MOL0     H57317   3.380  10.151  11.359  0.9340 -1.4379  2.6795
  425MOL0     H57318   3.420  10.173  11.616  0.4652  1.6958  0.0814
  425MOL0     H57319   3.352  10.332  11.612  1.5518  0.4593 -1.3218
  425MOL0     H57320   3.209  10.061  11.529  2.1131 -0.7638  0.7381
  425MOL0     H57321   3.184  10.153  11.681 -2.6895 -1.1197 -0.1496
  425MOL0     H57322   3.108  10.261  11.416  0.6555 -0.6179 -0.5964
  425MOL0     H57323   3.062  10.322  11.585  0.0640  0.0253 -0.4622
  425MOL0     H57324   2.889  10.159  11.465  1.5137  2.9148 -0.7896
  425MOL0     H57325   3.004  10.036  11.499 -2.0552 -0.3505 -1.8914
  425MOL0     H57326   2.998   9.948  11.737  1.7658  0.2770  2.1859
  425MOL0     H57327   2.693   9.935  11.964  0.3372 -1.1172 -6.1283
  425MOL0     H57328   2.848   9.866  11.947 -0.1167  0.4996 -0.7832
  425MOL0     H57329   2.840  10.132  12.089 -1.5979  0.7088  2.3708
  425MOL0     H57330   2.772   9.999  12.174  1.8637 -2.2418  0.6818
  425MOL0     H57331   2.998   9.855  12.150 -0.8945 -0.3903 -0.3508
  425MOL0     H57332   3.000  10.008  12.243 -1.9887 -1.8631  0.7308
  425MOL0     H57333   3.178  10.031  12.132 -0.4264 -1.4678  0.4721
  425MOL0     H57334   3.068  10.099  12.000 -0.4383  0.0540  0.3993
  425MOL0     H57335   3.184   9.721  11.805  0.6141 -1.3234 -0.2885
  425MOL0     H57336   3.377   9.694  11.685  0.5167 -0.3708 -0.6823
  425MOL0     H57337   3.660   9.926  11.427  0.5438  0.6148 -0.4425
  425MOL0     H57338   3.845   9.873  11.265  0.3328 -0.6095 -0.4040
  425MOL0     H57339   4.036   9.715  11.176 -2.0306  0.7961  0.9873
  425MOL0     H57340   4.030   9.893  11.155  0.8178 -0.1551 -0.0275
  425MOL0     H57341   4.265   9.901  11.120  0.2389 -0.7533 -0.8029
  425MOL0     H57342   4.302   9.749  11.184  1.9362 -0.6312 -2.7775
  425MOL0     H57343   4.304   9.774  10.932 -0.8568  3.0406  2.1396
  425MOL0     H57344   4.231   9.622  11.006 -1.1437 -0.7724  0.6323
  425MOL0     H57345   4.064   9.846  10.920  0.5179  0.2462 -0.5702
  425MOL0     H57346   4.021   9.678  10.960 -1.0145  1.9264  0.8168
  425MOL0     H57347   4.121   9.585  10.780 -0.9973 -0.1842 -0.5224
  425MOL0     H57348   4.200   9.739  10.729  0.3314 -0.5793 -1.7600
  425MOL0     H57349   4.004   9.676  10.586 -0.8164  0.3351 -1.1514
  425MOL0     H57350   3.892   9.689  10.722  0.3323  1.0090  1.6636
  425MOL0     H57351   3.926   9.926  10.743  2.1976  1.1447  1.1885
  425MOL0     H57352   3.918   9.896  10.569  2.0858  1.8401 -0.7156
  425MOL0     H57353   4.084  10.061  10.592 -0.1824  0.7284  0.7813
  425MOL0     H57354   4.159   9.967  10.724  0.6184 -1.2449 -0.4114
  425MOL0     H57355   4.133   9.908  11.584  0.0787 -3.0683 -0.2893
  425MOL0     H57356   3.965   9.977  11.732  2.9797 -2.3730  0.7716
  425MOL0     H57357   3.526  10.074  11.851  0.5719  0.1236 -0.8717
  425MOL0     H57358   3.323  10.103  11.965 -0.5899  1.5684  0.1093
  425MOL0     H57359   4.025  10.114  11.263  5.1352  0.2282  0.0490
  425MOL0     H57360   4.245  10.121  11.172  0.3845  0.0189  0.0559
  425MOL0     H57361   4.366  10.128  10.643  0.5642  2.1589 -0.0218
  425MOL0     H57362   4.529  10.167  10.490  0.5406  2.2415  1.0313
  425MOL0     H57363   4.927  10.023  10.553  2.0338  0.3496  1.3646
  425MOL0     H57364   4.965  10.191  10.604  0.3787  0.9063 -0.2106
  425MOL0     H57365   4.943  10.095  10.316  0.1504  0.4283 -2.0136
  425MOL0     H57366   5.095  10.098  10.406 -1.4000 -1.4592 -0.6574
  425MOL0     H57367   5.014  10.361  10.460  0.7909 -0.1094 -0.7557
  425MOL0     H57368   4.907  10.333  10.331  1.0432  0.2560 -3.2903
  425MOL0     H57369   5.212  10.301  10.301  0.0896  0.8564 -0.2389
  425MOL0     H57370   5.101  10.281  10.170 -1.3932  1.2645 -0.4725
  425MOL0     H57371   5.198  10.688  10.192  0.9145  0.4172  0.9495
  425MOL0     H57372   4.838  10.185  10.784 -1.9645  1.7267  5.7061
  425MOL0     H57373   4.717  10.064  11.043  1.3080 -1.2283 -1.6010
  425MOL0     H57374   4.801  10.207  10.985 -0.3866  0.1307 -0.0576
  425MOL0     H57375   4.640  10.229  11.049 -0.9671 -0.0180 -0.4187
  426MOL0     O57376  10.937   8.170   6.407 -0.7377  0.6072 -0.0272
  426MOL0     C57377  10.869   8.265   6.376 -0.0227  0.3409  0.5110
  426MOL0     O57378  10.897   8.398   6.400  0.3142  0.0100 -0.5764
  426MOL0     C57379  11.001   8.420   6.491  0.2100  1.0034  0.4866
  426MOL0     C57380  10.971   8.489   6.608 -0.2694  0.2308  0.2749
  426MOL0     C57381  11.068   8.510   6.705 -1.0404  0.8472 -0.3217
  426MOL0     C57382  11.200   8.461   6.691 -0.6193 -0.2513 -0.5826
  426MOL0     O57383  11.296   8.480   6.790  0.3759  0.3736 -0.5729
  426MOL0     C57384  11.433   8.426   6.777  0.2478  0.5567  0.4430
  426MOL0     C57385  11.518   8.479   6.893 -0.0106  0.3506 -0.1957
  426MOL0     C57386  11.476   8.400   7.013  0.5329 -0.3114 -0.6535
  426MOL0     C57387  11.500   8.251   7.006 -0.6473 -0.1314 -0.8688
  426MOL0     C57388  11.548   8.193   7.135 -0.2283 -0.7799 -0.1423
  426MOL0     C57389  11.570   8.041   7.125 -0.0550  0.7515  0.2234
  426MOL0     C57390  11.665   7.981   7.027 -0.1726  0.0799 -0.1661
  426MOL0     C57391  11.814   8.039   7.016  0.4918 -0.4463 -0.1068
  426MOL0     N57392  11.906   7.949   6.937  0.6257  0.3901 -0.3526
  426MOL0     C57393  11.917   7.933   6.800  0.6031  0.4971  0.4376
  426MOL0     C57394  12.047   7.892   6.786 -0.3308 -0.4923  0.6691
  426MOL0     C57395  12.113   7.871   6.653 -0.2655  0.2047 -1.1461
  426MOL0     C57396  12.061   7.735   6.612  0.4376  0.2834  0.1394
  426MOL0     C57397  12.083   7.615   6.711 -0.1178  0.0157 -0.4744
  426MOL0     C57398  12.228   7.573   6.728  0.5081  0.3076 -0.4327
  426MOL0     O57399  12.270   7.491   6.620 -0.3137 -0.0692  0.3708
  426MOL0     C57400  12.402   7.452   6.616 -0.5651  1.2901  0.6979
  426MOL0     C57401  12.431   7.324   6.580  0.0397 -0.0522 -0.3711
  426MOL0     C57402  12.560   7.272   6.585  0.0143  0.8058 -0.2837
  426MOL0     C57403  12.664   7.355   6.634 -0.0244 -0.3179 -1.3499
  426MOL0     C57404  12.801   7.295   6.636  0.4332  0.1553  0.6298
  426MOL0     O57405  12.902   7.384   6.625 -0.8167 -0.7558 -0.3748
  426MOL0     C57406  13.027   7.364   6.679 -0.6608 -0.1919 -0.4227
  426MOL0     C57407  13.073   7.247   6.751 -0.0039  0.0119  0.2669
  426MOL0     C57408  13.214   7.250   6.795 -0.3664 -0.0375  0.7440
  426MOL0     C57409  13.305   7.356   6.756 -0.2786 -0.5551 -0.9675
  426MOL0     O57410  13.438   7.369   6.781 -0.1374  0.1112  0.1588
  426MOL0     C57411  13.487   7.311   6.903 -0.4146 -0.0034 -0.1944
  426MOL0     C57412  13.534   7.172   6.872 -0.8898  0.3657  0.4370
  426MOL0     C57413  13.675   7.160   6.818  0.0364  0.1925 -0.8955
  426MOL0     C57414  13.719   7.014   6.803 -0.0402 -0.8148 -0.4655
  426MOL0     C57415  13.843   7.019   6.730 -0.7534 -0.5208  0.6678
  426MOL0     C57416  13.880   6.871   6.691  1.1765 -0.0204 -0.5948
  426MOL0     C57417  14.014   6.861   6.624  1.3440  0.3580  1.1469
  426MOL0     C57418  14.043   6.713   6.597 -0.6733 -0.9928  0.2527
  426MOL0    Cl57419  13.900   6.634   6.520  0.3218  0.0637 -0.3422
  426MOL0     C57420  13.258   7.458   6.685  0.8194 -0.3081  0.5421
  426MOL0     C57421  13.119   7.469   6.649 -0.3379  0.0153  0.4568
  426MOL0     O57422  12.808   7.172   6.634 -0.0561  0.0505 -0.4647
  426MOL0     C57423  12.642   7.482   6.682 -1.0766 -0.1790  0.3108
  426MOL0     C57424  12.512   7.530   6.661  0.0050 -0.1110  0.4539
  426MOL0     N57425  12.111   7.867   6.910 -0.1406  0.4760  0.9624
  426MOL0     N57426  12.015   7.883   6.995 -0.2738 -0.0970  0.7278
  426MOL0     C57427  11.229   8.416   6.568 -0.1555  0.4144  0.3266
  426MOL0     C57428  11.133   8.386   6.466  0.3609  0.9174 -0.2278
  426MOL0     C57429  10.741   8.235   6.311 -0.0621 -0.4625  0.1295
  426MOL0     C57430  10.730   8.127   6.214  0.5193 -0.8062 -0.2063
  426MOL0     C57431  10.610   8.099   6.153  0.3472 -0.7503 -0.6107
  426MOL0     C57432  10.487   8.161   6.196  0.6897 -0.1531 -0.4801
  426MOL0     O57433  10.376   8.130   6.126 -0.2896  0.1657 -0.1820
  426MOL0     C57434  10.254   8.116   6.203 -0.4427  0.1064 -0.3217
  426MOL0     C57435  10.148   8.048   6.118  0.7236 -1.0759 -0.5310
  426MOL0     C57436  10.157   7.898   6.104  0.1467  0.1484 -0.6603
  426MOL0     C57437  10.068   7.833   5.998  0.4038 -0.1382 -0.1824
  426MOL0     C57438   9.941   7.898   5.997  1.3785  0.6945  0.5666
  426MOL0     C57439   9.839   7.960   6.022  1.0490 -0.1745  0.7716
  426MOL0     C57440  10.501   8.266   6.287 -0.4030 -0.3909  0.3067
  426MOL0     C57441  10.620   8.303   6.347 -0.1738  0.0685 -0.2517
  426MOL0     C57442  10.598   8.414   6.440 -0.2940 -0.3769 -0.2329
  426MOL0     H57443  10.877   8.542   6.616 -0.6526 -0.0231 -1.9579
  426MOL0     H57444  11.048   8.564   6.797 -3.5458  0.0443 -0.3369
  426MOL0     H57445  11.427   8.317   6.770 -2.3245  0.6734 -0.3669
  426MOL0     H57446  11.469   8.468   6.683 -1.6777  1.4323  0.0462
  426MOL0     H57447  11.504   8.586   6.912  0.6439  0.3329  0.3869
  426MOL0     H57448  11.625   8.470   6.876  0.0565 -0.3681  0.5643
  426MOL0     H57449  11.369   8.419   7.031  0.5932  2.5297 -2.6666
  426MOL0     H57450  11.528   8.436   7.102  0.1053 -1.2775  0.0133
  426MOL0     H57451  11.401   8.213   6.979 -1.5475  0.9822  0.6485
  426MOL0     H57452  11.574   8.215   6.935 -1.4133 -3.0649 -0.2976
  426MOL0     H57453  11.640   8.244   7.165 -2.1904  1.9591  1.6464
  426MOL0     H57454  11.471   8.216   7.208  0.7204  2.8561 -0.1231
  426MOL0     H57455  11.615   8.012   7.220  2.3735  2.5468 -0.2959
  426MOL0     H57456  11.470   7.997   7.116  0.5938 -0.5619 -0.8619
  426MOL0     H57457  11.621   8.003   6.929  0.6784  1.0056 -0.3631
  426MOL0     H57458  11.686   7.876   7.047 -0.4760 -0.1285 -0.9116
  426MOL0     H57459  11.807   8.141   6.976 -0.7655 -1.1866 -1.8789
  426MOL0     H57460  11.854   8.042   7.118 -0.6089 -1.6671  0.3863
  426MOL0     H57461  11.837   7.962   6.732  1.1044 -0.7875 -0.7167
  426MOL0     H57462  12.088   7.953   6.585 -1.9776 -1.2980 -2.4307
  426MOL0     H57463  12.220   7.864   6.674 -0.7745 -0.5651  1.5808
  426MOL0     H57464  11.958   7.754   6.582 -0.1374 -2.0717  0.4863
  426MOL0     H57465  12.106   7.711   6.515  2.1026  1.8480  0.4736
  426MOL0     H57466  12.034   7.537   6.651  2.4441 -0.1084 -2.6277
  426MOL0     H57467  12.035   7.634   6.807  0.5749 -0.6617  0.0269
  426MOL0     H57468  12.225   7.534   6.830 -1.1499  0.2406 -0.4731
  426MOL0     H57469  12.276   7.669   6.746 -0.7660  0.4002  3.5341
  426MOL0     H57470  12.351   7.259   6.545 -1.1428  1.1735 -0.0210
  426MOL0     H57471  12.580   7.171   6.552  2.0522  1.3278 -0.7743
  426MOL0     H57472  13.013   7.164   6.786 -0.4577  0.3810  0.3719
  426MOL0     H57473  13.254   7.165   6.850  0.8384  1.6976  2.7540
  426MOL0     H57474  13.567   7.365   6.954 -0.0760  0.1317 -0.8586
  426MOL0     H57475  13.405   7.315   6.976 -3.1509 -0.1317 -3.0423
  426MOL0     H57476  13.530   7.124   6.970 -0.7707  1.6762  1.1047
  426MOL0     H57477  13.464   7.125   6.802  0.0959  0.0494 -0.3717
  426MOL0     H57478  13.676   7.227   6.732 -1.3741  0.8557 -0.4237
  426MOL0     H57479  13.732   7.205   6.899 -2.3335 -0.7076  1.4594
  426MOL0     H57480  13.643   6.952   6.754 -0.7697 -0.2786 -0.0368
  426MOL0     H57481  13.742   6.977   6.903  2.2604  0.7728 -0.3246
  426MOL0     H57482  13.927   7.061   6.787 -0.8642  0.1771  0.3285
  426MOL0     H57483  13.845   7.080   6.639 -0.1730 -0.1709  0.9104
  426MOL0     H57484  13.891   6.813   6.783  0.3340 -0.6189 -0.8584
  426MOL0     H57485  13.802   6.838   6.622 -0.8853 -0.9260  1.9981
  426MOL0     H57486  14.092   6.913   6.680  1.0708  2.3518 -0.1955
  426MOL0     H57487  14.001   6.926   6.537 -0.5865  0.8006  1.7317
  426MOL0     H57488  14.129   6.709   6.529 -0.6574  2.4281 -0.0801
  426MOL0     H57489  14.078   6.666   6.689  0.9164 -0.3392  0.0085
  426MOL0     H57490  13.319   7.541   6.652  1.3639 -0.1769  1.8385
  426MOL0     H57491  13.085   7.561   6.602 -0.6872 -0.0197  0.6375
  426MOL0     H57492  12.725   7.541   6.721 -0.4467 -0.8275 -0.0157
  426MOL0     H57493  12.500   7.630   6.701  1.9544  0.0346  0.7963
  426MOL0     H57494  11.329   8.393   6.533 -0.9087  1.8843 -3.1444
  426MOL0     H57495  11.167   8.335   6.376 -0.2551  1.0166 -0.5219
  426MOL0     H57496  10.819   8.068   6.193  1.3265  0.2580  0.1527
  426MOL0     H57497  10.613   8.017   6.081  0.6524 -1.4957  0.2359
  426MOL0     H57498  10.228   8.217   6.237 -2.4891 -0.1396 -1.0274
  426MOL0     H57499  10.262   8.061   6.297 -1.5177  0.7077  0.1492
  426MOL0     H57500  10.143   8.107   6.026 -1.3515  3.3950  2.1084
  426MOL0     H57501  10.052   8.070   6.166 -2.1420 -1.5707 -5.4208
  426MOL0     H57502  10.137   7.862   6.205  1.2647  1.6648  0.1530
  426MOL0     H57503  10.254   7.855   6.079  0.4709 -0.6734  1.8043
  426MOL0     H57504  10.110   7.838   5.897 -0.7659  1.3397 -0.6304
  426MOL0     H57505  10.059   7.729   6.030  0.4427  0.3753  1.6120
  426MOL0     H57506   9.741   7.995   6.048  0.8161 -0.8835  0.8943
  426MOL0     H57507  10.413   8.330   6.294 -2.2103 -2.8028  1.2027
  426MOL0     H57508  10.630   8.513   6.406 -0.6669 -0.7988 -1.9041
  426MOL0     H57509  10.494   8.414   6.472  0.0202 -3.5818  1.1668
  426MOL0     H57510  10.658   8.402   6.530 -0.0784  2.1622  0.0382
  427MOL0     O57511   1.065  10.530   2.296  0.2366 -0.4128 -0.0650
  427MOL0     C57512   1.148  10.626   2.306  0.5774  0.3655  0.8662
  427MOL0     O57513   1.275  10.633   2.253 -0.3797  0.4201  0.5386
  427MOL0     C57514   1.312  10.548   2.149 -0.2757 -0.2293  0.1938
  427MOL0     C57515   1.221  10.519   2.049  0.5890 -0.4247  0.8130
  427MOL0     C57516   1.255  10.458   1.929 -0.6038  0.0290  0.8371
  427MOL0     C57517   1.390  10.435   1.901 -0.3642  0.0453 -0.1398
  427MOL0     O57518   1.419  10.395   1.774 -1.2768  0.2107 -0.3635
  427MOL0     C57519   1.547  10.427   1.724 -0.7160  0.9353 -0.6879
  427MOL0     C57520   1.649  10.303   1.736  0.2906  0.0089 -0.6900
  427MOL0     C57521   1.616  10.195   1.645  0.1540  0.2635 -0.1333
  427MOL0     C57522   1.689  10.061   1.656  0.2199  0.1525 -0.1027
  427MOL0     C57523   1.830  10.068   1.621  0.1515  0.3201  0.1922
  427MOL0     C57524   1.863  10.098   1.465 -0.5838  0.8610 -0.3957
  427MOL0     C57525   2.012  10.119   1.464  0.9575 -0.1759 -0.1553
  427MOL0     C57526   2.088   9.979   1.467 -0.4355 -0.1243 -0.3405
  427MOL0     N57527   2.236  10.004   1.451 -0.1765  1.1787 -0.6231
  427MOL0     C57528   2.331   9.908   1.420  0.5944  0.9946  0.5896
  427MOL0     C57529   2.447   9.977   1.422  0.4920  0.9623 -0.0218
  427MOL0     C57530   2.585   9.920   1.390  0.8573  0.0244 -0.2508
  427MOL0     C57531   2.639   9.849   1.512 -0.2777 -0.6995  0.2337
  427MOL0     C57532   2.744   9.753   1.463 -0.0094 -0.6132  0.6899
  427MOL0     C57533   2.816   9.695   1.590 -0.2206  0.3944 -0.6804
  427MOL0     O57534   2.867   9.568   1.567  0.6408  0.6959  0.5426
  427MOL0     C57535   3.002   9.560   1.533  0.4022  0.9811  0.2711
  427MOL0     C57536   3.085   9.663   1.493  0.2181 -0.8040 -0.4682
  427MOL0     C57537   3.224   9.648   1.469 -1.0451  0.3614  0.7165
  427MOL0     C57538   3.280   9.523   1.462 -0.1830  0.0773 -0.0917
  427MOL0     C57539   3.420   9.500   1.412  0.0851 -0.6152  0.2266
  427MOL0     O57540   3.500   9.601   1.371  0.4789  0.0970 -0.3397
  427MOL0     C57541   3.636   9.584   1.357 -0.3179 -0.1151 -0.5299
  427MOL0     C57542   3.690   9.700   1.303  0.0972 -0.5711 -0.2693
  427MOL0     C57543   3.817   9.709   1.268 -0.5315  0.3372 -0.1832
  427MOL0     C57544   3.904   9.606   1.285 -0.4909 -1.2071 -0.3540
  427MOL0     O57545   4.029   9.629   1.241  0.8345 -0.2208  0.5473
  427MOL0     C57546   4.101   9.518   1.201  0.3998  0.4036 -0.0010
  427MOL0     C57547   4.063   9.459   1.064  0.4285 -0.2959 -0.7120
  427MOL0     C57548   4.058   9.565   0.950 -0.4954  0.0019 -0.0082
  427MOL0     C57549   4.194   9.628   0.922  0.0395  0.0799 -0.5295
  427MOL0     C57550   4.180   9.760   0.852  0.1328 -0.2252  0.4434
  427MOL0     C57551   4.319   9.811   0.831 -0.0264  0.6595  0.1257
  427MOL0     C57552   4.305   9.959   0.794 -0.3883  0.1476  0.1988
  427MOL0     C57553   4.310  10.046   0.915  0.8108  1.0854 -1.0566
  427MOL0    Cl57554   4.284  10.216   0.865  0.4648 -0.5935 -0.4022
  427MOL0     C57555   3.860   9.493   1.354  0.0276 -0.1149 -0.6504
  427MOL0     C57556   3.724   9.480   1.391 -0.0677  0.7236  0.3292
  427MOL0     O57557   3.456   9.382   1.425  0.2071 -0.0468 -0.0041
  427MOL0     C57558   3.189   9.411   1.479 -1.1209 -0.4603 -0.2515
  427MOL0     C57559   3.057   9.429   1.532 -0.5202  0.4605  0.9131
  427MOL0     N57560   2.427  10.107   1.469  0.1545  0.9695 -0.2382
  427MOL0     N57561   2.299  10.120   1.481 -0.3231 -0.2314 -1.0116
  427MOL0     C57562   1.484  10.472   2.000  0.7718  0.1491 -0.5039
  427MOL0     C57563   1.445  10.527   2.121  0.0649  0.1802 -0.1533
  427MOL0     C57564   1.115  10.740   2.401  0.2547  0.2777 -0.7810
  427MOL0     C57565   1.211  10.827   2.428  0.5609 -0.0529 -0.8042
  427MOL0     C57566   1.189  10.943   2.499 -0.0769 -0.0271 -0.0090
  427MOL0     C57567   1.062  10.969   2.566 -0.0534 -0.3473  0.2655
  427MOL0     O57568   1.046  11.076   2.653 -0.2407  0.3843  0.1599
  427MOL0     C57569   0.918  11.085   2.726  0.0194 -0.6188 -0.1209
  427MOL0     C57570   0.812  11.163   2.639 -0.2785 -0.0652 -0.4546
  427MOL0     C57571   0.871  11.299   2.583  0.5981 -1.0787  0.6543
  427MOL0     C57572   0.770  11.421   2.587 -0.1098  0.2309 -0.6551
  427MOL0     C57573   0.668  11.388   2.497  1.0013 -0.5174 -0.3247
  427MOL0     C57574   0.579  11.371   2.417 -0.3097  1.3097 -0.2867
  427MOL0     C57575   0.964  10.876   2.538  0.6103  1.1959  0.9921
  427MOL0     C57576   0.985  10.765   2.454 -0.0885 -1.4340  0.0471
  427MOL0     C57577   0.859  10.692   2.412  0.5978 -0.0244 -0.1308
  427MOL0     H57578   1.117  10.549   2.051  0.3936 -1.0896  2.0570
  427MOL0     H57579   1.172  10.452   1.859 -0.8115 -0.5006  1.1193
  427MOL0     H57580   1.526  10.451   1.619 -0.6603  3.1052 -0.2583
  427MOL0     H57581   1.597  10.512   1.771 -0.7967  1.1600 -1.0029
  427MOL0     H57582   1.629  10.272   1.839 -1.7609 -2.4966 -1.7517
  427MOL0     H57583   1.754  10.330   1.721 -0.2681  1.3123 -2.5814
  427MOL0     H57584   1.612  10.236   1.544 -2.8677 -2.5136 -1.2979
  427MOL0     H57585   1.510  10.183   1.670 -0.5639  0.6447 -2.7616
  427MOL0     H57586   1.668  10.022   1.756  0.4171  0.7695  0.1833
  427MOL0     H57587   1.650   9.993   1.580  1.0784 -1.3445  0.7517
  427MOL0     H57588   1.874  10.145   1.686  0.8966 -0.5685  0.7715
  427MOL0     H57589   1.861   9.965   1.640 -1.4523 -0.4045 -0.9343
  427MOL0     H57590   1.839  10.007   1.410 -1.4883 -0.6854  2.3457
  427MOL0     H57591   1.823  10.193   1.430  2.7384  1.6504 -2.5251
  427MOL0     H57592   2.038  10.180   1.551 -1.3435  0.8984 -0.1400
  427MOL0     H57593   2.028  10.176   1.372 -0.8339  0.7262  0.0560
  427MOL0     H57594   2.072   9.932   1.565 -1.0500  0.1677 -0.3017
  427MOL0     H57595   2.045   9.920   1.387 -1.1765 -0.0272 -0.0185
  427MOL0     H57596   2.302   9.805   1.403 -1.5507  1.6543 -0.0317
  427MOL0     H57597   2.562   9.849   1.310 -1.5008 -0.8745  1.1280
  427MOL0     H57598   2.645  10.008   1.362 -1.1106  1.7560  0.6639
  427MOL0     H57599   2.674   9.917   1.591 -1.0238 -1.1807  0.9959
  427MOL0     H57600   2.561   9.794   1.567 -1.0522 -1.1922 -1.3162
  427MOL0     H57601   2.820   9.802   1.401 -1.0543  0.5874  0.3208
  427MOL0     H57602   2.695   9.680   1.398 -1.7126  3.1589 -2.6938
  427MOL0     H57603   2.743   9.689   1.672  1.3201 -0.6690  0.6697
  427MOL0     H57604   2.885   9.775   1.619  1.3531 -1.3475  0.6474
  427MOL0     H57605   3.052   9.766   1.497  0.6895 -0.6196 -1.1212
  427MOL0     H57606   3.288   9.731   1.438 -0.6032 -0.2828 -0.1419
  427MOL0     H57607   3.623   9.783   1.283  1.0823  0.3937  0.2895
  427MOL0     H57608   3.854   9.796   1.214 -1.1800  0.1008 -1.0392
  427MOL0     H57609   4.207   9.544   1.192  1.0404 -1.9541  0.1018
  427MOL0     H57610   4.103   9.448   1.285  1.8954  0.6749  0.2208
  427MOL0     H57611   4.143   9.388   1.042  2.6184  1.5769  0.8036
  427MOL0     H57612   3.965   9.410   1.070  0.3572 -0.0366  0.5111
  427MOL0     H57613   4.019   9.533   0.853  1.6571 -0.0137 -0.9227
  427MOL0     H57614   3.985   9.644   0.971 -0.0941  1.0384 -2.1721
  427MOL0     H57615   4.246   9.558   0.857 -0.0906 -1.0700  0.5784
  427MOL0     H57616   4.252   9.646   1.013  1.2393  1.5794 -1.5315
  427MOL0     H57617   4.124   9.825   0.920 -0.1199 -2.6718  2.7324
  427MOL0     H57618   4.121   9.755   0.760  1.2631  0.0199 -0.3072
  427MOL0     H57619   4.381   9.803   0.920 -1.3384 -1.1629  0.9305
  427MOL0     H57620   4.379   9.759   0.755  2.0721 -0.3507  2.3445
  427MOL0     H57621   4.207   9.970   0.745 -0.5860 -0.4350  0.4599
  427MOL0     H57622   4.380   9.990   0.721 -0.5060  1.3817  0.5802
  427MOL0     H57623   4.240  10.006   0.989  4.1583 -4.7005 -0.4259
  427MOL0     H57624   4.413  10.039   0.951 -0.6581 -0.0430  3.6170
  427MOL0     H57625   3.932   9.417   1.384 -4.6940 -3.4697  3.9081
  427MOL0     H57626   3.682   9.393   1.439 -2.5993  2.0786  0.7404
  427MOL0     H57627   3.234   9.313   1.460 -1.6136 -0.7143 -0.1231
  427MOL0     H57628   2.997   9.342   1.557  0.9034 -1.3823 -1.5840
  427MOL0     H57629   1.590  10.451   1.991  0.6440  0.1908 -2.3678
  427MOL0     H57630   1.524  10.554   2.190  0.2001  1.7939 -0.9062
  427MOL0     H57631   1.310  10.821   2.385  0.2499  2.5912 -2.1686
  427MOL0     H57632   1.280  10.999   2.517 -0.3212  0.6356 -0.7381
  427MOL0     H57633   0.945  11.130   2.822  1.3889  2.2424 -1.7028
  427MOL0     H57634   0.871  10.994   2.764 -1.8530  1.1344  2.1244
  427MOL0     H57635   0.731  11.173   2.712  0.1674 -0.2490  0.0697
  427MOL0     H57636   0.779  11.094   2.561 -1.2237  0.1644 -0.2732
  427MOL0     H57637   0.915  11.296   2.483  1.7015 -3.2789  1.1468
  427MOL0     H57638   0.958  11.316   2.647  0.8180 -0.1076  0.1162
  427MOL0     H57639   0.729  11.436   2.687 -0.0669  1.8226 -0.8488
  427MOL0     H57640   0.818  11.517   2.563 -1.4466  1.4500  1.2619
  427MOL0     H57641   0.491  11.376   2.356 -1.9140  3.2927  2.0131
  427MOL0     H57642   0.863  10.884   2.576 -0.3079 -2.3633 -0.3614
  427MOL0     H57643   0.853  10.594   2.460  2.0892 -1.9254 -3.4975
  427MOL0     H57644   0.770  10.754   2.429 -0.1296 -0.5640 -1.8004
  427MOL0     H57645   0.863  10.673   2.305  2.1946 -1.4367  0.1447
  428MOL0     O57646   9.304   2.066   4.032  0.0160  0.2946  0.4510
  428MOL0     C57647   9.369   2.030   4.130  0.5528  0.3276  0.1578
  428MOL0     O57648   9.317   1.955   4.229 -0.9320  0.0942  0.9437
  428MOL0     C57649   9.228   1.854   4.206  0.1776  0.4467  0.1877
  428MOL0     C57650   9.224   1.780   4.085  0.1267  0.2129  0.6927
  428MOL0     C57651   9.136   1.667   4.065 -0.4103  0.5784 -0.8134
  428MOL0     C57652   9.047   1.621   4.167  0.6411 -0.5568  1.1226
  428MOL0     O57653   8.953   1.519   4.138 -0.1778  0.2907 -0.0166
  428MOL0     C57654   8.827   1.531   4.200 -0.4131  0.5997 -0.0782
  428MOL0     C57655   8.736   1.644   4.157 -0.4396  0.3363  0.3451
  428MOL0     C57656   8.719   1.662   4.008  0.2226  1.1092 -0.4368
  428MOL0     C57657   8.660   1.798   3.973  0.0073  0.1800 -0.2439
  428MOL0     C57658   8.503   1.780   3.992  0.3670 -0.4879  0.7838
  428MOL0     C57659   8.408   1.881   3.913 -0.4830  0.2776 -0.2999
  428MOL0     C57660   8.368   2.011   3.988 -0.1981  0.1103 -0.0970
  428MOL0     C57661   8.488   2.116   4.001 -0.2259 -0.2275  0.7344
  428MOL0     N57662   8.465   2.248   4.057 -0.8357 -0.2459 -0.8569
  428MOL0     C57663   8.523   2.293   4.173  0.0323 -0.4831 -0.1718
  428MOL0     C57664   8.473   2.416   4.200  0.1365 -0.1293  0.2987
  428MOL0     C57665   8.508   2.511   4.307 -0.4376 -0.0241 -0.5125
  428MOL0     C57666   8.416   2.491   4.424  0.9736  0.2976  0.1843
  428MOL0     C57667   8.297   2.582   4.423 -0.1648 -0.0125 -0.5547
  428MOL0     C57668   8.238   2.582   4.565 -1.0835  0.1385 -0.7871
  428MOL0     O57669   8.116   2.651   4.570 -0.1943  0.0529  0.7076
  428MOL0     C57670   8.123   2.785   4.617  0.8320 -0.0772  0.3308
  428MOL0     C57671   8.005   2.844   4.676  0.3186  0.7361  0.0655
  428MOL0     C57672   7.999   2.974   4.716 -0.1707  0.2267  0.5993
  428MOL0     C57673   8.113   3.052   4.706  0.9445 -1.4103 -0.9909
  428MOL0     C57674   8.118   3.188   4.764 -0.0602 -0.0997 -0.8814
  428MOL0     O57675   8.218   3.265   4.721 -0.5738 -0.4160  0.3926
  428MOL0     C57676   8.238   3.385   4.781  0.0046  0.0754  0.1189
  428MOL0     C57677   8.276   3.400   4.917  0.6654  0.0691  0.4905
  428MOL0     C57678   8.322   3.525   4.950  0.7891  0.0175 -0.9134
  428MOL0     C57679   8.303   3.641   4.873  0.0414 -0.2333  0.0244
  428MOL0     O57680   8.328   3.765   4.920 -0.3571 -0.4412 -0.2159
  428MOL0     C57681   8.327   3.791   5.066  0.0330  0.2797  0.0336
  428MOL0     C57682   8.324   3.938   5.095 -0.8298 -0.7949  0.7341
  428MOL0     C57683   8.202   4.009   5.060 -0.6139 -0.5015  0.3412
  428MOL0     C57684   8.185   4.159   5.102 -0.6259  0.2927 -0.5594
  428MOL0     C57685   8.271   4.250   5.021 -0.1798 -1.2600 -0.3817
  428MOL0     C57686   8.214   4.311   4.896  0.2449  0.0810  0.6960
  428MOL0     C57687   8.273   4.438   4.846 -0.0452 -0.1303  0.1909
  428MOL0     C57688   8.222   4.471   4.700  0.3647 -0.6429 -0.5980
  428MOL0    Cl57689   8.291   4.624   4.635  0.3750  0.3936 -0.5123
  428MOL0     C57690   8.258   3.620   4.745 -0.0325  0.1016  0.2149
  428MOL0     C57691   8.244   3.490   4.698  0.8459 -0.9631  0.4420
  428MOL0     O57692   8.038   3.214   4.856 -0.2935 -0.7755 -0.1709
  428MOL0     C57693   8.234   3.001   4.657  0.2800  0.3024  0.3633
  428MOL0     C57694   8.231   2.871   4.612 -0.1401 -0.5368 -0.9459
  428MOL0     N57695   8.389   2.448   4.092 -0.1562 -0.6789 -0.3677
  428MOL0     N57696   8.384   2.349   4.008 -0.5341  0.3423  0.0446
  428MOL0     C57697   9.060   1.681   4.289  0.4054 -0.1108  0.2080
  428MOL0     C57698   9.150   1.793   4.307  0.4563 -0.1468 -0.0604
  428MOL0     C57699   9.511   2.076   4.151 -0.2677 -0.3495 -0.3805
  428MOL0     C57700   9.562   2.105   4.280  0.0270  0.1129 -0.4359
  428MOL0     C57701   9.687   2.157   4.296 -0.6726  0.2968  0.0322
  428MOL0     C57702   9.761   2.192   4.185  0.2192 -0.3056 -0.4414
  428MOL0     O57703   9.894   2.240   4.203  0.5806  0.3745 -0.1914
  428MOL0     C57704   9.972   2.179   4.312  0.2020  0.7094  0.0315
  428MOL0     C57705  10.000   2.021   4.294  0.8769  1.0398 -0.2466
  428MOL0     C57706  10.100   1.991   4.185 -0.3988 -0.6244 -0.3506
  428MOL0     C57707  10.220   1.913   4.232 -0.1773  0.1964 -0.2259
  428MOL0     C57708  10.270   1.971   4.350  0.2001  0.6338 -0.7671
  428MOL0     C57709  10.318   2.036   4.444 -0.3560 -0.2798  0.2832
  428MOL0     C57710   9.720   2.159   4.056  0.0202  0.0275 -0.1245
  428MOL0     C57711   9.594   2.102   4.038 -0.0688  0.2253  0.5394
  428MOL0     C57712   9.568   2.046   3.904  0.9906  0.3285 -0.2285
  428MOL0     H57713   9.286   1.816   4.004 -0.5467 -2.0619 -0.9181
  428MOL0     H57714   9.141   1.631   3.963  3.1880 -2.4963  0.2490
  428MOL0     H57715   8.770   1.439   4.185  0.5036 -0.4015  2.1302
  428MOL0     H57716   8.841   1.532   4.309 -0.4830 -0.8294 -0.0448
  428MOL0     H57717   8.783   1.741   4.175  1.7865 -0.0677 -2.5049
  428MOL0     H57718   8.645   1.639   4.217 -1.1132  2.7536 -0.3640
  428MOL0     H57719   8.657   1.585   3.962 -0.7439  2.3368 -1.2675
  428MOL0     H57720   8.816   1.661   3.956 -1.1342 -1.9259 -3.2551
  428MOL0     H57721   8.700   1.887   4.023 -2.8123  1.5786 -0.2650
  428MOL0     H57722   8.673   1.811   3.866 -3.2313 -1.7621 -0.9954
  428MOL0     H57723   8.475   1.680   3.958  2.1923 -1.6792  2.5536
  428MOL0     H57724   8.465   1.774   4.095  0.1968 -1.0814  0.6920
  428MOL0     H57725   8.459   1.907   3.820  0.6477  0.2028  0.2810
  428MOL0     H57726   8.321   1.819   3.891  0.0502 -0.4733 -0.3150
  428MOL0     H57727   8.334   1.983   4.088 -2.8038  2.3329 -0.2399
  428MOL0     H57728   8.279   2.051   3.938 -0.2336  0.4902  0.2662
  428MOL0     H57729   8.562   2.075   4.070 -0.6958 -0.7151  0.9534
  428MOL0     H57730   8.530   2.135   3.902  0.3490 -0.5701  0.9100
  428MOL0     H57731   8.595   2.243   4.237  0.0970 -3.4135 -2.3276
  428MOL0     H57732   8.609   2.487   4.343  0.6166  2.7610 -1.3798
  428MOL0     H57733   8.503   2.618   4.285  1.8585  0.0411 -1.0047
  428MOL0     H57734   8.380   2.388   4.419 -1.3476  1.1169 -2.2990
  428MOL0     H57735   8.471   2.495   4.518  3.8013  0.9579 -1.3671
  428MOL0     H57736   8.229   2.543   4.347  0.7772 -0.5673 -1.1328
  428MOL0     H57737   8.321   2.684   4.391 -0.1451  1.0702  2.5142
  428MOL0     H57738   8.314   2.621   4.634 -1.5424  1.2802 -0.8999
  428MOL0     H57739   8.220   2.479   4.598 -0.1486 -0.0366 -0.8194
  428MOL0     H57740   7.917   2.781   4.683 -0.8873  2.3672  0.3568
  428MOL0     H57741   7.910   3.007   4.768 -2.4297  0.0783 -2.8651
  428MOL0     H57742   8.289   3.313   4.981  3.1767  1.1315  1.5682
  428MOL0     H57743   8.361   3.525   5.052 -1.0810 -3.6502 -0.0197
  428MOL0     H57744   8.236   3.747   5.108  1.8696 -0.5487  3.5512
  428MOL0     H57745   8.421   3.750   5.104  0.7872  3.5712  2.1255
  428MOL0     H57746   8.346   3.955   5.201 -0.6560 -2.1189  0.9201
  428MOL0     H57747   8.405   3.970   5.028 -2.9759  0.4501 -1.4267
  428MOL0     H57748   8.195   4.002   4.951  1.5620  3.3553 -0.2343
  428MOL0     H57749   8.121   3.951   5.105  0.1638 -0.8672  1.3182
  428MOL0     H57750   8.200   4.164   5.211  0.2526 -3.1370 -0.3917
  428MOL0     H57751   8.081   4.190   5.092 -0.2125  1.6214 -0.8612
  428MOL0     H57752   8.359   4.188   5.001  1.0594  0.7332 -1.3305
  428MOL0     H57753   8.309   4.338   5.073 -0.5850 -0.2200 -1.7829
  428MOL0     H57754   8.225   4.238   4.815  1.3027  0.9499  0.0384
  428MOL0     H57755   8.107   4.327   4.910  0.1489  0.2159 -0.1366
  428MOL0     H57756   8.382   4.433   4.850 -0.0639 -1.8635 -0.5424
  428MOL0     H57757   8.236   4.511   4.919 -2.7655 -1.4606  0.2968
  428MOL0     H57758   8.236   4.381   4.639  0.1623 -0.9537 -0.1881
  428MOL0     H57759   8.114   4.475   4.714  0.5879 -1.5168  1.7695
  428MOL0     H57760   8.217   3.711   4.701 -2.7713 -0.4189  1.5041
  428MOL0     H57761   8.192   3.488   4.603 -0.9993 -2.1746  1.4159
  428MOL0     H57762   8.316   3.069   4.636 -0.7555  0.9749 -1.7962
  428MOL0     H57763   8.325   2.848   4.562 -0.3414  0.6332 -1.9235
  428MOL0     H57764   9.012   1.636   4.375  2.5755  0.4632  1.7821
  428MOL0     H57765   9.165   1.839   4.404  0.0253  1.7904 -0.8656
  428MOL0     H57766   9.493   2.091   4.362 -2.0274  1.0544 -1.9051
  428MOL0     H57767   9.714   2.185   4.398  0.4368 -1.1255  0.1511
  428MOL0     H57768   9.913   2.194   4.403  1.1283 -1.9970  1.1986
  428MOL0     H57769  10.071   2.223   4.328  1.3987 -0.7806 -2.6342
  428MOL0     H57770   9.907   1.975   4.261  0.9189  1.4351 -0.9236
  428MOL0     H57771  10.034   1.975   4.388 -1.6629 -0.5181  0.0063
  428MOL0     H57772  10.126   2.078   4.125  0.0563 -1.2176 -1.0324
  428MOL0     H57773  10.046   1.928   4.114 -2.3445  0.2130  0.3044
  428MOL0     H57774  10.199   1.810   4.260 -1.3578  1.3420  3.9043
  428MOL0     H57775  10.296   1.916   4.153  1.2675 -0.2331  1.0997
  428MOL0     H57776  10.348   2.079   4.537  0.3841 -2.9200  1.3463
  428MOL0     H57777   9.807   2.166   3.992  3.3919 -0.0135  3.9821
  428MOL0     H57778   9.644   2.073   3.831  0.6720  1.1063 -0.2832
  428MOL0     H57779   9.550   1.938   3.912 -2.9475  0.7478 -0.9909
  428MOL0     H57780   9.474   2.089   3.869 -0.8111 -2.1480  1.1812
  429MOL0     O57781  10.650   7.610   5.142 -0.2937 -0.1746  0.8021
  429MOL0     C57782  10.604   7.566   5.242  0.0837 -0.4221 -0.2124
  429MOL0     O57783  10.502   7.621   5.318  0.5164 -0.0034  0.2561
  429MOL0     C57784  10.403   7.706   5.262  0.3963  0.7188  0.3820
  429MOL0     C57785  10.313   7.753   5.356  0.1758  0.1703  0.0695
  429MOL0     C57786  10.199   7.813   5.318 -0.0793  0.1153  0.0401
  429MOL0     C57787  10.162   7.819   5.184 -0.3129  0.1399 -0.6586
  429MOL0     O57788  10.041   7.881   5.157 -0.7061 -0.2820  0.6725
  429MOL0     C57789   9.928   7.830   5.217  0.4042  0.0762  0.1165
  429MOL0     C57790   9.806   7.808   5.126  0.0581  0.6835 -0.5329
  429MOL0     C57791   9.846   7.701   5.017 -0.0473 -0.5229 -0.4870
  429MOL0     C57792   9.778   7.747   4.882 -0.5597  0.5551 -0.1647
  429MOL0     C57793   9.742   7.614   4.808 -0.7312  0.3174  0.6297
  429MOL0     C57794   9.673   7.663   4.686  0.8307  0.1479  0.4519
  429MOL0     C57795   9.616   7.551   4.604 -0.6874 -0.7857  0.3190
  429MOL0     C57796   9.483   7.483   4.662  0.6545 -0.1374  0.3343
  429MOL0     N57797   9.456   7.350   4.598 -0.1343 -0.1627 -0.1049
  429MOL0     C57798   9.496   7.218   4.642  0.1822 -0.3051 -0.8638
  429MOL0     C57799   9.436   7.130   4.546 -0.1893  0.0003  0.0211
  429MOL0     C57800   9.451   6.981   4.539 -0.4728  0.5875  0.4736
  429MOL0     C57801   9.326   6.903   4.572  0.8638  0.6746 -0.0548
  429MOL0     C57802   9.274   6.889   4.714  1.1485  0.1309 -0.5245
  429MOL0     C57803   9.144   6.806   4.718 -0.2161  0.1703 -0.0387
  429MOL0     O57804   9.123   6.767   4.851  0.7074  0.5409 -0.3388
  429MOL0     C57805   9.085   6.859   4.944 -0.5192 -0.7177  0.7056
  429MOL0     C57806   9.094   6.818   5.075  0.2061  0.6799  1.1138
  429MOL0     C57807   9.063   6.898   5.183 -0.0412 -0.7889 -0.2892
  429MOL0     C57808   8.990   7.026   5.167 -0.2046 -0.2532 -0.1312
  429MOL0     C57809   8.926   7.084   5.281 -0.3224  0.0708 -0.9074
  429MOL0     O57810   8.979   7.044   5.400  0.5071  0.0415 -0.6974
  429MOL0     C57811   8.914   7.078   5.515  0.6708  0.6029  0.1991
  429MOL0     C57812   8.869   6.989   5.602 -0.2322  0.6509  0.4505
  429MOL0     C57813   8.808   7.030   5.722 -0.5770  0.7047  0.1989
  429MOL0     C57814   8.775   7.165   5.744 -0.4585 -0.7349 -0.0520
  429MOL0     O57815   8.718   7.229   5.851 -0.1488  0.7544  1.2190
  429MOL0     C57816   8.689   7.144   5.964  0.3725  0.4970 -0.2900
  429MOL0     C57817   8.647   7.236   6.083 -0.1734  0.6417  0.1679
  429MOL0     C57818   8.497   7.254   6.103 -0.7606  0.3904  0.5133
  429MOL0     C57819   8.468   7.376   6.192  0.0940 -0.3641  0.0845
  429MOL0     C57820   8.512   7.360   6.334 -0.3207 -0.3066 -0.2216
  429MOL0     C57821   8.473   7.483   6.419  0.1522  1.0822 -0.6510
  429MOL0     C57822   8.328   7.462   6.489 -0.2374  0.2474  0.7992
  429MOL0     C57823   8.306   7.587   6.583  0.5048 -0.2278  0.0604
  429MOL0    Cl57824   8.164   7.574   6.686  0.3345 -0.3449 -0.0888
  429MOL0     C57825   8.817   7.252   5.651 -0.4730  0.9519 -0.6430
  429MOL0     C57826   8.881   7.209   5.538 -0.5394  0.7768  0.2169
  429MOL0     O57827   8.825   7.151   5.266 -1.0226  0.1080  0.7666
  429MOL0     C57828   8.968   7.061   5.028 -1.2084  0.3461  0.2274
  429MOL0     C57829   9.020   6.983   4.926  0.3135  0.4420  0.5327
  429MOL0     N57830   9.379   7.210   4.451 -0.1334 -0.8136  0.0140
  429MOL0     N57831   9.385   7.335   4.485  0.4158 -0.3778 -0.8365
  429MOL0     C57832  10.250   7.765   5.086  0.3462 -0.1725 -0.2632
  429MOL0     C57833  10.374   7.721   5.128  0.5611 -0.2143  0.4255
  429MOL0     C57834  10.681   7.462   5.319 -0.2813 -0.6191  1.1860
  429MOL0     C57835  10.659   7.461   5.456 -0.1208  0.6798 -0.7043
  429MOL0     C57836  10.722   7.367   5.536  0.7670  0.5099  0.0296
  429MOL0     C57837  10.814   7.273   5.486  0.1214  0.2263 -0.0206
  429MOL0     O57838  10.897   7.175   5.547 -0.1680 -0.0893  0.7349
  429MOL0     C57839  10.922   7.186   5.693  1.0056 -0.0310  0.5387
  429MOL0     C57840  10.797   7.153   5.781 -0.7599 -0.2151  0.2877
  429MOL0     C57841  10.803   7.010   5.830  0.0233  0.5377 -0.3559
  429MOL0     C57842  10.772   6.912   5.715  0.2322  0.1679  0.1514
  429MOL0     C57843  10.766   6.776   5.760  0.4400  1.1397  0.2391
  429MOL0     C57844  10.753   6.667   5.807  0.2281 -0.2290  0.4360
  429MOL0     C57845  10.833   7.267   5.349  1.2111  0.8638  0.5668
  429MOL0     C57846  10.763   7.356   5.268 -0.5505  1.4014  0.6185
  429MOL0     C57847  10.780   7.346   5.116 -0.4913 -0.3968 -0.4878
  429MOL0     H57848  10.327   7.720   5.458 -1.5041 -0.1941  0.2171
  429MOL0     H57849  10.143   7.857   5.400  0.4325  0.3271  0.2806
  429MOL0     H57850   9.942   7.725   5.245 -0.7104  0.2631  1.5080
  429MOL0     H57851   9.908   7.889   5.307 -1.0844 -1.5366  0.9123
  429MOL0     H57852   9.783   7.905   5.079  3.7157  0.9954 -2.0415
  429MOL0     H57853   9.719   7.771   5.180 -0.6188  0.1300 -1.9558
  429MOL0     H57854   9.813   7.598   5.035  1.9407 -2.0016 -4.0842
  429MOL0     H57855   9.956   7.696   5.012  0.0715  1.2601 -0.2592
  429MOL0     H57856   9.687   7.807   4.896 -0.3491  0.9545 -0.4937
  429MOL0     H57857   9.856   7.799   4.827  2.6690 -4.2148 -0.6614
  429MOL0     H57858   9.827   7.549   4.789 -0.5063  0.4130  1.2967
  429MOL0     H57859   9.675   7.555   4.872 -1.1690 -1.0720 -1.0565
  429MOL0     H57860   9.582   7.719   4.710  0.5467  1.1618 -2.5087
  429MOL0     H57861   9.743   7.734   4.639  1.6249  0.2492  1.7185
  429MOL0     H57862   9.687   7.468   4.595  0.3326 -0.2405  2.5943
  429MOL0     H57863   9.594   7.586   4.503  0.6896 -0.4749  0.1003
  429MOL0     H57864   9.485   7.484   4.772  0.5418  1.5611  0.3534
  429MOL0     H57865   9.394   7.546   4.653 -1.0636 -1.6030  4.4890
  429MOL0     H57866   9.562   7.194   4.725  0.3897  2.1817 -0.2184
  429MOL0     H57867   9.488   6.947   4.442 -1.4842 -1.3928  0.7214
  429MOL0     H57868   9.526   6.949   4.611  0.1844 -0.0342 -0.4658
  429MOL0     H57869   9.239   6.931   4.511 -0.7650 -2.9174  0.3318
  429MOL0     H57870   9.344   6.801   4.537  0.9829  1.0025 -0.9906
  429MOL0     H57871   9.258   6.994   4.739  0.7236  0.5734 -2.5020
  429MOL0     H57872   9.345   6.838   4.781 -1.4261  0.0743  2.3780
  429MOL0     H57873   9.151   6.713   4.660 -3.2840 -0.1918  0.0083
  429MOL0     H57874   9.056   6.857   4.679  0.4376  1.1594 -0.2602
  429MOL0     H57875   9.148   6.725   5.086  3.1117  2.1234  0.3393
  429MOL0     H57876   9.086   6.845   5.276 -0.9534  0.4789  0.6917
  429MOL0     H57877   8.881   6.882   5.593  0.4829  0.7550  0.1170
  429MOL0     H57878   8.781   6.945   5.784  1.8661 -1.3252 -1.3219
  429MOL0     H57879   8.600   7.089   5.931  2.3553 -1.7053 -2.3547
  429MOL0     H57880   8.773   7.082   5.998  1.5294  2.4997  0.6679
  429MOL0     H57881   8.692   7.209   6.179 -0.6519 -0.8065  0.0057
  429MOL0     H57882   8.689   7.336   6.069  4.7894 -1.4591 -2.2731
  429MOL0     H57883   8.448   7.263   6.006  0.1688 -1.4789 -0.1800
  429MOL0     H57884   8.457   7.157   6.134  1.4730 -1.4345 -1.9227
  429MOL0     H57885   8.360   7.385   6.181  0.2865 -0.3940 -2.4820
  429MOL0     H57886   8.508   7.464   6.141 -0.9525  0.4595  0.6314
  429MOL0     H57887   8.620   7.348   6.330 -0.4606 -1.8428 -0.1261
  429MOL0     H57888   8.475   7.268   6.379 -1.9365  2.2335  4.3008
  429MOL0     H57889   8.540   7.487   6.506 -1.4992 -3.7565  1.2006
  429MOL0     H57890   8.467   7.576   6.363 -1.2607  0.9811 -0.6848
  429MOL0     H57891   8.313   7.365   6.538 -1.4410  0.3743  0.6896
  429MOL0     H57892   8.251   7.472   6.412  0.7476  0.7345 -0.1511
  429MOL0     H57893   8.396   7.607   6.641  1.1836 -2.3240 -0.1708
  429MOL0     H57894   8.295   7.677   6.522  1.9219  1.5208  2.2299
  429MOL0     H57895   8.785   7.355   5.663 -1.9186  0.1893  3.7066
  429MOL0     H57896   8.914   7.287   5.470  0.9869  3.0323  3.3052
  429MOL0     H57897   8.917   7.156   5.014  0.6330  1.6074  1.5665
  429MOL0     H57898   9.004   7.004   4.821  2.9996 -0.5593 -0.1796
  429MOL0     H57899  10.217   7.761   4.983  0.5756 -1.6132 -0.3006
  429MOL0     H57900  10.439   7.683   5.050  0.1431 -0.2237  0.0799
  429MOL0     H57901  10.601   7.532   5.516 -0.3842 -0.1327  0.0242
  429MOL0     H57902  10.698   7.362   5.642 -0.7526 -0.7753 -0.3295
  429MOL0     H57903  10.950   7.291   5.701  0.0263  0.6045 -2.7924
  429MOL0     H57904  11.008   7.123   5.718  0.6953  0.2414  2.4351
  429MOL0     H57905  10.708   7.169   5.720  0.1184 -0.0658 -0.9827
  429MOL0     H57906  10.805   7.220   5.867  1.1480 -1.5019  1.2057
  429MOL0     H57907  10.723   6.999   5.904  4.0850 -3.2950  4.1653
  429MOL0     H57908  10.899   6.986   5.878 -0.0780 -0.5137 -0.6626
  429MOL0     H57909  10.679   6.935   5.662 -0.0984  1.5825  1.3037
  429MOL0     H57910  10.843   6.921   5.633 -1.7204  1.3876 -1.4994
  429MOL0     H57911  10.754   6.574   5.859  1.1724 -2.2100 -2.8023
  429MOL0     H57912  10.897   7.194   5.301 -0.8802 -2.1344  2.0929
  429MOL0     H57913  10.842   7.427   5.078 -1.8568  1.6081  1.3166
  429MOL0     H57914  10.827   7.251   5.088 -0.6375 -0.1956 -1.4437
  429MOL0     H57915  10.681   7.346   5.069 -0.1696 -0.7139 -1.1811
  430MOL0     O57916   2.763   3.382   2.620 -0.3220 -0.0279  0.3909
  430MOL0     C57917   2.708   3.276   2.658  0.2644 -0.6685 -0.3585
  430MOL0     O57918   2.778   3.161   2.684 -0.5770  0.2794  0.1348
  430MOL0     C57919   2.923   3.149   2.661  0.4457 -1.0025 -0.4240
  430MOL0     C57920   2.961   3.026   2.630 -0.1854 -0.3883  0.0289
  430MOL0     C57921   3.101   2.990   2.627 -0.9122  0.5981 -0.1416
  430MOL0     C57922   3.196   3.082   2.656  0.4796 -0.4368 -0.1081
  430MOL0     O57923   3.325   3.037   2.639  0.1015 -0.5096  0.0735
  430MOL0     C57924   3.424   3.132   2.623 -0.4909 -0.1071  0.9876
  430MOL0     C57925   3.540   3.058   2.569 -1.0393 -0.5953  0.0939
  430MOL0     C57926   3.660   3.158   2.550 -0.3235  0.6551 -0.3997
  430MOL0     C57927   3.795   3.083   2.561  0.4273 -0.0947  0.4789
  430MOL0     C57928   3.912   3.194   2.554  0.7153  1.7153  1.2013
  430MOL0     C57929   3.931   3.284   2.674 -0.7815 -0.9558 -0.3145
  430MOL0     C57930   4.066   3.363   2.673  0.4522 -0.8726 -0.0054
  430MOL0     C57931   4.076   3.469   2.776 -0.1202  0.1584  1.3166
  430MOL0     N57932   4.211   3.508   2.804  0.2802 -0.6248 -0.6672
  430MOL0     C57933   4.305   3.442   2.886  0.1494 -0.0902 -0.5500
  430MOL0     C57934   4.391   3.535   2.924 -1.0991  0.4582  0.4112
  430MOL0     C57935   4.509   3.513   3.024  0.2915 -0.4676 -0.2751
  430MOL0     C57936   4.653   3.523   2.960 -1.1070 -0.1038 -0.7623
  430MOL0     C57937   4.761   3.538   3.070  0.1774  0.0428  0.9141
  430MOL0     C57938   4.770   3.414   3.156 -0.2329  0.3854 -0.9365
  430MOL0     O57939   4.880   3.422   3.242 -0.5299 -0.3747 -0.5171
  430MOL0     C57940   4.958   3.316   3.280 -0.3863  0.4234  0.1921
  430MOL0     C57941   4.947   3.185   3.237 -0.0211  0.5045  0.2945
  430MOL0     C57942   5.033   3.083   3.278 -0.5477 -0.3707  0.1367
  430MOL0     C57943   5.134   3.112   3.375  0.6158 -0.0695 -0.2813
  430MOL0     C57944   5.227   3.006   3.432 -0.3819  0.1840  0.4186
  430MOL0     O57945   5.325   3.041   3.515 -0.1475  0.8618 -0.2878
  430MOL0     C57946   5.433   2.954   3.531  0.8339 -1.0325 -0.9043
  430MOL0     C57947   5.492   2.947   3.654 -0.2189 -0.0694  0.0941
  430MOL0     C57948   5.616   2.870   3.674  0.0211  0.2635  0.5996
  430MOL0     C57949   5.685   2.808   3.567 -0.8057  0.2981 -0.7338
  430MOL0     O57950   5.809   2.744   3.601 -0.1514 -0.1078  0.8088
  430MOL0     C57951   5.870   2.656   3.504  0.0307 -0.3143 -0.6448
  430MOL0     C57952   5.995   2.598   3.570 -0.1033  0.0585 -0.7853
  430MOL0     C57953   6.045   2.465   3.511  0.2618 -0.6753 -0.1520
  430MOL0     C57954   6.190   2.457   3.508 -0.9469  0.3945 -0.2505
  430MOL0     C57955   6.249   2.367   3.400  0.0850 -0.4025 -0.5419
  430MOL0     C57956   6.396   2.328   3.439  0.7568 -0.3759 -0.0786
  430MOL0     C57957   6.485   2.459   3.432 -0.5063  0.2739  0.6703
  430MOL0     C57958   6.632   2.434   3.414 -0.0013 -0.0370  0.3048
  430MOL0    Cl57959   6.692   2.325   3.529  0.0475  0.1454 -0.2481
  430MOL0     C57960   5.627   2.831   3.443  0.5000  0.0435  0.8751
  430MOL0     C57961   5.503   2.894   3.434 -0.4339 -0.1732 -0.1106
  430MOL0     O57962   5.197   2.891   3.411  0.1061 -0.3635 -0.0135
  430MOL0     C57963   5.149   3.244   3.423  0.6694 -0.2771  0.0292
  430MOL0     C57964   5.059   3.343   3.365  0.2924  1.2303 -0.2789
  430MOL0     N57965   4.343   3.652   2.871 -0.2580 -0.3722 -0.3007
  430MOL0     N57966   4.249   3.638   2.797 -0.5737  1.4023 -0.1269
  430MOL0     C57967   3.158   3.210   2.703  1.0870 -0.8545 -0.0570
  430MOL0     C57968   3.024   3.246   2.702  0.2625 -0.0932  0.2370
  430MOL0     C57969   2.568   3.282   2.704 -0.4226 -0.0075 -0.8833
  430MOL0     C57970   2.523   3.177   2.790  0.8112 -0.0492  0.5758
  430MOL0     C57971   2.389   3.170   2.822  0.1624  0.8752  0.4916
  430MOL0     C57972   2.299   3.268   2.781 -0.8204 -0.2761 -0.0275
  430MOL0     O57973   2.170   3.259   2.823  0.5788 -0.6528  0.3578
  430MOL0     C57974   2.079   3.287   2.717  0.1295  0.8041 -0.3690
  430MOL0     C57975   1.932   3.281   2.765  0.0451 -0.0314 -0.0125
  430MOL0     C57976   1.901   3.401   2.856  0.4955 -0.3481 -0.7782
  430MOL0     C57977   1.857   3.530   2.795 -0.2289 -1.2466 -0.3865
  430MOL0     C57978   1.741   3.507   2.714 -0.1861  0.8507  0.3024
  430MOL0     C57979   1.641   3.499   2.650 -0.1152 -0.6506 -0.4197
  430MOL0     C57980   2.352   3.378   2.708  0.0921 -0.7190  0.6452
  430MOL0     C57981   2.481   3.389   2.664 -0.2138 -0.1366 -0.1560
  430MOL0     C57982   2.509   3.495   2.559 -0.1234 -0.3288  0.5420
  430MOL0     H57983   2.887   2.955   2.596 -1.5917  1.9074 -2.0379
  430MOL0     H57984   3.132   2.890   2.598 -0.4727 -0.2524  2.9214
  430MOL0     H57985   3.391   3.210   2.554 -1.1472  0.4916  1.9558
  430MOL0     H57986   3.456   3.178   2.717  0.1613  1.4616  0.0290
  430MOL0     H57987   3.523   3.003   2.475  3.0109 -4.4187  1.2639
  430MOL0     H57988   3.558   2.973   2.636 -1.7888  0.4022  1.6118
  430MOL0     H57989   3.650   3.230   2.631 -2.2179 -0.0744  0.0729
  430MOL0     H57990   3.639   3.202   2.452 -0.0577 -0.8510 -1.1698
  430MOL0     H57991   3.783   3.035   2.658  0.1829 -1.3650 -0.1631
  430MOL0     H57992   3.813   3.005   2.487 -1.2728  0.3521 -0.4810
  430MOL0     H57993   4.000   3.131   2.534  0.6209  2.3106 -1.4678
  430MOL0     H57994   3.897   3.248   2.460 -2.5913  0.8309  1.1046
  430MOL0     H57995   3.857   3.364   2.678  1.3700  1.1785 -0.8665
  430MOL0     H57996   3.926   3.228   2.768  0.8429  1.2500  1.1943
  430MOL0     H57997   4.100   3.419   2.586 -1.4554  4.4718  2.3097
  430MOL0     H57998   4.142   3.289   2.703  0.6782 -1.4331 -1.8161
  430MOL0     H57999   4.019   3.556   2.741  1.1801 -0.2709 -2.2283
  430MOL0     H58000   4.049   3.430   2.875  0.5234  0.9893  1.8343
  430MOL0     H58001   4.309   3.339   2.921 -2.1079 -0.7818 -2.1053
  430MOL0     H58002   4.508   3.584   3.107 -1.6054  0.9576 -1.4284
  430MOL0     H58003   4.507   3.411   3.063  0.1499 -0.4415 -0.2089
  430MOL0     H58004   4.689   3.442   2.896 -1.2773 -1.7659  1.1283
  430MOL0     H58005   4.647   3.611   2.895 -0.0186  0.5551 -0.0018
  430MOL0     H58006   4.727   3.616   3.138 -0.9237 -2.3067  3.2818
  430MOL0     H58007   4.864   3.560   3.040  0.1029  3.0025  2.4965
  430MOL0     H58008   4.795   3.333   3.086 -1.6432  0.9797 -2.1902
  430MOL0     H58009   4.679   3.394   3.213 -1.1957  0.2342 -2.4520
  430MOL0     H58010   4.886   3.160   3.151  1.4430 -1.0952 -0.3270
  430MOL0     H58011   5.031   2.987   3.228  0.6585 -0.9146  1.0850
  430MOL0     H58012   5.437   2.993   3.736 -0.7252  0.4300 -0.5082
  430MOL0     H58013   5.646   2.845   3.775 -1.3910 -0.3054  0.8934
  430MOL0     H58014   5.803   2.570   3.492  1.5613 -1.4517 -1.3671
  430MOL0     H58015   5.881   2.705   3.407 -1.4333  0.4040 -0.4751
  430MOL0     H58016   6.075   2.672   3.580  1.4766 -1.0811 -3.7498
  430MOL0     H58017   5.966   2.567   3.671  0.6854 -0.4710 -0.7146
  430MOL0     H58018   6.004   2.384   3.573  0.5689 -1.9125 -1.4984
  430MOL0     H58019   6.020   2.446   3.406  0.5990  0.7093 -0.5023
  430MOL0     H58020   6.238   2.433   3.603  0.2012  1.7159 -0.4563
  430MOL0     H58021   6.240   2.553   3.494  3.0024 -0.6524  4.0217
  430MOL0     H58022   6.236   2.415   3.303 -1.2357 -4.4115 -2.5404
  430MOL0     H58023   6.199   2.271   3.385 -1.4444  0.7832 -4.0942
  430MOL0     H58024   6.417   2.271   3.530 -2.9484  0.3371  1.4064
  430MOL0     H58025   6.425   2.260   3.359 -0.5037  0.3691 -1.2098
  430MOL0     H58026   6.475   2.521   3.522 -2.9317 -0.1970  0.7714
  430MOL0     H58027   6.449   2.509   3.342 -1.5244  0.9195  1.4126
  430MOL0     H58028   6.659   2.395   3.315  1.8527  1.3228  0.2144
  430MOL0     H58029   6.681   2.531   3.428 -2.1526  0.7134  3.8828
  430MOL0     H58030   5.678   2.792   3.356  0.0075 -1.2751  1.1569
  430MOL0     H58031   5.452   2.905   3.339 -0.1337  0.4613 -0.2082
  430MOL0     H58032   5.214   3.286   3.499  0.8774 -0.4610 -0.0468
  430MOL0     H58033   5.062   3.445   3.402 -2.1147  1.4760 -0.6118
  430MOL0     H58034   3.239   3.279   2.722  1.2046 -0.5812 -1.4846
  430MOL0     H58035   2.995   3.346   2.732  1.0665  0.0384  0.6045
  430MOL0     H58036   2.575   3.087   2.823  0.4450 -1.2322 -1.8433
  430MOL0     H58037   2.348   3.087   2.879  0.8085 -1.2494 -1.9247
  430MOL0     H58038   2.104   3.227   2.629  1.0869 -1.9462  1.6157
  430MOL0     H58039   2.083   3.391   2.684  1.2708  1.4622  1.6180
  430MOL0     H58040   1.901   3.186   2.811 -2.1628  0.3458 -0.5884
  430MOL0     H58041   1.865   3.280   2.678  1.4062 -1.4949 -1.1232
  430MOL0     H58042   1.982   3.426   2.925 -0.0651 -2.3827  0.6936
  430MOL0     H58043   1.816   3.377   2.920 -0.9911  2.6885 -1.4357
  430MOL0     H58044   1.843   3.598   2.880 -0.1546 -2.1391  0.3625
  430MOL0     H58045   1.931   3.579   2.732  2.1338 -2.1926  1.4959
  430MOL0     H58046   1.541   3.490   2.612 -0.8847 -0.1515  1.3792
  430MOL0     H58047   2.277   3.450   2.677 -2.2828 -1.6523  3.7170
  430MOL0     H58048   2.537   3.592   2.602  1.0998  0.5075 -1.9245
  430MOL0     H58049   2.588   3.479   2.485 -0.1600 -0.7123  0.5816
  430MOL0     H58050   2.419   3.518   2.502  0.6193  0.9040 -0.1834
  431MOL0     O58051   6.553   9.535   7.080 -0.9138  0.8623  0.6475
  431MOL0     C58052   6.506   9.518   6.967  0.0021 -0.6320 -0.1630
  431MOL0     O58053   6.382   9.460   6.935 -0.4161 -0.4527 -0.0531
  431MOL0     C58054   6.301   9.447   7.039  0.3084 -0.9431 -0.1225
  431MOL0     C58055   6.200   9.545   7.061 -0.3488  0.1396  0.3443
  431MOL0     C58056   6.134   9.545   7.181 -0.4376  0.1869  0.4432
  431MOL0     C58057   6.157   9.447   7.275  0.1482  0.0999 -0.8396
  431MOL0     O58058   6.099   9.473   7.401 -0.6614 -0.7069 -0.2789
  431MOL0     C58059   6.090   9.373   7.509  0.0484 -0.5782  0.7706
  431MOL0     C58060   6.217   9.372   7.580 -0.4256  0.1051 -0.1847
  431MOL0     C58061   6.196   9.334   7.729  0.7573  0.4466 -0.9370
  431MOL0     C58062   6.333   9.340   7.797 -0.9054  0.8276  0.3530
  431MOL0     C58063   6.333   9.274   7.940  0.1751 -1.1422  0.1200
  431MOL0     C58064   6.338   9.120   7.931 -0.0838 -0.6208 -0.2128
  431MOL0     C58065   6.479   9.072   7.895 -0.0577  0.0960 -0.4793
  431MOL0     C58066   6.494   8.924   7.920 -0.8323  0.4984 -0.1864
  431MOL0     N58067   6.614   8.872   7.854  0.1995 -0.4222 -0.0793
  431MOL0     C58068   6.657   8.740   7.852  0.6321 -0.1220 -0.5265
  431MOL0     C58069   6.770   8.738   7.786  0.0256  0.0888  0.4346
  431MOL0     C58070   6.855   8.622   7.757 -0.4344  0.2006 -0.0233
  431MOL0     C58071   6.994   8.643   7.827 -0.1123  0.5781 -0.4225
  431MOL0     C58072   7.121   8.629   7.731 -0.4739  0.0883 -0.5328
  431MOL0     C58073   7.121   8.736   7.629 -0.8742 -0.2445 -0.3205
  431MOL0     O58074   7.262   8.746   7.583  0.7935 -0.2937 -0.3493
  431MOL0     C58075   7.312   8.654   7.496  0.9898 -0.7751 -0.5653
  431MOL0     C58076   7.442   8.688   7.452  1.0621  0.5820  0.2248
  431MOL0     C58077   7.500   8.615   7.348 -0.1894  1.6583 -0.6423
  431MOL0     C58078   7.431   8.503   7.291 -1.3490 -0.1564  0.0397
  431MOL0     C58079   7.503   8.409   7.200 -1.0272 -0.3067  1.1182
  431MOL0     O58080   7.426   8.320   7.134  0.4095 -0.0831  0.8078
  431MOL0     C58081   7.456   8.258   7.016  0.2739  0.8105 -0.1006
  431MOL0     C58082   7.350   8.230   6.933  0.7724 -0.8985 -0.1122
  431MOL0     C58083   7.368   8.172   6.807 -0.9376 -0.2552  0.0278
  431MOL0     C58084   7.493   8.129   6.767  0.0481  0.4926 -0.4111
  431MOL0     O58085   7.513   8.082   6.637  0.4022 -1.0625  0.2212
  431MOL0     C58086   7.570   7.953   6.620  0.6960  0.4703 -0.0728
  431MOL0     C58087   7.719   7.957   6.575  0.4157  0.8769  1.4238
  431MOL0     C58088   7.786   7.828   6.533 -0.9666  0.0034  0.0552
  431MOL0     C58089   7.736   7.778   6.398  0.6424 -0.0141 -0.0438
  431MOL0     C58090   7.779   7.852   6.283 -0.0473  0.0583  0.8831
  431MOL0     C58091   7.728   7.783   6.154  0.2117  0.3374 -0.0184
  431MOL0     C58092   7.800   7.651   6.116 -0.2000 -0.8550 -0.0210
  431MOL0     C58093   7.758   7.603   5.975 -0.4775 -0.6527 -0.0419
  431MOL0    Cl58094   7.813   7.715   5.848 -0.2757 -0.2298  0.4259
  431MOL0     C58095   7.598   8.143   6.854 -0.6213  0.0265  0.4477
  431MOL0     C58096   7.576   8.201   6.981 -0.5212 -0.3066  0.0453
  431MOL0     O58097   7.622   8.424   7.185 -0.1732  0.2796 -0.0903
  431MOL0     C58098   7.306   8.480   7.334  0.4997 -0.4723  1.0012
  431MOL0     C58099   7.242   8.556   7.437 -0.6234 -0.2410 -0.7346
  431MOL0     N58100   6.794   8.867   7.749 -0.6741  0.7320  1.3594
  431MOL0     N58101   6.706   8.951   7.785  0.8864  0.2988 -0.3138
  431MOL0     C58102   6.241   9.345   7.252 -0.0673  0.1641 -0.1627
  431MOL0     C58103   6.314   9.346   7.142 -0.3788  0.1074  0.1533
  431MOL0     C58104   6.593   9.570   6.858 -0.0265  0.1753  0.4479
  431MOL0     C58105   6.712   9.650   6.888 -1.1521  0.5421  0.4911
  431MOL0     C58106   6.793   9.714   6.789  0.0976 -0.7643  0.4095
  431MOL0     C58107   6.747   9.710   6.656 -0.9151 -0.1069 -0.0531
  431MOL0     O58108   6.791   9.786   6.549 -0.1481 -0.5208 -0.2057
  431MOL0     C58109   6.913   9.864   6.560 -0.1096 -0.7639  0.3039
  431MOL0     C58110   7.050   9.806   6.530  0.2028  1.7319  0.3871
  431MOL0     C58111   7.041   9.721   6.403 -0.0413 -0.3543  0.3591
  431MOL0     C58112   7.085   9.575   6.428 -1.0166  0.0673  0.5143
  431MOL0     C58113   7.032   9.480   6.331 -0.2838 -0.4722 -0.0217
  431MOL0     C58114   6.983   9.413   6.248 -0.6937  0.7271  0.9777
  431MOL0     C58115   6.640   9.622   6.622 -0.2125  0.1872 -0.3880
  431MOL0     C58116   6.562   9.553   6.721 -0.4005  0.5136 -0.7110
  431MOL0     C58117   6.446   9.469   6.670  0.2779 -0.0986  0.3319
  431MOL0     H58118   6.183   9.625   6.989  0.4155  1.1976  1.2976
  431MOL0     H58119   6.068   9.631   7.192 -0.7003  0.3423 -1.8273
  431MOL0     H58120   6.005   9.392   7.574 -1.3578  0.9049 -1.3557
  431MOL0     H58121   6.072   9.272   7.471  1.2298 -0.5226  0.0052
  431MOL0     H58122   6.260   9.472   7.579 -0.5493  0.1660 -1.1550
  431MOL0     H58123   6.292   9.307   7.534  0.5215 -1.3047  3.1296
  431MOL0     H58124   6.158   9.232   7.741 -2.9046  1.7112 -0.6776
  431MOL0     H58125   6.120   9.397   7.777  1.2153 -1.1480  2.1538
  431MOL0     H58126   6.401   9.286   7.731 -1.5125  0.0454  0.3505
  431MOL0     H58127   6.363   9.445   7.796  2.8840 -0.1341 -0.0506
  431MOL0     H58128   6.421   9.313   7.993  1.5734 -1.2643 -2.0022
  431MOL0     H58129   6.238   9.296   7.988  0.6001 -1.9376  1.3690
  431MOL0     H58130   6.303   9.077   8.026 -1.8061 -0.5796 -0.7952
  431MOL0     H58131   6.272   9.093   7.848  1.5163 -0.1568 -1.6775
  431MOL0     H58132   6.554   9.140   7.934 -0.3059  1.2000 -1.8571
  431MOL0     H58133   6.488   9.072   7.786  1.7062 -1.7441 -0.4008
  431MOL0     H58134   6.497   8.894   8.025 -4.2618 -3.9273 -1.0744
  431MOL0     H58135   6.405   8.882   7.872 -2.0242  1.9978  0.6173
  431MOL0     H58136   6.609   8.652   7.893 -2.4008  1.9942  0.8062
  431MOL0     H58137   6.808   8.536   7.806 -1.9000  0.3241 -1.1416
  431MOL0     H58138   6.879   8.589   7.656  0.0621  1.2135 -0.2489
  431MOL0     H58139   6.985   8.734   7.888  3.6091  1.2329 -0.5897
  431MOL0     H58140   7.000   8.553   7.889  0.4071  0.5801 -0.4598
  431MOL0     H58141   7.108   8.532   7.683  0.1612  0.5290 -1.6294
  431MOL0     H58142   7.207   8.632   7.799  0.1394 -3.6461 -0.9527
  431MOL0     H58143   7.087   8.835   7.661 -0.6753  0.8846 -3.2489
  431MOL0     H58144   7.050   8.724   7.546 -2.0375 -0.9409  0.7444
  431MOL0     H58145   7.498   8.770   7.498 -1.2118  1.8867  0.8516
  431MOL0     H58146   7.600   8.640   7.313  1.3530 -0.9558  1.4995
  431MOL0     H58147   7.261   8.274   6.976  1.4448  1.7764 -1.2480
  431MOL0     H58148   7.282   8.157   6.742 -1.4511 -0.8733  0.8404
  431MOL0     H58149   7.574   7.891   6.709 -0.6568  0.4652  0.0063
  431MOL0     H58150   7.503   7.901   6.551  1.9645 -1.2943 -0.0245
  431MOL0     H58151   7.724   8.031   6.494 -0.2526 -1.7991 -1.2603
  431MOL0     H58152   7.780   7.987   6.661  2.2040 -1.1422  0.9748
  431MOL0     H58153   7.895   7.839   6.534 -0.7254 -2.0433 -0.1557
  431MOL0     H58154   7.761   7.750   6.605 -2.9780 -0.3807 -0.9711
  431MOL0     H58155   7.628   7.758   6.399  0.8852 -1.4301  2.0573
  431MOL0     H58156   7.784   7.680   6.387 -1.0266 -1.0144  1.1838
  431MOL0     H58157   7.887   7.864   6.290 -0.0781 -0.6332  4.4115
  431MOL0     H58158   7.729   7.949   6.289  0.4388  0.3349  0.5187
  431MOL0     H58159   7.620   7.764   6.156  0.2319 -0.2978 -2.2982
  431MOL0     H58160   7.745   7.847   6.067 -0.4333 -0.2611 -0.6016
  431MOL0     H58161   7.769   7.572   6.184 -1.8649 -1.4366 -1.3874
  431MOL0     H58162   7.909   7.665   6.120 -0.0226 -2.1145 -0.1957
  431MOL0     H58163   7.812   7.511   5.954  1.3661  0.8269 -2.4350
  431MOL0     H58164   7.654   7.574   5.964  0.3071 -2.8498 -2.6970
  431MOL0     H58165   7.696   8.101   6.835 -0.4258  1.4310 -2.0933
  431MOL0     H58166   7.662   8.212   7.046  2.2551 -1.1980 -3.1589
  431MOL0     H58167   7.253   8.398   7.287 -2.6800  0.4985  2.6468
  431MOL0     H58168   7.145   8.521   7.471 -0.0283  0.0472  1.3822
  431MOL0     H58169   6.249   9.253   7.309  0.4095 -0.5017 -1.2688
  431MOL0     H58170   6.393   9.277   7.115  0.3913  1.8981 -2.6792
  431MOL0     H58171   6.764   9.670   6.981 -0.1933  2.2111 -0.3642
  431MOL0     H58172   6.875   9.779   6.815  0.3325  0.1909 -2.3513
  431MOL0     H58173   6.914   9.922   6.653 -2.1123  1.5519 -1.0004
  431MOL0     H58174   6.903   9.938   6.480  1.0090 -0.4660  0.4271
  431MOL0     H58175   7.070   9.749   6.621 -2.5184  3.3959  2.1563
  431MOL0     H58176   7.127   9.881   6.510  0.2487  1.9625  1.3819
  431MOL0     H58177   7.100   9.781   6.333  0.9675 -0.9622  0.6651
  431MOL0     H58178   6.940   9.723   6.360  1.0455  0.5895 -2.3361
  431MOL0     H58179   7.194   9.585   6.430 -0.6610 -2.8238 -0.4324
  431MOL0     H58180   7.055   9.553   6.531 -0.3343  1.5744  1.0633
  431MOL0     H58181   6.944   9.347   6.174  0.1009  0.9130  0.3815
  431MOL0     H58182   6.612   9.612   6.517  1.8491  2.1334 -1.2100
  431MOL0     H58183   6.349   9.517   6.684  0.9696  1.2949  0.4812
  431MOL0     H58184   6.451   9.460   6.561 -0.0517 -0.3062  0.3296
  431MOL0     H58185   6.446   9.364   6.701  1.0755  0.0698  0.9116
  432MOL0     O58186   0.932   1.043   6.250  0.7021 -0.2155  0.6037
  432MOL0     C58187   0.951   1.149   6.312 -0.8551 -0.2175  0.5483
  432MOL0     O58188   0.856   1.235   6.363 -0.7075 -0.1177  0.4300
  432MOL0     C58189   0.743   1.169   6.380  1.0791  0.1167 -0.6838
  432MOL0     C58190   0.642   1.163   6.287 -0.1441 -0.6437 -0.0178
  432MOL0     C58191   0.527   1.092   6.302  0.6132  0.0532  1.1141
  432MOL0     C58192   0.487   1.026   6.418  0.2010  0.7888  0.4248
  432MOL0     O58193   0.363   0.964   6.427  0.9458  0.1990  0.3284
  432MOL0     C58194   0.291   0.971   6.543 -0.2505  0.1046  0.5129
  432MOL0     C58195   0.143   0.948   6.516  0.3519 -0.1817  0.7365
  432MOL0     C58196   0.102   0.800   6.520  0.1790 -0.0719 -0.0775
  432MOL0     C58197  -0.051   0.793   6.522 -0.1654  0.5045 -0.0421
  432MOL0     C58198  -0.105   0.652   6.491 -0.5145  0.4903 -0.6634
  432MOL0     C58199  -0.258   0.638   6.519  0.3653  0.3315 -1.0370
  432MOL0     C58200  -0.310   0.491   6.545 -0.8609 -0.1034 -0.1373
  432MOL0     C58201  -0.308   0.400   6.424  0.1769 -0.1423  0.5919
  432MOL0     N58202  -0.332   0.258   6.463 -0.2268 -1.3578 -0.2489
  432MOL0     C58203  -0.426   0.209   6.545  0.4269  0.1682  0.2615
  432MOL0     C58204  -0.377   0.094   6.587 -0.5365  0.3322  0.3744
  432MOL0     C58205  -0.463   0.001   6.670 -0.6680 -0.2523  1.0912
  432MOL0     C58206  -0.557  -0.086   6.589  0.5469 -0.0287 -0.2165
  432MOL0     C58207  -0.596  -0.210   6.665  0.2930 -0.4178 -0.5392
  432MOL0     C58208  -0.661  -0.305   6.568  0.1668  0.0336 -0.7520
  432MOL0     O58209  -0.728  -0.417   6.634 -0.2648  0.2070 -0.6501
  432MOL0     C58210  -0.802  -0.509   6.568  0.7248 -0.1873 -0.0839
  432MOL0     C58211  -0.856  -0.610   6.649 -0.3242 -0.8609  0.3653
  432MOL0     C58212  -0.941  -0.714   6.612 -0.8034 -0.4773 -0.5541
  432MOL0     C58213  -0.961  -0.730   6.476  0.3457 -0.1838 -0.3760
  432MOL0     C58214  -1.058  -0.841   6.438 -0.5866 -0.5861  0.2856
  432MOL0     O58215  -1.100  -0.817   6.299 -0.5656  0.4657 -0.5407
  432MOL0     C58216  -1.176  -0.912   6.239  0.7625 -0.6646  0.1334
  432MOL0     C58217  -1.161  -0.929   6.101 -0.4944 -0.3820 -1.0662
  432MOL0     C58218  -1.221  -1.036   6.037  0.3064  0.2776  0.9552
  432MOL0     C58219  -1.306  -1.127   6.103 -0.2889  0.0360  0.3649
  432MOL0     O58220  -1.344  -1.243   6.040 -0.3823 -0.8222  0.0359
  432MOL0     C58221  -1.467  -1.306   6.089 -0.3534  0.3231 -1.0875
  432MOL0     C58222  -1.505  -1.410   5.995  0.7395 -0.1921 -0.7439
  432MOL0     C58223  -1.447  -1.561   6.028  0.6942  0.1717  0.2450
  432MOL0     C58224  -1.560  -1.666   5.998 -0.0712 -0.0229  0.4835
  432MOL0     C58225  -1.514  -1.800   6.056  0.0773  0.5533 -0.3271
  432MOL0     C58226  -1.610  -1.920   6.030  0.9233  0.4276 -0.4357
  432MOL0     C58227  -1.755  -1.902   6.074 -0.6705 -0.0654  0.8000
  432MOL0     C58228  -1.839  -2.018   6.077 -0.5018  0.6436 -0.1746
  432MOL0    Cl58229  -1.790  -2.118   6.214 -0.0823 -0.2279 -0.0541
  432MOL0     C58230  -1.333  -1.106   6.237  0.3159  0.5311 -0.0359
  432MOL0     C58231  -1.269  -0.998   6.309  0.2537  0.3096 -1.0452
  432MOL0     O58232  -1.073  -0.937   6.515  0.9578 -0.4288 -0.5890
  432MOL0     C58233  -0.910  -0.635   6.388  0.7216  0.1406 -0.1750
  432MOL0     C58234  -0.826  -0.531   6.428  0.7004 -0.5382 -0.8940
  432MOL0     N58235  -0.253   0.070   6.517  0.3088 -0.4608  0.5785
  432MOL0     N58236  -0.224   0.175   6.448  0.4035  0.8264  0.5782
  432MOL0     C58237   0.581   1.039   6.520 -0.2255  0.6496 -0.1807
  432MOL0     C58238   0.703   1.100   6.497 -0.9256 -0.2184  0.4975
  432MOL0     C58239   1.091   1.183   6.341 -0.5265 -1.0692 -0.5753
  432MOL0     C58240   1.120   1.245   6.461  0.5009  0.3792 -0.6264
  432MOL0     C58241   1.244   1.252   6.514  0.2913 -0.3788  0.9685
  432MOL0     C58242   1.353   1.226   6.434 -0.4467  1.0387 -0.9363
  432MOL0     O58243   1.487   1.236   6.474  0.2099 -0.2865  0.9183
  432MOL0     C58244   1.538   1.300   6.593 -0.0709  0.2984  0.1601
  432MOL0     C58245   1.546   1.183   6.689 -0.1278 -0.6073  0.6179
  432MOL0     C58246   1.598   1.233   6.824  0.1626 -0.4779 -1.0418
  432MOL0     C58247   1.638   1.105   6.911  0.1547  0.1555 -0.6599
  432MOL0     C58248   1.689   1.126   7.047 -1.2124  0.4187  0.1125
  432MOL0     C58249   1.730   1.147   7.161  0.6148  0.4824 -0.2172
  432MOL0     C58250   1.334   1.167   6.307 -0.8798  0.5833  0.0777
  432MOL0     C58251   1.206   1.144   6.261 -0.8175  0.7334  0.5554
  432MOL0     C58252   1.183   1.092   6.126 -0.9749  0.2947  0.8441
  432MOL0     H58253   0.657   1.220   6.196  2.0561 -1.3498 -0.1686
  432MOL0     H58254   0.455   1.073   6.223 -1.9410 -2.2009  3.7342
  432MOL0     H58255   0.336   0.894   6.607 -0.6323 -1.4177 -0.9719
  432MOL0     H58256   0.304   1.067   6.593  0.6557  0.3132 -0.1035
  432MOL0     H58257   0.127   0.992   6.417  1.8152 -2.2582 -0.5085
  432MOL0     H58258   0.088   1.000   6.595  0.5447 -0.4691  1.0682
  432MOL0     H58259   0.140   0.766   6.617 -1.0504  3.1756  1.7212
  432MOL0     H58260   0.139   0.744   6.434  2.6890  0.9177  0.2501
  432MOL0     H58261  -0.081   0.833   6.619 -2.2790 -3.1156  0.9550
  432MOL0     H58262  -0.083   0.869   6.449  1.9588  0.7942 -0.7455
  432MOL0     H58263  -0.087   0.623   6.387  0.2993 -0.7339 -0.2002
  432MOL0     H58264  -0.055   0.581   6.557  2.2247  0.3343 -2.7262
  432MOL0     H58265  -0.277   0.704   6.604  2.6963 -0.9262  0.5722
  432MOL0     H58266  -0.308   0.679   6.431 -0.4900  0.2552 -0.5895
  432MOL0     H58267  -0.411   0.498   6.585 -1.0637 -0.6193 -0.5573
  432MOL0     H58268  -0.251   0.445   6.624 -0.5754  0.8496  0.2282
  432MOL0     H58269  -0.388   0.427   6.354  0.5380  0.6404  0.4703
  432MOL0     H58270  -0.216   0.424   6.371  0.3697 -0.6937  0.6745
  432MOL0     H58271  -0.529   0.244   6.550  0.9026  1.6054  0.5401
  432MOL0     H58272  -0.402  -0.062   6.735  2.0527  1.3025  0.1992
  432MOL0     H58273  -0.515   0.049   6.754 -3.5307 -0.7089 -0.3014
  432MOL0     H58274  -0.649  -0.037   6.557 -0.0679 -0.3322  1.0301
  432MOL0     H58275  -0.493  -0.114   6.505  1.1319 -1.8195  0.7680
  432MOL0     H58276  -0.674  -0.194   6.739  0.3651  1.0026 -0.7434
  432MOL0     H58277  -0.512  -0.260   6.715 -1.2707 -0.9430  1.6980
  432MOL0     H58278  -0.583  -0.327   6.495  1.2662 -3.0934  1.1782
  432MOL0     H58279  -0.737  -0.241   6.522  2.2151  4.4311  1.3394
  432MOL0     H58280  -0.829  -0.608   6.754  0.5091  0.3015  0.1468
  432MOL0     H58281  -0.958  -0.795   6.683  3.6795 -0.8067  0.4868
  432MOL0     H58282  -1.095  -0.859   6.051 -1.2650  2.5295  1.7060
  432MOL0     H58283  -1.204  -1.050   5.931 -2.4138  3.9097 -0.1670
  432MOL0     H58284  -1.468  -1.354   6.187 -1.8220  1.0016 -0.7397
  432MOL0     H58285  -1.551  -1.236   6.082  1.1395  2.3211  0.0871
  432MOL0     H58286  -1.613  -1.421   6.009  0.8169  1.4880  1.6961
  432MOL0     H58287  -1.487  -1.380   5.891  0.1510 -0.4636 -0.9286
  432MOL0     H58288  -1.355  -1.570   5.969 -1.1017 -1.2374 -2.5944
  432MOL0     H58289  -1.434  -1.557   6.136  0.5139 -1.6278  0.3609
  432MOL0     H58290  -1.577  -1.666   5.890 -0.6271 -3.0506  0.4825
  432MOL0     H58291  -1.660  -1.646   6.037  0.0551 -1.6827  1.7943
  432MOL0     H58292  -1.475  -1.797   6.159  1.5907 -3.3522 -0.6475
  432MOL0     H58293  -1.428  -1.841   6.004 -2.5820 -2.2451 -2.8660
  432MOL0     H58294  -1.609  -1.960   5.928 -0.9003 -0.5164 -0.1202
  432MOL0     H58295  -1.582  -2.009   6.089 -2.6684  0.7669  2.1199
  432MOL0     H58296  -1.803  -1.834   6.002 -0.3222  1.2394  1.7542
  432MOL0     H58297  -1.733  -1.857   6.171 -0.7679  1.2191  0.2468
  432MOL0     H58298  -1.945  -1.997   6.094 -0.5319  0.9478 -0.6881
  432MOL0     H58299  -1.834  -2.069   5.980  1.7155 -0.7025  0.5611
  432MOL0     H58300  -1.407  -1.161   6.293  1.6587 -0.2535  1.0439
  432MOL0     H58301  -1.281  -0.998   6.417 -0.5107 -0.6674 -1.1101
  432MOL0     H58302  -0.925  -0.641   6.281 -0.2275  0.1651 -0.0515
  432MOL0     H58303  -0.773  -0.461   6.364 -1.0803  0.5119 -1.3126
  432MOL0     H58304   0.562   0.997   6.618 -0.5321  0.3335 -0.3756
  432MOL0     H58305   0.777   1.085   6.575 -1.3824  0.4285  1.0752
  432MOL0     H58306   1.040   1.289   6.520  1.1038 -2.9058  3.1129
  432MOL0     H58307   1.263   1.284   6.615  0.1451 -1.7719  1.4681
  432MOL0     H58308   1.480   1.383   6.635 -0.7220 -0.9137  1.7775
  432MOL0     H58309   1.639   1.334   6.569  1.8890 -3.3017  2.4479
  432MOL0     H58310   1.622   1.115   6.649 -2.1182 -1.6091 -1.6718
  432MOL0     H58311   1.447   1.141   6.708 -0.9057  0.2506 -1.3552
  432MOL0     H58312   1.532   1.307   6.871 -1.0122 -1.0326 -1.7615
  432MOL0     H58313   1.685   1.292   6.796 -0.6309 -0.0147 -2.7274
  432MOL0     H58314   1.555   1.036   6.928  1.2757 -1.2511 -0.7627
  432MOL0     H58315   1.725   1.065   6.859  1.7448  0.3417  1.6964
  432MOL0     H58316   1.760   1.143   7.264 -0.5366 -2.0215  0.0964
  432MOL0     H58317   1.414   1.146   6.236 -1.5503  1.1085 -0.8613
  432MOL0     H58318   1.088   1.118   6.078 -1.5608  1.4217  2.5307
  432MOL0     H58319   1.274   1.109   6.068 -0.5645 -2.0918  0.6895
  432MOL0     H58320   1.165   0.985   6.114 -1.7162  0.6152 -1.5630
  433MOL0     O58321   6.811   5.414   8.236 -0.2097  0.1440  1.1241
  433MOL0     C58322   6.772   5.527   8.265 -1.0922  0.2689  0.3179
  433MOL0     O58323   6.655   5.585   8.212 -0.0833 -0.6137 -0.6059
  433MOL0     C58324   6.609   5.551   8.085 -0.6772  0.0362  0.0652
  433MOL0     C58325   6.477   5.542   8.045  0.4613  0.3649  0.3806
  433MOL0     C58326   6.446   5.526   7.912  0.5318 -0.0903  0.9715
  433MOL0     C58327   6.543   5.509   7.811  0.5107  0.3307 -0.1441
  433MOL0     O58328   6.509   5.496   7.680 -0.2385 -0.3476  0.5149
  433MOL0     C58329   6.593   5.420   7.584  0.2565  0.0256 -0.4970
  433MOL0     C58330   6.534   5.460   7.449  0.4300  0.4873 -0.6389
  433MOL0     C58331   6.606   5.395   7.322 -0.7338  0.1402 -0.6705
  433MOL0     C58332   6.628   5.244   7.313 -0.6282  0.8026 -0.3323
  433MOL0     C58333   6.691   5.206   7.176  1.0517 -0.9618 -0.1691
  433MOL0     C58334   6.597   5.217   7.060 -0.4515  0.4207  0.1226
  433MOL0     C58335   6.520   5.084   7.045  0.4156 -0.5262 -0.6146
  433MOL0     C58336   6.435   5.084   6.917 -0.2181  0.2598  0.4595
  433MOL0     N58337   6.333   5.186   6.923  0.5906  0.1952 -0.4260
  433MOL0     C58338   6.238   5.185   7.021  0.0827  0.8713  0.7413
  433MOL0     C58339   6.170   5.292   6.983  0.6221 -0.3006 -0.0903
  433MOL0     C58340   6.052   5.333   7.062  0.4736 -0.0509  0.6218
  433MOL0     C58341   6.059   5.487   7.082 -0.1835  0.2691  0.1178
  433MOL0     C58342   6.186   5.515   7.166  0.3217 -0.3778  0.0500
  433MOL0     C58343   6.178   5.666   7.202 -0.3977 -0.2073  0.1054
  433MOL0     O58344   6.270   5.679   7.309  1.1682 -0.2718 -0.3017
  433MOL0     C58345   6.253   5.767   7.410 -0.0541 -1.2070  0.0333
  433MOL0     C58346   6.165   5.875   7.390 -0.2041  1.1465  0.1684
  433MOL0     C58347   6.137   5.970   7.489 -0.0881  0.0208  1.3304
  433MOL0     C58348   6.192   5.955   7.615  0.1424 -0.1876 -0.0144
  433MOL0     C58349   6.146   6.042   7.728 -0.8030 -0.4957 -0.2755
  433MOL0     O58350   6.174   5.986   7.861  0.6223 -0.0811  0.0460
  433MOL0     C58351   6.163   6.054   7.983  0.2493 -0.0925  0.9028
  433MOL0     C58352   6.125   6.182   7.998 -0.3302 -0.4164  0.7628
  433MOL0     C58353   6.085   6.237   8.115  0.1136 -0.0719  0.9344
  433MOL0     C58354   6.115   6.163   8.231  1.0295  0.5941 -0.1079
  433MOL0     O58355   6.103   6.203   8.363  0.1189 -0.3773  0.4383
  433MOL0     C58356   6.006   6.308   8.381  0.7149  1.0277  0.3649
  433MOL0     C58357   5.983   6.328   8.536  0.3118 -0.3685  0.0221
  433MOL0     C58358   5.908   6.464   8.547  0.1908  0.8815 -0.3118
  433MOL0     C58359   5.848   6.484   8.680 -0.5954  0.6887 -0.4585
  433MOL0     C58360   5.823   6.632   8.698 -0.3574  0.0682  0.2906
  433MOL0     C58361   5.683   6.650   8.755 -0.0758  0.3807 -0.4585
  433MOL0     C58362   5.631   6.791   8.770 -0.1037  0.1592  0.2121
  433MOL0     C58363   5.575   6.854   8.638 -0.4288  0.0224 -0.0978
  433MOL0    Cl58364   5.497   7.020   8.674  0.0149 -0.0444  0.3879
  433MOL0     C58365   6.159   6.032   8.218 -0.0981 -0.0389  0.6166
  433MOL0     C58366   6.180   5.978   8.093 -0.1977 -0.4058  0.1739
  433MOL0     O58367   6.076   6.144   7.708 -0.0528  0.3443 -0.8151
  433MOL0     C58368   6.285   5.851   7.633  0.0626  0.9560 -0.9128
  433MOL0     C58369   6.310   5.752   7.530 -0.8031 -0.6070 -0.7965
  433MOL0     N58370   6.221   5.353   6.865  0.4949 -0.9923  0.0749
  433MOL0     N58371   6.310   5.278   6.825 -1.0502 -1.0155  0.1684
  433MOL0     C58372   6.678   5.521   7.853 -0.4635  0.1905 -0.9296
  433MOL0     C58373   6.706   5.545   7.988 -0.2082 -0.2885  1.1985
  433MOL0     C58374   6.832   5.583   8.384 -0.4374 -0.4718  0.2722
  433MOL0     C58375   6.802   5.722   8.418  0.4042 -0.6153  0.8252
  433MOL0     C58376   6.868   5.802   8.514 -0.6902  0.2665  0.5230
  433MOL0     C58377   6.967   5.744   8.592  0.2614  0.0003  1.2931
  433MOL0     O58378   7.041   5.830   8.675  0.7020 -0.3170  0.9414
  433MOL0     C58379   7.173   5.814   8.688 -1.5359  0.1823  0.6058
  433MOL0     C58380   7.235   5.911   8.796  0.4503 -0.6472  0.2457
  433MOL0     C58381   7.155   5.915   8.930 -0.6403  0.4967 -0.3421
  433MOL0     C58382   7.134   5.785   9.008  0.4675 -0.7207  1.0971
  433MOL0     C58383   7.259   5.727   9.045 -0.1866 -0.0429  0.0622
  433MOL0     C58384   7.358   5.680   9.101  0.6523 -0.0518  0.3162
  433MOL0     C58385   7.002   5.606   8.572  0.2744  0.0167 -0.7047
  433MOL0     C58386   6.931   5.528   8.475  0.3714 -0.2558  0.2807
  433MOL0     C58387   6.953   5.379   8.482  1.3454 -0.7869  0.1671
  433MOL0     H58388   6.397   5.537   8.118 -1.8322 -0.4938 -2.0296
  433MOL0     H58389   6.341   5.511   7.887  0.4243  0.4838  1.0799
  433MOL0     H58390   6.700   5.439   7.582 -0.0635  2.3507 -4.0801
  433MOL0     H58391   6.582   5.313   7.608 -0.1640 -0.2307 -1.7676
  433MOL0     H58392   6.536   5.569   7.440  1.8098  0.7545  2.0037
  433MOL0     H58393   6.427   5.437   7.445  0.8595 -2.1568  0.5556
  433MOL0     H58394   6.706   5.441   7.319 -1.4865  1.8622 -0.5221
  433MOL0     H58395   6.562   5.422   7.225 -1.0184  0.7739 -0.3697
  433MOL0     H58396   6.706   5.218   7.384  0.3205  2.5575 -0.6783
  433MOL0     H58397   6.538   5.185   7.335 -1.7797  2.9850  1.0909
  433MOL0     H58398   6.777   5.272   7.160  0.4287  2.0916  5.9155
  433MOL0     H58399   6.727   5.104   7.187 -2.0049 -2.3009 -1.6284
  433MOL0     H58400   6.544   5.312   7.073 -1.2015 -0.3405  3.4637
  433MOL0     H58401   6.660   5.220   6.970  0.8485  5.1193  0.9512
  433MOL0     H58402   6.461   5.070   7.136 -1.6494  1.6544 -1.5016
  433MOL0     H58403   6.602   5.014   7.025  1.8782  1.1583 -0.7356
  433MOL0     H58404   6.499   5.094   6.829  2.6133  1.0430  2.4308
  433MOL0     H58405   6.386   4.986   6.916 -3.1434  1.6285  1.2143
  433MOL0     H58406   6.229   5.117   7.104 -0.5727  0.6751  0.5227
  433MOL0     H58407   5.960   5.307   7.009  2.0708 -1.8640 -1.4525
  433MOL0     H58408   6.053   5.276   7.156  2.9570 -3.9060 -1.4868
  433MOL0     H58409   6.058   5.540   6.986 -4.7616  0.4556  0.0649
  433MOL0     H58410   5.982   5.528   7.148  1.4207  1.7976  1.1412
  433MOL0     H58411   6.280   5.517   7.111  0.6979 -0.1496  0.6782
  433MOL0     H58412   6.196   5.452   7.255  1.3391 -1.0083 -0.4984
  433MOL0     H58413   6.077   5.687   7.236 -0.2993 -1.7328  1.4484
  433MOL0     H58414   6.196   5.741   7.125 -1.9557  0.0462 -0.0314
  433MOL0     H58415   6.119   5.899   7.295  0.3894  0.4371 -0.3131
  433MOL0     H58416   6.060   6.043   7.469  1.1725  1.6001  1.9941
  433MOL0     H58417   6.109   6.240   7.907 -0.1918 -0.9747  0.3799
  433MOL0     H58418   6.033   6.332   8.104  0.8564  0.1613 -1.2486
  433MOL0     H58419   6.032   6.403   8.335 -1.7577  1.3112 -0.6111
  433MOL0     H58420   5.909   6.272   8.345 -0.3995  0.3619  3.6125
  433MOL0     H58421   5.936   6.243   8.586 -0.6981  1.0202  1.5665
  433MOL0     H58422   6.075   6.340   8.594 -1.2775  0.9978  2.4667
  433MOL0     H58423   5.984   6.538   8.521  0.7736  1.1945  2.0623
  433MOL0     H58424   5.830   6.467   8.470  2.4550  2.0936 -2.6945
  433MOL0     H58425   5.913   6.448   8.760 -0.0490  3.0483  0.2417
  433MOL0     H58426   5.762   6.417   8.672  1.7652 -2.3645 -6.5285
  433MOL0     H58427   5.812   6.677   8.598 -2.5612 -4.3521 -1.7538
  433MOL0     H58428   5.903   6.689   8.745  3.3598 -3.0688 -1.6661
  433MOL0     H58429   5.614   6.597   8.688  1.1975 -1.1319 -0.6447
  433MOL0     H58430   5.671   6.609   8.855 -2.4398 -0.6555 -1.1004
  433MOL0     H58431   5.700   6.867   8.807 -0.2009 -0.4406  1.7064
  433MOL0     H58432   5.562   6.778   8.853 -0.0984 -3.0379 -0.1638
  433MOL0     H58433   5.657   6.859   8.566 -1.0395  1.0226 -0.7293
  433MOL0     H58434   5.496   6.796   8.592  0.0939  0.3484 -1.4379
  433MOL0     H58435   6.161   5.977   8.312  1.2005 -1.0012  0.0668
  433MOL0     H58436   6.204   5.872   8.086 -2.1165 -0.8604 -0.1512
  433MOL0     H58437   6.322   5.821   7.731  1.3176  0.6898 -1.4368
  433MOL0     H58438   6.374   5.668   7.555  0.1814  0.4432  0.3041
  433MOL0     H58439   6.758   5.506   7.781 -0.8574  0.9207 -1.5370
  433MOL0     H58440   6.805   5.576   8.020 -0.8727  5.2052 -0.9273
  433MOL0     H58441   6.741   5.780   8.349  2.3451  0.6264  0.0771
  433MOL0     H58442   6.860   5.910   8.521 -1.1309  0.4291 -1.7004
  433MOL0     H58443   7.209   5.835   8.587 -2.1476  3.6750  0.9874
  433MOL0     H58444   7.196   5.712   8.718 -0.2673  0.4290  0.5175
  433MOL0     H58445   7.241   6.018   8.773 -0.0536 -0.1262  2.3296
  433MOL0     H58446   7.341   5.885   8.804  0.9874  1.3218  0.0909
  433MOL0     H58447   7.059   5.964   8.907 -2.0832 -2.2990 -0.6489
  433MOL0     H58448   7.215   5.986   8.988  0.1386  0.0230 -0.5569
  433MOL0     H58449   7.072   5.789   9.098 -0.0722 -1.4319  0.7703
  433MOL0     H58450   7.080   5.720   8.939 -0.2568  2.1277 -1.2226
  433MOL0     H58451   7.444   5.648   9.156 -1.0244 -3.2185  1.3693
  433MOL0     H58452   7.071   5.550   8.634 -0.9896 -2.0728 -1.0986
  433MOL0     H58453   6.850   5.341   8.481  0.6466  0.9911 -1.3125
  433MOL0     H58454   7.015   5.361   8.393 -1.6815  1.3950 -2.6273
  433MOL0     H58455   7.007   5.352   8.573  1.8171  0.8228  0.3836
  434MOL0     O58456   2.570   4.669   9.309 -0.1450 -0.1824  0.3028
  434MOL0     C58457   2.487   4.745   9.355  1.0124  0.3041  1.5299
  434MOL0     O58458   2.455   4.766   9.490  0.0941  0.4010  1.5415
  434MOL0     C58459   2.538   4.699   9.570 -0.0239  0.3621  0.1200
  434MOL0     C58460   2.674   4.734   9.583 -0.9625 -0.2901  0.0767
  434MOL0     C58461   2.749   4.688   9.696 -0.1861  0.0876  0.7535
  434MOL0     C58462   2.693   4.606   9.798  0.3527  0.3998 -0.0516
  434MOL0     O58463   2.784   4.580   9.899 -0.3858 -0.7551 -0.2022
  434MOL0     C58464   2.740   4.501  10.006 -0.3106 -0.0016 -0.7007
  434MOL0     C58465   2.855   4.446  10.092  0.6538  0.2977  0.8745
  434MOL0     C58466   2.967   4.540  10.125 -0.0748  0.6539  1.1333
  434MOL0     C58467   3.051   4.489  10.244 -0.7125  0.3685 -0.2205
  434MOL0     C58468   3.164   4.581  10.281  0.6449  0.2986  0.8015
  434MOL0     C58469   3.231   4.547  10.422 -0.3259 -0.5254  0.3615
  434MOL0     C58470   3.334   4.649  10.466  0.4771 -0.1992 -0.9800
  434MOL0     C58471   3.476   4.616  10.452  0.3992  0.2285 -0.2864
  434MOL0     N58472   3.533   4.515  10.543 -0.7933 -0.3073  0.3275
  434MOL0     C58473   3.616   4.544  10.654 -0.6314 -0.8468 -0.6350
  434MOL0     C58474   3.656   4.426  10.703 -0.0411  0.1097  1.4666
  434MOL0     C58475   3.727   4.398  10.832 -0.3445 -0.1464 -0.2933
  434MOL0     C58476   3.822   4.281  10.824  1.1729 -0.1794  0.1946
  434MOL0     C58477   3.956   4.340  10.765  0.6679  0.5535 -0.2002
  434MOL0     C58478   4.064   4.236  10.766 -0.2024 -0.4922 -0.4778
  434MOL0     O58479   4.163   4.292  10.687  0.1065 -0.0618 -0.0122
  434MOL0     C58480   4.282   4.227  10.692  0.2785 -0.2394  0.3756
  434MOL0     C58481   4.313   4.113  10.768  0.1676  0.8165 -0.9483
  434MOL0     C58482   4.443   4.066  10.773  0.4747  0.3465  0.2505
  434MOL0     C58483   4.552   4.113  10.696  0.0510 -0.3208 -0.2910
  434MOL0     C58484   4.687   4.046  10.708  0.8637  0.2002 -0.0478
  434MOL0     O58485   4.785   4.111  10.645 -0.1260 -0.4960 -0.1250
  434MOL0     C58486   4.910   4.058  10.647 -0.0414 -0.4400  0.2837
  434MOL0     C58487   4.945   3.947  10.565  0.2368  0.2396 -0.0465
  434MOL0     C58488   5.061   3.884  10.590 -0.8500  0.5590  0.4947
  434MOL0     C58489   5.153   3.943  10.679  0.6166 -1.1540  0.4887
  434MOL0     O58490   5.274   3.890  10.691 -0.0586 -0.0958  0.2242
  434MOL0     C58491   5.354   3.872  10.574  0.1861  0.1945 -0.8006
  434MOL0     C58492   5.505   3.883  10.612  0.5642 -0.0597  0.6627
  434MOL0     C58493   5.588   3.812  10.509 -0.5777  0.6486  0.1796
  434MOL0     C58494   5.740   3.799  10.549  0.0494  0.4601 -0.9640
  434MOL0     C58495   5.837   3.730  10.458  1.2476  0.3080  0.1989
  434MOL0     C58496   5.976   3.729  10.514 -0.2315 -0.1307  0.4650
  434MOL0     C58497   5.995   3.626  10.625 -0.1065  0.1638  0.2187
  434MOL0     C58498   6.085   3.503  10.597 -0.0026  0.1769 -0.2198
  434MOL0    Cl58499   6.058   3.370  10.717  0.2076  0.0795 -0.1551
  434MOL0     C58500   5.125   4.056  10.746  0.1999 -0.3973  0.5403
  434MOL0     C58501   4.996   4.111  10.735  0.9105  0.3078  0.3228
  434MOL0     O58502   4.694   3.939  10.780 -0.8884 -0.1225 -0.1781
  434MOL0     C58503   4.522   4.228  10.624 -0.3105  0.4780 -0.2326
  434MOL0     C58504   4.392   4.285  10.620 -0.9422  1.2522  0.1697
  434MOL0     N58505   3.634   4.333  10.598 -0.4561  0.4927 -0.0450
  434MOL0     N58506   3.563   4.387  10.506  0.1203 -0.7231  0.7701
  434MOL0     C58507   2.561   4.568   9.785 -0.2551  0.1776  0.4568
  434MOL0     C58508   2.483   4.618   9.671  0.3737 -0.6437 -0.8466
  434MOL0     C58509   2.419   4.835   9.259  0.9173  0.0558  0.3945
  434MOL0     C58510   2.323   4.922   9.319  0.7531 -0.4382 -0.3816
  434MOL0     C58511   2.251   5.012   9.240  0.0746 -0.8415 -0.6102
  434MOL0     C58512   2.268   5.015   9.095 -0.7680 -0.5294 -0.1820
  434MOL0     O58513   2.198   5.104   9.010  0.3283  0.0692  0.0872
  434MOL0     C58514   2.118   5.205   9.075 -0.1559 -0.5080 -0.5030
  434MOL0     C58515   2.075   5.302   8.965  0.7037  0.9265 -0.5228
  434MOL0     C58516   2.189   5.364   8.887 -0.0532  0.1131 -0.3744
  434MOL0     C58517   2.135   5.442   8.770 -0.9442 -0.4658 -0.7137
  434MOL0     C58518   2.257   5.502   8.703 -0.0909 -0.7768  0.1129
  434MOL0     C58519   2.337   5.561   8.638 -0.3826 -0.3358  0.0832
  434MOL0     C58520   2.357   4.916   9.043 -0.6105 -0.1970  0.1567
  434MOL0     C58521   2.431   4.828   9.116 -0.7814 -0.7189  0.9688
  434MOL0     C58522   2.516   4.732   9.033 -0.3479  0.2279  0.2069
  434MOL0     H58523   2.715   4.798   9.506 -2.2140 -3.0084 -3.1145
  434MOL0     H58524   2.855   4.709   9.705  0.2004 -2.3311  2.9142
  434MOL0     H58525   2.669   4.549  10.074  1.7424 -0.3076  1.8251
  434MOL0     H58526   2.681   4.416   9.971 -3.7469  0.1012  3.8114
  434MOL0     H58527   2.896   4.360  10.038  0.1423  0.8996 -0.5173
  434MOL0     H58528   2.810   4.406  10.183 -1.6497 -0.9353 -0.7035
  434MOL0     H58529   2.926   4.641  10.133 -0.9404  0.6730 -2.2532
  434MOL0     H58530   3.022   4.548  10.031 -2.7981 -0.1883 -0.6355
  434MOL0     H58531   2.983   4.457  10.323 -0.6723  3.4277  1.1717
  434MOL0     H58532   3.095   4.400  10.197 -0.2805 -0.3357  1.4576
  434MOL0     H58533   3.236   4.575  10.199  0.5625  0.9780  0.6725
  434MOL0     H58534   3.129   4.684  10.280  0.1167  0.1234  0.8516
  434MOL0     H58535   3.153   4.555  10.498  0.5993  0.9661  1.2034
  434MOL0     H58536   3.275   4.448  10.417 -0.6959 -0.6490 -2.5790
  434MOL0     H58537   3.322   4.666  10.573  0.7566 -1.4023 -0.7356
  434MOL0     H58538   3.319   4.744  10.414  1.7505 -0.8170 -2.5528
  434MOL0     H58539   3.490   4.576  10.352  4.4347  0.1803  0.1401
  434MOL0     H58540   3.525   4.714  10.455 -0.3670  0.6313 -0.5546
  434MOL0     H58541   3.620   4.636  10.711  0.4031 -1.9731  1.2056
  434MOL0     H58542   3.765   4.487  10.882 -1.7696  0.4068 -0.1681
  434MOL0     H58543   3.663   4.354  10.909  1.1004  1.3206  1.8587
  434MOL0     H58544   3.831   4.243  10.927 -1.5392  0.6207  0.8088
  434MOL0     H58545   3.770   4.208  10.762 -2.1941 -0.0781  2.6372
  434MOL0     H58546   3.972   4.427  10.829 -2.3730  1.5817 -0.7109
  434MOL0     H58547   3.928   4.370  10.664 -0.9991 -2.4411 -0.7658
  434MOL0     H58548   4.035   4.139  10.725  0.6280 -0.0487 -2.1603
  434MOL0     H58549   4.094   4.233  10.872 -3.5920 -2.3874  0.5973
  434MOL0     H58550   4.243   4.052  10.825  0.0760  0.4323 -1.4687
  434MOL0     H58551   4.460   3.969  10.817 -0.7804 -1.4057 -2.7915
  434MOL0     H58552   4.879   3.907  10.489 -1.2317  3.2473 -0.4675
  434MOL0     H58553   5.097   3.808  10.522  3.3661  1.2687  1.6369
  434MOL0     H58554   5.332   3.775  10.528 -3.1569  0.3502  0.1945
  434MOL0     H58555   5.336   3.945  10.495 -4.0115  2.1029  1.5879
  434MOL0     H58556   5.522   3.991  10.612 -2.1115  0.4601 -0.8094
  434MOL0     H58557   5.522   3.861  10.717 -4.6513  0.1306  1.8030
  434MOL0     H58558   5.559   3.709  10.484  0.5204  1.0009 -3.0156
  434MOL0     H58559   5.595   3.872  10.417  0.8395  0.5302  0.1843
  434MOL0     H58560   5.738   3.758  10.650 -0.7725  1.3979 -0.5750
  434MOL0     H58561   5.780   3.900  10.561 -0.7207  0.6140  0.4607
  434MOL0     H58562   5.846   3.796  10.371  0.4449 -0.0228 -0.1483
  434MOL0     H58563   5.802   3.634  10.419 -0.3890  0.0235  2.2126
  434MOL0     H58564   6.049   3.710  10.435 -1.0386  0.1521 -0.3688
  434MOL0     H58565   5.981   3.832  10.551 -3.0206 -0.5871  2.4928
  434MOL0     H58566   5.899   3.584  10.657 -1.7567  2.3925 -1.4451
  434MOL0     H58567   6.047   3.681  10.705 -0.0005  2.1329 -1.1185
  434MOL0     H58568   6.042   3.468  10.503 -0.0371  2.0697 -0.9564
  434MOL0     H58569   6.189   3.537  10.592 -0.6486  2.5342  0.9871
  434MOL0     H58570   5.198   4.099  10.814  1.1548  0.8104 -1.1936
  434MOL0     H58571   4.980   4.201  10.794  1.4509 -0.5747  1.9114
  434MOL0     H58572   4.597   4.280  10.566 -1.1988 -2.0213 -4.0015
  434MOL0     H58573   4.383   4.375  10.560 -0.8887  1.2831  0.2078
  434MOL0     H58574   2.510   4.516   9.865 -3.4516  3.2573  0.6931
  434MOL0     H58575   2.378   4.592   9.673  0.5486 -1.3522  0.1772
  434MOL0     H58576   2.302   4.935   9.424 -0.1046 -1.5346 -0.3975
  434MOL0     H58577   2.171   5.069   9.287  0.4379 -1.8503  1.3312
  434MOL0     H58578   2.176   5.268   9.143  0.2703 -0.9414 -0.4647
  434MOL0     H58579   2.027   5.164   9.119  0.0967  0.8461  1.4134
  434MOL0     H58580   2.010   5.382   9.002 -0.4788 -0.2332 -0.0153
  434MOL0     H58581   2.017   5.233   8.903 -0.3144 -1.1306  2.4892
  434MOL0     H58582   2.263   5.295   8.846 -1.5255  0.2170 -3.4531
  434MOL0     H58583   2.235   5.439   8.953  1.4146 -0.3093 -0.8784
  434MOL0     H58584   2.096   5.364   8.703 -1.6131  1.4588 -2.6991
  434MOL0     H58585   2.052   5.506   8.800  0.8455  1.9877 -0.6714
  434MOL0     H58586   2.412   5.602   8.573 -1.0503  1.6351  0.4916
  434MOL0     H58587   2.379   4.929   8.937 -2.6313 -1.1535 -0.4391
  434MOL0     H58588   2.489   4.629   9.058 -1.2200  0.7682  1.5775
  434MOL0     H58589   2.497   4.742   8.926 -0.9764 -1.7587  0.0960
  434MOL0     H58590   2.619   4.760   9.055 -0.5789  0.5021  0.9877
  435MOL0     O58591   5.540   6.603   6.542  0.3368 -0.7577  0.5561
  435MOL0     C58592   5.445   6.670   6.500 -0.6766 -0.5934  1.0162
  435MOL0     O58593   5.446   6.805   6.493  0.2045 -0.7729  0.6944
  435MOL0     C58594   5.547   6.871   6.553  0.4655 -0.3941  0.0401
  435MOL0     C58595   5.615   6.966   6.485  0.0759  0.3614  0.6133
  435MOL0     C58596   5.720   7.030   6.545  0.0090 -0.6137  0.6594
  435MOL0     C58597   5.768   7.005   6.671  0.3816 -0.0526  0.7712
  435MOL0     O58598   5.889   7.058   6.714  0.7965 -0.3802  0.3696
  435MOL0     C58599   5.943   6.982   6.824 -0.3063  0.1783  0.5454
  435MOL0     C58600   6.091   7.021   6.836  0.3840 -0.0948 -0.2030
  435MOL0     C58601   6.153   6.964   6.973  0.1702 -0.6012 -0.2725
  435MOL0     C58602   6.148   7.051   7.099  0.1432 -0.0741 -0.3442
  435MOL0     C58603   6.013   7.091   7.151 -0.2661  0.2547  0.0764
  435MOL0     C58604   6.016   7.177   7.279 -0.0638  0.0494  0.9586
  435MOL0     C58605   5.884   7.202   7.341  0.3466  1.1780 -0.2837
  435MOL0     C58606   5.877   7.316   7.444  0.8505  0.0884  0.1415
  435MOL0     N58607   5.743   7.338   7.510 -0.1682 -0.0358  0.1736
  435MOL0     C58608   5.702   7.452   7.565  0.8041 -0.3266  0.1972
  435MOL0     C58609   5.578   7.420   7.612 -0.7178 -0.2639  1.4065
  435MOL0     C58610   5.498   7.518   7.689  0.8964  0.1589 -0.4040
  435MOL0     C58611   5.445   7.646   7.623  0.0169  0.7775 -0.9280
  435MOL0     C58612   5.403   7.756   7.716 -0.8161  0.5568  0.1567
  435MOL0     C58613   5.284   7.731   7.799 -0.3574 -0.1489  0.8778
  435MOL0     O58614   5.253   7.859   7.866 -0.3285  0.1265  0.2336
  435MOL0     C58615   5.141   7.876   7.942 -0.7447  0.1793  0.0830
  435MOL0     C58616   5.127   7.994   8.022 -0.4542 -0.0206  0.0586
  435MOL0     C58617   5.014   8.005   8.107 -0.0283  0.2602  0.3059
  435MOL0     C58618   4.909   7.912   8.102  0.1629  0.4447 -0.5944
  435MOL0     C58619   4.778   7.935   8.164 -0.2534 -0.0231 -0.1281
  435MOL0     O58620   4.772   8.034   8.268  1.0302  0.0474 -0.3731
  435MOL0     C58621   4.643   8.081   8.296  0.4561 -1.1740  0.0601
  435MOL0     C58622   4.596   8.207   8.256 -0.3022 -0.5570 -0.5246
  435MOL0     C58623   4.459   8.244   8.275 -0.6763 -0.0230  1.2479
  435MOL0     C58624   4.381   8.166   8.356 -0.6328  0.5783  0.0441
  435MOL0     O58625   4.255   8.206   8.392  0.4056  0.3763 -0.2028
  435MOL0     C58626   4.149   8.190   8.288 -0.5805 -0.7998 -0.8494
  435MOL0     C58627   4.033   8.283   8.305 -0.3094  1.2835  0.1400
  435MOL0     C58628   4.013   8.370   8.174 -0.1073  0.7153 -0.1195
  435MOL0     C58629   4.084   8.506   8.185 -0.3776 -1.3710  0.6439
  435MOL0     C58630   4.116   8.564   8.048  0.2119 -0.1888  0.0164
  435MOL0     C58631   4.248   8.491   7.988 -0.1176 -0.6508  0.1161
  435MOL0     C58632   4.264   8.478   7.836  0.5162  0.2359  0.0838
  435MOL0     C58633   4.316   8.339   7.787 -0.5793 -0.2127 -0.0298
  435MOL0    Cl58634   4.235   8.308   7.638 -0.0394 -0.0370 -0.0732
  435MOL0     C58635   4.428   8.046   8.404  0.0885 -0.8884  0.1150
  435MOL0     C58636   4.558   8.002   8.375  0.2412 -0.8439 -1.0218
  435MOL0     O58637   4.678   7.881   8.110 -0.3899 -0.1042 -0.1843
  435MOL0     C58638   4.926   7.790   8.022  0.2441 -0.3155 -0.3768
  435MOL0     C58639   5.042   7.778   7.950 -0.5112  0.7622 -0.1386
  435MOL0     N58640   5.537   7.298   7.563  1.0235  0.9232 -0.2121
  435MOL0     N58641   5.644   7.242   7.519  0.5726 -0.8942  0.0066
  435MOL0     C58642   5.689   6.920   6.746  0.4557  0.2544 -0.0360
  435MOL0     C58643   5.577   6.851   6.688  0.1378 -0.5093 -0.8772
  435MOL0     C58644   5.326   6.605   6.435 -0.0025  0.4720 -0.1989
  435MOL0     C58645   5.224   6.687   6.389  0.4770  1.0478  0.4308
  435MOL0     C58646   5.116   6.631   6.324 -0.8833 -0.5951  0.2124
  435MOL0     C58647   5.108   6.497   6.303  0.0643  0.3735  0.1594
  435MOL0     O58648   5.012   6.456   6.219 -0.1649 -0.7107 -0.2297
  435MOL0     C58649   4.980   6.316   6.228  0.6704  0.2120  0.1503
  435MOL0     C58650   4.853   6.305   6.152 -0.2583  1.0414 -0.2083
  435MOL0     C58651   4.728   6.329   6.235 -0.9239 -0.8624 -1.9015
  435MOL0     C58652   4.598   6.326   6.160  0.2262 -0.5561  0.1124
  435MOL0     C58653   4.591   6.211   6.059  0.8076 -1.0822 -0.3695
  435MOL0     C58654   4.579   6.131   5.978  0.4353  0.6217  1.1173
  435MOL0     C58655   5.208   6.419   6.342  0.0765 -0.9702 -0.1263
  435MOL0     C58656   5.320   6.464   6.410 -0.7263  0.0785  0.1149
  435MOL0     C58657   5.423   6.358   6.465 -0.9930  0.3185  0.4420
  435MOL0     H58658   5.574   6.997   6.390 -0.4173  0.9218  1.0040
  435MOL0     H58659   5.772   7.110   6.494  2.1311  0.1261  3.7154
  435MOL0     H58660   5.910   7.017   6.923  2.4308  1.8613  0.9745
  435MOL0     H58661   5.949   6.875   6.804 -2.2028  0.2584 -0.6645
  435MOL0     H58662   6.099   7.130   6.843  1.9991 -0.2736  1.6867
  435MOL0     H58663   6.150   6.989   6.750  0.0015  1.4947 -1.0861
  435MOL0     H58664   6.261   6.949   6.969  0.6115  0.1387  4.0206
  435MOL0     H58665   6.121   6.860   6.989  4.2623 -1.7749  1.4742
  435MOL0     H58666   6.211   7.008   7.177  0.3473 -0.8472 -0.9178
  435MOL0     H58667   6.204   7.138   7.066  0.1656  0.4153  0.9508
  435MOL0     H58668   5.975   7.153   7.069  1.4778 -2.4294 -3.0005
  435MOL0     H58669   5.956   6.998   7.165  1.5607 -0.9102  0.1176
  435MOL0     H58670   6.078   7.121   7.350  1.4570 -0.6475 -0.8463
  435MOL0     H58671   6.055   7.278   7.262 -0.8229  0.7952  3.3159
  435MOL0     H58672   5.851   7.108   7.385 -0.4934  2.2127  1.3834
  435MOL0     H58673   5.813   7.226   7.262 -0.6719 -0.1753  0.1901
  435MOL0     H58674   5.949   7.295   7.524  2.1491  1.2259 -0.6889
  435MOL0     H58675   5.919   7.408   7.403  3.5195 -1.1787 -0.2402
  435MOL0     H58676   5.743   7.551   7.581 -0.0331  0.2168 -0.8604
  435MOL0     H58677   5.410   7.460   7.721  1.1108 -0.0006 -0.0930
  435MOL0     H58678   5.543   7.546   7.785  2.9299 -2.4107 -0.4859
  435MOL0     H58679   5.518   7.676   7.547  1.4523  1.4655  0.6770
  435MOL0     H58680   5.358   7.615   7.563 -0.0160 -5.2035  1.4534
  435MOL0     H58681   5.379   7.841   7.651 -0.9823 -0.3299 -0.9851
  435MOL0     H58682   5.493   7.781   7.773  0.0207  1.0067 -1.3143
  435MOL0     H58683   5.295   7.655   7.877  0.2324  0.2730  1.2126
  435MOL0     H58684   5.200   7.710   7.732  0.0176  1.9263 -0.3213
  435MOL0     H58685   5.209   8.065   8.034 -1.0483  0.2251  3.8257
  435MOL0     H58686   5.005   8.095   8.167  1.4491  0.3806  0.3642
  435MOL0     H58687   4.673   8.256   8.197  1.7932 -4.2187 -1.1875
  435MOL0     H58688   4.416   8.334   8.232  1.3204 -0.6582 -2.4825
  435MOL0     H58689   4.203   8.210   8.195 -2.1581  2.3958 -1.1849
  435MOL0     H58690   4.119   8.084   8.291  2.7400 -1.8835 -1.4623
  435MOL0     H58691   3.952   8.211   8.321  1.4392 -1.1382 -1.2447
  435MOL0     H58692   4.034   8.348   8.394  2.4790  0.7168  0.6178
  435MOL0     H58693   4.051   8.320   8.084  2.5132 -0.0473  1.2870
  435MOL0     H58694   3.906   8.391   8.169 -0.1549  0.4080 -0.4953
  435MOL0     H58695   4.173   8.498   8.248 -0.4800  1.5911  1.3268
  435MOL0     H58696   4.027   8.587   8.231  0.2532  0.1842 -1.1967
  435MOL0     H58697   4.125   8.673   8.053 -2.7451  0.2216 -1.4306
  435MOL0     H58698   4.027   8.535   7.992 -0.3084  0.4647  0.4910
  435MOL0     H58699   4.339   8.537   8.029 -0.6277  1.0876 -0.5980
  435MOL0     H58700   4.247   8.391   8.032  2.1963  0.2385  2.5058
  435MOL0     H58701   4.298   8.573   7.794 -5.4535  2.5299 -0.5723
  435MOL0     H58702   4.164   8.486   7.792  1.0630  0.5143 -1.1372
  435MOL0     H58703   4.425   8.342   7.789 -0.5765  0.0647 -0.4729
  435MOL0     H58704   4.284   8.263   7.859 -1.0485 -0.7006 -0.7378
  435MOL0     H58705   4.349   7.994   8.456  0.9347 -1.4445  0.8731
  435MOL0     H58706   4.589   7.906   8.415 -1.9117 -1.7265 -1.3410
  435MOL0     H58707   4.849   7.714   8.029 -1.2581  1.3013  1.7783
  435MOL0     H58708   5.048   7.684   7.896 -0.1663  0.4716  0.4000
  435MOL0     H58709   5.704   6.899   6.851 -1.6295  1.1161  0.4873
  435MOL0     H58710   5.514   6.785   6.746 -1.4000 -1.1707 -3.1575
  435MOL0     H58711   5.213   6.793   6.411  1.1674  1.3110 -0.4339
  435MOL0     H58712   5.038   6.700   6.293  0.5355  1.7537  1.5569
  435MOL0     H58713   4.964   6.280   6.331 -0.9935  1.4505  0.3580
  435MOL0     H58714   5.049   6.248   6.177  0.4871 -1.7724  2.3618
  435MOL0     H58715   4.848   6.202   6.115 -4.4141  0.5723  1.1076
  435MOL0     H58716   4.849   6.367   6.063 -0.0430  0.1930 -0.8233
  435MOL0     H58717   4.735   6.432   6.270 -2.5071 -1.0729 -0.8895
  435MOL0     H58718   4.742   6.259   6.318  2.0197  0.9038 -0.7489
  435MOL0     H58719   4.525   6.304   6.239 -0.9999  0.7640 -0.6113
  435MOL0     H58720   4.570   6.425   6.123 -0.0980 -0.0980  1.4990
  435MOL0     H58721   4.598   6.082   5.885  1.9718  0.3171  1.5677
  435MOL0     H58722   5.207   6.319   6.299 -1.3489  0.3168 -3.4600
  435MOL0     H58723   5.521   6.348   6.416 -0.3796  2.1625  1.1730
  435MOL0     H58724   5.450   6.381   6.569 -1.0640 -0.8984  0.7399
  435MOL0     H58725   5.370   6.263   6.458  2.1576 -1.4863 -4.3011
  436MOL0     O58726   6.316   8.399   4.674  0.3500 -0.4242  0.8931
  436MOL0     C58727   6.327   8.493   4.749 -0.4095 -0.2047  0.3144
  436MOL0     O58728   6.448   8.545   4.778 -0.3509 -0.1726  0.4531
  436MOL0     C58729   6.565   8.506   4.729  0.7097 -0.1333  0.5182
  436MOL0     C58730   6.647   8.609   4.670  0.6612  0.3973 -0.8209
  436MOL0     C58731   6.774   8.573   4.637 -0.3890  0.3431  0.6155
  436MOL0     C58732   6.828   8.448   4.654 -0.3517  0.4388 -0.6190
  436MOL0     O58733   6.959   8.441   4.626 -0.0466  0.3521 -0.3402
  436MOL0     C58734   7.035   8.320   4.643 -0.4850  0.1862  0.1589
  436MOL0     C58735   7.083   8.303   4.792  0.8106  0.1517 -0.4965
  436MOL0     C58736   7.133   8.436   4.849 -0.1157  0.1062  0.0140
  436MOL0     C58737   7.186   8.411   4.986 -0.3850 -0.3040 -0.6084
  436MOL0     C58738   7.240   8.542   5.043 -0.5843  0.9129  0.2338
  436MOL0     C58739   7.383   8.559   4.989 -0.8246  0.1239 -0.6766
  436MOL0     C58740   7.457   8.679   5.046 -0.7055  0.4141  0.5169
  436MOL0     C58741   7.421   8.814   4.982 -0.2968  0.5348  0.2643
  436MOL0     N58742   7.460   8.936   5.061 -0.1422 -0.3791  0.2715
  436MOL0     C58743   7.410   8.974   5.188 -0.3596 -0.4622 -0.1061
  436MOL0     C58744   7.493   9.083   5.218  0.0007  0.8111 -1.2585
  436MOL0     C58745   7.509   9.148   5.353 -0.4135 -0.1852  0.4208
  436MOL0     C58746   7.604   9.073   5.445 -0.3565 -0.2278 -0.5854
  436MOL0     C58747   7.744   9.122   5.406 -1.3073  1.9269 -0.5157
  436MOL0     C58748   7.844   9.072   5.516 -0.1603 -0.5432 -0.2158
  436MOL0     O58749   7.909   8.947   5.487  0.3606  0.0201 -0.1614
  436MOL0     C58750   8.044   8.930   5.520  1.0942  0.0849 -0.3627
  436MOL0     C58751   8.098   8.802   5.497  0.0062  0.2908  0.1813
  436MOL0     C58752   8.226   8.782   5.536  0.0206 -0.7040  0.6282
  436MOL0     C58753   8.301   8.881   5.600 -0.4140 -0.3492 -0.2561
  436MOL0     C58754   8.446   8.854   5.647  1.0355 -0.0438  1.0171
  436MOL0     O58755   8.506   8.749   5.591 -0.4667 -0.4982 -0.4460
  436MOL0     C58756   8.627   8.727   5.643 -0.3705 -0.5424  0.5267
  436MOL0     C58757   8.650   8.651   5.755  0.5101  0.3610 -1.0035
  436MOL0     C58758   8.769   8.631   5.815 -0.6746 -0.0612 -0.2241
  436MOL0     C58759   8.876   8.698   5.765 -0.2992  0.6018 -0.3408
  436MOL0     O58760   8.997   8.670   5.820  0.5441  0.2957 -0.7997
  436MOL0     C58761   9.114   8.724   5.762  0.2461  0.1785 -0.8517
  436MOL0     C58762   9.232   8.666   5.842  0.4373 -0.6998 -0.0736
  436MOL0     C58763   9.356   8.727   5.797 -0.7081  0.9214  0.1283
  436MOL0     C58764   9.477   8.680   5.864 -0.0338  0.0162 -0.1940
  436MOL0     C58765   9.591   8.759   5.800 -0.0187  0.6164 -0.2458
  436MOL0     C58766   9.725   8.733   5.879  0.2220  0.0693  0.0634
  436MOL0     C58767   9.826   8.849   5.887 -0.5307 -0.4740 -0.7007
  436MOL0     C58768   9.896   8.878   5.757 -0.5899  1.1313  0.3202
  436MOL0    Cl58769  10.015   8.748   5.726 -0.0072  0.1118  0.4102
  436MOL0     C58770   8.857   8.771   5.637 -0.3394 -0.2498 -0.7022
  436MOL0     C58771   8.736   8.790   5.578 -0.6457  0.1569  0.1590
  436MOL0     O58772   8.496   8.942   5.708 -0.4033  0.0248 -0.0816
  436MOL0     C58773   8.246   9.009   5.619 -0.0407 -0.4424  0.0682
  436MOL0     C58774   8.117   9.026   5.586  0.0173 -0.5037 -0.8045
  436MOL0     N58775   7.557   9.124   5.108 -0.0952  0.6470  0.1867
  436MOL0     N58776   7.544   9.039   5.018 -0.3197 -0.4623  0.1617
  436MOL0     C58777   6.743   8.348   4.707 -0.7458  0.7724  0.7481
  436MOL0     C58778   6.612   8.380   4.748 -0.2487 -0.2747  0.6821
  436MOL0     C58779   6.207   8.516   4.824 -0.2870 -0.5156  0.9091
  436MOL0     C58780   6.220   8.562   4.956 -0.2724  0.0502 -0.2144
  436MOL0     C58781   6.110   8.569   5.040 -0.5567  0.7672  0.6395
  436MOL0     C58782   5.981   8.545   4.997  0.1033 -0.3235  0.0993
  436MOL0     O58783   5.865   8.570   5.066  0.2711  0.8190  0.4981
  436MOL0     C58784   5.874   8.633   5.183 -0.4879 -0.3306 -1.7066
  436MOL0     C58785   5.736   8.671   5.241  0.7948 -0.0765 -0.0255
  436MOL0     C58786   5.760   8.752   5.367 -0.2971 -0.2936 -0.5949
  436MOL0     C58787   5.634   8.773   5.458  0.6836  0.1071 -0.2408
  436MOL0     C58788   5.644   8.886   5.553 -0.1357  0.0824  0.0780
  436MOL0     C58789   5.632   8.989   5.611 -0.1050  0.2074  0.1994
  436MOL0     C58790   5.971   8.518   4.860 -0.0767  0.2251 -0.4265
  436MOL0     C58791   6.080   8.505   4.771 -0.5084  0.5264 -1.0452
  436MOL0     C58792   6.056   8.446   4.636  0.0776 -0.5844  0.0048
  436MOL0     H58793   6.614   8.711   4.649 -2.7803 -0.5792 -0.6695
  436MOL0     H58794   6.839   8.649   4.595  1.0997 -0.7745  0.8065
  436MOL0     H58795   6.977   8.236   4.603  0.2271  0.9179 -2.6734
  436MOL0     H58796   7.128   8.330   4.586  2.0647 -0.2349  3.8898
  436MOL0     H58797   7.170   8.236   4.785  0.8048  0.0951 -0.0868
  436MOL0     H58798   6.998   8.252   4.839 -1.1490  0.5015 -3.3964
  436MOL0     H58799   7.050   8.505   4.867 -1.1744  0.1579 -4.1416
  436MOL0     H58800   7.206   8.463   4.772 -0.9736 -1.5158 -1.4190
  436MOL0     H58801   7.110   8.365   5.049 -0.1628 -1.8042 -1.3823
  436MOL0     H58802   7.260   8.331   4.978 -2.6261 -2.7981  1.8806
  436MOL0     H58803   7.187   8.636   5.025 -0.4043  1.8347  3.7887
  436MOL0     H58804   7.247   8.521   5.150  0.2364  0.5744  0.1176
  436MOL0     H58805   7.438   8.468   5.016 -1.8615 -0.7798 -1.5232
  436MOL0     H58806   7.370   8.570   4.881  0.0703 -0.6945 -0.8845
  436MOL0     H58807   7.563   8.656   5.034 -0.2864  2.4399 -0.0428
  436MOL0     H58808   7.434   8.688   5.153  3.2141  2.7982  1.3653
  436MOL0     H58809   7.485   8.829   4.894  1.4103  0.3096  1.4120
  436MOL0     H58810   7.318   8.821   4.947 -0.6603 -2.2369  0.6247
  436MOL0     H58811   7.343   8.920   5.254  0.4528 -2.9761 -1.2071
  436MOL0     H58812   7.528   9.254   5.336 -2.2552  0.0176 -0.7193
  436MOL0     H58813   7.409   9.154   5.397 -0.1260  1.8656  0.9165
  436MOL0     H58814   7.567   9.102   5.544 -2.5036  1.1640 -1.7225
  436MOL0     H58815   7.602   8.964   5.432  3.0970 -0.5595  0.6170
  436MOL0     H58816   7.749   9.231   5.397  0.2464  1.8158 -1.3982
  436MOL0     H58817   7.772   9.069   5.314 -1.0135 -1.4413  1.3484
  436MOL0     H58818   7.796   9.050   5.612  0.6186 -0.9398  0.0859
  436MOL0     H58819   7.909   9.159   5.517 -0.2767 -0.4526 -0.4555
  436MOL0     H58820   8.043   8.729   5.439  1.4816 -1.4501  0.9129
  436MOL0     H58821   8.259   8.679   5.524 -3.0122 -1.7686  0.4663
  436MOL0     H58822   8.568   8.607   5.812  0.7777 -0.6249 -1.3530
  436MOL0     H58823   8.786   8.558   5.894 -1.6113 -2.8836 -2.4862
  436MOL0     H58824   9.115   8.706   5.654 -2.1637  5.6284 -2.0870
  436MOL0     H58825   9.114   8.833   5.762 -2.4252  0.2462 -2.2148
  436MOL0     H58826   9.212   8.683   5.949 -2.3519 -2.0951 -0.2730
  436MOL0     H58827   9.239   8.557   5.839  2.0111 -0.6408  0.5994
  436MOL0     H58828   9.375   8.695   5.694 -0.0733  1.0057  0.2150
  436MOL0     H58829   9.357   8.836   5.808  1.1257  1.2634 -2.4173
  436MOL0     H58830   9.494   8.573   5.855  1.1341  0.0283  1.3517
  436MOL0     H58831   9.472   8.694   5.973 -0.3833 -2.9330  0.2358
  436MOL0     H58832   9.574   8.867   5.813 -2.0587  0.0761  2.4232
  436MOL0     H58833   9.600   8.735   5.694 -1.3412  0.2675 -0.2852
  436MOL0     H58834   9.702   8.708   5.983 -0.3115  1.7827  0.3847
  436MOL0     H58835   9.786   8.650   5.842 -1.3392 -0.3020 -1.9040
  436MOL0     H58836   9.902   8.821   5.961 -0.1237  1.6263 -0.2682
  436MOL0     H58837   9.771   8.937   5.921 -3.4914 -2.3507 -0.1942
  436MOL0     H58838   9.824   8.878   5.674 -0.0778  0.3620 -0.1231
  436MOL0     H58839   9.956   8.969   5.769  1.8494 -0.3667 -0.0775
  436MOL0     H58840   8.948   8.800   5.585 -0.2998  0.5044 -0.2354
  436MOL0     H58841   8.719   8.845   5.487 -0.2602 -0.7113 -0.4520
  436MOL0     H58842   8.313   9.089   5.652  1.1764 -1.1390 -0.6355
  436MOL0     H58843   8.078   9.126   5.606 -3.5666 -2.0485  0.7396
  436MOL0     H58844   6.773   8.245   4.727  0.7990  1.2501  0.9756
  436MOL0     H58845   6.546   8.318   4.807  0.0489  1.2340  2.6784
  436MOL0     H58846   6.319   8.571   4.999  0.2302 -1.1772 -1.0964
  436MOL0     H58847   6.134   8.584   5.145  2.4147 -2.6376  0.6750
  436MOL0     H58848   5.941   8.718   5.169  2.2081 -2.3464 -1.7788
  436MOL0     H58849   5.914   8.583   5.272 -3.8772  2.5477  1.8415
  436MOL0     H58850   5.694   8.572   5.262 -0.1622  0.1195 -0.9785
  436MOL0     H58851   5.678   8.725   5.166  0.3084 -1.4987 -0.7144
  436MOL0     H58852   5.790   8.852   5.336 -1.3223 -0.3528 -1.8562
  436MOL0     H58853   5.840   8.710   5.428 -1.6306 -0.6625  0.9770
  436MOL0     H58854   5.549   8.790   5.391  1.7913  0.6377 -1.5436
  436MOL0     H58855   5.622   8.685   5.523 -0.6559 -0.1480 -0.8000
  436MOL0     H58856   5.608   9.077   5.668  1.5409 -1.5865  4.0041
  436MOL0     H58857   5.871   8.516   4.818 -0.2580  0.0730  0.0057
  436MOL0     H58858   6.078   8.342   4.610  2.3475  0.1537 -1.3287
  436MOL0     H58859   5.948   8.459   4.622  0.1680  2.7231  1.5259
  436MOL0     H58860   6.118   8.493   4.559 -1.8488  2.7698  0.3037
  437MOL0     O58861   5.611   7.475   5.902 -0.8955  0.2100 -0.2624
  437MOL0     C58862   5.512   7.515   5.838  0.2990  0.2552 -0.4230
  437MOL0     O58863   5.514   7.560   5.703  0.3428 -0.4561 -0.0530
  437MOL0     C58864   5.626   7.584   5.622  0.2630 -0.2347  0.5356
  437MOL0     C58865   5.607   7.641   5.490 -0.0778 -0.4002  0.2665
  437MOL0     C58866   5.717   7.700   5.423 -0.2507  0.7131  0.6863
  437MOL0     C58867   5.846   7.677   5.471 -0.0004 -0.2374  0.2565
  437MOL0     O58868   5.939   7.728   5.385 -0.6857  0.0552 -0.4081
  437MOL0     C58869   6.077   7.690   5.415 -0.2338 -0.7628  0.2602
  437MOL0     C58870   6.151   7.692   5.280 -0.1187  0.2404  0.9923
  437MOL0     C58871   6.309   7.709   5.289 -0.1117  0.2395 -0.9386
  437MOL0     C58872   6.362   7.570   5.343 -0.5457  0.0606  0.1326
  437MOL0     C58873   6.513   7.571   5.383 -0.5297 -0.4073  0.4553
  437MOL0     C58874   6.559   7.434   5.440 -0.7305  0.4795 -1.0691
  437MOL0     C58875   6.712   7.436   5.468 -0.5471  0.1387 -0.4310
  437MOL0     C58876   6.796   7.400   5.348 -0.1708 -0.4736 -0.6013
  437MOL0     N58877   6.788   7.257   5.317  0.2951  0.4715  0.9107
  437MOL0     C58878   6.856   7.154   5.376 -0.1287 -0.7629 -0.3180
  437MOL0     C58879   6.806   7.039   5.319  0.1445  0.3500  0.7087
  437MOL0     C58880   6.878   6.915   5.358 -0.1512  0.2098  0.5399
  437MOL0     C58881   6.938   6.837   5.244  0.3418  0.1208 -0.1548
  437MOL0     C58882   7.025   6.924   5.161 -0.4573 -0.4236 -0.2925
  437MOL0     C58883   7.127   6.840   5.088 -0.2956  0.7479  0.0297
  437MOL0     O58884   7.227   6.816   5.180 -0.1920 -0.0483 -0.1016
  437MOL0     C58885   7.269   6.691   5.225 -0.3621 -0.5194  0.0929
  437MOL0     C58886   7.373   6.689   5.322  0.0249  0.0137 -0.1183
  437MOL0     C58887   7.438   6.569   5.360  0.4794  0.9824  0.9414
  437MOL0     C58888   7.372   6.442   5.329 -0.2171 -0.8495  1.0272
  437MOL0     C58889   7.441   6.316   5.360 -0.8113  0.5190 -0.9004
  437MOL0     O58890   7.577   6.317   5.391  0.5273  0.7368 -0.0880
  437MOL0     C58891   7.667   6.218   5.365  0.4678  0.0694 -0.4000
  437MOL0     C58892   7.662   6.145   5.245  0.4505  1.3242 -0.8327
  437MOL0     C58893   7.766   6.061   5.216 -0.8731 -0.1446 -0.6818
  437MOL0     C58894   7.887   6.068   5.284 -0.1190  1.0095  0.8655
  437MOL0     O58895   7.982   5.988   5.240  0.1297  0.4748 -0.3930
  437MOL0     C58896   8.100   6.046   5.190 -0.6256 -0.3724 -0.3492
  437MOL0     C58897   8.184   5.944   5.109  0.2373  0.7972  0.0489
  437MOL0     C58898   8.319   5.987   5.061 -0.5994  0.2236 -0.8077
  437MOL0     C58899   8.319   6.069   4.937  0.2095  0.4374  0.5719
  437MOL0     C58900   8.458   6.109   4.881 -0.1734 -1.0726  0.6023
  437MOL0     C58901   8.448   6.232   4.789 -0.1447  0.0595 -0.4759
  437MOL0     C58902   8.584   6.248   4.717 -0.4989  0.0057 -0.2461
  437MOL0     C58903   8.579   6.351   4.612  0.2966 -0.1454  0.1657
  437MOL0    Cl58904   8.730   6.396   4.541 -0.2115  0.0041 -0.1130
  437MOL0     C58905   7.898   6.136   5.399 -0.4999  0.0022 -0.1889
  437MOL0     C58906   7.785   6.221   5.443 -0.1466  0.1713 -0.6845
  437MOL0     O58907   7.379   6.221   5.343 -0.1981  0.2256  0.0855
  437MOL0     C58908   7.255   6.441   5.255 -0.7405  0.0523  0.2179
  437MOL0     C58909   7.210   6.566   5.210  0.0540 -0.5076 -0.5768
  437MOL0     N58910   6.696   7.071   5.234 -0.6635  0.3978  0.1885
  437MOL0     N58911   6.699   7.196   5.230  0.0550 -0.5246  0.3813
  437MOL0     C58912   5.873   7.620   5.599 -0.6530 -0.4168  0.3888
  437MOL0     C58913   5.762   7.582   5.671  0.0383 -0.6206 -0.5727
  437MOL0     C58914   5.376   7.508   5.904 -1.0687  1.1201 -0.1471
  437MOL0     C58915   5.257   7.535   5.837 -0.1101  0.2512  0.8903
  437MOL0     C58916   5.136   7.531   5.897  0.5047 -0.2481 -0.3821
  437MOL0     C58917   5.119   7.511   6.033  0.0725  0.6323 -0.7813
  437MOL0     O58918   5.005   7.542   6.111  0.7984  0.1619  0.0684
  437MOL0     C58919   4.897   7.618   6.049  0.0470 -0.3287 -0.2736
  437MOL0     C58920   4.768   7.621   6.132  0.6223 -0.7734 -0.2957
  437MOL0     C58921   4.716   7.487   6.172 -0.6330  0.1094  0.1046
  437MOL0     C58922   4.618   7.507   6.285  0.0085  0.1494  0.3556
  437MOL0     C58923   4.507   7.594   6.247 -1.0499  0.4710  1.0818
  437MOL0     C58924   4.406   7.636   6.213  0.3454  0.6550 -1.3394
  437MOL0     C58925   5.234   7.474   6.102  0.8930  0.0138 -0.4208
  437MOL0     C58926   5.361   7.467   6.040 -0.2231 -0.2440  0.8160
  437MOL0     C58927   5.463   7.420   6.138  0.1720 -0.1233  0.1822
  437MOL0     H58928   5.511   7.638   5.440  0.5637  3.0603 -1.5280
  437MOL0     H58929   5.690   7.752   5.332 -0.5037 -1.8673 -0.8124
  437MOL0     H58930   6.117   7.761   5.488 -1.0455  0.3278 -0.3199
  437MOL0     H58931   6.075   7.596   5.471 -1.1730 -0.1366  1.3159
  437MOL0     H58932   6.108   7.778   5.227 -0.6099 -0.6730 -0.1360
  437MOL0     H58933   6.135   7.594   5.234  3.0900 -2.3075  4.7329
  437MOL0     H58934   6.343   7.782   5.363 -0.4774  1.9883 -2.4205
  437MOL0     H58935   6.349   7.740   5.191 -1.2424 -0.3012 -1.5869
  437MOL0     H58936   6.307   7.529   5.428  1.6210 -2.5548  0.4055
  437MOL0     H58937   6.350   7.507   5.254 -3.8795  0.9656 -0.1981
  437MOL0     H58938   6.570   7.583   5.290 -1.5310 -0.3506 -0.1731
  437MOL0     H58939   6.541   7.651   5.452  0.7367 -0.0494 -0.4549
  437MOL0     H58940   6.521   7.422   5.542  2.4660 -0.3891  0.1749
  437MOL0     H58941   6.544   7.344   5.379  1.5068 -0.4836 -0.3107
  437MOL0     H58942   6.732   7.372   5.554 -1.6767  0.3076 -0.0227
  437MOL0     H58943   6.757   7.523   5.518  1.5128 -1.4954  0.7224
  437MOL0     H58944   6.745   7.451   5.267  2.8212 -1.0823 -3.0566
  437MOL0     H58945   6.903   7.421   5.356  0.3862 -2.8416 -1.2063
  437MOL0     H58946   6.928   7.157   5.457 -0.9888 -1.6357  0.4955
  437MOL0     H58947   6.956   6.925   5.433  1.7207 -1.2193 -1.1199
  437MOL0     H58948   6.807   6.838   5.393 -1.4451  0.9507 -0.3556
  437MOL0     H58949   6.994   6.749   5.277  1.2271  0.1087 -1.5857
  437MOL0     H58950   6.853   6.801   5.185  1.6092 -3.4529 -0.0324
  437MOL0     H58951   7.076   7.006   5.212  0.0304  0.1182 -1.6059
  437MOL0     H58952   6.965   6.973   5.084 -0.6732  0.7689  0.6075
  437MOL0     H58953   7.172   6.890   5.002 -0.7725  0.0836 -0.6214
  437MOL0     H58954   7.085   6.747   5.049  0.6367 -1.6835  4.2311
  437MOL0     H58955   7.422   6.778   5.361  1.9857 -0.8723 -0.4179
  437MOL0     H58956   7.527   6.571   5.421  0.7408  0.5290  0.5754
  437MOL0     H58957   7.569   6.142   5.191 -3.3150 -3.4045  4.7066
  437MOL0     H58958   7.756   6.003   5.124 -2.1367 -1.2048  0.0848
  437MOL0     H58959   8.075   6.135   5.131 -3.7432  0.2965  1.7378
  437MOL0     H58960   8.146   6.080   5.283 -1.9813 -0.0442  0.2275
  437MOL0     H58961   8.205   5.864   5.180 -1.3240 -0.7793 -1.1607
  437MOL0     H58962   8.131   5.898   5.024 -2.2391 -0.3946  2.1122
  437MOL0     H58963   8.370   6.044   5.138 -4.0306  2.2462  0.2019
  437MOL0     H58964   8.377   5.895   5.051  1.6118  1.2116  1.7001
  437MOL0     H58965   8.269   6.164   4.959  2.7134  1.8271  0.6567
  437MOL0     H58966   8.263   6.015   4.860  3.2511 -4.3852  1.3313
  437MOL0     H58967   8.495   6.031   4.814 -1.9825 -2.0338  0.6750
  437MOL0     H58968   8.535   6.127   4.957 -0.1832  2.5257 -0.0360
  437MOL0     H58969   8.371   6.216   4.713  1.0873 -2.2086 -1.3616
  437MOL0     H58970   8.426   6.327   4.839  2.2160  1.3227 -1.6148
  437MOL0     H58971   8.614   6.149   4.681  1.6798 -0.5196  2.6550
  437MOL0     H58972   8.659   6.277   4.791  2.7089 -3.4437 -1.8307
  437MOL0     H58973   8.519   6.306   4.532  1.2962  0.5447 -0.9926
  437MOL0     H58974   8.527   6.440   4.649  2.9399  1.3864  0.3735
  437MOL0     H58975   7.987   6.116   5.457  0.8910 -2.4308 -2.8850
  437MOL0     H58976   7.792   6.283   5.531  1.1171 -0.2735 -0.4495
  437MOL0     H58977   7.208   6.348   5.227 -1.5742  0.4673  0.1857
  437MOL0     H58978   7.122   6.578   5.148  1.2090 -1.9678 -2.6556
  437MOL0     H58979   5.974   7.631   5.638  0.2213 -1.2846 -1.5155
  437MOL0     H58980   5.775   7.560   5.776 -0.5268 -1.5527 -0.6851
  437MOL0     H58981   5.260   7.574   5.736  0.4572 -2.6685 -0.3084
  437MOL0     H58982   5.046   7.562   5.843  0.6960  2.4329  0.6891
  437MOL0     H58983   4.862   7.577   5.953 -2.0657  3.3384 -1.3060
  437MOL0     H58984   4.947   7.714   6.039  2.3655 -1.4395  0.0908
  437MOL0     H58985   4.693   7.660   6.062 -1.3674 -1.2795  1.4331
  437MOL0     H58986   4.793   7.685   6.218  2.1855 -1.3908 -0.2685
  437MOL0     H58987   4.807   7.430   6.193 -1.4608 -1.0097  0.7748
  437MOL0     H58988   4.675   7.437   6.084  2.3383 -3.1145  0.3299
  437MOL0     H58989   4.603   7.406   6.322  3.3488 -0.0661  1.4466
  437MOL0     H58990   4.668   7.550   6.372 -1.0743  2.6300 -0.1449
  437MOL0     H58991   4.311   7.663   6.172  0.7341  1.3234 -1.8184
  437MOL0     H58992   5.217   7.461   6.209 -1.1066  0.5775 -0.6249
  437MOL0     H58993   5.541   7.364   6.087  0.9406  1.7636 -0.8381
  437MOL0     H58994   5.496   7.514   6.183 -1.2382  1.0617 -1.1057
  437MOL0     H58995   5.423   7.356   6.217  0.2581  0.7073  0.9097
  438MOL0     O58996   1.921   3.173   4.682 -0.2735 -0.4319 -0.0667
  438MOL0     C58997   1.958   3.109   4.783 -0.7562 -0.3660 -0.4516
  438MOL0     O58998   2.010   2.981   4.787 -0.3583  0.3013  0.1664
  438MOL0     C58999   2.042   2.908   4.676 -0.0770 -0.2281  0.7966
  438MOL0     C59000   2.137   2.809   4.692 -1.4130 -0.1067 -0.4672
  438MOL0     C59001   2.174   2.724   4.593  0.5529  1.1602 -0.4879
  438MOL0     C59002   2.120   2.739   4.458 -0.3172  0.3163 -0.0243
  438MOL0     O59003   2.163   2.656   4.357 -0.4198  0.3329 -0.0562
  438MOL0     C59004   2.066   2.620   4.254  0.4448  0.1706  0.4020
  438MOL0     C59005   2.105   2.487   4.186 -0.0061 -0.0900 -1.1235
  438MOL0     C59006   2.228   2.517   4.096 -0.0131  0.7599 -0.8858
  438MOL0     C59007   2.272   2.396   4.019  0.7131  0.0267  0.3152
  438MOL0     C59008   2.385   2.414   3.921  0.4588  0.5382 -0.3827
  438MOL0     C59009   2.373   2.539   3.828 -0.3993  0.1868  0.9996
  438MOL0     C59010   2.497   2.541   3.744 -0.5297 -0.3835  0.3708
  438MOL0     C59011   2.545   2.681   3.686 -0.1037 -0.1458  0.1323
  438MOL0     N59012   2.580   2.794   3.772 -0.3567  0.1346 -0.1026
  438MOL0     C59013   2.594   2.795   3.912  0.2333 -0.3675  0.3408
  438MOL0     C59014   2.654   2.910   3.950 -0.2218  0.5045 -0.0409
  438MOL0     C59015   2.682   2.975   4.091  0.1025  0.8578 -0.4179
  438MOL0     C59016   2.838   2.961   4.123  0.1270 -0.2313 -0.2672
  438MOL0     C59017   2.856   2.809   4.154 -0.4118 -0.8158  0.4463
  438MOL0     C59018   3.012   2.777   4.154 -0.0292 -0.3031  0.1374
  438MOL0     O59019   3.079   2.805   4.024 -0.5795 -0.0689 -0.2280
  438MOL0     C59020   3.205   2.845   4.033 -0.3292 -0.4891  0.1451
  438MOL0     C59021   3.291   2.791   3.943 -0.7934  0.0620 -0.2500
  438MOL0     C59022   3.431   2.818   3.944  0.2777 -0.0078 -0.1928
  438MOL0     C59023   3.480   2.912   4.029 -0.2719 -0.1267 -0.1115
  438MOL0     C59024   3.620   2.952   4.022 -0.7942 -1.3064  0.2728
  438MOL0     O59025   3.700   2.857   3.972  0.6037  0.3386 -0.9050
  438MOL0     C59026   3.832   2.888   3.952  0.5396 -0.6344  0.1787
  438MOL0     C59027   3.885   2.892   3.821  0.2857 -0.3187  0.1723
  438MOL0     C59028   4.019   2.928   3.811  0.8591  0.0857 -0.0848
  438MOL0     C59029   4.099   2.952   3.918  0.3993  0.2307 -0.3687
  438MOL0     O59030   4.235   2.967   3.900 -1.0451 -0.7861  0.0956
  438MOL0     C59031   4.288   3.083   3.844 -0.5836  0.3127  0.3352
  438MOL0     C59032   4.387   3.161   3.935 -0.6146 -0.0219 -0.5704
  438MOL0     C59033   4.510   3.069   3.968 -0.8273 -0.6548  0.2688
  438MOL0     C59034   4.640   3.134   3.913 -0.0017  0.4789 -0.1473
  438MOL0     C59035   4.716   3.207   4.018 -0.1567 -0.9590  0.3341
  438MOL0     C59036   4.784   3.129   4.127  0.2828  0.7499  0.9778
  438MOL0     C59037   4.858   3.216   4.221 -0.4064 -0.6202 -0.1967
  438MOL0     C59038   4.995   3.271   4.174  0.3478 -0.9434 -0.5183
  438MOL0    Cl59039   5.113   3.137   4.187 -0.0121  0.4669 -0.4200
  438MOL0     C59040   4.045   2.931   4.044 -0.1064 -0.0379  0.6861
  438MOL0     C59041   3.913   2.896   4.055  0.6897 -0.6054  0.1922
  438MOL0     O59042   3.654   3.069   4.048 -0.0385  0.6822  0.3971
  438MOL0     C59043   3.397   2.966   4.125 -0.2210 -0.0125  0.6352
  438MOL0     C59044   3.260   2.945   4.116  0.6108 -0.3563  0.8112
  438MOL0     N59045   2.677   2.981   3.831  0.5407 -0.3785 -0.4197
  438MOL0     N59046   2.642   2.908   3.725 -0.5641  0.1900  0.5387
  438MOL0     C59047   2.009   2.820   4.445  1.5135  0.1594 -0.4052
  438MOL0     C59048   1.979   2.911   4.547 -0.7668 -1.1790 -1.0619
  438MOL0     C59049   1.925   3.177   4.917 -0.3705  0.0577  0.4246
  438MOL0     C59050   1.929   3.108   5.030 -0.8498  0.4556 -0.3322
  438MOL0     C59051   1.907   3.151   5.156 -0.6842 -1.5672 -0.3018
  438MOL0     C59052   1.880   3.288   5.186  0.0457 -0.1134  0.5116
  438MOL0     O59053   1.854   3.338   5.312  0.0560 -0.1912 -0.3243
  438MOL0     C59054   1.735   3.416   5.327  0.6400 -0.4158 -0.3578
  438MOL0     C59055   1.608   3.330   5.324 -0.7766  0.4872  0.1443
  438MOL0     C59056   1.616   3.190   5.378 -0.0751  0.6323  0.1903
  438MOL0     C59057   1.670   3.191   5.525 -0.1314 -0.3375  0.4972
  438MOL0     C59058   1.577   3.254   5.613  1.2585  0.2384  0.3570
  438MOL0     C59059   1.489   3.313   5.676  0.6466 -0.0705 -0.2068
  438MOL0     C59060   1.880   3.374   5.071 -0.4907  0.7975  1.4836
  438MOL0     C59061   1.907   3.320   4.943 -0.7845  0.9035  1.0571
  438MOL0     C59062   1.915   3.421   4.821 -0.4532  0.1723  0.0182
  438MOL0     H59063   2.192   2.811   4.785 -0.2061  3.3750 -1.0876
  438MOL0     H59064   2.252   2.657   4.628  0.0474  0.9827  0.3252
  438MOL0     H59065   1.965   2.609   4.296 -0.0653 -1.1159 -1.0885
  438MOL0     H59066   2.054   2.698   4.178  2.4422 -0.5880 -0.7492
  438MOL0     H59067   2.016   2.460   4.129 -0.5611  1.1818 -0.8814
  438MOL0     H59068   2.135   2.409   4.258  0.9858  1.7447  0.5488
  438MOL0     H59069   2.317   2.544   4.153 -1.3795 -1.4806  2.6301
  438MOL0     H59070   2.202   2.592   4.020  0.1353  1.2375 -0.4717
  438MOL0     H59071   2.299   2.313   4.085  0.7541 -3.0924 -3.2655
  438MOL0     H59072   2.186   2.352   3.968  1.8398 -2.6378  0.5227
  438MOL0     H59073   2.474   2.423   3.984  0.9078 -0.6139 -0.8278
  438MOL0     H59074   2.389   2.325   3.857 -1.2529  0.7189 -0.7996
  438MOL0     H59075   2.283   2.524   3.768 -0.5080  0.2429  1.1468
  438MOL0     H59076   2.363   2.633   3.883 -2.9082 -0.6486  2.1051
  438MOL0     H59077   2.485   2.479   3.654  2.8642  0.3948 -0.7892
  438MOL0     H59078   2.585   2.503   3.797  0.4899 -0.3352 -1.2072
  438MOL0     H59079   2.637   2.666   3.630  1.5836  1.7416  2.2133
  438MOL0     H59080   2.472   2.725   3.618 -1.4423  0.9567  2.1759
  438MOL0     H59081   2.572   2.711   3.976  0.5233  1.5135  3.0954
  438MOL0     H59082   2.645   3.077   4.078 -0.4018  0.6315 -0.7732
  438MOL0     H59083   2.622   2.938   4.174  2.6002  4.7046  3.5531
  438MOL0     H59084   2.900   2.981   4.035  0.4894 -2.1402 -0.4979
  438MOL0     H59085   2.862   3.024   4.209 -0.4693 -0.6136  0.1893
  438MOL0     H59086   2.807   2.753   4.073  2.0797  1.1385 -2.6588
  438MOL0     H59087   2.821   2.773   4.251  1.1691  1.4653  1.9574
  438MOL0     H59088   3.023   2.668   4.155 -3.2246 -0.7398  0.0262
  438MOL0     H59089   3.061   2.813   4.244 -4.0876  1.9927  1.6885
  438MOL0     H59090   3.272   2.712   3.871  2.0535 -2.2126  1.2675
  438MOL0     H59091   3.496   2.773   3.870 -0.0442 -0.5673 -0.1376
  438MOL0     H59092   3.836   2.867   3.727  0.7774 -1.4728  0.2019
  438MOL0     H59093   4.045   2.923   3.706 -0.8170 -1.2405 -0.4902
  438MOL0     H59094   4.346   3.053   3.756 -2.0456 -1.5437 -0.0546
  438MOL0     H59095   4.206   3.139   3.798  0.9019  2.1840 -0.1906
  438MOL0     H59096   4.413   3.255   3.885 -0.0511  0.0810 -0.0907
  438MOL0     H59097   4.351   3.194   4.033  0.5292  1.0984 -0.4923
  438MOL0     H59098   4.535   3.053   4.074  3.1981 -3.9675 -0.9542
  438MOL0     H59099   4.498   2.975   3.914 -1.0282  1.1520 -3.0907
  438MOL0     H59100   4.605   3.211   3.845 -2.2861  0.2913  0.7386
  438MOL0     H59101   4.702   3.056   3.866  0.1220  0.1607  0.5240
  438MOL0     H59102   4.648   3.278   4.066  0.4620 -0.7807  0.9782
  438MOL0     H59103   4.793   3.264   3.965  0.0774  0.2591  1.8849
  438MOL0     H59104   4.707   3.076   4.184 -0.2033  0.3344 -0.0285
  438MOL0     H59105   4.848   3.049   4.086 -0.4338  0.4578  0.3959
  438MOL0     H59106   4.879   3.174   4.320  1.2654  5.0722  2.2789
  438MOL0     H59107   4.795   3.303   4.241 -1.3905 -1.4564  0.4161
  438MOL0     H59108   4.990   3.320   4.076  0.2117  1.8540  0.7826
  438MOL0     H59109   5.022   3.344   4.251 -0.7398  1.8505 -2.6080
  438MOL0     H59110   4.106   2.938   4.134  0.6181  2.1546  0.0889
  438MOL0     H59111   3.867   2.880   4.152  2.2551  0.9427  1.2491
  438MOL0     H59112   3.434   3.026   4.208 -0.1085 -0.9548  1.2894
  438MOL0     H59113   3.193   3.000   4.182  1.1876  1.0935  0.2329
  438MOL0     H59114   1.946   2.823   4.357 -1.2050 -0.6180  1.3462
  438MOL0     H59115   1.898   2.982   4.538 -1.6831 -1.8175  1.2944
  438MOL0     H59116   1.946   3.002   5.014  0.4059  0.8764 -2.0361
  438MOL0     H59117   1.930   3.096   5.246 -2.4148  1.0660  1.8974
  438MOL0     H59118   1.721   3.491   5.249  0.4359 -2.7276 -2.6545
  438MOL0     H59119   1.741   3.479   5.417 -0.1374  0.6076 -1.0018
  438MOL0     H59120   1.579   3.341   5.219  3.0410  2.6179 -0.8659
  438MOL0     H59121   1.537   3.381   5.390 -1.5350  2.1793 -1.8733
  438MOL0     H59122   1.683   3.131   5.315  2.3286  1.0275  2.2162
  438MOL0     H59123   1.517   3.143   5.371 -0.0642  0.8646 -2.9977
  438MOL0     H59124   1.701   3.093   5.564  4.0784  0.5716 -0.0566
  438MOL0     H59125   1.757   3.253   5.548 -0.4038  0.0105  0.6075
  438MOL0     H59126   1.408   3.354   5.733 -3.2611 -3.5607 -2.6899
  438MOL0     H59127   1.872   3.482   5.078  1.5596  0.9598  2.0033
  438MOL0     H59128   1.823   3.433   4.764  0.1158 -3.1179 -1.7898
  438MOL0     H59129   1.944   3.522   4.853 -1.7849  2.5873 -5.3210
  438MOL0     H59130   1.993   3.402   4.747 -0.1324  0.3917  0.2906
  439MOL0     O59131   2.009   6.668   4.699  0.0450  0.1371 -0.0369
  439MOL0     C59132   1.975   6.764   4.769  0.1634  1.0877  0.0937
  439MOL0     O59133   2.053   6.868   4.780 -0.5390  0.5346 -0.2560
  439MOL0     C59134   2.160   6.889   4.692  0.5886 -0.5845  1.3189
  439MOL0     C59135   2.271   6.811   4.692  0.6107  0.2793  0.4477
  439MOL0     C59136   2.382   6.839   4.616  0.5461 -0.1909 -0.6808
  439MOL0     C59137   2.382   6.953   4.545 -1.0772  0.0328 -0.5010
  439MOL0     O59138   2.496   6.952   4.463  0.3947 -0.5388 -0.2976
  439MOL0     C59139   2.505   7.031   4.343 -0.7163  0.2218 -0.6643
  439MOL0     C59140   2.527   6.951   4.209  0.0492  1.6904 -0.5915
  439MOL0     C59141   2.662   6.859   4.219  0.8878 -1.2608 -0.2746
  439MOL0     C59142   2.677   6.739   4.132 -0.4995  0.1300  0.0102
  439MOL0     C59143   2.804   6.661   4.140 -0.1823 -0.6347  0.3346
  439MOL0     C59144   2.844   6.621   4.285 -0.8784  0.0366 -0.3881
  439MOL0     C59145   2.972   6.530   4.287 -0.4718 -0.1145 -0.4154
  439MOL0     C59146   3.098   6.613   4.258 -0.6292  0.0185 -0.1873
  439MOL0     N59147   3.114   6.717   4.364  0.3578 -0.0293  0.2115
  439MOL0     C59148   3.113   6.690   4.493  0.2535 -0.8190 -1.1271
  439MOL0     C59149   3.181   6.804   4.544  0.0651 -0.3785 -0.1910
  439MOL0     C59150   3.209   6.845   4.688 -0.0573  0.3192  0.2595
  439MOL0     C59151   3.360   6.807   4.709 -0.0473  0.1624  0.6748
  439MOL0     C59152   3.394   6.652   4.708  0.1733  0.4566  0.0974
  439MOL0     C59153   3.546   6.602   4.691  0.3271  0.4387 -0.6105
  439MOL0     O59154   3.610   6.687   4.596  0.6986  0.0230  0.4128
  439MOL0     C59155   3.741   6.655   4.565 -0.0033 -0.5001 -0.1549
  439MOL0     C59156   3.810   6.531   4.595  0.2829  0.2824 -0.0863
  439MOL0     C59157   3.946   6.518   4.561  0.2459 -0.6131 -0.3261
  439MOL0     C59158   4.014   6.629   4.504  0.5930 -0.7407 -0.7020
  439MOL0     C59159   4.158   6.621   4.473 -0.1951  0.0041 -0.7053
  439MOL0     O59160   4.239   6.536   4.548 -0.2558 -0.2280  0.4465
  439MOL0     C59161   4.369   6.536   4.513  0.4045 -0.5833 -0.2801
  439MOL0     C59162   4.423   6.475   4.400  0.3930 -0.4133  0.4972
  439MOL0     C59163   4.557   6.489   4.365 -0.5651  0.7899  0.3567
  439MOL0     C59164   4.639   6.559   4.452 -0.0010  0.9027 -0.1433
  439MOL0     O59165   4.768   6.555   4.410  0.0887  0.3215  0.2124
  439MOL0     C59166   4.870   6.586   4.499 -1.8999  0.2235 -0.7703
  439MOL0     C59167   5.016   6.566   4.451  0.5441  0.2143 -0.3465
  439MOL0     C59168   5.054   6.664   4.337  0.1464 -0.0219  0.1103
  439MOL0     C59169   5.204   6.651   4.299 -0.1426  0.6312 -0.5271
  439MOL0     C59170   5.242   6.745   4.187  0.4438  0.1571  0.3025
  439MOL0     C59171   5.379   6.700   4.149  1.0120 -0.3587  0.0339
  439MOL0     C59172   5.441   6.776   4.024 -0.2242  0.7355  0.0096
  439MOL0     C59173   5.370   6.744   3.898 -0.1246  0.4601  0.6777
  439MOL0    Cl59174   5.369   6.569   3.871 -0.0500  0.2771 -0.1055
  439MOL0     C59175   4.592   6.629   4.561  0.3004 -0.7180  0.7001
  439MOL0     C59176   4.458   6.616   4.590  0.8233  0.6970 -0.5857
  439MOL0     O59177   4.193   6.682   4.375 -0.5864 -0.1311 -0.7192
  439MOL0     C59178   3.949   6.745   4.474 -0.1202 -0.3507  0.7874
  439MOL0     C59179   3.819   6.754   4.501  0.3788  0.0371 -0.2256
  439MOL0     N59180   3.215   6.894   4.439 -0.4278  0.8901  1.2812
  439MOL0     N59181   3.174   6.836   4.330  0.6769  0.3156  0.8446
  439MOL0     C59182   2.276   7.044   4.552 -0.4310  0.2681 -0.3958
  439MOL0     C59183   2.163   7.014   4.625  0.6269  0.4800 -1.0487
  439MOL0     C59184   1.861   6.760   4.859  0.1137 -0.4628 -0.1075
  439MOL0     C59185   1.865   6.845   4.971  0.0624  0.5061  0.1442
  439MOL0     C59186   1.759   6.854   5.060 -0.1312 -0.8104  0.0629
  439MOL0     C59187   1.652   6.763   5.052  0.3369 -0.3146 -0.4573
  439MOL0     O59188   1.550   6.766   5.141  0.8382 -1.2517  0.2557
  439MOL0     C59189   1.511   6.883   5.218 -0.3433  0.0881 -0.1268
  439MOL0     C59190   1.409   6.845   5.322  1.0949  0.3192  0.3405
  439MOL0     C59191   1.465   6.714   5.395 -0.2096  0.4842  0.0745
  439MOL0     C59192   1.395   6.700   5.534  0.6376 -0.0287 -0.8930
  439MOL0     C59193   1.438   6.579   5.613  0.3989 -0.0114  0.8826
  439MOL0     C59194   1.468   6.476   5.669  1.0674  0.2777 -0.6228
  439MOL0     C59195   1.651   6.674   4.941  0.1009  0.4118 -0.6244
  439MOL0     C59196   1.750   6.677   4.839  0.8378  0.6932  0.1085
  439MOL0     C59197   1.723   6.597   4.718  0.3717  0.4880  1.1518
  439MOL0     H59198   2.267   6.725   4.758 -1.6824 -1.1087 -1.3489
  439MOL0     H59199   2.457   6.760   4.619 -0.3500 -1.0496  0.0117
  439MOL0     H59200   2.410   7.085   4.342 -0.6674  0.3057 -0.7061
  439MOL0     H59201   2.585   7.104   4.355  0.0104 -0.4099 -1.6138
  439MOL0     H59202   2.546   7.031   4.136 -0.7625  2.9163  0.4932
  439MOL0     H59203   2.445   6.885   4.182  1.5409  0.5564 -2.6174
  439MOL0     H59204   2.663   6.823   4.322  1.0897  0.4186  0.3551
  439MOL0     H59205   2.744   6.925   4.190 -0.3284 -0.0566 -1.0852
  439MOL0     H59206   2.595   6.672   4.158 -2.2644  1.8846 -0.8281
  439MOL0     H59207   2.672   6.762   4.026 -0.9742  1.6394  0.3346
  439MOL0     H59208   2.800   6.569   4.082  3.4835 -1.2143  0.8127
  439MOL0     H59209   2.884   6.720   4.096  0.4735 -0.1401  2.1108
  439MOL0     H59210   2.859   6.714   4.340  1.5223  0.1472 -1.1041
  439MOL0     H59211   2.758   6.567   4.325 -1.3379  1.3177  0.4060
  439MOL0     H59212   2.973   6.452   4.210 -0.4987  0.0895 -0.6240
  439MOL0     H59213   2.970   6.494   4.390  1.4498  1.9156  0.3896
  439MOL0     H59214   3.184   6.545   4.256 -1.8844 -1.6252 -2.1548
  439MOL0     H59215   3.091   6.669   4.165  0.5036  0.8300  0.1979
  439MOL0     H59216   3.067   6.613   4.554  0.2232  0.6237  0.7697
  439MOL0     H59217   3.193   6.952   4.704  0.2058  0.4451 -0.3143
  439MOL0     H59218   3.149   6.802   4.769  0.2575  1.4652  1.1362
  439MOL0     H59219   3.417   6.857   4.631 -1.7995 -0.2553 -0.9300
  439MOL0     H59220   3.398   6.851   4.802  0.2620  1.7128 -0.1505
  439MOL0     H59221   3.342   6.597   4.629  0.1138 -2.5583  2.0691
  439MOL0     H59222   3.348   6.618   4.801  0.9493 -0.8100  0.0419
  439MOL0     H59223   3.533   6.500   4.654 -1.1301 -0.5678  2.3666
  439MOL0     H59224   3.596   6.592   4.788  2.5927  1.3735 -1.5988
  439MOL0     H59225   3.751   6.447   4.630 -0.5982  0.8275 -0.2266
  439MOL0     H59226   3.992   6.420   4.572  3.0138  0.6881  0.5393
  439MOL0     H59227   4.351   6.423   4.338 -0.6023  1.8775 -0.3834
  439MOL0     H59228   4.596   6.440   4.277 -4.7969 -1.2565 -0.6028
  439MOL0     H59229   4.860   6.689   4.533  0.5834 -0.3364  1.9967
  439MOL0     H59230   4.864   6.512   4.580 -0.4963 -1.6405 -2.2611
  439MOL0     H59231   5.084   6.589   4.534  0.7334  0.2126 -0.5012
  439MOL0     H59232   5.029   6.458   4.451 -0.4378  0.0537  1.2217
  439MOL0     H59233   4.997   6.644   4.246  2.3398  2.7038 -2.0238
  439MOL0     H59234   5.034   6.766   4.371 -0.5952  0.6943 -2.2476
  439MOL0     H59235   5.231   6.549   4.273  2.2074  0.8925  0.6168
  439MOL0     H59236   5.261   6.665   4.392  1.3566 -1.6094 -1.0333
  439MOL0     H59237   5.244   6.847   4.228 -1.5806  0.4513 -0.1979
  439MOL0     H59238   5.159   6.738   4.116 -1.0188 -2.6348  2.1033
  439MOL0     H59239   5.445   6.723   4.233  1.7852 -1.5251 -0.2293
  439MOL0     H59240   5.391   6.592   4.138  5.7112 -0.0173 -0.1778
  439MOL0     H59241   5.546   6.749   4.018 -0.4158 -0.5519  1.7392
  439MOL0     H59242   5.433   6.884   4.038 -0.7316  0.9784 -1.8174
  439MOL0     H59243   5.267   6.781   3.904 -0.6022 -0.6779 -0.1502
  439MOL0     H59244   5.422   6.798   3.817  1.2083  0.5823  1.5868
  439MOL0     H59245   4.657   6.697   4.615  0.1902  0.4546 -0.5682
  439MOL0     H59246   4.416   6.662   4.679  0.6147 -1.2269  0.3716
  439MOL0     H59247   3.996   6.830   4.424 -5.1716  3.0672  1.0745
  439MOL0     H59248   3.757   6.835   4.462 -0.8745 -2.2090 -3.3401
  439MOL0     H59249   2.285   7.141   4.504  0.3396  0.8071  0.7764
  439MOL0     H59250   2.090   7.094   4.639  2.4931  2.2354 -0.9238
  439MOL0     H59251   1.941   6.922   4.967 -0.9640  1.5846  0.7663
  439MOL0     H59252   1.759   6.927   5.140 -0.7609  0.0554 -0.7064
  439MOL0     H59253   1.463   6.955   5.151 -0.6522 -1.3145 -1.4595
  439MOL0     H59254   1.591   6.940   5.267 -2.5623  2.3539  1.1746
  439MOL0     H59255   1.310   6.820   5.283  1.2216 -1.9502  1.3556
  439MOL0     H59256   1.390   6.935   5.381 -1.1636  1.4504 -1.9083
  439MOL0     H59257   1.572   6.729   5.414 -0.2455  1.0281 -0.1384
  439MOL0     H59258   1.452   6.622   5.337 -1.4597  1.4191 -1.1803
  439MOL0     H59259   1.426   6.788   5.590 -0.7179  0.4432 -0.8514
  439MOL0     H59260   1.287   6.699   5.518  0.4542  0.3069  0.2409
  439MOL0     H59261   1.490   6.380   5.711 -0.3394 -0.1246 -0.7254
  439MOL0     H59262   1.589   6.585   4.937  1.4957 -0.5787 -0.9375
  439MOL0     H59263   1.618   6.571   4.702 -0.5248  3.6515  1.2210
  439MOL0     H59264   1.752   6.664   4.636  0.3986  1.5634  2.0136
  439MOL0     H59265   1.774   6.500   4.713 -2.3504 -0.9557 -1.3414
  440MOL0     O59266   5.162   4.115   6.785 -0.2078  0.0473  0.4122
  440MOL0     C59267   5.079   4.166   6.855 -0.2585  0.0759 -0.5547
  440MOL0     O59268   5.106   4.206   6.986  0.3571 -0.0331 -0.8622
  440MOL0     C59269   5.230   4.205   7.033  0.4105  1.0382 -0.8530
  440MOL0     C59270   5.293   4.324   7.068 -0.0834  0.1984 -0.4843
  440MOL0     C59271   5.424   4.319   7.123  0.8871  0.1475  0.6762
  440MOL0     C59272   5.487   4.195   7.152  0.4350 -0.7518  0.1403
  440MOL0     O59273   5.620   4.176   7.174  0.3828  0.2110  0.1216
  440MOL0     C59274   5.709   4.286   7.161  0.3387  0.3220 -0.4633
  440MOL0     C59275   5.845   4.247   7.204 -0.3173 -0.5985  0.0344
  440MOL0     C59276   5.874   4.254   7.354  0.6469  1.1011 -0.1057
  440MOL0     C59277   6.018   4.224   7.398 -0.5652 -0.1755 -0.0948
  440MOL0     C59278   6.049   4.241   7.543 -0.7633 -0.2293  0.4760
  440MOL0     C59279   6.194   4.182   7.574 -0.4953 -0.5028 -0.4460
  440MOL0     C59280   6.218   4.036   7.555 -0.1800 -0.4653  0.3538
  440MOL0     C59281   6.342   3.980   7.619 -0.6395  0.0975  0.6406
  440MOL0     N59282   6.377   3.844   7.589 -0.2404 -0.0080 -0.3871
  440MOL0     C59283   6.419   3.789   7.469 -0.8775  0.7130 -1.1336
  440MOL0     C59284   6.417   3.658   7.481  0.1309 -0.0517 -0.3000
  440MOL0     C59285   6.447   3.559   7.370  0.8097  0.4889 -0.1723
  440MOL0     C59286   6.335   3.542   7.267  0.4561  0.1777  0.7552
  440MOL0     C59287   6.200   3.497   7.339 -0.4016  0.1178  1.5919
  440MOL0     C59288   6.079   3.588   7.292 -0.2221  0.8527 -0.3548
  440MOL0     O59289   6.093   3.721   7.342 -0.2958 -0.3424  0.0162
  440MOL0     C59290   5.993   3.770   7.423  0.6471  0.2541  0.4440
  440MOL0     C59291   5.976   3.713   7.550 -0.9574 -0.2371  0.1541
  440MOL0     C59292   5.867   3.747   7.627  0.0095 -1.1791 -0.3010
  440MOL0     C59293   5.761   3.830   7.578 -0.4159  0.1111 -1.4222
  440MOL0     C59294   5.636   3.853   7.666 -0.2278  0.0381  0.4450
  440MOL0     O59295   5.651   3.814   7.798  0.7467  0.1899  0.9036
  440MOL0     C59296   5.572   3.867   7.897 -0.1015 -0.2172  0.1660
  440MOL0     C59297   5.442   3.828   7.934  0.3775  0.1778  0.6657
  440MOL0     C59298   5.370   3.892   8.043  0.1497 -0.3784 -0.2436
  440MOL0     C59299   5.423   4.005   8.099 -0.3103 -0.3089  0.2592
  440MOL0     O59300   5.366   4.094   8.189 -0.0573 -0.3362 -0.3144
  440MOL0     C59301   5.237   4.142   8.138  0.2236  0.7102  0.0633
  440MOL0     C59302   5.272   4.262   8.057  0.5750 -0.8597  0.1069
  440MOL0     C59303   5.153   4.347   7.995 -0.7725 -0.2750 -0.6796
  440MOL0     C59304   5.189   4.486   7.959  0.4150 -0.2601  0.8300
  440MOL0     C59305   5.068   4.557   7.905 -0.6784  0.8463 -0.8840
  440MOL0     C59306   5.074   4.708   7.925 -0.4026 -0.0636  0.1546
  440MOL0     C59307   5.212   4.770   7.876  0.5771  0.3351  0.8321
  440MOL0     C59308   5.205   4.913   7.924 -1.1074 -0.4379 -0.0143
  440MOL0    Cl59309   5.272   4.924   8.096  0.1029  0.1845 -0.0608
  440MOL0     C59310   5.550   4.050   8.054 -0.4756  0.1525 -0.0069
  440MOL0     C59311   5.621   3.975   7.954 -0.6123 -0.4872  0.1315
  440MOL0     O59312   5.533   3.898   7.616 -0.6585 -0.1709 -0.0766
  440MOL0     C59313   5.781   3.871   7.444 -0.2907  0.5712  0.4791
  440MOL0     C59314   5.891   3.842   7.361  0.0504  0.8872  0.2299
  440MOL0     N59315   6.370   3.633   7.610  1.2296 -0.2387  0.6012
  440MOL0     N59316   6.343   3.739   7.672 -0.7924 -0.2105 -0.0034
  440MOL0     C59317   5.415   4.085   7.126 -0.3026  0.9473 -0.9569
  440MOL0     C59318   5.297   4.080   7.067 -0.6047 -0.0305  0.8836
  440MOL0     C59319   4.933   4.172   6.819  0.4261  0.0121 -0.2917
  440MOL0     C59320   4.851   4.263   6.889 -0.0805 -0.5248 -0.0931
  440MOL0     C59321   4.722   4.290   6.856  1.0808  0.3488 -0.2831
  440MOL0     C59322   4.653   4.240   6.746  0.2445 -0.0334  0.8719
  440MOL0     O59323   4.525   4.275   6.699 -0.4327 -0.2354  0.5921
  440MOL0     C59324   4.461   4.395   6.740  1.3811 -0.3981  0.7905
  440MOL0     C59325   4.530   4.520   6.688  0.1704  1.3261  1.7218
  440MOL0     C59326   4.529   4.515   6.532 -1.8335 -1.0229  1.6882
  440MOL0     C59327   4.657   4.591   6.482  0.4446  0.1184  0.3454
  440MOL0     C59328   4.627   4.734   6.473  0.5042 -0.3149  0.9375
  440MOL0     C59329   4.606   4.849   6.463 -0.6663 -0.6680  0.7562
  440MOL0     C59330   4.730   4.154   6.681  0.3150 -0.0942  0.0973
  440MOL0     C59331   4.864   4.115   6.707 -0.7366 -0.0833 -0.2962
  440MOL0     C59332   4.917   4.018   6.612 -0.2223 -0.3657 -0.2597
  440MOL0     H59333   5.239   4.416   7.047  1.4876  1.0145 -1.1373
  440MOL0     H59334   5.478   4.413   7.121 -0.2476  0.8253  0.5362
  440MOL0     H59335   5.708   4.332   7.062  0.0686  2.4926  0.4823
  440MOL0     H59336   5.679   4.364   7.232 -1.6796  1.1637 -2.1267
  440MOL0     H59337   5.919   4.297   7.141 -0.9085 -2.6348 -2.4524
  440MOL0     H59338   5.859   4.141   7.178  1.8764 -0.4344  0.3734
  440MOL0     H59339   5.814   4.181   7.409  1.7548 -1.6316 -2.2320
  440MOL0     H59340   5.852   4.356   7.386 -0.0756  0.5805  1.1016
  440MOL0     H59341   6.039   4.120   7.373  1.0331  0.4170 -1.3787
  440MOL0     H59342   6.084   4.293   7.345 -2.9396  2.9321  0.7231
  440MOL0     H59343   6.053   4.343   7.581 -1.0306 -0.6769  1.7814
  440MOL0     H59344   5.967   4.189   7.594 -2.4740 -0.1333 -1.9848
  440MOL0     H59345   6.261   4.238   7.508 -0.1642  0.7630  0.8894
  440MOL0     H59346   6.223   4.196   7.679  1.3197 -2.3198 -0.6428
  440MOL0     H59347   6.251   4.013   7.453  3.4480  2.9582  0.5241
  440MOL0     H59348   6.130   3.972   7.572  0.7865 -1.5683  1.3682
  440MOL0     H59349   6.427   4.044   7.593 -0.5856  0.1751  1.0095
  440MOL0     H59350   6.326   3.990   7.726  1.5385 -0.6696  1.0798
  440MOL0     H59351   6.442   3.840   7.375  2.9577  1.5359  0.0796
  440MOL0     H59352   6.535   3.584   7.311  2.4320  0.4896  2.1170
  440MOL0     H59353   6.470   3.460   7.412  2.1964  0.5402 -0.7688
  440MOL0     H59354   6.323   3.644   7.230  0.6115  0.0207  0.2628
  440MOL0     H59355   6.347   3.468   7.187 -2.2166  1.0691 -0.5861
  440MOL0     H59356   6.208   3.494   7.448 -2.3945  0.1456  1.7824
  440MOL0     H59357   6.169   3.397   7.307 -1.5391  0.2128  2.3463
  440MOL0     H59358   5.984   3.548   7.328 -0.0942 -0.4545 -1.4280
  440MOL0     H59359   6.070   3.590   7.183  0.9763 -3.1697 -0.6688
  440MOL0     H59360   6.050   3.642   7.585 -0.3510  0.9573  1.4102
  440MOL0     H59361   5.850   3.689   7.716 -1.4371  1.0217  0.9597
  440MOL0     H59362   5.399   3.743   7.882  1.3429  1.4170 -2.3246
  440MOL0     H59363   5.268   3.869   8.073 -0.2988  2.4548  0.7058
  440MOL0     H59364   5.178   4.065   8.088  2.8268 -0.9954 -0.5411
  440MOL0     H59365   5.167   4.172   8.217 -0.9198  1.5796 -1.2217
  440MOL0     H59366   5.333   4.324   8.123 -1.0825 -0.3302  1.1812
  440MOL0     H59367   5.321   4.223   7.967 -1.6212  0.5308 -1.8217
  440MOL0     H59368   5.108   4.307   7.903 -0.5445  0.4899 -1.1305
  440MOL0     H59369   5.079   4.352   8.075  1.4829  0.6467  1.5012
  440MOL0     H59370   5.246   4.479   7.866 -1.9116  0.6134 -0.7486
  440MOL0     H59371   5.240   4.530   8.045  0.3854 -0.6605  1.0556
  440MOL0     H59372   4.978   4.522   7.958  0.5427  0.5666  1.1060
  440MOL0     H59373   5.058   4.532   7.799  1.4676 -1.0259 -0.7114
  440MOL0     H59374   4.995   4.763   7.874  0.3149  2.1716  1.3516
  440MOL0     H59375   5.069   4.727   8.033  0.2170 -0.3956  0.2537
  440MOL0     H59376   5.212   4.770   7.766  0.8284 -0.8498  0.8246
  440MOL0     H59377   5.296   4.708   7.906 -2.1271 -3.9664  0.3252
  440MOL0     H59378   5.260   4.973   7.851 -1.9657 -1.2254 -1.3539
  440MOL0     H59379   5.103   4.952   7.928 -0.2993  1.7365  1.5533
  440MOL0     H59380   5.594   4.135   8.106 -0.9267 -0.1540  0.9105
  440MOL0     H59381   5.713   4.010   7.908  2.1735 -1.9459  4.0672
  440MOL0     H59382   5.701   3.936   7.410 -1.1763  0.6518  2.6000
  440MOL0     H59383   5.906   3.872   7.258  0.5084  0.5108  0.1829
  440MOL0     H59384   5.451   3.987   7.158 -0.0629  1.9401  2.1687
  440MOL0     H59385   5.243   3.989   7.042 -0.5769  0.6930 -2.2744
  440MOL0     H59386   4.892   4.315   6.975 -1.5050  1.7665 -0.7027
  440MOL0     H59387   4.671   4.358   6.924  3.4872  0.0474  1.9984
  440MOL0     H59388   4.458   4.396   6.849 -0.4212  0.6549  0.7717
  440MOL0     H59389   4.357   4.389   6.708  1.4103 -1.1096  0.8197
  440MOL0     H59390   4.636   4.523   6.714  0.6438  1.0330 -0.0377
  440MOL0     H59391   4.484   4.612   6.724 -1.1280  2.3027 -2.0020
  440MOL0     H59392   4.437   4.564   6.499 -1.4691 -1.9870 -1.0148
  440MOL0     H59393   4.537   4.410   6.504  2.5261 -0.8321  1.6747
  440MOL0     H59394   4.745   4.573   6.544  0.8888 -2.9415 -1.0355
  440MOL0     H59395   4.681   4.557   6.381 -0.1370 -2.8951  1.1394
  440MOL0     H59396   4.582   4.951   6.439 -0.4153 -1.0561 -1.3525
  440MOL0     H59397   4.682   4.129   6.586 -2.7948  1.5626  1.0741
  440MOL0     H59398   4.838   3.948   6.584 -0.2313 -0.4424 -0.0424
  440MOL0     H59399   4.964   4.073   6.530 -0.5778 -0.1818 -0.3412
  440MOL0     H59400   5.002   3.964   6.655  2.0271  3.0251 -0.0785
  441MOL0     O59401   8.572  10.868   9.016  0.5124  0.5153 -0.1511
  441MOL0     C59402   8.554  10.960   9.093 -0.1342 -0.0262 -0.1419
  441MOL0     O59403   8.654  11.018   9.170 -0.2201  0.6709 -0.4813
  441MOL0     C59404   8.790  10.988   9.154  0.1037  0.0430 -0.2504
  441MOL0     C59405   8.888  11.090   9.155 -0.9114 -0.1794 -0.6346
  441MOL0     C59406   9.020  11.063   9.158 -0.5262 -0.1188  0.1307
  441MOL0     C59407   9.069  10.940   9.139 -0.6944 -0.0819  0.3305
  441MOL0     O59408   9.205  10.898   9.111  0.8271  0.1617  0.3205
  441MOL0     C59409   9.302  10.992   9.119 -1.1165  0.2776 -0.9189
  441MOL0     C59410   9.439  10.915   9.090  0.9028  0.2369 -0.7167
  441MOL0     C59411   9.538  11.005   9.020 -0.3502  0.7165  0.2894
  441MOL0     C59412   9.683  10.961   9.024 -1.0113 -0.0826  0.5384
  441MOL0     C59413   9.775  11.078   8.973  0.0562 -0.4431  0.3586
  441MOL0     C59414   9.922  11.023   8.961 -0.4226  0.5531  0.0325
  441MOL0     C59415  10.013  11.128   8.899  0.5893  0.0172 -0.1854
  441MOL0     C59416  10.007  11.268   8.958  0.2939  0.1652  0.2783
  441MOL0     N59417  10.111  11.357   8.888  0.4199  0.7154 -0.1303
  441MOL0     C59418  10.233  11.395   8.944 -0.4534  0.7111  1.2260
  441MOL0     C59419  10.290  11.483   8.857  0.1452  0.3129 -0.3562
  441MOL0     C59420  10.429  11.532   8.874 -0.0268 -0.5550  0.3427
  441MOL0     C59421  10.543  11.456   8.793  0.0678 -0.3893 -0.2319
  441MOL0     C59422  10.566  11.526   8.658 -1.2001  0.4822  0.9483
  441MOL0     C59423  10.671  11.452   8.567  0.0819  0.5926  0.1648
  441MOL0     O59424  10.695  11.525   8.443 -0.0115  0.3981  0.0325
  441MOL0     C59425  10.828  11.552   8.421  0.4387  0.1814 -0.1597
  441MOL0     C59426  10.888  11.516   8.297 -0.1773  0.5153  0.0892
  441MOL0     C59427  11.033  11.533   8.288  0.9300 -0.5927  0.0586
  441MOL0     C59428  11.108  11.594   8.389 -0.5979 -1.0127  0.3350
  441MOL0     C59429  11.250  11.629   8.374 -0.0299 -0.4634  0.3780
  441MOL0     O59430  11.307  11.729   8.454  0.5546 -0.4071 -0.3548
  441MOL0     C59431  11.438  11.755   8.422  0.4534  0.1832 -0.1566
  441MOL0     C59432  11.479  11.805   8.300 -0.0350  0.7465 -0.4583
  441MOL0     C59433  11.610  11.836   8.275  0.7787  0.3146  0.3530
  441MOL0     C59434  11.705  11.837   8.377  0.2387 -0.0942  0.2572
  441MOL0     O59435  11.837  11.874   8.340  0.6487 -0.8054  0.1778
  441MOL0     C59436  11.941  11.861   8.434  0.3418 -0.2889 -0.7415
  441MOL0     C59437  12.075  11.909   8.387 -0.2733  0.5020  0.1885
  441MOL0     C59438  12.175  11.924   8.496  0.3480  0.3205  0.4745
  441MOL0     C59439  12.259  12.056   8.485  0.0581  0.0754  0.6843
  441MOL0     C59440  12.351  12.049   8.360 -0.6070  0.6137 -0.4753
  441MOL0     C59441  12.433  11.911   8.346  0.6301 -0.7792 -0.0543
  441MOL0     C59442  12.542  11.940   8.234  0.2757 -0.1616 -0.1858
  441MOL0     C59443  12.617  11.820   8.199 -0.2162  1.3451 -0.1441
  441MOL0    Cl59444  12.712  11.768   8.350 -0.0932  0.2535 -0.2900
  441MOL0     C59445  11.665  11.801   8.508  0.7807 -0.5104 -0.0066
  441MOL0     C59446  11.532  11.748   8.523  0.6712  0.5090  0.1274
  441MOL0     O59447  11.306  11.571   8.276 -0.2780 -0.3986 -0.6531
  441MOL0     C59448  11.033  11.642   8.499 -0.3074 -0.1211 -0.5545
  441MOL0     C59449  10.905  11.612   8.521  0.6519 -0.6071 -0.3318
  441MOL0     N59450  10.191  11.495   8.756 -0.3445 -0.7909 -0.0627
  441MOL0     N59451  10.086  11.432   8.781 -0.1643 -0.0096  0.4689
  441MOL0     C59452   8.980  10.836   9.143 -0.1681  0.0213 -0.2808
  441MOL0     C59453   8.843  10.857   9.159  0.2992 -0.3713  0.4876
  441MOL0     C59454   8.413  10.988   9.114  0.6909  0.8560  0.2974
  441MOL0     C59455   8.309  10.923   9.031 -0.1666  0.4977 -0.7385
  441MOL0     C59456   8.170  10.947   9.049 -0.1869  0.8559 -0.0678
  441MOL0     C59457   8.126  11.040   9.133 -0.9574 -1.1569 -0.2674
  441MOL0     O59458   7.997  11.079   9.140 -0.7951  0.0227  0.4638
  441MOL0     C59459   7.949  11.062   9.266  0.1909  0.2618 -0.2728
  441MOL0     C59460   7.800  11.093   9.264 -0.5132 -0.6998  0.3843
  441MOL0     C59461   7.766  11.231   9.193  0.1964  0.2303  0.0069
  441MOL0     C59462   7.621  11.273   9.211  0.1541 -0.6958 -0.5344
  441MOL0     C59463   7.606  11.337   9.346  0.2458 -0.2129  0.4491
  441MOL0     C59464   7.584  11.376   9.458 -0.0785  0.4107 -0.4692
  441MOL0     C59465   8.224  11.114   9.198 -0.2897  0.2448  1.0427
  441MOL0     C59466   8.358  11.085   9.200  0.8150  0.2142 -0.3761
  441MOL0     C59467   8.443  11.163   9.296 -0.6473  0.4469  0.3114
  441MOL0     H59468   8.861  11.193   9.175  0.1916 -0.4196  2.5946
  441MOL0     H59469   9.089  11.146   9.171 -0.7132  0.0192  0.2384
  441MOL0     H59470   9.288  11.071   9.044 -0.9967  1.6851  0.4802
  441MOL0     H59471   9.305  11.039   9.217 -0.6077 -1.9341  0.1855
  441MOL0     H59472   9.410  10.831   9.027  1.2099  2.1722 -3.6038
  441MOL0     H59473   9.482  10.888   9.187  0.8913 -0.2641 -0.8505
  441MOL0     H59474   9.542  11.100   9.074  2.8814 -0.1809  1.8981
  441MOL0     H59475   9.527  11.029   8.914  5.0659  1.0741 -0.5081
  441MOL0     H59476   9.711  10.938   9.127  2.0542 -1.0856 -0.4235
  441MOL0     H59477   9.701  10.864   8.976  5.4939 -0.2145  2.3090
  441MOL0     H59478   9.742  11.086   8.869  1.4301 -0.1162 -0.0707
  441MOL0     H59479   9.761  11.165   9.037  1.2055 -0.6777  0.9554
  441MOL0     H59480   9.952  10.987   9.060  0.6346  0.5229 -0.2943
  441MOL0     H59481   9.933  10.934   8.899  0.3162  0.4370  0.3297
  441MOL0     H59482   9.984  11.130   8.794 -3.2850  0.6571  0.7275
  441MOL0     H59483  10.114  11.090   8.915  0.1639 -1.5078 -0.9663
  441MOL0     H59484   9.905  11.307   8.955  0.8680  1.8234  1.2057
  441MOL0     H59485  10.018  11.259   9.067 -0.9745 -1.2262  0.3222
  441MOL0     H59486  10.286  11.355   9.030 -0.8541  0.7121  1.4719
  441MOL0     H59487  10.441  11.628   8.823 -5.4837 -2.6047 -6.3436
  441MOL0     H59488  10.454  11.536   8.981  2.2443 -0.1737 -0.1491
  441MOL0     H59489  10.637  11.452   8.849  1.0745 -1.7003 -1.8874
  441MOL0     H59490  10.520  11.350   8.776  1.5759 -1.0496  1.4985
  441MOL0     H59491  10.610  11.622   8.685 -2.8556  0.9763  2.0232
  441MOL0     H59492  10.472  11.544   8.604 -1.0041 -3.0375 -0.8677
  441MOL0     H59493  10.627  11.355   8.541 -1.3391 -0.4762  5.3635
  441MOL0     H59494  10.764  11.430   8.618  1.6672  1.3478 -2.2246
  441MOL0     H59495  10.835  11.463   8.218  1.2901  0.2368 -0.7579
  441MOL0     H59496  11.078  11.501   8.194 -0.3926 -1.3251 -0.3516
  441MOL0     H59497  11.408  11.809   8.217 -0.2258  3.6137 -0.2617
  441MOL0     H59498  11.635  11.845   8.170 -0.3887  1.2895  0.1321
  441MOL0     H59499  11.922  11.931   8.516 -1.0227 -1.2437 -0.1902
  441MOL0     H59500  11.945  11.763   8.483  3.2114 -1.6918 -3.4162
  441MOL0     H59501  12.106  11.831   8.317  1.6250  0.2773  1.2168
  441MOL0     H59502  12.053  12.007   8.343 -3.5677  0.8117  2.1758
  441MOL0     H59503  12.128  11.913   8.594  0.1787 -2.2705  0.1485
  441MOL0     H59504  12.237  11.834   8.495  3.0610  1.8469 -4.9389
  441MOL0     H59505  12.311  12.076   8.579 -0.3204  1.2983  0.6600
  441MOL0     H59506  12.198  12.142   8.456  0.9887  0.9668  1.2887
  441MOL0     H59507  12.428  12.126   8.365  2.1145 -1.8170  5.2240
  441MOL0     H59508  12.292  12.068   8.270  0.1753 -1.4952 -1.5135
  441MOL0     H59509  12.469  11.886   8.446 -2.1516  2.3642  1.9284
  441MOL0     H59510  12.364  11.835   8.308  0.3752 -0.4926 -0.1676
  441MOL0     H59511  12.611  12.017   8.270 -1.1703  0.6812  0.9473
  441MOL0     H59512  12.494  11.983   8.146 -1.9938 -1.6612  0.2218
  441MOL0     H59513  12.542  11.745   8.169  1.1279  0.8670 -2.6034
  441MOL0     H59514  12.683  11.828   8.112  2.2789 -3.7075  0.8774
  441MOL0     H59515  11.740  11.782   8.584 -1.3284 -1.9200  1.8512
  441MOL0     H59516  11.510  11.716   8.624  1.0490  2.1869  0.7836
  441MOL0     H59517  11.093  11.683   8.580  1.1743  0.6660 -1.9858
  441MOL0     H59518  10.854  11.637   8.614  0.8760 -0.9349 -0.1173
  441MOL0     H59519   9.019  10.735   9.134  0.9774  0.4237  0.0837
  441MOL0     H59520   8.768  10.780   9.162 -1.4044  1.1688 -0.4572
  441MOL0     H59521   8.338  10.845   8.961 -3.5372  0.1497 -1.8981
  441MOL0     H59522   8.108  10.903   8.972  1.3142 -0.3872 -0.6346
  441MOL0     H59523   8.006  11.125   9.335  0.4792 -0.5381  0.2298
  441MOL0     H59524   7.973  10.959   9.296  4.5307  0.6162 -1.8051
  441MOL0     H59525   7.768  11.105   9.368 -2.6181 -1.4557 -0.1325
  441MOL0     H59526   7.755  11.001   9.225  1.9259 -1.5292 -0.6948
  441MOL0     H59527   7.781  11.210   9.087  1.3166 -2.4168  0.6066
  441MOL0     H59528   7.832  11.309   9.234  1.8856  0.0893 -2.2681
  441MOL0     H59529   7.580  11.348   9.143 -0.5206  0.7434  1.3616
  441MOL0     H59530   7.552  11.189   9.226 -0.6475  0.2456  1.4834
  441MOL0     H59531   7.558  11.411   9.556  1.1335 -0.3928  0.1645
  441MOL0     H59532   8.191  11.199   9.257 -1.5916  1.3109 -1.0848
  441MOL0     H59533   8.509  11.227   9.236 -2.3273  2.2426  0.2885
  441MOL0     H59534   8.379  11.228   9.356 -1.5124  0.7429 -0.9074
  441MOL0     H59535   8.508  11.097   9.354  0.4410 -1.3496 -2.7213
  442MOL0     O59536   1.801  11.413   0.486  0.5134 -0.0720 -0.3524
  442MOL0     C59537   1.810  11.533   0.476 -0.5913 -0.8242 -0.6901
  442MOL0     O59538   1.918  11.603   0.431  0.9994 -0.0622  0.6427
  442MOL0     C59539   2.021  11.537   0.348 -0.5836 -0.6425 -0.5806
  442MOL0     C59540   2.151  11.527   0.405 -0.2583 -0.2209  1.1361
  442MOL0     C59541   2.252  11.464   0.326  0.0928  0.1682  0.3417
  442MOL0     C59542   2.219  11.406   0.196 -0.0336 -0.1266  0.2810
  442MOL0     O59543   2.321  11.372   0.111 -0.1410 -0.5649  0.5083
  442MOL0     C59544   2.321  11.419  -0.028 -0.2721  0.4249  0.9998
  442MOL0     C59545   2.312  11.564  -0.038 -0.2217 -0.0871 -0.3827
  442MOL0     C59546   2.317  11.594  -0.194  0.2498 -0.0703 -0.6335
  442MOL0     C59547   2.269  11.735  -0.243 -0.5546 -1.0679 -0.2847
  442MOL0     C59548   2.360  11.818  -0.330 -0.8602  0.0277  0.3875
  442MOL0     C59549   2.469  11.884  -0.239  0.3535  0.1679 -0.3720
  442MOL0     C59550   2.584  11.937  -0.322 -0.6741  0.4334 -0.0222
  442MOL0     C59551   2.712  11.921  -0.235  0.4159  0.2251  0.0275
  442MOL0     N59552   2.846  11.943  -0.301  0.0042  0.7234  0.8478
  442MOL0     C59553   2.902  12.062  -0.328 -0.5797 -0.0372  0.2485
  442MOL0     C59554   3.036  12.034  -0.348  0.4156  0.8740 -0.2964
  442MOL0     C59555   3.133  12.129  -0.398  0.5219  0.1616  0.3263
  442MOL0     C59556   3.238  12.174  -0.293 -0.2658  1.3249 -0.8753
  442MOL0     C59557   3.309  12.291  -0.356 -0.3954  0.9221 -0.8702
  442MOL0     C59558   3.408  12.350  -0.259 -0.4675 -0.9877 -0.1696
  442MOL0     O59559   3.528  12.269  -0.235 -0.1372  0.8104  1.4091
  442MOL0     C59560   3.646  12.325  -0.186  0.7486 -0.1954  0.0149
  442MOL0     C59561   3.656  12.456  -0.141  0.0047  1.0070 -0.1033
  442MOL0     C59562   3.781  12.499  -0.100  0.0358 -0.0884 -0.6945
  442MOL0     C59563   3.893  12.415  -0.102  0.1123  0.1628  0.0423
  442MOL0     C59564   4.026  12.463  -0.065  0.7197  0.2565 -0.4395
  442MOL0     O59565   4.129  12.375  -0.063  0.0035 -0.1084 -0.7321
  442MOL0     C59566   4.254  12.417  -0.079  0.8853 -0.2210 -0.9020
  442MOL0     C59567   4.333  12.340  -0.163 -0.2707  0.1175  0.4930
  442MOL0     C59568   4.469  12.365  -0.186  0.5247 -0.2081 -0.0893
  442MOL0     C59569   4.531  12.465  -0.113  0.0751 -0.4160 -0.4001
  442MOL0     O59570   4.662  12.502  -0.141  0.4568 -0.1434 -0.7302
  442MOL0     C59571   4.729  12.612  -0.072  0.3025  0.5943  0.1393
  442MOL0     C59572   4.866  12.662  -0.117 -0.1229  0.0049 -0.2791
  442MOL0     C59573   4.970  12.545  -0.094  1.0043 -0.2123 -0.5615
  442MOL0     C59574   5.111  12.589  -0.131  0.3555 -0.6260  0.4624
  442MOL0     C59575   5.184  12.638  -0.007  0.0250 -0.2088  0.3349
  442MOL0     C59576   5.272  12.517   0.048 -0.7308 -0.4512  0.4529
  442MOL0     C59577   5.380  12.574   0.134 -0.0900 -0.6266  0.1841
  442MOL0     C59578   5.326  12.621   0.271  0.5315  0.5143  0.1531
  442MOL0    Cl59579   5.465  12.652   0.385 -0.6962  0.2559  0.1934
  442MOL0     C59580   4.449  12.540  -0.027  0.0891 -0.6072 -0.5553
  442MOL0     C59581   4.312  12.520  -0.006  0.4465 -0.1286  0.4151
  442MOL0     O59582   4.032  12.579  -0.019 -0.4665 -0.4810  0.3836
  442MOL0     C59583   3.882  12.284  -0.152  0.3254 -0.0284  1.3720
  442MOL0     C59584   3.759  12.245  -0.190 -0.4305 -0.0049  0.9284
  442MOL0     N59585   3.059  11.904  -0.313 -0.0441  0.5767 -0.8207
  442MOL0     N59586   2.944  11.854  -0.294  0.8028  0.1400 -0.8064
  442MOL0     C59587   2.087  11.403   0.150  0.3781 -0.0975  1.2615
  442MOL0     C59588   1.988  11.478   0.227 -0.6830 -0.0642 -0.4625
  442MOL0     C59589   1.700  11.625   0.505 -0.1273 -0.3015 -0.3581
  442MOL0     C59590   1.675  11.737   0.418 -1.4916 -0.0345 -0.2016
  442MOL0     C59591   1.566  11.813   0.431 -1.0476  0.4990 -0.7015
  442MOL0     C59592   1.475  11.786   0.534  0.2671 -0.3646  0.3290
  442MOL0     O59593   1.372  11.876   0.563  0.1197 -0.4605  0.1627
  442MOL0     C59594   1.399  11.955   0.680 -0.0764 -0.4196 -0.6817
  442MOL0     C59595   1.327  12.091   0.679  0.6218  0.7166 -0.4234
  442MOL0     C59596   1.396  12.179   0.578 -0.0876 -0.1616  0.0464
  442MOL0     C59597   1.393  12.327   0.624 -0.4801  0.0271  0.2794
  442MOL0     C59598   1.468  12.406   0.517  0.3746  0.3398 -0.2476
  442MOL0     C59599   1.522  12.455   0.422 -0.7305 -0.1704 -0.6959
  442MOL0     C59600   1.496  11.683   0.629 -0.2745  0.2007  0.1193
  442MOL0     C59601   1.611  11.603   0.619  0.9290 -0.1851 -0.1861
  442MOL0     C59602   1.636  11.510   0.730  0.0232  0.1501 -0.6976
  442MOL0     H59603   2.188  11.566   0.499 -1.8082  3.4212  0.4358
  442MOL0     H59604   2.358  11.472   0.348  0.2116  0.0553 -0.1639
  442MOL0     H59605   2.417  11.381  -0.063 -0.2056 -0.0095  1.6402
  442MOL0     H59606   2.243  11.375  -0.090  1.2652  1.4438 -1.7983
  442MOL0     H59607   2.378  11.622   0.027  0.2446 -1.0874  0.0532
  442MOL0     H59608   2.213  11.590   0.001 -0.0574 -0.9466  0.6302
  442MOL0     H59609   2.245  11.530  -0.246 -1.1894  2.1691 -1.5266
  442MOL0     H59610   2.417  11.572  -0.232 -0.0253 -0.6163 -1.0519
  442MOL0     H59611   2.179  11.729  -0.304 -1.9178  1.6193  1.2824
  442MOL0     H59612   2.249  11.804  -0.161  2.0938 -1.6208  0.9504
  442MOL0     H59613   2.406  11.744  -0.397 -0.8894  0.9218 -0.6477
  442MOL0     H59614   2.318  11.902  -0.386 -0.2253 -1.2301 -2.1476
  442MOL0     H59615   2.425  11.964  -0.180  0.2354 -1.3955  1.7563
  442MOL0     H59616   2.490  11.806  -0.166  0.1238  0.1252 -0.3510
  442MOL0     H59617   2.567  12.043  -0.343 -1.2880  0.2743 -0.3716
  442MOL0     H59618   2.596  11.887  -0.419 -0.8940 -0.0492  0.1996
  442MOL0     H59619   2.701  11.982  -0.145 -2.8766  1.7251 -1.2249
  442MOL0     H59620   2.715  11.815  -0.211  0.6757  0.8592  3.2874
  442MOL0     H59621   2.857  12.161  -0.327 -2.0016 -0.6551  2.1354
  442MOL0     H59622   3.183  12.085  -0.485 -2.7505  1.1127 -2.2187
  442MOL0     H59623   3.069  12.204  -0.446  0.5250 -0.9776 -1.5766
  442MOL0     H59624   3.169  12.191  -0.210 -0.9824 -3.2459 -0.2756
  442MOL0     H59625   3.306  12.092  -0.266 -0.2906  0.7209 -2.5523
  442MOL0     H59626   3.236  12.360  -0.399  1.2455  0.9671 -3.9288
  442MOL0     H59627   3.377  12.255  -0.434  2.2846  2.3061  0.6743
  442MOL0     H59628   3.367  12.384  -0.164  1.8564 -3.0643  1.7219
  442MOL0     H59629   3.441  12.444  -0.306  1.2594  0.4363  3.4401
  442MOL0     H59630   3.570  12.522  -0.139  0.7235  1.9978 -0.9245
  442MOL0     H59631   3.797  12.602  -0.069 -2.9582  0.6124 -1.1736
  442MOL0     H59632   4.282  12.267  -0.225  1.7407  0.5650 -1.8276
  442MOL0     H59633   4.518  12.308  -0.264  2.6463 -0.8547  1.6092
  442MOL0     H59634   4.662  12.697  -0.091 -0.7387 -0.1062  0.5544
  442MOL0     H59635   4.748  12.571   0.028  0.2961  0.0554 -0.0739
  442MOL0     H59636   4.863  12.695  -0.221 -0.4425  1.8964  0.3014
  442MOL0     H59637   4.884  12.748  -0.053 -2.6841  0.9177 -0.6783
  442MOL0     H59638   4.969  12.504   0.007 -0.2791  1.2716  0.0783
  442MOL0     H59639   4.937  12.454  -0.145  1.7552 -1.2677  0.7599
  442MOL0     H59640   5.100  12.680  -0.191 -3.0869  0.7258  2.8483
  442MOL0     H59641   5.149  12.505  -0.190  1.1391 -0.6719  1.0286
  442MOL0     H59642   5.119  12.680   0.071 -0.4602  1.8236 -1.0691
  442MOL0     H59643   5.250  12.718  -0.041  0.0059 -0.4529 -0.2936
  442MOL0     H59644   5.213  12.441   0.099 -0.9820 -0.9058 -0.4911
  442MOL0     H59645   5.312  12.476  -0.045 -0.6731 -0.7039  0.5893
  442MOL0     H59646   5.418  12.661   0.080  0.1146 -2.3914 -2.7700
  442MOL0     H59647   5.453  12.493   0.140 -2.8868 -3.4648 -0.9840
  442MOL0     H59648   5.255  12.702   0.252 -1.8961 -1.9487 -2.1592
  442MOL0     H59649   5.269  12.534   0.307 -1.6748  2.1380  0.8422
  442MOL0     H59650   4.496  12.623   0.025  0.9922  0.9600 -3.6589
  442MOL0     H59651   4.260  12.580   0.069 -1.6871  2.9085 -3.1120
  442MOL0     H59652   3.969  12.218  -0.148  1.6022  1.2670 -1.9555
  442MOL0     H59653   3.744  12.152  -0.243 -0.7878  0.3328  0.4316
  442MOL0     H59654   2.055  11.353   0.058 -0.6414  2.3454  0.2105
  442MOL0     H59655   1.886  11.489   0.190 -1.6332 -2.9693  0.9284
  442MOL0     H59656   1.745  11.754   0.337 -1.6125  1.0032 -0.1037
  442MOL0     H59657   1.554  11.900   0.366 -0.2314  1.6004  0.5763
  442MOL0     H59658   1.508  11.963   0.692 -0.0988  0.4682 -0.9805
  442MOL0     H59659   1.370  11.903   0.772  1.9386 -0.1820  0.1575
  442MOL0     H59660   1.333  12.138   0.778 -0.4082  1.7704 -0.8541
  442MOL0     H59661   1.222  12.065   0.663  0.8317 -0.7129  0.2705
  442MOL0     H59662   1.362  12.161   0.476  0.8347  1.4604 -0.5714
  442MOL0     H59663   1.499  12.145   0.565  0.3616  0.5573  1.4837
  442MOL0     H59664   1.287  12.354   0.632 -0.2011  0.7258  2.0708
  442MOL0     H59665   1.438  12.337   0.723 -0.7657 -1.8289  0.6287
  442MOL0     H59666   1.561  12.503   0.335 -1.5854 -1.0174 -1.5705
  442MOL0     H59667   1.422  11.661   0.706 -1.1969 -0.1353 -0.8356
  442MOL0     H59668   1.736  11.468   0.721  0.0503  0.0273  0.0866
  442MOL0     H59669   1.631  11.569   0.823  0.7215 -0.4293 -0.2913
  442MOL0     H59670   1.563  11.429   0.723 -1.5785  1.4755 -0.2536
  443MOL0     O59671   3.670   1.561   3.230 -0.1753 -0.0335 -0.1269
  443MOL0     C59672   3.643   1.576   3.346  0.0356 -0.0967 -0.3772
  443MOL0     O59673   3.587   1.482   3.423  0.0440 -0.3866  1.1103
  443MOL0     C59674   3.544   1.370   3.355 -0.1440  0.4366  0.7833
  443MOL0     C59675   3.609   1.252   3.373  0.2388 -0.4067  0.7432
  443MOL0     C59676   3.569   1.139   3.302  0.0097  0.1610  0.2534
  443MOL0     C59677   3.461   1.141   3.209 -0.4765  0.2460 -0.2691
  443MOL0     O59678   3.429   1.017   3.160 -0.4887 -0.0255  0.3366
  443MOL0     C59679   3.324   1.018   3.065  0.4450  0.4392 -0.1109
  443MOL0     C59680   3.287   0.869   3.073 -0.4134 -0.0195  0.1046
  443MOL0     C59681   3.192   0.827   2.965 -0.7116  0.2148 -0.7582
  443MOL0     C59682   3.256   0.813   2.825  0.1154  0.5762 -0.6334
  443MOL0     C59683   3.145   0.766   2.733  0.1692 -0.7300  0.1689
  443MOL0     C59684   3.187   0.747   2.584  0.8159  0.3724 -0.1260
  443MOL0     C59685   3.299   0.659   2.560 -0.2648 -0.4934 -0.3078
  443MOL0     C59686   3.303   0.522   2.626 -0.0844  0.4849 -1.0871
  443MOL0     N59687   3.178   0.443   2.594 -0.6030 -0.1570  0.7449
  443MOL0     C59688   3.146   0.373   2.478 -0.0811 -0.6347 -0.6067
  443MOL0     C59689   3.009   0.363   2.486  0.6102  0.2363 -0.5160
  443MOL0     C59690   2.923   0.352   2.365  0.7286  0.7253  0.0386
  443MOL0     C59691   2.804   0.254   2.390 -0.3431  0.0139  0.2254
  443MOL0     C59692   2.708   0.256   2.262  0.3221 -0.0001  0.2000
  443MOL0     C59693   2.587   0.171   2.278 -0.5988 -0.3480 -0.4344
  443MOL0     O59694   2.541   0.180   2.411  0.3781  0.1582 -0.1571
  443MOL0     C59695   2.420   0.116   2.441  0.0484 -0.5373  0.1604
  443MOL0     C59696   2.333   0.177   2.532  0.5297 -0.0516  0.5420
  443MOL0     C59697   2.208   0.118   2.567  0.3176  0.5770  0.2204
  443MOL0     C59698   2.159   0.001   2.509  0.7673 -0.2917  0.5118
  443MOL0     C59699   2.026  -0.054   2.542 -0.0579 -0.1798  0.1707
  443MOL0     O59700   2.006  -0.180   2.480  0.6447 -0.7321 -0.6051
  443MOL0     C59701   1.893  -0.244   2.515  0.2212 -0.2182  0.1582
  443MOL0     C59702   1.860  -0.267   2.653 -0.4945 -0.0372  0.0601
  443MOL0     C59703   1.751  -0.350   2.678 -0.1532  0.7913  0.5106
  443MOL0     C59704   1.666  -0.408   2.582  0.7310 -0.1647  0.8179
  443MOL0     O59705   1.553  -0.485   2.606  0.3652  0.2444 -0.5467
  443MOL0     C59706   1.529  -0.504   2.751 -0.0826 -0.6027 -0.0434
  443MOL0     C59707   1.395  -0.580   2.766  0.2660  0.6579 -0.5745
  443MOL0     C59708   1.366  -0.626   2.913 -0.3276 -0.3784 -0.5262
  443MOL0     C59709   1.240  -0.717   2.921  0.3803 -0.0384 -0.0556
  443MOL0     C59710   1.253  -0.858   2.995  0.0683 -0.5527  0.5292
  443MOL0     C59711   1.267  -0.837   3.149  0.1507 -0.1772  0.0387
  443MOL0     C59712   1.266  -0.969   3.208  0.3952  0.4315  0.2879
  443MOL0     C59713   1.389  -1.048   3.190  1.1616  0.1475  0.5618
  443MOL0    Cl59714   1.547  -0.964   3.134 -0.0298  0.3883 -0.2707
  443MOL0     C59715   1.696  -0.373   2.449  0.1385  0.1497 -0.2904
  443MOL0     C59716   1.806  -0.296   2.420  0.1095 -0.2513  0.2648
  443MOL0     O59717   1.939   0.019   2.591  0.3539  0.7339 -0.4702
  443MOL0     C59718   2.245  -0.053   2.410 -0.1298  0.1096 -0.1954
  443MOL0     C59719   2.375  -0.005   2.384 -0.5363 -0.3350 -0.8417
  443MOL0     N59720   2.966   0.412   2.610  0.6227 -0.3727 -0.6203
  443MOL0     N59721   3.069   0.463   2.674 -0.4556  0.8608 -0.2483
  443MOL0     C59722   3.385   1.261   3.197  0.0911  0.5826  0.4376
  443MOL0     C59723   3.436   1.371   3.266 -0.3428 -0.0832  0.1295
  443MOL0     C59724   3.668   1.703   3.409 -0.3088 -0.5475 -0.4613
  443MOL0     C59725   3.550   1.768   3.456  0.1835 -0.7788 -0.3028
  443MOL0     C59726   3.579   1.884   3.528 -0.2170 -0.0631  0.3150
  443MOL0     C59727   3.703   1.947   3.554 -0.2382  0.3575 -0.0343
  443MOL0     O59728   3.711   2.059   3.628  0.7434 -0.2469  0.5162
  443MOL0     C59729   3.831   2.131   3.639 -0.5599  0.3104 -1.1951
  443MOL0     C59730   3.864   2.220   3.521 -0.4948 -0.1593  0.3347
  443MOL0     C59731   3.756   2.327   3.473  0.1172  0.5478 -0.0148
  443MOL0     C59732   3.776   2.408   3.349  0.2666 -0.0277 -0.3452
  443MOL0     C59733   3.656   2.490   3.330 -0.1942  0.7387 -0.1946
  443MOL0     C59734   3.560   2.562   3.331 -0.3695  1.2077  0.2082
  443MOL0     C59735   3.814   1.883   3.495  0.4210  0.8980  0.4453
  443MOL0     C59736   3.804   1.760   3.427  0.0809 -0.2649 -0.7256
  443MOL0     C59737   3.922   1.682   3.380 -0.6034  0.5099  0.0082
  443MOL0     H59738   3.695   1.230   3.435  2.1907 -0.3811 -1.7627
  443MOL0     H59739   3.626   1.047   3.306  0.2991  0.2813 -0.8173
  443MOL0     H59740   3.236   1.071   3.102  0.6000 -1.2121  2.9143
  443MOL0     H59741   3.357   1.034   2.961 -0.7835  1.8262 -0.3216
  443MOL0     H59742   3.258   0.837   3.173  1.9723  0.4644  0.9987
  443MOL0     H59743   3.374   0.807   3.049  0.2228  1.2015 -0.8571
  443MOL0     H59744   3.124   0.912   2.967 -1.0402 -0.0500 -0.2945
  443MOL0     H59745   3.152   0.728   2.990  0.5282 -0.1708 -0.1904
  443MOL0     H59746   3.303   0.907   2.795  0.2112  1.3167  1.6404
  443MOL0     H59747   3.333   0.736   2.833 -0.4080  0.0798 -0.2258
  443MOL0     H59748   3.101   0.678   2.781 -0.8301 -0.0710  0.5101
  443MOL0     H59749   3.078   0.852   2.723 -1.8187 -2.3007 -0.8744
  443MOL0     H59750   3.106   0.694   2.533  1.9850 -1.1632 -0.4716
  443MOL0     H59751   3.200   0.841   2.529  0.4586  1.6585  1.8860
  443MOL0     H59752   3.391   0.707   2.595 -1.4544  0.7864  1.2012
  443MOL0     H59753   3.306   0.634   2.453  0.6607 -0.4198 -0.2723
  443MOL0     H59754   3.391   0.469   2.589 -2.4803 -3.0768 -2.2753
  443MOL0     H59755   3.308   0.541   2.734  0.1281 -0.0192 -1.0052
  443MOL0     H59756   3.220   0.350   2.402  1.6153 -1.1242  1.1209
  443MOL0     H59757   2.879   0.446   2.331 -5.6182 -1.5971  0.4654
  443MOL0     H59758   2.975   0.315   2.276  0.1971 -1.1727  0.4662
  443MOL0     H59759   2.850   0.157   2.410 -2.7748 -1.5105 -0.9618
  443MOL0     H59760   2.752   0.291   2.479 -2.1574  1.1484 -1.2210
  443MOL0     H59761   2.766   0.233   2.172 -0.9531  3.9047 -1.8836
  443MOL0     H59762   2.684   0.359   2.234  0.3615 -0.5255 -1.9360
  443MOL0     H59763   2.617   0.067   2.261 -2.1455 -0.8065 -0.4682
  443MOL0     H59764   2.516   0.198   2.200  1.7400 -0.4173 -2.7023
  443MOL0     H59765   2.361   0.272   2.576 -0.2120  0.5086 -0.1789
  443MOL0     H59766   2.151   0.164   2.647  3.4984  1.2291  2.3124
  443MOL0     H59767   1.931  -0.220   2.721  0.0036 -0.3204 -0.2565
  443MOL0     H59768   1.722  -0.363   2.782 -1.7174 -2.1132 -0.1729
  443MOL0     H59769   1.611  -0.559   2.798 -1.3719 -1.0340  1.8275
  443MOL0     H59770   1.505  -0.413   2.807  2.6618 -0.3588  0.8632
  443MOL0     H59771   1.318  -0.517   2.721  2.0015  2.0630 -1.7335
  443MOL0     H59772   1.407  -0.670   2.704  1.2618 -0.3386  0.9842
  443MOL0     H59773   1.443  -0.679   2.970  0.0463 -0.0522 -0.7245
  443MOL0     H59774   1.357  -0.530   2.964 -3.6612 -1.0991  0.5198
  443MOL0     H59775   1.200  -0.731   2.821  5.9789 -2.9117 -2.3246
  443MOL0     H59776   1.172  -0.662   2.986 -0.1142 -0.5039 -0.1731
  443MOL0     H59777   1.345  -0.904   2.958  0.5368  2.4050 -2.4778
  443MOL0     H59778   1.166  -0.921   2.975  0.4531 -1.0721  0.4842
  443MOL0     H59779   1.362  -0.792   3.180  0.6397 -1.3029  0.2346
  443MOL0     H59780   1.175  -0.791   3.185  0.0507  2.1040 -2.7209
  443MOL0     H59781   1.180  -1.032   3.184  2.1221 -2.8246  1.9093
  443MOL0     H59782   1.255  -0.958   3.316  1.1797  0.8506  0.3365
  443MOL0     H59783   1.416  -1.098   3.283 -0.0998  0.6351  1.2136
  443MOL0     H59784   1.359  -1.124   3.117  1.8071  0.5450 -0.1334
  443MOL0     H59785   1.637  -0.414   2.368  1.2673 -3.1902  0.4337
  443MOL0     H59786   1.836  -0.277   2.318 -0.1286  0.7593  0.3685
  443MOL0     H59787   2.215  -0.143   2.357  1.0628 -0.7039  0.4858
  443MOL0     H59788   2.425  -0.066   2.309 -1.3294 -1.3869 -0.5278
  443MOL0     H59789   3.290   1.280   3.147  0.7439  3.9883  0.2114
  443MOL0     H59790   3.380   1.462   3.248 -0.6470 -0.7224 -2.4979
  443MOL0     H59791   3.450   1.726   3.457  1.0280 -3.1976  3.1004
  443MOL0     H59792   3.494   1.923   3.582  0.0776 -1.3100  1.7439
  443MOL0     H59793   3.909   2.064   3.674  0.6597  3.3907  2.6033
  443MOL0     H59794   3.811   2.201   3.720 -1.3055  0.5504 -1.5706
  443MOL0     H59795   3.888   2.158   3.434 -2.1715  1.1257 -1.1334
  443MOL0     H59796   3.944   2.290   3.550 -1.4870  1.2417 -0.2013
  443MOL0     H59797   3.737   2.406   3.547 -0.5977  1.2267 -0.8936
  443MOL0     H59798   3.657   2.279   3.468 -0.1925  0.9373  1.5493
  443MOL0     H59799   3.869   2.466   3.351  0.8692 -0.9249 -1.2424
  443MOL0     H59800   3.789   2.338   3.266  1.7868  2.3602 -2.2853
  443MOL0     H59801   3.485   2.638   3.329  2.3745  4.1393 -2.8540
  443MOL0     H59802   3.907   1.938   3.489 -1.5706  4.5959  0.6171
  443MOL0     H59803   3.920   1.585   3.431  0.2556 -0.5351 -1.8197
  443MOL0     H59804   3.920   1.668   3.271 -0.4594 -1.5368  0.2168
  443MOL0     H59805   4.012   1.739   3.403 -2.1217  2.7360  0.7472
  444MOL0     O59806   6.994   1.555   6.500  0.3712 -0.2308  0.2851
  444MOL0     C59807   6.930   1.601   6.404 -0.3002 -0.5830 -0.8452
  444MOL0     O59808   6.980   1.634   6.279  0.2140 -0.4441 -0.1704
  444MOL0     C59809   7.114   1.639   6.257 -0.3547 -0.1755  0.0773
  444MOL0     C59810   7.181   1.752   6.298  0.5831 -0.6441  0.9741
  444MOL0     C59811   7.317   1.764   6.288 -0.2023  0.3725 -0.6456
  444MOL0     C59812   7.397   1.655   6.243  0.1124 -0.0083  0.1741
  444MOL0     O59813   7.533   1.674   6.227  0.2173 -0.1191 -0.2058
  444MOL0     C59814   7.624   1.608   6.313 -0.4259  0.0770  0.3480
  444MOL0     C59815   7.662   1.461   6.253 -0.0127 -0.3589 -0.4214
  444MOL0     C59816   7.780   1.407   6.327  0.3239  0.0082 -0.1353
  444MOL0     C59817   7.857   1.306   6.234  0.1498  0.8968 -0.2570
  444MOL0     C59818   7.970   1.228   6.302 -0.0389 -0.3045  0.6186
  444MOL0     C59819   8.096   1.303   6.321 -0.3940 -1.2571  0.2686
  444MOL0     C59820   8.222   1.229   6.353  0.1339  0.0251 -0.7401
  444MOL0     C59821   8.340   1.306   6.306 -0.3701  0.3811  0.0267
  444MOL0     N59822   8.469   1.256   6.364 -1.3551  0.5193 -0.2457
  444MOL0     C59823   8.531   1.323   6.465 -0.1661  0.5886  0.5094
  444MOL0     C59824   8.657   1.270   6.477  0.8337 -0.2381  0.1148
  444MOL0     C59825   8.772   1.323   6.564 -0.9729 -0.5295 -1.2452
  444MOL0     C59826   8.861   1.423   6.486  0.0124  0.4350 -0.9617
  444MOL0     C59827   8.933   1.516   6.590 -0.0838 -0.3894 -0.5342
  444MOL0     C59828   9.036   1.444   6.677  0.0037 -0.2108 -1.2847
  444MOL0     O59829   9.074   1.512   6.801 -0.7164 -0.2249 -1.0039
  444MOL0     C59830   9.168   1.613   6.798  0.3297 -0.3130  0.5677
  444MOL0     C59831   9.168   1.690   6.916 -0.0819 -0.5160  0.0339
  444MOL0     C59832   9.259   1.794   6.926  0.7269 -0.1342 -0.2817
  444MOL0     C59833   9.332   1.832   6.806 -1.3209  0.4490 -0.5209
  444MOL0     C59834   9.447   1.932   6.818  0.1207 -1.1034  0.4459
  444MOL0     O59835   9.459   2.018   6.933  0.5747 -0.4414  0.1331
  444MOL0     C59836   9.555   2.117   6.929 -0.1471  0.4095  0.7040
  444MOL0     C59837   9.529   2.249   6.913  0.1186 -0.2286  0.5338
  444MOL0     C59838   9.635   2.335   6.926  0.2486  0.6342  0.2922
  444MOL0     C59839   9.766   2.297   6.961  0.1830 -0.5038  0.0470
  444MOL0     O59840   9.860   2.400   6.990  0.0692 -0.3320  0.2619
  444MOL0     C59841   9.994   2.363   7.026  0.4856 -0.4651  0.3275
  444MOL0     C59842  10.091   2.483   7.019 -0.1791 -0.0557 -1.0065
  444MOL0     C59843  10.049   2.606   7.100  0.1081 -0.8055 -0.7076
  444MOL0     C59844  10.026   2.558   7.245 -0.7558 -0.6153 -1.0377
  444MOL0     C59845  10.019   2.667   7.357  0.2280  0.5248 -0.3570
  444MOL0     C59846   9.977   2.609   7.494 -0.3415 -0.2086  0.7380
  444MOL0     C59847  10.117   2.577   7.558  0.4580 -0.4339  0.0370
  444MOL0     C59848  10.098   2.467   7.661 -0.0926 -0.4024  0.4661
  444MOL0    Cl59849  10.022   2.538   7.811  0.0340 -0.2108  0.0462
  444MOL0     C59850   9.785   2.166   6.970 -0.6017  0.0946 -0.0897
  444MOL0     C59851   9.687   2.073   6.951  0.5440  0.4254 -0.4889
  444MOL0     O59852   9.507   1.957   6.712 -0.3454  0.4015  0.1684
  444MOL0     C59853   9.312   1.754   6.693 -0.3546 -0.5262  0.1773
  444MOL0     C59854   9.244   1.643   6.685  0.1343  0.3101 -0.1029
  444MOL0     N59855   8.652   1.168   6.386 -0.9984 -0.7551 -0.4410
  444MOL0     N59856   8.544   1.144   6.333  0.5354 -0.8659  0.1665
  444MOL0     C59857   7.327   1.539   6.191 -0.8361 -0.2284  0.5626
  444MOL0     C59858   7.179   1.533   6.196 -0.2450  0.6507  0.1836
  444MOL0     C59859   6.792   1.639   6.424  0.3174 -0.4119  0.0457
  444MOL0     C59860   6.755   1.726   6.530 -0.0256  0.4533  0.0963
  444MOL0     C59861   6.629   1.761   6.547  0.4726  0.3785 -0.4364
  444MOL0     C59862   6.522   1.722   6.457 -0.3843 -0.6047 -0.2947
  444MOL0     O59863   6.386   1.744   6.471 -0.0431  0.6168 -0.8068
  444MOL0     C59864   6.344   1.839   6.577 -0.2085  0.7482 -0.0040
  444MOL0     C59865   6.195   1.855   6.551  0.1793 -0.6292  0.5547
  444MOL0     C59866   6.109   1.729   6.575 -0.1877 -1.0590  0.2647
  444MOL0     C59867   5.955   1.745   6.565 -0.2667 -0.2348 -0.5608
  444MOL0     C59868   5.899   1.806   6.690 -0.0556 -0.3556 -0.0510
  444MOL0     C59869   5.843   1.861   6.788 -0.8619  0.5923  0.5651
  444MOL0     C59870   6.554   1.637   6.353 -0.1210  0.0815 -0.0883
  444MOL0     C59871   6.689   1.597   6.340  0.4682  1.4268 -0.6708
  444MOL0     C59872   6.727   1.500   6.227  0.0222 -0.2298  0.0452
  444MOL0     H59873   7.109   1.821   6.339  0.7339  0.6801 -0.8702
  444MOL0     H59874   7.361   1.843   6.348  0.1194  0.8250 -1.4631
  444MOL0     H59875   7.705   1.674   6.343  0.9331 -0.5959 -1.5866
  444MOL0     H59876   7.569   1.601   6.407 -0.6445  1.9478  0.3982
  444MOL0     H59877   7.692   1.467   6.148  1.4582  0.1761 -0.0054
  444MOL0     H59878   7.580   1.389   6.257  0.2114 -0.7603 -2.2110
  444MOL0     H59879   7.747   1.370   6.425  0.0140  0.9544  0.1209
  444MOL0     H59880   7.852   1.484   6.358  3.2985 -1.9305 -1.6752
  444MOL0     H59881   7.779   1.235   6.208 -0.0658 -0.2706  3.0371
  444MOL0     H59882   7.893   1.360   6.146 -0.2525  0.3444 -0.7627
  444MOL0     H59883   7.933   1.179   6.392  0.6661  0.6600  1.4441
  444MOL0     H59884   7.990   1.143   6.235  1.2959  0.5876 -0.1697
  444MOL0     H59885   8.117   1.363   6.232 -0.1315  2.3988  2.5860
  444MOL0     H59886   8.078   1.377   6.400  1.2895  1.8105 -2.0018
  444MOL0     H59887   8.221   1.132   6.302  2.5023 -0.7017  0.4264
  444MOL0     H59888   8.223   1.217   6.461  4.0363 -0.6738 -0.6817
  444MOL0     H59889   8.353   1.294   6.198  1.2412  0.6141  0.1657
  444MOL0     H59890   8.331   1.413   6.327 -1.3566  0.6383 -1.5788
  444MOL0     H59891   8.498   1.409   6.523  0.0459  0.4204  0.8813
  444MOL0     H59892   8.737   1.363   6.660  0.9929 -1.4049 -0.0974
  444MOL0     H59893   8.842   1.247   6.599  2.2821  1.9138 -1.9742
  444MOL0     H59894   8.943   1.387   6.423  2.0918  3.1261 -0.0182
  444MOL0     H59895   8.798   1.490   6.425  2.3907  3.0380 -0.7610
  444MOL0     H59896   8.863   1.559   6.662  3.3399 -1.5927  4.0491
  444MOL0     H59897   8.989   1.592   6.535 -0.4831  1.6753  1.7092
  444MOL0     H59898   9.126   1.423   6.618  1.8240  4.0750 -0.4172
  444MOL0     H59899   8.995   1.353   6.722 -1.2481 -0.3808 -2.6759
  444MOL0     H59900   9.100   1.672   6.999 -2.3839  2.0514 -1.1361
  444MOL0     H59901   9.284   1.841   7.020 -1.7301  0.0632  0.3412
  444MOL0     H59902   9.429   2.284   6.892  0.6696  1.0191 -0.1298
  444MOL0     H59903   9.611   2.440   6.937  2.3844  1.1785  0.1107
  444MOL0     H59904   9.998   2.303   7.118  3.4147 -2.4594 -0.9429
  444MOL0     H59905  10.029   2.293   6.950  1.1646  0.5281 -0.2943
  444MOL0     H59906  10.186   2.443   7.056 -1.3702 -3.8446 -1.6236
  444MOL0     H59907  10.091   2.506   6.913 -0.2013 -0.8701 -1.1894
  444MOL0     H59908  10.122   2.688   7.093 -1.1649  0.4039 -0.3784
  444MOL0     H59909   9.952   2.646   7.070 -0.1240 -1.9026 -1.4596
  444MOL0     H59910  10.114   2.496   7.266 -0.7820 -0.8386 -1.5592
  444MOL0     H59911   9.941   2.488   7.248  1.1256 -3.0123  0.2235
  444MOL0     H59912   9.945   2.739   7.322 -0.2454 -0.1988 -0.8823
  444MOL0     H59913  10.110   2.727   7.355  0.6216 -0.0819 -1.0026
  444MOL0     H59914   9.920   2.682   7.552 -1.7941 -1.8623  1.4922
  444MOL0     H59915   9.910   2.524   7.480 -3.5156  1.8984  1.9751
  444MOL0     H59916  10.155   2.666   7.609 -2.7869  2.8900 -2.7836
  444MOL0     H59917  10.189   2.534   7.488  0.5455 -2.0112  1.0526
  444MOL0     H59918  10.044   2.387   7.610  2.6933 -3.8061  2.4325
  444MOL0     H59919  10.187   2.423   7.706 -0.2455 -1.7050 -0.4496
  444MOL0     H59920   9.886   2.131   6.987  1.2817  4.9830  0.3403
  444MOL0     H59921   9.711   1.968   6.962  0.3385  0.3801 -0.4675
  444MOL0     H59922   9.372   1.774   6.605 -0.3642  0.2819  0.3446
  444MOL0     H59923   9.241   1.577   6.599  3.4060 -0.5499  0.3118
  444MOL0     H59924   7.396   1.461   6.161  0.6308 -0.4431  4.0596
  444MOL0     H59925   7.126   1.449   6.152  0.5989  0.3302 -0.2401
  444MOL0     H59926   6.836   1.744   6.600 -0.4379 -0.8515  0.9464
  444MOL0     H59927   6.604   1.816   6.637  1.2053  2.0985 -1.2352
  444MOL0     H59928   6.392   1.937   6.583 -2.9054  2.1483  0.3765
  444MOL0     H59929   6.363   1.791   6.673 -0.6423 -0.9682 -0.7383
  444MOL0     H59930   6.180   1.888   6.448 -1.3875  0.0941  0.9921
  444MOL0     H59931   6.153   1.934   6.614 -2.0298 -0.6369 -0.7868
  444MOL0     H59932   6.137   1.704   6.678 -4.6721  1.6075  2.4540
  444MOL0     H59933   6.142   1.659   6.498 -0.2916  2.1756 -3.0323
  444MOL0     H59934   5.923   1.799   6.476 -1.1590 -1.5190 -1.0476
  444MOL0     H59935   5.910   1.645   6.569  1.0075 -0.7990  0.3254
  444MOL0     H59936   5.819   1.900   6.885 -0.3308 -2.5527  2.0953
  444MOL0     H59937   6.484   1.607   6.276  1.0798 -0.9408 -0.8302
  444MOL0     H59938   6.774   1.412   6.272 -0.3166  0.8533  2.7033
  444MOL0     H59939   6.639   1.477   6.166 -0.2862  1.8975 -0.3865
  444MOL0     H59940   6.791   1.554   6.156  1.2317 -0.3177  1.0410
  445MOL0     O59941   5.091   8.302   1.432  0.1707  0.2426 -0.0680
  445MOL0     C59942   5.130   8.190   1.460 -0.0823  0.1745 -0.5262
  445MOL0     O59943   5.267   8.152   1.456 -0.1201  0.1951 -0.2595
  445MOL0     C59944   5.367   8.236   1.401  0.7880  1.0050  0.3912
  445MOL0     C59945   5.368   8.274   1.266  0.0652  0.0571 -0.2155
  445MOL0     C59946   5.465   8.350   1.208 -0.1378 -1.2125 -0.5134
  445MOL0     C59947   5.577   8.405   1.289  0.5566  0.4098 -0.3346
  445MOL0     O59948   5.683   8.458   1.219 -0.5372 -0.1277  0.1775
  445MOL0     C59949   5.804   8.486   1.291  0.0543 -0.7593 -0.1166
  445MOL0     C59950   5.904   8.553   1.196  0.7604  0.2562 -0.3593
  445MOL0     C59951   6.021   8.590   1.284 -0.0070 -0.2347  0.4379
  445MOL0     C59952   6.146   8.635   1.202 -0.8240  0.1112 -0.3917
  445MOL0     C59953   6.273   8.648   1.292  0.4429  0.2363  0.2728
  445MOL0     C59954   6.330   8.506   1.342  0.2882  0.1466 -0.5401
  445MOL0     C59955   6.411   8.506   1.469 -0.1727  0.0297 -0.7135
  445MOL0     C59956   6.343   8.558   1.590 -0.2317 -0.7965 -0.2688
  445MOL0     N59957   6.218   8.510   1.627  1.2580 -1.1760 -0.2083
  445MOL0     C59958   6.201   8.378   1.659  0.1977 -0.5462 -0.1619
  445MOL0     C59959   6.072   8.355   1.671 -0.2357  0.2309 -0.5338
  445MOL0     C59960   6.023   8.216   1.695  0.7361  0.2121 -1.0346
  445MOL0     C59961   6.008   8.139   1.564 -0.7069  0.2974 -0.2265
  445MOL0     C59962   5.914   8.020   1.561 -0.6863  0.2730 -0.6618
  445MOL0     C59963   5.765   8.060   1.577 -0.2611 -0.0480 -0.8217
  445MOL0     O59964   5.744   8.020   1.708 -0.3616 -0.7800  0.5175
  445MOL0     C59965   5.626   7.947   1.722 -0.5679 -0.0723  0.3680
  445MOL0     C59966   5.503   7.980   1.663 -0.2479  0.4717 -0.8875
  445MOL0     C59967   5.394   7.897   1.683 -0.5917  0.0854  0.5023
  445MOL0     C59968   5.399   7.793   1.780 -0.5806 -0.2882  0.5286
  445MOL0     C59969   5.275   7.717   1.804 -0.3965  0.3166  1.2646
  445MOL0     O59970   5.291   7.600   1.877 -0.2668 -0.4943  0.5567
  445MOL0     C59971   5.189   7.510   1.900  0.1390 -0.5287 -0.3625
  445MOL0     C59972   5.200   7.450   2.028  0.2398 -0.1047 -0.9735
  445MOL0     C59973   5.098   7.359   2.072 -0.4963  0.1219 -0.3741
  445MOL0     C59974   4.993   7.331   1.991 -0.6384  1.0866  0.7036
  445MOL0     O59975   4.891   7.240   2.022 -0.6321 -0.7774 -0.4057
  445MOL0     C59976   4.877   7.192   2.156  0.4304  0.2128 -0.0472
  445MOL0     C59977   4.744   7.125   2.170  0.2856  0.2501 -0.1476
  445MOL0     C59978   4.631   7.198   2.108  0.0178 -0.7365  0.7600
  445MOL0     C59979   4.622   7.334   2.161  0.4880 -0.6231  0.7581
  445MOL0     C59980   4.495   7.400   2.099  0.9708 -0.3025  0.0583
  445MOL0     C59981   4.358   7.330   2.145 -0.0058  0.0191 -0.5243
  445MOL0     C59982   4.242   7.430   2.139  0.2903 -0.2392  0.5546
  445MOL0     C59983   4.110   7.378   2.205 -0.2821 -0.0527 -0.0711
  445MOL0    Cl59984   4.058   7.228   2.112  0.3489  0.0272 -0.5152
  445MOL0     C59985   4.971   7.404   1.871  0.5691 -0.1228  0.4409
  445MOL0     C59986   5.067   7.494   1.829  0.0031 -0.4788 -0.3582
  445MOL0     O59987   5.167   7.773   1.782  0.0972 -0.2640 -0.8859
  445MOL0     C59988   5.522   7.765   1.845 -0.0853  0.1665  0.4739
  445MOL0     C59989   5.632   7.847   1.814  0.3440  0.0224 -0.2214
  445MOL0     N59990   6.003   8.465   1.632 -0.6969  0.2826  0.1958
  445MOL0     N59991   6.087   8.568   1.608  0.0333 -0.3358 -0.4091
  445MOL0     C59992   5.567   8.371   1.425 -0.0506 -0.3462  0.6291
  445MOL0     C59993   5.457   8.297   1.478 -0.3298  0.2253 -0.7267
  445MOL0     C59994   5.031   8.084   1.509  0.1892 -0.1468 -0.1711
  445MOL0     C59995   5.044   8.028   1.635  0.8005  0.4682 -0.4726
  445MOL0     C59996   4.958   7.945   1.698  0.4883  0.1292  0.2402
  445MOL0     C59997   4.838   7.913   1.633 -0.0643  0.2117 -0.3796
  445MOL0     O59998   4.743   7.820   1.659 -0.6950  0.0093 -0.9268
  445MOL0     C59999   4.760   7.766   1.786  0.2506  0.4622 -0.6750
  445MOL0     C60000   4.644   7.668   1.824  0.3837  0.5282  0.0471
  445MOL0     C60001   4.513   7.740   1.833  0.4009 -1.9880  0.1033
  445MOL0     C60002   4.388   7.671   1.897 -0.8762 -0.1061 -0.1188
  445MOL0     C60003   4.272   7.721   1.830  0.4506 -0.1247 -0.3981
  445MOL0     C60004   4.175   7.742   1.767  0.3879  0.1127  0.1020
  445MOL0     C60005   4.810   7.976   1.515 -0.6069  0.0744  0.3904
  445MOL0     C60006   4.904   8.059   1.448  0.5306  0.2566 -0.1590
  445MOL0     C60007   4.866   8.139   1.327 -0.2691 -0.3607  0.2393
  445MOL0     H60008   5.283   8.253   1.203  0.4561 -1.9197 -0.1557
  445MOL0     H60009   5.463   8.385   1.105  2.3249  1.8659  0.3090
  445MOL0     H60010   5.787   8.548   1.379 -1.2360  0.0367 -0.9088
  445MOL0     H60011   5.847   8.391   1.323  1.0180 -1.3265 -2.8011
  445MOL0     H60012   5.869   8.638   1.138  0.4138  0.7281  0.5313
  445MOL0     H60013   5.928   8.476   1.122  0.4445  0.4544 -0.6696
  445MOL0     H60014   6.045   8.502   1.345  0.8860 -1.4127 -1.5070
  445MOL0     H60015   5.988   8.669   1.352  0.8734  0.5326  0.0008
  445MOL0     H60016   6.170   8.563   1.124 -3.3454  2.1293 -3.2737
  445MOL0     H60017   6.126   8.729   1.150  1.1392  0.4252 -0.6525
  445MOL0     H60018   6.353   8.704   1.243  1.5739  1.2522  3.0461
  445MOL0     H60019   6.250   8.715   1.375 -2.1146 -0.1788 -0.0305
  445MOL0     H60020   6.245   8.439   1.357  0.3011  0.0295 -0.9666
  445MOL0     H60021   6.375   8.450   1.259 -1.6228 -2.2006 -0.1181
  445MOL0     H60022   6.505   8.560   1.454 -0.7617  1.3857  0.2924
  445MOL0     H60023   6.432   8.402   1.494 -1.8170 -0.0994  0.2370
  445MOL0     H60024   6.415   8.545   1.672  0.6049  0.9415 -0.6796
  445MOL0     H60025   6.348   8.667   1.587  4.4979 -0.8253 -1.5611
  445MOL0     H60026   6.275   8.304   1.687 -0.3053 -2.1609 -2.7455
  445MOL0     H60027   6.093   8.162   1.759  0.2434  0.3314 -0.3828
  445MOL0     H60028   5.926   8.212   1.746  1.1214 -2.6544 -0.3561
  445MOL0     H60029   5.970   8.199   1.481 -0.5462  0.8811  0.1230
  445MOL0     H60030   6.112   8.115   1.537 -0.7421  1.7805 -1.8643
  445MOL0     H60031   5.938   7.941   1.633  0.6826  1.1263 -0.1521
  445MOL0     H60032   5.923   7.972   1.463  1.0466 -1.0905  0.1236
  445MOL0     H60033   5.703   8.015   1.499 -1.1812 -0.1848 -0.0372
  445MOL0     H60034   5.765   8.167   1.553  0.9143  0.0178 -0.5923
  445MOL0     H60035   5.491   8.061   1.592  1.6745 -0.0860 -1.9342
  445MOL0     H60036   5.297   7.907   1.635 -0.6292  0.3647  0.6363
  445MOL0     H60037   5.288   7.451   2.091 -0.3484 -2.9642  0.0230
  445MOL0     H60038   5.125   7.309   2.164  3.9214 -0.9042 -1.9812
  445MOL0     H60039   4.956   7.119   2.177  2.6031  2.5440  0.2800
  445MOL0     H60040   4.876   7.275   2.227  1.5137  0.4094 -0.2454
  445MOL0     H60041   4.759   7.034   2.111 -1.3065  0.9045 -1.6583
  445MOL0     H60042   4.734   7.103   2.276 -0.6585 -0.7887 -0.4378
  445MOL0     H60043   4.635   7.202   1.998 -1.0156 -2.7309  0.6154
  445MOL0     H60044   4.544   7.135   2.127 -0.4337 -0.5725 -0.6501
  445MOL0     H60045   4.709   7.391   2.126  1.0370 -2.7352 -1.5939
  445MOL0     H60046   4.617   7.330   2.270 -0.7565 -0.2662  0.7335
  445MOL0     H60047   4.489   7.394   1.990 -1.9837 -1.4446  0.2027
  445MOL0     H60048   4.504   7.503   2.134 -6.6534  0.0301  2.8204
  445MOL0     H60049   4.342   7.243   2.082 -2.2691 -0.1889  0.2568
  445MOL0     H60050   4.365   7.292   2.248  2.2465  0.8351 -0.3256
  445MOL0     H60051   4.217   7.443   2.033  0.9890 -1.6875  0.1894
  445MOL0     H60052   4.268   7.526   2.185  0.7034  0.3177 -0.7724
  445MOL0     H60053   4.128   7.361   2.312 -1.4405  1.6167  0.4505
  445MOL0     H60054   4.035   7.458   2.196  0.5942  0.8987  0.8442
  445MOL0     H60055   4.885   7.387   1.808  0.1452  1.7262  0.4624
  445MOL0     H60056   5.054   7.543   1.734  2.7741  0.5985 -0.2792
  445MOL0     H60057   5.530   7.681   1.913 -1.8699 -0.4477 -0.0091
  445MOL0     H60058   5.724   7.833   1.870  0.7939 -0.2948 -1.0227
  445MOL0     H60059   5.634   8.411   1.500 -1.3054  0.9596  1.1156
  445MOL0     H60060   5.449   8.265   1.581  1.0273  1.2783 -0.2635
  445MOL0     H60061   5.127   8.065   1.694  0.5649 -0.2925  0.3451
  445MOL0     H60062   4.972   7.910   1.800 -1.3248  0.0756  0.4997
  445MOL0     H60063   4.758   7.848   1.858 -1.3864  2.8852 -3.2761
  445MOL0     H60064   4.857   7.716   1.796  0.7297  1.8389  4.6048
  445MOL0     H60065   4.670   7.624   1.921 -0.2767 -1.1624 -0.5118
  445MOL0     H60066   4.629   7.586   1.753  0.7363  1.2051 -0.8209
  445MOL0     H60067   4.490   7.772   1.731  1.5100 -1.0271  0.1242
  445MOL0     H60068   4.535   7.827   1.896 -3.0458  0.3867 -1.6371
  445MOL0     H60069   4.389   7.561   1.896  0.5620 -0.1272 -1.8699
  445MOL0     H60070   4.385   7.705   2.001 -1.5046 -0.0690 -0.1480
  445MOL0     H60071   4.085   7.769   1.716  0.9834  4.4342  0.9558
  445MOL0     H60072   4.719   7.957   1.458 -0.7887  2.0235 -0.0599
  445MOL0     H60073   4.952   8.141   1.260 -1.0844  2.2714 -0.8596
  445MOL0     H60074   4.777   8.092   1.286  1.0310 -3.4006  0.6594
  445MOL0     H60075   4.856   8.245   1.354  2.4926  0.5950 -1.9509
  446MOL0     O60076   0.785   2.048   0.939 -0.3277  0.6144 -0.3362
  446MOL0     C60077   0.743   2.158   0.974 -0.6868  0.7964 -0.3650
  446MOL0     O60078   0.818   2.254   1.045 -0.0889  0.1136  0.0860
  446MOL0     C60079   0.952   2.222   1.085  0.4118 -1.3295  0.8318
  446MOL0     C60080   0.975   2.175   1.210  0.4152  0.0483  0.7531
  446MOL0     C60081   1.097   2.144   1.259 -0.6489 -0.4694 -0.3198
  446MOL0     C60082   1.199   2.135   1.170 -0.4470 -0.0787  0.2057
  446MOL0     O60083   1.322   2.108   1.227 -0.4713  1.0232  0.3296
  446MOL0     C60084   1.402   2.004   1.153  0.4156  0.1398 -0.6604
  446MOL0     C60085   1.509   1.936   1.242 -0.3067  0.4760 -0.4388
  446MOL0     C60086   1.443   1.809   1.311 -0.1874 -0.2846  0.3348
  446MOL0     C60087   1.368   1.848   1.431 -0.1707  0.4516 -0.5753
  446MOL0     C60088   1.276   1.740   1.471  0.0884  0.5430 -0.3277
  446MOL0     C60089   1.188   1.782   1.592  0.3329 -0.2243 -0.5585
  446MOL0     C60090   1.075   1.694   1.637  0.5706 -1.2842  0.3776
  446MOL0     C60091   1.012   1.757   1.766 -0.0503 -0.5502  0.8236
  446MOL0     N60092   0.985   1.664   1.877  0.4423 -0.3704  0.1648
  446MOL0     C60093   0.913   1.690   1.994 -0.0557 -0.4964 -0.2031
  446MOL0     C60094   0.927   1.581   2.071 -1.5888 -0.7977  0.7644
  446MOL0     C60095   0.879   1.562   2.206  0.2635 -0.6321  0.4565
  446MOL0     C60096   0.944   1.660   2.310 -0.0240  0.5145  0.1019
  446MOL0     C60097   0.853   1.774   2.344 -0.7576 -0.0752  0.4044
  446MOL0     C60098   0.933   1.896   2.365 -0.2686 -0.1004  0.1330
  446MOL0     O60099   0.853   2.000   2.421 -0.1924  0.4062 -0.2546
  446MOL0     C60100   0.928   2.110   2.448  0.3088 -0.8281 -0.2652
  446MOL0     C60101   0.890   2.186   2.560  0.2878  0.2109  0.3666
  446MOL0     C60102   0.964   2.300   2.590  1.0722  0.2424  0.0159
  446MOL0     C60103   1.062   2.348   2.507  0.6475  1.5754 -0.3344
  446MOL0     C60104   1.156   2.451   2.554  0.0580 -0.0510  0.5411
  446MOL0     O60105   1.275   2.455   2.493 -0.7527 -0.1862 -0.0182
  446MOL0     C60106   1.343   2.577   2.487  0.0189 -0.0907  0.9450
  446MOL0     C60107   1.377   2.636   2.357 -0.1910  0.5275 -0.6053
  446MOL0     C60108   1.451   2.753   2.345 -0.7127 -0.7379  0.5474
  446MOL0     C60109   1.505   2.811   2.464 -0.1476 -1.1174 -0.3128
  446MOL0     O60110   1.593   2.928   2.460  0.4009 -0.0463 -0.2977
  446MOL0     C60111   1.652   2.965   2.335 -0.5425 -0.0892 -0.4069
  446MOL0     C60112   1.763   3.073   2.349 -0.4812  0.2836 -0.2931
  446MOL0     C60113   1.876   3.031   2.446 -0.5686 -0.5531 -0.6141
  446MOL0     C60114   1.952   2.894   2.426  0.2829 -0.1265 -0.1600
  446MOL0     C60115   2.094   2.882   2.486 -0.3787  0.1397 -0.0377
  446MOL0     C60116   2.187   2.960   2.395  0.0030  0.8472 -0.0509
  446MOL0     C60117   2.319   2.986   2.477  0.3120  0.8152 -0.2450
  446MOL0     C60118   2.425   2.874   2.479  0.7064 -0.4859 -0.4447
  446MOL0    Cl60119   2.584   2.945   2.520 -0.2577  0.4302 -0.1511
  446MOL0     C60120   1.470   2.753   2.585  0.5451 -0.8191  0.7009
  446MOL0     C60121   1.402   2.637   2.600  0.0249  1.0649 -0.6646
  446MOL0     O60122   1.111   2.521   2.645 -0.0650  0.7384 -0.0625
  446MOL0     C60123   1.088   2.279   2.391 -1.0917 -0.6179 -0.0907
  446MOL0     C60124   1.030   2.161   2.363 -0.2169 -0.7870 -0.8372
  446MOL0     N60125   1.015   1.498   2.008 -0.1103  0.1276  0.7941
  446MOL0     N60126   1.041   1.539   1.890 -0.2195 -0.3181 -0.0152
  446MOL0     C60127   1.186   2.160   1.035  0.0290  0.1327 -0.3279
  446MOL0     C60128   1.061   2.210   0.987 -0.4890  0.6054  0.2742
  446MOL0     C60129   0.593   2.195   0.969 -0.3195  0.0193  0.4631
  446MOL0     C60130   0.539   2.297   1.052 -0.4845 -0.2376  0.4762
  446MOL0     C60131   0.393   2.332   1.047  0.0200  0.0222  0.7255
  446MOL0     C60132   0.312   2.273   0.954  1.2436 -0.3717  0.1049
  446MOL0     O60133   0.182   2.316   0.944  0.3917 -0.4887 -0.0014
  446MOL0     C60134   0.100   2.315   0.828  0.2970 -0.7193 -0.4634
  446MOL0     C60135   0.023   2.456   0.824 -1.0081 -0.1878 -0.0072
  446MOL0     C60136  -0.127   2.449   0.875 -0.1269 -0.9210 -0.2535
  446MOL0     C60137  -0.220   2.403   0.768 -0.3676 -0.2695 -0.0395
  446MOL0     C60138  -0.361   2.405   0.806 -0.6308 -0.2079  0.4072
  446MOL0     C60139  -0.474   2.430   0.840 -0.2284  0.4032 -0.2156
  446MOL0     C60140   0.367   2.168   0.870 -0.2597 -0.3598 -0.2255
  446MOL0     C60141   0.497   2.121   0.886 -1.6767 -0.0683 -0.5688
  446MOL0     C60142   0.527   2.017   0.794  0.3479  0.0830 -0.8914
  446MOL0     H60143   0.893   2.174   1.282  0.4343  1.5349  0.8237
  446MOL0     H60144   1.127   2.108   1.357 -1.1303 -3.0460 -1.0504
  446MOL0     H60145   1.331   1.928   1.120 -1.4004  1.4786  0.0064
  446MOL0     H60146   1.431   2.044   1.055 -1.9044 -2.0275 -2.3899
  446MOL0     H60147   1.567   1.983   1.322 -1.4522 -1.0656  1.3974
  446MOL0     H60148   1.589   1.903   1.175 -0.0551  1.4629 -0.6393
  446MOL0     H60149   1.529   1.750   1.345  0.8342  0.5839 -0.6224
  446MOL0     H60150   1.373   1.754   1.247 -2.0356 -1.9879  3.5651
  446MOL0     H60151   1.427   1.868   1.521 -2.3084 -0.4168  1.1276
  446MOL0     H60152   1.304   1.935   1.412 -1.8882 -0.6065  0.0992
  446MOL0     H60153   1.213   1.715   1.385 -0.8437 -0.8405  0.7199
  446MOL0     H60154   1.333   1.649   1.493 -1.3105 -0.2838  0.0005
  446MOL0     H60155   1.251   1.785   1.682  0.1950  0.1262 -0.4744
  446MOL0     H60156   1.152   1.881   1.564  0.5556 -0.7532 -2.9458
  446MOL0     H60157   1.111   1.593   1.656  1.4830 -0.4739  3.5006
  446MOL0     H60158   0.996   1.679   1.562  2.0479 -2.9190 -0.9276
  446MOL0     H60159   1.075   1.841   1.797  0.0480 -0.2481 -0.1678
  446MOL0     H60160   0.917   1.808   1.747 -0.2035 -0.9085  0.6297
  446MOL0     H60161   0.852   1.768   2.040  2.1286  0.0996  1.8886
  446MOL0     H60162   0.770   1.565   2.203  0.2998  2.1241 -2.1456
  446MOL0     H60163   0.900   1.463   2.248  0.6081 -1.4007 -1.4057
  446MOL0     H60164   0.973   1.608   2.402 -1.9952  0.1675  0.5756
  446MOL0     H60165   1.040   1.691   2.267  1.4293 -2.3498  1.0313
  446MOL0     H60166   0.804   1.751   2.439 -1.1282  1.8877  0.7195
  446MOL0     H60167   0.775   1.786   2.268 -2.4221 -1.5460  1.7915
  446MOL0     H60168   0.977   1.926   2.270 -2.5145  0.9324 -0.6472
  446MOL0     H60169   1.015   1.869   2.433  0.2771  2.3769  0.5736
  446MOL0     H60170   0.825   2.146   2.636  0.4574 -0.9658 -0.0925
  446MOL0     H60171   0.940   2.351   2.683 -1.5568 -1.0202  0.1281
  446MOL0     H60172   1.336   2.587   2.270  1.1895  0.1869 -1.0956
  446MOL0     H60173   1.470   2.797   2.247 -2.6951  3.0711  1.6851
  446MOL0     H60174   1.706   2.874   2.309  1.0245  0.0368  2.0680
  446MOL0     H60175   1.581   2.985   2.255  0.7683  2.2207 -1.0779
  446MOL0     H60176   1.800   3.084   2.247 -4.1536 -2.4095 -2.1260
  446MOL0     H60177   1.722   3.163   2.396 -3.4030 -0.7713 -0.6134
  446MOL0     H60178   1.940   3.120   2.443 -1.0699 -0.0710  1.2850
  446MOL0     H60179   1.835   3.034   2.548  2.4274 -2.4868  0.8051
  446MOL0     H60180   1.961   2.873   2.319  1.7903  2.1532 -0.5635
  446MOL0     H60181   1.891   2.814   2.469 -1.4171  1.0363 -0.3100
  446MOL0     H60182   2.137   2.782   2.494  1.8095  0.9847 -0.4635
  446MOL0     H60183   2.081   2.926   2.586 -2.0783 -0.6039  0.1170
  446MOL0     H60184   2.199   2.904   2.302 -1.7026 -1.7094  1.1518
  446MOL0     H60185   2.148   3.061   2.382 -1.8166  0.4557  1.8827
  446MOL0     H60186   2.304   3.024   2.579 -0.4169 -1.8675  0.7143
  446MOL0     H60187   2.380   3.061   2.425  2.6686 -1.6395 -1.2696
  446MOL0     H60188   2.399   2.790   2.544 -0.4526  0.1930 -0.0239
  446MOL0     H60189   2.445   2.843   2.375  1.8803  3.2250 -1.4652
  446MOL0     H60190   1.529   2.797   2.665 -0.9849 -0.5600  1.7472
  446MOL0     H60191   1.392   2.584   2.695 -1.7262 -2.3029 -2.5388
  446MOL0     H60192   1.166   2.311   2.323 -2.7357 -0.9627 -2.2325
  446MOL0     H60193   1.059   2.103   2.276  0.0842  0.1082 -1.3413
  446MOL0     H60194   1.272   2.148   0.970  2.2430 -1.3198  2.6503
  446MOL0     H60195   1.042   2.235   0.883  0.3244  1.0681  0.2260
  446MOL0     H60196   0.610   2.342   1.120 -1.1856  0.8764  0.5077
  446MOL0     H60197   0.353   2.418   1.100 -0.8624  0.0967 -0.0407
  446MOL0     H60198   0.022   2.239   0.820 -1.5277  1.1149 -0.6701
  446MOL0     H60199   0.167   2.304   0.742  1.6707 -0.0413  0.4629
  446MOL0     H60200   0.033   2.495   0.722  0.7667 -0.6901 -0.0574
  446MOL0     H60201   0.067   2.531   0.891 -0.5289  1.2226 -1.8251
  446MOL0     H60202  -0.151   2.553   0.897 -0.7423 -1.5884  2.7594
  446MOL0     H60203  -0.148   2.391   0.966 -0.7246 -0.5064 -0.1189
  446MOL0     H60204  -0.218   2.459   0.674  0.2892 -2.8368 -1.6933
  446MOL0     H60205  -0.197   2.299   0.742 -2.8742 -0.8605 -0.0768
  446MOL0     H60206  -0.566   2.468   0.880  0.0888 -0.7071  1.6736
  446MOL0     H60207   0.305   2.126   0.791 -0.6760 -1.2459  0.5490
  446MOL0     H60208   0.462   1.932   0.818  2.8226 -2.1827 -1.6879
  446MOL0     H60209   0.512   2.057   0.694 -0.9131  1.6339 -0.1365
  446MOL0     H60210   0.627   1.973   0.794  2.0798  3.6631 -0.1041
  447MOL0     O60211   9.605   4.148  11.173 -0.9418 -0.1047 -0.0679
  447MOL0     C60212   9.558   4.141  11.057 -0.6721  1.5887  0.4585
  447MOL0     O60213   9.604   4.053  10.964  0.2258 -0.6229  0.0476
  447MOL0     C60214   9.736   4.010  10.970 -0.1346 -0.0678 -0.6294
  447MOL0     C60215   9.777   3.878  10.934  0.4659 -0.6612  0.0905
  447MOL0     C60216   9.910   3.848  10.935 -0.7238 -0.5936 -0.0792
  447MOL0     C60217  10.010   3.933  10.969  0.1515  0.6837 -0.7913
  447MOL0     O60218  10.141   3.876  10.986  0.1082 -0.6563 -0.9567
  447MOL0     C60219  10.241   3.936  11.063 -0.0894  0.1848  0.1578
  447MOL0     C60220  10.371   3.871  11.030 -1.0329 -0.1089 -0.0780
  447MOL0     C60221  10.477   3.975  11.073 -0.0471  0.1365  0.0791
  447MOL0     C60222  10.611   3.913  11.072  0.1920  0.4964 -0.4850
  447MOL0     C60223  10.715   4.001  11.133  0.3292  0.1586 -0.8307
  447MOL0     C60224  10.735   4.132  11.070  0.8321 -0.6807  1.2928
  447MOL0     C60225  10.839   4.217  11.145  0.2351  0.9387  0.5185
  447MOL0     C60226  10.980   4.150  11.130 -0.0429 -0.8114 -0.4844
  447MOL0     N60227  11.079   4.234  11.187 -0.5642  0.3094 -0.1261
  447MOL0     C60228  11.139   4.334  11.121  0.4833 -0.1130  0.5788
  447MOL0     C60229  11.224   4.380  11.208 -0.8489 -0.8166 -0.5475
  447MOL0     C60230  11.325   4.489  11.199 -0.5228  0.0604  0.1402
  447MOL0     C60231  11.470   4.423  11.207 -0.3612 -0.8631 -0.8259
  447MOL0     C60232  11.575   4.533  11.165 -0.6376  0.2787  1.1945
  447MOL0     C60233  11.715   4.474  11.197 -0.8004 -0.8301 -1.0584
  447MOL0     O60234  11.819   4.562  11.153  0.0934 -0.2031 -0.1548
  447MOL0     C60235  11.920   4.589  11.242 -0.1101 -0.2228  0.3622
  447MOL0     C60236  11.898   4.661  11.358 -0.0080 -0.0905  0.4356
  447MOL0     C60237  12.005   4.706  11.438 -0.2715  0.6357  0.5040
  447MOL0     C60238  12.133   4.675  11.403 -0.4275 -0.4029  0.0869
  447MOL0     C60239  12.248   4.709  11.489  0.0128  0.7734 -0.0509
  447MOL0     O60240  12.223   4.793  11.589  0.6933 -0.3675 -0.2207
  447MOL0     C60241  12.328   4.862  11.642  0.7880  0.2035 -0.3078
  447MOL0     C60242  12.399   4.963  11.571 -0.1805 -0.1614 -0.6392
  447MOL0     C60243  12.490   5.039  11.645 -0.3713 -0.0670  0.1360
  447MOL0     C60244  12.518   5.010  11.778 -0.4458 -0.6700 -0.7837
  447MOL0     O60245  12.605   5.096  11.841 -0.5454  0.1246 -0.0931
  447MOL0     C60246  12.643   5.068  11.974 -0.1042 -1.2373 -0.0856
  447MOL0     C60247  12.746   5.177  12.016 -0.4800  0.3204 -0.2658
  447MOL0     C60248  12.880   5.177  11.960 -0.1932  0.0060 -0.1295
  447MOL0     C60249  12.931   5.035  11.949  0.2089 -0.4970  0.2278
  447MOL0     C60250  13.075   5.024  11.907  0.3227  0.3914 -0.3974
  447MOL0     C60251  13.122   4.879  11.927  0.1429 -0.2303 -0.3429
  447MOL0     C60252  13.025   4.780  11.861  0.1415  0.0110  0.4852
  447MOL0     C60253  13.084   4.650  11.808 -0.9307  0.7067  0.6343
  447MOL0    Cl60254  13.212   4.679  11.672  0.3191 -0.4134 -0.1677
  447MOL0     C60255  12.458   4.903  11.839  0.0922  0.0584 -0.2625
  447MOL0     C60256  12.365   4.827  11.765  0.4832 -0.1073 -0.1116
  447MOL0     O60257  12.356   4.670  11.448 -1.0745 -0.2684 -0.1017
  447MOL0     C60258  12.153   4.598  11.286  0.1830  0.0653 -0.0707
  447MOL0     C60259  12.046   4.552  11.207 -0.0439  0.1217 -0.1755
  447MOL0     N60260  11.214   4.308  11.327  0.5533  0.6213 -0.2862
  447MOL0     N60261  11.131   4.218  11.313  0.2043  0.2347 -0.3087
  447MOL0     C60262   9.975   4.062  11.000  0.5349  0.0034  0.5018
  447MOL0     C60263   9.840   4.099  11.000 -0.3551  0.4246 -0.6933
  447MOL0     C60264   9.445   4.231  11.016  0.4383 -0.3087 -0.1158
  447MOL0     C60265   9.366   4.186  10.904 -0.9450 -0.3704  0.2202
  447MOL0     C60266   9.260   4.270  10.859 -1.4358  0.5779  0.3239
  447MOL0     C60267   9.232   4.389  10.920 -0.2206  0.1480 -0.2069
  447MOL0     O60268   9.136   4.481  10.878 -0.5886  0.5085  0.3648
  447MOL0     C60269   9.108   4.478  10.738 -0.0506 -0.3350  0.2180
  447MOL0     C60270   9.010   4.586  10.683 -0.0241 -0.3554 -0.7713
  447MOL0     C60271   8.867   4.592  10.768  0.1125  0.1074 -0.1408
  447MOL0     C60272   8.789   4.457  10.743  0.2833  0.0023  0.9756
  447MOL0     C60273   8.642   4.469  10.740 -0.1583 -0.6070 -0.7802
  447MOL0     C60274   8.518   4.477  10.727  0.0391 -0.1168  0.5013
  447MOL0     C60275   9.311   4.437  11.028 -0.0503 -0.3214  0.7842
  447MOL0     C60276   9.422   4.366  11.068 -0.0801 -0.1903 -0.3530
  447MOL0     C60277   9.519   4.435  11.160 -0.0011 -0.0877 -0.5151
  447MOL0     H60278   9.708   3.797  10.909 -1.8290  0.7576  1.4402
  447MOL0     H60279   9.944   3.749  10.905  1.3070  0.7342 -2.6510
  447MOL0     H60280  10.243   4.043  11.043 -2.2469  0.4201  0.8922
  447MOL0     H60281  10.217   3.911  11.167 -2.4007 -2.0572 -0.7987
  447MOL0     H60282  10.385   3.844  10.925 -0.1598  3.4353 -1.0197
  447MOL0     H60283  10.381   3.783  11.095 -1.4086  0.6904  1.0894
  447MOL0     H60284  10.448   4.008  11.172  2.4657  2.7775  0.0583
  447MOL0     H60285  10.487   4.049  10.993  0.6407 -1.5893 -1.5270
  447MOL0     H60286  10.617   3.823  11.134  0.8182  0.2462 -0.8944
  447MOL0     H60287  10.635   3.874  10.972  2.0982  1.7951 -0.5840
  447MOL0     H60288  10.685   4.030  11.234  0.1870 -1.2161 -0.4527
  447MOL0     H60289  10.806   3.941  11.146 -0.0884 -0.2511  0.3595
  447MOL0     H60290  10.756   4.124  10.963 -2.5362  0.6306  0.4136
  447MOL0     H60291  10.648   4.199  11.072  1.5220  0.4721 -1.7347
  447MOL0     H60292  10.815   4.245  11.249 -0.3296  3.1945 -0.1504
  447MOL0     H60293  10.840   4.319  11.105 -1.6787  0.2304 -1.5322
  447MOL0     H60294  10.967   4.050  11.172 -1.9969  0.3727  1.9798
  447MOL0     H60295  11.010   4.131  11.026  2.3674 -2.6513  0.4744
  447MOL0     H60296  11.126   4.364  11.017  0.0581  1.7038  1.1225
  447MOL0     H60297  11.309   4.529  11.098 -0.6969 -1.5701 -0.4963
  447MOL0     H60298  11.315   4.571  11.271  0.7656  2.1282 -1.8918
  447MOL0     H60299  11.490   4.385  11.308 -3.2657  0.7346  0.5043
  447MOL0     H60300  11.476   4.336  11.142  1.6048 -1.9153  0.6650
  447MOL0     H60301  11.550   4.625  11.220 -0.8598  1.2030 -0.4046
  447MOL0     H60302  11.563   4.561  11.060  0.7500 -1.5604  0.4967
  447MOL0     H60303  11.732   4.378  11.146  1.1171 -0.3312 -1.4635
  447MOL0     H60304  11.715   4.466  11.306  2.8299  3.7849 -0.3805
  447MOL0     H60305  11.791   4.676  11.367  0.0151 -0.5748  1.7668
  447MOL0     H60306  11.981   4.764  11.527 -0.7328  1.2871 -0.0256
  447MOL0     H60307  12.363   4.988  11.471 -3.0360  0.1737  0.3967
  447MOL0     H60308  12.542   5.126  11.605  2.1252 -0.8512  1.4128
  447MOL0     H60309  12.550   5.100  12.022 -0.8666 -1.2024 -1.5167
  447MOL0     H60310  12.679   4.966  11.989 -0.1311 -1.2893 -0.3677
  447MOL0     H60311  12.711   5.281  12.009  0.7488  0.6696 -1.9002
  447MOL0     H60312  12.750   5.169  12.125  2.4392  1.9418 -0.1289
  447MOL0     H60313  12.879   5.225  11.862  3.0939  0.3358 -0.1300
  447MOL0     H60314  12.949   5.233  12.024  1.0560 -0.5258 -0.9639
  447MOL0     H60315  12.870   4.981  11.876 -0.1275  1.1061 -0.7362
  447MOL0     H60316  12.928   4.992  12.050  2.6939  0.2034  0.6713
  447MOL0     H60317  13.137   5.086  11.972 -1.2636  0.6364  0.9301
  447MOL0     H60318  13.092   5.042  11.800 -0.0107  0.3413 -0.4610
  447MOL0     H60319  13.218   4.871  11.875 -1.2302 -0.1389 -3.0719
  447MOL0     H60320  13.131   4.864  12.035 -1.7326  1.7372  0.1497
  447MOL0     H60321  12.962   4.812  11.778 -1.5896 -4.3822 -0.1741
  447MOL0     H60322  12.957   4.764  11.944  0.0918  1.6372  0.7891
  447MOL0     H60323  13.133   4.602  11.893 -0.4657  1.3472  0.7408
  447MOL0     H60324  13.006   4.586  11.766  2.1660 -2.6901 -0.3749
  447MOL0     H60325  12.468   4.868  11.942  1.9948  0.3497 -0.3184
  447MOL0     H60326  12.310   4.745  11.811 -0.5551 -0.0744 -1.2189
  447MOL0     H60327  12.249   4.557  11.257 -0.4662 -2.8682  1.6009
  447MOL0     H60328  12.057   4.492  11.118 -0.8797 -0.4397  0.0916
  447MOL0     H60329  10.036   4.147  11.031 -2.2345  1.3110  2.8469
  447MOL0     H60330   9.808   4.202  11.013 -0.3069  0.2779  0.8051
  447MOL0     H60331   9.371   4.087  10.859 -0.2530 -1.2550  2.1271
  447MOL0     H60332   9.210   4.230  10.771  1.4322  1.6166 -1.9660
  447MOL0     H60333   9.071   4.379  10.710  0.4837 -0.8128  1.1590
  447MOL0     H60334   9.203   4.503  10.689  0.1088 -0.2551  0.5605
  447MOL0     H60335   9.003   4.578  10.574  1.1519  0.6545 -0.9410
  447MOL0     H60336   9.064   4.681  10.689  1.7010 -1.2708 -1.0655
  447MOL0     H60337   8.810   4.674  10.724 -1.4887 -0.6182  0.4941
  447MOL0     H60338   8.878   4.618  10.874  0.1881  0.4749 -0.2374
  447MOL0     H60339   8.822   4.412  10.649 -0.3594  0.3512  0.5741
  447MOL0     H60340   8.808   4.386  10.823  1.9406  0.6564  1.2007
  447MOL0     H60341   8.411   4.469  10.725 -0.0258  0.0884 -2.9660
  447MOL0     H60342   9.291   4.535  11.071  5.1720  0.3508  2.3806
  447MOL0     H60343   9.511   4.397  11.262  1.0048  1.5214  0.1894
  447MOL0     H60344   9.622   4.424  11.124  2.1071  3.3886  3.6101
  447MOL0     H60345   9.501   4.543  11.164 -2.3508 -0.4389 -0.0771
  448MOL0     O60346   6.652   6.264   5.682  0.5763 -0.0209 -0.3422
  448MOL0     C60347   6.696   6.151   5.667  0.1953 -0.3307 -0.4140
  448MOL0     O60348   6.625   6.035   5.648  0.0616  0.0403 -0.1529
  448MOL0     C60349   6.492   6.039   5.652 -0.3900  0.6547 -1.0109
  448MOL0     C60350   6.427   5.997   5.537  0.8301 -0.4038  0.1090
  448MOL0     C60351   6.286   6.008   5.541  0.8893 -0.6163  0.2703
  448MOL0     C60352   6.217   6.049   5.652  0.1907  0.1506 -0.5830
  448MOL0     O60353   6.079   6.040   5.663  0.0373  0.0898 -0.6349
  448MOL0     C60354   6.005   6.159   5.614 -1.5889  0.3705  0.2672
  448MOL0     C60355   5.858   6.141   5.655 -0.2085  0.5728 -0.1203
  448MOL0     C60356   5.782   6.273   5.642  0.5060 -1.1798  0.2353
  448MOL0     C60357   5.646   6.254   5.704  0.4772  0.1352  0.3098
  448MOL0     C60358   5.570   6.379   5.673 -0.0037 -0.1815 -0.9810
  448MOL0     C60359   5.449   6.392   5.762  0.3541 -1.2723 -0.5068
  448MOL0     C60360   5.378   6.527   5.731  0.8275 -0.0568  0.1825
  448MOL0     C60361   5.247   6.564   5.792 -0.4799  0.5799 -0.4273
  448MOL0     N60362   5.132   6.492   5.743  1.0320 -0.3096 -0.0018
  448MOL0     C60363   5.005   6.500   5.786  0.2053  0.0725 -0.5783
  448MOL0     C60364   4.929   6.423   5.709  0.0502 -0.4245  0.3987
  448MOL0     C60365   4.785   6.382   5.728  0.2779 -0.6167  0.8460
  448MOL0     C60366   4.690   6.417   5.612  0.1696 -0.5110 -0.5935
  448MOL0     C60367   4.674   6.566   5.577  0.1634  0.8172  0.3019
  448MOL0     C60368   4.553   6.606   5.486  0.5940  0.5024  0.5018
  448MOL0     O60369   4.535   6.751   5.479 -0.4740 -0.3814  0.3439
  448MOL0     C60370   4.618   6.829   5.406 -0.5862 -0.6424 -0.7539
  448MOL0     C60371   4.601   6.970   5.416 -0.8218  0.3022  0.0405
  448MOL0     C60372   4.673   7.054   5.331  0.1339  0.3612  0.5035
  448MOL0     C60373   4.761   7.008   5.238  0.1826 -0.5256  0.4779
  448MOL0     C60374   4.851   7.103   5.168  0.5988  0.0910  0.2331
  448MOL0     O60375   4.909   7.065   5.054 -0.7070 -0.1179  0.4603
  448MOL0     C60376   5.023   7.137   5.008  0.1905  1.0335 -0.9267
  448MOL0     C60377   5.008   7.267   4.968 -1.0210  0.0334  0.5818
  448MOL0     C60378   5.117   7.332   4.909  0.7353 -0.6489 -0.0273
  448MOL0     C60379   5.243   7.270   4.890 -0.0476  0.3676  0.3901
  448MOL0     O60380   5.351   7.336   4.842 -0.3305  0.4371  0.4944
  448MOL0     C60381   5.352   7.446   4.752 -0.0759  0.0054 -0.4564
  448MOL0     C60382   5.484   7.477   4.692 -0.2731 -0.0296  0.7534
  448MOL0     C60383   5.559   7.363   4.638 -0.2789  0.0653 -0.0875
  448MOL0     C60384   5.700   7.411   4.615  0.5730  0.0207 -0.1028
  448MOL0     C60385   5.798   7.303   4.568  0.3302 -0.0772 -0.1760
  448MOL0     C60386   5.945   7.338   4.564  0.0554 -0.1254  0.6357
  448MOL0     C60387   5.990   7.449   4.462  0.5223 -0.8373  0.7977
  448MOL0     C60388   6.109   7.517   4.532 -0.0911  0.8780  0.5152
  448MOL0    Cl60389   6.214   7.604   4.408 -0.3138  0.3882 -0.2389
  448MOL0     C60390   5.267   7.139   4.943  0.9977  0.9151  0.8415
  448MOL0     C60391   5.150   7.075   4.991 -0.5118 -0.2726  0.9178
  448MOL0     O60392   4.867   7.210   5.219  0.4522  0.2794 -0.9374
  448MOL0     C60393   4.765   6.873   5.214  0.1406  0.3064  1.0951
  448MOL0     C60394   4.700   6.780   5.301  0.3371  1.1769  0.1280
  448MOL0     N60395   5.008   6.360   5.614  0.0633 -0.8071 -0.1226
  448MOL0     N60396   5.128   6.407   5.635 -0.5594 -0.5711  0.6095
  448MOL0     C60397   6.278   6.074   5.773 -1.5787 -0.9708  0.5075
  448MOL0     C60398   6.419   6.074   5.773 -0.1434  0.0048  0.2266
  448MOL0     C60399   6.845   6.138   5.681 -0.7675 -0.7425  0.1655
  448MOL0     C60400   6.889   6.032   5.762  0.4669  0.1956 -0.4054
  448MOL0     C60401   7.023   6.023   5.791  0.6629 -0.6707  0.7583
  448MOL0     C60402   7.116   6.106   5.726 -0.2875 -0.7360  0.5013
  448MOL0     O60403   7.246   6.088   5.772  0.1542  0.5684 -0.1542
  448MOL0     C60404   7.355   6.168   5.710 -0.5684  0.1680 -0.2294
  448MOL0     C60405   7.487   6.124   5.766 -0.2287  0.6955 -0.0569
  448MOL0     C60406   7.526   5.984   5.712  0.9331 -0.6116 -0.0625
  448MOL0     C60407   7.471   5.862   5.787  0.1951  0.2121  0.1864
  448MOL0     C60408   7.573   5.830   5.888 -0.9653  0.1916 -0.1649
  448MOL0     C60409   7.659   5.814   5.976 -0.2301  0.2177 -1.0768
  448MOL0     C60410   7.073   6.216   5.649 -0.3747  0.6786  0.0786
  448MOL0     C60411   6.940   6.228   5.618  0.0458 -0.2255 -1.1904
  448MOL0     C60412   6.897   6.349   5.530  0.3379 -0.2589  0.5097
  448MOL0     H60413   6.470   5.960   5.444 -0.6822  0.9780 -1.2137
  448MOL0     H60414   6.224   5.980   5.456  1.0627  0.9435 -0.4005
  448MOL0     H60415   6.047   6.254   5.649 -0.9303 -0.7595  2.7829
  448MOL0     H60416   6.018   6.154   5.505  0.8103 -1.2690  0.5626
  448MOL0     H60417   5.855   6.107   5.759 -3.2493 -0.7532 -0.5628
  448MOL0     H60418   5.806   6.068   5.593  1.3339 -0.6460 -0.0415
  448MOL0     H60419   5.765   6.316   5.543  2.4135  2.9574  1.4614
  448MOL0     H60420   5.826   6.356   5.699 -2.1649  0.4654  0.0839
  448MOL0     H60421   5.605   6.163   5.659  3.8704 -1.5746  0.3750
  448MOL0     H60422   5.655   6.243   5.813 -1.4749  0.9748  0.5903
  448MOL0     H60423   5.642   6.462   5.675 -0.7727  0.4911  0.8293
  448MOL0     H60424   5.535   6.366   5.570 -0.1538 -1.2077 -0.8143
  448MOL0     H60425   5.367   6.325   5.734 -2.0721  0.6964  1.4251
  448MOL0     H60426   5.469   6.383   5.869  0.3875  1.2113 -0.2565
  448MOL0     H60427   5.362   6.549   5.625  1.1078  0.7958  0.3117
  448MOL0     H60428   5.449   6.604   5.764 -0.1377 -0.1255  2.6812
  448MOL0     H60429   5.244   6.541   5.899  0.4938 -4.0454 -1.1670
  448MOL0     H60430   5.229   6.671   5.785 -2.0514  0.2086 -4.2323
  448MOL0     H60431   4.972   6.554   5.875 -1.0887 -1.5957  0.0084
  448MOL0     H60432   4.777   6.274   5.741 -0.5890 -0.8815 -1.3909
  448MOL0     H60433   4.744   6.433   5.815 -0.7341 -1.3446  0.8185
  448MOL0     H60434   4.719   6.362   5.522  0.4133  2.9191 -2.7621
  448MOL0     H60435   4.591   6.376   5.633 -0.5708  0.8305 -1.3385
  448MOL0     H60436   4.767   6.590   5.523 -0.7364  1.7263 -0.9027
  448MOL0     H60437   4.667   6.629   5.666 -2.7536  2.1323 -0.7377
  448MOL0     H60438   4.460   6.558   5.518  1.0918 -0.6544  0.2828
  448MOL0     H60439   4.567   6.567   5.385  0.1907  1.3859  0.1039
  448MOL0     H60440   4.540   7.016   5.492  1.4289  0.7163  1.7229
  448MOL0     H60441   4.668   7.162   5.339  3.0378  0.7251 -1.1940
  448MOL0     H60442   4.903   7.295   4.970 -1.1902 -0.2611 -1.7988
  448MOL0     H60443   5.101   7.436   4.882 -0.1366 -0.8233 -0.1945
  448MOL0     H60444   5.270   7.424   4.682 -0.6206 -1.6868  0.6540
  448MOL0     H60445   5.308   7.531   4.805  4.2746  1.6333  0.9806
  448MOL0     H60446   5.475   7.554   4.614 -1.7314  0.1047  1.0271
  448MOL0     H60447   5.554   7.516   4.766  0.5608  0.2722 -0.1753
  448MOL0     H60448   5.568   7.284   4.714  0.4683 -1.4111 -1.6355
  448MOL0     H60449   5.524   7.318   4.545 -1.2557 -3.7650  1.9227
  448MOL0     H60450   5.740   7.462   4.703 -0.1647 -0.7384  0.6850
  448MOL0     H60451   5.703   7.493   4.542  0.9299  0.1839  0.0917
  448MOL0     H60452   5.768   7.256   4.474  0.1667 -0.9746  0.3093
  448MOL0     H60453   5.786   7.227   4.646  2.6264  0.3316  0.6799
  448MOL0     H60454   5.970   7.372   4.665  0.8064  0.9647  0.1014
  448MOL0     H60455   6.016   7.258   4.542  0.7646  1.5978 -5.3221
  448MOL0     H60456   5.903   7.516   4.451 -0.6140 -2.1757  1.3187
  448MOL0     H60457   6.031   7.410   4.369  0.0551  0.0623  0.1944
  448MOL0     H60458   6.065   7.591   4.600  2.4880  2.9156  0.1203
  448MOL0     H60459   6.164   7.445   4.592 -1.3284 -1.5277 -1.0548
  448MOL0     H60460   5.365   7.105   4.912  0.2270  0.4065 -1.2456
  448MOL0     H60461   5.163   6.969   5.009  1.9251 -0.7267 -2.3622
  448MOL0     H60462   4.829   6.832   5.137 -2.0402 -1.3992  0.0988
  448MOL0     H60463   4.717   6.673   5.289  0.0993  1.3430 -1.9333
  448MOL0     H60464   6.227   6.091   5.867  0.1687 -1.3168  1.5570
  448MOL0     H60465   6.468   6.093   5.868 -1.2916  2.6271  0.3833
  448MOL0     H60466   6.828   5.947   5.793 -0.8195  1.5621  1.0286
  448MOL0     H60467   7.065   5.945   5.854 -0.0079 -1.9027 -0.2909
  448MOL0     H60468   7.339   6.274   5.734  1.4962  0.2143  1.1957
  448MOL0     H60469   7.356   6.160   5.601 -1.1899  0.9865 -0.3048
  448MOL0     H60470   7.493   6.118   5.875  1.3565 -1.5914 -0.1928
  448MOL0     H60471   7.551   6.206   5.734 -0.1178  0.0090 -1.6941
  448MOL0     H60472   7.635   5.990   5.701  1.0176  1.0395  1.3611
  448MOL0     H60473   7.491   5.974   5.608  0.5186 -0.7484  0.0875
  448MOL0     H60474   7.381   5.891   5.842 -0.0491 -0.7214  0.2853
  448MOL0     H60475   7.459   5.784   5.711  1.7884  1.0837 -1.0251
  448MOL0     H60476   7.749   5.823   6.032  0.7707 -0.4489 -2.5031
  448MOL0     H60477   7.146   6.289   5.614 -0.5843  1.0019  0.3082
  448MOL0     H60478   6.881   6.436   5.593  1.5037  0.9339 -0.7733
  448MOL0     H60479   6.970   6.365   5.450 -2.4728 -0.8489 -2.3937
  448MOL0     H60480   6.800   6.324   5.485  0.7338 -1.2878  0.2068
  449MOL0     O60481   2.032   5.085   6.902 -0.5134  0.3603  0.0916
  449MOL0     C60482   2.053   5.162   6.808 -0.2691  0.1583 -0.4419
  449MOL0     O60483   2.169   5.221   6.773 -0.8183  0.9868  0.1070
  449MOL0     C60484   2.281   5.205   6.859  0.4820  0.3251 -0.7939
  449MOL0     C60485   2.310   5.312   6.945  0.1889  0.4442 -1.3858
  449MOL0     C60486   2.433   5.306   7.011 -1.0375 -0.8174  0.4540
  449MOL0     C60487   2.532   5.213   6.982  0.1022 -0.0002 -1.1570
  449MOL0     O60488   2.651   5.248   7.044 -0.3784 -0.0952 -0.7521
  449MOL0     C60489   2.765   5.154   7.033  0.2541  0.1024 -0.0373
  449MOL0     C60490   2.873   5.213   7.120 -1.2875  0.2550 -0.8714
  449MOL0     C60491   3.012   5.138   7.100 -0.3582  0.4266 -0.0501
  449MOL0     C60492   3.117   5.183   7.200  0.4825 -0.1146  0.3298
  449MOL0     C60493   3.259   5.159   7.146  0.2394  1.4190  0.0497
  449MOL0     C60494   3.296   5.259   7.046 -0.0124  0.2019  0.1803
  449MOL0     C60495   3.449   5.239   7.020  0.0123 -0.2715  0.6919
  449MOL0     C60496   3.483   5.270   6.874  0.6497  0.0893 -0.6168
  449MOL0     N60497   3.626   5.257   6.849  0.3490 -0.5935  0.3055
  449MOL0     C60498   3.695   5.157   6.788  0.7497 -0.4486 -0.1193
  449MOL0     C60499   3.811   5.221   6.748  0.1846  0.7416 -0.4421
  449MOL0     C60500   3.925   5.162   6.663  0.5859  0.3135 -0.3877
  449MOL0     C60501   3.996   5.042   6.731 -0.2422 -0.0288  0.1505
  449MOL0     C60502   4.122   4.989   6.646 -0.0554 -0.7927  0.2321
  449MOL0     C60503   4.181   4.871   6.714 -0.8910  0.6735 -0.6828
  449MOL0     O60504   4.245   4.895   6.844 -0.4948 -0.2049  1.0485
  449MOL0     C60505   4.373   4.940   6.858  1.4778 -0.0123  1.0562
  449MOL0     C60506   4.475   4.916   6.767 -0.0686  0.7998  0.2744
  449MOL0     C60507   4.605   4.962   6.787  0.1548 -0.3915  0.7236
  449MOL0     C60508   4.631   5.049   6.889 -0.2820 -0.4158 -0.3493
  449MOL0     C60509   4.769   5.103   6.915 -0.3142 -0.5791 -0.8679
  449MOL0     O60510   4.869   5.070   6.819  0.2021 -0.2222  0.3443
  449MOL0     C60511   4.993   5.137   6.821 -0.2756 -0.6948 -0.2508
  449MOL0     C60512   5.050   5.230   6.912  0.0976 -0.3193 -0.9724
  449MOL0     C60513   5.171   5.291   6.885  0.3073 -0.7226  0.6147
  449MOL0     C60514   5.228   5.276   6.757  0.7633  0.5827 -0.1643
  449MOL0     O60515   5.342   5.340   6.737  0.1098 -0.7757  0.0095
  449MOL0     C60516   5.424   5.295   6.624 -1.5277  0.1224 -0.7763
  449MOL0     C60517   5.565   5.352   6.628 -0.2994 -0.4049  0.1594
  449MOL0     C60518   5.645   5.320   6.500  0.8650 -0.0856  0.3890
  449MOL0     C60519   5.693   5.179   6.488 -0.3655  0.5990  0.6793
  449MOL0     C60520   5.797   5.156   6.370  0.6160 -1.0528 -0.2416
  449MOL0     C60521   5.845   5.009   6.366 -0.0679 -0.8479 -0.0994
  449MOL0     C60522   5.960   5.003   6.273  0.3643  0.2500 -0.5294
  449MOL0     C60523   6.041   4.879   6.287  0.0713 -0.8827  0.1942
  449MOL0    Cl60524   6.158   4.863   6.148  0.3587 -0.1456 -0.3558
  449MOL0     C60525   5.168   5.173   6.675  0.1729 -0.0181  0.1878
  449MOL0     C60526   5.063   5.103   6.707  0.3374 -0.0916  0.6337
  449MOL0     O60527   4.783   5.175   7.015  0.2561 -0.2600  0.5398
  449MOL0     C60528   4.540   5.061   6.987  0.0865  0.7802 -1.4392
  449MOL0     C60529   4.412   5.011   6.975  0.4124  0.0496  1.2533
  449MOL0     N60530   3.809   5.351   6.792 -0.3845 -0.0045 -0.9408
  449MOL0     N60531   3.697   5.375   6.855 -0.6187  0.1240  0.3051
  449MOL0     C60532   2.504   5.104   6.894  0.4995 -0.2771 -0.3866
  449MOL0     C60533   2.377   5.104   6.828 -1.0359 -0.4018  0.1877
  449MOL0     C60534   1.936   5.176   6.719  1.0519 -0.1682  0.7136
  449MOL0     C60535   1.964   5.202   6.576 -0.0657 -0.2392  0.2295
  449MOL0     C60536   1.863   5.198   6.486  0.3482  0.0677 -0.9010
  449MOL0     C60537   1.726   5.178   6.524 -0.3994 -0.2538 -0.1124
  449MOL0     O60538   1.629   5.178   6.428  0.4333 -0.1874 -0.3848
  449MOL0     C60539   1.497   5.108   6.449 -0.4144 -0.5358  0.1872
  449MOL0     C60540   1.384   5.197   6.480 -0.3917  0.1751  0.0252
  449MOL0     C60541   1.380   5.308   6.376 -0.2807  0.0314 -0.2809
  449MOL0     C60542   1.297   5.257   6.264 -0.8259 -0.4896  0.4444
  449MOL0     C60543   1.159   5.274   6.308  0.3730  0.3148 -0.8173
  449MOL0     C60544   1.051   5.278   6.363  0.0947 -0.3697  0.1240
  449MOL0     C60545   1.693   5.168   6.660  0.3269  1.0640  0.0932
  449MOL0     C60546   1.801   5.169   6.763 -0.3787  1.3111  0.2923
  449MOL0     C60547   1.755   5.168   6.910  0.5652  0.9239 -0.2207
  449MOL0     H60548   2.242   5.392   6.974  1.6800  0.4074  2.7968
  449MOL0     H60549   2.465   5.383   7.080  1.3751 -2.5998  1.4603
  449MOL0     H60550   2.743   5.056   7.076  1.3192  0.2189  0.8349
  449MOL0     H60551   2.798   5.144   6.929 -0.0886  1.1918 -0.2658
  449MOL0     H60552   2.845   5.199   7.225 -4.5806  3.0241 -1.2011
  449MOL0     H60553   2.889   5.320   7.105  3.9504 -0.3674 -1.8412
  449MOL0     H60554   3.036   5.151   6.994 -0.7967 -0.4920 -0.2723
  449MOL0     H60555   3.005   5.030   7.115  0.9964  0.3582  0.2478
  449MOL0     H60556   3.116   5.291   7.215  2.7349  0.2673 -1.6929
  449MOL0     H60557   3.103   5.139   7.299  1.9724  1.0922  1.1163
  449MOL0     H60558   3.334   5.142   7.223  0.3533 -2.8071 -0.7426
  449MOL0     H60559   3.256   5.058   7.104 -2.1338  0.1289  2.9268
  449MOL0     H60560   3.229   5.239   6.962 -2.4557 -0.9775  2.2621
  449MOL0     H60561   3.280   5.365   7.065 -1.6705  0.1692 -0.9060
  449MOL0     H60562   3.488   5.139   7.042  1.0457 -0.6314 -2.3320
  449MOL0     H60563   3.507   5.305   7.084  2.9824 -0.7898 -1.2531
  449MOL0     H60564   3.418   5.208   6.810 -1.0864  3.3806 -2.3007
  449MOL0     H60565   3.464   5.371   6.837  2.0342  1.2694  1.6908
  449MOL0     H60566   3.664   5.053   6.776 -1.1788  0.0630  0.0771
  449MOL0     H60567   3.890   5.134   6.564  0.8864 -2.0094  0.0937
  449MOL0     H60568   3.994   5.246   6.650  1.5216 -0.6872 -2.2441
  449MOL0     H60569   4.029   5.080   6.828  0.8010 -0.9362  0.1625
  449MOL0     H60570   3.918   4.967   6.747 -0.1810 -0.0478  0.3562
  449MOL0     H60571   4.182   5.079   6.629 -3.4509  1.3244 -1.7498
  449MOL0     H60572   4.079   4.948   6.553 -0.8971 -1.6052  0.9612
  449MOL0     H60573   4.249   4.818   6.647  1.8992 -1.1875  3.2382
  449MOL0     H60574   4.100   4.800   6.735  0.6342 -0.6997  0.8007
  449MOL0     H60575   4.461   4.848   6.682 -1.6153 -2.7418  3.0820
  449MOL0     H60576   4.678   4.943   6.710 -1.4585 -2.0441 -0.4833
  449MOL0     H60577   4.997   5.256   7.003  0.3384 -3.6850  0.2840
  449MOL0     H60578   5.212   5.373   6.944 -0.9741  0.2804  0.1622
  449MOL0     H60579   5.439   5.187   6.625 -0.5551  0.2502 -0.3104
  449MOL0     H60580   5.379   5.337   6.534 -0.8973  2.3710 -0.1288
  449MOL0     H60581   5.540   5.458   6.621  1.0957 -0.0143  0.7651
  449MOL0     H60582   5.623   5.338   6.720  0.3353 -1.6201 -0.3986
  449MOL0     H60583   5.609   5.354   6.403  0.8604 -0.2618  0.3279
  449MOL0     H60584   5.737   5.380   6.505  0.8571 -0.0685  0.3335
  449MOL0     H60585   5.609   5.111   6.470 -0.3349  0.9869 -1.1044
  449MOL0     H60586   5.746   5.153   6.580 -1.1090  0.8360  1.1842
  449MOL0     H60587   5.883   5.223   6.373 -2.2731  3.0230  1.4160
  449MOL0     H60588   5.747   5.186   6.277 -1.1778 -0.1409  0.9481
  449MOL0     H60589   5.887   4.981   6.463  1.0698  2.1728  0.3848
  449MOL0     H60590   5.769   4.935   6.337  0.1786 -2.5120  3.0609
  449MOL0     H60591   6.022   5.093   6.285 -1.6013  1.3210  3.1560
  449MOL0     H60592   5.928   4.999   6.168  2.2015 -0.8511 -1.1026
  449MOL0     H60593   6.094   4.885   6.383 -5.0960 -1.5150  3.5170
  449MOL0     H60594   5.985   4.785   6.288  0.0836 -0.9041 -0.6349
  449MOL0     H60595   5.213   5.159   6.577  2.2931 -1.9473  1.3550
  449MOL0     H60596   5.021   5.029   6.639 -0.5884 -1.5173  2.6432
  449MOL0     H60597   4.554   5.126   7.073 -0.3612 -0.9605 -0.0033
  449MOL0     H60598   4.337   5.034   7.050 -1.0308 -0.5490  0.0588
  449MOL0     H60599   2.581   5.035   6.861  0.0504 -0.2624 -1.5094
  449MOL0     H60600   2.370   5.020   6.760  1.3608 -0.9962  0.6149
  449MOL0     H60601   2.065   5.217   6.541 -0.0457  1.0030  0.7579
  449MOL0     H60602   1.880   5.214   6.380  0.4498  0.4221 -0.8322
  449MOL0     H60603   1.507   5.029   6.524 -1.6578 -0.0651  0.8838
  449MOL0     H60604   1.479   5.052   6.357  0.9802 -1.4010  0.4136
  449MOL0     H60605   1.392   5.234   6.582 -2.2848 -2.3081  1.1689
  449MOL0     H60606   1.290   5.141   6.473 -0.2510 -0.0467 -0.0683
  449MOL0     H60607   1.476   5.346   6.339 -0.5472  0.5280 -0.4781
  449MOL0     H60608   1.329   5.395   6.419  0.0618 -1.0263  2.4852
  449MOL0     H60609   1.310   5.319   6.175  0.3439  3.3305  2.9756
  449MOL0     H60610   1.332   5.157   6.238 -1.1155 -0.1092 -1.5587
  449MOL0     H60611   0.960   5.294   6.417 -0.8292 -1.4081 -1.0771
  449MOL0     H60612   1.591   5.173   6.698  0.5417  1.0582  0.6879
  449MOL0     H60613   1.829   5.196   6.986  0.7408 -2.6134  1.1004
  449MOL0     H60614   1.673   5.236   6.934 -1.0458 -1.5226  1.6845
  449MOL0     H60615   1.739   5.064   6.942 -0.5045  1.6252  1.6925
  450MOL0     O60616   1.126   5.813  10.448  0.4791  0.1177  0.2751
  450MOL0     C60617   1.137   5.934  10.439  0.3132  0.4201 -0.0693
  450MOL0     O60618   1.072   6.024  10.524 -1.0065 -0.5485  0.6855
  450MOL0     C60619   0.987   5.981  10.628 -0.0586  0.4349 -0.5845
  450MOL0     C60620   0.888   5.875  10.622 -0.3736  0.3699 -0.0810
  450MOL0     C60621   0.820   5.830  10.733  0.2106  0.1827 -0.0871
  450MOL0     C60622   0.827   5.908  10.852  0.8618 -0.4797 -0.6315
  450MOL0     O60623   0.751   5.857  10.959 -0.1987 -0.5476  0.2962
  450MOL0     C60624   0.691   5.969  11.041  0.2440  0.8380  0.4243
  450MOL0     C60625   0.597   5.895  11.143  0.5434 -0.5215 -0.4644
  450MOL0     C60626   0.679   5.784  11.207  0.2991 -0.2683 -0.3391
  450MOL0     C60627   0.629   5.761  11.349  0.1268 -0.5315 -0.4669
  450MOL0     C60628   0.480   5.719  11.342  1.0310  0.3252  0.2342
  450MOL0     C60629   0.442   5.707  11.486 -0.1245 -0.1636  0.4392
  450MOL0     C60630   0.300   5.655  11.499 -0.1890  0.3311 -0.8129
  450MOL0     C60631   0.266   5.580  11.633  0.2893 -0.5697 -0.1007
  450MOL0     N60632   0.292   5.671  11.742 -0.4743  0.3606 -0.0847
  450MOL0     C60633   0.413   5.675  11.802  0.4313 -0.2271  0.4009
  450MOL0     C60634   0.394   5.728  11.925  0.1573 -0.0080 -0.7079
  450MOL0     C60635   0.494   5.782  12.029 -0.2404  0.1285 -0.6081
  450MOL0     C60636   0.517   5.675  12.147 -1.1128 -0.6884  0.3771
  450MOL0     C60637   0.428   5.681  12.260  0.0933 -0.1328  0.1601
  450MOL0     C60638   0.462   5.660  12.399 -0.6068 -0.5026  0.1437
  450MOL0     O60639   0.347   5.642  12.485  0.1333 -0.0492  0.6195
  450MOL0     C60640   0.370   5.614  12.615  0.1460  1.1102 -1.3240
  450MOL0     C60641   0.441   5.693  12.700 -0.8230  0.4227 -0.0218
  450MOL0     C60642   0.469   5.661  12.829 -0.3902 -0.2439 -0.5541
  450MOL0     C60643   0.417   5.547  12.885  1.2152 -0.4895 -0.4908
  450MOL0     C60644   0.450   5.499  13.026  0.4100 -0.2390  0.0459
  450MOL0     O60645   0.386   5.402  13.094 -0.4710 -0.1153  0.4589
  450MOL0     C60646   0.427   5.357  13.222 -0.0552  1.0682  0.3807
  450MOL0     C60647   0.326   5.292  13.292 -0.2540  0.5673  0.0450
  450MOL0     C60648   0.353   5.233  13.419 -0.1424 -0.2901  0.3168
  450MOL0     C60649   0.484   5.219  13.463  0.1639 -0.0251  0.0203
  450MOL0     O60650   0.513   5.147  13.575 -0.1258  0.0158  0.9389
  450MOL0     C60651   0.502   5.004  13.576  0.6929 -0.2557 -0.0110
  450MOL0     C60652   0.377   4.971  13.665 -1.2956 -0.1224 -0.5494
  450MOL0     C60653   0.425   4.894  13.787  0.2587  0.1171  1.0324
  450MOL0     C60654   0.294   4.816  13.844  0.8869  0.3533 -0.0199
  450MOL0     C60655   0.331   4.699  13.933  0.9816  0.1937  0.0689
  450MOL0     C60656   0.424   4.591  13.885  0.5494 -0.0001  0.0878
  450MOL0     C60657   0.455   4.471  13.986  0.4303 -0.6733 -0.3310
  450MOL0     C60658   0.332   4.401  14.045 -0.0740  0.3232  0.0525
  450MOL0    Cl60659   0.293   4.466  14.216 -0.1535  0.1851  0.0914
  450MOL0     C60660   0.581   5.270  13.382  0.1181  0.7777 -0.2417
  450MOL0     C60661   0.560   5.346  13.270  0.6858  0.0802 -0.7528
  450MOL0     O60662   0.550   5.562  13.070  0.3263  0.1518 -0.3298
  450MOL0     C60663   0.329   5.471  12.808  0.3379 -1.0992  0.2796
  450MOL0     C60664   0.307   5.507  12.672 -0.6135 -0.7046  0.3783
  450MOL0     N60665   0.258   5.752  11.938  0.1236  0.6430  0.1467
  450MOL0     N60666   0.198   5.717  11.832  0.1225 -0.3697  0.0784
  450MOL0     C60667   0.902   6.032  10.853  1.1388 -0.1531  0.1683
  450MOL0     C60668   0.976   6.065  10.739  0.0784 -0.6501 -0.4237
  450MOL0     C60669   1.222   5.993  10.328  0.0301  0.0303 -0.0262
  450MOL0     C60670   1.233   6.130  10.338  0.3286  0.1495  0.3010
  450MOL0     C60671   1.316   6.184  10.242  0.2719 -0.5459 -0.3821
  450MOL0     C60672   1.365   6.116  10.126  0.4619 -0.3176  0.5812
  450MOL0     O60673   1.441   6.174  10.019 -0.0564  0.7201  0.5782
  450MOL0     C60674   1.468   6.317  10.029  0.3502  0.5447 -0.2579
  450MOL0     C60675   1.554   6.379   9.913 -0.2239  0.2719  0.0270
  450MOL0     C60676   1.669   6.280   9.871  0.2372 -0.0189 -0.9491
  450MOL0     C60677   1.709   6.297   9.727 -0.0016 -0.1470 -0.0806
  450MOL0     C60678   1.791   6.416   9.704  0.0456  0.2342 -0.5996
  450MOL0     C60679   1.871   6.506   9.676  0.6217 -0.0654 -0.5941
  450MOL0     C60680   1.344   5.977  10.124 -0.0224 -0.5426 -0.0160
  450MOL0     C60681   1.276   5.907  10.229  0.2602 -0.1212 -0.2341
  450MOL0     C60682   1.272   5.756  10.218  0.5449 -0.2250  0.8352
  450MOL0     H60683   0.875   5.807  10.538 -0.3648  0.1165  0.1216
  450MOL0     H60684   0.759   5.740  10.727 -1.0927  1.1109 -3.5623
  450MOL0     H60685   0.762   6.035  11.092  1.7876  0.4409 -1.0871
  450MOL0     H60686   0.621   6.018  10.973 -1.8814 -3.7934 -1.2240
  450MOL0     H60687   0.510   5.849  11.095  1.0841 -4.1017  1.6162
  450MOL0     H60688   0.565   5.978  11.206  3.1072  0.1342  0.0837
  450MOL0     H60689   0.786   5.806  11.206  0.3059  0.3442  2.9435
  450MOL0     H60690   0.663   5.695  11.146  0.0974 -0.2271 -0.3483
  450MOL0     H60691   0.696   5.688  11.397  1.8101  2.3616  1.9954
  450MOL0     H60692   0.646   5.849  11.412 -0.9644 -0.6374 -0.0143
  450MOL0     H60693   0.414   5.785  11.285 -3.3506 -4.9379 -1.6734
  450MOL0     H60694   0.470   5.620  11.297 -0.5497  0.4868  0.1741
  450MOL0     H60695   0.507   5.630  11.529 -2.0496 -0.9030  2.2119
  450MOL0     H60696   0.454   5.803  11.536  0.9510  0.4925 -1.0079
  450MOL0     H60697   0.296   5.573  11.427  0.7206 -0.9288  0.5198
  450MOL0     H60698   0.229   5.736  11.482  1.1291  1.1453 -2.8003
  450MOL0     H60699   0.160   5.555  11.643  0.2811 -0.2825  0.5811
  450MOL0     H60700   0.325   5.488  11.637  1.5480 -0.0693 -3.6114
  450MOL0     H60701   0.505   5.652  11.749  0.8609  2.1924 -0.0078
  450MOL0     H60702   0.586   5.809  11.977 -0.1503  0.0050 -0.5146
  450MOL0     H60703   0.465   5.880  12.067 -1.4513 -0.2260 -0.5619
  450MOL0     H60704   0.505   5.571  12.118 -1.3169 -1.9598  4.4152
  450MOL0     H60705   0.621   5.687  12.179 -0.8775  2.1738 -1.1112
  450MOL0     H60706   0.350   5.608  12.238  1.4636 -1.3007 -1.0369
  450MOL0     H60707   0.376   5.777  12.247 -0.3095 -0.5368 -1.4793
  450MOL0     H60708   0.521   5.747  12.431 -0.8221 -1.1577  2.5200
  450MOL0     H60709   0.534   5.577  12.393  1.2345  1.0977 -2.3229
  450MOL0     H60710   0.504   5.776  12.670 -2.1269  1.3183 -0.3375
  450MOL0     H60711   0.531   5.730  12.885 -1.7726  2.4618 -2.1829
  450MOL0     H60712   0.226   5.288  13.250  0.3948  0.8583 -1.5944
  450MOL0     H60713   0.280   5.184  13.484  0.0209 -2.2709 -0.9248
  450MOL0     H60714   0.474   4.960  13.479  1.0593  0.1563 -0.3082
  450MOL0     H60715   0.593   4.955  13.612 -0.2547 -1.0820  1.3418
  450MOL0     H60716   0.331   5.064  13.701 -2.7204  0.8360 -4.3826
  450MOL0     H60717   0.300   4.927  13.601  0.1235 -1.1315 -1.5979
  450MOL0     H60718   0.501   4.824  13.752 -0.2503  0.1094 -0.1257
  450MOL0     H60719   0.487   4.945  13.860  0.6699 -0.0282  0.7863
  450MOL0     H60720   0.239   4.770  13.761 -0.5015 -1.3336  1.7518
  450MOL0     H60721   0.223   4.878  13.900 -1.1579  0.6644 -2.7483
  450MOL0     H60722   0.241   4.646  13.966 -0.3750  1.6896 -1.0627
  450MOL0     H60723   0.393   4.742  14.012  0.6384  2.1305 -0.6515
  450MOL0     H60724   0.385   4.555  13.790  2.4835  0.0627 -0.7949
  450MOL0     H60725   0.520   4.632  13.851  1.0315  0.0102  1.3861
  450MOL0     H60726   0.501   4.521  14.071 -3.3016  0.0877  1.4046
  450MOL0     H60727   0.521   4.393  13.947  0.1256 -1.9809  1.6404
  450MOL0     H60728   0.247   4.421  13.978 -1.0872 -0.3610  1.0913
  450MOL0     H60729   0.327   4.292  14.052 -0.0021  0.2476 -0.9286
  450MOL0     H60730   0.685   5.258  13.409  0.0015  1.9820  0.8339
  450MOL0     H60731   0.646   5.387  13.217  0.5506  1.2955 -0.0559
  450MOL0     H60732   0.282   5.375  12.829  1.1106 -1.7330 -0.7924
  450MOL0     H60733   0.238   5.450  12.612  1.7319 -0.1035 -3.2005
  450MOL0     H60734   0.896   6.108  10.931  0.1995  0.8259 -0.8240
  450MOL0     H60735   1.040   6.152  10.749 -0.1323 -0.6703  1.5404
  450MOL0     H60736   1.210   6.194  10.423  2.2967 -0.5308  1.4031
  450MOL0     H60737   1.329   6.291  10.254 -1.1985 -0.3040 -0.8126
  450MOL0     H60738   1.524   6.333  10.121  0.6446  0.8678 -0.4915
  450MOL0     H60739   1.374   6.373  10.025 -0.0158 -0.0328  0.1476
  450MOL0     H60740   1.591   6.479   9.937 -1.1415  1.0320 -1.5368
  450MOL0     H60741   1.491   6.389   9.823  2.1437  0.9321 -1.6646
  450MOL0     H60742   1.626   6.180   9.882  0.4351  0.1339  1.7928
  450MOL0     H60743   1.755   6.273   9.937  2.1029 -0.2751 -3.2962
  450MOL0     H60744   1.768   6.210   9.698 -0.2708 -0.1469 -0.6550
  450MOL0     H60745   1.617   6.296   9.667  0.3877 -0.2671 -0.6904
  450MOL0     H60746   1.951   6.576   9.669  2.5239 -2.2731 -2.6835
  450MOL0     H60747   1.385   5.918  10.043  1.3770  0.2826  0.0724
  450MOL0     H60748   1.320   5.714  10.129  0.3933  0.0045  0.6492
  450MOL0     H60749   1.326   5.711  10.302  2.1186 -0.7442 -0.4020
  450MOL0     H60750   1.169   5.720  10.213  0.0761  1.1876 -3.9643
  451MOL0     O60751   4.109   8.777   6.733 -0.1484  0.2909 -0.1035
  451MOL0     C60752   4.136   8.897   6.755  0.5647  0.5570 -0.2049
  451MOL0     O60753   4.055   8.987   6.820 -1.0389 -0.6485 -0.2928
  451MOL0     C60754   3.941   8.933   6.867  0.7114  0.1537 -0.0109
  451MOL0     C60755   3.910   8.892   6.995 -0.2219 -0.2229 -0.5584
  451MOL0     C60756   3.788   8.835   7.028  0.0866 -0.5544 -0.0884
  451MOL0     C60757   3.690   8.811   6.928 -0.3958 -0.3089  0.5292
  451MOL0     O60758   3.581   8.730   6.958 -0.4044 -0.0754 -0.7587
  451MOL0     C60759   3.497   8.698   6.850  0.0764  0.5320 -0.0631
  451MOL0     C60760   3.379   8.642   6.932  0.1218  0.2492  0.1191
  451MOL0     C60761   3.271   8.557   6.859 -0.2500 -0.2795  0.1383
  451MOL0     C60762   3.159   8.490   6.955  0.1601 -0.3055 -0.3331
  451MOL0     C60763   3.061   8.390   6.881  0.8938 -0.3091  0.2750
  451MOL0     C60764   2.981   8.294   6.973 -0.3136  0.0638 -0.2168
  451MOL0     C60765   3.065   8.166   7.013 -0.4993  0.0726  0.3384
  451MOL0     C60766   2.985   8.055   7.068 -0.3810  0.6570 -0.3521
  451MOL0     N60767   2.955   8.074   7.215 -0.5644 -0.0279 -0.4317
  451MOL0     C60768   2.838   8.081   7.288  0.3751 -0.7520  0.7619
  451MOL0     C60769   2.872   8.075   7.425  0.4398 -0.9834 -0.3485
  451MOL0     C60770   2.783   8.064   7.538  0.4042 -0.2231 -0.7047
  451MOL0     C60771   2.861   8.027   7.668  0.8226 -0.0756  0.1697
  451MOL0     C60772   2.775   8.065   7.792  0.4213 -0.5372 -0.4752
  451MOL0     C60773   2.634   8.004   7.797  0.9925 -0.4387  0.8094
  451MOL0     O60774   2.535   8.097   7.748  0.2930 -0.5152  0.1006
  451MOL0     C60775   2.406   8.045   7.750 -0.0849  0.0557 -1.4844
  451MOL0     C60776   2.314   8.092   7.658  0.4930  0.7426  0.1800
  451MOL0     C60777   2.177   8.042   7.648  0.5021  0.5576 -0.3551
  451MOL0     C60778   2.129   7.944   7.739 -0.0947 -0.3002 -0.0316
  451MOL0     C60779   1.986   7.909   7.742 -0.1385 -0.5086  0.4702
  451MOL0     O60780   1.947   7.814   7.827  0.8218 -0.4185 -0.0469
  451MOL0     C60781   1.813   7.795   7.852 -0.1090 -0.9019 -0.0630
  451MOL0     C60782   1.745   7.881   7.934 -0.1724 -0.2395 -0.1167
  451MOL0     C60783   1.607   7.860   7.959  0.1040 -0.3463  0.3543
  451MOL0     C60784   1.532   7.762   7.886  0.1993  0.3884 -1.2891
  451MOL0     O60785   1.396   7.759   7.900 -0.4076 -0.1343  0.2909
  451MOL0     C60786   1.325   7.634   7.870  0.6509 -0.0019 -0.6575
  451MOL0     C60787   1.184   7.653   7.918 -0.3211 -0.6402  0.9188
  451MOL0     C60788   1.116   7.769   7.833  0.3205 -0.5242  0.6221
  451MOL0     C60789   1.040   7.695   7.712 -0.5429 -0.4125 -0.3883
  451MOL0     C60790   0.898   7.741   7.709 -0.8093 -0.4850  0.3319
  451MOL0     C60791   0.795   7.651   7.628 -0.1131  0.2994  0.1658
  451MOL0     C60792   0.656   7.707   7.613 -0.5307  0.4597  0.0028
  451MOL0     C60793   0.646   7.770   7.479 -0.4811 -0.1911  0.1926
  451MOL0    Cl60794   0.486   7.838   7.458 -0.2425  0.5111 -0.2911
  451MOL0     C60795   1.608   7.671   7.808 -0.4627 -0.0306  0.2854
  451MOL0     C60796   1.749   7.690   7.797 -0.8170  0.4090 -0.6791
  451MOL0     O60797   1.917   7.978   7.670  0.3903 -0.2936 -0.2182
  451MOL0     C60798   2.224   7.904   7.840  0.3360  0.0248 -0.1174
  451MOL0     C60799   2.352   7.951   7.847  0.8822 -0.0505 -0.2085
  451MOL0     N60800   3.009   8.070   7.426 -0.6369  0.0422  0.3522
  451MOL0     N60801   3.055   8.070   7.309  0.0561  0.6763  0.3023
  451MOL0     C60802   3.725   8.864   6.794  0.1452 -0.1623  0.0179
  451MOL0     C60803   3.837   8.923   6.772  0.3250 -0.1536  1.2861
  451MOL0     C60804   4.269   8.935   6.705 -0.7054 -0.2476 -0.3015
  451MOL0     C60805   4.297   9.076   6.707 -0.0070 -0.1139  0.6672
  451MOL0     C60806   4.416   9.129   6.663  0.3912  0.9238  0.0256
  451MOL0     C60807   4.506   9.038   6.613 -0.5592 -0.8631  0.1440
  451MOL0     O60808   4.619   9.098   6.562  0.2045 -0.8804  0.4923
  451MOL0     C60809   4.745   9.031   6.576  0.3982 -0.3191  0.0873
  451MOL0     C60810   4.835   9.095   6.683 -1.2470  1.2494  0.1938
  451MOL0     C60811   4.833   9.255   6.679 -0.2933  0.4167  0.1688
  451MOL0     C60812   4.920   9.328   6.785 -0.7801 -0.1735  0.3230
  451MOL0     C60813   4.898   9.268   6.919 -0.6607  0.3163  0.1493
  451MOL0     C60814   4.904   9.210   7.026 -0.2670  0.6809 -0.1663
  451MOL0     C60815   4.479   8.905   6.591  0.3176  0.0286 -0.5231
  451MOL0     C60816   4.360   8.846   6.635 -0.6279  0.3091 -0.7531
  451MOL0     C60817   4.339   8.699   6.620 -0.7068  0.0834  0.0748
  451MOL0     H60818   3.972   8.912   7.081  1.1910  1.0604 -1.8037
  451MOL0     H60819   3.768   8.787   7.124  3.3427 -2.7959 -0.3424
  451MOL0     H60820   3.464   8.788   6.796  0.0903  0.6769  0.1649
  451MOL0     H60821   3.555   8.624   6.794  0.5737 -1.9743  3.4477
  451MOL0     H60822   3.329   8.722   6.988 -3.8640 -3.1251  1.9343
  451MOL0     H60823   3.411   8.570   7.008 -1.6975 -2.7049 -1.7324
  451MOL0     H60824   3.332   8.475   6.819  3.1223  0.9341  2.3582
  451MOL0     H60825   3.222   8.619   6.784  0.3615  1.8322  1.4056
  451MOL0     H60826   3.214   8.450   7.040  2.0170 -1.5003 -2.0050
  451MOL0     H60827   3.096   8.566   7.002  0.6414  0.1870 -0.4818
  451MOL0     H60828   2.989   8.442   6.817 -1.8305 -1.6391  2.0682
  451MOL0     H60829   3.128   8.335   6.815  0.7847  1.4252 -1.3544
  451MOL0     H60830   2.964   8.348   7.067  0.4079 -1.9742  1.1619
  451MOL0     H60831   2.888   8.264   6.925  1.5027 -2.4845 -2.4273
  451MOL0     H60832   3.143   8.197   7.083 -0.6983 -1.0095  1.0609
  451MOL0     H60833   3.104   8.132   6.916 -4.1065  0.7544 -1.5116
  451MOL0     H60834   2.897   8.037   7.004 -0.8941 -0.9203  0.7189
  451MOL0     H60835   3.049   7.967   7.058 -2.0371 -1.0671  2.8476
  451MOL0     H60836   2.738   8.070   7.246  1.5715 -2.0956 -2.0115
  451MOL0     H60837   2.736   8.162   7.553  0.2328 -0.3567 -0.3760
  451MOL0     H60838   2.704   7.993   7.511 -1.0269  1.9626 -2.6308
  451MOL0     H60839   2.885   7.920   7.667 -0.3364 -0.3583 -1.2213
  451MOL0     H60840   2.959   8.075   7.663  3.1790 -4.4842 -1.8296
  451MOL0     H60841   2.785   8.173   7.784 -0.5034 -0.2508  1.6358
  451MOL0     H60842   2.827   8.033   7.883  0.0642  0.5622  0.1355
  451MOL0     H60843   2.606   7.968   7.897 -1.3500 -1.7887 -0.2388
  451MOL0     H60844   2.637   7.923   7.723  1.5143  3.3523 -3.7695
  451MOL0     H60845   2.357   8.162   7.587  2.1773  1.1231  1.5177
  451MOL0     H60846   2.105   8.089   7.581 -3.3164 -1.0836  2.1890
  451MOL0     H60847   1.805   7.946   7.996  1.5305 -2.4355  0.7074
  451MOL0     H60848   1.564   7.933   8.026  2.7020  2.4461 -0.7717
  451MOL0     H60849   1.322   7.608   7.764  0.7767 -5.0027  0.3186
  451MOL0     H60850   1.373   7.561   7.936 -0.3943  0.8710  1.1338
  451MOL0     H60851   1.127   7.560   7.920 -3.6937  1.1232 -1.2538
  451MOL0     H60852   1.192   7.685   8.022 -3.2300 -1.4127  1.4744
  451MOL0     H60853   1.042   7.817   7.898  1.5275  1.7998  0.3922
  451MOL0     H60854   1.188   7.845   7.801  0.0042  0.0423  1.2252
  451MOL0     H60855   1.028   7.587   7.731  0.6172 -0.3537  0.8612
  451MOL0     H60856   1.101   7.708   7.622  2.9442  2.5129  2.1180
  451MOL0     H60857   0.902   7.840   7.662 -1.6887 -1.7262 -2.5539
  451MOL0     H60858   0.869   7.749   7.814 -1.3442 -1.3150  0.2521
  451MOL0     H60859   0.837   7.633   7.529 -1.4075  3.4610 -1.0839
  451MOL0     H60860   0.791   7.552   7.675 -0.5701 -0.3715 -1.2138
  451MOL0     H60861   0.636   7.787   7.684 -1.2493  1.2366 -1.0333
  451MOL0     H60862   0.576   7.635   7.634  1.9257 -2.9838 -1.3733
  451MOL0     H60863   0.713   7.857   7.471 -0.5060  0.2408  3.4675
  451MOL0     H60864   0.662   7.688   7.408 -1.1688 -1.5588  1.5660
  451MOL0     H60865   1.564   7.597   7.742  4.0057 -0.8970 -2.1185
  451MOL0     H60866   1.799   7.623   7.728 -1.2443 -0.0756 -0.5330
  451MOL0     H60867   2.189   7.836   7.917 -2.8190  0.6958 -0.8253
  451MOL0     H60868   2.411   7.915   7.932 -3.6491  0.0261  3.3801
  451MOL0     H60869   3.654   8.857   6.712 -3.5465  0.6883  2.8485
  451MOL0     H60870   3.852   8.966   6.674  0.1202 -0.2708  1.2038
  451MOL0     H60871   4.228   9.155   6.736  1.3275  1.7802 -1.0325
  451MOL0     H60872   4.439   9.234   6.654  1.9098  0.5743 -0.3993
  451MOL0     H60873   4.788   9.035   6.476  1.8108  0.2225  0.6939
  451MOL0     H60874   4.741   8.922   6.579 -2.4855 -0.4666 -2.9839
  451MOL0     H60875   4.937   9.061   6.664 -2.0073 -1.7899  0.8869
  451MOL0     H60876   4.801   9.057   6.780 -2.4040  3.1500  0.5868
  451MOL0     H60877   4.730   9.292   6.687 -0.4702  0.6988 -2.5089
  451MOL0     H60878   4.858   9.289   6.578  0.0465  1.1997  0.5073
  451MOL0     H60879   5.026   9.319   6.759 -1.2892 -0.2352 -1.8829
  451MOL0     H60880   4.912   9.437   6.795 -0.6487  0.0176 -1.3844
  451MOL0     H60881   4.913   9.148   7.113  2.6559  0.6621 -0.4098
  451MOL0     H60882   4.557   8.854   6.536 -0.8701  2.5735 -5.1136
  451MOL0     H60883   4.334   8.655   6.720 -2.0554 -0.0628 -0.0464
  451MOL0     H60884   4.246   8.684   6.564 -0.5407 -0.2599 -0.1097
  451MOL0     H60885   4.415   8.656   6.553 -0.3593  0.0557  0.4834
  452MOL0     O60886  10.321   8.662   7.237 -0.2345 -1.3116  0.1580
  452MOL0     C60887  10.346   8.546   7.199 -0.6740 -0.4024  0.3817
  452MOL0     O60888  10.375   8.509   7.064 -0.3012  0.2107  0.6143
  452MOL0     C60889  10.394   8.606   6.966  0.1494  0.8759 -0.1510
  452MOL0     C60890  10.501   8.685   6.986 -0.7619 -0.9396 -0.2393
  452MOL0     C60891  10.542   8.774   6.887 -0.4564  0.2556 -0.1613
  452MOL0     C60892  10.486   8.779   6.762 -0.3100  0.0132 -0.2152
  452MOL0     O60893  10.542   8.857   6.659  0.8862 -0.0958  0.0378
  452MOL0     C60894  10.684   8.854   6.652  0.4715 -0.3658 -0.8835
  452MOL0     C60895  10.720   8.833   6.507  0.5518 -0.3648  0.5150
  452MOL0     C60896  10.870   8.852   6.487  0.2015 -0.7203  0.0220
  452MOL0     C60897  10.930   8.775   6.372  0.6129 -0.1448  0.8931
  452MOL0     C60898  11.078   8.784   6.382 -0.0672 -0.2769 -0.4256
  452MOL0     C60899  11.127   8.688   6.277 -0.0354  0.3899  0.5852
  452MOL0     C60900  11.282   8.671   6.286 -0.4073  0.1440  0.4330
  452MOL0     C60901  11.351   8.570   6.189  0.3238 -0.0190  0.7271
  452MOL0     N60902  11.490   8.547   6.243  0.3164  0.0372 -0.4839
  452MOL0     C60903  11.611   8.609   6.207 -0.0599 -0.0715 -0.1925
  452MOL0     C60904  11.705   8.568   6.290  0.3255  0.2310 -0.6346
  452MOL0     C60905  11.839   8.611   6.299 -0.0598  0.3012  0.6048
  452MOL0     C60906  11.931   8.564   6.185  0.1389 -0.2074 -0.6084
  452MOL0     C60907  12.008   8.679   6.123  0.7954  0.2659 -0.1903
  452MOL0     C60908  12.096   8.741   6.226  0.6190  0.0579  0.0271
  452MOL0     O60909  12.226   8.780   6.180  0.6665  1.4950 -0.0145
  452MOL0     C60910  12.328   8.697   6.238 -0.6886  0.4438  0.2645
  452MOL0     C60911  12.351   8.679   6.381  0.9375  0.2736  0.3286
  452MOL0     C60912  12.461   8.602   6.420 -0.3496  0.1115  0.0173
  452MOL0     C60913  12.545   8.551   6.330 -1.2479  0.4335  0.3357
  452MOL0     C60914  12.665   8.484   6.380  0.0815 -0.6175 -0.0140
  452MOL0     O60915  12.767   8.472   6.284  0.1718  0.2501 -0.0505
  452MOL0     C60916  12.877   8.403   6.318  0.8252  0.1340  0.1365
  452MOL0     C60917  12.892   8.284   6.252 -0.4171  0.8978 -0.3858
  452MOL0     C60918  13.014   8.215   6.266  0.0567  0.0595  0.7889
  452MOL0     C60919  13.110   8.255   6.363 -0.0197 -0.5517  1.5040
  452MOL0     O60920  13.222   8.185   6.400  0.6130 -0.4137 -0.3112
  452MOL0     C60921  13.254   8.056   6.340 -0.2166  0.1297  0.1535
  452MOL0     C60922  13.333   8.068   6.215  0.5153 -0.1812  0.0909
  452MOL0     C60923  13.435   7.948   6.192 -0.1576 -0.5259 -0.4484
  452MOL0     C60924  13.537   7.993   6.090  0.7069  0.7273  1.1896
  452MOL0     C60925  13.624   7.881   6.033 -0.1768  0.1625  0.3716
  452MOL0     C60926  13.734   7.833   6.128  0.0600 -0.0837 -0.6718
  452MOL0     C60927  13.792   7.695   6.094 -0.0634 -0.3450  1.2108
  452MOL0     C60928  13.701   7.589   6.155  1.0241 -0.0729  0.5777
  452MOL0    Cl60929  13.748   7.416   6.144  0.2913 -0.0092  0.4101
  452MOL0     C60930  13.091   8.375   6.429  0.4741  0.4151  0.1070
  452MOL0     C60931  12.975   8.452   6.406  0.0319 -0.8215  0.1108
  452MOL0     O60932  12.652   8.424   6.486  0.3636  0.1319 -0.0190
  452MOL0     C60933  12.533   8.583   6.192  0.2881 -0.4123  0.5037
  452MOL0     C60934  12.422   8.651   6.148 -0.0378  0.2500 -0.3898
  452MOL0     N60935  11.643   8.484   6.390 -0.4441  0.0553  0.2596
  452MOL0     N60936  11.514   8.479   6.361 -0.0457  0.1906  0.5287
  452MOL0     C60937  10.390   8.696   6.739  0.1517  0.5404  0.5819
  452MOL0     C60938  10.336   8.608   6.835  0.0461  0.1084 -0.3767
  452MOL0     C60939  10.339   8.427   7.297 -0.3396 -0.3266  0.7023
  452MOL0     C60940  10.373   8.301   7.247  0.0302  0.0753 -0.3602
  452MOL0     C60941  10.347   8.199   7.327  0.3760 -0.1354  0.2313
  452MOL0     C60942  10.280   8.209   7.454 -0.4831 -0.0629  0.3105
  452MOL0     O60943  10.252   8.081   7.511  0.2189 -0.5728  0.2892
  452MOL0     C60944  10.169   8.072   7.629 -0.1921  0.2713  0.4857
  452MOL0     C60945  10.242   8.085   7.762 -0.1531  0.1143  0.3435
  452MOL0     C60946  10.362   7.992   7.782 -0.1754 -0.2227 -0.0014
  452MOL0     C60947  10.335   7.841   7.796  0.7672  0.8753 -0.3695
  452MOL0     C60948  10.248   7.813   7.908  0.2444  0.0902  0.0691
  452MOL0     C60949  10.192   7.787   8.011  0.3580 -0.9897 -0.5233
  452MOL0     C60950  10.252   8.329   7.509  0.5030 -0.4953 -0.6002
  452MOL0     C60951  10.285   8.449   7.434  0.5357  1.2315  0.4967
  452MOL0     C60952  10.261   8.587   7.501 -0.6521  0.1601  0.0043
  452MOL0     H60953  10.555   8.670   7.079  1.9227  1.2224 -1.3228
  452MOL0     H60954  10.622   8.846   6.900 -0.9180  0.2738  4.2424
  452MOL0     H60955  10.724   8.954   6.673  5.0988 -1.7197 -2.0107
  452MOL0     H60956  10.740   8.782   6.713 -0.6370 -1.4621 -1.1355
  452MOL0     H60957  10.673   8.906   6.440 -0.4831 -1.3425  0.1453
  452MOL0     H60958  10.682   8.739   6.466  1.2562  0.1327 -1.4310
  452MOL0     H60959  10.923   8.822   6.579 -2.0486 -0.9220  1.3321
  452MOL0     H60960  10.880   8.959   6.467  0.7980 -0.3553  1.9674
  452MOL0     H60961  10.902   8.669   6.376  2.4644 -0.7881 -1.2397
  452MOL0     H60962  10.896   8.815   6.277  0.0653 -2.5127  0.0173
  452MOL0     H60963  11.125   8.883   6.378  0.2980 -0.3221  1.4636
  452MOL0     H60964  11.099   8.741   6.481 -0.9804 -1.0584 -0.5588
  452MOL0     H60965  11.067   8.596   6.272 -2.7578  2.0738  0.0475
  452MOL0     H60966  11.109   8.748   6.188  0.6807  1.0178  0.8594
  452MOL0     H60967  11.293   8.626   6.386  2.0346 -0.0403  0.1430
  452MOL0     H60968  11.329   8.769   6.281 -1.6152  0.6732 -1.1817
  452MOL0     H60969  11.286   8.481   6.192  1.7529 -1.5394 -4.0998
  452MOL0     H60970  11.350   8.607   6.086  0.7209  0.9829  1.0728
  452MOL0     H60971  11.614   8.683   6.127 -2.4032 -0.7974 -1.0425
  452MOL0     H60972  11.847   8.720   6.307  0.5260  0.5040 -1.8574
  452MOL0     H60973  11.867   8.566   6.395 -1.5037 -4.5887 -0.9501
  452MOL0     H60974  12.004   8.487   6.216  1.1149  0.2272 -1.7364
  452MOL0     H60975  11.877   8.514   6.104 -0.6372  0.6744 -0.6442
  452MOL0     H60976  11.945   8.763   6.091 -1.0516 -0.7402  0.6716
  452MOL0     H60977  12.057   8.638   6.034  0.8505 -1.7438  0.7146
  452MOL0     H60978  12.101   8.680   6.317 -1.5567  1.9827  1.5643
  452MOL0     H60979  12.037   8.827   6.257 -0.1213 -0.7017  0.7892
  452MOL0     H60980  12.290   8.729   6.456 -1.2725  0.0910 -1.2565
  452MOL0     H60981  12.472   8.604   6.528 -0.1768  1.6985 -0.0007
  452MOL0     H60982  12.818   8.239   6.187 -0.8908  0.6793  0.3059
  452MOL0     H60983  13.019   8.123   6.209  1.0506  1.0846 -0.8666
  452MOL0     H60984  13.291   7.990   6.420 -2.6033 -2.1324 -0.4375
  452MOL0     H60985  13.167   7.994   6.317  0.4733 -0.8138  0.0300
  452MOL0     H60986  13.263   8.070   6.131  3.1703 -0.7501 -2.2731
  452MOL0     H60987  13.381   8.166   6.218  1.5980 -0.6705 -0.4310
  452MOL0     H60988  13.492   7.919   6.280  0.0763 -3.3452 -1.4355
  452MOL0     H60989  13.374   7.864   6.157  1.1621 -1.2570 -1.0833
  452MOL0     H60990  13.583   8.082   6.132 -0.5543  0.8970  2.2960
  452MOL0     H60991  13.473   8.021   6.005 -0.6860 -2.1471  1.1551
  452MOL0     H60992  13.684   7.914   5.948  0.1874 -0.6549  0.3061
  452MOL0     H60993  13.566   7.795   5.996  1.4587 -1.6994  1.9195
  452MOL0     H60994  13.815   7.907   6.130 -0.5817  0.6868  2.1693
  452MOL0     H60995  13.716   7.836   6.236  4.2314  3.4759  0.2481
  452MOL0     H60996  13.895   7.685   6.130  1.8170  0.1512 -3.3670
  452MOL0     H60997  13.797   7.680   5.986 -4.2329  3.2543  0.2547
  452MOL0     H60998  13.661   7.605   6.255 -1.7164 -2.2539 -0.0487
  452MOL0     H60999  13.614   7.588   6.088  1.9705  0.3052 -0.7078
  452MOL0     H61000  13.171   8.416   6.490 -1.1488 -0.2199  2.8685
  452MOL0     H61001  12.964   8.548   6.454  1.0377 -1.6061  1.9715
  452MOL0     H61002  12.612   8.566   6.120 -0.3001 -0.7250 -0.0761
  452MOL0     H61003  12.407   8.673   6.043 -0.1089 -1.6564 -0.8139
  452MOL0     H61004  10.352   8.692   6.637 -0.8181  0.1126  0.9441
  452MOL0     H61005  10.254   8.542   6.808 -0.4015 -0.2839  1.7227
  452MOL0     H61006  10.413   8.268   7.152  3.7079 -1.3731  1.4754
  452MOL0     H61007  10.366   8.096   7.298 -1.6124 -0.5083  0.1104
  452MOL0     H61008  10.108   7.982   7.617  0.5117 -0.1670  0.1545
  452MOL0     H61009  10.087   8.145   7.625  0.3513  0.8237 -1.0869
  452MOL0     H61010  10.169   8.080   7.843 -1.3227  1.1472 -0.6057
  452MOL0     H61011  10.290   8.183   7.770  2.1207 -1.1234  3.8691
  452MOL0     H61012  10.399   8.031   7.878 -1.2976  1.3867 -0.1737
  452MOL0     H61013  10.433   8.007   7.700  0.8707  1.7573  1.1910
  452MOL0     H61014  10.291   7.812   7.700 -0.0774 -0.2807  0.3304
  452MOL0     H61015  10.409   7.761   7.806 -0.2797  0.1476  2.4941
  452MOL0     H61016  10.126   7.766   8.092  0.6955 -0.2296 -0.0347
  452MOL0     H61017  10.195   8.352   7.599  3.3505  0.5930  1.0583
  452MOL0     H61018  10.204   8.648   7.431 -0.3744  1.5805  0.9843
  452MOL0     H61019  10.224   8.587   7.604  2.8145 -0.3835  1.3771
  452MOL0     H61020  10.352   8.647   7.506 -2.4273  2.9334  1.8328
  453MOL0     O61021   3.775  10.499   6.968  0.0621  0.4221  0.9024
  453MOL0     C61022   3.788  10.483   6.843  0.3045  0.2564 -0.4148
  453MOL0     O61023   3.870  10.556   6.759  0.9658 -0.7822 -0.2986
  453MOL0     C61024   3.909  10.685   6.799 -0.9973  0.1815  0.1077
  453MOL0     C61025   3.814  10.773   6.850 -0.5192  0.1373 -0.1404
  453MOL0     C61026   3.868  10.902   6.887 -1.8210 -0.0052  0.2148
  453MOL0     C61027   4.007  10.932   6.893 -0.3731 -0.3687 -0.1078
  453MOL0     O61028   4.066  11.056   6.939  1.1400  0.3351 -0.4407
  453MOL0     C61029   4.002  11.101   7.067 -0.4108 -0.1260 -0.5037
  453MOL0     C61030   4.050  11.243   7.115  0.3901  0.2712 -0.5302
  453MOL0     C61031   3.939  11.286   7.216 -0.0351 -0.1220 -0.0620
  453MOL0     C61032   3.963  11.425   7.280  0.3988  0.2871  0.1688
  453MOL0     C61033   3.851  11.473   7.374 -0.2470  0.8502  0.0233
  453MOL0     C61034   3.897  11.599   7.447  0.2319  0.6186  1.0190
  453MOL0     C61035   4.010  11.590   7.549 -0.2791 -1.0140 -0.2132
  453MOL0     C61036   3.977  11.504   7.668 -0.3922  0.4380 -0.1342
  453MOL0     N61037   3.857  11.540   7.749 -0.0888 -0.4448 -0.3929
  453MOL0     C61038   3.860  11.658   7.821 -0.3730  0.1315 -0.1067
  453MOL0     C61039   3.736  11.664   7.871  0.3495 -0.2855  0.3812
  453MOL0     C61040   3.661  11.789   7.937 -0.3265  0.9196 -0.0580
  453MOL0     C61041   3.696  11.930   7.885 -0.1113 -0.7034  0.5993
  453MOL0     C61042   3.655  11.943   7.737 -0.9280 -0.0129 -0.2573
  453MOL0     C61043   3.636  12.084   7.692  0.0030 -0.6347 -0.1160
  453MOL0     O61044   3.753  12.159   7.649  1.0462 -0.1947 -0.3255
  453MOL0     C61045   3.825  12.219   7.751  0.2863 -0.4261 -0.3079
  453MOL0     C61046   3.945  12.150   7.788 -0.0530 -0.2253 -0.1054
  453MOL0     C61047   4.030  12.210   7.886  0.2322  0.3343 -0.8644
  453MOL0     C61048   3.984  12.323   7.956 -0.0162 -0.1302  0.1929
  453MOL0     C61049   4.064  12.382   8.060  0.1878  0.3456  0.5849
  453MOL0     O61050   4.036  12.512   8.097 -0.6795  0.4371 -0.1857
  453MOL0     C61051   4.113  12.551   8.202  0.6410 -0.3702 -0.9702
  453MOL0     C61052   4.235  12.628   8.190  0.3295 -0.2232  0.0407
  453MOL0     C61053   4.308  12.660   8.309 -0.2082 -0.1110 -0.5346
  453MOL0     C61054   4.244  12.643   8.435  0.3363  0.8631 -0.0707
  453MOL0     O61055   4.303  12.681   8.552 -0.6988 -0.1686  0.4010
  453MOL0     C61056   4.444  12.712   8.564  0.4024 -0.9509 -1.4336
  453MOL0     C61057   4.477  12.755   8.708  1.3330  0.2910  0.7341
  453MOL0     C61058   4.623  12.800   8.731  0.5545  0.1670  0.0618
  453MOL0     C61059   4.642  12.864   8.865  0.5896 -0.1912  0.6647
  453MOL0     C61060   4.625  12.771   8.976  0.3022 -0.3740 -0.0549
  453MOL0     C61061   4.680  12.813   9.117 -0.1927  0.0623  0.2466
  453MOL0     C61062   4.650  12.718   9.236  0.4147 -0.0356 -0.4136
  453MOL0     C61063   4.689  12.573   9.207 -0.1857 -0.5496 -0.7083
  453MOL0    Cl61064   4.861  12.581   9.167  0.2235 -0.6669  0.3433
  453MOL0     C61065   4.125  12.576   8.448 -0.3925 -0.5687  0.7822
  453MOL0     C61066   4.067  12.524   8.334 -0.1273  0.1494  0.8320
  453MOL0     O61067   4.141  12.309   8.117 -0.0218  0.4174  0.2634
  453MOL0     C61068   3.877  12.400   7.898 -0.9609  0.0060  0.4695
  453MOL0     C61069   3.797  12.346   7.797 -0.7395 -0.1313  0.4374
  453MOL0     N61070   3.667  11.547   7.833  0.2544 -1.3541  0.5407
  453MOL0     N61071   3.740  11.474   7.763 -0.3751 -0.3678  0.2324
  453MOL0     C61072   4.093  10.832   6.833 -0.0360  0.5223 -0.7284
  453MOL0     C61073   4.046  10.708   6.785  0.2997  0.2911 -0.1953
  453MOL0     C61074   3.692  10.386   6.792 -0.6535  0.2375  0.2867
  453MOL0     C61075   3.630  10.303   6.883  0.1860  1.4455  0.0973
  453MOL0     C61076   3.534  10.206   6.845  0.2442  0.2825  0.7174
  453MOL0     C61077   3.504  10.186   6.705  0.2081  0.3666 -0.8383
  453MOL0     O61078   3.421  10.076   6.674  0.6704 -0.1812 -0.2231
  453MOL0     C61079   3.419  10.025   6.545 -0.2051 -0.0016  0.1662
  453MOL0     C61080   3.342   9.897   6.518  1.4041  0.0745 -0.5487
  453MOL0     C61081   3.415   9.774   6.592 -0.7774 -0.0940 -0.8960
  453MOL0     C61082   3.360   9.635   6.592  0.4961 -0.4196  0.3097
  453MOL0     C61083   3.446   9.556   6.683  0.7522 -0.1924 -0.0644
  453MOL0     C61084   3.513   9.500   6.772  0.4137  0.9359  0.6807
  453MOL0     C61085   3.564  10.276   6.613 -0.1480  0.1050 -0.3650
  453MOL0     C61086   3.663  10.362   6.653 -0.0741 -0.1249 -1.1826
  453MOL0     C61087   3.735  10.434   6.544  0.7417  0.3299  0.3291
  453MOL0     H61088   3.710  10.742   6.863 -0.2430 -0.9871 -0.5413
  453MOL0     H61089   3.797  10.975   6.926 -0.6309  0.3077  1.9028
  453MOL0     H61090   3.893  11.096   7.059 -0.2847 -1.8961 -1.7133
  453MOL0     H61091   4.023  11.037   7.153 -0.9996  1.1683  0.6478
  453MOL0     H61092   4.046  11.310   7.029  1.0892  0.8382 -0.1341
  453MOL0     H61093   4.152  11.236   7.154 -0.8320  1.2233  3.2060
  453MOL0     H61094   3.934  11.210   7.294  1.3467 -0.7272 -0.5367
  453MOL0     H61095   3.846  11.282   7.158  0.1320 -2.2507 -0.2687
  453MOL0     H61096   4.054  11.425   7.340 -0.1162  2.5949  1.0505
  453MOL0     H61097   3.977  11.504   7.206 -1.6443  1.0163  0.4973
  453MOL0     H61098   3.761  11.491   7.316 -0.7622 -1.5106 -0.0201
  453MOL0     H61099   3.824  11.394   7.445 -0.4927 -0.6674 -1.6951
  453MOL0     H61100   3.921  11.672   7.369  0.2601 -1.2516 -0.8097
  453MOL0     H61101   3.812  11.649   7.495 -1.3183 -0.8524 -0.0730
  453MOL0     H61102   4.045  11.690   7.578  1.6454 -1.3544 -1.2038
  453MOL0     H61103   4.100  11.554   7.500  1.0014  3.0477 -1.2205
  453MOL0     H61104   3.963  11.399   7.640 -0.3839 -0.2493  2.2121
  453MOL0     H61105   4.056  11.513   7.743 -3.3140 -0.3723  3.3754
  453MOL0     H61106   3.943  11.727   7.830  0.8212 -0.7236 -3.2216
  453MOL0     H61107   3.553  11.775   7.924  0.0292 -2.5138 -0.3306
  453MOL0     H61108   3.702  11.788   8.038 -0.4219  0.0712 -0.0190
  453MOL0     H61109   3.652  12.004   7.952  3.8513  1.7309  0.7658
  453MOL0     H61110   3.801  11.938   7.914  0.3364  1.2523 -1.3154
  453MOL0     H61111   3.556  11.899   7.721 -1.3997  1.6045 -2.1872
  453MOL0     H61112   3.731  11.889   7.680 -1.5111 -0.1913 -0.8699
  453MOL0     H61113   3.578  12.139   7.767 -0.0801 -0.6204 -0.1915
  453MOL0     H61114   3.574  12.087   7.602 -0.2577  1.1240  0.0847
  453MOL0     H61115   3.964  12.053   7.744 -2.7425 -1.5091  1.3014
  453MOL0     H61116   4.134  12.177   7.892 -0.5562 -2.3389 -0.3007
  453MOL0     H61117   4.268  12.657   8.091  0.7753  0.1264  0.2861
  453MOL0     H61118   4.414  12.686   8.310  0.3190 -2.0644 -0.6757
  453MOL0     H61119   4.506  12.624   8.546  2.0894 -0.5109  1.5241
  453MOL0     H61120   4.470  12.792   8.495 -1.2363 -0.7350 -1.8391
  453MOL0     H61121   4.404  12.830   8.740  0.1406 -0.7372  0.4752
  453MOL0     H61122   4.442  12.679   8.778  1.3957  0.6453  1.1623
  453MOL0     H61123   4.695  12.718   8.723  1.1457  0.7206 -0.3528
  453MOL0     H61124   4.646  12.879   8.659  1.0151 -0.7617 -0.8329
  453MOL0     H61125   4.570  12.945   8.883  2.2549  0.7886  3.7074
  453MOL0     H61126   4.736  12.916   8.885  2.0885 -1.8150 -1.6547
  453MOL0     H61127   4.675  12.676   8.952 -0.1269 -0.9610  1.3139
  453MOL0     H61128   4.516  12.762   8.979  0.2266  0.7211  1.0012
  453MOL0     H61129   4.788  12.829   9.118 -0.0313 -0.7093  3.3636
  453MOL0     H61130   4.639  12.910   9.146 -0.2279  0.1449 -0.0719
  453MOL0     H61131   4.546  12.736   9.264  1.1493  4.0702  0.3300
  453MOL0     H61132   4.717  12.742   9.319  3.4518 -1.8488 -2.1430
  453MOL0     H61133   4.672  12.512   9.296 -3.0210  2.0278  0.6737
  453MOL0     H61134   4.632  12.523   9.127  2.0407 -1.7939 -1.6156
  453MOL0     H61135   4.075  12.541   8.538 -2.0443 -3.0340 -0.9677
  453MOL0     H61136   3.989  12.452   8.354  0.5901  0.3121  5.2779
  453MOL0     H61137   3.858  12.490   7.955 -1.5031  0.1058  0.1338
  453MOL0     H61138   3.700  12.386   7.771  0.7236  1.6511 -2.8138
  453MOL0     H61139   4.200  10.847   6.826  0.1501  0.3510  1.1783
  453MOL0     H61140   4.111  10.629   6.750 -0.9582 -1.3190  0.9189
  453MOL0     H61141   3.643  10.297   6.991  0.4497  0.8208  0.0321
  453MOL0     H61142   3.497  10.146   6.927 -1.2295 -0.3532 -0.3653
  453MOL0     H61143   3.520   9.990   6.522 -1.1955 -3.7607  0.8149
  453MOL0     H61144   3.382  10.098   6.473  0.1731 -1.2248 -1.3124
  453MOL0     H61145   3.334   9.895   6.409  1.4381 -4.8118 -0.6644
  453MOL0     H61146   3.240   9.914   6.553  1.7025  2.5473 -0.6696
  453MOL0     H61147   3.416   9.810   6.695  0.6634 -0.4359 -0.7701
  453MOL0     H61148   3.517   9.774   6.551 -1.5914  1.4222 -3.1223
  453MOL0     H61149   3.256   9.627   6.622 -0.6516 -1.6636 -3.4110
  453MOL0     H61150   3.369   9.580   6.498  2.0496 -0.6656  0.5670
  453MOL0     H61151   3.570   9.433   6.834 -3.2511 -0.9413  2.3536
  453MOL0     H61152   3.536  10.265   6.509  1.6852  0.8116 -0.9817
  453MOL0     H61153   3.843  10.414   6.554  0.4479 -1.4192  0.3543
  453MOL0     H61154   3.711  10.382   6.451 -0.0685  2.1521 -0.5375
  453MOL0     H61155   3.708  10.540   6.544  0.2393  0.2192 -0.6112
  454MOL0     O61156   3.903   0.953   9.125 -0.1411 -0.5767  0.4408
  454MOL0     C61157   3.875   0.852   9.181  0.2649 -0.0854 -0.1055
  454MOL0     O61158   3.814   0.741   9.118 -0.4149  0.5129 -0.4436
  454MOL0     C61159   3.863   0.704   8.998  0.2860 -0.9072 -1.1373
  454MOL0     C61160   3.938   0.590   8.993  0.4760  0.6107 -0.1572
  454MOL0     C61161   3.990   0.558   8.867  0.1963  0.2075 -0.4209
  454MOL0     C61162   3.971   0.647   8.758  0.9607  0.6834 -0.3597
  454MOL0     O61163   4.023   0.624   8.636  0.3505  0.0266 -0.3153
  454MOL0     C61164   4.091   0.494   8.613 -0.3633 -0.0170 -0.4941
  454MOL0     C61165   4.114   0.448   8.466  0.3613  0.0751 -0.1596
  454MOL0     C61166   4.190   0.318   8.460  0.5063 -0.0272 -0.0888
  454MOL0     C61167   4.315   0.305   8.369  0.7156  0.9651 -0.5449
  454MOL0     C61168   4.271   0.320   8.222  0.0180 -0.1272 -0.8759
  454MOL0     C61169   4.389   0.308   8.127 -0.0280 -0.1376  0.7059
  454MOL0     C61170   4.332   0.302   7.983 -0.3280  1.4147  0.4808
  454MOL0     C61171   4.273   0.434   7.939 -0.0048 -0.1802  0.3116
  454MOL0     N61172   4.248   0.437   7.794  0.5643 -0.0902 -0.0168
  454MOL0     C61173   4.355   0.445   7.712  0.0693 -0.2793 -0.5157
  454MOL0     C61174   4.302   0.471   7.591  0.3121 -0.4731 -0.2374
  454MOL0     C61175   4.374   0.479   7.461 -0.0404  0.2682 -0.3713
  454MOL0     C61176   4.361   0.342   7.407  0.7341 -0.0691  0.3047
  454MOL0     C61177   4.445   0.307   7.282 -0.2498 -0.6266  0.0910
  454MOL0     C61178   4.396   0.185   7.211 -0.3783  0.8243 -0.0203
  454MOL0     O61179   4.425   0.065   7.293  0.2650 -0.0810  0.7665
  454MOL0     C61180   4.424  -0.054   7.235 -1.1783 -0.1019 -0.3249
  454MOL0     C61181   4.412  -0.066   7.094  0.8392  0.0296  0.0091
  454MOL0     C61182   4.409  -0.189   7.033 -0.5536  1.0907  0.1709
  454MOL0     C61183   4.418  -0.311   7.111 -0.4543 -0.4146 -0.5666
  454MOL0     C61184   4.414  -0.446   7.056  0.2403 -0.1544 -0.7383
  454MOL0     O61185   4.431  -0.541   7.143  0.0228  1.5935 -0.2715
  454MOL0     C61186   4.420  -0.671   7.102 -0.2205  0.4706  0.0634
  454MOL0     C61187   4.523  -0.723   7.032  0.0664  0.2819  0.1739
  454MOL0     C61188   4.517  -0.861   7.004 -0.0086 -0.4568  0.6754
  454MOL0     C61189   4.404  -0.939   7.025 -0.4788  0.2102  0.3767
  454MOL0     O61190   4.389  -1.074   6.979  0.3202 -0.6533 -0.7506
  454MOL0     C61191   4.501  -1.149   6.929  0.5093  0.0497  0.5484
  454MOL0     C61192   4.537  -1.115   6.780  0.3200 -0.7597 -0.3458
  454MOL0     C61193   4.664  -1.172   6.720  0.5548  0.5298  0.4772
  454MOL0     C61194   4.800  -1.133   6.775  0.0848  0.0847  0.3103
  454MOL0     C61195   4.823  -0.987   6.753 -0.1109  0.0335  0.4230
  454MOL0     C61196   4.962  -0.950   6.811  0.3184 -0.4178 -0.4735
  454MOL0     C61197   5.016  -0.809   6.791 -0.1502  0.5282  0.2566
  454MOL0     C61198   5.018  -0.766   6.644 -0.0130  0.1599  0.3022
  454MOL0    Cl61199   5.070  -0.892   6.539  0.1481  0.0122  0.4384
  454MOL0     C61200   4.292  -0.878   7.086 -0.1691  0.3269 -0.0665
  454MOL0     C61201   4.304  -0.746   7.127  0.2279  0.4868 -0.4304
  454MOL0     O61202   4.391  -0.458   6.935 -0.3918 -0.0013 -0.0902
  454MOL0     C61203   4.427  -0.295   7.250  0.6501 -0.3375 -0.5743
  454MOL0     C61204   4.422  -0.169   7.309  0.1609 -0.0290 -0.8754
  454MOL0     N61205   4.163   0.455   7.612 -0.2762  0.2668  0.0610
  454MOL0     N61206   4.131   0.443   7.733 -0.6059  0.5135 -0.2710
  454MOL0     C61207   3.899   0.763   8.773 -0.2592  0.3691 -0.4922
  454MOL0     C61208   3.843   0.798   8.894  0.1695  0.1275 -0.1073
  454MOL0     C61209   3.882   0.852   9.333  0.4263 -0.1116 -0.1714
  454MOL0     C61210   3.813   0.737   9.394  0.8077 -0.6689 -0.1126
  454MOL0     C61211   3.812   0.732   9.531 -0.8687  0.6269  0.1162
  454MOL0     C61212   3.866   0.830   9.607  1.1832  0.9753 -0.0644
  454MOL0     O61213   3.860   0.816   9.743  0.7409 -0.1091  0.2899
  454MOL0     C61214   3.985   0.850   9.800 -0.5909  0.4047  0.3069
  454MOL0     C61215   3.987   0.782   9.927  0.3235  0.0437  0.1904
  454MOL0     C61216   3.987   0.628   9.915 -0.3610  0.1324 -0.6595
  454MOL0     C61217   3.943   0.555  10.043 -0.4498  0.5381 -0.4029
  454MOL0     C61218   4.034   0.606  10.154  0.4851  0.9096 -0.7815
  454MOL0     C61219   4.097   0.659  10.248 -0.6012 -0.0282  0.4281
  454MOL0     C61220   3.924   0.946   9.550 -0.0963  1.2911 -0.2529
  454MOL0     C61221   3.942   0.952   9.410 -0.4571  1.2194 -0.3768
  454MOL0     C61222   4.009   1.074   9.359  0.0020  0.1345 -0.1561
  454MOL0     H61223   3.956   0.531   9.083 -0.4710 -1.8832 -1.4934
  454MOL0     H61224   4.048   0.467   8.864 -3.5548 -2.4802  0.9153
  454MOL0     H61225   4.190   0.519   8.652 -1.1274  3.6614 -0.5711
  454MOL0     H61226   4.036   0.419   8.672  0.7107  0.8770  1.7568
  454MOL0     H61227   4.172   0.524   8.413  3.2246 -0.2560  2.2482
  454MOL0     H61228   4.015   0.441   8.419  1.7851  3.0521 -4.2019
  454MOL0     H61229   4.113   0.241   8.444  1.9023 -1.4753 -0.0298
  454MOL0     H61230   4.218   0.294   8.563  1.9433  1.2091 -0.1582
  454MOL0     H61231   4.383   0.384   8.401  1.9623 -0.7849  1.3827
  454MOL0     H61232   4.364   0.208   8.383 -2.5110 -1.4517 -3.9774
  454MOL0     H61233   4.189   0.248   8.213  0.1083 -0.2788 -0.5324
  454MOL0     H61234   4.223   0.417   8.208 -2.5990 -1.2080 -0.2250
  454MOL0     H61235   4.455   0.393   8.148 -2.3882  1.8641  0.4487
  454MOL0     H61236   4.449   0.219   8.146 -2.9646 -1.8813  2.5328
  454MOL0     H61237   4.260   0.220   7.975 -0.1569  1.2054  1.0501
  454MOL0     H61238   4.414   0.276   7.914 -1.3385 -3.6743  0.7965
  454MOL0     H61239   4.183   0.472   7.989 -1.3073 -0.5719 -1.6533
  454MOL0     H61240   4.347   0.510   7.968 -0.2972  0.4452 -0.5445
  454MOL0     H61241   4.455   0.430   7.753 -1.1117  0.1426  2.8978
  454MOL0     H61242   4.308   0.538   7.398 -0.1046  1.8426  1.1007
  454MOL0     H61243   4.478   0.512   7.475 -0.8983  3.0407 -0.0267
  454MOL0     H61244   4.376   0.268   7.486 -3.8973 -2.8185 -0.9536
  454MOL0     H61245   4.256   0.323   7.379  0.8583  1.4884 -1.4143
  454MOL0     H61246   4.552   0.293   7.300  0.3076  2.3421 -0.4626
  454MOL0     H61247   4.446   0.386   7.206  0.6759 -0.3124  0.4233
  454MOL0     H61248   4.457   0.175   7.120 -2.0945  0.6396 -1.2093
  454MOL0     H61249   4.293   0.201   7.177  0.5372  0.7551 -3.2169
  454MOL0     H61250   4.412   0.008   7.015 -0.6207  1.1323  0.9896
  454MOL0     H61251   4.405  -0.201   6.926 -0.7854 -1.7095  0.4324
  454MOL0     H61252   4.618  -0.677   7.006 -0.3322  0.3382 -1.2943
  454MOL0     H61253   4.597  -0.905   6.946  0.9113  1.7538  0.1596
  454MOL0     H61254   4.592  -1.131   6.987  2.6405 -1.6859 -2.0060
  454MOL0     H61255   4.479  -1.256   6.931  1.8664 -0.3322 -1.5473
  454MOL0     H61256   4.445  -1.144   6.729 -1.9424 -1.0876  3.5394
  454MOL0     H61257   4.548  -1.006   6.769  2.7001 -1.0662 -1.5231
  454MOL0     H61258   4.640  -1.279   6.728 -0.5167  0.5963 -1.2923
  454MOL0     H61259   4.664  -1.151   6.613  1.8148 -1.0881  0.1102
  454MOL0     H61260   4.874  -1.204   6.736 -1.1061 -0.7167 -0.5369
  454MOL0     H61261   4.793  -1.160   6.881  1.0820  0.4394  0.4805
  454MOL0     H61262   4.745  -0.925   6.799 -0.1783 -0.1808  0.5965
  454MOL0     H61263   4.827  -0.960   6.647 -2.0407 -0.0538  0.2942
  454MOL0     H61264   4.964  -0.974   6.918  1.2987  0.4159 -0.2884
  454MOL0     H61265   5.036  -1.019   6.769  0.8556 -0.1418 -0.0065
  454MOL0     H61266   5.117  -0.804   6.833  1.0914 -4.5964 -1.4635
  454MOL0     H61267   4.961  -0.732   6.846  1.7987  1.0836  1.5663
  454MOL0     H61268   4.917  -0.736   6.614  0.4149 -0.7298 -2.2034
  454MOL0     H61269   5.072  -0.672   6.635  0.0429  0.1228  0.2459
  454MOL0     H61270   4.197  -0.928   7.099  1.3568 -2.5765  1.0097
  454MOL0     H61271   4.223  -0.697   7.180 -1.2643 -1.2063 -1.0596
  454MOL0     H61272   4.434  -0.373   7.324  1.2268  2.0775  2.0911
  454MOL0     H61273   4.420  -0.164   7.417  1.1896  0.6277 -0.8783
  454MOL0     H61274   3.874   0.826   8.688  3.2773 -2.0746 -3.6927
  454MOL0     H61275   3.789   0.889   8.915  6.0642  3.8481  1.1528
  454MOL0     H61276   3.771   0.661   9.329 -0.9144  0.2808 -0.1644
  454MOL0     H61277   3.778   0.648   9.590  1.5217  2.1877  4.0872
  454MOL0     H61278   4.003   0.957   9.814 -2.4678  1.1393 -2.1186
  454MOL0     H61279   4.073   0.817   9.743  0.0470  0.3904  1.2722
  454MOL0     H61280   3.907   0.821   9.989 -1.1037 -0.3164 -1.3463
  454MOL0     H61281   4.062   0.830   9.991 -0.7877  1.5086  0.4467
  454MOL0     H61282   4.081   0.581   9.885 -0.8394 -1.3219  0.0066
  454MOL0     H61283   3.919   0.591   9.839 -1.4467  1.0235 -0.1499
  454MOL0     H61284   3.837   0.576  10.059  0.1494  2.4964  1.4565
  454MOL0     H61285   3.960   0.448  10.031  0.9429  1.0671 -5.2043
  454MOL0     H61286   4.158   0.702  10.324 -2.9795  2.4776  1.0535
  454MOL0     H61287   3.967   1.018   9.619 -2.3749  0.1941  2.5187
  454MOL0     H61288   3.931   1.139   9.318 -3.4920 -2.7210  1.4376
  454MOL0     H61289   4.068   1.128   9.433 -0.5215 -0.3250  0.6073
  454MOL0     H61290   4.084   1.049   9.283 -3.0040 -3.3374 -2.3242
  455MOL0     O61291   2.741   5.893   5.720  0.1280  0.3529 -0.3752
  455MOL0     C61292   2.807   5.908   5.617  0.6389  0.6317 -0.9747
  455MOL0     O61293   2.931   5.888   5.611 -0.2540 -0.1542 -0.1514
  455MOL0     C61294   2.993   5.815   5.705  0.2328 -0.1145 -1.0994
  455MOL0     C61295   3.095   5.873   5.786  0.5839 -0.3070 -0.7195
  455MOL0     C61296   3.156   5.803   5.890  0.0563  0.3516 -0.4705
  455MOL0     C61297   3.138   5.665   5.912  0.2165 -0.2501  1.1348
  455MOL0     O61298   3.190   5.591   6.019 -0.0537 -0.0727 -0.3966
  455MOL0     C61299   3.295   5.653   6.094 -0.4067 -0.8158 -1.0183
  455MOL0     C61300   3.336   5.549   6.196 -0.6244 -0.0753  0.0868
  455MOL0     C61301   3.400   5.420   6.153  0.3492  0.2990  0.5752
  455MOL0     C61302   3.306   5.306   6.096  0.4449 -0.2571  0.1012
  455MOL0     C61303   3.357   5.160   6.102 -1.0495 -0.2147 -0.3143
  455MOL0     C61304   3.479   5.147   6.011  0.8969  0.3822  0.3734
  455MOL0     C61305   3.507   4.994   5.985  0.2861 -0.7303  1.0760
  455MOL0     C61306   3.626   4.975   5.891 -0.5472 -0.5407  0.1778
  455MOL0     N61307   3.638   4.826   5.888  0.0401  0.4659  0.0919
  455MOL0     C61308   3.752   4.748   5.915  0.8484 -0.2971  0.0631
  455MOL0     C61309   3.715   4.623   5.908  0.1638  0.0215 -0.5478
  455MOL0     C61310   3.809   4.505   5.931  0.2457  0.9105  0.2773
  455MOL0     C61311   3.910   4.500   5.822  0.1967  0.4903 -0.3789
  455MOL0     C61312   3.964   4.349   5.799  0.5695  0.1531 -0.4277
  455MOL0     C61313   4.037   4.333   5.673  0.1030  0.4445  1.5232
  455MOL0     O61314   4.157   4.417   5.677  0.1566 -0.5374  0.4196
  455MOL0     C61315   4.273   4.382   5.602 -0.1880  0.4674  0.3934
  455MOL0     C61316   4.276   4.305   5.487  0.2979 -0.0875 -0.4315
  455MOL0     C61317   4.401   4.268   5.424  0.6328 -0.3490 -0.4919
  455MOL0     C61318   4.521   4.340   5.465  0.1149  0.1288  0.3155
  455MOL0     C61319   4.657   4.307   5.420 -0.2178 -0.8611 -0.1498
  455MOL0     O61320   4.758   4.349   5.499 -0.1795 -1.0124 -0.2261
  455MOL0     C61321   4.890   4.334   5.471  0.7557  0.6900 -0.4029
  455MOL0     C61322   4.950   4.360   5.348 -0.6805 -0.0813  0.2972
  455MOL0     C61323   5.092   4.326   5.320  0.1429  0.0276 -0.9970
  455MOL0     C61324   5.158   4.245   5.418  0.6070 -0.2122  0.0889
  455MOL0     O61325   5.289   4.207   5.382 -0.5090 -0.6143  0.0471
  455MOL0     C61326   5.376   4.152   5.478  0.2435  0.2605  0.7140
  455MOL0     C61327   5.500   4.105   5.398  0.3580 -0.0418  0.0490
  455MOL0     C61328   5.620   4.050   5.474  0.1919  0.0343 -0.3997
  455MOL0     C61329   5.753   4.114   5.460 -0.0743 -0.4518 -0.3824
  455MOL0     C61330   5.872   4.017   5.458  0.0404 -0.3814 -0.7514
  455MOL0     C61331   5.896   3.927   5.330  0.4588 -0.1238 -0.4062
  455MOL0     C61332   6.014   3.982   5.247 -0.3846 -0.3267  0.1294
  455MOL0     C61333   5.970   4.125   5.201 -0.4507  0.8709  0.3048
  455MOL0    Cl61334   6.077   4.177   5.070  0.7620 -0.4983  0.2703
  455MOL0     C61335   5.099   4.221   5.536  1.1207  0.1318 -0.8368
  455MOL0     C61336   4.966   4.261   5.567  0.1506  0.4486  0.1076
  455MOL0     O61337   4.674   4.232   5.325  0.4867 -0.1660  0.5344
  455MOL0     C61338   4.513   4.429   5.578  0.7973  0.1013  0.8639
  455MOL0     C61339   4.391   4.438   5.646 -0.1911 -0.4760 -0.1655
  455MOL0     N61340   3.580   4.620   5.874 -0.4619  0.2118  0.6454
  455MOL0     N61341   3.539   4.741   5.857  0.1908 -0.1702  0.3035
  455MOL0     C61342   3.046   5.603   5.822  0.5037 -0.2497  1.1711
  455MOL0     C61343   2.975   5.679   5.726 -0.0119 -0.1055  0.5542
  455MOL0     C61344   2.738   5.971   5.502 -0.5197  0.5873 -0.3246
  455MOL0     C61345   2.809   5.998   5.380  0.2726  0.1922 -0.9393
  455MOL0     C61346   2.758   6.077   5.279  0.3642  0.3796 -1.2286
  455MOL0     C61347   2.641   6.151   5.288 -0.6646 -0.1070 -0.1417
  455MOL0     O61348   2.596   6.240   5.194  0.3571 -0.2223 -0.2888
  455MOL0     C61349   2.534   6.170   5.081  0.0443 -0.1091  0.2105
  455MOL0     C61350   2.436   6.264   5.004  0.1347  0.1051 -0.0937
  455MOL0     C61351   2.504   6.384   4.941  0.7294  0.7173 -0.6541
  455MOL0     C61352   2.620   6.342   4.849 -0.5947  0.5528  0.1075
  455MOL0     C61353   2.673   6.446   4.761  0.3534  0.8959  0.7635
  455MOL0     C61354   2.709   6.531   4.680 -0.3445 -0.3759 -0.0979
  455MOL0     C61355   2.573   6.138   5.404 -0.3449 -0.1905  0.0948
  455MOL0     C61356   2.617   6.056   5.514 -0.2421 -0.5971  1.1158
  455MOL0     C61357   2.523   6.060   5.626 -0.7386 -0.2273  0.2028
  455MOL0     H61358   3.116   5.977   5.765 -1.3680  0.5085  1.0859
  455MOL0     H61359   3.211   5.871   5.955 -2.8732  3.7209 -1.1517
  455MOL0     H61360   3.379   5.686   6.032 -1.4253  3.0995 -0.5489
  455MOL0     H61361   3.269   5.750   6.136 -1.5419 -1.5186 -0.0364
  455MOL0     H61362   3.266   5.530   6.278 -0.7180  0.1316  0.0546
  455MOL0     H61363   3.414   5.598   6.255  1.1761 -0.5756 -1.7308
  455MOL0     H61364   3.453   5.388   6.244  1.7876 -2.7376 -1.1538
  455MOL0     H61365   3.479   5.443   6.082 -0.1457  0.6471  0.1306
  455MOL0     H61366   3.212   5.316   6.151  0.6815 -0.7495  0.5986
  455MOL0     H61367   3.285   5.336   5.993  2.3959  1.3593  0.1212
  455MOL0     H61368   3.379   5.122   6.202 -2.3481  0.8548  0.4171
  455MOL0     H61369   3.275   5.099   6.063  1.0778 -2.0817 -2.1807
  455MOL0     H61370   3.472   5.198   5.915 -0.3524 -2.9228 -1.4613
  455MOL0     H61371   3.549   5.187   6.085 -1.2258 -0.0308  2.7279
  455MOL0     H61372   3.414   4.951   5.945 -0.7349  2.8543 -0.8577
  455MOL0     H61373   3.537   4.937   6.074  3.8553 -0.7213  0.0432
  455MOL0     H61374   3.610   5.022   5.794 -2.4444  2.1533  1.6624
  455MOL0     H61375   3.717   5.022   5.932 -1.8584 -0.2455  3.0249
  455MOL0     H61376   3.854   4.783   5.929  0.6285  0.3135  0.1860
  455MOL0     H61377   3.869   4.523   6.020  1.2454 -2.2813  0.3889
  455MOL0     H61378   3.748   4.414   5.936  0.4186  0.7434 -0.5057
  455MOL0     H61379   3.869   4.537   5.728  0.8358  1.5120 -0.2702
  455MOL0     H61380   3.990   4.574   5.831 -0.6494  1.3866  0.0895
  455MOL0     H61381   3.871   4.291   5.785 -0.0908  1.6120 -2.4570
  455MOL0     H61382   4.015   4.307   5.886  1.0043  1.2252 -0.1561
  455MOL0     H61383   3.970   4.349   5.588  0.9170  1.3678  1.0342
  455MOL0     H61384   4.073   4.230   5.668 -2.2460 -0.4862 -3.9498
  455MOL0     H61385   4.190   4.246   5.457 -0.1483  0.5142 -0.3535
  455MOL0     H61386   4.400   4.196   5.343  2.2771 -0.0830 -0.7797
  455MOL0     H61387   4.888   4.418   5.281  0.9408 -0.7617 -1.8969
  455MOL0     H61388   5.147   4.351   5.230 -0.7285 -0.2382 -1.6274
  455MOL0     H61389   5.401   4.238   5.541  2.4584 -0.2951  0.6631
  455MOL0     H61390   5.330   4.074   5.539  0.4197  0.0193  0.5393
  455MOL0     H61391   5.479   4.025   5.326 -1.4416 -0.5599  1.0692
  455MOL0     H61392   5.536   4.198   5.352  1.6730  1.0280  3.0041
  455MOL0     H61393   5.591   4.051   5.579 -0.9279  0.0524 -0.7025
  455MOL0     H61394   5.632   3.948   5.437  0.0315  0.2693 -1.1236
  455MOL0     H61395   5.768   4.183   5.544  0.0137 -1.9289  0.8667
  455MOL0     H61396   5.747   4.175   5.369 -2.6707  2.1009  1.3027
  455MOL0     H61397   5.875   3.957   5.550  1.2795 -1.1370 -1.2633
  455MOL0     H61398   5.966   4.069   5.475 -0.1269 -0.8466  2.1248
  455MOL0     H61399   5.918   3.823   5.357 -0.2209 -0.5317 -1.3683
  455MOL0     H61400   5.806   3.923   5.269 -0.0428  1.0140  0.2336
  455MOL0     H61401   6.034   3.915   5.163  3.2886 -0.1562  0.7075
  455MOL0     H61402   6.107   3.987   5.306  0.5457  0.2993 -1.3370
  455MOL0     H61403   5.867   4.142   5.169 -0.1705  1.2054 -0.4211
  455MOL0     H61404   6.002   4.192   5.281  0.2795 -0.1928  0.9438
  455MOL0     H61405   5.148   4.160   5.612 -1.8371  0.0124  1.1583
  455MOL0     H61406   4.923   4.245   5.665  0.9578  1.7223  0.7000
  455MOL0     H61407   4.603   4.477   5.614  1.4560  1.4287 -2.2503
  455MOL0     H61408   4.377   4.503   5.732 -0.3478 -1.9661  0.9908
  455MOL0     H61409   3.029   5.496   5.829 -3.6469  0.1960  0.5551
  455MOL0     H61410   2.885   5.639   5.679 -2.0651  1.0634  3.1859
  455MOL0     H61411   2.905   5.953   5.357 -0.0125  0.0610 -1.9402
  455MOL0     H61412   2.814   6.103   5.190  1.9114  2.0948  0.1752
  455MOL0     H61413   2.478   6.082   5.113 -0.9431 -0.1332 -1.4305
  455MOL0     H61414   2.620   6.139   5.020  0.8593 -0.2329  1.4044
  455MOL0     H61415   2.367   6.304   5.079  0.0156 -0.4958  0.1194
  455MOL0     H61416   2.378   6.208   4.930  0.0885  1.9693 -1.5399
  455MOL0     H61417   2.543   6.449   5.020 -1.6444 -1.4038  2.5308
  455MOL0     H61418   2.418   6.436   4.898  0.1023 -1.3624 -2.0649
  455MOL0     H61419   2.699   6.298   4.910 -0.6287  0.1308 -0.1433
  455MOL0     H61420   2.575   6.266   4.783  1.4524  0.9836 -1.9206
  455MOL0     H61421   2.747   6.603   4.610 -4.3739  2.2791  0.1428
  455MOL0     H61422   2.484   6.199   5.414 -0.1138  0.1243  0.2503
  455MOL0     H61423   2.578   6.109   5.707  0.5106 -0.6916 -0.3366
  455MOL0     H61424   2.438   6.125   5.603 -0.5800 -0.6918 -1.8476
  455MOL0     H61425   2.495   5.960   5.660 -1.2904 -0.5019 -1.0003
  456MOL0     O61426   1.338   4.628   5.278 -0.2645 -0.4116  0.2029
  456MOL0     C61427   1.340   4.519   5.334 -0.0635  0.2680  0.3691
  456MOL0     O61428   1.230   4.437   5.355  0.7251 -0.0281 -0.1509
  456MOL0     C61429   1.099   4.463   5.301  0.5405  0.9185  0.3992
  456MOL0     C61430   1.033   4.369   5.227  0.4273  0.4343  0.8015
  456MOL0     C61431   0.911   4.402   5.172 -0.2545  0.7646 -0.7296
  456MOL0     C61432   0.841   4.524   5.194 -0.6366  0.3084  0.1108
  456MOL0     O61433   0.712   4.533   5.136 -0.1575  0.6099  1.3993
  456MOL0     C61434   0.641   4.650   5.172  0.5137 -0.5327  0.0655
  456MOL0     C61435   0.522   4.667   5.076 -0.1847 -0.4847  0.5861
  456MOL0     C61436   0.483   4.814   5.059 -1.1624  0.3151 -0.5141
  456MOL0     C61437   0.339   4.837   5.021  0.1247 -0.4201  0.8007
  456MOL0     C61438   0.306   4.985   5.045  0.3591  0.2349  0.0241
  456MOL0     C61439   0.170   5.025   4.993 -0.0677  0.1968  0.2765
  456MOL0     C61440   0.137   5.174   5.026 -0.3770 -0.1078 -1.0770
  456MOL0     C61441  -0.003   5.212   5.020  0.8118 -0.9802  0.0706
  456MOL0     N61442  -0.071   5.158   5.140  0.3930  0.2881 -0.5194
  456MOL0     C61443  -0.144   5.044   5.147  0.0399 -0.4688 -0.0499
  456MOL0     C61444  -0.137   5.012   5.283  0.6632  0.4551 -0.3828
  456MOL0     C61445  -0.181   4.887   5.350 -0.0994 -0.9358  0.1083
  456MOL0     C61446  -0.074   4.812   5.423  0.1644  0.0503  0.2221
  456MOL0     C61447  -0.087   4.658   5.420  0.6001  0.0628 -0.2792
  456MOL0     C61448   0.045   4.600   5.477  0.5122  0.1793 -0.2963
  456MOL0     O61449   0.051   4.603   5.621  0.1643 -0.6813  0.2308
  456MOL0     C61450   0.180   4.573   5.657  0.4688  0.2572  0.1441
  456MOL0     C61451   0.277   4.673   5.643  0.0264  0.2753  0.5638
  456MOL0     C61452   0.408   4.645   5.686 -0.6214  0.7913  0.1639
  456MOL0     C61453   0.442   4.523   5.735  0.7496  0.1808  0.7031
  456MOL0     C61454   0.580   4.477   5.762  0.3043  0.2886 -1.4847
  456MOL0     O61455   0.681   4.555   5.714  0.1067  0.3125  0.1255
  456MOL0     C61456   0.806   4.506   5.734  0.8536 -0.5413  0.9161
  456MOL0     C61457   0.892   4.487   5.625 -0.0553  0.5714 -0.6503
  456MOL0     C61458   1.025   4.455   5.647  0.1977  0.4530 -0.4664
  456MOL0     C61459   1.073   4.422   5.774 -0.4950 -0.4457  0.2256
  456MOL0     O61460   1.197   4.385   5.804 -0.0151 -0.0889  0.5283
  456MOL0     C61461   1.295   4.371   5.697  0.2660  0.3525  0.1081
  456MOL0     C61462   1.420   4.309   5.748  0.3971  0.2574  0.0568
  456MOL0     C61463   1.398   4.166   5.788  0.4775  0.4812 -0.3965
  456MOL0     C61464   1.535   4.100   5.814 -0.3493  0.0154  1.4357
  456MOL0     C61465   1.553   4.022   5.953 -0.6805  1.0686  1.0205
  456MOL0     C61466   1.673   3.933   5.967 -0.2792 -0.1246 -0.0910
  456MOL0     C61467   1.804   4.010   5.983  0.2692 -0.8336 -0.1611
  456MOL0     C61468   1.920   3.934   5.925 -0.5100  0.3453 -0.6812
  456MOL0    Cl61469   1.931   3.792   6.031 -0.2511 -0.0393  0.1988
  456MOL0     C61470   0.987   4.439   5.883 -0.0156  1.0997  0.5368
  456MOL0     C61471   0.854   4.485   5.864  0.5050  0.3325  0.2754
  456MOL0     O61472   0.594   4.363   5.821 -0.0171  0.6245  0.5096
  456MOL0     C61473   0.340   4.426   5.769 -0.3445 -0.6530  0.2366
  456MOL0     C61474   0.208   4.451   5.721 -1.1897 -0.6894 -0.7072
  456MOL0     N61475  -0.086   5.122   5.352 -0.3917 -0.1984  0.7832
  456MOL0     N61476  -0.045   5.208   5.262  0.2302  0.7145 -0.2025
  456MOL0     C61477   0.908   4.617   5.277 -0.3968  0.3964 -0.7203
  456MOL0     C61478   1.035   4.580   5.329 -0.0785  0.9681 -0.0042
  456MOL0     C61479   1.479   4.455   5.366  0.1336 -1.0837 -0.1230
  456MOL0     C61480   1.477   4.305   5.378  0.4951  0.1438 -0.4386
  456MOL0     C61481   1.594   4.224   5.404 -0.0255 -0.3550 -0.2130
  456MOL0     C61482   1.713   4.301   5.443  0.3959 -0.0638  0.0854
  456MOL0     O61483   1.839   4.232   5.461 -0.2061  0.0317  0.1180
  456MOL0     C61484   1.846   4.095   5.424  0.1079  0.2649  0.0795
  456MOL0     C61485   1.989   4.051   5.413 -0.4372  0.7528 -0.2033
  456MOL0     C61486   2.062   4.026   5.552  0.4347  0.2268 -1.0180
  456MOL0     C61487   2.196   3.950   5.525  0.7321 -0.0806 -0.4854
  456MOL0     C61488   2.256   3.897   5.647 -0.5675 -0.8170  0.3035
  456MOL0     C61489   2.317   3.838   5.733 -0.5140 -0.2642  0.2486
  456MOL0     C61490   1.714   4.440   5.436 -0.7305 -0.3646 -0.0577
  456MOL0     C61491   1.604   4.514   5.391  0.7927  0.8104 -0.1505
  456MOL0     C61492   1.625   4.662   5.398 -0.2226 -0.7157  0.2300
  456MOL0     H61493   1.090   4.278   5.208  0.3348  0.3443  0.9525
  456MOL0     H61494   0.863   4.334   5.103  1.8543  1.0049 -2.5576
  456MOL0     H61495   0.598   4.642   5.272  0.2742  1.3637  0.1543
  456MOL0     H61496   0.709   4.735   5.163 -0.0156  0.3789  3.3530
  456MOL0     H61497   0.443   4.617   5.132  0.2188  0.9717  2.5652
  456MOL0     H61498   0.547   4.624   4.978 -0.3320 -0.4388  0.5289
  456MOL0     H61499   0.558   4.860   4.995 -2.5546  2.1768 -0.8919
  456MOL0     H61500   0.494   4.861   5.157 -4.1134  0.8329 -0.3416
  456MOL0     H61501   0.335   4.826   4.912  1.5611 -0.0083  0.6865
  456MOL0     H61502   0.270   4.769   5.072 -0.7644 -1.7577 -1.9983
  456MOL0     H61503   0.315   5.023   5.147  0.3754  2.1047 -0.6396
  456MOL0     H61504   0.377   5.039   4.982  2.1189  1.4429  2.8375
  456MOL0     H61505   0.151   5.010   4.886 -1.2029 -1.7862  0.7213
  456MOL0     H61506   0.097   4.953   5.029  0.8375 -0.1883  1.4014
  456MOL0     H61507   0.198   5.239   4.962  1.3115 -0.5827 -0.0128
  456MOL0     H61508   0.176   5.205   5.123  1.1429  3.7768 -2.7214
  456MOL0     H61509  -0.012   5.320   5.005  0.5156 -1.3267 -2.6950
  456MOL0     H61510  -0.047   5.175   4.927  0.4887 -0.2671 -0.0620
  456MOL0     H61511  -0.186   4.980   5.069 -2.7534 -1.6869  2.2715
  456MOL0     H61512  -0.260   4.922   5.416  0.1759  1.1815 -0.5987
  456MOL0     H61513  -0.220   4.823   5.270 -1.4189 -1.3618  1.0609
  456MOL0     H61514   0.023   4.855   5.395 -0.9095  0.7134 -2.9150
  456MOL0     H61515  -0.094   4.841   5.526  2.2332 -1.5503  1.1523
  456MOL0     H61516  -0.116   4.623   5.321 -1.0443  2.9860 -0.9594
  456MOL0     H61517  -0.166   4.636   5.493  0.7396  2.2787  0.6122
  456MOL0     H61518   0.123   4.665   5.438 -1.4640  1.1497 -2.9150
  456MOL0     H61519   0.065   4.501   5.436 -0.5271 -0.4940  0.7280
  456MOL0     H61520   0.255   4.774   5.612  3.3593  0.3321 -2.3146
  456MOL0     H61521   0.488   4.716   5.668 -0.7280  0.7448 -0.5391
  456MOL0     H61522   0.846   4.509   5.529 -1.1163 -0.6334 -0.4543
  456MOL0     H61523   1.091   4.440   5.562  2.1637  0.3882  1.0101
  456MOL0     H61524   1.255   4.311   5.615  1.1050  0.5950 -0.4970
  456MOL0     H61525   1.304   4.472   5.655 -3.4064  0.6807 -0.2440
  456MOL0     H61526   1.498   4.309   5.671 -2.5759 -1.8864 -3.2662
  456MOL0     H61527   1.453   4.371   5.832  1.6063 -1.1263  0.6450
  456MOL0     H61528   1.356   4.162   5.889 -0.3600 -0.8068 -0.7778
  456MOL0     H61529   1.337   4.108   5.719 -0.1725  1.9774 -1.1276
  456MOL0     H61530   1.613   4.174   5.797 -0.1122 -0.5659 -0.1126
  456MOL0     H61531   1.557   4.032   5.732  0.0997  0.8002  0.9022
  456MOL0     H61532   1.466   3.960   5.976  0.8709 -0.3838  3.3926
  456MOL0     H61533   1.548   4.093   6.036 -0.9588  0.0336  1.9125
  456MOL0     H61534   1.654   3.865   6.051 -0.4690  1.6566  1.3637
  456MOL0     H61535   1.688   3.875   5.875  0.8979 -1.0111  0.6223
  456MOL0     H61536   1.815   4.033   6.090  3.7501 -0.9373 -0.3722
  456MOL0     H61537   1.783   4.100   5.924  2.0163 -0.0041  0.3867
  456MOL0     H61538   1.893   3.905   5.822 -0.0466  0.4502 -0.8351
  456MOL0     H61539   2.015   3.987   5.930  1.1172 -2.4145 -0.0659
  456MOL0     H61540   1.023   4.405   5.980  1.0223  1.1926  0.2001
  456MOL0     H61541   0.801   4.499   5.958  2.6118 -2.1701  1.9615
  456MOL0     H61542   0.356   4.330   5.818  1.1284 -0.6624 -0.2094
  456MOL0     H61543   0.130   4.376   5.734 -0.3532 -1.2644  1.4953
  456MOL0     H61544   0.873   4.718   5.295 -0.3457  0.0465  1.6764
  456MOL0     H61545   1.089   4.646   5.396  1.7974  2.4867 -2.7801
  456MOL0     H61546   1.380   4.259   5.360  1.3206 -1.5644 -0.7272
  456MOL0     H61547   1.577   4.117   5.405 -4.0479 -0.0232 -3.8036
  456MOL0     H61548   1.809   4.094   5.321 -0.3114 -1.9181  0.2109
  456MOL0     H61549   1.794   4.036   5.499 -0.6550 -0.6809 -1.1459
  456MOL0     H61550   2.059   4.116   5.360  1.4024  0.3220  1.5913
  456MOL0     H61551   1.986   3.956   5.359  1.0083  0.0739  0.8401
  456MOL0     H61552   1.994   3.963   5.610 -1.1825  2.6005 -0.1497
  456MOL0     H61553   2.084   4.123   5.598  0.6250 -0.6566  0.8409
  456MOL0     H61554   2.180   3.860   5.465 -0.3040  0.3127 -0.8130
  456MOL0     H61555   2.264   4.012   5.465  2.5426  1.9166  3.2559
  456MOL0     H61556   2.380   3.791   5.806  0.9482 -2.6107 -2.3228
  456MOL0     H61557   1.810   4.483   5.465 -0.6168 -0.6993  0.0666
  456MOL0     H61558   1.535   4.717   5.429  0.9875  1.3017  0.3127
  456MOL0     H61559   1.693   4.683   5.480 -2.0899  3.4877  0.9579
  456MOL0     H61560   1.652   4.708   5.302  0.7780 -0.0341  0.8348
  457MOL0     O61561   6.284   7.198  10.647  1.1423  0.3307 -0.1548
  457MOL0     C61562   6.330   7.109  10.710 -0.7226  0.2137  0.0739
  457MOL0     O61563   6.277   6.981  10.726 -0.5910  0.3043 -0.7985
  457MOL0     C61564   6.164   6.961  10.653  1.2379  0.3683 -0.4385
  457MOL0     C61565   6.032   6.963  10.711  1.2309 -0.2822 -0.2168
  457MOL0     C61566   5.917   6.910  10.650 -0.4757 -0.4442 -0.0835
  457MOL0     C61567   5.932   6.836  10.527 -0.0952  0.2162 -0.0731
  457MOL0     O61568   5.823   6.800  10.465 -0.1579  0.3716 -0.0418
  457MOL0     C61569   5.798   6.657  10.468  0.7200 -1.3706  0.4833
  457MOL0     C61570   5.674   6.625  10.543  0.3882 -0.5461 -0.3082
  457MOL0     C61571   5.669   6.622  10.704  0.4265 -0.2626  1.1375
  457MOL0     C61572   5.781   6.547  10.766 -0.8134 -0.4386  1.7469
  457MOL0     C61573   5.741   6.410  10.799  0.1612  0.6389 -1.4289
  457MOL0     C61574   5.855   6.324  10.845 -0.2843 -0.4702 -0.1286
  457MOL0     C61575   5.955   6.389  10.933  0.0089  0.2984 -0.1352
  457MOL0     C61576   6.035   6.280  11.008  0.0614  0.2303  1.0473
  457MOL0     N61577   6.152   6.324  11.087  0.4683 -0.1164  0.3743
  457MOL0     C61578   6.264   6.393  11.035  0.0859 -0.0429 -0.5215
  457MOL0     C61579   6.361   6.386  11.139 -0.0601 -0.4240  0.7228
  457MOL0     C61580   6.489   6.464  11.144  0.3720 -0.5172 -0.1178
  457MOL0     C61581   6.473   6.603  11.230 -0.1016  0.9989  0.0453
  457MOL0     C61582   6.501   6.577  11.377 -0.2395 -0.2308  0.3165
  457MOL0     C61583   6.521   6.703  11.467  0.3061  0.2806  0.2229
  457MOL0     O61584   6.567   6.652  11.593 -0.1574 -0.2589 -1.0061
  457MOL0     C61585   6.497   6.660  11.708  0.7412 -0.1645  0.4708
  457MOL0     C61586   6.360   6.628  11.709 -0.7954  0.3511  0.0682
  457MOL0     C61587   6.282   6.649  11.817 -0.4940  0.4854 -0.5069
  457MOL0     C61588   6.341   6.715  11.937  0.0254 -0.7300  0.2381
  457MOL0     C61589   6.257   6.743  12.066  0.5093  0.5354  0.1319
  457MOL0     O61590   6.333   6.769  12.180 -0.1634 -0.2184 -0.0182
  457MOL0     C61591   6.264   6.759  12.292 -0.3001 -0.2989 -0.2780
  457MOL0     C61592   6.201   6.639  12.339 -0.7937 -0.4479  0.3708
  457MOL0     C61593   6.122   6.648  12.455 -0.0362  0.0456 -0.4177
  457MOL0     C61594   6.119   6.757  12.538  0.1138 -0.6273 -0.2760
  457MOL0     O61595   6.044   6.779  12.654 -0.4491  0.0926 -0.1053
  457MOL0     C61596   6.030   6.657  12.731 -0.1831 -0.0208  0.7489
  457MOL0     C61597   5.939   6.679  12.847 -0.3733 -0.5508 -0.7375
  457MOL0     C61598   5.797   6.692  12.804 -0.3928  0.4063  0.0328
  457MOL0     C61599   5.696   6.723  12.920 -0.4146  0.2338 -0.7599
  457MOL0     C61600   5.560   6.693  12.857 -0.6515 -0.5451 -0.8702
  457MOL0     C61601   5.466   6.790  12.929  0.3736 -0.5645 -0.3743
  457MOL0     C61602   5.320   6.798  12.886 -0.5191 -0.4640 -0.3733
  457MOL0     C61603   5.251   6.658  12.875 -0.7176 -0.2111  0.6515
  457MOL0    Cl61604   5.207   6.616  13.037 -0.2492 -0.3476  0.0013
  457MOL0     C61605   6.199   6.868  12.506 -0.4327 -0.0312  1.0010
  457MOL0     C61606   6.275   6.865  12.386  0.0331 -1.4364 -0.6926
  457MOL0     O61607   6.133   6.745  12.053 -0.1054  0.5775  0.3676
  457MOL0     C61608   6.483   6.734  11.937 -0.1324  0.1476  0.2801
  457MOL0     C61609   6.559   6.703  11.825  0.1100  0.4892 -0.1452
  457MOL0     N61610   6.290   6.329  11.254  0.1585  0.4240  0.5748
  457MOL0     N61611   6.179   6.285  11.213  0.4865 -0.1399 -0.9472
  457MOL0     C61612   6.061   6.829  10.467 -0.3067 -0.0228  1.0746
  457MOL0     C61613   6.173   6.903  10.527 -0.1452  0.7567 -0.3032
  457MOL0     C61614   6.473   7.136  10.767 -0.5147 -0.6064 -0.2765
  457MOL0     C61615   6.533   7.265  10.767  1.2257  0.4544  1.0144
  457MOL0     C61616   6.660   7.287  10.828  0.4389  0.0654  0.4171
  457MOL0     C61617   6.741   7.192  10.880  0.6662  0.1721  0.0966
  457MOL0     O61618   6.861   7.210  10.936 -0.1725  0.1122 -0.3320
  457MOL0     C61619   6.923   7.335  10.920 -0.3688 -0.5076 -0.1772
  457MOL0     C61620   7.059   7.325  10.998 -0.6107 -0.5178 -0.9123
  457MOL0     C61621   7.172   7.233  10.932  0.2493 -0.2801 -0.3128
  457MOL0     C61622   7.193   7.253  10.782  0.6661  0.0976  0.5605
  457MOL0     C61623   7.242   7.390  10.727  0.3453  0.2640 -1.2003
  457MOL0     C61624   7.276   7.498  10.680  1.4199  0.5396  0.2984
  457MOL0     C61625   6.679   7.065  10.878 -1.1719  0.1369 -0.0626
  457MOL0     C61626   6.555   7.035  10.817 -0.0493  0.3395 -0.0987
  457MOL0     C61627   6.531   6.883  10.824  0.7557  0.3095  0.5693
  457MOL0     H61628   6.028   7.006  10.811 -0.7253  3.2777 -1.6729
  457MOL0     H61629   5.818   6.924  10.691 -1.5984 -1.4118 -2.2768
  457MOL0     H61630   5.764   6.630  10.368  1.8183 -2.1307  0.2960
  457MOL0     H61631   5.887   6.597  10.490  2.4715  1.2177  0.9589
  457MOL0     H61632   5.624   6.534  10.509  3.3285 -3.2083  1.8749
  457MOL0     H61633   5.601   6.705  10.527  0.3216 -0.5804 -0.1731
  457MOL0     H61634   5.576   6.573  10.733  0.0396 -1.3470 -1.6451
  457MOL0     H61635   5.660   6.727  10.734  1.2354 -0.3486  1.7118
  457MOL0     H61636   5.867   6.544  10.698 -1.3315 -3.2978  1.1222
  457MOL0     H61637   5.817   6.601  10.854  3.0995  2.1790 -1.1042
  457MOL0     H61638   5.661   6.400  10.874  1.3611  0.8846 -0.0706
  457MOL0     H61639   5.708   6.360  10.708  1.1887 -0.5326 -1.1707
  457MOL0     H61640   5.815   6.238  10.898 -1.3867 -2.4380 -3.8182
  457MOL0     H61641   5.916   6.294  10.759 -0.2768  3.0105 -1.4887
  457MOL0     H61642   5.897   6.440  11.011 -3.0035 -1.6824 -0.8988
  457MOL0     H61643   6.020   6.448  10.868 -0.1693 -2.4963 -3.0775
  457MOL0     H61644   5.968   6.218  11.068  1.8476 -1.5027  1.3613
  457MOL0     H61645   6.063   6.207  10.931 -0.9609  1.2544 -0.3442
  457MOL0     H61646   6.262   6.444  10.939 -0.1680 -0.4452 -0.7305
  457MOL0     H61647   6.559   6.394  11.191  0.4550  1.4790  2.9677
  457MOL0     H61648   6.514   6.490  11.041 -0.8160  0.3300 -0.2070
  457MOL0     H61649   6.544   6.676  11.189  1.5713  0.0102  1.0734
  457MOL0     H61650   6.369   6.637  11.222  0.6453  3.1896 -1.1749
  457MOL0     H61651   6.598   6.526  11.379  0.0071  0.2103  2.6529
  457MOL0     H61652   6.421   6.522  11.426 -2.6803  2.9213  0.1893
  457MOL0     H61653   6.440   6.776  11.474 -0.8620 -1.1354  2.7167
  457MOL0     H61654   6.592   6.769  11.416 -2.4106  2.3909 -1.0605
  457MOL0     H61655   6.321   6.582  11.619  2.5059 -1.5804 -0.5328
  457MOL0     H61656   6.175   6.630  11.817 -0.3661 -0.3319  0.5690
  457MOL0     H61657   6.194   6.550  12.276 -3.0071  0.7714 -1.2407
  457MOL0     H61658   6.052   6.569  12.481  0.9817 -1.3584 -1.6961
  457MOL0     H61659   5.979   6.581  12.671  2.9231 -0.1853 -1.9810
  457MOL0     H61660   6.123   6.614  12.769 -0.9553 -1.7837  0.7517
  457MOL0     H61661   5.949   6.592  12.911  2.0551  2.1800  2.9884
  457MOL0     H61662   5.965   6.779  12.884 -0.2851 -0.6164 -0.6229
  457MOL0     H61663   5.799   6.769  12.727  2.3411 -0.3579 -0.7799
  457MOL0     H61664   5.767   6.594  12.765 -0.6993 -0.9672  3.3530
  457MOL0     H61665   5.716   6.824  12.957 -2.4880 -0.6157  3.0962
  457MOL0     H61666   5.701   6.655  13.005 -5.8399  1.0209  0.5254
  457MOL0     H61667   5.529   6.588  12.864 -1.7480 -0.1535  1.2543
  457MOL0     H61668   5.562   6.731  12.755  2.9708 -0.0092 -0.7137
  457MOL0     H61669   5.463   6.768  13.037  1.5337 -1.3683 -0.4848
  457MOL0     H61670   5.506   6.892  12.929  0.1374 -0.4593  0.5922
  457MOL0     H61671   5.324   6.842  12.785  0.7992 -2.4503 -1.2427
  457MOL0     H61672   5.261   6.865  12.948 -1.7170 -1.8882  0.0704
  457MOL0     H61673   5.166   6.666  12.807  1.5252  1.2034 -2.1897
  457MOL0     H61674   5.315   6.579  12.836 -0.0684  0.6488 -0.0551
  457MOL0     H61675   6.207   6.961  12.563  1.7447  1.3583 -1.3394
  457MOL0     H61676   6.340   6.949  12.362 -0.5281 -0.8502 -0.2115
  457MOL0     H61677   6.529   6.773  12.027 -1.3953  0.2261  0.9067
  457MOL0     H61678   6.665   6.723  11.831  0.0241  0.6960  0.8455
  457MOL0     H61679   6.063   6.775  10.373 -2.4812 -1.2131  1.6408
  457MOL0     H61680   6.272   6.909  10.483  0.4795 -0.8014  0.8372
  457MOL0     H61681   6.487   7.353  10.723  0.7354 -0.6547 -0.7974
  457MOL0     H61682   6.694   7.389  10.817 -1.0661  0.5845  0.2862
  457MOL0     H61683   6.876   7.424  10.963  1.7255 -0.9132  3.3857
  457MOL0     H61684   6.932   7.356  10.813  0.3060  2.4553  0.3474
  457MOL0     H61685   7.043   7.290  11.100  1.1495  3.7566  1.0705
  457MOL0     H61686   7.093   7.428  11.006 -0.9403 -0.5138  0.8092
  457MOL0     H61687   7.160   7.128  10.961  3.7875  0.1708  3.8699
  457MOL0     H61688   7.265   7.254  10.986 -0.6542 -0.3355  1.3520
  457MOL0     H61689   7.273   7.182  10.760  1.4047  0.7491  1.0630
  457MOL0     H61690   7.102   7.236  10.724  1.2222  4.2816 -1.9639
  457MOL0     H61691   7.308   7.584  10.624  0.9309  0.7889  0.4004
  457MOL0     H61692   6.731   6.986  10.931 -1.2373  0.1245 -0.0179
  457MOL0     H61693   6.458   6.848  10.751 -1.1386  1.9844  1.5425
  457MOL0     H61694   6.624   6.829  10.802  1.4090 -0.8328  5.1276
  457MOL0     H61695   6.490   6.851  10.920  2.4492 -0.8762  0.9268
  458MOL0     O61696   8.822   3.022   9.739 -1.0089 -0.4485 -0.3422
  458MOL0     C61697   8.875   3.098   9.822  0.5706 -0.3945  0.1843
  458MOL0     O61698   8.966   3.204   9.789 -0.0786 -0.8688  0.2220
  458MOL0     C61699   9.003   3.233   9.657 -1.0804  0.5444 -0.2183
  458MOL0     C61700   9.139   3.271   9.642 -0.7084  0.2217  0.4807
  458MOL0     C61701   9.196   3.314   9.520  0.3339  0.5378 -0.4708
  458MOL0     C61702   9.111   3.315   9.404  0.2964  0.0266  0.7654
  458MOL0     O61703   9.161   3.360   9.288  0.1288  0.0788  0.3651
  458MOL0     C61704   9.080   3.397   9.168  0.3165  0.3284  0.0268
  458MOL0     C61705   9.045   3.277   9.080 -0.4237  0.4827  0.1594
  458MOL0     C61706   9.148   3.229   8.974  0.2931 -0.3185  0.0707
  458MOL0     C61707   9.156   3.330   8.858 -0.8552 -0.3270  0.1009
  458MOL0     C61708   9.254   3.291   8.751  0.2489 -0.9077  0.2339
  458MOL0     C61709   9.220   3.159   8.688 -0.0603 -0.3107  0.9934
  458MOL0     C61710   9.074   3.153   8.631  0.4235  0.2868 -0.2296
  458MOL0     C61711   9.056   3.019   8.553 -0.3546 -0.5956  1.0431
  458MOL0     N61712   9.152   3.013   8.437 -0.1146 -0.7442 -0.0009
  458MOL0     C61713   9.269   2.942   8.419 -0.0362  0.7780  0.3602
  458MOL0     C61714   9.314   2.992   8.295  0.0001 -0.1936 -0.0684
  458MOL0     C61715   9.444   2.956   8.231 -0.0614  0.2199  0.1268
  458MOL0     C61716   9.463   2.807   8.233 -0.6163 -0.3886 -0.1808
  458MOL0     C61717   9.367   2.738   8.143  0.0118  0.3715 -0.1442
  458MOL0     C61718   9.389   2.592   8.183 -0.0430  0.0135  0.8048
  458MOL0     O61719   9.518   2.533   8.167 -0.2110 -0.3242  0.3175
  458MOL0     C61720   9.537   2.421   8.241 -0.2854 -0.1264 -0.1531
  458MOL0     C61721   9.532   2.292   8.175 -0.4555 -0.6180  0.2947
  458MOL0     C61722   9.558   2.174   8.246 -0.9287 -1.0427  0.5906
  458MOL0     C61723   9.579   2.184   8.383 -0.6910 -0.1576  0.0008
  458MOL0     C61724   9.595   2.059   8.465 -0.1904 -0.0663 -0.0876
  458MOL0     O61725   9.661   1.953   8.411  0.0833  0.5256  0.3297
  458MOL0     C61726   9.646   1.824   8.462  0.1072  0.2826 -0.3499
  458MOL0     C61727   9.539   1.776   8.533  1.0154  0.9301 -0.8879
  458MOL0     C61728   9.528   1.643   8.578 -0.3468  0.2327  0.0998
  458MOL0     C61729   9.627   1.551   8.542 -0.9882 -0.5720 -0.4864
  458MOL0     O61730   9.630   1.424   8.595 -0.1648  0.0151  0.7756
  458MOL0     C61731   9.520   1.354   8.656 -0.2955 -0.4968  0.4485
  458MOL0     C61732   9.565   1.212   8.706 -0.2711  0.2345 -0.1698
  458MOL0     C61733   9.693   1.155   8.644  0.3194  0.8695  0.3625
  458MOL0     C61734   9.682   1.127   8.496  0.3043  0.0008  0.0168
  458MOL0     C61735   9.819   1.095   8.432  0.7024 -1.0552  0.0432
  458MOL0     C61736   9.806   1.023   8.306 -0.4682  0.0459  0.5212
  458MOL0     C61737   9.934   0.940   8.252 -0.1726 -0.5657 -0.5700
  458MOL0     C61738   9.941   0.807   8.328  0.2825 -0.7620 -0.6845
  458MOL0    Cl61739  10.099   0.746   8.281  0.3816 -0.3847  0.4116
  458MOL0     C61740   9.746   1.596   8.480 -0.6454 -0.6193 -0.6596
  458MOL0     C61741   9.753   1.734   8.449 -0.7979 -0.3412  0.2411
  458MOL0     O61742   9.548   2.069   8.575 -0.0162  0.4055  0.0418
  458MOL0     C61743   9.576   2.305   8.445  0.2844 -0.5419 -0.1649
  458MOL0     C61744   9.562   2.425   8.376 -0.1699 -0.7314  0.5660
  458MOL0     N61745   9.222   3.075   8.237 -0.1712  0.2722 -0.4679
  458MOL0     N61746   9.133   3.089   8.324 -0.2630  0.3912 -0.0256
  458MOL0     C61747   8.979   3.258   9.419  1.4161  0.7286 -0.0867
  458MOL0     C61748   8.930   3.211   9.538  0.5719 -0.4496 -0.2126
  458MOL0     C61749   8.831   3.094   9.964  0.1430  0.1468 -0.5606
  458MOL0     C61750   8.922   3.145  10.061  0.0269 -0.1423 -0.2037
  458MOL0     C61751   8.895   3.151  10.198  0.1078 -0.1280 -0.4530
  458MOL0     C61752   8.779   3.092  10.242  0.1449  0.6545 -0.2765
  458MOL0     O61753   8.790   3.075  10.376 -0.3548  0.4645 -0.0887
  458MOL0     C61754   8.680   3.050  10.463 -0.4839  0.0800 -0.7115
  458MOL0     C61755   8.658   2.898  10.508 -0.8010 -0.4184  0.7488
  458MOL0     C61756   8.707   2.782  10.420  0.0952  0.1297 -0.0712
  458MOL0     C61757   8.633   2.649  10.435  0.5058 -0.4607  0.2108
  458MOL0     C61758   8.695   2.545  10.345 -0.6836 -0.7739 -0.4793
  458MOL0     C61759   8.749   2.464  10.274 -0.2789 -0.2299  0.2193
  458MOL0     C61760   8.675   3.045  10.152 -0.3886 -0.7228  0.7741
  458MOL0     C61761   8.699   3.048  10.010  0.4681  0.4597 -0.1192
  458MOL0     C61762   8.588   3.004   9.920 -0.4175  0.4257  0.3634
  458MOL0     H61763   9.200   3.281   9.731 -0.9429 -0.0629  0.6729
  458MOL0     H61764   9.300   3.329   9.495  0.6716 -2.3032 -1.1098
  458MOL0     H61765   8.994   3.435   9.224  1.2284 -1.5439  2.8927
  458MOL0     H61766   9.116   3.483   9.112 -2.1548  0.2093 -1.9538
  458MOL0     H61767   8.958   3.310   9.023 -0.9619  0.7832  1.1278
  458MOL0     H61768   9.024   3.193   9.147 -0.8318  1.7318  1.6573
  458MOL0     H61769   9.096   3.140   8.939 -1.3173  1.4971 -2.5313
  458MOL0     H61770   9.247   3.207   9.014  1.2626  1.1503 -1.4192
  458MOL0     H61771   9.054   3.350   8.824 -0.9387 -0.1880  0.4356
  458MOL0     H61772   9.199   3.423   8.896  0.0966 -1.0789  0.9264
  458MOL0     H61773   9.245   3.370   8.676 -2.4704  0.6323  1.9931
  458MOL0     H61774   9.355   3.288   8.793  0.6337 -1.2481 -0.6932
  458MOL0     H61775   9.290   3.140   8.606  1.2812 -0.1146  2.0708
  458MOL0     H61776   9.227   3.078   8.762  1.9226 -1.3863 -0.2630
  458MOL0     H61777   9.055   3.234   8.560 -3.1141  0.4221  0.6756
  458MOL0     H61778   9.007   3.154   8.717 -2.5509 -1.4243 -2.3446
  458MOL0     H61779   9.075   2.931   8.615 -0.2028  0.5923  2.7533
  458MOL0     H61780   8.956   3.013   8.509 -0.1159  3.0393 -0.2731
  458MOL0     H61781   9.315   2.863   8.477 -0.7215 -1.7111 -2.2221
  458MOL0     H61782   9.447   2.997   8.130  0.1920 -1.0584 -0.3988
  458MOL0     H61783   9.524   3.002   8.290  0.2679 -1.6255  1.1873
  458MOL0     H61784   9.565   2.771   8.216 -0.8579 -2.0782  1.5817
  458MOL0     H61785   9.450   2.767   8.334 -0.4896  1.0778  0.4317
  458MOL0     H61786   9.384   2.758   8.036 -2.7442 -2.5797 -1.3009
  458MOL0     H61787   9.261   2.755   8.163  0.0467  0.5675 -0.1242
  458MOL0     H61788   9.331   2.520   8.125  2.4548 -2.2982  0.9948
  458MOL0     H61789   9.350   2.590   8.285 -1.6119  0.3861  0.2449
  458MOL0     H61790   9.506   2.301   8.070  0.6245  1.2726  0.1437
  458MOL0     H61791   9.556   2.080   8.192 -2.2609 -1.3079  1.0524
  458MOL0     H61792   9.456   1.845   8.544 -0.5624 -0.6330 -2.2182
  458MOL0     H61793   9.437   1.616   8.630 -0.2709  0.9763  0.6362
  458MOL0     H61794   9.468   1.399   8.741  2.5760  0.3413  1.8940
  458MOL0     H61795   9.444   1.332   8.580  0.5884  1.8876 -1.2368
  458MOL0     H61796   9.582   1.227   8.813 -0.3391 -1.0938  0.0389
  458MOL0     H61797   9.491   1.135   8.682 -0.8764  1.0909 -1.1430
  458MOL0     H61798   9.781   1.219   8.660  1.5738 -1.1909  2.3187
  458MOL0     H61799   9.720   1.067   8.702 -2.6491  0.1408  0.7561
  458MOL0     H61800   9.637   1.211   8.442 -1.4128  0.2363  1.7027
  458MOL0     H61801   9.615   1.042   8.485 -1.5887  1.5363 -0.9761
  458MOL0     H61802   9.882   1.037   8.501  0.6218  1.3897  2.3509
  458MOL0     H61803   9.875   1.187   8.410 -0.4412  0.5444  3.1058
  458MOL0     H61804   9.732   0.946   8.326  0.4563 -0.8230  0.6991
  458MOL0     H61805   9.772   1.097   8.233 -4.1904 -1.8681  0.0873
  458MOL0     H61806  10.023   1.003   8.251  1.7116 -3.0709 -1.5640
  458MOL0     H61807   9.916   0.924   8.145 -0.6191  0.5549 -0.6728
  458MOL0     H61808   9.956   0.837   8.432  4.4091  1.2222 -1.6378
  458MOL0     H61809   9.866   0.734   8.299 -0.0485  0.0822 -2.1132
  458MOL0     H61810   9.835   1.537   8.465  0.8028  1.6526 -1.5059
  458MOL0     H61811   9.850   1.769   8.416 -0.4872 -0.7608  0.6931
  458MOL0     H61812   9.599   2.307   8.551  0.3267 -0.9256 -0.1654
  458MOL0     H61813   9.566   2.523   8.422 -1.1244 -0.8672  0.9592
  458MOL0     H61814   8.917   3.268   9.330  0.3587  2.9874  0.8402
  458MOL0     H61815   8.829   3.173   9.549 -0.0612  0.5891 -2.0403
  458MOL0     H61816   9.013   3.192  10.022 -0.4401 -0.8113 -2.2461
  458MOL0     H61817   8.972   3.185  10.266 -1.8138  1.8620  0.8392
  458MOL0     H61818   8.580   3.067  10.422 -2.8950 -3.2045  2.9472
  458MOL0     H61819   8.686   3.111  10.554 -3.2993  0.9624 -1.0362
  458MOL0     H61820   8.559   2.878  10.551 -0.2218 -0.3800  2.1308
  458MOL0     H61821   8.723   2.888  10.595 -0.1818 -0.9508  0.2343
  458MOL0     H61822   8.806   2.761  10.460 -0.7351  0.5394  2.3626
  458MOL0     H61823   8.712   2.815  10.316  1.1335  1.9636  0.5128
  458MOL0     H61824   8.632   2.614  10.539  2.0102  3.2024  1.6178
  458MOL0     H61825   8.529   2.657  10.402  0.2201 -2.1979  0.5764
  458MOL0     H61826   8.801   2.390  10.216  1.1511  2.5466 -2.3008
  458MOL0     H61827   8.581   3.001  10.181 -2.1503 -0.7050 -4.0016
  458MOL0     H61828   8.554   3.088   9.858  1.8526 -0.4593 -2.2593
  458MOL0     H61829   8.626   2.922   9.859  1.7689  0.0320  2.1561
  458MOL0     H61830   8.506   2.966   9.982  0.7719 -0.3601  1.4896
  459MOL0     O61831   7.665   4.005   0.296  0.0917 -0.1701 -0.3557
  459MOL0     C61832   7.644   4.104   0.371 -0.2083 -0.0797  0.0746
  459MOL0     O61833   7.706   4.225   0.351  0.1965  0.3918 -0.9344
  459MOL0     C61834   7.799   4.248   0.253 -0.1327  0.2778  0.6583
  459MOL0     C61835   7.752   4.314   0.133  0.0011 -0.4505 -0.0837
  459MOL0     C61836   7.842   4.339   0.030  0.7173  0.5569 -0.1723
  459MOL0     C61837   7.977   4.318   0.054  0.1492  0.3615  0.4707
  459MOL0     O61838   8.067   4.349  -0.042  0.3821 -0.3949 -0.0946
  459MOL0     C61839   8.062   4.469  -0.122  0.1773  0.3108 -0.2620
  459MOL0     C61840   8.201   4.519  -0.157  0.0404  0.0629 -0.1476
  459MOL0     C61841   8.206   4.635  -0.260 -0.0308  0.2932 -0.7266
  459MOL0     C61842   8.355   4.672  -0.289  0.1950  0.2945 -0.1341
  459MOL0     C61843   8.379   4.754  -0.421 -0.2601 -0.0437 -0.5368
  459MOL0     C61844   8.515   4.826  -0.423 -0.4821  0.4654  0.4602
  459MOL0     C61845   8.530   4.870  -0.569  0.7390  0.9606 -0.2235
  459MOL0     C61846   8.662   4.944  -0.562 -0.2390 -0.4639  0.5854
  459MOL0     N61847   8.671   5.028  -0.689  0.2075  0.5080 -0.3028
  459MOL0     C61848   8.601   5.140  -0.720 -0.4950  0.0632 -0.4962
  459MOL0     C61849   8.671   5.204  -0.813 -0.1269  0.3965 -0.1740
  459MOL0     C61850   8.633   5.331  -0.878 -0.3433  0.4780 -0.4259
  459MOL0     C61851   8.604   5.451  -0.778 -0.2864 -0.2612  0.3105
  459MOL0     C61852   8.703   5.565  -0.790  0.0062  0.2629 -0.0250
  459MOL0     C61853   8.635   5.688  -0.706 -0.9515  0.6994 -0.2944
  459MOL0     O61854   8.671   5.689  -0.572 -0.5159  0.0574 -0.0081
  459MOL0     C61855   8.811   5.707  -0.549 -0.4178  0.4943 -0.9522
  459MOL0     C61856   8.860   5.687  -0.417 -0.6921  0.1199  0.2731
  459MOL0     C61857   8.993   5.682  -0.382 -0.3770 -0.6687 -0.4007
  459MOL0     C61858   9.092   5.728  -0.478 -0.4069  0.3037 -0.0786
  459MOL0     C61859   9.241   5.744  -0.438 -0.9240 -0.5406  0.1137
  459MOL0     O61860   9.274   5.720  -0.309  0.3918  0.1662 -0.0801
  459MOL0     C61861   9.398   5.768  -0.272  0.6727 -0.2733  1.1071
  459MOL0     C61862   9.391   5.899  -0.215 -0.2398 -0.1527  0.5644
  459MOL0     C61863   9.512   5.964  -0.197 -0.2944 -0.0597 -1.3720
  459MOL0     C61864   9.633   5.904  -0.225 -0.2138  0.7063  0.0983
  459MOL0     O61865   9.745   5.977  -0.203 -0.4786 -0.1323 -0.0591
  459MOL0     C61866   9.764   6.032  -0.073 -1.1369  0.4347  0.3454
  459MOL0     C61867   9.893   5.986  -0.018 -0.4362  0.0745 -0.0833
  459MOL0     C61868  10.012   6.054  -0.076  1.1338  0.1477  0.3359
  459MOL0     C61869  10.143   5.972  -0.070  0.6829 -0.5998  0.2656
  459MOL0     C61870  10.171   5.868  -0.178  0.8189  0.1082  0.1267
  459MOL0     C61871  10.048   5.793  -0.242  0.3568  0.1145 -1.0817
  459MOL0     C61872  10.107   5.692  -0.350 -0.0562 -0.4108  0.1659
  459MOL0     C61873   9.983   5.611  -0.401 -0.2759  0.3871 -0.5037
  459MOL0    Cl61874   9.900   5.524  -0.281 -0.2089  0.1534  0.3227
  459MOL0     C61875   9.638   5.775  -0.277  0.6158  0.9846 -0.0005
  459MOL0     C61876   9.519   5.698  -0.302 -0.3323 -0.4783  0.2937
  459MOL0     O61877   9.321   5.787  -0.526  0.2879  0.9563  0.7145
  459MOL0     C61878   9.048   5.770  -0.604 -1.2836 -0.1834  0.1082
  459MOL0     C61879   8.912   5.757  -0.633  0.9042  0.3339 -0.1145
  459MOL0     N61880   8.778   5.131  -0.850  0.9663  0.1545 -0.3300
  459MOL0     N61881   8.776   5.029  -0.773 -0.0158  0.4379  0.1116
  459MOL0     C61882   8.022   4.260   0.170 -1.0730  0.2384 -0.0352
  459MOL0     C61883   7.936   4.212   0.268 -0.8189  0.2700  0.7730
  459MOL0     C61884   7.551   4.090   0.485  0.1130  0.6370  0.4378
  459MOL0     C61885   7.478   4.201   0.507 -0.3408  0.8876  0.4339
  459MOL0     C61886   7.389   4.204   0.600 -0.4607 -0.5871 -0.3053
  459MOL0     C61887   7.364   4.092   0.684 -0.0946  0.2536 -0.2137
  459MOL0     O61888   7.270   4.109   0.782  0.2666 -0.4828  0.1267
  459MOL0     C61889   7.254   4.002   0.875 -0.4854  0.8361 -0.9782
  459MOL0     C61890   7.369   3.980   0.973 -0.0914  0.6341 -0.4083
  459MOL0     C61891   7.394   4.102   1.059 -0.1759 -0.1249  0.3376
  459MOL0     C61892   7.300   4.095   1.174  0.6382 -0.1856  0.0155
  459MOL0     C61893   7.326   4.188   1.280 -0.9356 -1.3346  0.3782
  459MOL0     C61894   7.347   4.283   1.355  0.0691 -0.1041  0.2322
  459MOL0     C61895   7.443   3.980   0.659  0.5994  0.5696  0.2483
  459MOL0     C61896   7.530   3.967   0.552 -0.5922 -0.1088  0.0366
  459MOL0     C61897   7.604   3.835   0.535  0.6315  0.1036  0.7239
  459MOL0     H61898   7.647   4.334   0.118 -0.1767 -1.3897 -0.1162
  459MOL0     H61899   7.801   4.364  -0.067  1.9635  1.7284 -0.4226
  459MOL0     H61900   8.020   4.442  -0.219  2.7336  0.8168 -1.6004
  459MOL0     H61901   7.999   4.550  -0.082 -4.6198 -1.9777 -2.3613
  459MOL0     H61902   8.256   4.435  -0.201  1.8919  1.3727 -0.4505
  459MOL0     H61903   8.238   4.551  -0.059  0.3493 -0.5283 -0.0699
  459MOL0     H61904   8.139   4.715  -0.228 -1.0163 -0.5036 -0.7537
  459MOL0     H61905   8.166   4.614  -0.359 -1.7841 -0.1364  0.0303
  459MOL0     H61906   8.411   4.724  -0.211 -0.0547 -3.1595  2.5961
  459MOL0     H61907   8.408   4.577  -0.303 -2.1281 -1.0312 -0.4493
  459MOL0     H61908   8.377   4.674  -0.496 -1.1832 -0.1011 -0.4699
  459MOL0     H61909   8.285   4.808  -0.432 -1.7021 -2.6826 -2.4968
  459MOL0     H61910   8.519   4.911  -0.354 -1.2743  0.3178  0.6978
  459MOL0     H61911   8.584   4.744  -0.402 -1.4335 -1.0439 -1.8477
  459MOL0     H61912   8.449   4.935  -0.602  2.8480  2.5418 -2.6316
  459MOL0     H61913   8.534   4.778  -0.628 -0.8176 -2.2850  4.2074
  459MOL0     H61914   8.668   4.998  -0.467  3.4866 -2.1696  1.4837
  459MOL0     H61915   8.745   4.873  -0.557  1.5582  1.6391  3.0036
  459MOL0     H61916   8.504   5.176  -0.685 -0.7093  0.8016 -1.7926
  459MOL0     H61917   8.705   5.365  -0.954 -1.4704  0.0995 -1.7075
  459MOL0     H61918   8.539   5.311  -0.930  1.2595 -4.7147 -1.9474
  459MOL0     H61919   8.507   5.499  -0.794  0.2394  0.3009 -1.2924
  459MOL0     H61920   8.592   5.418  -0.674  0.2407 -0.6641  0.2517
  459MOL0     H61921   8.710   5.600  -0.894  1.6382  1.9501  0.5984
  459MOL0     H61922   8.800   5.534  -0.751 -0.9549 -0.7804  1.6198
  459MOL0     H61923   8.527   5.683  -0.695 -0.7105 -0.9486  2.1446
  459MOL0     H61924   8.644   5.780  -0.764 -1.5432 -0.4130 -2.2399
  459MOL0     H61925   8.791   5.650  -0.343 -0.3158 -1.8522 -0.3151
  459MOL0     H61926   9.035   5.648  -0.288 -1.6790  2.1096  1.3502
  459MOL0     H61927   9.305   5.962  -0.196  1.4432  2.9918 -1.2766
  459MOL0     H61928   9.502   6.066  -0.162  0.6618 -0.1628 -0.7432
  459MOL0     H61929   9.774   6.140  -0.086 -2.8757  0.4955 -0.8383
  459MOL0     H61930   9.681   6.017  -0.004  0.4776 -0.1302  2.2751
  459MOL0     H61931   9.905   5.993   0.090  0.8880 -2.3340  0.0020
  459MOL0     H61932   9.909   5.879  -0.040 -1.9347 -0.4715  1.3311
  459MOL0     H61933   9.981   6.078  -0.178  1.2359 -1.0199  0.0160
  459MOL0     H61934  10.024   6.149  -0.023  0.0293  0.3705  0.2101
  459MOL0     H61935  10.129   5.921   0.025 -0.7887 -0.2682  0.2560
  459MOL0     H61936  10.224   6.045  -0.068  0.4119 -0.2942  2.5784
  459MOL0     H61937  10.245   5.800  -0.134 -0.0634 -0.5645  0.5929
  459MOL0     H61938  10.216   5.919  -0.264 -1.9558  0.4275 -1.2420
  459MOL0     H61939  10.010   5.736  -0.156  1.5865  0.6391 -0.1678
  459MOL0     H61940   9.979   5.869  -0.280 -0.9740 -0.8194 -0.6097
  459MOL0     H61941  10.181   5.626  -0.305  1.7589 -0.1964 -2.2955
  459MOL0     H61942  10.150   5.738  -0.440 -0.2118 -1.7104 -0.6121
  459MOL0     H61943   9.922   5.689  -0.447 -0.0714 -0.4699 -2.3351
  459MOL0     H61944  10.014   5.546  -0.483 -2.0408  1.8048 -2.3855
  459MOL0     H61945   9.737   5.732  -0.292 -0.1213 -0.4685 -0.8296
  459MOL0     H61946   9.514   5.595  -0.336 -0.4391 -0.5369  0.4830
  459MOL0     H61947   9.114   5.817  -0.676 -1.7782  2.4964  1.2692
  459MOL0     H61948   8.883   5.795  -0.730  2.0738  0.3582 -0.4749
  459MOL0     H61949   8.128   4.242   0.174 -1.2617 -3.2738 -3.7573
  459MOL0     H61950   7.980   4.166   0.356  2.1520 -1.0235 -1.1919
  459MOL0     H61951   7.493   4.272   0.426  2.4879  0.4123  0.4374
  459MOL0     H61952   7.322   4.289   0.613 -2.2302 -1.9083 -0.3466
  459MOL0     H61953   7.229   3.908   0.825  2.2320 -1.9611  2.3392
  459MOL0     H61954   7.167   4.017   0.940  0.6902 -0.8973  1.1465
  459MOL0     H61955   7.463   3.953   0.925 -0.4350  0.1227 -0.8178
  459MOL0     H61956   7.351   3.889   1.031  0.5482 -0.0242 -1.2105
  459MOL0     H61957   7.379   4.193   1.000  0.8932  0.8425  1.5160
  459MOL0     H61958   7.500   4.096   1.084  0.5424  0.8951 -2.1420
  459MOL0     H61959   7.199   4.122   1.141 -0.2740  1.2916  3.6127
  459MOL0     H61960   7.291   3.996   1.219 -1.2970 -0.0585 -0.0281
  459MOL0     H61961   7.377   4.363   1.420 -0.7399  1.6243 -1.3913
  459MOL0     H61962   7.425   3.884   0.706  0.5402  0.3514 -0.2112
  459MOL0     H61963   7.569   3.771   0.617  0.2875  0.9458  1.2539
  459MOL0     H61964   7.579   3.793   0.437  2.1911 -2.1168  1.1963
  459MOL0     H61965   7.713   3.841   0.524  0.6936  0.3226  1.4138
  460MOL0     O61966   2.707   4.983   3.137  0.7529 -0.2325  0.1083
  460MOL0     C61967   2.719   5.058   3.041 -0.5106 -0.0792 -0.1198
  460MOL0     O61968   2.821   5.059   2.955 -0.6004  0.7334  0.3464
  460MOL0     C61969   2.910   4.961   2.940  0.3299 -0.1693 -0.8638
  460MOL0     C61970   2.885   4.830   2.915 -0.2628  0.0579 -0.4327
  460MOL0     C61971   2.977   4.731   2.877 -0.4696 -0.0942 -0.2719
  460MOL0     C61972   3.113   4.771   2.868  0.0222 -1.5027  1.0036
  460MOL0     O61973   3.197   4.686   2.800 -0.9166  0.0526  0.1573
  460MOL0     C61974   3.338   4.678   2.842  0.4842 -0.2313  0.0911
  460MOL0     C61975   3.420   4.584   2.759 -0.6286  0.8858 -0.0631
  460MOL0     C61976   3.564   4.572   2.797  0.3284  0.5357 -0.5659
  460MOL0     C61977   3.653   4.699   2.772  0.3658  1.6900  0.4978
  460MOL0     C61978   3.796   4.656   2.787 -0.2745 -0.7513 -0.1620
  460MOL0     C61979   3.837   4.645   2.934  0.9639  0.8101 -0.5322
  460MOL0     C61980   3.949   4.535   2.956  0.3786 -0.3993  0.6718
  460MOL0     C61981   4.088   4.568   2.925 -0.8177 -0.0096  0.1433
  460MOL0     N61982   4.128   4.706   2.961 -0.8558  0.7261  0.2297
  460MOL0     C61983   4.133   4.762   3.086 -0.3927 -0.6924  0.8799
  460MOL0     C61984   4.154   4.894   3.061  0.2409 -0.1226 -0.0296
  460MOL0     C61985   4.192   5.008   3.154 -0.6215 -0.2524 -0.1230
  460MOL0     C61986   4.347   5.032   3.137 -0.0199 -0.3299  0.2823
  460MOL0     C61987   4.426   4.911   3.196 -1.3409 -0.2477  0.0660
  460MOL0     C61988   4.554   4.901   3.113  0.2356 -0.3170  0.4503
  460MOL0     O61989   4.636   4.799   3.163 -0.8363  0.9009  0.0447
  460MOL0     C61990   4.718   4.821   3.276 -0.0208  0.7782 -0.0911
  460MOL0     C61991   4.725   4.944   3.347  0.2045 -0.4760  1.0121
  460MOL0     C61992   4.813   4.956   3.451  0.4022  0.0666  0.0199
  460MOL0     C61993   4.912   4.858   3.484 -0.2712  0.3021 -0.6934
  460MOL0     C61994   5.012   4.887   3.586 -0.6414  1.6146 -0.5172
  460MOL0     O61995   4.999   4.994   3.666  0.6222 -0.4283 -0.1992
  460MOL0     C61996   5.095   5.016   3.756 -0.6456 -0.4441  0.2185
  460MOL0     C61997   5.222   5.043   3.712 -0.1652 -0.1722  0.1620
  460MOL0     C61998   5.317   5.098   3.796 -0.1699  0.4027 -0.8757
  460MOL0     C61999   5.289   5.111   3.938 -0.4232  0.2979  0.0148
  460MOL0     O62000   5.398   5.161   4.000 -1.1588  0.0481  0.3926
  460MOL0     C62001   5.393   5.158   4.146 -0.7564 -1.1016 -0.4111
  460MOL0     C62002   5.511   5.226   4.217  0.8379  0.0253 -0.2771
  460MOL0     C62003   5.532   5.378   4.194  0.6256  0.1462  0.0045
  460MOL0     C62004   5.670   5.436   4.202  0.1366 -0.5464 -0.1904
  460MOL0     C62005   5.775   5.368   4.117  0.2206  0.0278  0.8039
  460MOL0     C62006   5.776   5.401   3.961  0.5040 -0.5394 -0.8514
  460MOL0     C62007   5.829   5.280   3.897  0.3431  0.4859  0.4061
  460MOL0     C62008   5.834   5.281   3.754  0.5159 -0.4331  1.1301
  460MOL0    Cl62009   5.664   5.279   3.686 -0.0892  0.2893 -0.0231
  460MOL0     C62010   5.154   5.085   3.984 -1.0258 -0.1077  0.3193
  460MOL0     C62011   5.063   5.035   3.892 -0.0507 -1.4469 -0.6072
  460MOL0     O62012   5.095   4.793   3.609 -0.1106  0.0580 -0.1820
  460MOL0     C62013   4.900   4.744   3.408 -0.0667  0.5838 -0.8916
  460MOL0     C62014   4.816   4.724   3.303  0.4965  0.4055 -1.0569
  460MOL0     N62015   4.141   4.911   2.928  0.4690 -0.8174  0.8013
  460MOL0     N62016   4.135   4.802   2.863  0.5904  0.2901  0.0334
  460MOL0     C62017   3.151   4.900   2.911 -0.2313 -0.6358 -0.4288
  460MOL0     C62018   3.047   4.988   2.951  0.2146 -0.6273  0.6209
  460MOL0     C62019   2.621   5.175   3.039 -1.0708 -0.4846  0.3967
  460MOL0     C62020   2.530   5.179   2.933 -0.3994  0.4268  0.7944
  460MOL0     C62021   2.417   5.267   2.939  0.5529 -0.4764 -0.3131
  460MOL0     C62022   2.396   5.358   3.043  0.1748 -0.1213  0.0415
  460MOL0     O62023   2.293   5.447   3.035  0.0012 -0.1593  0.5233
  460MOL0     C62024   2.233   5.492   3.156  0.6153  0.7027 -0.0060
  460MOL0     C62025   2.285   5.623   3.230 -0.7841 -0.1140 -0.0564
  460MOL0     C62026   2.306   5.742   3.136 -0.3198 -0.3844  0.4211
  460MOL0     C62027   2.289   5.873   3.200 -0.0410 -0.1286 -0.4923
  460MOL0     C62028   2.342   5.989   3.120 -0.0653 -1.0361 -0.4749
  460MOL0     C62029   2.394   6.073   3.058 -0.5114 -0.4283  0.2755
  460MOL0     C62030   2.492   5.365   3.145 -0.6227  0.3064 -0.3156
  460MOL0     C62031   2.596   5.268   3.150  0.5107  0.7697  0.3922
  460MOL0     C62032   2.692   5.271   3.266  0.5667 -0.9933  0.5186
  460MOL0     H62033   2.784   4.799   2.890  0.9620 -3.4691 -1.6436
  460MOL0     H62034   2.943   4.635   2.839  3.0563 -1.6379  0.0777
  460MOL0     H62035   3.390   4.773   2.826  0.9424 -0.3745  0.6738
  460MOL0     H62036   3.332   4.646   2.947  3.0922 -0.9414  0.1123
  460MOL0     H62037   3.408   4.623   2.658 -2.7775  2.2149  0.6315
  460MOL0     H62038   3.361   4.492   2.773 -0.0150  0.5602  0.4463
  460MOL0     H62039   3.600   4.489   2.736  1.1488 -1.1499  2.0350
  460MOL0     H62040   3.575   4.550   2.903 -3.8908 -0.8885 -0.2178
  460MOL0     H62041   3.624   4.726   2.670  1.1456 -3.6843 -1.4235
  460MOL0     H62042   3.623   4.766   2.854 -1.1254 -0.4286  1.7844
  460MOL0     H62043   3.812   4.565   2.729 -0.8837 -1.9914  1.5130
  460MOL0     H62044   3.861   4.735   2.750 -0.5573 -0.3123  0.2616
  460MOL0     H62045   3.866   4.745   2.967  1.0174  0.8139 -0.5920
  460MOL0     H62046   3.752   4.597   2.984  0.2082 -0.2290 -2.7026
  460MOL0     H62047   3.914   4.437   2.923  0.8489 -1.1612  2.3193
  460MOL0     H62048   3.944   4.515   3.064 -1.6813 -3.8983  0.0717
  460MOL0     H62049   4.151   4.506   2.988 -1.4170 -0.9389 -0.1540
  460MOL0     H62050   4.098   4.547   2.818 -2.1342 -1.1721  0.2239
  460MOL0     H62051   4.147   4.710   3.180  1.2546  1.1881  1.7480
  460MOL0     H62052   4.145   5.100   3.119  0.1545  1.2583  2.5838
  460MOL0     H62053   4.155   4.991   3.256 -0.5405  0.3987  0.0154
  460MOL0     H62054   4.362   5.035   3.028 -2.4374  0.4255 -0.0946
  460MOL0     H62055   4.376   5.125   3.186 -2.9882  0.0506  1.5552
  460MOL0     H62056   4.376   4.814   3.190 -0.3794 -0.6728 -1.3864
  460MOL0     H62057   4.448   4.929   3.302 -2.0036 -0.2550  0.2105
  460MOL0     H62058   4.603   4.998   3.124  1.1684 -0.9299  2.2107
  460MOL0     H62059   4.534   4.884   3.007  0.0082 -2.8062  0.8426
  460MOL0     H62060   4.638   5.008   3.333 -1.5953 -3.1288 -0.6636
  460MOL0     H62061   4.817   5.053   3.501 -0.3128 -0.1308  0.4715
  460MOL0     H62062   5.245   5.036   3.606 -0.0840  1.7553  0.0235
  460MOL0     H62063   5.414   5.122   3.752  2.1756 -2.6137  2.0929
  460MOL0     H62064   5.306   5.211   4.185 -0.7927  0.2570 -2.2216
  460MOL0     H62065   5.386   5.056   4.186  1.5684 -1.6862 -1.3648
  460MOL0     H62066   5.498   5.207   4.324 -2.4110  0.5886 -0.4673
  460MOL0     H62067   5.603   5.174   4.186  0.9402 -0.7012  1.1680
  460MOL0     H62068   5.487   5.403   4.098 -3.7877 -0.4536  1.6805
  460MOL0     H62069   5.460   5.433   4.256 -1.2981 -0.0899 -1.8990
  460MOL0     H62070   5.686   5.434   4.310 -1.9108  0.8501  0.2111
  460MOL0     H62071   5.670   5.544   4.187 -0.1733 -0.5411 -0.1693
  460MOL0     H62072   5.771   5.259   4.121 -1.0998  0.0975  3.4931
  460MOL0     H62073   5.871   5.404   4.156 -0.4181  0.9621  1.5451
  460MOL0     H62074   5.672   5.412   3.928  0.2419 -0.6756 -0.0972
  460MOL0     H62075   5.832   5.491   3.936 -3.1679  3.2222  2.7828
  460MOL0     H62076   5.775   5.188   3.921  0.0213  0.9164  1.4124
  460MOL0     H62077   5.933   5.281   3.932  0.0866  1.6381  1.1929
  460MOL0     H62078   5.884   5.371   3.718 -1.2916 -0.8279 -3.0376
  460MOL0     H62079   5.889   5.198   3.710 -1.7404 -0.6319 -1.6237
  460MOL0     H62080   5.111   5.094   4.083 -0.8588 -2.0719  0.6153
  460MOL0     H62081   4.972   5.007   3.943  0.5684  1.0958  2.1580
  460MOL0     H62082   4.981   4.674   3.423 -2.9000 -2.6083  1.2033
  460MOL0     H62083   4.815   4.622   3.264 -2.4377  0.0505 -0.2744
  460MOL0     H62084   3.249   4.947   2.908 -0.2370 -0.3935  1.8537
  460MOL0     H62085   3.077   5.091   2.968 -3.0257  0.2918  1.4910
  460MOL0     H62086   2.555   5.121   2.845 -0.1315  4.7304 -2.3131
  460MOL0     H62087   2.341   5.267   2.861 -0.4909 -0.1485  0.6846
  460MOL0     H62088   2.238   5.416   3.234 -0.4448 -0.3522 -0.9148
  460MOL0     H62089   2.128   5.516   3.135  0.8820  1.6783 -0.2886
  460MOL0     H62090   2.372   5.598   3.291 -0.7205 -2.7150 -1.0857
  460MOL0     H62091   2.205   5.654   3.298 -0.0945  0.1575  0.6394
  460MOL0     H62092   2.230   5.722   3.060  1.2971 -2.6641 -0.7121
  460MOL0     H62093   2.403   5.731   3.087  2.4867 -0.6520  5.3536
  460MOL0     H62094   2.182   5.887   3.217 -0.3355 -2.5821  0.0379
  460MOL0     H62095   2.339   5.870   3.296 -0.3250 -1.6192 -0.3708
  460MOL0     H62096   2.439   6.152   3.001  0.4896  1.6744  3.6979
  460MOL0     H62097   2.495   5.446   3.216 -1.6097  2.5323 -2.6690
  460MOL0     H62098   2.637   5.220   3.346  0.5090  0.9436  1.7789
  460MOL0     H62099   2.781   5.209   3.247 -0.6655 -2.4598 -0.7902
  460MOL0     H62100   2.710   5.374   3.295 -2.0066  0.2360 -1.8104
  461MOL0     O62101   5.120   7.339   7.794 -0.4447 -0.3758  0.0282
  461MOL0     C62102   5.001   7.324   7.752  0.2975 -1.1021 -0.1677
  461MOL0     O62103   4.963   7.293   7.629  0.4107 -0.3086 -0.6765
  461MOL0     C62104   5.054   7.282   7.530  0.7247  0.0465 -0.0057
  461MOL0     C62105   5.007   7.176   7.450  0.1664  0.2730  0.0454
  461MOL0     C62106   5.101   7.132   7.352  0.8123  0.8209  0.0557
  461MOL0     C62107   5.229   7.196   7.326 -0.7840 -0.7212  0.1315
  461MOL0     O62108   5.315   7.149   7.228 -0.2943 -0.5886 -0.1581
  461MOL0     C62109   5.421   7.235   7.190 -0.5253  0.0016 -0.0697
  461MOL0     C62110   5.518   7.161   7.097  0.0359 -0.1216 -0.1881
  461MOL0     C62111   5.469   7.172   6.956  0.0918 -0.5223 -0.1618
  461MOL0     C62112   5.562   7.254   6.867 -0.4752  0.9707  0.3336
  461MOL0     C62113   5.496   7.270   6.729 -0.2117 -1.2371 -0.4639
  461MOL0     C62114   5.562   7.364   6.631 -0.0321 -0.4655 -0.4147
  461MOL0     C62115   5.476   7.368   6.491 -0.3584 -0.5706 -0.0049
  461MOL0     C62116   5.325   7.417   6.509  0.4425 -0.4628 -0.0593
  461MOL0     N62117   5.296   7.546   6.582 -0.3447 -0.7082  0.2952
  461MOL0     C62118   5.342   7.668   6.544 -0.7744  0.1714  0.6775
  461MOL0     C62119   5.311   7.755   6.644 -0.2207 -1.1379  0.3445
  461MOL0     C62120   5.372   7.897   6.651  0.0489  0.0121  0.7418
  461MOL0     C62121   5.518   7.909   6.622 -0.5488  0.2173  0.3078
  461MOL0     C62122   5.551   7.953   6.479  0.0623 -0.2318  0.4089
  461MOL0     C62123   5.681   7.898   6.425 -0.3070 -0.6614  0.1865
  461MOL0     O62124   5.687   7.758   6.438  0.1205 -0.1715  0.1780
  461MOL0     C62125   5.786   7.696   6.367 -0.3585  0.9184  0.3715
  461MOL0     C62126   5.765   7.634   6.247 -0.1501  0.0308  0.1644
  461MOL0     C62127   5.871   7.574   6.182  0.3016  0.3205  0.4622
  461MOL0     C62128   6.001   7.563   6.243  0.6002 -0.4146 -0.1907
  461MOL0     C62129   6.116   7.503   6.180 -0.3886  1.5740 -0.8503
  461MOL0     O62130   6.090   7.449   6.055 -0.0366  0.3191  0.5647
  461MOL0     C62131   6.198   7.399   5.985 -0.3599  0.1926 -0.2783
  461MOL0     C62132   6.214   7.266   5.955  0.1854 -0.2491 -0.7087
  461MOL0     C62133   6.319   7.216   5.867  0.4301  0.2580 -0.3830
  461MOL0     C62134   6.418   7.305   5.826  1.0093 -0.5026  0.1348
  461MOL0     O62135   6.518   7.279   5.740  0.1639  0.6968 -0.1051
  461MOL0     C62136   6.544   7.145   5.697  0.1761  0.6814 -0.1153
  461MOL0     C62137   6.460   7.113   5.565  0.1969  0.3717 -0.6330
  461MOL0     C62138   6.439   6.961   5.552 -0.6013  0.1270  0.1508
  461MOL0     C62139   6.560   6.868   5.511  0.2329  0.4440  0.8799
  461MOL0     C62140   6.553   6.724   5.553 -0.2570  0.1307  0.7188
  461MOL0     C62141   6.415   6.658   5.500  0.2512 -0.3187  0.0148
  461MOL0     C62142   6.396   6.517   5.554 -0.1569  1.5500  1.1250
  461MOL0     C62143   6.284   6.442   5.487  1.2716 -0.2056 -0.3217
  461MOL0    Cl62144   6.122   6.487   5.559 -0.2978 -0.0317  0.2525
  461MOL0     C62145   6.399   7.440   5.864 -0.1100  0.2118  0.7296
  461MOL0     C62146   6.290   7.488   5.928  0.0217  0.1727  0.1302
  461MOL0     O62147   6.219   7.481   6.244  0.7604 -0.3315  0.0328
  461MOL0     C62148   6.027   7.632   6.364  0.5219  0.1959 -0.4720
  461MOL0     C62149   5.914   7.703   6.424 -0.8172 -0.1940 -0.1530
  461MOL0     N62150   5.238   7.685   6.735  0.3626  0.5493  0.1313
  461MOL0     N62151   5.228   7.565   6.699  0.5786 -0.6870  0.2782
  461MOL0     C62152   5.256   7.310   7.409  0.9596 -0.0706  0.8142
  461MOL0     C62153   5.172   7.365   7.508 -0.2538 -0.3471 -0.3845
  461MOL0     C62154   4.893   7.359   7.848 -0.1673 -0.8063  0.5802
  461MOL0     C62155   4.769   7.391   7.793  0.1721  0.0234 -0.2898
  461MOL0     C62156   4.667   7.445   7.870 -0.8704 -0.2069 -0.3532
  461MOL0     C62157   4.678   7.473   7.996 -0.8691 -0.4851 -0.6716
  461MOL0     O62158   4.578   7.531   8.071 -0.4209  0.3376 -0.0604
  461MOL0     C62159   4.471   7.584   7.994 -0.5755 -0.1888 -0.6533
  461MOL0     C62160   4.363   7.642   8.083  0.1736 -0.6064  0.0580
  461MOL0     C62161   4.317   7.550   8.198  0.4488  0.2390 -0.1481
  461MOL0     C62162   4.176   7.579   8.243  0.0026 -0.2677  0.6842
  461MOL0     C62163   4.159   7.707   8.316  0.3104  0.1691  0.3770
  461MOL0     C62164   4.154   7.811   8.373  0.2794  0.2115 -0.3970
  461MOL0     C62165   4.804   7.440   8.056  0.0213 -0.2222 -0.1792
  461MOL0     C62166   4.914   7.396   7.986  1.0228  0.1212 -0.5907
  461MOL0     C62167   5.037   7.371   8.061  0.8642 -0.6497 -0.0708
  461MOL0     H62168   4.913   7.127   7.470  0.7416 -1.1075 -0.5677
  461MOL0     H62169   5.080   7.052   7.282 -1.8792  0.1915  1.4620
  461MOL0     H62170   5.362   7.318   7.151 -1.4638 -1.8744 -2.8773
  461MOL0     H62171   5.486   7.264   7.274  0.6890 -2.0265 -0.2549
  461MOL0     H62172   5.534   7.060   7.135 -0.3687 -0.0946  0.0506
  461MOL0     H62173   5.617   7.209   7.101 -0.1186  0.3095 -1.1895
  461MOL0     H62174   5.369   7.215   6.948  0.1808 -0.5257 -1.3285
  461MOL0     H62175   5.468   7.066   6.930  0.0236 -0.3831 -0.7358
  461MOL0     H62176   5.589   7.348   6.916  4.7783  0.5667 -1.1773
  461MOL0     H62177   5.658   7.203   6.855 -1.2922 -1.2679  2.4040
  461MOL0     H62178   5.478   7.176   6.676  1.0241 -2.0007  0.4228
  461MOL0     H62179   5.411   7.334   6.753  1.6757  2.3763 -2.4835
  461MOL0     H62180   5.562   7.466   6.671  1.9593 -0.1318 -1.1676
  461MOL0     H62181   5.665   7.328   6.624  0.1577 -0.7565  2.5468
  461MOL0     H62182   5.486   7.269   6.446 -0.7481 -0.7293  0.2408
  461MOL0     H62183   5.527   7.439   6.426 -1.0885  0.9920  1.0596
  461MOL0     H62184   5.276   7.425   6.411 -1.4735 -1.1771  0.7982
  461MOL0     H62185   5.266   7.336   6.553  1.3881 -1.9442 -1.3954
  461MOL0     H62186   5.408   7.688   6.460  1.0509 -0.8033  1.8147
  461MOL0     H62187   5.315   7.967   6.589  1.6802  1.4006  0.7378
  461MOL0     H62188   5.375   7.927   6.756  1.6952 -0.2675  0.7950
  461MOL0     H62189   5.550   7.981   6.698 -0.8128 -1.7342  2.4163
  461MOL0     H62190   5.565   7.811   6.632 -0.6893 -0.1616 -2.2142
  461MOL0     H62191   5.554   8.061   6.464  2.0119 -0.4223 -1.0069
  461MOL0     H62192   5.469   7.914   6.418 -0.1355  0.8633 -0.0475
  461MOL0     H62193   5.759   7.951   6.481 -0.2075  0.8779 -1.3104
  461MOL0     H62194   5.682   7.930   6.320 -0.1445  0.9862  0.6634
  461MOL0     H62195   5.666   7.625   6.204 -0.5956  1.2125  0.9121
  461MOL0     H62196   5.839   7.536   6.086  1.5100  0.7494 -0.1324
  461MOL0     H62197   6.135   7.194   5.977 -0.8000  1.3662  1.3077
  461MOL0     H62198   6.323   7.116   5.824  2.6235  0.8693 -1.7621
  461MOL0     H62199   6.653   7.133   5.686 -0.1127 -2.3793 -0.6465
  461MOL0     H62200   6.509   7.075   5.773 -1.0592 -0.3460 -1.5883
  461MOL0     H62201   6.359   7.153   5.581  0.0899  0.2124 -0.9038
  461MOL0     H62202   6.510   7.151   5.475  1.3832  0.1270 -0.0914
  461MOL0     H62203   6.400   6.923   5.646  1.7096 -0.5222  0.9132
  461MOL0     H62204   6.357   6.944   5.482  0.3611 -1.2071 -0.7037
  461MOL0     H62205   6.655   6.909   5.546  1.3824  0.4711 -2.0420
  461MOL0     H62206   6.570   6.868   5.403  0.2434 -2.9592  0.7850
  461MOL0     H62207   6.554   6.722   5.662 -1.2000 -1.8790  0.7310
  461MOL0     H62208   6.634   6.666   5.509  0.8153  1.0210  1.4630
  461MOL0     H62209   6.327   6.716   5.528  0.9362  0.4374  0.6334
  461MOL0     H62210   6.409   6.656   5.390 -1.9361 -0.2187  0.0727
  461MOL0     H62211   6.378   6.520   5.662  2.8862 -0.8264  1.8321
  461MOL0     H62212   6.483   6.456   5.529 -0.7099  1.4746 -0.7277
  461MOL0     H62213   6.275   6.465   5.380 -3.4215  2.5061  0.3594
  461MOL0     H62214   6.293   6.333   5.488 -0.1334 -0.4111  2.6320
  461MOL0     H62215   6.470   7.508   5.817  0.1142 -2.6924 -3.8250
  461MOL0     H62216   6.286   7.596   5.937 -2.0449  0.1054  0.5959
  461MOL0     H62217   6.125   7.635   6.410 -0.8499 -0.8793  2.8161
  461MOL0     H62218   5.929   7.765   6.512  2.4166 -0.9259 -0.0615
  461MOL0     H62219   5.348   7.366   7.397 -1.4286  4.2733  0.9754
  461MOL0     H62220   5.209   7.449   7.565 -4.4287 -0.4624  2.9820
  461MOL0     H62221   4.743   7.391   7.688 -3.3843  1.1419  0.4721
  461MOL0     H62222   4.580   7.465   7.809 -2.2210 -0.3437  1.4356
  461MOL0     H62223   4.422   7.509   7.930  3.0594 -0.7800 -3.0046
  461MOL0     H62224   4.515   7.666   7.936  0.5463 -0.2090  0.1500
  461MOL0     H62225   4.286   7.676   8.012 -0.9595 -0.9160  1.1252
  461MOL0     H62226   4.397   7.732   8.135  0.0966 -0.9031  0.6165
  461MOL0     H62227   4.387   7.541   8.282  0.7668  0.4258 -0.3896
  461MOL0     H62228   4.306   7.449   8.159  0.3752 -0.6257  1.9893
  461MOL0     H62229   4.108   7.581   8.158  0.8938 -1.5001 -0.0788
  461MOL0     H62230   4.143   7.491   8.298 -1.5989  0.8836  1.6520
  461MOL0     H62231   4.145   7.890   8.445 -2.0539  0.3405 -0.7527
  461MOL0     H62232   4.795   7.466   8.161  0.9958  3.7373 -0.9413
  461MOL0     H62233   5.097   7.462   8.049 -1.7796  1.0503 -1.3228
  461MOL0     H62234   5.016   7.356   8.167  1.8216 -0.0807  0.2152
  461MOL0     H62235   5.086   7.280   8.025 -4.3550 -3.5382 -0.7707
  462MOL0     O62236   5.602   1.322   4.787 -0.4076  1.3002  0.3857
  462MOL0     C62237   5.680   1.246   4.721  0.7595  0.3979  0.5792
  462MOL0     O62238   5.645   1.169   4.615  0.4405 -0.4860  0.3134
  462MOL0     C62239   5.521   1.194   4.566  1.2107 -0.2068  0.2313
  462MOL0     C62240   5.419   1.118   4.609  0.5859  0.2334  0.1455
  462MOL0     C62241   5.284   1.139   4.556 -0.1105  0.1074  0.6353
  462MOL0     C62242   5.259   1.248   4.472 -0.2446  0.1936  0.4987
  462MOL0     O62243   5.142   1.309   4.447 -0.4864 -0.2221  0.1507
  462MOL0     C62244   5.031   1.247   4.503  0.0184 -0.9696  0.5497
  462MOL0     C62245   4.898   1.309   4.461 -0.5593  0.1342 -0.1815
  462MOL0     C62246   4.866   1.456   4.506  0.2045  0.9183 -0.2693
  462MOL0     C62247   4.714   1.503   4.507 -0.1884 -0.0139 -0.4364
  462MOL0     C62248   4.717   1.648   4.549 -0.0027 -0.8058 -0.3279
  462MOL0     C62249   4.581   1.717   4.554 -0.0122  0.1407  0.8955
  462MOL0     C62250   4.506   1.747   4.421 -0.9910 -0.3895  0.7836
  462MOL0     C62251   4.574   1.873   4.345 -0.4002  0.2138 -0.1674
  462MOL0     N62252   4.482   1.940   4.246 -0.1271  0.3148 -0.0076
  462MOL0     C62253   4.504   1.940   4.110  0.8678  0.5298 -0.5542
  462MOL0     C62254   4.419   2.041   4.076 -0.8025  0.1022  0.6293
  462MOL0     C62255   4.409   2.103   3.942  0.1028 -0.4129  0.7618
  462MOL0     C62256   4.271   2.078   3.880 -0.1406 -0.2091  0.5458
  462MOL0     C62257   4.250   2.141   3.739 -0.3703 -0.0157  0.0140
  462MOL0     C62258   4.342   2.093   3.633  0.5668 -0.2919  0.0389
  462MOL0     O62259   4.274   2.022   3.527 -0.0114  0.3285 -0.9833
  462MOL0     C62260   4.212   2.096   3.433 -0.2523  0.8083  1.1492
  462MOL0     C62261   4.150   2.024   3.336 -0.3139 -0.6583 -0.0540
  462MOL0     C62262   4.092   2.086   3.222 -0.4292  0.4321 -1.2375
  462MOL0     C62263   4.080   2.225   3.214 -0.2035  0.1478  0.1618
  462MOL0     C62264   4.023   2.287   3.090 -0.0337  0.1125 -0.2670
  462MOL0     O62265   3.999   2.211   2.979  0.5450  0.8801 -0.1544
  462MOL0     C62266   3.890   2.245   2.901 -0.1489  0.6508 -0.0151
  462MOL0     C62267   3.888   2.183   2.775  0.0760  0.6944 -0.1025
  462MOL0     C62268   3.777   2.193   2.686 -1.0045 -0.2861  1.0111
  462MOL0     C62269   3.663   2.255   2.727  0.2144  0.4927 -0.4692
  462MOL0     O62270   3.552   2.263   2.637  0.0695 -0.0936  0.5298
  462MOL0     C62271   3.442   2.186   2.682  0.5104  0.2856 -0.2626
  462MOL0     C62272   3.462   2.032   2.660  0.3813  0.3662 -0.2283
  462MOL0     C62273   3.468   2.015   2.502  0.3642  0.3979  0.5302
  462MOL0     C62274   3.499   1.870   2.466  0.4448  0.9381 -0.8000
  462MOL0     C62275   3.516   1.826   2.316  0.5211 -0.1306  0.5315
  462MOL0     C62276   3.391   1.819   2.228  0.7701  0.3580  0.4304
  462MOL0     C62277   3.253   1.812   2.299 -0.1266  0.1799 -0.2604
  462MOL0     C62278   3.134   1.833   2.204 -0.5355 -0.6382 -0.3816
  462MOL0    Cl62279   3.113   1.686   2.113  0.1752  0.4212 -0.2516
  462MOL0     C62280   3.658   2.311   2.865 -0.8024 -0.5601  0.7089
  462MOL0     C62281   3.771   2.304   2.951 -0.1231 -0.8546  0.4747
  462MOL0     O62282   4.000   2.408   3.094 -0.3078  0.1751 -0.3886
  462MOL0     C62283   4.134   2.303   3.318 -0.0874 -0.7052 -0.1461
  462MOL0     C62284   4.193   2.237   3.429 -0.1241  0.1129  0.9299
  462MOL0     N62285   4.335   2.079   4.169 -0.1617 -0.5094 -0.1458
  462MOL0     N62286   4.377   2.021   4.274  0.5933  0.3042  0.0144
  462MOL0     C62287   5.369   1.315   4.421 -0.6259  0.0740  0.0226
  462MOL0     C62288   5.502   1.294   4.473  0.1009 -0.4207  1.0296
  462MOL0     C62289   5.828   1.234   4.754 -0.5438 -0.9345 -0.7898
  462MOL0     C62290   5.913   1.158   4.679 -1.2645  0.2698 -0.1393
  462MOL0     C62291   6.051   1.148   4.690 -0.6024 -0.2806  0.2152
  462MOL0     C62292   6.108   1.232   4.788 -0.0952 -0.8129  0.1054
  462MOL0     O62293   6.248   1.239   4.808 -0.3511  0.0220 -0.0605
  462MOL0     C62294   6.319   1.130   4.737 -0.2724  0.9201 -0.2821
  462MOL0     C62295   6.467   1.112   4.771  0.5080 -0.5576 -0.5034
  462MOL0     C62296   6.538   1.246   4.749  0.1461  0.2590 -0.2611
  462MOL0     C62297   6.662   1.255   4.847  0.1570  0.8179  0.2154
  462MOL0     C62298   6.764   1.346   4.804  0.5535 -0.3459  0.6157
  462MOL0     C62299   6.848   1.428   4.792  0.3230 -0.6279 -0.1449
  462MOL0     C62300   6.030   1.310   4.874  0.0337  0.1844  0.0962
  462MOL0     C62301   5.890   1.303   4.865 -0.1078 -1.3892 -0.1259
  462MOL0     C62302   5.809   1.381   4.975  0.2572 -0.1720  1.0816
  462MOL0     H62303   5.439   1.029   4.668  4.0541 -1.2718 -2.8652
  462MOL0     H62304   5.197   1.080   4.583 -2.4497  2.3172 -1.4282
  462MOL0     H62305   5.031   1.144   4.466 -0.7419 -0.3940 -1.1548
  462MOL0     H62306   5.044   1.253   4.611 -1.3930 -0.2959  0.7046
  462MOL0     H62307   4.826   1.234   4.495  0.4110 -0.9247 -0.4011
  462MOL0     H62308   4.902   1.311   4.351 -2.3672 -0.6491 -0.2999
  462MOL0     H62309   4.919   1.529   4.444 -3.6274  2.0584 -2.5268
  462MOL0     H62310   4.896   1.463   4.611  0.0512  0.2438 -0.1751
  462MOL0     H62311   4.667   1.490   4.409 -1.1026 -0.5388  0.0535
  462MOL0     H62312   4.651   1.460   4.586  1.4975  0.3819  1.1907
  462MOL0     H62313   4.769   1.659   4.645 -2.0046  2.2909  0.5353
  462MOL0     H62314   4.781   1.707   4.483  3.2593 -2.6555  0.9416
  462MOL0     H62315   4.513   1.658   4.617 -2.1325  1.2606 -0.2420
  462MOL0     H62316   4.582   1.818   4.596 -0.2611  0.3274  0.4640
  462MOL0     H62317   4.402   1.775   4.438 -0.6756  1.6809 -0.3021
  462MOL0     H62318   4.516   1.657   4.360  2.8326  0.1345  0.3501
  462MOL0     H62319   4.611   1.949   4.415 -1.7415  3.0116 -2.2689
  462MOL0     H62320   4.660   1.846   4.283  0.4245 -0.1680  1.1221
  462MOL0     H62321   4.574   1.886   4.047  1.9873  1.1825  0.0755
  462MOL0     H62322   4.422   2.211   3.956  3.0330 -0.2688 -1.9652
  462MOL0     H62323   4.491   2.073   3.876 -0.9280 -1.6666  0.0119
  462MOL0     H62324   4.249   1.972   3.866 -0.7358 -0.0978  0.6003
  462MOL0     H62325   4.196   2.119   3.949  2.0782  2.3973  1.5838
  462MOL0     H62326   4.258   2.250   3.740  0.2641 -0.0556 -0.1750
  462MOL0     H62327   4.148   2.110   3.712  0.5813 -3.5600 -0.0164
  462MOL0     H62328   4.412   2.015   3.665  0.9468  0.6159  1.5091
  462MOL0     H62329   4.392   2.183   3.597 -1.0085  0.2803 -0.8231
  462MOL0     H62330   4.146   1.917   3.352  2.8131 -0.9748 -0.7478
  462MOL0     H62331   4.067   2.021   3.139  1.5198 -0.6361 -1.0492
  462MOL0     H62332   3.965   2.113   2.745 -0.0527  0.8364 -0.7974
  462MOL0     H62333   3.791   2.152   2.586  2.7907  2.8862  0.0113
  462MOL0     H62334   3.433   2.210   2.789  1.3294 -2.0254  0.3862
  462MOL0     H62335   3.347   2.215   2.637  0.8827  1.9909 -0.0189
  462MOL0     H62336   3.553   1.988   2.702 -1.3883 -0.2853  3.3535
  462MOL0     H62337   3.370   1.986   2.697 -1.1977  3.1768 -0.3528
  462MOL0     H62338   3.367   2.039   2.468 -0.2455 -2.1846  0.2949
  462MOL0     H62339   3.540   2.073   2.444 -0.1800 -0.8930 -1.5485
  462MOL0     H62340   3.436   1.795   2.514 -1.0537  2.1827 -0.7468
  462MOL0     H62341   3.595   1.840   2.509  0.6026  0.0987 -1.7106
  462MOL0     H62342   3.557   1.725   2.325  2.6416  0.7777  1.8498
  462MOL0     H62343   3.592   1.890   2.269  0.4475 -1.3817 -1.4393
  462MOL0     H62344   3.394   1.903   2.159 -1.0374  2.2087  2.4503
  462MOL0     H62345   3.400   1.732   2.162  0.4441  2.2443 -2.2583
  462MOL0     H62346   3.236   1.895   2.368 -2.4767 -0.9826  0.6688
  462MOL0     H62347   3.234   1.722   2.358  1.2822 -1.0563 -1.5952
  462MOL0     H62348   3.045   1.847   2.266 -0.4209  0.2174 -0.3939
  462MOL0     H62349   3.145   1.923   2.143  0.1889  0.4888  1.3094
  462MOL0     H62350   3.573   2.361   2.910  0.8231  1.6725  1.4626
  462MOL0     H62351   3.766   2.349   3.049  2.2848  3.1275 -0.9835
  462MOL0     H62352   4.135   2.408   3.294 -1.7284 -0.6913 -0.2652
  462MOL0     H62353   4.224   2.305   3.508 -0.7298  0.5739  0.7764
  462MOL0     H62354   5.356   1.395   4.350  1.2902 -1.3937 -2.1241
  462MOL0     H62355   5.585   1.356   4.440 -1.9785  0.2616 -3.6783
  462MOL0     H62356   5.860   1.093   4.610 -3.9469 -0.3816  2.3315
  462MOL0     H62357   6.110   1.091   4.618  0.8182 -0.5920  1.5516
  462MOL0     H62358   6.320   1.149   4.629 -0.2096 -0.6536 -0.5719
  462MOL0     H62359   6.272   1.036   4.766  2.2979 -0.7335 -1.1816
  462MOL0     H62360   6.518   1.035   4.711  0.5119  0.7942 -2.3022
  462MOL0     H62361   6.477   1.078   4.875  0.2110  1.6352  0.2858
  462MOL0     H62362   6.485   1.337   4.778 -0.1367 -0.4415  1.5321
  462MOL0     H62363   6.570   1.258   4.645 -2.2045  0.4513 -1.0142
  462MOL0     H62364   6.625   1.263   4.949  1.3916  1.0640  0.6532
  462MOL0     H62365   6.711   1.160   4.826 -1.3507 -0.2130  1.1908
  462MOL0     H62366   6.922   1.504   4.780  0.0778 -0.7585 -3.1346
  462MOL0     H62367   6.079   1.356   4.959 -1.9253  0.5747  1.0817
  462MOL0     H62368   5.736   1.445   4.924  1.4547 -1.3500 -2.4157
  462MOL0     H62369   5.757   1.319   5.048 -0.9673  0.2048  0.5618
  462MOL0     H62370   5.873   1.452   5.028 -1.0338  1.1604  0.9142
  463MOL0     O62371   4.266   0.266   6.937 -0.3623  0.2844  0.2181
  463MOL0     C62372   4.304   0.344   6.848 -0.5534 -0.7636 -0.4897
  463MOL0     O62373   4.421   0.337   6.782 -0.0547 -0.4138  0.2343
  463MOL0     C62374   4.499   0.221   6.805  0.2709 -0.7617 -0.1934
  463MOL0     C62375   4.492   0.106   6.722 -0.1911  0.0617 -1.0973
  463MOL0     C62376   4.590   0.002   6.729 -0.4273 -0.0362 -0.7647
  463MOL0     C62377   4.702   0.028   6.818 -0.0456  0.7132 -0.5090
  463MOL0     O62378   4.807  -0.050   6.847  0.1927 -0.0155  0.5051
  463MOL0     C62379   4.853  -0.136   6.745  1.2129  0.5787 -0.2327
  463MOL0     C62380   4.966  -0.226   6.798 -0.0228 -0.5207 -0.1950
  463MOL0     C62381   5.044  -0.297   6.684  0.0664 -1.1796 -0.0539
  463MOL0     C62382   5.139  -0.406   6.711  0.1404  0.8296  0.6141
  463MOL0     C62383   5.233  -0.436   6.595 -0.6012  0.4753 -0.8286
  463MOL0     C62384   5.351  -0.521   6.650  0.8710  0.0315  0.1168
  463MOL0     C62385   5.442  -0.561   6.539  0.4270  0.6571 -0.3154
  463MOL0     C62386   5.421  -0.713   6.510 -0.4028 -0.0293  0.3661
  463MOL0     N62387   5.466  -0.738   6.369  0.6367 -0.7578 -0.1687
  463MOL0     C62388   5.395  -0.830   6.292 -0.0566  0.7912 -0.5631
  463MOL0     C62389   5.479  -0.855   6.189  1.0049  0.0645  0.4817
  463MOL0     C62390   5.459  -0.951   6.067 -0.7619 -1.0684 -0.8870
  463MOL0     C62391   5.429  -1.093   6.115 -0.2735  0.0936  0.8577
  463MOL0     C62392   5.541  -1.158   6.195 -0.3394 -0.3757 -0.3725
  463MOL0     C62393   5.606  -1.270   6.115  0.1043 -0.1134 -0.3733
  463MOL0     O62394   5.712  -1.339   6.197 -1.0068 -0.6554  0.7090
  463MOL0     C62395   5.841  -1.291   6.210  0.5176  0.9117  0.2544
  463MOL0     C62396   5.884  -1.174   6.146  1.4109 -1.0121 -0.2802
  463MOL0     C62397   6.004  -1.108   6.177 -1.2764 -0.3343  0.2915
  463MOL0     C62398   6.095  -1.169   6.272 -0.2915  0.1375 -0.3007
  463MOL0     C62399   6.221  -1.092   6.305  0.6120  0.0923 -0.5428
  463MOL0     O62400   6.249  -0.979   6.230 -0.1610 -0.7165  0.4247
  463MOL0     C62401   6.370  -0.909   6.239  0.6686  0.0457  0.1835
  463MOL0     C62402   6.361  -0.782   6.295 -0.2916 -0.5390 -0.5145
  463MOL0     C62403   6.475  -0.701   6.301 -0.2655 -0.3810  0.5424
  463MOL0     C62404   6.604  -0.756   6.264 -0.6341  0.2337  0.4378
  463MOL0     O62405   6.737  -0.705   6.287  0.0929  0.2881 -0.1796
  463MOL0     C62406   6.743  -0.572   6.337 -0.4081  0.1594 -0.3924
  463MOL0     C62407   6.887  -0.526   6.312  0.4264  0.0051  0.6290
  463MOL0     C62408   6.986  -0.629   6.364 -0.8476 -0.1699  0.4223
  463MOL0     C62409   7.124  -0.561   6.365 -1.0842  0.4136 -0.0402
  463MOL0     C62410   7.164  -0.488   6.232 -0.8410  0.1184  0.7199
  463MOL0     C62411   7.311  -0.493   6.227  0.1378 -0.3253  0.2582
  463MOL0     C62412   7.387  -0.372   6.290 -0.6095  0.4406 -0.1767
  463MOL0     C62413   7.418  -0.386   6.447  0.0189 -0.3525  0.0666
  463MOL0    Cl62414   7.513  -0.239   6.483  0.2607 -0.1207 -0.0442
  463MOL0     C62415   6.609  -0.891   6.217  0.3019 -0.2456  0.3895
  463MOL0     C62416   6.486  -0.967   6.199 -0.0826  0.6067 -1.7454
  463MOL0     O62417   6.299  -1.144   6.384 -0.4269 -0.0260  1.0334
  463MOL0     C62418   6.051  -1.288   6.339  0.2617  0.0982 -0.3732
  463MOL0     C62419   5.935  -1.354   6.301  0.2691 -0.5258  0.2943
  463MOL0     N62420   5.593  -0.779   6.207  0.1373  0.3189  0.2854
  463MOL0     N62421   5.591  -0.729   6.320 -0.5942 -1.1357  0.1754
  463MOL0     C62422   4.707   0.145   6.891  0.0566  0.2293 -0.3810
  463MOL0     C62423   4.618   0.250   6.878 -0.3418 -0.6603  0.1387
  463MOL0     C62424   4.205   0.448   6.811  0.2387  0.0773  0.1604
  463MOL0     C62425   4.067   0.431   6.850  0.1457 -0.1131 -0.3183
  463MOL0     C62426   3.968   0.513   6.794 -0.3895  0.7301  0.5245
  463MOL0     C62427   4.001   0.630   6.725 -0.0924  0.9615  0.7910
  463MOL0     O62428   3.905   0.723   6.690  0.9888 -0.0629  0.3622
  463MOL0     C62429   3.913   0.778   6.560 -1.1112  0.0557  1.2050
  463MOL0     C62430   3.783   0.849   6.515 -0.7495  0.0782 -1.0378
  463MOL0     C62431   3.801   0.951   6.395 -0.0712  0.1363  0.7695
  463MOL0     C62432   3.714   1.085   6.412  0.2811 -1.0642  0.1981
  463MOL0     C62433   3.570   1.059   6.419  0.4621  0.1327 -0.6232
  463MOL0     C62434   3.446   1.047   6.398  0.3292  0.1666  0.3586
  463MOL0     C62435   4.136   0.653   6.703  0.3626 -0.3685 -0.2645
  463MOL0     C62436   4.234   0.565   6.748 -0.4518 -1.2140  0.7818
  463MOL0     C62437   4.369   0.607   6.710 -0.5856  0.2570  0.0686
  463MOL0     H62438   4.422   0.110   6.638  1.4222  0.0488 -2.4954
  463MOL0     H62439   4.597  -0.078   6.655  1.0413  0.4778 -1.2317
  463MOL0     H62440   4.774  -0.189   6.691  1.9778 -1.5839  0.6616
  463MOL0     H62441   4.899  -0.068   6.672  0.2231  1.9159  0.3619
  463MOL0     H62442   4.922  -0.304   6.861 -2.8371  2.0387  1.2874
  463MOL0     H62443   5.032  -0.158   6.851 -0.7896  0.9680 -1.0706
  463MOL0     H62444   5.093  -0.217   6.626 -3.0645  0.8359 -0.1276
  463MOL0     H62445   4.981  -0.341   6.607  0.6888  0.1535 -1.3796
  463MOL0     H62446   5.207  -0.368   6.788 -1.9832  2.6126  1.7248
  463MOL0     H62447   5.099  -0.499   6.753  2.9427 -2.1423 -2.6021
  463MOL0     H62448   5.193  -0.497   6.514  2.0358 -1.1405 -1.0399
  463MOL0     H62449   5.275  -0.337   6.574 -0.9315  1.5917  2.8952
  463MOL0     H62450   5.393  -0.461   6.731 -0.0826 -0.2871  0.8678
  463MOL0     H62451   5.315  -0.616   6.692  1.6720 -0.3390 -0.0243
  463MOL0     H62452   5.542  -0.553   6.581  0.6269  3.7766 -1.1816
  463MOL0     H62453   5.421  -0.498   6.452  1.8069  2.0133  0.2961
  463MOL0     H62454   5.480  -0.777   6.576  1.8311  0.6437 -0.8442
  463MOL0     H62455   5.313  -0.731   6.512 -0.3798 -0.1028  1.6785
  463MOL0     H62456   5.305  -0.884   6.317  1.3111 -2.3209 -1.8505
  463MOL0     H62457   5.377  -0.926   5.998  1.2694 -2.2094 -3.9510
  463MOL0     H62458   5.547  -0.951   6.001 -0.4066  1.0042 -0.5088
  463MOL0     H62459   5.337  -1.082   6.172 -0.9150 -3.1943  0.6622
  463MOL0     H62460   5.406  -1.155   6.028 -0.2671 -0.0465  0.9574
  463MOL0     H62461   5.506  -1.200   6.290  4.4154  1.3462  2.5170
  463MOL0     H62462   5.613  -1.083   6.230 -1.5968  0.2163  1.0607
  463MOL0     H62463   5.646  -1.246   6.017 -1.9913 -2.8231 -2.0347
  463MOL0     H62464   5.532  -1.349   6.098  1.0664 -1.4276  1.2619
  463MOL0     H62465   5.819  -1.113   6.083  4.0678  0.3189 -1.9315
  463MOL0     H62466   6.021  -1.014   6.126  1.5073 -1.2027 -0.5825
  463MOL0     H62467   6.261  -0.754   6.327 -1.0441 -3.3927 -0.0326
  463MOL0     H62468   6.456  -0.605   6.347  0.2746 -1.2695  2.7284
  463MOL0     H62469   6.671  -0.502   6.294 -0.5796  1.3281  1.6514
  463MOL0     H62470   6.736  -0.574   6.446  0.4273  0.0269 -0.3368
  463MOL0     H62471   6.892  -0.520   6.203  0.0597  0.3600  0.6289
  463MOL0     H62472   6.897  -0.428   6.360  1.6856  0.9991 -1.5115
  463MOL0     H62473   6.948  -0.666   6.460 -1.1888 -5.0556 -1.3249
  463MOL0     H62474   6.984  -0.716   6.298 -1.7503 -0.0800  0.3225
  463MOL0     H62475   7.199  -0.639   6.381  0.3136  1.0332 -2.8542
  463MOL0     H62476   7.132  -0.483   6.441 -0.2703  0.0567  0.2520
  463MOL0     H62477   7.114  -0.392   6.226  0.6852  0.9967  1.4070
  463MOL0     H62478   7.146  -0.555   6.147  1.3676  0.7238 -0.2966
  463MOL0     H62479   7.346  -0.592   6.258  0.3135  0.0821  1.4293
  463MOL0     H62480   7.336  -0.490   6.120 -1.4692 -0.3031 -0.1367
  463MOL0     H62481   7.325  -0.285   6.265 -1.0646  0.1190 -0.1767
  463MOL0     H62482   7.484  -0.376   6.240  0.1069 -0.3264  1.2172
  463MOL0     H62483   7.329  -0.382   6.510 -1.0660 -0.7494 -1.3970
  463MOL0     H62484   7.477  -0.475   6.474  1.5309  0.6589  0.2485
  463MOL0     H62485   6.702  -0.946   6.219  1.1863  0.9378 -2.8800
  463MOL0     H62486   6.476  -1.075   6.186 -2.4955  0.4383  0.6275
  463MOL0     H62487   6.115  -1.339   6.411  2.1159 -2.4504 -3.5306
  463MOL0     H62488   5.898  -1.435   6.364 -2.2489  0.3366  0.0246
  463MOL0     H62489   4.801   0.155   6.946 -0.7142  1.7112  0.7469
  463MOL0     H62490   4.626   0.337   6.943 -0.3913 -2.2958  2.4579
  463MOL0     H62491   4.030   0.355   6.917  1.4834 -0.9875 -0.5159
  463MOL0     H62492   3.868   0.491   6.829 -0.3225 -2.0699 -0.7540
  463MOL0     H62493   3.928   0.700   6.486 -2.1373  0.8206  0.1556
  463MOL0     H62494   3.991   0.854   6.561  0.5049 -1.5527  1.7064
  463MOL0     H62495   3.757   0.901   6.607  0.1067 -1.5157  0.1482
  463MOL0     H62496   3.706   0.775   6.490 -1.1998  0.4599 -0.7862
  463MOL0     H62497   3.776   0.892   6.307 -0.9487  0.0836  1.0488
  463MOL0     H62498   3.908   0.971   6.379 -0.1984  0.7599  0.6724
  463MOL0     H62499   3.743   1.138   6.503 -3.5880  0.4937  0.7061
  463MOL0     H62500   3.729   1.148   6.324 -3.9814  2.3490  1.5316
  463MOL0     H62501   3.341   1.046   6.380  0.6119  1.5263 -1.7462
  463MOL0     H62502   4.178   0.739   6.652  2.0005 -2.3445 -2.4413
  463MOL0     H62503   4.407   0.563   6.617  1.1786  0.8313  0.4906
  463MOL0     H62504   4.375   0.716   6.710 -2.3679  0.5867 -4.6822
  463MOL0     H62505   4.435   0.584   6.793 -1.9553  2.4959  1.9109
  464MOL0     O62506   2.533  10.828   6.156 -0.6031 -0.3971  0.5984
  464MOL0     C62507   2.629  10.787   6.213  1.0976  0.0102 -0.6245
  464MOL0     O62508   2.755  10.808   6.180 -0.0765  0.6259  0.9394
  464MOL0     C62509   2.781  10.887   6.074 -0.0336 -0.4131  0.0213
  464MOL0     C62510   2.744  10.857   5.946 -0.1069  0.3789  0.8679
  464MOL0     C62511   2.768  10.949   5.840 -0.7907 -0.0261 -0.4538
  464MOL0     C62512   2.857  11.057   5.862 -0.0690 -0.1063  0.4058
  464MOL0     O62513   2.885  11.143   5.761  0.1735  0.0682  0.1671
  464MOL0     C62514   2.827  11.137   5.632 -0.6367  0.7654  0.1245
  464MOL0     C62515   2.876  11.254   5.550 -0.2372  1.0361 -0.1994
  464MOL0     C62516   3.021  11.238   5.498 -0.6380 -0.3701 -0.2321
  464MOL0     C62517   3.068  11.377   5.464  0.4239  0.0724 -0.1067
  464MOL0     C62518   3.190  11.366   5.367 -0.6828 -0.3445  0.6745
  464MOL0     C62519   3.243  11.493   5.302  0.6424 -0.0156  1.1578
  464MOL0     C62520   3.382  11.453   5.234  0.8804 -0.2626  0.4705
  464MOL0     C62521   3.495  11.455   5.332 -0.4831 -0.4190 -0.4862
  464MOL0     N62522   3.594  11.557   5.301  0.9372 -0.1514  0.3549
  464MOL0     C62523   3.598  11.687   5.345 -0.8543  0.3273 -0.0723
  464MOL0     C62524   3.695  11.754   5.281  0.2272 -0.6272  0.0404
  464MOL0     C62525   3.748  11.892   5.308  0.6659  0.6501 -0.5238
  464MOL0     C62526   3.877  11.888   5.387  0.0014  0.0403 -0.0568
  464MOL0     C62527   3.878  11.892   5.536 -0.0496  0.0198 -0.3514
  464MOL0     C62528   4.014  11.852   5.598 -0.1799 -0.0517 -0.2247
  464MOL0     O62529   3.999  11.851   5.737  0.3707 -0.1316 -0.7423
  464MOL0     C62530   4.116  11.825   5.806 -0.1383 -0.0155  0.7159
  464MOL0     C62531   4.246  11.862   5.764  0.0346 -0.3346 -0.2557
  464MOL0     C62532   4.360  11.834   5.836  0.6127  0.1026 -0.5364
  464MOL0     C62533   4.337  11.772   5.962 -0.5767  0.3033  0.6221
  464MOL0     C62534   4.440  11.754   6.061 -0.6720 -0.0875 -0.9297
  464MOL0     O62535   4.418  11.658   6.158 -0.2975 -0.1495 -0.2535
  464MOL0     C62536   4.517  11.656   6.259 -0.3830 -1.3408  0.7642
  464MOL0     C62537   4.491  11.749   6.358  0.5862 -0.5889 -0.4713
  464MOL0     C62538   4.583  11.778   6.449  0.0829 -0.0173 -0.1463
  464MOL0     C62539   4.711  11.707   6.454 -0.1861 -0.1503  0.7902
  464MOL0     O62540   4.817  11.733   6.532 -0.0032  1.3830  0.1272
  464MOL0     C62541   4.802  11.849   6.609  0.3428 -0.5465 -0.8134
  464MOL0     C62542   4.933  11.884   6.676  0.1633  0.4494  0.4377
  464MOL0     C62543   4.961  12.035   6.706  0.1558  0.8735 -0.2832
  464MOL0     C62544   4.879  12.105   6.813  0.8922  0.0115  0.6555
  464MOL0     C62545   4.892  12.049   6.946  0.2067 -0.2171 -0.2881
  464MOL0     C62546   4.822  12.128   7.063 -0.0073 -0.5409  0.5407
  464MOL0     C62547   4.868  12.082   7.200 -0.5372 -0.7316  0.2619
  464MOL0     C62548   4.761  12.100   7.302  0.6563  0.6756  0.1958
  464MOL0    Cl62549   4.716  12.268   7.325  0.2848  0.2438  0.1724
  464MOL0     C62550   4.734  11.608   6.361  0.5312 -0.1529  0.3463
  464MOL0     C62551   4.632  11.583   6.263 -1.0799  0.2291 -0.5957
  464MOL0     O62552   4.550  11.818   6.043  0.3236  0.3341  0.6678
  464MOL0     C62553   4.211  11.741   6.004  0.4289 -0.8112 -0.5059
  464MOL0     C62554   4.104  11.761   5.931  0.2226 -0.1337  0.4677
  464MOL0     N62555   3.751  11.661   5.192 -0.0737  0.4709  0.2445
  464MOL0     N62556   3.693  11.546   5.209 -0.7891 -1.1441 -0.7576
  464MOL0     C62557   2.890  11.085   5.996 -0.1311 -0.8827  1.0621
  464MOL0     C62558   2.859  10.998   6.098  0.5488  0.2974 -0.1583
  464MOL0     C62559   2.610  10.719   6.338  0.4153 -0.2284 -0.0640
  464MOL0     C62560   2.725  10.702   6.424  0.1442 -0.0780  0.4048
  464MOL0     C62561   2.713  10.646   6.548 -0.1199  0.8257 -0.0583
  464MOL0     C62562   2.596  10.592   6.594 -0.7031 -0.3672  0.0765
  464MOL0     O62563   2.582  10.538   6.720  0.0938  0.5712  0.5971
  464MOL0     C62564   2.451  10.542   6.784 -0.4557 -0.2760 -0.0202
  464MOL0     C62565   2.357  10.422   6.779 -0.0247 -0.8712 -0.4397
  464MOL0     C62566   2.423  10.295   6.852  0.6787 -0.4892  1.2122
  464MOL0     C62567   2.324  10.186   6.875 -0.3555 -0.0151  0.3087
  464MOL0     C62568   2.200  10.223   6.944  0.2037 -0.7989  0.3556
  464MOL0     C62569   2.103  10.242   7.013  0.3049  0.6765  0.1995
  464MOL0     C62570   2.483  10.599   6.505  0.6557  0.2172 -0.4153
  464MOL0     C62571   2.485  10.666   6.381 -1.3698  0.1914  0.1242
  464MOL0     C62572   2.367  10.653   6.283 -0.2852 -0.3038 -0.8141
  464MOL0     H62573   2.694  10.765   5.919  0.9738  0.1410 -0.3906
  464MOL0     H62574   2.732  10.924   5.741  2.8396 -1.1565 -1.6603
  464MOL0     H62575   2.862  11.045   5.583 -1.1607 -0.0403  1.2202
  464MOL0     H62576   2.717  11.137   5.632 -0.6958 -1.4171  0.9868
  464MOL0     H62577   2.883  11.337   5.620 -1.2299  0.5039  0.5554
  464MOL0     H62578   2.808  11.283   5.469 -1.5453 -2.6003 -0.5868
  464MOL0     H62579   3.039  11.169   5.415  0.3539 -3.7051  2.5166
  464MOL0     H62580   3.085  11.189   5.572  0.5754 -1.0990 -1.6923
  464MOL0     H62581   2.989  11.437   5.418 -0.7291 -1.1749  0.1795
  464MOL0     H62582   3.100  11.425   5.557  1.8486 -3.7756  1.5949
  464MOL0     H62583   3.280  11.330   5.417  4.3646  4.2883 -3.7525
  464MOL0     H62584   3.160  11.299   5.286  0.4876  0.0750 -0.1495
  464MOL0     H62585   3.171  11.515   5.223 -0.2210  0.6790  2.1168
  464MOL0     H62586   3.251  11.587   5.359  1.2001  2.1574 -2.2175
  464MOL0     H62587   3.399  11.525   5.153  0.7960 -0.9450 -0.1713
  464MOL0     H62588   3.375  11.349   5.198  0.1736 -1.0656  2.7762
  464MOL0     H62589   3.447  11.457   5.430 -3.0932  0.4326 -1.7045
  464MOL0     H62590   3.557  11.366   5.315  0.8142  0.2598  0.5109
  464MOL0     H62591   3.563  11.726   5.440  0.8653 -1.1906  1.2632
  464MOL0     H62592   3.776  11.918   5.205 -0.4695 -0.6136 -1.1800
  464MOL0     H62593   3.670  11.957   5.347  1.6311  2.5663 -1.6110
  464MOL0     H62594   3.930  11.802   5.347  0.8356  1.5578 -2.4588
  464MOL0     H62595   3.925  11.978   5.348 -0.2637  0.4717  0.5887
  464MOL0     H62596   3.812  11.807   5.553  0.8664 -0.6454 -0.0168
  464MOL0     H62597   3.831  11.978   5.585  0.3869 -0.2979  0.6547
  464MOL0     H62598   4.090  11.924   5.566 -0.3365 -0.8706 -2.6700
  464MOL0     H62599   4.044  11.752   5.566 -0.9861 -0.0834 -0.9204
  464MOL0     H62600   4.265  11.910   5.669 -5.2189 -1.0688 -2.0254
  464MOL0     H62601   4.459  11.874   5.817  0.6511 -1.1677 -3.5137
  464MOL0     H62602   4.406  11.816   6.350  1.0741 -0.2000 -4.3409
  464MOL0     H62603   4.570  11.848   6.531 -5.6568 -0.7381 -0.0165
  464MOL0     H62604   4.781  11.929   6.537 -0.6904  1.3756  1.4608
  464MOL0     H62605   4.726  11.840   6.687  1.0665 -2.3151 -0.2703
  464MOL0     H62606   4.932  11.825   6.768 -2.1539  2.4424  1.8001
  464MOL0     H62607   5.011  11.853   6.606  0.4687 -1.7887  1.6833
  464MOL0     H62608   5.063  12.027   6.746  0.2191 -0.4123 -0.6750
  464MOL0     H62609   4.968  12.092   6.613  0.2347  2.9466  0.9231
  464MOL0     H62610   4.772  12.103   6.792  1.4233 -1.1217 -2.3456
  464MOL0     H62611   4.923  12.205   6.814  1.9749 -0.4529  1.2111
  464MOL0     H62612   4.995  12.034   6.982 -0.3123 -1.2809  0.8315
  464MOL0     H62613   4.839  11.953   6.946 -0.4688  0.1354  1.0210
  464MOL0     H62614   4.838  12.236   7.063 -0.1840 -0.4791 -1.2493
  464MOL0     H62615   4.714  12.118   7.045 -0.3396  0.5632  1.7355
  464MOL0     H62616   4.956  12.138   7.232 -1.3133  0.3429  0.5584
  464MOL0     H62617   4.899  11.978   7.182 -2.4882 -0.9048 -2.9938
  464MOL0     H62618   4.675  12.038   7.275  0.8255 -0.6889  2.5472
  464MOL0     H62619   4.800  12.046   7.389 -2.6155 -2.8121 -0.2115
  464MOL0     H62620   4.827  11.552   6.365  1.4764  1.1817 -1.6599
  464MOL0     H62621   4.652  11.509   6.186 -3.5825 -0.8106 -0.3148
  464MOL0     H62622   4.195  11.703   6.104  2.0228  0.6906  0.3846
  464MOL0     H62623   4.001  11.732   5.952 -0.7286  1.2919 -1.8392
  464MOL0     H62624   2.944  11.177   6.014 -1.4652  0.5241 -1.5907
  464MOL0     H62625   2.886  11.019   6.202  1.3862  0.0909 -0.3228
  464MOL0     H62626   2.826  10.737   6.406  0.6659 -1.0382  1.3399
  464MOL0     H62627   2.805  10.648   6.605  0.8835  0.9601 -1.6294
  464MOL0     H62628   2.394  10.631   6.756 -0.5880 -0.5877 -0.7403
  464MOL0     H62629   2.477  10.568   6.887  1.0529 -0.7633 -0.2522
  464MOL0     H62630   2.333  10.402   6.673 -1.0173 -0.4632 -0.3020
  464MOL0     H62631   2.267  10.455   6.832 -0.2349  1.4706 -2.1049
  464MOL0     H62632   2.463  10.335   6.946  1.0879 -1.7943  1.6076
  464MOL0     H62633   2.505  10.252   6.794  1.0136 -0.7367  1.8625
  464MOL0     H62634   2.301  10.147   6.776 -0.9210  0.7395  0.1378
  464MOL0     H62635   2.384  10.129   6.947 -0.4099  1.3440  1.4685
  464MOL0     H62636   2.022  10.269   7.078 -0.9232 -0.6801 -0.7051
  464MOL0     H62637   2.394  10.542   6.529  0.8029  0.2763  0.2780
  464MOL0     H62638   2.403  10.608   6.191  1.1284 -1.2861  0.1859
  464MOL0     H62639   2.280  10.597   6.318 -0.3190 -0.3614 -0.9907
  464MOL0     H62640   2.330  10.754   6.259 -1.5149 -1.0358 -2.1541
  465MOL0     O62641   5.808   0.748   3.579  0.6405 -0.5040 -0.4244
  465MOL0     C62642   5.818   0.753   3.451  0.3850  0.1338 -0.4161
  465MOL0     O62643   5.870   0.855   3.376  0.1387 -0.2321 -1.1046
  465MOL0     C62644   5.942   0.943   3.453  0.2247 -0.4525  0.1843
  465MOL0     C62645   6.074   0.957   3.416  0.4823  0.5842 -0.4176
  465MOL0     C62646   6.150   1.062   3.474 -0.2794 -0.1187 -0.0542
  465MOL0     C62647   6.097   1.159   3.550  1.0384 -0.4238 -0.0756
  465MOL0     O62648   6.170   1.268   3.597 -0.2537  0.3703 -0.5479
  465MOL0     C62649   6.220   1.257   3.735  0.1877 -1.0977 -0.3073
  465MOL0     C62650   6.327   1.364   3.759 -0.3692 -0.5740 -0.3294
  465MOL0     C62651   6.438   1.374   3.661 -0.3986 -0.2821 -0.3951
  465MOL0     C62652   6.565   1.426   3.732 -0.9755  0.3064  0.3039
  465MOL0     C62653   6.654   1.311   3.794  0.3432 -0.4540  0.0272
  465MOL0     C62654   6.787   1.381   3.808  0.6461 -0.6764 -0.5199
  465MOL0     C62655   6.890   1.296   3.885 -0.0179 -0.2659 -0.2129
  465MOL0     C62656   6.924   1.364   4.025  0.4287 -0.3882  0.3753
  465MOL0     N62657   6.994   1.491   4.002  0.2102 -0.3449  0.5565
  465MOL0     C62658   6.937   1.612   4.017  0.0787  0.5934 -0.6412
  465MOL0     C62659   7.032   1.697   3.987  1.0214 -0.3465 -0.6061
  465MOL0     C62660   7.031   1.844   4.006  0.0690  0.3096  0.5909
  465MOL0     C62661   7.046   1.907   3.870 -0.4552  0.1291  0.4707
  465MOL0     C62662   7.015   2.054   3.856 -0.0337  0.8356 -0.1223
  465MOL0     C62663   6.868   2.087   3.824 -0.1381  0.0670  0.1830
  465MOL0     O62664   6.811   2.138   3.939  0.3622  0.1909 -0.0161
  465MOL0     C62665   6.672   2.164   3.941  0.0238  0.0811 -0.0240
  465MOL0     C62666   6.626   2.209   4.064  0.3258  0.3406 -0.2639
  465MOL0     C62667   6.486   2.221   4.076 -0.9915  0.0959  0.4681
  465MOL0     C62668   6.397   2.214   3.972 -0.6984 -0.0038 -0.2364
  465MOL0     C62669   6.253   2.236   3.987  0.2044  0.1796  0.9612
  465MOL0     O62670   6.177   2.211   3.877 -0.2267  0.4783  0.0161
  465MOL0     C62671   6.036   2.241   3.886 -0.5681 -0.9381  0.0215
  465MOL0     C62672   5.935   2.151   3.899 -0.6194 -0.2631  0.2073
  465MOL0     C62673   5.799   2.195   3.914  0.2920  0.3244 -0.7517
  465MOL0     C62674   5.763   2.334   3.922  0.0706  0.2359 -0.2087
  465MOL0     O62675   5.633   2.354   3.944  0.6433  0.3086 -0.1494
  465MOL0     C62676   5.584   2.460   4.026 -0.8440  1.1184  0.3630
  465MOL0     C62677   5.485   2.406   4.121  0.3678  0.4243 -0.7609
  465MOL0     C62678   5.454   2.511   4.230 -0.0966  0.3159 -0.6802
  465MOL0     C62679   5.332   2.457   4.306 -0.2755 -0.1177 -0.8965
  465MOL0     C62680   5.235   2.561   4.370 -0.5890 -0.3056 -0.5750
  465MOL0     C62681   5.140   2.611   4.266 -0.0782 -0.4291 -0.3172
  465MOL0     C62682   5.015   2.671   4.332  0.1795 -0.4872  0.9206
  465MOL0     C62683   5.025   2.765   4.455  0.1060  0.4646 -0.4761
  465MOL0    Cl62684   5.122   2.901   4.404 -0.4429  0.8612  0.2017
  465MOL0     C62685   5.870   2.429   3.915 -1.0615  0.8470  0.6535
  465MOL0     C62686   6.001   2.382   3.890 -0.1165  0.5149  0.1009
  465MOL0     O62687   6.212   2.276   4.088 -0.1732 -0.2618  0.0853
  465MOL0     C62688   6.444   2.166   3.851  0.8778  0.1491  0.2001
  465MOL0     C62689   6.578   2.148   3.835  0.2759 -0.0473 -0.1673
  465MOL0     N62690   7.147   1.633   3.953 -0.1031 -0.0518 -0.2524
  465MOL0     N62691   7.122   1.506   3.959 -1.0561 -0.1815  0.3306
  465MOL0     C62692   5.964   1.143   3.598 -0.1463  0.0571  0.5371
  465MOL0     C62693   5.892   1.037   3.553  0.1703 -0.3053  0.1172
  465MOL0     C62694   5.775   0.638   3.370  0.3621 -0.1916 -0.1786
  465MOL0     C62695   5.842   0.618   3.247 -0.1995 -0.3404 -0.2922
  465MOL0     C62696   5.818   0.501   3.168  0.1467  0.2785  0.3536
  465MOL0     C62697   5.739   0.399   3.215  0.0792  0.1526  0.3917
  465MOL0     O62698   5.701   0.285   3.155 -0.0828  0.4061 -0.8189
  465MOL0     C62699   5.744   0.258   3.018  0.7595  0.1116  0.3622
  465MOL0     C62700   5.665   0.141   2.967  0.2382  0.0692  0.6848
  465MOL0     C62701   5.710   0.079   2.834  0.0177 -0.7286 -0.6178
  465MOL0     C62702   5.627  -0.024   2.763  0.2085  0.3934  0.3618
  465MOL0     C62703   5.628  -0.151   2.828 -1.1677  0.5906 -0.2333
  465MOL0     C62704   5.656  -0.267   2.865  0.9008  0.0732 -0.0597
  465MOL0     C62705   5.671   0.425   3.328 -1.0282  0.1444 -0.9037
  465MOL0     C62706   5.686   0.535   3.413 -0.7290 -0.7935 -0.1734
  465MOL0     C62707   5.604   0.549   3.536 -1.1158 -0.9787  0.1672
  465MOL0     H62708   6.118   0.889   3.344  0.8143 -0.7527  0.9833
  465MOL0     H62709   6.251   1.063   3.435 -0.9939  1.1214 -2.0262
  465MOL0     H62710   6.133   1.292   3.790 -0.4400  0.7479 -2.2931
  465MOL0     H62711   6.260   1.158   3.760  1.1713 -0.9573 -1.2415
  465MOL0     H62712   6.374   1.331   3.852 -2.0194 -3.2589 -0.3351
  465MOL0     H62713   6.275   1.460   3.751 -1.1626 -0.9981 -0.3327
  465MOL0     H62714   6.416   1.439   3.575 -1.2530 -4.1134 -3.3712
  465MOL0     H62715   6.456   1.274   3.620  0.5937  1.0134 -3.4372
  465MOL0     H62716   6.621   1.476   3.652  0.0008  2.2536  2.1204
  465MOL0     H62717   6.533   1.497   3.808 -1.3725  0.1421  0.2957
  465MOL0     H62718   6.615   1.267   3.886 -1.1036 -0.4527 -0.5488
  465MOL0     H62719   6.669   1.224   3.729  0.9092 -0.2100 -0.1729
  465MOL0     H62720   6.830   1.407   3.711  2.0292  0.0088  0.2386
  465MOL0     H62721   6.771   1.471   3.868  1.2365 -1.1327  0.3613
  465MOL0     H62722   6.984   1.303   3.829  0.8486 -0.1859  1.2230
  465MOL0     H62723   6.868   1.189   3.890  0.2994 -0.3564 -0.6318
  465MOL0     H62724   6.832   1.366   4.084  1.0373  0.4564  1.3029
  465MOL0     H62725   6.988   1.295   4.081  1.6934 -0.8767 -1.5290
  465MOL0     H62726   6.836   1.627   4.053  0.1893  2.9707 -1.1479
  465MOL0     H62727   6.937   1.875   4.053 -0.2573 -1.1845  0.9994
  465MOL0     H62728   7.106   1.885   4.075 -0.7355  3.8014 -0.4079
  465MOL0     H62729   7.150   1.891   3.842  0.2353  1.0180  2.3454
  465MOL0     H62730   6.977   1.851   3.806  0.0161  0.0913 -0.0154
  465MOL0     H62731   7.067   2.096   3.770 -2.7000 -1.0101 -2.8633
  465MOL0     H62732   7.039   2.108   3.948  0.0661  1.8701 -0.7348
  465MOL0     H62733   6.813   2.006   3.776 -0.9338  2.8394 -4.0833
  465MOL0     H62734   6.863   2.173   3.757  0.4832  0.0397  0.0928
  465MOL0     H62735   6.697   2.230   4.143  3.7434  2.7757 -3.6127
  465MOL0     H62736   6.462   2.261   4.174  0.4456  1.0601  0.4502
  465MOL0     H62737   5.957   2.045   3.885  0.7102 -0.0429  0.5256
  465MOL0     H62738   5.719   2.122   3.918 -0.6251  1.3487  1.8342
  465MOL0     H62739   5.671   2.496   4.081 -1.4101  3.2971 -0.0835
  465MOL0     H62740   5.544   2.550   3.979 -0.5142  1.2019  0.2437
  465MOL0     H62741   5.394   2.383   4.065 -0.6786 -1.6561  1.6064
  465MOL0     H62742   5.532   2.319   4.168  0.9473 -1.0169 -3.7765
  465MOL0     H62743   5.542   2.530   4.292  0.8690  1.2591 -2.2709
  465MOL0     H62744   5.421   2.600   4.176  2.7015  1.8775 -0.0089
  465MOL0     H62745   5.384   2.406   4.388 -0.2061  0.4945 -0.5509
  465MOL0     H62746   5.266   2.391   4.250  2.6048 -2.4706 -1.7651
  465MOL0     H62747   5.281   2.641   4.430  0.5366 -1.2291 -0.1642
  465MOL0     H62748   5.177   2.500   4.440  1.1657 -1.1658  0.1802
  465MOL0     H62749   5.187   2.693   4.212 -1.4823  0.9548  0.5049
  465MOL0     H62750   5.117   2.523   4.206 -0.3917  1.2269 -2.7468
  465MOL0     H62751   4.938   2.600   4.364  0.8053 -0.9810  1.3470
  465MOL0     H62752   4.980   2.725   4.244 -0.4441 -2.9496 -0.4391
  465MOL0     H62753   4.922   2.798   4.470  0.1851 -0.0705  1.5133
  465MOL0     H62754   5.066   2.719   4.546 -2.6661 -1.2476  0.0443
  465MOL0     H62755   5.854   2.536   3.909  0.1323  0.9583 -2.0924
  465MOL0     H62756   6.087   2.448   3.885  0.4883 -0.2150  0.6041
  465MOL0     H62757   6.383   2.167   3.762  1.6013 -1.3583 -0.3578
  465MOL0     H62758   6.608   2.122   3.733  1.7987 -0.4610  0.3521
  465MOL0     H62759   5.917   1.219   3.659 -0.6569 -0.4963  0.8494
  465MOL0     H62760   5.791   1.025   3.590  0.2376  1.0888  0.8166
  465MOL0     H62761   5.922   0.682   3.210 -2.0145  1.5894 -1.0313
  465MOL0     H62762   5.870   0.502   3.073 -0.1489  1.9019  0.1746
  465MOL0     H62763   5.848   0.225   3.013  0.6594 -1.0667  3.5074
  465MOL0     H62764   5.739   0.344   2.950  1.7931 -1.4739 -1.8143
  465MOL0     H62765   5.566   0.183   2.948  0.7410  1.4898  1.0844
  465MOL0     H62766   5.648   0.063   3.042  1.6624 -0.9745 -0.0404
  465MOL0     H62767   5.798   0.017   2.855  0.7815 -0.0223 -1.6281
  465MOL0     H62768   5.750   0.156   2.768  0.8685  2.2651  3.0933
  465MOL0     H62769   5.523   0.008   2.757  0.1164  1.4682  4.7590
  465MOL0     H62770   5.668  -0.026   2.661  2.7983  0.0750  1.3310
  465MOL0     H62771   5.672  -0.367   2.899 -0.0385 -0.4664 -1.1418
  465MOL0     H62772   5.613   0.347   3.375 -2.3846  1.4402 -0.3235
  465MOL0     H62773   5.668   0.522   3.621  1.8460 -0.1271 -1.6272
  465MOL0     H62774   5.562   0.648   3.550  2.0840  0.1963  2.6306
  465MOL0     H62775   5.516   0.484   3.533 -1.9998  0.1715  0.6048
  466MOL0     O62776   3.180   8.532   9.993  0.0899  0.8285 -0.3057
  466MOL0     C62777   3.228   8.480  10.093  0.4937  0.5435 -0.7922
  466MOL0     O62778   3.352   8.414  10.101  0.2704 -0.2125  0.2119
  466MOL0     C62779   3.440   8.417   9.996 -0.3196  0.2770 -0.9567
  466MOL0     C62780   3.519   8.300   9.977  0.1211 -0.4366 -0.2969
  466MOL0     C62781   3.609   8.288   9.875  0.4912  0.2599  0.8471
  466MOL0     C62782   3.607   8.381   9.768  0.1575  0.3001  0.3373
  466MOL0     O62783   3.686   8.378   9.653 -0.1453  0.2626  0.2541
  466MOL0     C62784   3.739   8.251   9.616  0.4673  0.1974  0.4209
  466MOL0     C62785   3.821   8.253   9.482  0.8261 -0.4690  0.5086
  466MOL0     C62786   3.722   8.310   9.373  0.1486 -0.5372 -0.3570
  466MOL0     C62787   3.772   8.296   9.231 -0.4039  0.2060  0.9219
  466MOL0     C62788   3.704   8.386   9.125  0.2946 -0.0565 -0.4955
  466MOL0     C62789   3.771   8.388   8.989  0.1835 -0.3460 -0.5124
  466MOL0     C62790   3.664   8.429   8.885  0.1690  0.7028 -0.1073
  466MOL0     C62791   3.736   8.436   8.751 -0.1937 -0.2097 -0.1154
  466MOL0     N62792   3.643   8.496   8.654 -0.0811 -0.0710 -0.8945
  466MOL0     C62793   3.563   8.611   8.678 -0.5218  0.9751 -0.1617
  466MOL0     C62794   3.496   8.637   8.562 -0.5579 -1.6456  0.2220
  466MOL0     C62795   3.396   8.753   8.545 -0.0417 -0.5314  0.9092
  466MOL0     C62796   3.271   8.740   8.632  0.4127  0.1698 -0.4789
  466MOL0     C62797   3.279   8.778   8.786 -0.0274  0.1769  0.9237
  466MOL0     C62798   3.159   8.726   8.862 -0.0744 -0.5955 -0.2246
  466MOL0     O62799   3.159   8.577   8.866  0.5118 -0.1119 -0.2446
  466MOL0     C62800   3.196   8.507   8.975  0.6310 -0.0887  0.6220
  466MOL0     C62801   3.280   8.550   9.080  0.2997  0.0671 -0.2554
  466MOL0     C62802   3.306   8.465   9.188  0.0432  0.1978  0.3143
  466MOL0     C62803   3.234   8.353   9.210 -0.3612  1.2939 -0.4012
  466MOL0     C62804   3.257   8.264   9.333 -0.4030 -0.6562  0.4292
  466MOL0     O62805   3.341   8.305   9.431 -0.4511  0.4683 -0.4265
  466MOL0     C62806   3.320   8.239   9.545 -0.4757  0.9208  0.3294
  466MOL0     C62807   3.365   8.103   9.564  0.0624  0.3000 -0.3493
  466MOL0     C62808   3.326   8.042   9.683 -1.0545 -0.2459  0.4420
  466MOL0     C62809   3.260   8.115   9.784 -0.6160  0.4633 -0.1264
  466MOL0     O62810   3.206   8.032   9.884 -0.2842 -0.4512 -0.0826
  466MOL0     C62811   3.176   8.089  10.009  0.0355 -0.3236  0.9314
  466MOL0     C62812   3.154   7.982  10.119  0.9717 -0.6170 -0.5281
  466MOL0     C62813   3.110   8.048  10.261  1.4957 -0.0825  0.4581
  466MOL0     C62814   3.156   7.949  10.378 -0.2696 -0.6324 -0.5171
  466MOL0     C62815   3.114   8.021  10.513  0.4976 -0.6136 -0.7838
  466MOL0     C62816   3.134   7.936  10.636  0.9105  0.1562 -0.7835
  466MOL0     C62817   3.024   7.834  10.657 -0.7891  0.3656  0.1751
  466MOL0     C62818   3.045   7.750  10.775 -0.1980 -0.4052  0.6320
  466MOL0    Cl62819   3.175   7.635  10.749  0.4439 -0.3809 -0.1792
  466MOL0     C62820   3.234   8.245   9.764 -0.4912 -0.8811  0.3866
  466MOL0     C62821   3.273   8.316   9.650 -0.4966 -0.2606  0.8775
  466MOL0     O62822   3.175   8.168   9.345 -0.3766 -0.8525  0.2650
  466MOL0     C62823   3.148   8.312   9.113 -0.3533 -0.2512  0.3727
  466MOL0     C62824   3.138   8.378   8.991 -0.6354  0.0167  0.2938
  466MOL0     N62825   3.533   8.545   8.468  1.0880 -0.3005  0.0322
  466MOL0     N62826   3.629   8.465   8.519 -0.3851  0.0476 -0.0067
  466MOL0     C62827   3.531   8.491   9.785 -0.1704 -0.3833  0.0463
  466MOL0     C62828   3.453   8.516   9.897  0.8027  0.5104  0.2537
  466MOL0     C62829   3.153   8.458  10.221 -0.3319  0.3877 -0.1203
  466MOL0     C62830   3.221   8.459  10.339 -1.0406 -1.1556 -1.4138
  466MOL0     C62831   3.166   8.422  10.466 -0.6637 -0.3834  0.2722
  466MOL0     C62832   3.029   8.390  10.467 -1.0331  0.0947  0.7076
  466MOL0     O62833   2.969   8.345  10.578  0.4720  0.6916  0.5375
  466MOL0     C62834   3.032   8.352  10.709 -0.6280 -0.2919 -0.1739
  466MOL0     C62835   2.940   8.333  10.824  0.1534 -0.3341 -0.0916
  466MOL0     C62836   2.813   8.258  10.796 -0.2418 -0.4994 -0.0501
  466MOL0     C62837   2.740   8.250  10.929 -0.2522 -0.6747  0.9739
  466MOL0     C62838   2.609   8.171  10.912  0.0545  1.0541  0.2910
  466MOL0     C62839   2.497   8.136  10.914  0.1593  0.1628 -0.0560
  466MOL0     C62840   2.960   8.377  10.344 -0.3079 -1.2424  0.6205
  466MOL0     C62841   3.022   8.419  10.218 -0.5681 -0.6638  0.4317
  466MOL0     C62842   2.944   8.396  10.093  1.0333 -0.5009 -0.0073
  466MOL0     H62843   3.495   8.227  10.054 -2.2528  1.1278  0.5552
  466MOL0     H62844   3.669   8.198   9.866  0.7754  0.5901 -0.7690
  466MOL0     H62845   3.801   8.215   9.698 -2.5046  2.1657  3.8695
  466MOL0     H62846   3.653   8.187   9.593 -0.7875  1.9081  0.1385
  466MOL0     H62847   3.845   8.147   9.471 -0.7441 -1.1375  2.9130
  466MOL0     H62848   3.913   8.311   9.493  1.7357 -1.2770 -1.9928
  466MOL0     H62849   3.710   8.415   9.397  1.5723  0.1691 -2.4184
  466MOL0     H62850   3.623   8.266   9.390 -0.2425  0.5860  0.2989
  466MOL0     H62851   3.878   8.324   9.224  0.3697 -2.3782  1.2862
  466MOL0     H62852   3.768   8.188   9.217  0.5781  0.1705  0.8133
  466MOL0     H62853   3.599   8.355   9.124  0.3794 -0.3748 -1.7636
  466MOL0     H62854   3.699   8.485   9.170  0.6657 -0.3215  0.1613
  466MOL0     H62855   3.852   8.461   8.993  0.2110 -0.4446  1.5477
  466MOL0     H62856   3.817   8.289   8.975 -0.7768 -0.8489 -0.2183
  466MOL0     H62857   3.630   8.526   8.921  0.2322  0.0300  1.9395
  466MOL0     H62858   3.589   8.349   8.883  3.1888 -2.4892 -3.7924
  466MOL0     H62859   3.832   8.486   8.762 -0.1709 -0.5216  1.2499
  466MOL0     H62860   3.758   8.336   8.714  2.7907  0.4150 -0.2791
  466MOL0     H62861   3.592   8.680   8.757  2.4131  1.5038 -1.5350
  466MOL0     H62862   3.453   8.846   8.556  0.5361 -0.8436  0.5898
  466MOL0     H62863   3.371   8.743   8.439 -0.6517 -2.9212  1.2078
  466MOL0     H62864   3.199   8.807   8.586  0.4328 -0.2112 -1.0668
  466MOL0     H62865   3.229   8.640   8.619 -1.8449  0.8655  0.9296
  466MOL0     H62866   3.287   8.887   8.789 -1.3303  0.3827 -0.8687
  466MOL0     H62867   3.366   8.738   8.838  0.8824 -3.1553 -2.6529
  466MOL0     H62868   3.072   8.758   8.803  0.4193  1.4487  0.0897
  466MOL0     H62869   3.146   8.776   8.958 -0.6523  0.6708 -0.9316
  466MOL0     H62870   3.317   8.651   9.068 -2.4052  1.0636 -1.0172
  466MOL0     H62871   3.371   8.496   9.269 -2.6375  3.0085  1.6217
  466MOL0     H62872   3.412   8.059   9.477  1.3708 -0.3236  0.6363
  466MOL0     H62873   3.347   7.940   9.716  4.3620  0.3624 -0.1446
  466MOL0     H62874   3.258   8.153  10.041  1.4055 -1.6159  0.1288
  466MOL0     H62875   3.091   8.157  10.010  0.0708 -0.2725  1.7667
  466MOL0     H62876   3.079   7.907  10.091 -2.0609  1.9252  0.3071
  466MOL0     H62877   3.249   7.930  10.136 -1.3257 -4.5377  1.8331
  466MOL0     H62878   3.153   8.147  10.279  2.4867 -0.8563  2.6187
  466MOL0     H62879   3.002   8.062  10.263  1.5147  0.3526 -0.7553
  466MOL0     H62880   3.265   7.944  10.388 -0.2317  0.8962  0.1663
  466MOL0     H62881   3.100   7.859  10.352 -3.9877  1.7822 -1.6528
  466MOL0     H62882   3.013   8.061  10.499  0.0157 -1.9053 -1.0798
  466MOL0     H62883   3.168   8.116  10.526  0.1838 -0.3382 -1.4744
  466MOL0     H62884   3.230   7.884  10.636 -0.4894 -2.6791  1.2903
  466MOL0     H62885   3.125   8.005  10.721  0.8494 -0.0130 -0.6526
  466MOL0     H62886   3.013   7.770  10.569 -0.7707 -0.4307  0.7392
  466MOL0     H62887   2.929   7.886  10.668 -1.5702 -1.0670  0.4213
  466MOL0     H62888   3.068   7.812  10.861  1.1443  0.5099 -0.3368
  466MOL0     H62889   2.945   7.706  10.781 -1.6325  2.2995 -1.1394
  466MOL0     H62890   3.174   8.309   9.829 -1.0971 -1.4709  0.4196
  466MOL0     H62891   3.243   8.420   9.640  0.5742  0.0968  1.2288
  466MOL0     H62892   3.082   8.229   9.134  0.4701 -1.4147 -1.3771
  466MOL0     H62893   3.077   8.325   8.918 -0.1063 -1.1735  0.6961
  466MOL0     H62894   3.537   8.581   9.724  1.8118 -1.4492 -1.4503
  466MOL0     H62895   3.396   8.608   9.892  0.3675  0.1697 -2.2902
  466MOL0     H62896   3.324   8.494  10.337 -2.0808  2.7862  1.3339
  466MOL0     H62897   3.240   8.421  10.546  0.5542  0.5100 -0.7989
  466MOL0     H62898   3.091   8.442  10.724 -0.2415 -0.7488  1.1169
  466MOL0     H62899   3.101   8.267  10.710  3.3121  2.6237 -0.1524
  466MOL0     H62900   2.912   8.433  10.859  0.9477  0.2006 -0.9405
  466MOL0     H62901   3.000   8.289  10.904 -0.5160 -0.2732  0.4517
  466MOL0     H62902   2.844   8.159  10.760 -1.6446 -1.3165  0.8588
  466MOL0     H62903   2.749   8.314  10.727 -3.0000 -2.7275  0.4813
  466MOL0     H62904   2.787   8.176  10.995 -0.2406 -0.8422  0.7809
  466MOL0     H62905   2.716   8.349  10.969  2.6134 -0.0571  1.3666
  466MOL0     H62906   2.398   8.098  10.920  0.1952  0.2614  2.8073
  466MOL0     H62907   2.861   8.333  10.345 -0.7873 -0.2265 -0.2866
  466MOL0     H62908   2.910   8.492  10.053  0.0752 -2.2598 -3.8611
  466MOL0     H62909   2.999   8.334  10.021 -2.2016 -3.0481 -0.4912
  466MOL0     H62910   2.862   8.328  10.117 -0.1733  0.6324 -0.8335
  467MOL0     O62911   3.070   0.943   3.491  0.4744 -0.2945 -1.1440
  467MOL0     C62912   3.079   0.855   3.407 -0.8991 -0.3853 -0.0527
  467MOL0     O62913   3.175   0.759   3.407 -0.5546  0.0292 -0.4513
  467MOL0     C62914   3.298   0.769   3.469  0.1589 -0.2729  0.0789
  467MOL0     C62915   3.354   0.653   3.519  0.7379  0.8036 -0.1551
  467MOL0     C62916   3.487   0.651   3.561 -0.4199 -0.3842  0.0757
  467MOL0     C62917   3.562   0.769   3.575 -0.6020  0.0409  0.0550
  467MOL0     O62918   3.690   0.771   3.612 -0.1626 -0.4030  0.1838
  467MOL0     C62919   3.757   0.650   3.640  0.5360 -0.5371  0.6129
  467MOL0     C62920   3.902   0.668   3.681 -0.1000  0.2402  1.0841
  467MOL0     C62921   3.936   0.752   3.809 -0.1578 -1.0171 -0.3373
  467MOL0     C62922   3.934   0.661   3.937  0.2330 -0.1967 -0.9232
  467MOL0     C62923   4.067   0.674   4.013  0.6003  0.6220 -0.9534
  467MOL0     C62924   4.046   0.591   4.155 -1.0574 -0.3995  0.0385
  467MOL0     C62925   4.177   0.580   4.234 -0.3175 -0.9345  0.0972
  467MOL0     C62926   4.176   0.499   4.370 -0.4243 -0.0328  0.4449
  467MOL0     N62927   4.203   0.360   4.334 -0.0220 -0.2891  0.8725
  467MOL0     C62928   4.119   0.261   4.290  1.5092  0.2634 -0.2751
  467MOL0     C62929   4.180   0.143   4.286 -0.7902  0.6363  0.1092
  467MOL0     C62930   4.118   0.004   4.250  0.1224 -0.8981 -0.2938
  467MOL0     C62931   3.966  -0.005   4.281 -1.0388 -0.2140  0.4959
  467MOL0     C62932   3.917  -0.155   4.284 -0.2673  0.1037 -0.3469
  467MOL0     C62933   3.774  -0.159   4.250 -0.5562  0.8016  0.2446
  467MOL0     O62934   3.705  -0.077   4.346 -0.4375 -0.6012  0.1810
  467MOL0     C62935   3.581  -0.033   4.324  0.4668 -0.1662  1.1462
  467MOL0     C62936   3.511   0.050   4.406 -0.1845 -0.0374  0.5063
  467MOL0     C62937   3.377   0.083   4.401  0.0361 -0.5159  0.0149
  467MOL0     C62938   3.298   0.040   4.296  0.4055 -0.7233  1.0565
  467MOL0     C62939   3.153   0.059   4.296 -0.2759 -0.3942  0.1413
  467MOL0     O62940   3.103   0.156   4.385 -0.1059  0.0154 -0.0343
  467MOL0     C62941   2.965   0.172   4.372  0.0992 -0.5862  0.1283
  467MOL0     C62942   2.925   0.300   4.363  0.0758 -0.2427 -0.2787
  467MOL0     C62943   2.791   0.340   4.351 -0.1263 -0.0998 -1.0213
  467MOL0     C62944   2.704   0.238   4.358 -0.1834 -1.1770 -0.0911
  467MOL0     O62945   2.567   0.255   4.362 -1.1170  0.3980 -0.2367
  467MOL0     C62946   2.510   0.385   4.349  0.5905  0.0113 -0.0083
  467MOL0     C62947   2.361   0.372   4.353  1.3805 -0.8421  0.3168
  467MOL0     C62948   2.307   0.303   4.486  0.5930  0.5402  0.4875
  467MOL0     C62949   2.160   0.350   4.509 -0.6572 -0.1702  0.9307
  467MOL0     C62950   2.101   0.333   4.658  0.0591 -0.3802  0.4129
  467MOL0     C62951   1.979   0.430   4.691 -0.1368 -0.5716  0.0713
  467MOL0     C62952   1.878   0.390   4.795 -0.3229  0.6522  0.3823
  467MOL0     C62953   1.779   0.506   4.812 -1.1277 -0.5381  0.7530
  467MOL0    Cl62954   1.720   0.588   4.664 -0.0260 -0.1428  0.3519
  467MOL0     C62955   2.741   0.099   4.369 -0.6377 -0.4328 -0.1797
  467MOL0     C62956   2.877   0.074   4.385  0.3405 -0.4865  0.8647
  467MOL0     O62957   3.089  -0.001   4.208 -0.5978 -0.3735  0.1703
  467MOL0     C62958   3.363  -0.037   4.196 -0.2431 -0.6458 -0.0521
  467MOL0     C62959   3.500  -0.076   4.217 -0.7249  1.3263 -0.8221
  467MOL0     N62960   4.304   0.172   4.334  0.3397  0.7255  0.8451
  467MOL0     N62961   4.319   0.300   4.348  0.1614 -0.2606  0.4978
  467MOL0     C62962   3.506   0.890   3.537  0.7569 -0.4242  0.5101
  467MOL0     C62963   3.375   0.886   3.478  0.5246 -0.0432 -0.9021
  467MOL0     C62964   2.991   0.831   3.292  0.4634 -0.7802 -0.1787
  467MOL0     C62965   2.979   0.705   3.235  0.0351 -0.0658  0.8431
  467MOL0     C62966   2.898   0.681   3.119 -0.3843  0.8308 -0.5579
  467MOL0     C62967   2.826   0.788   3.061  0.2921  0.0737  0.4102
  467MOL0     O62968   2.747   0.776   2.946  0.2969  0.0037 -0.2962
  467MOL0     C62969   2.736   0.666   2.863 -0.4858  0.5010 -0.3793
  467MOL0     C62970   2.643   0.553   2.925 -1.3486  0.5514 -0.1122
  467MOL0     C62971   2.498   0.606   2.963  0.1378 -0.6042  0.1399
  467MOL0     C62972   2.402   0.492   2.968  1.0828 -0.2264  0.2953
  467MOL0     C62973   2.426   0.431   3.101  0.2133 -0.5409  0.9301
  467MOL0     C62974   2.473   0.380   3.198 -0.2934  0.0095 -0.3391
  467MOL0     C62975   2.827   0.914   3.123  0.0632 -0.5999 -0.0456
  467MOL0     C62976   2.905   0.937   3.236  0.5674  0.9463  0.0264
  467MOL0     C62977   2.879   1.077   3.296 -0.5483  0.2342  0.4307
  467MOL0     H62978   3.292   0.564   3.512  0.0608  1.1022  1.6104
  467MOL0     H62979   3.533   0.556   3.587  0.5735 -0.2694 -1.1428
  467MOL0     H62980   3.701   0.610   3.725  1.2411 -0.4079  1.1405
  467MOL0     H62981   3.749   0.582   3.555  0.5274 -0.7834  0.8077
  467MOL0     H62982   3.957   0.706   3.595  1.5407 -1.3438  1.3885
  467MOL0     H62983   3.935   0.564   3.688  0.2327  0.2319 -0.3004
  467MOL0     H62984   3.870   0.837   3.832  1.8007  0.0984  1.5200
  467MOL0     H62985   4.035   0.797   3.804 -0.3304 -0.7344 -1.5944
  467MOL0     H62986   3.851   0.690   4.001  0.0886 -2.9062  0.2328
  467MOL0     H62987   3.917   0.558   3.905 -2.3886  0.7275 -2.8287
  467MOL0     H62988   4.146   0.626   3.955  1.2595 -1.1345  1.2340
  467MOL0     H62989   4.096   0.779   4.026 -2.0131  1.6716 -2.7608
  467MOL0     H62990   3.979   0.632   4.232  1.8939  1.0761  2.0351
  467MOL0     H62991   4.011   0.490   4.130 -1.1388 -0.3105 -0.2071
  467MOL0     H62992   4.211   0.684   4.245 -0.4335 -0.7904 -0.8440
  467MOL0     H62993   4.250   0.538   4.164 -0.9069 -0.0297 -1.1065
  467MOL0     H62994   4.265   0.547   4.413  1.9467 -0.5750 -3.3464
  467MOL0     H62995   4.079   0.513   4.418 -0.1910  1.4043  0.5498
  467MOL0     H62996   4.015   0.269   4.259  1.3094  2.2179  0.7519
  467MOL0     H62997   4.143  -0.010   4.144  2.0670 -0.7957  0.1009
  467MOL0     H62998   4.165  -0.066   4.320  1.9925 -0.4676 -1.0458
  467MOL0     H62999   3.938   0.043   4.375 -0.3132  1.6896 -0.2111
  467MOL0     H63000   3.913   0.045   4.199 -0.9986  0.2869  0.7749
  467MOL0     H63001   3.926  -0.193   4.387  3.2148  2.1566  0.2710
  467MOL0     H63002   3.987  -0.209   4.220  1.4616  1.5869  0.1792
  467MOL0     H63003   3.726  -0.258   4.249  0.7258  0.1011 -2.5697
  467MOL0     H63004   3.759  -0.116   4.150  1.3096 -0.5897 -0.6906
  467MOL0     H63005   3.566   0.085   4.492  0.7995 -0.5564  0.1051
  467MOL0     H63006   3.346   0.150   4.480  2.6679  0.3524  0.4101
  467MOL0     H63007   2.997   0.380   4.350  1.0096 -1.2510 -1.4763
  467MOL0     H63008   2.764   0.444   4.336  1.4988  1.1140  2.9063
  467MOL0     H63009   2.541   0.447   4.434 -1.4996  0.3023  0.6031
  467MOL0     H63010   2.542   0.450   4.266  2.0694  1.2141  1.4334
  467MOL0     H63011   2.323   0.474   4.360  0.1672 -1.3677  3.2450
  467MOL0     H63012   2.329   0.319   4.263 -1.1185  0.7949  0.1566
  467MOL0     H63013   2.322   0.195   4.480  0.8388  0.5508  0.8995
  467MOL0     H63014   2.367   0.335   4.571  0.0678 -0.2722  1.1760
  467MOL0     H63015   2.084   0.310   4.442 -0.3342 -0.6656  0.8565
  467MOL0     H63016   2.153   0.459   4.501  0.4366 -0.1965 -0.9280
  467MOL0     H63017   2.179   0.335   4.735  0.8369 -0.4743 -0.3562
  467MOL0     H63018   2.044   0.240   4.670 -2.2483  1.2454  3.1824
  467MOL0     H63019   2.023   0.529   4.708  0.9845 -0.7695 -1.4224
  467MOL0     H63020   1.927   0.445   4.595  0.1378 -1.5377 -0.2398
  467MOL0     H63021   1.930   0.375   4.891 -3.5313 -0.3404  2.1047
  467MOL0     H63022   1.827   0.297   4.770  0.6415  0.1203  0.3217
  467MOL0     H63023   1.698   0.451   4.861 -0.9904  0.0701  1.6780
  467MOL0     H63024   1.819   0.590   4.870 -3.4029  2.2152 -1.3793
  467MOL0     H63025   2.679   0.011   4.388  2.5705 -2.8192  0.0633
  467MOL0     H63026   2.909  -0.030   4.387  0.9070 -0.3342  0.0497
  467MOL0     H63027   3.312  -0.071   4.107  2.0137  1.1936 -2.2103
  467MOL0     H63028   3.539  -0.157   4.156 -2.1290  0.5785 -0.7646
  467MOL0     H63029   3.562   0.983   3.538 -0.0569  0.1551 -1.5208
  467MOL0     H63030   3.342   0.987   3.455 -1.4450 -0.5217 -0.3582
  467MOL0     H63031   3.047   0.627   3.266  0.4164 -0.1413 -0.1358
  467MOL0     H63032   2.909   0.582   3.075  0.5865  1.9480 -3.0476
  467MOL0     H63033   2.833   0.617   2.854  0.1314  1.4323  0.9238
  467MOL0     H63034   2.703   0.708   2.767  2.4178  2.3587 -0.6998
  467MOL0     H63035   2.696   0.511   3.011 -1.4097 -1.0926 -0.8322
  467MOL0     H63036   2.651   0.472   2.852  2.0235  0.1709  0.5130
  467MOL0     H63037   2.470   0.674   2.882 -0.1636 -0.5584  0.2819
  467MOL0     H63038   2.508   0.665   3.055 -1.7050 -1.5122  0.9682
  467MOL0     H63039   2.302   0.536   2.966  2.3234  2.9338 -2.6439
  467MOL0     H63040   2.410   0.416   2.891  1.5876  0.4688 -0.3484
  467MOL0     H63041   2.509   0.350   3.295  2.6480  3.3582 -0.1930
  467MOL0     H63042   2.774   0.993   3.071  0.5397  0.2453  0.7205
  467MOL0     H63043   2.836   1.078   3.397  1.8148 -2.6278  1.6100
  467MOL0     H63044   2.978   1.121   3.315 -0.5933  0.5706 -0.0766
  467MOL0     H63045   2.816   1.131   3.225  2.1413  1.3872 -1.2380
  468MOL0     O63046   9.797   4.551   3.839 -0.1641  0.0253  0.1662
  468MOL0     C63047   9.800   4.663   3.895  0.1594 -0.3012 -0.6670
  468MOL0     O63048   9.684   4.730   3.931 -0.1402 -0.0185 -0.3745
  468MOL0     C63049   9.571   4.676   3.889  0.1561  0.3313  0.6966
  468MOL0     C63050   9.511   4.571   3.964  0.7704  0.7322 -0.5359
  468MOL0     C63051   9.392   4.504   3.927  0.0071 -0.6733 -0.0766
  468MOL0     C63052   9.319   4.548   3.817 -0.0510  0.5294 -0.1838
  468MOL0     O63053   9.213   4.484   3.766 -0.2462 -0.2351  0.2256
  468MOL0     C63054   9.149   4.383   3.841  0.6567  0.2591 -0.1249
  468MOL0     C63055   9.073   4.435   3.957 -0.2015  0.5883 -0.1812
  468MOL0     C63056   8.987   4.322   4.011  0.3181  0.8155  0.9321
  468MOL0     C63057   8.846   4.338   3.940  0.9258  0.4717 -0.1729
  468MOL0     C63058   8.744   4.232   3.985  0.3357  0.5411  0.6048
  468MOL0     C63059   8.613   4.265   3.930 -0.5126 -0.1708  0.2995
  468MOL0     C63060   8.508   4.154   3.967 -0.5437 -0.6054  0.1919
  468MOL0     C63061   8.473   4.148   4.113 -0.0387 -0.2093 -0.6031
  468MOL0     N63062   8.415   4.014   4.142  0.2368  0.3081 -0.6743
  468MOL0     C63063   8.279   3.996   4.137 -0.0251 -0.3169 -0.7771
  468MOL0     C63064   8.262   3.860   4.171  0.0298  0.1795  1.2608
  468MOL0     C63065   8.147   3.765   4.165  0.2266  0.0379  0.8012
  468MOL0     C63066   8.014   3.806   4.103 -0.1969 -0.2892  0.1719
  468MOL0     C63067   7.942   3.915   4.181 -0.7440 -0.1402 -0.9178
  468MOL0     C63068   7.862   3.862   4.293 -0.3598 -0.2983  0.1191
  468MOL0     O63069   7.765   3.759   4.251 -0.2358  0.5610 -0.4254
  468MOL0     C63070   7.638   3.803   4.253 -0.3929 -1.0912 -0.1639
  468MOL0     C63071   7.547   3.701   4.271 -0.8460  0.4233  1.0457
  468MOL0     C63072   7.413   3.745   4.287 -1.0411 -0.2724  0.1305
  468MOL0     C63073   7.370   3.871   4.252 -0.1560  0.8176  0.3399
  468MOL0     C63074   7.230   3.916   4.246  1.0333  0.8626 -0.7401
  468MOL0     O63075   7.130   3.821   4.251  0.2544  0.0311  0.6746
  468MOL0     C63076   6.998   3.866   4.242  0.7731 -0.2656  0.7571
  468MOL0     C63077   6.933   3.933   4.346  0.5192 -0.3911  0.5847
  468MOL0     C63078   6.802   3.968   4.344  0.6670 -1.3779  0.4075
  468MOL0     C63079   6.723   3.933   4.237  1.4381 -1.7063  0.9490
  468MOL0     O63080   6.589   3.965   4.233 -0.7204 -0.9096  0.7574
  468MOL0     C63081   6.493   3.867   4.187 -0.7076  0.1707 -1.2897
  468MOL0     C63082   6.381   3.866   4.289  0.1751 -0.3358  0.5545
  468MOL0     C63083   6.310   4.000   4.301  0.1107 -0.2803 -0.7982
  468MOL0     C63084   6.240   4.029   4.168 -0.5761  0.1301  0.4739
  468MOL0     C63085   6.124   4.121   4.174  0.5513 -1.0972 -0.1946
  468MOL0     C63086   6.153   4.263   4.235 -0.3111 -0.4356 -0.4224
  468MOL0     C63087   6.027   4.342   4.261  0.3356 -0.2008 -0.4965
  468MOL0     C63088   5.943   4.324   4.388  0.2894  0.3052  0.2027
  468MOL0    Cl63089   5.774   4.383   4.337 -0.1867 -0.1111 -0.2652
  468MOL0     C63090   6.783   3.864   4.134 -0.3439 -0.5753  0.4178
  468MOL0     C63091   6.919   3.835   4.131 -0.3841 -0.0395 -0.4149
  468MOL0     O63092   7.211   4.035   4.235 -0.1334 -0.2349  0.2510
  468MOL0     C63093   7.465   3.961   4.226  0.6516  0.8174  0.9594
  468MOL0     C63094   7.597   3.931   4.226 -1.0969 -0.1913  0.6807
  468MOL0     N63095   8.397   3.808   4.178  0.3372  0.2485  0.4906
  468MOL0     N63096   8.486   3.902   4.165  1.4842  0.6391 -0.5655
  468MOL0     C63097   9.376   4.661   3.747 -0.5163 -1.6689 -0.7861
  468MOL0     C63098   9.498   4.722   3.785  0.9241  0.2446  0.3386
  468MOL0     C63099   9.930   4.740   3.891 -0.0840 -0.9754  0.5418
  468MOL0     C63100   9.915   4.882   3.899  0.2345 -0.4082 -0.1708
  468MOL0     C63101  10.031   4.958   3.886  0.2906 -0.5867 -0.6511
  468MOL0     C63102  10.159   4.906   3.878  0.4285  0.0680  0.5803
  468MOL0     O63103  10.267   4.986   3.847 -0.1894  0.2076 -0.3686
  468MOL0     C63104  10.343   5.020   3.962  0.1750  0.4345 -1.1951
  468MOL0     C63105  10.293   5.151   4.015  0.6539 -0.4124 -0.5341
  468MOL0     C63106  10.351   5.186   4.155 -0.4725 -0.5739 -0.4175
  468MOL0     C63107  10.308   5.320   4.218 -0.5410 -0.3247 -0.3983
  468MOL0     C63108  10.203   5.299   4.319 -1.0522 -0.6360 -0.2447
  468MOL0     C63109  10.117   5.298   4.405  0.1373  1.0457  0.7475
  468MOL0     C63110  10.173   4.770   3.882  0.4268 -0.5500 -0.3193
  468MOL0     C63111  10.063   4.684   3.888 -0.1428  0.9803  0.7521
  468MOL0     C63112  10.083   4.533   3.886 -0.7499 -0.9400  0.1068
  468MOL0     H63113   9.569   4.536   4.049  1.1486  1.7432 -0.3593
  468MOL0     H63114   9.358   4.418   3.984 -2.0490  0.7681  0.9780
  468MOL0     H63115   9.078   4.353   3.762  0.9898 -2.0351  0.3804
  468MOL0     H63116   9.214   4.303   3.876 -0.2544  1.0768  3.8774
  468MOL0     H63117   9.009   4.517   3.922 -1.0317  0.5964  1.2880
  468MOL0     H63118   9.141   4.465   4.036 -0.6798 -4.0800  2.3615
  468MOL0     H63119   8.973   4.335   4.118 -2.8019 -2.9881  1.1983
  468MOL0     H63120   9.031   4.224   3.995 -2.0845 -0.0188 -1.4253
  468MOL0     H63121   8.808   4.439   3.959 -0.2138  0.1036 -0.3921
  468MOL0     H63122   8.848   4.333   3.830 -2.0200  1.4693 -0.3700
  468MOL0     H63123   8.782   4.137   3.946 -1.1406  0.9775 -2.1280
  468MOL0     H63124   8.739   4.228   4.095  1.8793  2.1231  0.7765
  468MOL0     H63125   8.591   4.365   3.970  1.8642  0.8998 -0.8575
  468MOL0     H63126   8.614   4.275   3.821 -0.7091 -1.6859  0.1458
  468MOL0     H63127   8.540   4.059   3.922  1.3150  0.9676 -2.0735
  468MOL0     H63128   8.419   4.195   3.918 -1.7931 -2.4282  0.8399
  468MOL0     H63129   8.561   4.155   4.177 -0.4489  1.6643 -0.1760
  468MOL0     H63130   8.405   4.230   4.139 -5.4560 -4.4917  0.5515
  468MOL0     H63131   8.197   4.067   4.126 -0.8214 -0.4403  3.0839
  468MOL0     H63132   8.182   3.674   4.115 -1.0095  0.2295 -0.4688
  468MOL0     H63133   8.128   3.745   4.271 -0.4336 -0.2593  0.6358
  468MOL0     H63134   8.035   3.848   4.004 -1.5406 -0.7917 -0.3444
  468MOL0     H63135   7.952   3.716   4.097  0.5074 -0.7049 -1.4560
  468MOL0     H63136   7.865   3.976   4.134 -3.3177  0.8581  3.9371
  468MOL0     H63137   8.015   3.980   4.231  0.2500 -0.8600 -1.3904
  468MOL0     H63138   7.825   3.940   4.360  0.4692  1.6593 -1.5825
  468MOL0     H63139   7.934   3.801   4.348  0.3255 -0.6113 -1.0768
  468MOL0     H63140   7.579   3.597   4.276 -1.5670  0.1638  0.4486
  468MOL0     H63141   7.332   3.679   4.317 -1.2500 -1.3013 -2.4171
  468MOL0     H63142   7.001   3.943   4.430  1.9137  1.8349 -0.6987
  468MOL0     H63143   6.764   4.037   4.419 -0.2064 -0.7270 -0.6026
  468MOL0     H63144   6.448   3.880   4.088 -1.0884 -2.7921 -1.6171
  468MOL0     H63145   6.540   3.768   4.183 -0.4505  0.2703 -0.7795
  468MOL0     H63146   6.310   3.791   4.255  2.7820 -1.6098 -2.6019
  468MOL0     H63147   6.412   3.840   4.391 -4.1464 -0.4716  2.0421
  468MOL0     H63148   6.234   3.999   4.379  0.4877  1.3192 -0.3761
  468MOL0     H63149   6.385   4.077   4.323  1.0086 -1.6230  1.0994
  468MOL0     H63150   6.209   3.932   4.129  1.0755 -0.7895  1.2992
  468MOL0     H63151   6.310   4.074   4.097 -0.2841  0.4626  0.9657
  468MOL0     H63152   6.051   4.075   4.241 -0.5584  2.0184  0.9520
  468MOL0     H63153   6.087   4.129   4.071 -0.9209  0.0093  0.3791
  468MOL0     H63154   6.202   4.260   4.332 -1.3318 -1.4826  0.0873
  468MOL0     H63155   6.219   4.312   4.163 -0.2175 -2.0919 -1.5288
  468MOL0     H63156   5.970   4.319   4.171 -1.2057 -1.9672  0.8631
  468MOL0     H63157   6.034   4.449   4.239  1.0031 -0.2699 -0.6451
  468MOL0     H63158   5.931   4.226   4.433 -1.9951  0.5384  0.1875
  468MOL0     H63159   5.989   4.386   4.466 -1.1403 -1.1472  2.3113
  468MOL0     H63160   6.723   3.829   4.051 -0.2041  1.6270 -0.6977
  468MOL0     H63161   6.965   3.778   4.050  1.8788  0.1920  0.6345
  468MOL0     H63162   7.453   4.069   4.218 -0.0806  0.9925  3.4147
  468MOL0     H63163   7.658   4.017   4.199 -1.9328  0.1785 -0.0724
  468MOL0     H63164   9.327   4.697   3.657  1.0119 -1.5719 -1.6078
  468MOL0     H63165   9.553   4.803   3.738 -0.5975  1.7610  1.0717
  468MOL0     H63166   9.812   4.914   3.910  0.7921  1.4040 -0.0187
  468MOL0     H63167  10.018   5.065   3.874  1.1144 -0.4038  0.0240
  468MOL0     H63168  10.448   5.018   3.933  0.0754 -0.9973 -1.5086
  468MOL0     H63169  10.335   4.942   4.038  1.4320  2.1461  0.7808
  468MOL0     H63170  10.184   5.165   4.011  0.9095  1.7338 -1.4392
  468MOL0     H63171  10.341   5.218   3.943  1.6643 -0.0633  0.4285
  468MOL0     H63172  10.460   5.179   4.155 -0.5212 -2.1344  1.1367
  468MOL0     H63173  10.332   5.107   4.228  2.1641 -0.3984  0.5711
  468MOL0     H63174  10.391   5.370   4.269 -2.1965  0.7407  1.4054
  468MOL0     H63175  10.267   5.397   4.152  0.7151  1.8600  1.2116
  468MOL0     H63176  10.032   5.293   4.470 -1.2250  1.4682 -0.9033
  468MOL0     H63177  10.272   4.726   3.874 -0.6076 -2.8656 -1.4822
  468MOL0     H63178  10.063   4.508   3.782 -1.4658 -0.2070  0.0508
  468MOL0     H63179  10.190   4.519   3.902 -0.6690 -1.8090 -1.1123
  468MOL0     H63180  10.022   4.482   3.962 -0.4302  0.9785  1.7456
  469MOL0     O63181   0.877   6.865   6.546  0.0905  0.2877 -0.6822
  469MOL0     C63182   0.950   6.872   6.450 -0.5111 -0.5116 -0.0531
  469MOL0     O63183   1.086   6.858   6.451  1.1117 -0.0940  0.5063
  469MOL0     C63184   1.145   6.776   6.541  0.2277  0.2405  0.4786
  469MOL0     C63185   1.236   6.829   6.627  0.4587 -0.7404  0.4455
  469MOL0     C63186   1.303   6.750   6.726  0.8400  0.4516 -0.7297
  469MOL0     C63187   1.275   6.607   6.737 -0.4262 -0.2112  0.1555
  469MOL0     O63188   1.348   6.525   6.819  0.4854  0.3086  0.0577
  469MOL0     C63189   1.484   6.556   6.838  0.0447 -0.1217 -0.2237
  469MOL0     C63190   1.562   6.438   6.888 -0.1491  0.1847  0.1764
  469MOL0     C63191   1.689   6.478   6.963  0.9758 -0.1820  0.5450
  469MOL0     C63192   1.731   6.379   7.067 -0.4956  0.6689  0.4779
  469MOL0     C63193   1.856   6.430   7.136  0.5952  1.2136 -0.4503
  469MOL0     C63194   1.975   6.382   7.055  0.3244  0.3630 -0.6945
  469MOL0     C63195   2.111   6.387   7.123  0.9675  0.0800  1.2452
  469MOL0     C63196   2.128   6.293   7.241  0.2325  0.2538 -0.3123
  469MOL0     N63197   2.266   6.279   7.277 -0.3861 -0.5006 -0.0826
  469MOL0     C63198   2.356   6.181   7.263 -0.1085  0.6762 -0.1619
  469MOL0     C63199   2.479   6.229   7.288  0.2636 -0.4987  0.6929
  469MOL0     C63200   2.618   6.169   7.274 -0.0000  0.6816  0.4881
  469MOL0     C63201   2.712   6.258   7.199 -0.8252  0.0348  0.4620
  469MOL0     C63202   2.852   6.193   7.184  0.7306 -0.8528 -0.4394
  469MOL0     C63203   2.942   6.282   7.098 -0.3999 -0.4295  1.1108
  469MOL0     O63204   3.071   6.295   7.162  0.5133 -0.3849  0.4934
  469MOL0     C63205   3.185   6.235   7.108 -0.5296 -0.1636  0.1403
  469MOL0     C63206   3.214   6.200   6.973  0.1175  0.9339 -0.2826
  469MOL0     C63207   3.329   6.128   6.940  0.6903 -0.0815 -0.2765
  469MOL0     C63208   3.407   6.073   7.042 -0.1223 -0.0998 -0.0514
  469MOL0     C63209   3.517   5.978   7.012  0.4279 -0.4893  0.6975
  469MOL0     O63210   3.590   5.925   7.120  0.0479  0.7349 -0.1150
  469MOL0     C63211   3.694   5.835   7.117 -0.1757 -0.2065 -1.1755
  469MOL0     C63212   3.705   5.741   7.019 -0.5244  0.0631  0.6712
  469MOL0     C63213   3.829   5.692   6.990  0.5866  0.1669  0.0533
  469MOL0     C63214   3.928   5.705   7.088 -0.1238  0.6414 -0.0039
  469MOL0     O63215   4.043   5.625   7.084 -0.0191 -0.0203 -0.9265
  469MOL0     C63216   4.055   5.513   6.991 -0.5398  1.0272 -0.0247
  469MOL0     C63217   4.180   5.433   6.996 -0.2092  0.6649 -0.3479
  469MOL0     C63218   4.229   5.350   6.872  0.4841  0.8093 -0.1308
  469MOL0     C63219   4.352   5.407   6.809  0.4492  0.3176 -0.2787
  469MOL0     C63220   4.402   5.319   6.692  0.5723 -0.1243 -0.8354
  469MOL0     C63221   4.534   5.378   6.646 -0.4580  0.1783 -0.4154
  469MOL0     C63222   4.582   5.269   6.549  0.3312  0.3714 -0.2135
  469MOL0     C63223   4.708   5.310   6.470 -0.2437  0.2686 -0.0131
  469MOL0    Cl63224   4.768   5.170   6.378 -0.0943  0.1993 -0.3142
  469MOL0     C63225   3.915   5.790   7.191 -0.1753  0.7258  0.0188
  469MOL0     C63226   3.797   5.864   7.204  0.7851  1.2594 -0.3188
  469MOL0     O63227   3.535   5.948   6.888  0.2941  0.1299 -0.5089
  469MOL0     C63228   3.372   6.096   7.176 -0.1820  0.4162 -0.1960
  469MOL0     C63229   3.273   6.186   7.207  0.0482  0.4629  0.4475
  469MOL0     N63230   2.465   6.366   7.313 -0.2858 -0.2044 -0.1044
  469MOL0     N63231   2.337   6.394   7.318  0.0214  0.0498 -0.4381
  469MOL0     C63232   1.176   6.563   6.657 -0.0800 -0.2105  0.8152
  469MOL0     C63233   1.098   6.641   6.563  0.6851 -0.4343 -0.9289
  469MOL0     C63234   0.894   6.935   6.329 -0.1397 -0.1436 -0.7321
  469MOL0     C63235   0.801   7.043   6.339 -0.3537 -0.7390  0.4246
  469MOL0     C63236   0.759   7.118   6.228  0.3990  0.3926 -0.4567
  469MOL0     C63237   0.814   7.073   6.095 -0.1770 -0.1145  0.0262
  469MOL0     O63238   0.791   7.131   5.972  0.0952 -0.4345 -0.2306
  469MOL0     C63239   0.714   7.250   5.964  0.1909 -0.1701  0.2090
  469MOL0     C63240   0.723   7.288   5.817 -0.8567 -0.3891  0.3854
  469MOL0     C63241   0.622   7.407   5.781  0.6041  0.1414 -0.3293
  469MOL0     C63242   0.627   7.451   5.631 -0.5600  0.9822 -0.9836
  469MOL0     C63243   0.652   7.338   5.533 -0.5632 -0.4157  0.2788
  469MOL0     C63244   0.665   7.244   5.462 -0.7338 -0.4232 -0.2814
  469MOL0     C63245   0.905   6.964   6.088 -0.9981 -0.0436  0.8888
  469MOL0     C63246   0.951   6.899   6.208  0.0852  0.8128 -0.0058
  469MOL0     C63247   1.033   6.770   6.183 -0.4151  0.5503 -0.3140
  469MOL0     H63248   1.260   6.932   6.602 -3.2520  0.3003  0.5735
  469MOL0     H63249   1.374   6.802   6.789 -2.2114  1.6890  1.9590
  469MOL0     H63250   1.530   6.575   6.740  4.0078 -1.3961  1.1719
  469MOL0     H63251   1.494   6.638   6.910 -1.6074  2.2292 -2.4836
  469MOL0     H63252   1.594   6.394   6.793 -3.1826 -1.2754 -0.3132
  469MOL0     H63253   1.507   6.361   6.943  2.3296 -1.4590  0.5247
  469MOL0     H63254   1.669   6.572   7.014 -3.1404  0.1200 -1.1755
  469MOL0     H63255   1.759   6.493   6.880 -1.3418  2.8553 -1.0987
  469MOL0     H63256   1.660   6.369   7.150 -0.7979 -0.4999  0.1037
  469MOL0     H63257   1.734   6.274   7.037  1.3554  0.5661  0.8678
  469MOL0     H63258   1.856   6.539   7.140 -1.5481  1.3383 -1.9166
  469MOL0     H63259   1.850   6.388   7.237 -2.4337  4.5800  1.0205
  469MOL0     H63260   1.970   6.275   7.033  2.2519 -0.1575  1.0914
  469MOL0     H63261   1.965   6.432   6.958 -1.2901  2.2833  0.3704
  469MOL0     H63262   2.149   6.485   7.155  5.2443 -0.2067 -1.9853
  469MOL0     H63263   2.182   6.351   7.048  0.2993 -0.6555  0.9548
  469MOL0     H63264   2.068   6.323   7.328 -1.5649 -0.1738 -1.3647
  469MOL0     H63265   2.091   6.193   7.218 -2.5048  0.7985  1.2136
  469MOL0     H63266   2.325   6.087   7.220 -1.4517  1.8458 -1.9200
  469MOL0     H63267   2.662   6.142   7.371  0.4798 -2.3007 -0.4402
  469MOL0     H63268   2.614   6.075   7.218  2.3265  0.9291 -0.2108
  469MOL0     H63269   2.677   6.290   7.101  1.1250 -1.0486 -0.6568
  469MOL0     H63270   2.726   6.356   7.246  1.6839  0.3114 -0.6570
  469MOL0     H63271   2.841   6.100   7.128 -0.7116 -0.1811 -1.3008
  469MOL0     H63272   2.892   6.164   7.282  0.3132 -3.8305 -1.0471
  469MOL0     H63273   2.892   6.379   7.094  0.3804 -0.0445 -2.2064
  469MOL0     H63274   2.952   6.247   6.995  1.2235 -1.6800  1.6465
  469MOL0     H63275   3.146   6.213   6.890  2.2816 -1.1371 -2.5421
  469MOL0     H63276   3.354   6.108   6.836 -0.3845 -2.9722 -0.0665
  469MOL0     H63277   3.620   5.713   6.956 -1.7548  0.9362  1.8842
  469MOL0     H63278   3.837   5.625   6.905  0.3391  2.2134 -1.6403
  469MOL0     H63279   3.976   5.442   7.018  0.2503  0.4501  0.8477
  469MOL0     H63280   4.031   5.556   6.894 -3.8759 -0.5272 -0.0388
  469MOL0     H63281   4.254   5.510   7.021 -1.2836  0.7524  3.1389
  469MOL0     H63282   4.177   5.367   7.083  0.0445  0.7695 -0.2593
  469MOL0     H63283   4.259   5.253   6.913  0.9010 -0.1358 -2.5294
  469MOL0     H63284   4.150   5.325   6.801  2.2750 -3.1938 -1.0065
  469MOL0     H63285   4.436   5.418   6.879  1.4425 -1.2647 -1.1548
  469MOL0     H63286   4.335   5.506   6.767 -0.5772 -0.2873 -1.3500
  469MOL0     H63287   4.328   5.319   6.611  0.5020  0.0553 -0.7723
  469MOL0     H63288   4.405   5.216   6.729 -2.5864  0.0984  0.3408
  469MOL0     H63289   4.513   5.471   6.594 -0.4993  1.0327  1.0761
  469MOL0     H63290   4.593   5.391   6.738 -2.1361  3.1970  0.3757
  469MOL0     H63291   4.502   5.251   6.477  1.7798  0.9068 -2.0505
  469MOL0     H63292   4.604   5.175   6.601  1.4936  0.2703 -0.8393
  469MOL0     H63293   4.687   5.390   6.399 -0.7677 -1.5677 -2.0351
  469MOL0     H63294   4.783   5.334   6.546 -1.7221 -0.8297  1.8989
  469MOL0     H63295   3.991   5.794   7.267 -0.3646 -2.4735  0.5078
  469MOL0     H63296   3.772   5.941   7.276 -3.1309 -0.6471  0.5968
  469MOL0     H63297   3.419   6.029   7.247 -0.6732 -0.4930 -0.6986
  469MOL0     H63298   3.245   6.211   7.309  1.3169  2.4106  0.3807
  469MOL0     H63299   1.145   6.462   6.680 -2.0921  0.0099 -0.6340
  469MOL0     H63300   1.019   6.587   6.512 -2.4861  1.1161  1.9047
  469MOL0     H63301   0.763   7.068   6.437  2.0604 -1.0848  1.5309
  469MOL0     H63302   0.706   7.213   6.235  0.6525  0.3995  3.5839
  469MOL0     H63303   0.767   7.317   6.033  1.1706 -0.5201 -0.1795
  469MOL0     H63304   0.608   7.239   5.985 -0.2896  1.5355 -1.0880
  469MOL0     H63305   0.700   7.201   5.753  0.0420  0.0524 -0.5707
  469MOL0     H63306   0.823   7.321   5.787 -0.8078 -1.8948 -1.2976
  469MOL0     H63307   0.625   7.496   5.844 -1.4293  0.8477 -1.1359
  469MOL0     H63308   0.522   7.363   5.790  1.5316 -1.7572  1.5149
  469MOL0     H63309   0.529   7.496   5.611 -0.4076  1.3620 -0.8921
  469MOL0     H63310   0.697   7.535   5.623  0.3006  1.1305  4.5906
  469MOL0     H63311   0.690   7.162   5.399  0.0433  1.1616 -2.1570
  469MOL0     H63312   0.959   6.936   5.999  0.7572  0.6271  1.7038
  469MOL0     H63313   1.139   6.792   6.202 -0.4707 -0.2626  1.1337
  469MOL0     H63314   1.010   6.676   6.234  1.4051 -0.4988 -1.3137
  469MOL0     H63315   1.014   6.752   6.077 -1.5518 -2.2157  0.2707
  470MOL0     O63316   1.276   9.743   5.037 -0.1416 -0.1190 -0.6053
  470MOL0     C63317   1.217   9.835   5.099 -0.7640  0.0472 -0.3603
  470MOL0     O63318   1.256   9.960   5.100  0.5009 -0.9076  0.5654
  470MOL0     C63319   1.379   9.993   5.046 -0.1452  1.0274  0.0107
  470MOL0     C63320   1.398   9.982   4.905  0.5004  0.1705  0.4444
  470MOL0     C63321   1.515  10.028   4.838  0.4213  0.0026 -0.5028
  470MOL0     C63322   1.611  10.089   4.915 -1.0265  0.3516  0.0718
  470MOL0     O63323   1.735  10.122   4.855 -0.6999  0.0669  0.1331
  470MOL0     C63324   1.826  10.010   4.871  0.3310  0.7439  0.4149
  470MOL0     C63325   1.955  10.059   4.825 -0.5484  0.8206  0.2274
  470MOL0     C63326   2.005  10.175   4.904 -0.4003 -0.4199  0.2771
  470MOL0     C63327   2.164  10.181   4.887  0.2076  0.4267  0.2508
  470MOL0     C63328   2.201  10.256   4.750 -0.4479 -0.6076 -0.4135
  470MOL0     C63329   2.344  10.287   4.752 -0.4526 -1.1855  0.0986
  470MOL0     C63330   2.366  10.366   4.623 -1.3243  0.5677 -0.0255
  470MOL0     C63331   2.514  10.396   4.630 -0.1429  0.2193  0.2708
  470MOL0     N63332   2.552  10.472   4.514  0.5366  0.3293 -0.3067
  470MOL0     C63333   2.586  10.604   4.515 -0.3466  0.1209  0.2901
  470MOL0     C63334   2.616  10.625   4.389  0.5551 -0.0131  1.3584
  470MOL0     C63335   2.663  10.747   4.320  0.2939 -0.1363 -0.1944
  470MOL0     C63336   2.641  10.751   4.170  0.2265  0.4365 -1.3420
  470MOL0     C63337   2.645  10.883   4.096 -0.7452 -0.8630 -0.5748
  470MOL0     C63338   2.763  10.896   4.000 -0.4731 -0.1688  0.2160
  470MOL0     O63339   2.895  10.902   4.065 -0.3703  0.3459  0.2316
  470MOL0     C63340   3.002  10.954   3.994  0.2236  0.1481  0.4111
  470MOL0     C63341   3.117  10.974   4.069  0.0566  0.0775 -0.3960
  470MOL0     C63342   3.223  11.053   4.027  0.7225  1.8954  0.3327
  470MOL0     C63343   3.225  11.089   3.900 -0.6930 -0.5394 -0.0690
  470MOL0     C63344   3.343  11.150   3.837 -0.2230  0.3410  0.0866
  470MOL0     O63345   3.369  11.133   3.704  0.6872 -0.6526  0.0220
  470MOL0     C63346   3.484  11.175   3.648 -0.2343 -0.3543 -0.2163
  470MOL0     C63347   3.504  11.310   3.635 -0.5196 -0.3408  0.9691
  470MOL0     C63348   3.622  11.361   3.581 -0.4855 -0.0841  0.4645
  470MOL0     C63349   3.722  11.270   3.534 -0.2028 -0.1433 -0.1878
  470MOL0     O63350   3.840  11.307   3.480 -0.8513  0.3615  0.5724
  470MOL0     C63351   3.879  11.445   3.478 -0.0812 -0.9236  0.3202
  470MOL0     C63352   4.034  11.443   3.459 -0.1182  0.0634 -0.4179
  470MOL0     C63353   4.092  11.583   3.439  0.0138  1.0286  0.3102
  470MOL0     C63354   4.250  11.577   3.469  0.0260 -0.6589 -1.3549
  470MOL0     C63355   4.334  11.681   3.399  0.4623 -0.1903  0.6889
  470MOL0     C63356   4.315  11.830   3.439  0.1577  0.6812 -0.2229
  470MOL0     C63357   4.370  11.925   3.334 -0.9685 -0.7728 -0.5283
  470MOL0     C63358   4.449  12.042   3.412  0.7992  0.0009 -0.7612
  470MOL0    Cl63359   4.342  12.148   3.502  0.3207 -0.3844 -0.0758
  470MOL0     C63360   3.688  11.133   3.534 -1.2018  0.0559 -0.4263
  470MOL0     C63361   3.572  11.092   3.598  1.3466  0.4194 -0.5513
  470MOL0     O63362   3.416  11.214   3.913  0.0459 -0.1520  0.7303
  470MOL0     C63363   3.118  11.063   3.811 -0.8496 -0.4415  0.0320
  470MOL0     C63364   3.015  10.996   3.861  0.0182  0.0168 -1.1004
  470MOL0     N63365   2.600  10.513   4.307 -0.8951 -0.6257  0.2875
  470MOL0     N63366   2.569  10.413   4.388 -0.2010  0.2374 -0.0015
  470MOL0     C63367   1.594  10.106   5.056  0.1779  0.8145  0.8431
  470MOL0     C63368   1.478  10.066   5.117 -0.1503  0.2129 -0.4226
  470MOL0     C63369   1.087   9.806   5.168  0.5846  0.1910  0.6393
  470MOL0     C63370   1.058   9.662   5.185  0.4745 -0.3669 -0.4103
  470MOL0     C63371   0.945   9.615   5.242 -0.5624  0.0194  0.2813
  470MOL0     C63372   0.841   9.709   5.288 -0.7272 -0.6991  0.2730
  470MOL0     O63373   0.745   9.663   5.375  0.2640  0.2033  0.1601
  470MOL0     C63374   0.614   9.704   5.368 -0.9106  0.0802  0.1034
  470MOL0     C63375   0.539   9.643   5.473 -0.0261  0.1296 -1.0893
  470MOL0     C63376   0.386   9.674   5.455  0.0301 -0.3947 -0.0870
  470MOL0     C63377   0.307   9.622   5.575  0.1743  0.1995  0.3808
  470MOL0     C63378   0.164   9.642   5.564 -0.1512 -0.1043  0.1608
  470MOL0     C63379   0.039   9.628   5.569 -0.3523  0.4975  0.1996
  470MOL0     C63380   0.867   9.851   5.251 -0.1943  0.1370 -1.5645
  470MOL0     C63381   0.978   9.893   5.184 -0.9810 -0.9023 -0.0133
  470MOL0     C63382   0.976  10.043   5.134 -0.0889  0.5411 -0.6407
  470MOL0     H63383   1.320   9.938   4.845 -0.7241  2.7436  0.0229
  470MOL0     H63384   1.532  10.004   4.734 -1.5718  0.3415 -0.9403
  470MOL0     H63385   1.841   9.982   4.976  1.0337 -0.1995  0.0652
  470MOL0     H63386   1.800   9.913   4.829  1.6848  0.4884  0.1408
  470MOL0     H63387   1.959  10.086   4.719 -1.9446  0.4367  0.0471
  470MOL0     H63388   2.027   9.978   4.840 -0.7702  0.1087 -2.1292
  470MOL0     H63389   1.981  10.156   5.009 -0.2677 -1.1424  0.1873
  470MOL0     H63390   1.961  10.271   4.878 -0.4744 -1.3986 -4.1635
  470MOL0     H63391   2.205  10.237   4.972  1.5476 -1.2230  0.7537
  470MOL0     H63392   2.214  10.084   4.888  1.5548  1.0618  2.4479
  470MOL0     H63393   2.187  10.182   4.670  1.1364 -1.2140 -0.1684
  470MOL0     H63394   2.145  10.348   4.735  1.6551  0.7502 -0.3294
  470MOL0     H63395   2.370  10.356   4.832  1.3641  0.8109 -2.0680
  470MOL0     H63396   2.395  10.191   4.755 -1.9039 -2.0253 -0.5563
  470MOL0     H63397   2.320  10.465   4.632 -0.3807  0.9250  1.0217
  470MOL0     H63398   2.345  10.306   4.533 -0.7591  1.0689 -0.5026
  470MOL0     H63399   2.540  10.448   4.722 -2.9610  2.7574 -0.2013
  470MOL0     H63400   2.568  10.303   4.610 -0.6727  0.1973 -1.1856
  470MOL0     H63401   2.580  10.669   4.602 -0.0404 -3.3112  3.1135
  470MOL0     H63402   2.604  10.830   4.360 -0.0867 -1.3885  1.9960
  470MOL0     H63403   2.769  10.760   4.346  0.2456  0.6698 -0.3982
  470MOL0     H63404   2.711  10.677   4.132 -0.0503 -1.8357  2.1361
  470MOL0     H63405   2.538  10.719   4.148  0.4201 -0.6931 -0.6646
  470MOL0     H63406   2.657  10.965   4.168  1.7195  0.9668 -2.8797
  470MOL0     H63407   2.546  10.898   4.051 -1.3278  0.5877  1.0683
  470MOL0     H63408   2.748  10.990   3.946  3.0517  1.3752  1.6381
  470MOL0     H63409   2.760  10.820   3.921 -0.5091  0.9907 -0.9363
  470MOL0     H63410   3.124  10.922   4.165  1.8128  1.5453  0.3347
  470MOL0     H63411   3.310  11.057   4.093  0.9122 -2.3329  0.6516
  470MOL0     H63412   3.422  11.374   3.664  0.3248 -0.1927  3.2071
  470MOL0     H63413   3.635  11.468   3.587  1.0535 -0.3264  2.3693
  470MOL0     H63414   3.828  11.509   3.405  0.1478 -0.5399  0.4947
  470MOL0     H63415   3.857  11.495   3.574 -1.5627  1.5778 -1.1894
  470MOL0     H63416   4.070  11.403   3.555 -2.9499  0.4951  0.9423
  470MOL0     H63417   4.059  11.381   3.373 -1.3488 -1.4993  0.2788
  470MOL0     H63418   4.066  11.597   3.334  1.2918 -3.7150 -0.8828
  470MOL0     H63419   4.050  11.665   3.498 -2.4547  0.5042 -0.6026
  470MOL0     H63420   4.299  11.480   3.454 -0.1824 -1.0642  0.3347
  470MOL0     H63421   4.255  11.588   3.578 -1.6778  1.6107 -1.4475
  470MOL0     H63422   4.299  11.663   3.297  0.2996 -2.6515  1.1103
  470MOL0     H63423   4.440  11.656   3.396  0.1124 -1.6368 -1.5921
  470MOL0     H63424   4.208  11.848   3.453 -0.0754 -0.0923 -0.9551
  470MOL0     H63425   4.365  11.854   3.533 -0.4372  0.3081  0.1947
  470MOL0     H63426   4.286  11.953   3.270  1.0063 -0.9264 -3.3848
  470MOL0     H63427   4.446  11.872   3.276  0.0527  1.2089 -1.1129
  470MOL0     H63428   4.508  11.994   3.491 -0.7136 -1.2541 -0.3583
  470MOL0     H63429   4.499  12.105   3.337 -2.8652  2.3354 -1.5381
  470MOL0     H63430   3.746  11.069   3.468  0.6304  0.5243  0.6466
  470MOL0     H63431   3.554  10.985   3.598  1.5423  0.3342  1.5862
  470MOL0     H63432   3.110  11.082   3.704 -1.9789 -0.3319  0.1208
  470MOL0     H63433   2.924  10.966   3.809  1.4269  0.0185 -3.7591
  470MOL0     H63434   1.674  10.159   5.106  0.3868  1.0396  0.2814
  470MOL0     H63435   1.461  10.096   5.220 -0.0129  0.9563 -0.6138
  470MOL0     H63436   1.137   9.589   5.167  3.2697  2.3208  0.0349
  470MOL0     H63437   0.948   9.509   5.267  0.0460 -0.7700 -2.7207
  470MOL0     H63438   0.586   9.663   5.270  1.6077 -2.5359  0.3590
  470MOL0     H63439   0.621   9.813   5.372  1.7944 -0.0240  0.2954
  470MOL0     H63440   0.572   9.680   5.570 -1.1394 -3.1313  0.6943
  470MOL0     H63441   0.563   9.536   5.476  0.9516  0.3325 -1.1830
  470MOL0     H63442   0.357   9.627   5.360 -0.1000 -2.3160  0.8459
  470MOL0     H63443   0.372   9.782   5.446  1.6031 -0.0670  1.0676
  470MOL0     H63444   0.325   9.514   5.584 -1.1046  0.0469  1.5439
  470MOL0     H63445   0.348   9.679   5.659  0.9141  0.8283 -0.3885
  470MOL0     H63446  -0.063   9.595   5.581 -1.1590  1.7726 -2.3084
  470MOL0     H63447   0.791   9.927   5.270  0.9929  1.2198 -1.0052
  470MOL0     H63448   0.876  10.086   5.126 -1.8331 -2.7891  1.2518
  470MOL0     H63449   1.029  10.102   5.209 -0.7183 -2.3278  2.2683
  470MOL0     H63450   1.028  10.047   5.038  0.0941  1.2927 -0.5153
  471MOL0     O63451  10.472   0.725   1.090 -0.7263  0.2109 -0.6547
  471MOL0     C63452  10.421   0.694   1.195 -0.2736 -0.1550  0.1213
  471MOL0     O63453  10.489   0.690   1.312  0.4805 -0.0231  0.3385
  471MOL0     C63454  10.627   0.690   1.323 -0.1507 -0.9362  0.1078
  471MOL0     C63455  10.680   0.771   1.424  0.2117  1.2247 -0.3448
  471MOL0     C63456  10.811   0.777   1.458 -0.8789 -0.3147  0.1768
  471MOL0     C63457  10.900   0.715   1.377  0.1248 -0.0395  0.6409
  471MOL0     O63458  11.032   0.731   1.393 -0.2614  0.0597 -0.0537
  471MOL0     C63459  11.088   0.808   1.292  0.4998 -0.4781  0.0199
  471MOL0     C63460  11.039   0.959   1.267  0.2494  0.1761  0.1410
  471MOL0     C63461  10.987   0.970   1.120 -0.2816 -0.1135  0.0187
  471MOL0     C63462  11.104   1.003   1.033 -0.0423 -0.1727  0.9303
  471MOL0     C63463  11.100   0.976   0.883  0.3654 -0.5756  0.7423
  471MOL0     C63464  11.209   1.068   0.811 -0.1346 -0.0729 -0.4338
  471MOL0     C63465  11.359   1.055   0.834 -0.1591  0.0055  0.3360
  471MOL0     C63466  11.406   0.914   0.801  0.4057 -0.6190 -0.0476
  471MOL0     N63467  11.379   0.816   0.913 -0.0826 -0.2637 -0.1185
  471MOL0     C63468  11.325   0.693   0.910 -0.4340  0.0429  0.1714
  471MOL0     C63469  11.319   0.639   1.030  0.8480 -1.0862 -0.8397
  471MOL0     C63470  11.243   0.520   1.073 -0.6056 -0.3559  0.0982
  471MOL0     C63471  11.269   0.400   0.989 -1.2939 -0.2153  0.0947
  471MOL0     C63472  11.417   0.352   1.009 -0.3058  0.7017 -0.2974
  471MOL0     C63473  11.457   0.261   0.891  1.6848 -0.2517  0.0642
  471MOL0     O63474  11.441   0.321   0.758 -0.0759  0.9876 -0.5931
  471MOL0     C63475  11.521   0.433   0.720  0.1695  0.2023 -0.1745
  471MOL0     C63476  11.620   0.499   0.791  0.2504  0.7273 -0.3234
  471MOL0     C63477  11.673   0.620   0.750 -0.7257  0.6552 -0.7000
  471MOL0     C63478  11.651   0.667   0.623 -0.3457  0.4248 -0.3034
  471MOL0     C63479  11.721   0.788   0.572 -0.5845  0.3687 -0.1043
  471MOL0     O63480  11.666   0.818   0.456  0.4523 -0.0081  0.4280
  471MOL0     C63481  11.710   0.920   0.373  0.1731  0.4121 -0.3592
  471MOL0     C63482  11.618   0.966   0.269  0.7662  0.4347 -0.3850
  471MOL0     C63483  11.651   1.083   0.194 -0.7197 -0.0093 -0.2150
  471MOL0     C63484  11.770   1.147   0.216  0.5885 -0.1572 -0.9957
  471MOL0     O63485  11.801   1.251   0.133  0.1586 -0.3551  0.5071
  471MOL0     C63486  11.696   1.355   0.123 -0.4226  0.0499  0.2562
  471MOL0     C63487  11.746   1.481   0.187  0.6007 -0.2854 -0.1456
  471MOL0     C63488  11.667   1.614   0.157  0.1727  0.8268  0.1529
  471MOL0     C63489  11.718   1.723   0.257 -0.1543 -0.6845 -0.4178
  471MOL0     C63490  11.612   1.829   0.282  0.4092 -0.1611  0.2087
  471MOL0     C63491  11.610   1.928   0.163 -0.3831  0.2147 -0.1376
  471MOL0     C63492  11.502   2.028   0.160  0.4355 -0.3058  0.9088
  471MOL0     C63493  11.491   2.115   0.033  0.3348 -0.4849 -0.3137
  471MOL0    Cl63494  11.357   2.233   0.073  0.2862  0.5043  0.4797
  471MOL0     C63495  11.855   1.102   0.313  0.0438 -0.6503 -0.3245
  471MOL0     C63496  11.829   0.993   0.396 -0.1090 -0.4330  0.0196
  471MOL0     O63497  11.821   0.835   0.629  0.5660  0.3784 -0.5598
  471MOL0     C63498  11.562   0.593   0.542  0.3392  0.2415 -0.2000
  471MOL0     C63499  11.501   0.477   0.587 -0.2701  0.6511 -0.4426
  471MOL0     N63500  11.384   0.732   1.115  0.0002 -0.5702  0.1283
  471MOL0     N63501  11.424   0.830   1.047 -0.8490 -0.2237  0.0054
  471MOL0     C63502  10.852   0.639   1.268 -0.2360 -0.5613 -0.4650
  471MOL0     C63503  10.720   0.627   1.243 -0.3840 -0.0107  0.6335
  471MOL0     C63504  10.285   0.646   1.182 -0.3509  0.9211 -0.7135
  471MOL0     C63505  10.226   0.577   1.299 -0.3031 -0.1665  0.9925
  471MOL0     C63506  10.092   0.539   1.297  0.7111  0.0062  0.1186
  471MOL0     C63507  10.008   0.551   1.185 -0.7484  0.0939  0.2289
  471MOL0     O63508   9.877   0.515   1.164  0.1615  0.2410  0.1533
  471MOL0     C63509   9.829   0.414   1.252 -0.5075  0.1674  0.9189
  471MOL0     C63510   9.785   0.481   1.390 -0.0977 -0.0335 -0.8665
  471MOL0     C63511   9.659   0.570   1.371  0.7100  0.2044 -0.6136
  471MOL0     C63512   9.610   0.637   1.499 -0.3643  0.1410 -0.2057
  471MOL0     C63513   9.494   0.714   1.466  0.7639  0.1710  0.5126
  471MOL0     C63514   9.405   0.789   1.439  0.1281 -0.0305 -0.6071
  471MOL0     C63515  10.062   0.626   1.080 -0.3332  0.0262  1.2268
  471MOL0     C63516  10.195   0.669   1.077  0.8467  1.1415  0.2536
  471MOL0     C63517  10.234   0.745   0.953 -0.2387  0.0160 -0.1352
  471MOL0     H63518  10.601   0.811   1.488 -0.1778 -1.0954  0.7027
  471MOL0     H63519  10.827   0.841   1.545  0.2228  1.5759 -1.3388
  471MOL0     H63520  11.190   0.814   1.331  0.0480  2.0271  1.0222
  471MOL0     H63521  11.098   0.745   1.203  0.8143  0.8783 -0.9485
  471MOL0     H63522  11.118   1.033   1.282  2.8465 -2.1087 -1.4655
  471MOL0     H63523  10.959   0.978   1.339  1.3426  0.8394  1.2177
  471MOL0     H63524  10.902   1.039   1.114 -2.3690 -2.5822 -0.6614
  471MOL0     H63525  10.943   0.881   1.075 -0.9577  0.2089  0.0231
  471MOL0     H63526  11.123   1.110   1.049 -2.4129  0.0821  2.5784
  471MOL0     H63527  11.188   0.944   1.071 -0.3129 -1.9151 -1.0326
  471MOL0     H63528  11.118   0.870   0.865  0.1727 -0.7860  1.7242
  471MOL0     H63529  11.000   1.005   0.847  1.4485  0.6163 -1.5577
  471MOL0     H63530  11.192   1.058   0.703  3.2010 -0.7315 -1.0114
  471MOL0     H63531  11.184   1.169   0.843 -2.6322 -0.5427 -0.6646
  471MOL0     H63532  11.389   1.062   0.939 -1.4056 -0.8186  0.7818
  471MOL0     H63533  11.403   1.135   0.775 -0.8344 -0.2098 -0.4855
  471MOL0     H63534  11.380   0.880   0.700  1.9357  0.5653 -0.8784
  471MOL0     H63535  11.515   0.921   0.798  0.2850  3.9561 -1.5223
  471MOL0     H63536  11.275   0.650   0.824  2.5926 -1.1554 -1.1380
  471MOL0     H63537  11.260   0.506   1.180 -0.8144  2.2437  0.5279
  471MOL0     H63538  11.137   0.544   1.063 -0.3054  0.1554 -3.1655
  471MOL0     H63539  11.200   0.319   1.010 -0.0596 -1.1247  0.8283
  471MOL0     H63540  11.261   0.429   0.884  1.2041  1.3114  0.2240
  471MOL0     H63541  11.419   0.295   1.102  2.8262 -1.6193 -1.6148
  471MOL0     H63542  11.493   0.429   1.027  1.6158 -1.2730  0.4683
  471MOL0     H63543  11.385   0.179   0.904  1.1125  0.0660 -0.9504
  471MOL0     H63544  11.561   0.230   0.906  2.6566 -0.0144 -4.6439
  471MOL0     H63545  11.654   0.478   0.892 -0.5154  1.4648  0.0874
  471MOL0     H63546  11.740   0.674   0.817 -0.1299 -1.6630  0.7006
  471MOL0     H63547  11.526   0.910   0.260  0.4135  0.8198  0.6686
  471MOL0     H63548  11.589   1.109   0.109  0.1250 -0.6083 -1.0292
  471MOL0     H63549  11.681   1.374   0.016  1.3435 -2.4623 -0.5121
  471MOL0     H63550  11.600   1.325   0.165 -0.8217  0.5839 -0.2503
  471MOL0     H63551  11.764   1.462   0.294 -0.3753  1.2113  0.3198
  471MOL0     H63552  11.850   1.490   0.154  0.8534 -1.9400  0.1165
  471MOL0     H63553  11.678   1.640   0.052  0.8850 -0.1902 -0.0437
  471MOL0     H63554  11.561   1.595   0.174  0.7889 -2.2930  1.2690
  471MOL0     H63555  11.806   1.766   0.209  0.9642 -0.0592  2.0443
  471MOL0     H63556  11.740   1.679   0.355 -1.0702 -1.6257 -0.6095
  471MOL0     H63557  11.638   1.893   0.366  1.7566  0.1394 -0.4218
  471MOL0     H63558  11.517   1.780   0.309  0.5178  0.2080  1.3073
  471MOL0     H63559  11.705   1.982   0.167 -0.7637  0.8652  0.2281
  471MOL0     H63560  11.603   1.868   0.072  1.8325  0.0079 -0.2223
  471MOL0     H63561  11.510   2.108   0.235 -2.2306  0.6236  0.3242
  471MOL0     H63562  11.405   1.983   0.182  0.5694  0.0703  2.4183
  471MOL0     H63563  11.584   2.170   0.014  0.4915 -0.3300  0.8310
  471MOL0     H63564  11.455   2.062  -0.056  0.9196 -0.1382 -0.7619
  471MOL0     H63565  11.948   1.155   0.331  0.4454 -1.0957 -1.0547
  471MOL0     H63566  11.905   0.962   0.467  0.0510  1.3076  0.6644
  471MOL0     H63567  11.536   0.623   0.441 -1.3391  2.5748  0.8204
  471MOL0     H63568  11.452   0.419   0.509  2.3193 -3.2692  0.5826
  471MOL0     H63569  10.922   0.594   1.199  1.0170  0.2194  0.2780
  471MOL0     H63570  10.686   0.596   1.145  2.5836 -1.8436  0.0697
  471MOL0     H63571  10.280   0.569   1.393  0.0741  0.2074  0.8136
  471MOL0     H63572  10.063   0.498   1.393 -0.5281 -1.6074 -0.8959
  471MOL0     H63573   9.908   0.341   1.272 -1.6667 -2.1932 -2.2981
  471MOL0     H63574   9.744   0.356   1.214  0.4442 -0.3329 -0.5134
  471MOL0     H63575   9.858   0.557   1.416 -0.5125 -0.6793  2.6202
  471MOL0     H63576   9.783   0.403   1.467  0.2117  0.0847 -0.7418
  471MOL0     H63577   9.583   0.494   1.348  1.0786 -0.0164 -1.1223
  471MOL0     H63578   9.671   0.641   1.288  0.2766  0.4049 -0.5090
  471MOL0     H63579   9.581   0.564   1.575  1.0376  0.8370  1.0571
  471MOL0     H63580   9.678   0.707   1.549 -0.5109  0.4684 -0.4663
  471MOL0     H63581   9.317   0.849   1.432 -1.0881 -1.8189 -1.5249
  471MOL0     H63582   9.994   0.656   1.001 -0.6685 -0.8290  1.1793
  471MOL0     H63583  10.293   0.677   0.891  0.4372  1.2416 -0.8637
  471MOL0     H63584  10.139   0.765   0.903 -0.6256  0.2098  0.6562
  471MOL0     H63585  10.287   0.838   0.973  3.6289 -1.4903 -2.4515
  472MOL0     O63586   2.241   5.317   1.857  0.8715  0.5213 -0.0620
  472MOL0     C63587   2.294   5.428   1.866 -0.4546  0.5256 -1.4201
  472MOL0     O63588   2.325   5.478   1.991  0.3114 -0.0747  0.0178
  472MOL0     C63589   2.402   5.587   1.999 -0.4911 -0.7163  0.0617
  472MOL0     C63590   2.354   5.698   2.069 -1.2914 -0.2583  0.8177
  472MOL0     C63591   2.440   5.812   2.084  0.0845  0.1717  0.2716
  472MOL0     C63592   2.564   5.817   2.023 -0.5385  0.0477 -0.3392
  472MOL0     O63593   2.657   5.918   2.011 -0.0937  0.5030  0.4849
  472MOL0     C63594   2.676   6.003   2.118 -1.1295  0.5016 -0.1712
  472MOL0     C63595   2.809   6.076   2.085 -1.4648  0.1668 -0.2392
  472MOL0     C63596   2.931   6.004   2.147  0.4027  0.4860 -0.6398
  472MOL0     C63597   2.964   5.864   2.094  0.0289  0.0066  0.2877
  472MOL0     C63598   2.891   5.739   2.147 -0.0906  0.8182  0.9274
  472MOL0     C63599   2.937   5.615   2.065 -0.6758  0.2412  0.8013
  472MOL0     C63600   2.909   5.486   2.146  0.4073 -0.0426 -0.4004
  472MOL0     C63601   2.975   5.355   2.098  0.1980 -0.8872  0.3792
  472MOL0     N63602   2.876   5.297   2.013 -0.2325 -0.4322  0.2440
  472MOL0     C63603   2.778   5.201   2.047 -0.7020  0.0124 -1.0260
  472MOL0     C63604   2.710   5.193   1.930 -0.4779 -0.0174 -0.4598
  472MOL0     C63605   2.591   5.102   1.905  0.7471 -0.0755 -0.1866
  472MOL0     C63606   2.627   4.967   1.850 -0.6313  0.5407 -0.7227
  472MOL0     C63607   2.497   4.890   1.804 -0.3055 -0.2124 -0.5032
  472MOL0     C63608   2.413   4.824   1.913  0.2923  0.7367 -0.1822
  472MOL0     O63609   2.302   4.747   1.867 -0.2670  0.3635 -0.3183
  472MOL0     C63610   2.180   4.801   1.840 -0.3033 -0.1357  0.3129
  472MOL0     C63611   2.162   4.943   1.842 -0.6115  0.5343 -0.0984
  472MOL0     C63612   2.039   4.991   1.811 -0.7165 -1.0596  0.5059
  472MOL0     C63613   1.929   4.913   1.778 -0.1346  0.5711  0.2073
  472MOL0     C63614   1.793   4.970   1.763 -0.2540  0.5693 -0.2591
  472MOL0     O63615   1.706   4.875   1.728  0.5504  0.4067  0.3916
  472MOL0     C63616   1.599   4.923   1.667 -0.1202  1.1251 -0.6037
  472MOL0     C63617   1.583   4.921   1.530 -1.3450  0.4985  0.9926
  472MOL0     C63618   1.471   4.977   1.468 -0.2661 -0.8817 -0.1563
  472MOL0     C63619   1.359   5.013   1.544  0.6905  1.0846  0.2765
  472MOL0     O63620   1.225   5.048   1.507 -0.3746 -0.2129 -0.3372
  472MOL0     C63621   1.210   5.074   1.366  1.0986  0.6201 -0.6264
  472MOL0     C63622   1.232   5.217   1.346  0.2463 -0.1315  0.1736
  472MOL0     C63623   1.200   5.257   1.201  0.7421 -0.5577  0.6710
  472MOL0     C63624   1.160   5.412   1.208  0.1296  0.0323  0.8233
  472MOL0     C63625   1.129   5.474   1.067  0.3010  0.5815  0.2571
  472MOL0     C63626   1.093   5.626   1.088  0.3050  0.6303  0.1568
  472MOL0     C63627   1.055   5.702   0.965  0.1315 -0.5257 -0.2178
  472MOL0     C63628   0.932   5.669   0.882  0.1406  1.6836  0.2932
  472MOL0    Cl63629   0.782   5.700   0.996  0.2473  0.1165  0.0209
  472MOL0     C63630   1.367   5.010   1.687 -0.4745  0.5529 -0.0951
  472MOL0     C63631   1.488   4.973   1.746 -0.4591  0.7695  0.3274
  472MOL0     O63632   1.757   5.082   1.801 -0.4344 -0.2086  0.0122
  472MOL0     C63633   1.952   4.776   1.769  0.2963  1.0707 -0.4241
  472MOL0     C63634   2.072   4.719   1.795  0.6066 -1.2986 -0.1698
  472MOL0     N63635   2.765   5.271   1.837  0.8845  0.3046 -0.7626
  472MOL0     N63636   2.864   5.331   1.884 -0.2361  0.0314  0.1914
  472MOL0     C63637   2.601   5.716   1.943 -0.9655  0.3480 -0.3697
  472MOL0     C63638   2.523   5.600   1.937  0.0240  0.1946 -0.5622
  472MOL0     C63639   2.297   5.497   1.741 -0.9110  0.0072  0.6292
  472MOL0     C63640   2.241   5.628   1.735  1.0777 -0.0479 -0.0647
  472MOL0     C63641   2.224   5.701   1.610  1.3370  0.4388 -1.2120
  472MOL0     C63642   2.277   5.641   1.491  0.2947 -0.4080  0.7623
  472MOL0     O63643   2.274   5.719   1.379 -0.0687 -0.6226  0.0692
  472MOL0     C63644   2.316   5.663   1.252 -0.6414 -0.2366  0.1878
  472MOL0     C63645   2.299   5.770   1.137 -0.4417  0.5722 -0.2202
  472MOL0     C63646   2.350   5.718   1.003  0.2175 -0.3828  0.6603
  472MOL0     C63647   2.310   5.810   0.892  0.3359 -0.1682  0.5941
  472MOL0     C63648   2.390   5.786   0.770  0.2989  0.1037  1.2666
  472MOL0     C63649   2.443   5.794   0.658 -0.6218 -0.6822  0.7430
  472MOL0     C63650   2.329   5.513   1.498 -0.5142  0.8377 -0.9050
  472MOL0     C63651   2.339   5.441   1.619 -0.6952 -0.2498 -0.0816
  472MOL0     C63652   2.408   5.308   1.619  0.6573 -0.0612 -0.4847
  472MOL0     H63653   2.253   5.698   2.110 -2.1353 -0.8054 -1.1577
  472MOL0     H63654   2.408   5.896   2.145  0.0696  0.4976 -0.1793
  472MOL0     H63655   2.600   6.081   2.129  0.9047  2.9903 -2.2659
  472MOL0     H63656   2.687   5.950   2.213 -0.6864 -1.6687 -1.3767
  472MOL0     H63657   2.822   6.173   2.133 -0.6731  0.7946 -1.6768
  472MOL0     H63658   2.826   6.070   1.977 -3.1781  0.2149 -0.5419
  472MOL0     H63659   2.920   5.992   2.255 -1.1532 -0.8605 -0.9124
  472MOL0     H63660   3.024   6.062   2.143  1.3805 -0.5674  2.8811
  472MOL0     H63661   2.963   5.864   1.985  1.0232 -2.9076  0.1976
  472MOL0     H63662   3.064   5.840   2.131 -1.0127 -2.4442  1.7574
  472MOL0     H63663   2.913   5.725   2.254 -1.3727  2.1504  1.3904
  472MOL0     H63664   2.782   5.748   2.139 -0.7480 -2.0099  4.1490
  472MOL0     H63665   2.887   5.607   1.968 -0.7562  3.1889  0.5169
  472MOL0     H63666   3.042   5.627   2.038 -0.2559  0.6161  2.4458
  472MOL0     H63667   2.800   5.482   2.151  0.2498  2.7493  0.1848
  472MOL0     H63668   2.938   5.507   2.249  2.1618 -0.2082 -0.8314
  472MOL0     H63669   3.064   5.387   2.044 -1.1873  3.5604  0.3964
  472MOL0     H63670   3.002   5.285   2.179  1.3971  0.2490  0.9930
  472MOL0     H63671   2.764   5.131   2.128  4.8124 -1.8336 -1.2041
  472MOL0     H63672   2.532   5.088   1.996  0.2314 -2.0805 -0.7957
  472MOL0     H63673   2.523   5.151   1.834  3.3647  1.5060 -1.7737
  472MOL0     H63674   2.697   4.991   1.770  1.2646  1.0345  0.9898
  472MOL0     H63675   2.682   4.908   1.925 -0.7865  0.5610 -0.5932
  472MOL0     H63676   2.546   4.814   1.742 -0.5976 -1.0112  0.2380
  472MOL0     H63677   2.432   4.957   1.746  1.0954  1.4422 -0.2519
  472MOL0     H63678   2.387   4.895   1.992 -0.3410  0.2539  0.0437
  472MOL0     H63679   2.475   4.751   1.966  0.2399  0.2772 -0.7433
  472MOL0     H63680   2.243   5.008   1.874 -0.0358 -1.9935  4.4603
  472MOL0     H63681   2.024   5.098   1.813 -1.7303 -1.1286 -1.3477
  472MOL0     H63682   1.666   4.891   1.467 -2.7304  1.2362 -1.2882
  472MOL0     H63683   1.455   4.979   1.360 -1.6468 -3.2497 -0.0567
  472MOL0     H63684   1.272   5.002   1.310  2.4090 -1.1444  2.8226
  472MOL0     H63685   1.105   5.055   1.342  0.0813  1.8995  2.4144
  472MOL0     H63686   1.161   5.276   1.404 -3.7915 -2.2014 -2.2463
  472MOL0     H63687   1.331   5.258   1.369 -0.7820  2.3892  0.4775
  472MOL0     H63688   1.292   5.239   1.144 -0.7723 -2.9965 -1.2025
  472MOL0     H63689   1.129   5.197   1.143  2.6457  0.9923 -3.7639
  472MOL0     H63690   1.249   5.461   1.250  0.3724  0.0423  0.2966
  472MOL0     H63691   1.074   5.428   1.274 -1.5979  2.7593 -1.8477
  472MOL0     H63692   1.052   5.415   1.018 -0.2687 -0.0595  1.8707
  472MOL0     H63693   1.216   5.468   1.001 -1.3018 -1.1855 -1.8491
  472MOL0     H63694   1.002   5.623   1.149  0.4513  0.2112  0.3600
  472MOL0     H63695   1.175   5.676   1.140  2.6393 -2.7140  0.0163
  472MOL0     H63696   1.127   5.704   0.882 -4.2875 -0.4309 -4.5309
  472MOL0     H63697   1.048   5.808   0.992 -1.6106 -0.0493 -2.2178
  472MOL0     H63698   0.929   5.728   0.790  1.4575  0.4690 -0.5691
  472MOL0     H63699   0.939   5.561   0.865 -0.7436  1.8629 -1.4702
  472MOL0     H63700   1.288   5.058   1.744  0.7984  0.8608  1.4975
  472MOL0     H63701   1.497   4.959   1.854  0.1276 -1.9957 -0.0027
  472MOL0     H63702   1.874   4.702   1.758 -2.5328  2.9268  4.1663
  472MOL0     H63703   2.090   4.614   1.776  2.6486 -0.8495 -1.0270
  472MOL0     H63704   2.703   5.723   1.906 -0.1614 -0.3800  1.5599
  472MOL0     H63705   2.557   5.506   1.893 -0.0415 -1.5263  2.7316
  472MOL0     H63706   2.218   5.681   1.827 -1.2573  0.8926 -1.0952
  472MOL0     H63707   2.183   5.802   1.615  2.3404  0.8377  2.5061
  472MOL0     H63708   2.258   5.572   1.239 -1.2170  0.0437  0.7107
  472MOL0     H63709   2.421   5.635   1.252  0.4512  3.2115 -1.9479
  472MOL0     H63710   2.365   5.854   1.159  0.2064  0.1678 -0.6053
  472MOL0     H63711   2.196   5.806   1.129 -1.0582 -1.2882 -1.3027
  472MOL0     H63712   2.315   5.617   0.977 -1.2092  0.2359  0.0596
  472MOL0     H63713   2.459   5.713   1.006  0.2948  0.1981 -0.5959
  472MOL0     H63714   2.212   5.791   0.846  1.2449 -1.3311 -1.0047
  472MOL0     H63715   2.325   5.915   0.917 -2.9679  0.7355 -0.5913
  472MOL0     H63716   2.486   5.808   0.561 -2.9001  0.1973 -0.2184
  472MOL0     H63717   2.377   5.465   1.413 -1.8103  1.0167 -1.7722
  472MOL0     H63718   2.438   5.286   1.516 -0.4064 -0.0388 -0.8138
  472MOL0     H63719   2.500   5.316   1.676  2.1550  1.2117 -2.9063
  472MOL0     H63720   2.333   5.236   1.651  0.8116  0.9599  2.4761
  473MOL0     O63721   9.936   4.914   8.675 -0.7798 -0.2779  0.4759
  473MOL0     C63722   9.887   4.919   8.566 -0.5199 -0.1688 -0.1654
  473MOL0     O63723   9.808   4.821   8.514 -0.5571 -0.0371 -0.5991
  473MOL0     C63724   9.779   4.703   8.583  0.3735  0.4184 -0.8000
  473MOL0     C63725   9.746   4.588   8.504 -0.1907  0.3252  0.5585
  473MOL0     C63726   9.685   4.483   8.580 -0.2190  1.0461 -0.1130
  473MOL0     C63727   9.664   4.484   8.716 -0.7897  0.0890  0.2060
  473MOL0     O63728   9.599   4.372   8.771 -0.1886 -1.0258  0.1738
  473MOL0     C63729   9.647   4.242   8.743 -0.3127 -0.2061  0.0826
  473MOL0     C63730   9.620   4.155   8.861  0.3604  0.0049  0.4232
  473MOL0     C63731   9.713   4.179   8.974 -0.2899  0.0218 -0.6657
  473MOL0     C63732   9.702   4.068   9.075  1.0802  0.4391 -0.6045
  473MOL0     C63733   9.812   4.082   9.180 -0.9758 -1.0754  0.1947
  473MOL0     C63734   9.780   4.022   9.318  0.1103 -0.4630  0.0863
  473MOL0     C63735   9.869   4.073   9.433 -0.1909 -0.2828 -0.3218
  473MOL0     C63736   9.841   4.019   9.573 -0.4270  0.4444  0.1654
  473MOL0     N63737   9.707   4.039   9.626  0.2079 -0.1436  0.1027
  473MOL0     C63738   9.611   3.938   9.630 -0.3936  0.2852  0.7632
  473MOL0     C63739   9.515   3.984   9.707 -0.8825  0.6708  0.1239
  473MOL0     C63740   9.388   3.913   9.744  0.5331 -0.0692 -0.3500
  473MOL0     C63741   9.372   3.780   9.651  0.3677 -0.6207 -0.0835
  473MOL0     C63742   9.330   3.828   9.507  0.0228  0.1855 -0.0887
  473MOL0     C63743   9.345   3.714   9.416 -0.0475  1.0413  0.1292
  473MOL0     O63744   9.482   3.713   9.376  0.3175  0.3816 -0.4134
  473MOL0     C63745   9.523   3.624   9.271  0.3967 -0.6875 -0.4090
  473MOL0     C63746   9.651   3.645   9.228  0.7741  0.7187  1.4616
  473MOL0     C63747   9.703   3.554   9.131  0.7025  0.5296  0.7780
  473MOL0     C63748   9.637   3.440   9.087  0.6845  0.3964  0.0079
  473MOL0     C63749   9.694   3.350   8.971  0.7555 -0.0448 -0.0896
  473MOL0     O63750   9.638   3.221   8.952 -0.2172  0.1357 -0.9901
  473MOL0     C63751   9.685   3.145   8.855  0.3734 -0.1237  0.5548
  473MOL0     C63752   9.815   3.132   8.819 -0.5456 -0.2556 -0.1732
  473MOL0     C63753   9.859   3.039   8.717 -0.5658  0.5676 -0.6104
  473MOL0     C63754   9.766   2.954   8.649 -0.6601 -0.5180 -0.4569
  473MOL0     O63755   9.812   2.865   8.547 -0.3091  0.5040 -0.2381
  473MOL0     C63756   9.716   2.808   8.458 -0.3622  0.3431  0.1583
  473MOL0     C63757   9.798   2.735   8.356 -0.5717 -0.1592  0.0133
  473MOL0     C63758   9.873   2.835   8.266  0.2015 -1.0088 -0.8044
  473MOL0     C63759   9.954   2.763   8.162 -0.1688  0.6882  0.2079
  473MOL0     C63760  10.024   2.851   8.056 -0.3920  0.1134  0.5845
  473MOL0     C63761  10.118   2.948   8.124 -0.1667 -0.3950  0.2626
  473MOL0     C63762  10.188   3.042   8.021 -0.8061 -0.3255 -0.6836
  473MOL0     C63763  10.332   2.993   8.015  0.6952 -0.6379 -0.4075
  473MOL0    Cl63764  10.361   2.824   7.966  0.0825 -0.3665  0.2872
  473MOL0     C63765   9.629   2.977   8.686 -1.9875  0.2203 -0.7088
  473MOL0     C63766   9.593   3.066   8.791  0.9065  1.0718  0.1372
  473MOL0     O63767   9.779   3.402   8.899 -0.0700  0.8624 -0.3320
  473MOL0     C63768   9.496   3.433   9.127  0.3692  0.2224  0.5089
  473MOL0     C63769   9.447   3.518   9.224  0.4754  0.0728  0.6903
  473MOL0     N63770   9.558   4.107   9.759 -0.1552 -0.5048  0.4764
  473MOL0     N63771   9.672   4.137   9.716 -0.3816 -0.5513  0.0039
  473MOL0     C63772   9.713   4.587   8.791 -0.1909 -0.0873 -0.2121
  473MOL0     C63773   9.766   4.699   8.727 -0.3426  0.5059  0.2259
  473MOL0     C63774   9.898   5.053   8.479 -0.2245  0.6955  0.4838
  473MOL0     C63775   9.815   5.065   8.364 -0.3572  0.1952 -0.6313
  473MOL0     C63776   9.822   5.182   8.288  0.3620  1.0571  0.3573
  473MOL0     C63777   9.905   5.290   8.319 -0.5962 -0.4908  0.2538
  473MOL0     O63778   9.898   5.404   8.234 -1.0589  0.1909 -0.0097
  473MOL0     C63779  10.002   5.498   8.236 -0.1250 -0.5546  0.3193
  473MOL0     C63780   9.987   5.630   8.147  0.8217  0.0313 -0.0224
  473MOL0     C63781  10.104   5.734   8.176 -0.4394  0.0056 -0.5161
  473MOL0     C63782  10.147   5.794   8.044 -0.0940 -0.5441  0.0153
  473MOL0     C63783  10.072   5.920   8.027  0.4030 -0.4634 -0.1259
  473MOL0     C63784  10.003   6.010   7.998 -0.6965 -0.8363 -0.0757
  473MOL0     C63785   9.997   5.269   8.421  0.2873 -0.3542  0.1845
  473MOL0     C63786   9.985   5.157   8.502  0.6723 -1.2444 -0.2275
  473MOL0     C63787  10.083   5.159   8.621  0.3924 -0.5551 -0.3728
  473MOL0     H63788   9.765   4.581   8.398 -0.8972  2.7985  0.1944
  473MOL0     H63789   9.649   4.401   8.519  1.4292  0.8149 -0.8355
  473MOL0     H63790   9.590   4.215   8.654  1.4910  0.6302 -1.3908
  473MOL0     H63791   9.752   4.245   8.714 -0.4854 -1.4747 -0.7162
  473MOL0     H63792   9.637   4.053   8.825  1.3437  0.3834 -0.2100
  473MOL0     H63793   9.522   4.169   8.908  1.7898  4.9032  2.6293
  473MOL0     H63794   9.695   4.275   9.024 -1.2031 -0.5201  0.0698
  473MOL0     H63795   9.813   4.184   8.929  0.6316 -1.5675  1.0608
  473MOL0     H63796   9.607   4.077   9.130  1.3418 -2.5425  0.5373
  473MOL0     H63797   9.684   3.967   9.037  1.8063 -1.4143  3.4241
  473MOL0     H63798   9.901   4.038   9.134 -2.3980 -3.0288 -0.8715
  473MOL0     H63799   9.834   4.189   9.190  0.8614 -1.2716 -1.2297
  473MOL0     H63800   9.678   4.037   9.352  0.4486 -1.4163  1.6103
  473MOL0     H63801   9.805   3.916   9.310 -1.9503 -0.8676 -2.1508
  473MOL0     H63802   9.881   4.182   9.434  0.8876 -0.3846 -0.7601
  473MOL0     H63803   9.967   4.032   9.404 -0.7287 -1.4509 -0.5354
  473MOL0     H63804   9.860   3.912   9.560  1.9716  0.9988 -1.7758
  473MOL0     H63805   9.919   4.056   9.640 -0.0835 -0.8330  0.4839
  473MOL0     H63806   9.622   3.848   9.571  1.6173 -0.1355  1.7179
  473MOL0     H63807   9.392   3.885   9.849 -0.7499 -3.1758 -1.0109
  473MOL0     H63808   9.304   3.982   9.733  1.1724  1.0632  1.5111
  473MOL0     H63809   9.465   3.724   9.639  0.1402 -0.4505 -3.8794
  473MOL0     H63810   9.287   3.724   9.690 -2.1013  1.1141 -2.5579
  473MOL0     H63811   9.395   3.910   9.476  0.4544  0.8590  2.3889
  473MOL0     H63812   9.230   3.871   9.516  0.4957  1.1795  0.5005
  473MOL0     H63813   9.280   3.725   9.329 -1.2009 -2.3738  0.4032
  473MOL0     H63814   9.315   3.622   9.467  0.5012  0.2711 -0.9088
  473MOL0     H63815   9.706   3.736   9.249 -1.5599  2.4577  0.5044
  473MOL0     H63816   9.798   3.568   9.079  2.0112 -2.4995  2.0835
  473MOL0     H63817   9.893   3.188   8.870 -0.6614 -1.3926  1.3276
  473MOL0     H63818   9.964   3.023   8.693 -0.2463 -0.6830  1.3734
  473MOL0     H63819   9.650   2.738   8.510  0.4683 -2.3960 -2.2648
  473MOL0     H63820   9.661   2.896   8.422 -1.2302  0.6571  2.0803
  473MOL0     H63821   9.868   2.663   8.401  1.4737 -0.2325 -3.0127
  473MOL0     H63822   9.734   2.666   8.300 -1.8911 -2.0386  3.5163
  473MOL0     H63823   9.795   2.893   8.216 -2.0614 -1.0119  2.4116
  473MOL0     H63824   9.934   2.905   8.323 -0.4449  0.1621 -1.5119
  473MOL0     H63825   9.881   2.699   8.111 -0.0548 -1.4559  2.5044
  473MOL0     H63826  10.019   2.694   8.217 -0.9169  1.1551  1.7469
  473MOL0     H63827   9.948   2.909   8.001 -1.8491 -1.4502  0.8602
  473MOL0     H63828  10.073   2.785   7.984 -0.4378  0.5537  0.1458
  473MOL0     H63829  10.048   2.997   8.192 -1.8320 -2.7094  0.3468
  473MOL0     H63830  10.191   2.905   8.193  0.0151 -1.2069 -0.4108
  473MOL0     H63831  10.185   3.150   8.042  0.3793 -0.2506 -0.8507
  473MOL0     H63832  10.130   3.027   7.929  1.4394 -0.8822 -2.0784
  473MOL0     H63833  10.379   3.047   7.932  1.8333 -1.2989 -0.2133
  473MOL0     H63834  10.400   3.021   8.096  1.0065  0.3358 -0.9913
  473MOL0     H63835   9.556   2.916   8.634 -1.2866 -0.4759 -0.8965
  473MOL0     H63836   9.487   3.083   8.804 -0.2188 -0.7921 -4.5384
  473MOL0     H63837   9.432   3.355   9.089 -1.1590  1.6953 -0.0859
  473MOL0     H63838   9.345   3.500   9.257  0.3138 -1.2795 -0.4638
  473MOL0     H63839   9.710   4.580   8.900  0.1263 -1.1761 -0.2544
  473MOL0     H63840   9.794   4.778   8.796 -2.2065  2.8394 -1.5122
  473MOL0     H63841   9.738   4.994   8.333 -1.0122  0.7451 -0.2866
  473MOL0     H63842   9.761   5.189   8.199  2.3132 -1.4220 -1.3235
  473MOL0     H63843  10.099   5.451   8.216  0.7027 -0.2175  3.0755
  473MOL0     H63844  10.017   5.530   8.339  1.3688  0.7961 -0.2529
  473MOL0     H63845   9.893   5.678   8.174 -0.8130 -2.6951 -0.5304
  473MOL0     H63846   9.968   5.595   8.045 -1.2990  0.1565  0.2847
  473MOL0     H63847  10.187   5.675   8.214  2.9589  3.0465 -2.6064
  473MOL0     H63848  10.082   5.810   8.252  0.7496  0.1160 -0.2680
  473MOL0     H63849  10.254   5.815   8.037 -0.2944  0.4718 -0.0767
  473MOL0     H63850  10.131   5.722   7.963  0.2198 -1.5240  0.8038
  473MOL0     H63851   9.957   6.097   7.955 -2.3466 -2.5292 -1.9482
  473MOL0     H63852  10.063   5.348   8.457 -0.5790  0.3133  0.3572
  473MOL0     H63853  10.151   5.074   8.627  0.9816 -0.0006  1.0977
  473MOL0     H63854  10.143   5.249   8.612 -1.7972  0.9469 -0.8411
  473MOL0     H63855  10.031   5.177   8.715 -1.9446 -0.0654 -1.6714
  474MOL0     O63856   7.100   2.747   2.939  0.5888 -0.2327 -0.8475
  474MOL0     C63857   7.162   2.644   2.939 -0.7713  0.4152 -0.6922
  474MOL0     O63858   7.115   2.520   2.903 -0.2096  0.2240  0.5731
  474MOL0     C63859   6.976   2.497   2.915  1.0258  0.5864  0.1687
  474MOL0     C63860   6.913   2.398   2.829 -0.1932 -0.4817  0.3567
  474MOL0     C63861   6.778   2.369   2.841  0.9849  0.0993  0.1672
  474MOL0     C63862   6.701   2.413   2.951  0.1300 -0.0102  0.1672
  474MOL0     O63863   6.563   2.391   2.946  0.1081 -0.7097 -0.1169
  474MOL0     C63864   6.473   2.494   2.992 -0.8957  0.2147  0.3540
  474MOL0     C63865   6.332   2.457   2.945  0.3847 -0.5290  0.4362
  474MOL0     C63866   6.306   2.311   2.975  0.2929  0.3150  0.4364
  474MOL0     C63867   6.171   2.258   2.940 -0.2491  0.2776  0.9707
  474MOL0     C63868   6.160   2.106   2.926 -0.7024  0.0073 -0.9036
  474MOL0     C63869   6.149   2.033   3.059 -0.1225  0.6381  0.7233
  474MOL0     C63870   6.156   1.879   3.039  0.1449 -0.1053 -0.9073
  474MOL0     C63871   6.164   1.802   3.173 -0.1560 -0.0637 -0.7887
  474MOL0     N63872   6.227   1.668   3.166 -0.0607  0.4252  0.1222
  474MOL0     C63873   6.177   1.543   3.197  0.7557  0.1710  0.3695
  474MOL0     C63874   6.278   1.453   3.204  0.9520  0.0552  0.7992
  474MOL0     C63875   6.256   1.310   3.253 -0.5594  0.2604  0.2556
  474MOL0     C63876   6.197   1.226   3.130 -0.3435 -0.7219 -0.9699
  474MOL0     C63877   6.313   1.166   3.047 -0.0220  0.2946 -0.3708
  474MOL0     C63878   6.292   1.026   3.014 -0.6115 -0.2493 -0.2847
  474MOL0     O63879   6.160   1.013   2.946 -0.7603 -0.2239  0.4395
  474MOL0     C63880   6.099   0.895   2.919  0.1997 -0.1324 -0.2692
  474MOL0     C63881   5.971   0.895   2.856 -0.5850  0.5020 -0.2530
  474MOL0     C63882   5.904   0.784   2.798 -0.3099  0.0845 -0.9603
  474MOL0     C63883   5.967   0.658   2.812  0.6003  0.0691  0.0719
  474MOL0     C63884   5.905   0.535   2.759 -0.0636 -0.2675 -0.4665
  474MOL0     O63885   5.766   0.546   2.737 -0.0758 -0.4105 -0.1352
  474MOL0     C63886   5.711   0.454   2.657  0.5101  0.0868 -0.2234
  474MOL0     C63887   5.581   0.416   2.691  0.0635 -0.4736 -0.0946
  474MOL0     C63888   5.514   0.325   2.614 -0.0566 -0.0568  0.0056
  474MOL0     C63889   5.579   0.268   2.501  0.0633  0.9754  0.1257
  474MOL0     O63890   5.501   0.175   2.430 -0.4983  0.5654 -0.4550
  474MOL0     C63891   5.363   0.146   2.457  0.2034  0.2827 -0.2827
  474MOL0     C63892   5.319   0.060   2.343  0.3533  0.3562  0.1591
  474MOL0     C63893   5.163   0.061   2.339 -0.3647  0.3126  0.7675
  474MOL0     C63894   5.112   0.196   2.291  0.3046 -0.1485  0.8577
  474MOL0     C63895   4.958   0.184   2.262  0.5847  0.6898  0.1657
  474MOL0     C63896   4.914   0.102   2.131 -0.5200  0.9991 -0.0407
  474MOL0     C63897   4.775   0.130   2.095  0.0686 -0.7958 -0.5078
  474MOL0     C63898   4.711   0.036   1.993  0.4406 -0.3341  1.0142
  474MOL0    Cl63899   4.803   0.065   1.841 -0.1633  0.5330  0.6187
  474MOL0     C63900   5.712   0.297   2.465  0.5085  0.3244 -0.2348
  474MOL0     C63901   5.773   0.402   2.543  0.1709  0.2237  0.6353
  474MOL0     O63902   5.976   0.438   2.745  0.0656  0.2680  0.3757
  474MOL0     C63903   6.091   0.658   2.880  0.1540  0.3533 -0.1625
  474MOL0     C63904   6.155   0.772   2.929  0.4176  0.0008 -0.4242
  474MOL0     N63905   6.394   1.526   3.182  0.2074 -0.1083  0.5667
  474MOL0     N63906   6.360   1.657   3.158 -1.1044 -0.4789  0.3767
  474MOL0     C63907   6.762   2.497   3.043 -0.1964 -0.9175  0.5436
  474MOL0     C63908   6.897   2.538   3.025 -0.8282  0.2406 -0.7073
  474MOL0     C63909   7.302   2.661   2.965  0.2141  0.2636 -0.0580
  474MOL0     C63910   7.388   2.572   2.901 -0.3846  1.0378  0.3926
  474MOL0     C63911   7.528   2.587   2.930  0.0443 -0.2462  0.3864
  474MOL0     C63912   7.564   2.678   3.030  0.6803 -0.0615 -0.1331
  474MOL0     O63913   7.689   2.692   3.067  0.0186 -0.1819 -0.0840
  474MOL0     C63914   7.778   2.577   3.074  0.0621 -0.1362  0.4518
  474MOL0     C63915   7.864   2.596   3.202  0.3770 -0.8680 -0.2340
  474MOL0     C63916   7.988   2.524   3.196 -0.2315 -0.2581 -0.9694
  474MOL0     C63917   8.070   2.495   3.321 -0.5209 -0.2852  0.3193
  474MOL0     C63918   8.205   2.475   3.273  0.1761  1.0428  0.9974
  474MOL0     C63919   8.320   2.460   3.227  0.0097 -0.3606  1.0769
  474MOL0     C63920   7.476   2.770   3.075  0.0792  0.4525 -0.3573
  474MOL0     C63921   7.341   2.761   3.060  0.1281 -0.3486 -0.3442
  474MOL0     C63922   7.257   2.876   3.126  0.0505  0.1100 -0.5347
  474MOL0     H63923   6.961   2.343   2.749 -0.2095 -2.6095  1.7047
  474MOL0     H63924   6.726   2.318   2.760 -0.2389  2.2091 -0.4602
  474MOL0     H63925   6.470   2.473   3.100  1.6604 -0.5172  0.3628
  474MOL0     H63926   6.511   2.592   2.964  2.9862 -0.4692  2.4956
  474MOL0     H63927   6.323   2.475   2.837  0.5085  2.5715  0.8480
  474MOL0     H63928   6.262   2.517   3.004  0.7685 -3.2872  3.9738
  474MOL0     H63929   6.324   2.300   3.082 -0.1553 -0.7174  0.4122
  474MOL0     H63930   6.376   2.246   2.924 -0.0619 -1.2590  1.8710
  474MOL0     H63931   6.103   2.296   3.017 -0.9751 -2.4239  1.7637
  474MOL0     H63932   6.138   2.302   2.846 -1.1236  0.3888  1.3151
  474MOL0     H63933   6.065   2.087   2.876 -3.1603  0.1486  3.2848
  474MOL0     H63934   6.230   2.056   2.858 -1.3473 -1.8069 -0.2927
  474MOL0     H63935   6.234   2.069   3.117  0.2848 -1.6918  1.6848
  474MOL0     H63936   6.052   2.057   3.103 -1.2437  0.9534 -1.7446
  474MOL0     H63937   6.239   1.865   2.969 -0.0223  3.5029 -2.0368
  474MOL0     H63938   6.084   1.819   2.981  0.6692 -2.2428  0.5571
  474MOL0     H63939   6.229   1.857   3.242  0.8562 -0.8816 -1.0642
  474MOL0     H63940   6.062   1.803   3.212  0.0085 -0.7184 -0.3260
  474MOL0     H63941   6.072   1.530   3.221  0.6017 -0.6901 -0.7168
  474MOL0     H63942   6.348   1.268   3.294 -0.1122 -0.5291 -1.4517
  474MOL0     H63943   6.180   1.316   3.332 -1.6736  1.2117 -0.8571
  474MOL0     H63944   6.137   1.143   3.170  2.3610 -2.7404 -0.8110
  474MOL0     H63945   6.121   1.279   3.072  0.9007 -0.6664 -2.6281
  474MOL0     H63946   6.404   1.167   3.107 -0.6369  0.8935  0.5734
  474MOL0     H63947   6.323   1.233   2.961 -0.2193 -0.9000 -1.3511
  474MOL0     H63948   6.286   0.968   3.107 -2.1544 -0.4923 -0.5090
  474MOL0     H63949   6.372   0.985   2.951  1.5954  1.9873  0.9030
  474MOL0     H63950   5.912   0.986   2.855  3.1510  3.2214  1.2351
  474MOL0     H63951   5.809   0.771   2.746 -1.4041 -1.0568  1.1752
  474MOL0     H63952   5.548   0.444   2.790  1.1871  0.2542  0.0926
  474MOL0     H63953   5.409   0.310   2.634  0.0226  2.0517  2.5142
  474MOL0     H63954   5.340   0.112   2.558 -2.4082  4.0405  0.5976
  474MOL0     H63955   5.309   0.241   2.455 -0.7614 -0.2525  0.0394
  474MOL0     H63956   5.355   0.099   2.247  1.0255  2.4355  1.1931
  474MOL0     H63957   5.356  -0.042   2.360 -0.6550 -0.2350 -1.0611
  474MOL0     H63958   5.122  -0.012   2.268 -0.5544 -0.1750  1.3731
  474MOL0     H63959   5.120   0.033   2.435 -2.2480  1.6927  0.3630
  474MOL0     H63960   5.171   0.236   2.208 -0.5209  0.8710  0.7393
  474MOL0     H63961   5.117   0.271   2.370 -0.3503 -0.2905  1.0372
  474MOL0     H63962   4.934   0.288   2.242 -1.6325  0.3883  0.9290
  474MOL0     H63963   4.903   0.157   2.353  3.3034  1.2571  2.0746
  474MOL0     H63964   4.965   0.114   2.035 -2.1713 -1.2084 -1.3078
  474MOL0     H63965   4.929  -0.004   2.154  1.1427  1.5810  1.8079
  474MOL0     H63966   4.771   0.234   2.062  0.4705 -0.5255  0.2674
  474MOL0     H63967   4.715   0.132   2.187  0.7375 -1.8604 -0.0269
  474MOL0     H63968   4.706  -0.070   2.022 -3.9085 -1.2291 -1.8836
  474MOL0     H63969   4.608   0.068   1.971  0.7281  2.0827  2.7959
  474MOL0     H63970   5.754   0.270   2.369 -0.8231  0.7819 -0.9700
  474MOL0     H63971   5.869   0.427   2.501 -0.2381 -0.8431 -1.0470
  474MOL0     H63972   6.143   0.563   2.881 -1.6751 -0.6804 -0.1314
  474MOL0     H63973   6.252   0.777   2.978 -1.1879 -0.0150  3.0833
  474MOL0     H63974   6.701   2.523   3.129 -1.2355  0.7066 -0.6239
  474MOL0     H63975   6.945   2.588   3.109  3.6559 -3.1373 -0.8453
  474MOL0     H63976   7.362   2.500   2.825  0.9391  2.7879 -1.8565
  474MOL0     H63977   7.596   2.535   2.864 -2.4797 -2.5705 -0.5808
  474MOL0     H63978   7.840   2.574   2.983  1.9890  0.5318  1.6743
  474MOL0     H63979   7.728   2.481   3.088  0.6479 -0.2279  2.1896
  474MOL0     H63980   7.812   2.565   3.293  0.6084  0.9644  0.5672
  474MOL0     H63981   7.886   2.703   3.209  0.9289 -1.0459  1.2239
  474MOL0     H63982   8.048   2.588   3.130 -0.9051  2.2997  0.7275
  474MOL0     H63983   7.968   2.434   3.138 -4.1704  1.9561 -3.5261
  474MOL0     H63984   8.075   2.588   3.380  1.2595 -0.4531  0.4804
  474MOL0     H63985   8.032   2.403   3.366  2.9859 -2.2419 -0.3645
  474MOL0     H63986   8.420   2.458   3.188 -0.6533  1.6133 -0.9083
  474MOL0     H63987   7.502   2.841   3.153  0.6166  0.4779 -0.5575
  474MOL0     H63988   7.200   2.938   3.056 -2.0350  1.8319  2.4611
  474MOL0     H63989   7.196   2.827   3.203 -0.6359  0.7155 -0.6810
  474MOL0     H63990   7.330   2.945   3.170  1.7174 -2.9969  2.0114
  475MOL0     O63991  10.772  11.412   7.729 -0.1053 -0.1779 -0.2236
  475MOL0     C63992  10.774  11.521   7.675 -0.4008 -0.4050  0.4599
  475MOL0     O63993  10.864  11.561   7.576 -0.2024 -0.0793  0.5470
  475MOL0     C63994  10.950  11.478   7.511 -1.0642  0.0498  0.5633
  475MOL0     C63995  11.043  11.520   7.419 -0.4547  0.2406  0.2545
  475MOL0     C63996  11.134  11.447   7.350  0.5890  0.0066 -0.4157
  475MOL0     C63997  11.136  11.309   7.363 -0.0373  0.7436  0.6291
  475MOL0     O63998  11.226  11.216   7.311 -0.1323  0.2334 -0.0157
  475MOL0     C63999  11.364  11.221   7.360  0.1133  1.0041 -0.5119
  475MOL0     C64000  11.389  11.081   7.429  0.4180 -0.0701 -0.3087
  475MOL0     C64001  11.432  10.970   7.340 -0.2663  0.4007 -0.1155
  475MOL0     C64002  11.570  10.908   7.371 -0.1720 -0.4105 -0.4630
  475MOL0     C64003  11.608  10.799   7.277 -0.3727 -0.5134 -1.1101
  475MOL0     C64004  11.746  10.749   7.308 -0.0826 -0.2237 -0.2363
  475MOL0     C64005  11.787  10.652   7.196  0.7049  0.3530  0.1580
  475MOL0     C64006  11.930  10.616   7.212 -0.1204  0.5813  0.6260
  475MOL0     N64007  11.972  10.515   7.127  0.3593  0.1326  0.1031
  475MOL0     C64008  12.044  10.406   7.164 -0.1207 -0.3618  0.3313
  475MOL0     C64009  12.100  10.352   7.050  0.5283  0.6950 -0.2750
  475MOL0     C64010  12.180  10.235   7.030 -0.0204 -0.0636 -0.2088
  475MOL0     C64011  12.317  10.271   6.981 -1.1125  0.2538 -0.4671
  475MOL0     C64012  12.324  10.332   6.838  0.7084  0.2410  0.4014
  475MOL0     C64013  12.452  10.289   6.762  0.2941  0.3783 -0.5582
  475MOL0     O64014  12.550  10.372   6.822  0.3034 -0.2722  0.7550
  475MOL0     C64015  12.682  10.354   6.782 -1.0562  0.3370 -0.0852
  475MOL0     C64016  12.762  10.445   6.847 -0.6377 -0.4363  0.2680
  475MOL0     C64017  12.905  10.443   6.832  0.5887 -0.8309  0.2174
  475MOL0     C64018  12.961  10.345   6.741 -0.2700  0.3924 -0.1692
  475MOL0     C64019  13.105  10.347   6.726  0.5768  0.4162  0.5852
  475MOL0     O64020  13.136  10.278   6.608 -0.3163  0.0367  0.3790
  475MOL0     C64021  13.261  10.299   6.548 -0.5207  0.2279 -0.5449
  475MOL0     C64022  13.300  10.418   6.489 -1.7259 -0.0810 -0.0426
  475MOL0     C64023  13.444  10.434   6.453  0.0754  0.3457 -0.5026
  475MOL0     C64024  13.526  10.321   6.457 -0.3418  0.8239 -0.1243
  475MOL0     O64025  13.654  10.354   6.432 -0.2440 -0.3800 -0.8687
  475MOL0     C64026  13.749  10.261   6.393 -0.9241  0.1218  0.2781
  475MOL0     C64027  13.730  10.225   6.244  0.4829  0.7027 -0.9371
  475MOL0     C64028  13.759  10.339   6.147  0.6652 -0.4001 -0.0835
  475MOL0     C64029  13.749  10.287   6.000 -0.1058  0.3218  0.1630
  475MOL0     C64030  13.764  10.394   5.894  0.5065  0.7665 -0.3096
  475MOL0     C64031  13.904  10.447   5.879  0.3074  0.2269  0.0923
  475MOL0     C64032  13.923  10.554   5.772 -0.5937 -1.0824 -0.4308
  475MOL0     C64033  14.075  10.577   5.739  0.0291 -0.5035  0.5860
  475MOL0    Cl64034  14.089  10.720   5.637  0.1255 -0.2659 -0.0197
  475MOL0     C64035  13.474  10.200   6.505 -0.2353  1.4707 -0.3965
  475MOL0     C64036  13.342  10.191   6.546 -0.5261  0.4823 -0.3936
  475MOL0     O64037  13.185  10.389   6.814  0.2549  0.7492 -0.7680
  475MOL0     C64038  12.874  10.257   6.672 -0.1703  0.4573  0.1003
  475MOL0     C64039  12.740  10.264   6.689  0.4968 -0.0416 -0.7833
  475MOL0     N64040  12.041  10.437   6.950  0.1685 -0.8065  0.0423
  475MOL0     N64041  11.966  10.526   6.992 -0.6173  0.3103 -0.3161
  475MOL0     C64042  11.041  11.257   7.448  0.3711  0.1778 -0.0486
  475MOL0     C64043  10.950  11.336   7.518  0.1385 -0.6856 -0.1586
  475MOL0     C64044  10.701  11.630   7.738  0.5314 -0.1518 -0.7739
  475MOL0     C64045  10.767  11.749   7.776 -0.0308 -1.2268  0.6012
  475MOL0     C64046  10.687  11.840   7.847  0.1364 -0.3495 -0.6321
  475MOL0     C64047  10.550  11.832   7.872  0.1967 -0.1742 -0.7037
  475MOL0     O64048  10.477  11.916   7.943  0.0640 -0.1608  0.3978
  475MOL0     C64049  10.330  11.927   7.931  0.8786 -0.0969  0.1361
  475MOL0     C64050  10.276  12.033   8.027  0.0703  0.2300  0.0256
  475MOL0     C64051  10.351  12.158   7.995 -0.4646 -0.2265  0.5767
  475MOL0     C64052  10.343  12.212   7.847  0.1459  0.6911  0.1369
  475MOL0     C64053  10.195  12.244   7.833 -0.5439 -0.4267  0.6260
  475MOL0     C64054  10.073  12.259   7.830  0.7015 -1.2862  0.1384
  475MOL0     C64055  10.489  11.720   7.818  0.4196 -0.7906 -0.5470
  475MOL0     C64056  10.565  11.617   7.773 -0.3194  0.0672 -0.2162
  475MOL0     C64057  10.491  11.485   7.733 -0.4748 -0.1278  0.3961
  475MOL0     H64058  11.043  11.626   7.397 -0.8578  0.2655  0.3698
  475MOL0     H64059  11.210  11.484   7.283 -0.7564 -1.3173 -2.8051
  475MOL0     H64060  11.434  11.216   7.276  2.0787  0.6806  1.0742
  475MOL0     H64061  11.394  11.305   7.423 -1.5088  4.2213 -3.6757
  475MOL0     H64062  11.302  11.052   7.487  0.7299  0.5686  0.4998
  475MOL0     H64063  11.469  11.093   7.503 -0.9676 -2.6381  1.7747
  475MOL0     H64064  11.434  11.000   7.235 -0.1060 -1.1338 -0.5745
  475MOL0     H64065  11.355  10.893   7.339 -0.4337  0.5698 -0.2720
  475MOL0     H64066  11.638  10.993   7.366 -0.1474  0.0283  3.5730
  475MOL0     H64067  11.565  10.863   7.471 -0.6025  0.6269  0.0009
  475MOL0     H64068  11.542  10.714   7.296  0.8188 -2.0332 -3.3463
  475MOL0     H64069  11.600  10.830   7.173  1.1529  1.7863 -0.6045
  475MOL0     H64070  11.817  10.832   7.313  1.2638 -1.2526 -1.3555
  475MOL0     H64071  11.746  10.705   7.408  0.5981  1.8966  0.7508
  475MOL0     H64072  11.777  10.704   7.100 -0.2262  1.9777  1.0829
  475MOL0     H64073  11.731  10.559   7.200  0.0031  0.5524 -2.6094
  475MOL0     H64074  11.990  10.704   7.186  0.4553  0.7798  2.4799
  475MOL0     H64075  11.947  10.591   7.317 -1.4249 -3.0028  0.1241
  475MOL0     H64076  12.051  10.370   7.267 -2.3056 -0.7617  0.3869
  475MOL0     H64077  12.190  10.169   7.117  1.8216 -0.6074 -0.8008
  475MOL0     H64078  12.125  10.172   6.959 -2.6727  0.7866  0.9472
  475MOL0     H64079  12.360  10.334   7.059 -0.8484 -3.7712  3.0078
  475MOL0     H64080  12.384  10.186   7.000 -2.1858 -0.3352  0.7871
  475MOL0     H64081  12.330  10.441   6.843 -2.5157  0.5522 -0.5762
  475MOL0     H64082  12.232  10.319   6.780  0.7252  0.7995  0.2445
  475MOL0     H64083  12.446  10.320   6.657  1.2897 -2.0024 -1.3831
  475MOL0     H64084  12.472  10.183   6.780  1.9042  0.7472 -0.0735
  475MOL0     H64085  12.717  10.522   6.909  1.1726  0.0951  0.9700
  475MOL0     H64086  12.955  10.514   6.896 -2.7914  0.7173  1.4084
  475MOL0     H64087  13.235  10.504   6.484 -3.6238 -1.5148 -3.3129
  475MOL0     H64088  13.483  10.531   6.425 -3.6124  1.5542 -2.0250
  475MOL0     H64089  13.849  10.303   6.411  0.3345 -1.5683 -2.1120
  475MOL0     H64090  13.750  10.169   6.453  2.2072  0.2151  0.5635
  475MOL0     H64091  13.817  10.158   6.237 -0.2589 -0.9451  3.0827
  475MOL0     H64092  13.636  10.170   6.235  0.7012  0.5633 -2.9476
  475MOL0     H64093  13.681  10.416   6.148  0.3414 -0.6983 -1.1769
  475MOL0     H64094  13.859  10.381   6.153  0.3834  0.2718 -0.0317
  475MOL0     H64095  13.646  10.250   5.999  0.0145 -0.1503  2.0308
  475MOL0     H64096  13.821  10.207   5.979 -1.6691 -0.3698 -3.4262
  475MOL0     H64097  13.692  10.475   5.905 -0.3466  0.2035 -1.4522
  475MOL0     H64098  13.727  10.339   5.807 -2.7199  0.0309  1.3397
  475MOL0     H64099  13.938  10.475   5.979  0.4745 -2.0212  0.7158
  475MOL0     H64100  13.975  10.372   5.844  2.8468  1.7530  1.6595
  475MOL0     H64101  13.884  10.649   5.809  1.0586  0.3290 -2.1130
  475MOL0     H64102  13.866  10.540   5.680 -1.9009 -1.8325  0.4590
  475MOL0     H64103  14.146  10.577   5.822  2.1875 -2.5206 -1.1121
  475MOL0     H64104  14.112  10.496   5.676  2.0182 -0.8450  2.0991
  475MOL0     H64105  13.533  10.110   6.520 -2.2924  0.1837  0.2956
  475MOL0     H64106  13.303  10.101   6.593 -3.2983  1.8329  0.0994
  475MOL0     H64107  12.914  10.185   6.602  2.6540  0.3254  1.6754
  475MOL0     H64108  12.672  10.198   6.636  1.4262 -0.9889 -0.8163
  475MOL0     H64109  11.036  11.149   7.452 -1.7262  0.0465 -2.9957
  475MOL0     H64110  10.883  11.274   7.576  2.6393 -0.8047  2.8734
  475MOL0     H64111  10.875  11.758   7.763 -0.1973 -0.9247 -0.7542
  475MOL0     H64112  10.734  11.920   7.902 -1.8174  1.4971 -1.4755
  475MOL0     H64113  10.275  11.834   7.950 -1.9123  0.7225 -2.9133
  475MOL0     H64114  10.299  11.939   7.826  0.5456 -0.2581  0.2127
  475MOL0     H64115  10.303  12.004   8.129  3.3690 -1.1513 -1.0915
  475MOL0     H64116  10.167  12.043   8.023 -0.0310 -0.8671 -0.0813
  475MOL0     H64117  10.454  12.125   8.013 -0.1539 -1.0013 -2.2442
  475MOL0     H64118  10.324  12.244   8.057  2.7270  1.7683 -0.5911
  475MOL0     H64119  10.423  12.287   7.838  2.7408 -1.9584 -0.6089
  475MOL0     H64120  10.373  12.132   7.779  1.8686  0.0925  1.5152
  475MOL0     H64121   9.969  12.254   7.805  0.9203 -0.7783 -0.9610
  475MOL0     H64122  10.382  11.703   7.821 -0.0039  1.6047  0.9416
  475MOL0     H64123  10.489  11.422   7.823 -0.9932 -0.2839  0.2775
  475MOL0     H64124  10.386  11.503   7.708 -0.2269  0.3626 -0.3013
  475MOL0     H64125  10.527  11.435   7.643  0.4007 -0.4078  0.8947
  476MOL0     O64126  11.159   2.268   7.765  0.2255 -0.6899  0.9523
  476MOL0     C64127  11.077   2.340   7.715  0.5607  1.0217 -0.6215
  476MOL0     O64128  11.072   2.379   7.591  0.2488  0.7923  0.1577
  476MOL0     C64129  11.152   2.344   7.486 -0.2668  1.5998  0.9019
  476MOL0     C64130  11.112   2.377   7.358 -0.2204  0.3679 -0.4532
  476MOL0     C64131  11.162   2.319   7.248  0.2894  0.0046  0.2411
  476MOL0     C64132  11.277   2.241   7.255  0.3969  0.4519  0.0582
  476MOL0     O64133  11.332   2.174   7.149 -0.3949 -0.1916 -0.2261
  476MOL0     C64134  11.239   2.083   7.084  0.2132 -0.4381  0.1412
  476MOL0     C64135  11.277   2.068   6.944  0.5056  0.8173 -0.0936
  476MOL0     C64136  11.198   1.952   6.873 -0.2555  0.2639 -1.0045
  476MOL0     C64137  11.066   2.011   6.825  0.1219  0.0432 -0.0412
  476MOL0     C64138  10.967   1.907   6.761 -0.5192  1.0193 -0.3362
  476MOL0     C64139  11.035   1.832   6.642  0.0911  0.6717 -0.5762
  476MOL0     C64140  10.925   1.779   6.540  0.4775 -0.0597 -0.4675
  476MOL0     C64141  10.991   1.721   6.418 -0.5005  0.0151  0.0123
  476MOL0     N64142  11.065   1.603   6.458  0.5294  1.0055  0.4621
  476MOL0     C64143  11.202   1.580   6.480  0.5558 -0.1821  0.4592
  476MOL0     C64144  11.203   1.446   6.483 -0.2926 -0.3490  0.1623
  476MOL0     C64145  11.332   1.373   6.490  0.0212  0.3908  0.5462
  476MOL0     C64146  11.376   1.349   6.341  0.2900 -0.6383 -0.2538
  476MOL0     C64147  11.504   1.268   6.315 -0.5537 -0.4836 -0.2511
  476MOL0     C64148  11.619   1.294   6.409  1.2331 -1.1712  0.4164
  476MOL0     O64149  11.645   1.434   6.431  0.2506 -0.0582 -0.5687
  476MOL0     C64150  11.748   1.474   6.518 -0.9553  0.0410  0.0650
  476MOL0     C64151  11.832   1.394   6.591  0.7663 -0.3891  0.6432
  476MOL0     C64152  11.944   1.430   6.661 -1.1456 -1.0313 -0.0993
  476MOL0     C64153  11.964   1.574   6.683  0.0881  0.0323  0.3822
  476MOL0     C64154  12.073   1.627   6.762  0.3433  0.4923 -0.4970
  476MOL0     O64155  12.094   1.759   6.766 -0.3597 -0.4256  0.2375
  476MOL0     C64156  12.216   1.814   6.792  0.5066 -0.7738 -0.3166
  476MOL0     C64157  12.298   1.867   6.693 -0.3983 -0.2967  0.8208
  476MOL0     C64158  12.425   1.920   6.723  0.5793 -0.5544  1.7419
  476MOL0     C64159  12.477   1.918   6.842 -0.3870  1.4181 -0.5480
  476MOL0     O64160  12.604   1.954   6.883 -0.2823 -0.3259 -0.1031
  476MOL0     C64161  12.687   2.053   6.816  0.1190 -1.0505  0.2692
  476MOL0     C64162  12.663   2.200   6.873 -0.7246  0.2205  0.6079
  476MOL0     C64163  12.537   2.272   6.811  0.0157 -0.2428  0.0296
  476MOL0     C64164  12.519   2.410   6.874  0.7461 -0.4138 -0.1880
  476MOL0     C64165  12.394   2.494   6.833 -0.4932  0.0990  0.0608
  476MOL0     C64166  12.373   2.629   6.923  0.1205 -0.4047  0.0936
  476MOL0     C64167  12.439   2.760   6.861 -0.4267 -0.5615 -0.8550
  476MOL0     C64168  12.451   2.870   6.967  0.1180  0.4361  0.3893
  476MOL0    Cl64169  12.565   2.997   6.933  0.4973  0.3653 -0.0580
  476MOL0     C64170  12.402   1.857   6.948  0.3244  1.2951  0.5072
  476MOL0     C64171  12.274   1.818   6.918 -0.9583  0.7042  0.3653
  476MOL0     O64172  12.145   1.540   6.815 -0.4629 -0.3183  0.6340
  476MOL0     C64173  11.872   1.656   6.629 -0.4114 -0.0591  0.3114
  476MOL0     C64174  11.766   1.606   6.548  0.0789  0.0983 -0.4057
  476MOL0     N64175  11.083   1.389   6.489 -0.3132  0.3710 -0.1407
  476MOL0     N64176  10.994   1.479   6.464  0.3572 -0.9070 -0.2309
  476MOL0     C64177  11.315   2.196   7.380 -0.8701 -0.3370  0.3370
  476MOL0     C64178  11.256   2.244   7.494  0.3739  0.1427  0.1755
  476MOL0     C64179  10.957   2.373   7.798  1.1433  0.2093  0.1701
  476MOL0     C64180  10.968   2.353   7.944  0.5169 -1.1793 -0.5683
  476MOL0     C64181  10.874   2.407   8.031 -0.5991  0.4870 -0.2414
  476MOL0     C64182  10.761   2.462   7.988  0.1357 -0.3742  0.4163
  476MOL0     O64183  10.658   2.488   8.077 -0.3038  0.1625 -0.5537
  476MOL0     C64184  10.609   2.622   8.097 -0.3501  0.5791 -0.4324
  476MOL0     C64185  10.652   2.696   8.227  0.2841  0.3096  0.4561
  476MOL0     C64186  10.624   2.592   8.335 -0.1607 -0.1831  1.1453
  476MOL0     C64187  10.691   2.632   8.465 -0.8447 -1.3872  0.0422
  476MOL0     C64188  10.844   2.631   8.448 -0.0651 -0.0420 -0.3377
  476MOL0     C64189  10.968   2.618   8.425  0.9844  0.7231 -0.6949
  476MOL0     C64190  10.749   2.484   7.849 -0.9774 -0.4498  0.1881
  476MOL0     C64191  10.840   2.445   7.754 -0.0471 -0.0189  0.2319
  476MOL0     C64192  10.799   2.463   7.606  0.9226  0.0900 -0.1145
  476MOL0     H64193  11.034   2.449   7.335 -0.1894  0.4710 -0.2360
  476MOL0     H64194  11.114   2.335   7.152 -0.6425  1.7452  0.9588
  476MOL0     H64195  11.215   1.989   7.135 -2.1015  0.0741  0.0862
  476MOL0     H64196  11.140   2.129   7.091  0.3208 -0.3190  1.0333
  476MOL0     H64197  11.381   2.035   6.955  0.3155  0.8241  2.2427
  476MOL0     H64198  11.261   2.157   6.882 -1.8292  0.8403  0.4560
  476MOL0     H64199  11.178   1.868   6.940 -0.6643  1.5941  0.6045
  476MOL0     H64200  11.256   1.915   6.787  0.1668  3.5538 -2.2771
  476MOL0     H64201  11.013   2.043   6.915 -0.7929  1.1251 -0.9361
  476MOL0     H64202  11.079   2.091   6.751  3.1540 -0.4290 -0.1459
  476MOL0     H64203  10.948   1.833   6.840  2.2451  1.0005  0.4465
  476MOL0     H64204  10.868   1.945   6.736 -3.8730 -5.6260  0.7031
  476MOL0     H64205  11.082   1.903   6.574  1.2880  1.1522  0.7094
  476MOL0     H64206  11.101   1.751   6.673 -2.3037 -1.4631 -0.6754
  476MOL0     H64207  10.845   1.846   6.509  0.0238 -1.2724 -2.0294
  476MOL0     H64208  10.880   1.696   6.597 -0.5661  1.1154  0.4711
  476MOL0     H64209  10.911   1.684   6.352 -0.9927 -0.3218  0.7750
  476MOL0     H64210  11.055   1.797   6.374  0.7708 -0.0893  1.5878
  476MOL0     H64211  11.285   1.650   6.487 -1.5682  2.3586  2.8728
  476MOL0     H64212  11.413   1.434   6.531  2.7112 -1.4332 -1.7405
  476MOL0     H64213  11.324   1.287   6.557  1.5833 -0.8845 -0.8214
  476MOL0     H64214  11.292   1.313   6.281  0.5302  0.6586 -1.4068
  476MOL0     H64215  11.409   1.444   6.298  1.5167 -2.4096 -3.5124
  476MOL0     H64216  11.541   1.301   6.217  0.1839  0.4773  0.3354
  476MOL0     H64217  11.493   1.159   6.315  6.0274 -1.5842  1.2357
  476MOL0     H64218  11.707   1.261   6.353  1.4316  0.8408 -0.5294
  476MOL0     H64219  11.610   1.245   6.507 -0.8260 -0.0901  0.8328
  476MOL0     H64220  11.818   1.287   6.578  1.9843 -0.2516 -3.0111
  476MOL0     H64221  12.010   1.361   6.712 -0.7492 -0.9362 -0.4795
  476MOL0     H64222  12.267   1.879   6.590 -0.8461 -1.9089  0.7404
  476MOL0     H64223  12.477   1.967   6.641 -2.4637  0.1633  0.0896
  476MOL0     H64224  12.793   2.033   6.836 -0.4763 -3.6730  1.2012
  476MOL0     H64225  12.671   2.053   6.708 -1.5446 -0.7292  0.4898
  476MOL0     H64226  12.660   2.212   6.982 -2.5919 -0.1943  0.6336
  476MOL0     H64227  12.751   2.256   6.839 -1.7634  2.2004  0.9878
  476MOL0     H64228  12.552   2.283   6.703 -0.2203  2.1182  0.2036
  476MOL0     H64229  12.445   2.223   6.844  0.3327  0.2208  1.6755
  476MOL0     H64230  12.607   2.466   6.843  1.0299 -0.1836  0.9956
  476MOL0     H64231  12.518   2.395   6.983 -0.7845 -2.0512 -0.3873
  476MOL0     H64232  12.301   2.436   6.832 -2.5637  3.1719  0.2823
  476MOL0     H64233  12.422   2.525   6.731  0.5078  0.1748  0.3472
  476MOL0     H64234  12.266   2.651   6.936  0.1006  0.9025 -1.8300
  476MOL0     H64235  12.409   2.610   7.024 -0.7323 -3.1594 -0.0138
  476MOL0     H64236  12.377   2.796   6.779 -1.3663  1.2369  0.5731
  476MOL0     H64237  12.535   2.723   6.824 -1.1200 -2.5844 -0.7417
  476MOL0     H64238  12.351   2.905   6.993 -1.1607 -3.8929  2.1188
  476MOL0     H64239  12.484   2.812   7.053  1.8476 -0.2961 -0.6939
  476MOL0     H64240  12.450   1.855   7.046  0.0167  1.6170  0.6659
  476MOL0     H64241  12.213   1.775   6.996 -0.5240 -1.2185 -0.3167
  476MOL0     H64242  11.879   1.761   6.653  3.5425 -0.1475  0.0777
  476MOL0     H64243  11.706   1.674   6.488  1.1201 -0.1107 -1.7482
  476MOL0     H64244  11.403   2.134   7.394  0.2849  1.6673  2.8062
  476MOL0     H64245  11.295   2.213   7.590  1.3716  0.6242 -0.0642
  476MOL0     H64246  11.050   2.299   7.990  0.3976 -1.1671 -0.3392
  476MOL0     H64247  10.881   2.403   8.139 -1.3069  4.0679  0.0348
  476MOL0     H64248  10.500   2.618   8.108 -0.8348  1.4855 -3.7379
  476MOL0     H64249  10.641   2.687   8.015  1.9841  2.3979  1.7659
  476MOL0     H64250  10.593   2.788   8.237 -1.5650 -0.6106 -1.3752
  476MOL0     H64251  10.755   2.733   8.225 -0.1515  1.5652 -0.1530
  476MOL0     H64252  10.650   2.491   8.302  1.9959  1.0442 -1.2550
  476MOL0     H64253  10.515   2.592   8.346 -0.6269 -0.3878 -2.3587
  476MOL0     H64254  10.656   2.732   8.492  0.6371 -1.3687  2.1309
  476MOL0     H64255  10.668   2.561   8.545 -0.3137 -2.0352 -0.3628
  476MOL0     H64256  11.072   2.596   8.414  1.3585  1.0288  1.6409
  476MOL0     H64257  10.661   2.535   7.811 -0.4680  0.6509  0.4356
  476MOL0     H64258  10.859   2.538   7.554  2.5255 -1.1201 -0.0714
  476MOL0     H64259  10.830   2.371   7.555  0.3206  0.7378 -1.7353
  476MOL0     H64260  10.692   2.480   7.590  1.1334  1.3574 -0.2359
  477MOL0     O64261   5.076   6.704   8.105 -0.4021  1.4483 -0.6677
  477MOL0     C64262   5.174   6.718   8.180  0.7619  0.0617  0.6770
  477MOL0     O64263   5.275   6.640   8.190 -0.9799  0.2593 -0.9066
  477MOL0     C64264   5.288   6.535   8.096 -0.4020 -0.3982 -0.2118
  477MOL0     C64265   5.301   6.399   8.132 -0.1835  0.4900  0.5187
  477MOL0     C64266   5.319   6.301   8.039  0.0159  0.1757  0.3959
  477MOL0     C64267   5.315   6.327   7.903  0.0634  0.2280  0.2476
  477MOL0     O64268   5.334   6.230   7.810 -0.8711  0.8157  0.2852
  477MOL0     C64269   5.462   6.164   7.806 -0.0428 -0.6915  0.2685
  477MOL0     C64270   5.501   6.116   7.668  0.4288 -0.5346 -0.5969
  477MOL0     C64271   5.445   5.979   7.629 -0.4684  0.1513 -0.2233
  477MOL0     C64272   5.402   5.963   7.478 -0.1213  0.2469  0.3781
  477MOL0     C64273   5.292   6.060   7.431 -0.3155 -0.4747  0.0151
  477MOL0     C64274   5.158   6.042   7.503  1.1464  1.5795 -0.2186
  477MOL0     C64275   5.056   6.116   7.419 -0.4017  0.6065  0.6076
  477MOL0     C64276   4.998   6.046   7.291  0.5978  0.0316 -1.1776
  477MOL0     N64277   4.898   6.141   7.236 -0.0265 -0.4190  0.6237
  477MOL0     C64278   4.839   6.127   7.109  0.0791  0.3696 -0.0661
  477MOL0     C64279   4.760   6.239   7.102 -0.4865 -0.3293 -0.7242
  477MOL0     C64280   4.673   6.271   6.987  0.1517  0.6418  0.1784
  477MOL0     C64281   4.527   6.297   7.023 -0.5405 -0.4580  0.8246
  477MOL0     C64282   4.450   6.165   7.036  0.2024  0.2715  0.1231
  477MOL0     C64283   4.495   6.057   7.142  0.2464 -0.0773  0.3383
  477MOL0     O64284   4.397   5.946   7.140 -0.1012 -0.3613 -0.0998
  477MOL0     C64285   4.426   5.831   7.205 -0.6306  0.7121  0.6945
  477MOL0     C64286   4.556   5.784   7.255  0.7421  0.2372 -0.2182
  477MOL0     C64287   4.578   5.664   7.313  1.1070  0.3780 -0.0381
  477MOL0     C64288   4.467   5.576   7.328  1.1874  0.8047 -0.2021
  477MOL0     C64289   4.484   5.442   7.391 -0.6088 -0.9833 -0.1879
  477MOL0     O64290   4.374   5.363   7.370 -1.1989  0.2123  0.1431
  477MOL0     C64291   4.382   5.230   7.394 -0.8646  0.0781 -0.7432
  477MOL0     C64292   4.481   5.152   7.337 -0.5052 -0.0253  0.3672
  477MOL0     C64293   4.496   5.016   7.369 -0.1078  0.5817  0.0645
  477MOL0     C64294   4.408   4.960   7.464 -0.8928  0.5896 -0.6009
  477MOL0     O64295   4.434   4.827   7.491 -0.0068  0.1265  0.5056
  477MOL0     C64296   4.421   4.789   7.630  0.4755 -0.2279  0.3233
  477MOL0     C64297   4.548   4.814   7.704 -0.1756  0.1413 -0.2869
  477MOL0     C64298   4.655   4.720   7.654 -0.4709  0.0424  0.1639
  477MOL0     C64299   4.678   4.601   7.748 -0.1805 -0.7869  0.3686
  477MOL0     C64300   4.741   4.488   7.669 -0.0866  0.0920 -0.9688
  477MOL0     C64301   4.764   4.361   7.756  1.0458 -0.2309  0.2086
  477MOL0     C64302   4.823   4.250   7.676 -0.4150  1.1703 -0.9287
  477MOL0     C64303   4.848   4.124   7.755  0.1431  0.2480  0.5016
  477MOL0    Cl64304   4.690   4.052   7.805  0.0109  0.2822  0.3253
  477MOL0     C64305   4.296   5.031   7.509  0.9126  0.0381 -0.0730
  477MOL0     C64306   4.287   5.164   7.474  0.1318  0.2588  0.9663
  477MOL0     O64307   4.586   5.416   7.454 -0.4924  0.2378 -0.4424
  477MOL0     C64308   4.338   5.615   7.289 -0.0666 -0.3325  0.0550
  477MOL0     C64309   4.322   5.739   7.224 -0.1129 -0.1939 -0.2523
  477MOL0     N64310   4.769   6.319   7.213 -0.2103  0.2727  1.1101
  477MOL0     N64311   4.846   6.257   7.293 -0.0471  0.2906 -0.4824
  477MOL0     C64312   5.314   6.461   7.863 -0.0456  0.6041 -0.2479
  477MOL0     C64313   5.313   6.563   7.963  0.1398 -0.2848  0.2224
  477MOL0     C64314   5.156   6.818   8.292 -0.1231 -0.2766  0.1890
  477MOL0     C64315   5.194   6.778   8.419 -0.7728  0.0986  0.0922
  477MOL0     C64316   5.186   6.876   8.525  0.6684  0.8986 -1.9102
  477MOL0     C64317   5.134   7.006   8.503 -1.0640  0.0571  0.4427
  477MOL0     O64318   5.120   7.098   8.599  0.0829 -0.4428 -0.4597
  477MOL0     C64319   5.157   7.073   8.734 -0.8086  0.4333 -0.9464
  477MOL0     C64320   5.051   7.151   8.824 -0.3889 -0.4758  0.4049
  477MOL0     C64321   4.942   7.045   8.864  0.1323  0.0242 -0.1123
  477MOL0     C64322   4.819   7.052   8.765  0.2694 -0.1690 -0.0677
  477MOL0     C64323   4.741   6.937   8.776  0.5236 -0.0057 -0.0055
  477MOL0     C64324   4.672   6.836   8.783  0.1773  0.1397  0.2357
  477MOL0     C64325   5.105   7.042   8.373 -0.3908  1.3385 -1.0098
  477MOL0     C64326   5.113   6.950   8.275 -0.8721  0.0622 -0.1540
  477MOL0     C64327   5.084   6.996   8.136  0.0861 -0.8119  0.2270
  477MOL0     H64328   5.296   6.369   8.236 -0.7446  0.2207  0.4199
  477MOL0     H64329   5.329   6.196   8.066 -2.2803 -0.0724  0.4016
  477MOL0     H64330   5.539   6.240   7.821 -0.1607 -0.4969 -0.0985
  477MOL0     H64331   5.470   6.088   7.884  0.7272  0.9974  1.9118
  477MOL0     H64332   5.610   6.107   7.663  0.4249 -1.6145  0.7101
  477MOL0     H64333   5.471   6.192   7.595 -1.6444 -0.3341  0.4029
  477MOL0     H64334   5.363   5.944   7.694 -0.3269 -1.9222 -1.0674
  477MOL0     H64335   5.525   5.908   7.652 -1.2614 -0.7868 -0.2745
  477MOL0     H64336   5.484   5.969   7.405  1.3444  1.3369  2.0204
  477MOL0     H64337   5.361   5.863   7.460 -4.0760  1.3097  2.3587
  477MOL0     H64338   5.334   6.161   7.442 -1.5278 -0.0234  0.7007
  477MOL0     H64339   5.277   6.042   7.324 -0.8639 -1.2644  0.2196
  477MOL0     H64340   5.133   5.936   7.513 -2.3612  2.3296  0.1303
  477MOL0     H64341   5.159   6.101   7.595  1.1833  2.0592 -0.5239
  477MOL0     H64342   5.102   6.211   7.389  0.1731  1.0733  2.7657
  477MOL0     H64343   4.969   6.126   7.485 -2.7241  1.2827 -2.3387
  477MOL0     H64344   5.085   6.028   7.227  0.6019 -1.6322 -0.7544
  477MOL0     H64345   4.942   5.960   7.327 -0.3339  0.0069 -2.6538
  477MOL0     H64346   4.840   6.055   7.027 -1.4379 -0.0150  0.2271
  477MOL0     H64347   4.700   6.358   6.926 -1.7758 -0.5459 -2.5647
  477MOL0     H64348   4.675   6.183   6.922 -2.3249  0.9249 -0.3509
  477MOL0     H64349   4.521   6.364   7.109  0.0549 -1.8350  1.9779
  477MOL0     H64350   4.492   6.347   6.932  4.6948  0.8510 -0.7800
  477MOL0     H64351   4.445   6.114   6.940  0.8440 -0.6992  0.5886
  477MOL0     H64352   4.349   6.193   7.068  1.0136  1.8270  1.4880
  477MOL0     H64353   4.492   6.116   7.234 -0.4446 -1.1637  1.0395
  477MOL0     H64354   4.593   6.017   7.113 -0.4946 -1.0292 -0.9505
  477MOL0     H64355   4.643   5.848   7.242  1.9784 -1.2242  0.5109
  477MOL0     H64356   4.674   5.629   7.347  1.0332 -1.3888 -1.5237
  477MOL0     H64357   4.535   5.213   7.265  1.0940 -0.0440  1.4891
  477MOL0     H64358   4.581   4.967   7.323 -0.8187  1.1155 -1.9083
  477MOL0     H64359   4.336   4.841   7.675  0.5544 -0.1949  0.4354
  477MOL0     H64360   4.396   4.683   7.626 -0.0819 -0.0561 -1.7184
  477MOL0     H64361   4.567   4.917   7.674 -0.2074 -0.0867 -1.1237
  477MOL0     H64362   4.542   4.815   7.813 -2.5002 -2.4062 -0.2853
  477MOL0     H64363   4.622   4.681   7.557 -2.3728  0.0143  0.7709
  477MOL0     H64364   4.755   4.762   7.642 -1.2699  1.4973 -2.1028
  477MOL0     H64365   4.588   4.568   7.802 -0.7110  1.1627  0.7332
  477MOL0     H64366   4.759   4.637   7.812 -1.0517  3.8960 -0.7938
  477MOL0     H64367   4.834   4.532   7.631  0.2286 -0.3926 -0.7644
  477MOL0     H64368   4.684   4.459   7.581  0.3402 -5.2315  0.1907
  477MOL0     H64369   4.827   4.388   7.841  0.2179  0.3384  0.6581
  477MOL0     H64370   4.671   4.324   7.800  0.5884  0.0325 -0.5216
  477MOL0     H64371   4.919   4.288   7.641 -0.6896  1.2645 -1.6061
  477MOL0     H64372   4.763   4.212   7.592  1.5631 -2.3455 -0.9472
  477MOL0     H64373   4.899   4.039   7.708  0.2290 -1.5968  3.6806
  477MOL0     H64374   4.910   4.151   7.840  1.1704 -1.5164  0.3699
  477MOL0     H64375   4.218   4.992   7.572  1.3028  1.7452  1.5694
  477MOL0     H64376   4.205   5.217   7.522 -0.6756 -1.5736  1.7456
  477MOL0     H64377   4.248   5.555   7.301 -1.7474  1.8374 -0.9932
  477MOL0     H64378   4.226   5.753   7.176 -0.8246  0.9514  1.4091
  477MOL0     H64379   5.301   6.488   7.758 -1.6567  0.0621 -0.2242
  477MOL0     H64380   5.321   6.653   7.903 -1.3316 -2.1899 -3.1185
  477MOL0     H64381   5.205   6.671   8.432 -0.3370  0.4890  4.2034
  477MOL0     H64382   5.225   6.836   8.617 -0.7367  0.8511 -1.3010
  477MOL0     H64383   5.254   7.118   8.757 -0.8865 -0.0754  0.4570
  477MOL0     H64384   5.167   6.966   8.753 -3.4600 -0.3855 -3.3829
  477MOL0     H64385   5.013   7.227   8.755  1.4121 -0.5831 -0.7759
  477MOL0     H64386   5.112   7.203   8.899  1.6087 -0.4822 -1.1090
  477MOL0     H64387   4.906   7.054   8.967 -0.2862  1.3237 -0.3501
  477MOL0     H64388   4.969   6.940   8.849 -0.1078 -0.1563  0.6800
  477MOL0     H64389   4.759   7.142   8.783  1.6751  0.6114  0.9244
  477MOL0     H64390   4.851   7.065   8.661 -1.7608 -2.2324 -1.0264
  477MOL0     H64391   4.617   6.744   8.792 -0.0188  0.2373  0.0515
  477MOL0     H64392   5.078   7.145   8.352  0.3790  1.8640  0.3937
  477MOL0     H64393   5.024   7.087   8.126  1.7292  0.1923 -0.9970
  477MOL0     H64394   5.177   7.019   8.082 -0.6267 -2.3796 -1.8026
  477MOL0     H64395   5.016   6.927   8.086 -0.2489  0.9444 -1.9028
  478MOL0     O64396   7.244  10.166   2.990 -0.7032 -0.4646  0.3131
  478MOL0     C64397   7.255  10.054   3.024  0.3640 -0.2692 -0.2697
  478MOL0     O64398   7.373   9.983   3.034  0.3499  0.0991  0.6986
  478MOL0     C64399   7.481  10.039   2.969  0.4825  0.0636 -0.8841
  478MOL0     C64400   7.483  10.040   2.835  0.6819  0.4248 -0.5133
  478MOL0     C64401   7.590  10.110   2.765 -0.0902  0.1759  0.5775
  478MOL0     C64402   7.676  10.180   2.840  0.3250 -0.1267  0.0270
  478MOL0     O64403   7.772  10.240   2.760 -0.1035  1.1467 -0.0079
  478MOL0     C64404   7.904  10.261   2.802  0.3680  0.2814  0.3956
  478MOL0     C64405   7.974  10.324   2.680  0.0425  0.6034  0.5568
  478MOL0     C64406   7.981  10.227   2.569 -0.5196  0.1070 -0.4450
  478MOL0     C64407   8.047  10.270   2.447 -0.0364 -0.0928 -0.9130
  478MOL0     C64408   8.105  10.152   2.370 -0.0826 -0.0228  0.9500
  478MOL0     C64409   8.001  10.043   2.314  0.9135 -0.2360 -0.2774
  478MOL0     C64410   8.064   9.963   2.208  0.3534  0.2746  0.5149
  478MOL0     C64411   7.959   9.904   2.120 -0.2830  0.7229  0.0764
  478MOL0     N64412   8.017   9.802   2.036 -0.3167 -0.2599 -0.9038
  478MOL0     C64413   8.075   9.830   1.918 -0.3069 -0.2759  0.2839
  478MOL0     C64414   8.074   9.719   1.842 -0.7696 -1.2428 -0.2895
  478MOL0     C64415   8.102   9.697   1.697 -0.2307  0.9219 -0.6347
  478MOL0     C64416   8.244   9.723   1.653 -0.0707  0.5995 -0.6438
  478MOL0     C64417   8.247   9.809   1.533 -0.7178  0.6325 -0.0480
  478MOL0     C64418   8.386   9.865   1.535  0.7483  0.0963  0.0729
  478MOL0     O64419   8.480   9.768   1.493  0.9415 -0.8218 -0.1548
  478MOL0     C64420   8.594   9.832   1.457 -0.3401 -1.0226 -0.4888
  478MOL0     C64421   8.671   9.757   1.370  0.0116 -0.6957  0.1634
  478MOL0     C64422   8.783   9.819   1.306  0.3743  1.1609 -0.0019
  478MOL0     C64423   8.818   9.952   1.335  0.0604  0.2723  0.5274
  478MOL0     C64424   8.946  10.001   1.280  0.2783 -0.6300 -0.3128
  478MOL0     O64425   8.971  10.141   1.320  0.0859  0.1038  0.0925
  478MOL0     C64426   9.097  10.198   1.286  0.6501  0.6158  0.1283
  478MOL0     C64427   9.097  10.319   1.215 -0.0545 -0.3428 -0.4285
  478MOL0     C64428   9.217  10.382   1.179  0.2045 -0.1764 -1.0484
  478MOL0     C64429   9.341  10.333   1.233  0.5019  0.1010 -0.1020
  478MOL0     O64430   9.450  10.411   1.221  0.3985  0.6495  0.2358
  478MOL0     C64431   9.552  10.344   1.150 -0.1790  0.0790 -0.0021
  478MOL0     C64432   9.677  10.424   1.175  0.0338  0.2453  1.3892
  478MOL0     C64433   9.690  10.561   1.114 -0.3767 -0.0521 -0.0599
  478MOL0     C64434   9.837  10.604   1.135 -0.2353  0.2584 -0.0587
  478MOL0     C64435   9.868  10.743   1.095  0.1863 -0.6452 -0.3776
  478MOL0     C64436  10.004  10.796   1.142 -0.2423 -0.2799  0.1576
  478MOL0     C64437  10.052  10.941   1.124  0.3122  0.5586  0.2796
  478MOL0     C64438  10.197  10.981   1.179  0.4516  0.0345  0.2172
  478MOL0    Cl64439  10.305  10.876   1.085  0.3210 -0.0778 -0.5711
  478MOL0     C64440   9.340  10.216   1.306 -0.4558 -0.4816  0.7095
  478MOL0     C64441   9.222  10.136   1.327 -1.0697 -0.1360  0.3337
  478MOL0     O64442   9.012   9.936   1.205 -0.3579  0.1577 -0.2275
  478MOL0     C64443   8.742  10.017   1.432 -0.7875  0.3568 -0.7202
  478MOL0     C64444   8.632   9.956   1.496 -0.4009  0.1726 -0.3939
  478MOL0     N64445   7.998   9.632   1.925 -0.5447  0.7598  0.2259
  478MOL0     N64446   7.975   9.675   2.041 -1.0795  0.7216  0.6095
  478MOL0     C64447   7.675  10.184   2.985 -0.6981  0.5915 -0.1538
  478MOL0     C64448   7.581  10.098   3.047  0.7392 -0.7624  0.2694
  478MOL0     C64449   7.130   9.985   3.061 -0.7040  0.5544 -0.2669
  478MOL0     C64450   7.127   9.924   3.190 -0.6200 -0.1539 -0.0895
  478MOL0     C64451   7.015   9.857   3.227 -0.2480 -0.2845  0.4631
  478MOL0     C64452   6.898   9.864   3.151 -1.1954  0.0470 -0.3975
  478MOL0     O64453   6.782   9.820   3.210 -0.1500  0.2364  0.0232
  478MOL0     C64454   6.655   9.854   3.151 -0.3972 -0.0370  0.3523
  478MOL0     C64455   6.525   9.806   3.218 -0.0869 -0.2907  0.0101
  478MOL0     C64456   6.522   9.644   3.218  0.0431 -0.9718  0.5780
  478MOL0     C64457   6.391   9.592   3.288  0.0145  0.3698  0.3468
  478MOL0     C64458   6.373   9.445   3.308  0.8259  0.6314 -0.1827
  478MOL0     C64459   6.365   9.325   3.314 -0.2875 -0.2931 -0.8084
  478MOL0     C64460   6.898   9.944   3.029  0.3026  0.2720  0.1836
  478MOL0     C64461   7.013   9.990   2.978 -0.7969 -0.0307 -0.4782
  478MOL0     C64462   7.017  10.069   2.846 -1.1007 -0.2014  0.3265
  478MOL0     H64463   7.405   9.987   2.781 -0.1985 -0.0721  1.1776
  478MOL0     H64464   7.590  10.121   2.657 -1.4386 -0.1802  0.5222
  478MOL0     H64465   7.906  10.326   2.890 -1.1892 -1.0258  1.4453
  478MOL0     H64466   7.950  10.167   2.834 -0.4858 -1.2023 -2.4155
  478MOL0     H64467   8.074  10.354   2.713  0.6174  0.2456 -0.7537
  478MOL0     H64468   7.910  10.407   2.649 -1.1440  0.8925  3.5123
  478MOL0     H64469   7.880  10.192   2.547 -0.3660 -0.4638 -0.2356
  478MOL0     H64470   8.025  10.138   2.614 -0.5525  0.4085  0.2016
  478MOL0     H64471   7.973  10.331   2.394  1.0259  0.5354 -1.7123
  478MOL0     H64472   8.140  10.320   2.476  1.5293 -3.5053  0.5585
  478MOL0     H64473   8.160  10.184   2.281 -0.0216 -0.0429  0.9803
  478MOL0     H64474   8.168  10.098   2.442 -1.6288 -3.4508 -0.0362
  478MOL0     H64475   7.984   9.981   2.403  2.1472 -1.7844 -1.0547
  478MOL0     H64476   7.913  10.094   2.275  1.9099  0.3111 -1.9122
  478MOL0     H64477   8.124   9.887   2.259  0.1813 -0.5262 -0.4660
  478MOL0     H64478   8.129  10.024   2.144 -2.0627  4.8695  1.9810
  478MOL0     H64479   7.888   9.877   2.199 -0.4099  2.1498  0.4691
  478MOL0     H64480   7.904   9.969   2.051 -3.2714 -1.8230 -0.1887
  478MOL0     H64481   8.104   9.929   1.885  2.4128 -0.7192  1.0255
  478MOL0     H64482   8.064   9.599   1.667 -0.5685  1.5241 -2.2500
  478MOL0     H64483   8.036   9.768   1.646 -1.5452 -0.1841 -0.5440
  478MOL0     H64484   8.291   9.779   1.734 -0.0315  1.3435 -1.1689
  478MOL0     H64485   8.282   9.623   1.630  0.7121  0.3815  1.4081
  478MOL0     H64486   8.182   9.897   1.539  0.7731  1.8212 -0.6654
  478MOL0     H64487   8.234   9.745   1.445 -1.3762 -4.1403  3.1257
  478MOL0     H64488   8.417   9.910   1.630 -1.1185  0.9675  0.3167
  478MOL0     H64489   8.376   9.948   1.465 -1.9323  0.7083  1.0468
  478MOL0     H64490   8.638   9.656   1.349  1.3270 -1.0013 -0.5183
  478MOL0     H64491   8.847   9.751   1.252 -0.2625 -0.1661  0.8674
  478MOL0     H64492   9.008  10.366   1.174 -1.0179 -1.5957  0.1469
  478MOL0     H64493   9.244  10.473   1.127 -0.1722 -1.4857 -3.7441
  478MOL0     H64494   9.553  10.239   1.183 -1.4849  0.4178  1.2443
  478MOL0     H64495   9.523  10.337   1.045 -1.1394  0.3478  0.2329
  478MOL0     H64496   9.694  10.414   1.283  2.8589 -0.3849  0.9693
  478MOL0     H64497   9.754  10.364   1.125  0.4689  1.2299  0.8636
  478MOL0     H64498   9.660  10.570   1.009 -1.6961  0.6445  0.3501
  478MOL0     H64499   9.632  10.629   1.178  0.6766  1.5519 -0.7544
  478MOL0     H64500   9.909  10.548   1.075  1.0693  0.5501  1.1779
  478MOL0     H64501   9.866  10.584   1.239 -0.8016 -1.1487 -0.1542
  478MOL0     H64502   9.794  10.816   1.129 -0.2058 -0.0253 -2.4451
  478MOL0     H64503   9.858  10.744   0.986 -2.6384  0.8218 -0.1891
  478MOL0     H64504  10.003  10.775   1.249  1.5448  0.0565  0.2803
  478MOL0     H64505  10.079  10.732   1.095 -0.0221 -1.2739  1.7684
  478MOL0     H64506   9.984  11.008   1.177  1.0538  1.6472 -0.1282
  478MOL0     H64507  10.043  10.958   1.017  2.3090  0.1361  0.0146
  478MOL0     H64508  10.217  11.086   1.155 -2.4194  1.0027  1.5169
  478MOL0     H64509  10.202  10.957   1.286  3.1238  2.7748  0.8565
  478MOL0     H64510   9.436  10.176   1.338 -1.7006 -4.1796  0.2880
  478MOL0     H64511   9.234  10.043   1.382 -2.4047 -1.1609 -1.0240
  478MOL0     H64512   8.763  10.107   1.489 -4.1570  0.4879  0.5717
  478MOL0     H64513   8.580  10.020   1.566  3.1398  2.2902  0.5373
  478MOL0     H64514   7.750  10.241   3.039  0.4684  0.7229 -1.8416
  478MOL0     H64515   7.577  10.095   3.155  2.4024 -0.5626  0.3642
  478MOL0     H64516   7.212   9.926   3.257 -0.6869  1.3363 -0.0033
  478MOL0     H64517   7.012   9.805   3.323  0.1415  0.8226  1.0994
  478MOL0     H64518   6.654   9.816   3.049  0.9649  3.0867 -0.9713
  478MOL0     H64519   6.648   9.964   3.147  2.4028  0.2001 -0.2393
  478MOL0     H64520   6.438   9.850   3.169  1.1880 -0.0566 -2.1608
  478MOL0     H64521   6.520   9.837   3.323  2.5343 -1.9349  0.7245
  478MOL0     H64522   6.609   9.614   3.277  1.0900  1.3363  0.3348
  478MOL0     H64523   6.532   9.606   3.117 -2.4827  1.9052 -0.9461
  478MOL0     H64524   6.370   9.641   3.384  2.3512 -0.4364  1.3579
  478MOL0     H64525   6.306   9.628   3.230 -0.3680 -1.9837 -0.6460
  478MOL0     H64526   6.339   9.222   3.326 -3.4166  0.6731  3.2196
  478MOL0     H64527   6.806   9.982   2.987  3.5603  5.7197 -3.2789
  478MOL0     H64528   6.989  10.174   2.850 -1.5010 -0.1531 -2.0492
  478MOL0     H64529   7.111  10.058   2.791 -0.8781 -0.1940  0.7027
  478MOL0     H64530   6.943  10.032   2.774 -0.5610  1.6467 -1.2568
  479MOL0     O64531   5.110   8.632  10.456  0.1495  0.7068 -0.7532
  479MOL0     C64532   5.057   8.623  10.563 -0.3419  0.3595  1.0156
  479MOL0     O64533   5.087   8.533  10.663 -0.1031 -0.7953 -0.2636
  479MOL0     C64534   5.194   8.440  10.650  0.6656 -0.1327  0.2941
  479MOL0     C64535   5.200   8.344  10.552 -0.0376  0.8293  0.1809
  479MOL0     C64536   5.296   8.242  10.555  0.1644 -0.1565 -0.0178
  479MOL0     C64537   5.392   8.234  10.654  0.0763 -1.1318 -0.1148
  479MOL0     O64538   5.492   8.141  10.645 -0.2250  0.4490  0.1628
  479MOL0     C64539   5.592   8.131  10.758  0.6596  0.3878 -0.1213
  479MOL0     C64540   5.646   7.983  10.778 -0.2962 -0.0300 -0.2043
  479MOL0     C64541   5.538   7.875  10.794 -0.1747 -0.5487 -0.2096
  479MOL0     C64542   5.588   7.736  10.777  0.6415  0.9704 -0.8658
  479MOL0     C64543   5.580   7.659  10.915  1.0471 -0.1445 -0.6758
  479MOL0     C64544   5.440   7.615  10.967 -0.4871  0.2245 -0.1148
  479MOL0     C64545   5.453   7.558  11.104  1.0046 -0.3353 -0.5318
  479MOL0     C64546   5.317   7.518  11.160 -0.6971  0.7847 -0.3589
  479MOL0     N64547   5.234   7.634  11.196 -0.0681  0.0267 -0.3858
  479MOL0     C64548   5.099   7.623  11.203  0.4760 -0.0886 -0.4609
  479MOL0     C64549   5.057   7.740  11.269 -0.3311  0.5436  0.3905
  479MOL0     C64550   4.914   7.777  11.305 -0.1518 -0.0011 -0.0015
  479MOL0     C64551   4.879   7.731  11.453 -0.7266  0.1381 -1.0377
  479MOL0     C64552   4.981   7.778  11.563  0.4111  0.1299 -0.0699
  479MOL0     C64553   5.011   7.931  11.562 -0.4779  0.8508 -0.2498
  479MOL0     O64554   4.908   7.993  11.632 -0.1541 -0.3060 -0.0969
  479MOL0     C64555   4.900   8.130  11.639  0.3106  0.4520  0.4028
  479MOL0     C64556   4.787   8.194  11.695 -0.3542  0.5259 -0.6129
  479MOL0     C64557   4.772   8.332  11.708  0.3826  0.1112 -0.3122
  479MOL0     C64558   4.869   8.418  11.671  0.5484 -0.6600 -0.2192
  479MOL0     C64559   4.853   8.570  11.683 -0.0613  0.2974  0.6066
  479MOL0     O64560   4.748   8.617  11.763  0.1810  0.4081 -0.0528
  479MOL0     C64561   4.749   8.741  11.824  0.5112  0.0910  0.5250
  479MOL0     C64562   4.626   8.782  11.870  0.3743 -0.9363  0.0683
  479MOL0     C64563   4.602   8.920  11.910  0.0427 -0.0114  0.3169
  479MOL0     C64564   4.710   9.005  11.915 -0.6833 -0.2470 -0.8400
  479MOL0     O64565   4.702   9.141  11.942  0.2758 -0.0086 -0.8401
  479MOL0     C64566   4.582   9.217  11.901 -0.2013  0.1902 -1.2266
  479MOL0     C64567   4.486   9.253  12.008  0.0782 -0.3530 -0.5651
  479MOL0     C64568   4.549   9.342  12.114 -0.4066  0.5824 -0.0771
  479MOL0     C64569   4.499   9.321  12.258  0.7611  0.5560  0.4514
  479MOL0     C64570   4.534   9.431  12.355  0.0414 -0.1796 -1.0729
  479MOL0     C64571   4.686   9.440  12.384  0.7308  0.5512 -0.2396
  479MOL0     C64572   4.728   9.565  12.459 -0.3372  0.0253 -1.0436
  479MOL0     C64573   4.873   9.565  12.500 -0.0135 -0.2444  0.5063
  479MOL0    Cl64574   4.882   9.447  12.633  0.1810  0.1013  0.2387
  479MOL0     C64575   4.841   8.954  11.899  0.4036  0.3870 -1.3099
  479MOL0     C64576   4.857   8.825  11.849 -0.4371 -0.2704  0.5284
  479MOL0     O64577   4.930   8.639  11.623 -0.4797 -0.5230  0.3782
  479MOL0     C64578   4.984   8.364  11.624  0.2064  1.0727  0.4627
  479MOL0     C64579   5.001   8.219  11.601  0.6889  0.2344  0.8803
  479MOL0     N64580   5.169   7.816  11.294 -0.5835  0.5721 -0.1892
  479MOL0     N64581   5.274   7.750  11.251  0.5092 -0.6585  0.1442
  479MOL0     C64582   5.391   8.340  10.750 -0.2923  0.7121 -0.6468
  479MOL0     C64583   5.296   8.445  10.742  0.7767 -0.4532 -0.2847
  479MOL0     C64584   4.951   8.720  10.595  0.9541 -0.2100  0.4190
  479MOL0     C64585   4.853   8.676  10.683 -0.5035 -0.5761 -0.4862
  479MOL0     C64586   4.730   8.741  10.699  0.0396 -0.0160 -0.8201
  479MOL0     C64587   4.707   8.859  10.628 -0.4806  0.1659  0.4346
  479MOL0     O64588   4.583   8.925  10.627 -0.9243  0.0388  0.2777
  479MOL0     C64589   4.550   9.039  10.558  0.7023 -1.0772  0.0412
  479MOL0     C64590   4.396   9.050  10.561 -0.2948 -0.0368  0.0645
  479MOL0     C64591   4.346   9.165  10.478 -0.4257  0.9170  0.1098
  479MOL0     C64592   4.233   9.251  10.545  0.7964  0.5848  0.0678
  479MOL0     C64593   4.291   9.321  10.656 -0.0865 -0.1969 -0.7892
  479MOL0     C64594   4.334   9.377  10.756 -0.3898 -0.6765  0.7919
  479MOL0     C64595   4.802   8.910  10.538  0.5032 -0.3288  0.0502
  479MOL0     C64596   4.924   8.842  10.522 -0.2104  0.7979  0.1041
  479MOL0     C64597   5.032   8.906  10.436  0.3478  0.0054 -0.2355
  479MOL0     H64598   5.141   8.346  10.460  1.7335  0.7276 -1.0116
  479MOL0     H64599   5.305   8.182  10.465 -1.6989  0.9953 -1.0454
  479MOL0     H64600   5.673   8.201  10.734  2.9860 -2.8927 -2.6972
  479MOL0     H64601   5.551   8.158  10.855  2.6719  3.0529  0.1014
  479MOL0     H64602   5.704   7.983  10.871  0.4059 -1.9612 -0.5897
  479MOL0     H64603   5.711   7.962  10.692  1.9301  0.9297  1.1464
  479MOL0     H64604   5.466   7.896  10.714  0.7142 -3.0595 -1.8325
  479MOL0     H64605   5.490   7.894  10.890  2.4449 -0.8313  1.2373
  479MOL0     H64606   5.539   7.678  10.698 -1.4105  3.7546 -1.8252
  479MOL0     H64607   5.696   7.727  10.763  0.8079  1.1855  0.1704
  479MOL0     H64608   5.644   7.570  10.919 -0.5470 -1.2846  2.4738
  479MOL0     H64609   5.625   7.721  10.993  0.4058 -0.6609  0.1198
  479MOL0     H64610   5.376   7.704  10.961 -2.4567 -1.2006 -1.4513
  479MOL0     H64611   5.400   7.541  10.897  1.5014 -0.7526 -0.2968
  479MOL0     H64612   5.491   7.632  11.175 -1.4473 -1.2391  1.9090
  479MOL0     H64613   5.510   7.464  11.098 -1.2771 -1.7544 -1.5361
  479MOL0     H64614   5.263   7.448  11.095 -2.5675  0.7747  1.1179
  479MOL0     H64615   5.348   7.460  11.248  0.2820 -0.8287 -1.7096
  479MOL0     H64616   5.046   7.538  11.161 -2.2765  2.5897 -2.8717
  479MOL0     H64617   4.907   7.886  11.296 -3.4798 -0.1893 -1.1306
  479MOL0     H64618   4.856   7.728  11.226  1.8849 -1.5429 -0.6545
  479MOL0     H64619   4.778   7.757  11.487 -0.4873 -1.0538  0.7219
  479MOL0     H64620   4.887   7.621  11.457  1.5023  0.2029 -2.0517
  479MOL0     H64621   5.076   7.725  11.549 -0.6621 -1.4854 -1.5574
  479MOL0     H64622   4.949   7.750  11.664  4.6776  0.6613  1.6418
  479MOL0     H64623   5.020   7.957  11.456  3.1262 -1.5842 -0.7252
  479MOL0     H64624   5.110   7.941  11.608  0.5743 -0.1566 -2.1507
  479MOL0     H64625   4.709   8.128  11.732  1.5846 -1.8060 -0.4388
  479MOL0     H64626   4.679   8.374  11.746  0.0240  0.8119 -1.8710
  479MOL0     H64627   4.537   8.720  11.858 -0.7221  0.5120  0.4889
  479MOL0     H64628   4.511   8.949  11.961  0.0136 -1.1585  0.9467
  479MOL0     H64629   4.615   9.313  11.860 -1.3925  1.3769  0.4601
  479MOL0     H64630   4.528   9.155  11.828 -2.2220  0.0444  0.3308
  479MOL0     H64631   4.407   9.308  11.957  1.4322  2.5970  0.3319
  479MOL0     H64632   4.455   9.157  12.050 -3.0522  0.9154  0.2696
  479MOL0     H64633   4.656   9.320  12.115 -0.5696 -0.4984  3.1059
  479MOL0     H64634   4.533   9.449  12.097  1.4344  1.1418  1.3764
  479MOL0     H64635   4.542   9.233  12.307 -1.2988 -0.4201  0.6032
  479MOL0     H64636   4.391   9.304  12.252  1.0692 -1.5257  0.1998
  479MOL0     H64637   4.478   9.425  12.449  1.1924  2.3634 -0.1290
  479MOL0     H64638   4.511   9.527  12.307  1.0042 -0.9563 -3.1905
  479MOL0     H64639   4.706   9.346  12.436  0.8298  0.4153 -0.5224
  479MOL0     H64640   4.734   9.436  12.286  2.8413 -0.0063  0.7475
  479MOL0     H64641   4.659   9.591  12.540  2.7987  3.9177  0.7418
  479MOL0     H64642   4.723   9.642  12.382  0.3046 -0.3517 -1.4720
  479MOL0     H64643   4.936   9.550  12.412  0.6212  1.9449  0.5217
  479MOL0     H64644   4.896   9.659  12.551 -3.0631  0.4348  0.8297
  479MOL0     H64645   4.924   9.020  11.924  0.3161 -0.5005  1.7406
  479MOL0     H64646   4.953   8.781  11.825 -1.5503 -2.5214 -0.0627
  479MOL0     H64647   5.074   8.419  11.600  0.9504  0.4299  1.6537
  479MOL0     H64648   5.097   8.181  11.569  0.2293 -2.6072  2.5091
  479MOL0     H64649   5.466   8.354  10.827  0.0625  0.2869 -0.9085
  479MOL0     H64650   5.298   8.529  10.811 -2.8388 -0.0428 -0.4572
  479MOL0     H64651   4.854   8.579  10.732  0.9592  0.0659  0.8399
  479MOL0     H64652   4.644   8.703  10.752 -1.1900  0.6213 -2.3077
  479MOL0     H64653   4.581   9.055  10.454 -0.3856 -3.3273 -0.6827
  479MOL0     H64654   4.590   9.124  10.615  0.4522 -1.5116  0.8798
  479MOL0     H64655   4.368   9.066  10.665  1.3830  0.0844  0.5322
  479MOL0     H64656   4.359   8.957  10.518 -0.4959  0.1962 -0.2726
  479MOL0     H64657   4.304   9.123  10.385 -2.2869 -0.3408  1.4427
  479MOL0     H64658   4.432   9.229  10.456 -1.0753  0.7984 -3.4929
  479MOL0     H64659   4.191   9.313  10.465  0.9885 -1.7186 -1.9320
  479MOL0     H64660   4.156   9.181  10.579 -0.8516  1.9794 -0.6656
  479MOL0     H64661   4.378   9.424  10.843  0.2210 -0.6242  0.4612
  479MOL0     H64662   4.783   9.000  10.481 -0.4797 -1.4775 -1.5153
  479MOL0     H64663   5.043   8.866  10.335 -0.5409 -1.2800  0.1481
  479MOL0     H64664   5.017   9.013  10.422 -1.0936 -0.4869 -3.2022
  479MOL0     H64665   5.124   8.899  10.494 -1.4497 -1.2150  2.7330
  480MOL0     O64666   4.406   8.156   0.411  0.3405 -0.5162  0.1475
  480MOL0     C64667   4.345   8.096   0.498 -0.6870  1.3026 -0.8439
  480MOL0     O64668   4.393   7.989   0.582  1.0210 -0.2045  0.8080
  480MOL0     C64669   4.531   7.959   0.568  0.9289 -1.0851  0.7247
  480MOL0     C64670   4.593   7.954   0.695 -0.5803 -0.5283 -0.9859
  480MOL0     C64671   4.729   7.904   0.692 -0.2577 -0.1666 -0.2542
  480MOL0     C64672   4.797   7.875   0.573 -0.2004  0.2167  0.6000
  480MOL0     O64673   4.927   7.837   0.589 -0.5420 -0.6364  0.0738
  480MOL0     C64674   5.025   7.856   0.487 -0.1418 -0.7769  0.2213
  480MOL0     C64675   5.165   7.826   0.546  0.2223  0.8345  0.2332
  480MOL0     C64676   5.161   7.675   0.560 -0.1214 -0.8955 -0.2469
  480MOL0     C64677   5.303   7.636   0.612  0.0149  0.1740 -1.1046
  480MOL0     C64678   5.315   7.495   0.680 -0.0268 -0.3600 -0.0658
  480MOL0     C64679   5.438   7.455   0.773 -0.0171 -0.2809 -0.0783
  480MOL0     C64680   5.486   7.563   0.879  0.2649 -0.7411  0.3461
  480MOL0     C64681   5.587   7.656   0.821  0.1029 -0.3201  0.5802
  480MOL0     N64682   5.726   7.610   0.817  0.5653  0.0964 -0.6183
  480MOL0     C64683   5.782   7.535   0.708 -0.2566 -1.0781 -0.2713
  480MOL0     C64684   5.908   7.494   0.756  0.0103 -1.1101  0.1327
  480MOL0     C64685   6.011   7.442   0.661  0.1790  0.9601 -0.1085
  480MOL0     C64686   6.029   7.286   0.680 -0.6238  1.2358  0.5349
  480MOL0     C64687   6.114   7.240   0.801 -0.5224  0.1450 -0.0510
  480MOL0     C64688   6.261   7.260   0.773  0.0283  0.2239 -0.4955
  480MOL0     O64689   6.355   7.239   0.876  0.8898  0.4364  0.2215
  480MOL0     C64690   6.333   7.298   1.003 -0.7483 -0.9147 -0.1363
  480MOL0     C64691   6.279   7.428   1.022  0.1613 -0.7619 -0.0719
  480MOL0     C64692   6.286   7.490   1.147  0.0240  0.1554  0.4465
  480MOL0     C64693   6.349   7.421   1.257 -0.1191  1.0446 -0.0013
  480MOL0     C64694   6.383   7.492   1.382  1.2075 -0.6582 -0.5550
  480MOL0     O64695   6.458   7.424   1.474 -0.5216 -0.0575  0.1395
  480MOL0     C64696   6.504   7.485   1.581  0.2300 -0.5504  0.1277
  480MOL0     C64697   6.466   7.450   1.711 -1.0195 -0.0689 -0.2694
  480MOL0     C64698   6.498   7.527   1.820  0.7692 -0.2038 -1.6260
  480MOL0     C64699   6.591   7.631   1.812  0.1566  0.7771 -0.7364
  480MOL0     O64700   6.630   7.703   1.924 -0.1050 -0.3378  0.2656
  480MOL0     C64701   6.553   7.701   2.038 -0.0734 -0.1190  0.2202
  480MOL0     C64702   6.560   7.833   2.101  0.2269  1.2743  0.6576
  480MOL0     C64703   6.466   7.936   2.032 -0.0018  0.5337 -0.2867
  480MOL0     C64704   6.441   8.052   2.126 -0.5439 -0.0182  0.8911
  480MOL0     C64705   6.317   8.119   2.067 -0.0462 -1.0061  0.1106
  480MOL0     C64706   6.277   8.262   2.138 -0.4293  0.6813 -0.0631
  480MOL0     C64707   6.367   8.372   2.096 -0.4413 -0.5797 -0.5860
  480MOL0     C64708   6.360   8.419   1.952 -0.1783  0.4167 -0.6953
  480MOL0    Cl64709   6.480   8.549   1.932 -0.0402 -0.1754  0.0424
  480MOL0     C64710   6.639   7.650   1.684 -0.7701 -0.2172 -0.0768
  480MOL0     C64711   6.600   7.585   1.569  1.2665  1.2846  0.2973
  480MOL0     O64712   6.344   7.610   1.405 -1.0121  0.1909  0.5437
  480MOL0     C64713   6.382   7.285   1.242 -0.0770  0.0483 -0.0523
  480MOL0     C64714   6.382   7.225   1.111 -0.7687 -0.3094 -0.1961
  480MOL0     N64715   5.926   7.555   0.884  0.0428 -0.0487 -0.1861
  480MOL0     N64716   5.819   7.624   0.922 -0.3831  0.3684 -0.4696
  480MOL0     C64717   4.732   7.877   0.451 -0.7571  1.0536 -0.8277
  480MOL0     C64718   4.601   7.925   0.456  0.5060 -0.4985 -1.1284
  480MOL0     C64719   4.219   8.161   0.548 -0.2803  0.4547  0.6157
  480MOL0     C64720   4.167   8.126   0.677 -0.5481  0.2202 -0.5256
  480MOL0     C64721   4.040   8.167   0.719 -0.7534  0.6673  0.6231
  480MOL0     C64722   3.962   8.250   0.649  0.5202 -0.0880  0.0547
  480MOL0     O64723   3.843   8.279   0.708 -0.3804 -0.0455 -0.2033
  480MOL0     C64724   3.748   8.349   0.633 -0.5994 -0.2088  0.6534
  480MOL0     C64725   3.630   8.373   0.721 -0.2864 -0.4503  0.1429
  480MOL0     C64726   3.657   8.476   0.829 -0.0452 -0.7619  0.7259
  480MOL0     C64727   3.538   8.564   0.866 -0.6386 -0.9295 -0.5890
  480MOL0     C64728   3.579   8.680   0.949 -0.1031 -0.2229  0.3763
  480MOL0     C64729   3.607   8.759   1.038 -1.0163 -1.6397  0.3035
  480MOL0     C64730   4.014   8.294   0.527 -0.1345 -0.4925 -0.5267
  480MOL0     C64731   4.137   8.249   0.474  0.5196 -0.0787  0.7961
  480MOL0     C64732   4.171   8.275   0.329  0.3354 -0.4824  0.4124
  480MOL0     H64733   4.552   7.992   0.788  0.2654 -2.1203  0.0834
  480MOL0     H64734   4.789   7.897   0.782  0.9951 -0.6855 -1.0896
  480MOL0     H64735   4.997   7.793   0.402 -1.6274 -0.4672  0.4465
  480MOL0     H64736   5.016   7.964   0.468 -1.8234 -0.7696  0.8851
  480MOL0     H64737   5.200   7.875   0.637  1.7034 -1.0511  0.7333
  480MOL0     H64738   5.234   7.855   0.467  2.8706  2.1706  2.8506
  480MOL0     H64739   5.149   7.627   0.463 -5.3203 -2.4040  0.7781
  480MOL0     H64740   5.083   7.647   0.633 -0.7172 -0.9448 -0.8963
  480MOL0     H64741   5.368   7.644   0.524 -0.9796 -2.6780 -2.2263
  480MOL0     H64742   5.333   7.698   0.697  2.2075 -2.4820  0.2269
  480MOL0     H64743   5.237   7.479   0.755  3.2262 -3.8317  3.0239
  480MOL0     H64744   5.293   7.429   0.595  2.8842  1.5718 -2.5661
  480MOL0     H64745   5.427   7.358   0.823  2.1525  0.0659  1.1921
  480MOL0     H64746   5.516   7.433   0.699  0.4373 -1.2645  0.6748
  480MOL0     H64747   5.531   7.518   0.967  3.4191  0.5864 -0.4488
  480MOL0     H64748   5.410   7.628   0.924  1.1562 -0.5745  1.6581
  480MOL0     H64749   5.563   7.683   0.718  5.9799  1.7309 -0.6852
  480MOL0     H64750   5.590   7.752   0.873  1.3191  0.3684 -0.6657
  480MOL0     H64751   5.745   7.514   0.608 -1.5296  1.4866 -0.4259
  480MOL0     H64752   5.985   7.469   0.559  0.7165  1.2609 -0.1704
  480MOL0     H64753   6.109   7.483   0.690  2.2963 -2.3996 -1.9108
  480MOL0     H64754   5.931   7.237   0.688 -0.7375  0.9956 -1.7116
  480MOL0     H64755   6.070   7.247   0.587  1.5673  0.0444  1.9130
  480MOL0     H64756   6.112   7.133   0.824  0.2154  0.3593  1.0851
  480MOL0     H64757   6.079   7.285   0.895 -3.5770 -2.8957  0.4668
  480MOL0     H64758   6.290   7.360   0.738  5.1402 -0.5790  0.6786
  480MOL0     H64759   6.282   7.189   0.692  1.0783  0.8182 -0.7678
  480MOL0     H64760   6.236   7.492   0.946  1.6074  1.8882  1.1942
  480MOL0     H64761   6.270   7.597   1.154  1.4146  0.5378 -1.4206
  480MOL0     H64762   6.383   7.385   1.734 -1.1658  0.3049  0.2833
  480MOL0     H64763   6.447   7.504   1.914 -2.2363  1.4482 -2.7285
  480MOL0     H64764   6.450   7.669   2.020  0.7672 -2.1418 -1.3439
  480MOL0     H64765   6.602   7.621   2.095 -1.6946 -1.2399  0.0957
  480MOL0     H64766   6.511   7.812   2.196  0.7682  2.3816  1.2069
  480MOL0     H64767   6.664   7.861   2.123  0.2500  1.0422  0.8466
  480MOL0     H64768   6.498   7.975   1.935 -0.4132  1.3059 -0.1160
  480MOL0     H64769   6.371   7.889   2.005 -0.6910  0.4670  2.0447
  480MOL0     H64770   6.530   8.114   2.137  1.2000 -2.3277  0.4442
  480MOL0     H64771   6.403   8.021   2.224 -1.9204  0.2660  0.4697
  480MOL0     H64772   6.233   8.050   2.078  0.0839 -1.6610 -2.5282
  480MOL0     H64773   6.325   8.130   1.959  2.4502  0.8570  0.4134
  480MOL0     H64774   6.175   8.287   2.108 -0.4423 -0.3821 -0.9768
  480MOL0     H64775   6.276   8.253   2.247 -1.9091  1.0680 -0.0239
  480MOL0     H64776   6.470   8.334   2.104 -0.8532 -1.5574  0.3448
  480MOL0     H64777   6.353   8.455   2.165  1.5445 -0.3254 -0.4301
  480MOL0     H64778   6.376   8.338   1.880 -2.3297 -0.3845 -0.3435
  480MOL0     H64779   6.259   8.459   1.940 -0.4021 -0.5009 -2.1415
  480MOL0     H64780   6.705   7.731   1.652 -2.2905 -0.1636 -3.5351
  480MOL0     H64781   6.637   7.614   1.471  1.4843  0.3140  0.0781
  480MOL0     H64782   6.416   7.234   1.332  2.9599  0.0646 -1.0760
  480MOL0     H64783   6.430   7.130   1.090  1.3456  0.4221  1.0287
  480MOL0     H64784   4.783   7.866   0.356 -0.3494 -2.1726 -0.3353
  480MOL0     H64785   4.538   7.947   0.370 -1.7729 -1.1355  0.2788
  480MOL0     H64786   4.227   8.062   0.741 -1.4649 -1.3359 -1.1726
  480MOL0     H64787   3.999   8.121   0.809 -0.5459 -2.6630 -0.8221
  480MOL0     H64788   3.723   8.299   0.539 -1.1920 -0.6874  1.0567
  480MOL0     H64789   3.776   8.446   0.591 -2.0427 -0.5135 -1.1158
  480MOL0     H64790   3.590   8.278   0.758  1.7271 -2.1357 -1.7222
  480MOL0     H64791   3.555   8.414   0.653 -0.4225 -0.3146  0.3714
  480MOL0     H64792   3.744   8.536   0.799  0.4797 -1.5808  0.5883
  480MOL0     H64793   3.685   8.416   0.916  2.0353 -2.5083 -1.0348
  480MOL0     H64794   3.505   8.608   0.771  0.5206  1.0145 -0.1539
  480MOL0     H64795   3.465   8.506   0.923 -0.6623 -1.4278 -1.1124
  480MOL0     H64796   3.630   8.815   1.126  0.7839 -0.0210 -1.1184
  480MOL0     H64797   3.970   8.367   0.460 -0.6078  2.2768  2.5921
  480MOL0     H64798   4.084   8.325   0.284  2.5486 -0.8352 -4.9706
  480MOL0     H64799   4.256   8.343   0.333 -0.6487  0.9061 -1.1289
  480MOL0     H64800   4.184   8.180   0.276 -0.7777 -1.3036  1.5591
  481MOL0     O64801   8.502   2.353   4.733 -0.6716 -0.0205  0.1509
  481MOL0     C64802   8.460   2.420   4.829 -1.0712  0.8455  0.3737
  481MOL0     O64803   8.524   2.521   4.890 -0.6447 -0.4223 -0.4076
  481MOL0     C64804   8.627   2.578   4.815 -0.4858  0.1286 -0.1239
  481MOL0     C64805   8.745   2.517   4.774 -0.0337 -0.6989  0.3261
  481MOL0     C64806   8.827   2.565   4.673  0.3767  0.0666 -0.6367
  481MOL0     C64807   8.811   2.700   4.628 -1.0017  0.5358  0.0471
  481MOL0     O64808   8.885   2.763   4.525  0.3440 -0.2044 -0.6633
  481MOL0     C64809   8.994   2.688   4.464 -0.2400  0.6907 -0.0542
  481MOL0     C64810   9.028   2.743   4.324  0.1751  0.1317  0.3320
  481MOL0     C64811   8.907   2.743   4.233 -0.6920  0.9747 -0.2541
  481MOL0     C64812   8.946   2.765   4.083  0.8672  0.9292 -0.3206
  481MOL0     C64813   9.043   2.675   4.012 -0.3018  1.2609  0.4034
  481MOL0     C64814   8.999   2.532   4.021  0.9348  0.3552  0.5009
  481MOL0     C64815   8.848   2.508   3.968 -0.8210  0.2814  0.0710
  481MOL0     C64816   8.824   2.560   3.817 -0.5118  0.9788 -1.1931
  481MOL0     N64817   8.711   2.497   3.741  0.8358 -0.1454 -0.3791
  481MOL0     C64818   8.577   2.501   3.766  0.3007  1.1411 -1.4199
  481MOL0     C64819   8.520   2.426   3.666 -0.4813  0.0737 -0.3981
  481MOL0     C64820   8.382   2.402   3.647  0.1889  0.3758  0.4387
  481MOL0     C64821   8.305   2.533   3.651 -0.0894 -0.0368  0.9647
  481MOL0     C64822   8.146   2.499   3.651 -0.6447 -1.2518  0.1289
  481MOL0     C64823   8.056   2.619   3.654 -0.3298  0.0874  0.5910
  481MOL0     O64824   7.925   2.572   3.623 -0.0844  0.0585  0.2952
  481MOL0     C64825   7.829   2.660   3.587  0.3389  0.0246 -1.2878
  481MOL0     C64826   7.694   2.629   3.619  0.3551  0.0403 -0.6018
  481MOL0     C64827   7.589   2.714   3.579  0.4943 -0.3382  0.5468
  481MOL0     C64828   7.615   2.832   3.505 -1.1491  0.2032  1.2570
  481MOL0     C64829   7.515   2.927   3.453  1.2287  0.4021 -0.0117
  481MOL0     O64830   7.387   2.878   3.471  0.0176  0.4416 -0.4448
  481MOL0     C64831   7.270   2.951   3.461  0.0368  0.3947 -0.6068
  481MOL0     C64832   7.153   2.874   3.490  0.3036 -0.1212 -0.0140
  481MOL0     C64833   7.035   2.930   3.511  0.6246 -0.8275  0.0880
  481MOL0     C64834   7.020   3.062   3.481  0.6310 -0.8453 -0.5402
  481MOL0     O64835   6.894   3.122   3.488  0.6176  0.2232 -0.2333
  481MOL0     C64836   6.830   3.127   3.618  0.6308 -1.1381  0.8886
  481MOL0     C64837   6.751   3.260   3.610  0.0811  0.2583 -0.3054
  481MOL0     C64838   6.626   3.243   3.520 -0.0345 -0.5943  0.4731
  481MOL0     C64839   6.543   3.370   3.510  0.3093 -0.6902  0.3696
  481MOL0     C64840   6.416   3.349   3.424  0.3955  1.1559  0.1462
  481MOL0     C64841   6.412   3.261   3.296  0.1319 -0.4961  0.3878
  481MOL0     C64842   6.489   3.343   3.189 -0.3577 -0.1090 -0.9875
  481MOL0     C64843   6.505   3.266   3.058 -0.9250 -0.1088 -0.0559
  481MOL0    Cl64844   6.346   3.272   2.966  0.1076  0.2822  0.2749
  481MOL0     C64845   7.132   3.148   3.440  0.1302  0.8247  0.6535
  481MOL0     C64846   7.254   3.086   3.431 -0.2131 -0.8226  0.7624
  481MOL0     O64847   7.547   3.038   3.409  0.4861 -0.3385 -0.3807
  481MOL0     C64848   7.756   2.865   3.484  0.9442  0.5321 -0.7205
  481MOL0     C64849   7.852   2.785   3.526 -0.8685  0.2594 -0.1037
  481MOL0     N64850   8.622   2.369   3.589 -0.3037 -0.1926  0.4970
  481MOL0     N64851   8.734   2.400   3.644 -0.2555  0.7501 -0.2404
  481MOL0     C64852   8.714   2.769   4.689  1.1576  0.1465 -0.9410
  481MOL0     C64853   8.619   2.712   4.778 -0.4808  0.1183  0.7443
  481MOL0     C64854   8.330   2.371   4.882 -0.0061  0.5697 -0.3774
  481MOL0     C64855   8.289   2.239   4.834  0.1708 -0.4585 -0.4653
  481MOL0     C64856   8.175   2.167   4.889  0.2359 -0.2345 -0.5534
  481MOL0     C64857   8.099   2.233   4.991  0.1750 -1.0146  0.8462
  481MOL0     O64858   7.983   2.193   5.049  0.2238  0.4533  0.3979
  481MOL0     C64859   7.983   2.061   5.105 -0.2327  0.5458  0.0064
  481MOL0     C64860   7.870   1.978   5.047  1.1694 -0.8397  0.1329
  481MOL0     C64861   7.729   2.039   5.027 -1.1250  0.9036 -0.8604
  481MOL0     C64862   7.633   1.928   4.994 -0.0446 -0.1708 -0.1629
  481MOL0     C64863   7.588   1.863   5.118 -0.3194  0.5140  0.0906
  481MOL0     C64864   7.543   1.795   5.207  1.0527  0.4110 -0.1210
  481MOL0     C64865   8.125   2.364   5.029 -0.0164 -0.5336  1.2929
  481MOL0     C64866   8.249   2.426   4.980  0.5881 -0.4852 -0.5572
  481MOL0     C64867   8.262   2.579   5.025  0.6589  0.2420 -0.3072
  481MOL0     H64868   8.769   2.427   4.830  2.6228 -1.2576 -1.5149
  481MOL0     H64869   8.919   2.516   4.643  2.5238  3.5908 -0.3159
  481MOL0     H64870   9.084   2.678   4.525 -0.7958 -3.4221  0.3140
  481MOL0     H64871   8.960   2.587   4.440  0.7579  0.3681 -0.1510
  481MOL0     H64872   9.110   2.679   4.290  1.0901 -1.5415  4.9412
  481MOL0     H64873   9.053   2.849   4.334 -0.0276  0.2694 -0.5187
  481MOL0     H64874   8.826   2.810   4.264 -1.7639 -0.3437 -0.1163
  481MOL0     H64875   8.855   2.647   4.229  1.0410 -0.1597  2.1584
  481MOL0     H64876   8.861   2.754   4.014  4.5065 -0.3984 -5.1471
  481MOL0     H64877   8.975   2.870   4.073  0.3990  1.2493  1.3604
  481MOL0     H64878   9.060   2.710   3.910  1.5441 -0.1883  0.1569
  481MOL0     H64879   9.143   2.678   4.056  0.6867 -1.4145 -1.4059
  481MOL0     H64880   9.068   2.470   3.963  2.3217  4.2257 -2.5104
  481MOL0     H64881   8.998   2.488   4.121 -0.8279 -0.2554  0.2417
  481MOL0     H64882   8.766   2.525   4.038 -0.3229  1.4717  0.4116
  481MOL0     H64883   8.848   2.400   3.956 -0.6909 -0.1121  2.8602
  481MOL0     H64884   8.814   2.669   3.816  0.2239  1.0563 -1.0527
  481MOL0     H64885   8.917   2.540   3.762  1.2489  4.2526  0.2754
  481MOL0     H64886   8.543   2.560   3.850  1.0908  1.2843 -1.1914
  481MOL0     H64887   8.362   2.364   3.546  0.7114  0.0009  0.4777
  481MOL0     H64888   8.362   2.320   3.716 -0.3454  0.4632  0.3929
  481MOL0     H64889   8.317   2.586   3.746 -2.6991  0.3217  1.1617
  481MOL0     H64890   8.333   2.583   3.558  0.8559 -0.1733  1.1625
  481MOL0     H64891   8.120   2.432   3.734 -3.8328 -0.8652 -0.4526
  481MOL0     H64892   8.123   2.445   3.558  2.1061  1.8768 -2.6538
  481MOL0     H64893   8.087   2.690   3.577 -2.0160 -1.6055 -1.7798
  481MOL0     H64894   8.055   2.666   3.753 -2.4115 -1.5457  1.4260
  481MOL0     H64895   7.664   2.537   3.669  0.1272  0.1350 -0.5665
  481MOL0     H64896   7.486   2.687   3.597 -0.1105  0.7290 -1.1177
  481MOL0     H64897   7.151   2.765   3.493  0.8784 -0.1683 -0.9894
  481MOL0     H64898   6.949   2.866   3.528 -0.9513  1.1192 -0.1367
  481MOL0     H64899   6.758   3.049   3.647 -0.8850 -0.1848 -0.1541
  481MOL0     H64900   6.895   3.137   3.705  1.4597  0.2551  0.1552
  481MOL0     H64901   6.722   3.279   3.714  0.0679 -0.3020 -0.2063
  481MOL0     H64902   6.808   3.344   3.569 -2.2577  2.1264  0.0135
  481MOL0     H64903   6.668   3.212   3.424 -1.3154 -2.4854  0.4730
  481MOL0     H64904   6.566   3.159   3.556 -0.0772 -0.5668  0.4666
  481MOL0     H64905   6.608   3.437   3.454  2.4741 -2.9238  0.0284
  481MOL0     H64906   6.508   3.402   3.608 -2.0560 -1.0513 -0.3033
  481MOL0     H64907   6.371   3.446   3.404  1.7284  2.2720  2.2620
  481MOL0     H64908   6.348   3.301   3.494  1.4507  0.9720  1.0688
  481MOL0     H64909   6.458   3.163   3.308 -0.2898 -0.8696 -0.9089
  481MOL0     H64910   6.304   3.257   3.277 -0.1727  0.6795  1.7245
  481MOL0     H64911   6.589   3.359   3.230 -0.3476 -1.7824 -0.2588
  481MOL0     H64912   6.448   3.441   3.163  0.6882  0.2383 -1.3369
  481MOL0     H64913   6.591   3.312   3.009  0.5316  1.1553  3.3765
  481MOL0     H64914   6.517   3.162   3.090 -1.7771  0.5120  2.6002
  481MOL0     H64915   7.130   3.256   3.427 -0.1215  0.7415 -0.0287
  481MOL0     H64916   7.339   3.149   3.407  0.2937 -2.6440 -3.0016
  481MOL0     H64917   7.778   2.959   3.433 -3.6816  2.2259 -0.0760
  481MOL0     H64918   7.954   2.822   3.515  0.5833 -2.6439  1.9419
  481MOL0     H64919   8.689   2.871   4.662  0.3218  0.6969  1.6829
  481MOL0     H64920   8.533   2.766   4.816  0.4488  1.2444  1.3154
  481MOL0     H64921   8.348   2.181   4.764 -1.6196 -0.8306 -1.7314
  481MOL0     H64922   8.169   2.064   4.852  0.2105 -0.7008  0.7104
  481MOL0     H64923   7.969   2.054   5.213 -0.0090 -1.3453 -0.0482
  481MOL0     H64924   8.071   2.002   5.077 -0.0346  1.8039 -2.1965
  481MOL0     H64925   7.868   1.883   5.101  1.4719 -1.5932 -1.1379
  481MOL0     H64926   7.892   1.950   4.943  1.0084 -0.4874  0.0028
  481MOL0     H64927   7.736   2.119   4.954  3.2742  2.0010  0.4764
  481MOL0     H64928   7.691   2.096   5.112  0.4202 -1.9652  1.9878
  481MOL0     H64929   7.541   1.973   4.957  0.0222  0.3529  0.3077
  481MOL0     H64930   7.676   1.860   4.920 -1.7990  1.7185 -3.1372
  481MOL0     H64931   7.510   1.731   5.286  1.6771 -0.2325 -0.3681
  481MOL0     H64932   8.069   2.432   5.091  1.1162  3.9937 -2.1276
  481MOL0     H64933   8.206   2.638   4.952 -1.9289  1.0343  2.1269
  481MOL0     H64934   8.226   2.588   5.128  3.9019  0.7820  0.8833
  481MOL0     H64935   8.365   2.614   5.029  0.5786  0.6713 -1.5716
  482MOL0     O64936  10.082   3.439   1.720 -0.1214  0.3519  0.0194
  482MOL0     C64937  10.205   3.459   1.733  0.7654  0.5555  0.1920
  482MOL0     O64938  10.264   3.540   1.829 -0.2074 -0.1854  0.5940
  482MOL0     C64939  10.192   3.577   1.940  0.8985  0.0508 -0.2175
  482MOL0     C64940  10.211   3.497   2.052 -0.5002 -0.3799  0.1447
  482MOL0     C64941  10.148   3.537   2.167  0.8686  0.1823  0.9667
  482MOL0     C64942  10.086   3.659   2.175  0.5789  0.0814  0.5371
  482MOL0     O64943  10.032   3.681   2.298  0.6461  0.6561  0.1077
  482MOL0     C64944  10.076   3.798   2.364  0.0797  0.3714 -0.3175
  482MOL0     C64945  10.031   3.799   2.502  0.0290  0.1750 -0.5579
  482MOL0     C64946  10.097   3.916   2.570  0.6864 -0.8163  0.5624
  482MOL0     C64947  10.083   3.919   2.728 -1.3138  0.1119 -0.0078
  482MOL0     C64948   9.937   3.978   2.766  0.1040  0.0113  0.0121
  482MOL0     C64949   9.841   3.880   2.830 -0.7432 -0.6233 -0.8003
  482MOL0     C64950   9.725   3.958   2.885 -0.5058  0.0255 -0.1103
  482MOL0     C64951   9.633   3.858   2.963 -1.6152 -0.1250 -0.2169
  482MOL0     N64952   9.517   3.920   3.034 -0.5917 -0.7219 -0.4669
  482MOL0     C64953   9.459   4.043   3.015  0.5139 -0.0200  0.8901
  482MOL0     C64954   9.388   4.063   3.130 -0.2962  0.3080  0.1816
  482MOL0     C64955   9.308   4.182   3.167 -0.6104 -0.5746  0.2312
  482MOL0     C64956   9.161   4.156   3.154 -0.2786 -0.0872  0.5211
  482MOL0     C64957   9.112   4.169   3.001  0.7444  0.4360 -1.0123
  482MOL0     C64958   9.111   4.320   2.957  0.1081  0.4521 -0.3437
  482MOL0     O64959   9.091   4.328   2.816  0.1781 -0.4100  0.3881
  482MOL0     C64960   9.084   4.461   2.777 -0.3601 -0.7018  0.7288
  482MOL0     C64961   8.959   4.517   2.754  0.4701 -0.7076  0.5431
  482MOL0     C64962   8.942   4.647   2.727  0.2863 -0.5529  0.4229
  482MOL0     C64963   9.051   4.739   2.724  0.1071  0.3796  0.3609
  482MOL0     C64964   9.041   4.880   2.691 -0.3263 -0.0408 -0.5663
  482MOL0     O64965   8.928   4.945   2.714  0.3393  0.4326 -0.5833
  482MOL0     C64966   8.900   5.068   2.651 -0.1609 -0.3101  0.0723
  482MOL0     C64967   8.939   5.116   2.534 -0.4705 -0.8650  0.4554
  482MOL0     C64968   8.902   5.239   2.476  0.2933  0.5315 -0.5735
  482MOL0     C64969   8.819   5.322   2.555 -0.0401  0.1297 -0.5645
  482MOL0     O64970   8.786   5.447   2.519 -0.0355  0.3754  0.2454
  482MOL0     C64971   8.719   5.535   2.612  0.1781 -0.1789  0.3429
  482MOL0     C64972   8.710   5.675   2.551  0.6537 -0.4806  1.0546
  482MOL0     C64973   8.606   5.766   2.612 -0.2290 -0.0143 -0.1373
  482MOL0     C64974   8.610   5.907   2.550 -0.1863 -0.0173 -0.4051
  482MOL0     C64975   8.577   5.913   2.395  0.3384  0.2534  0.3951
  482MOL0     C64976   8.551   6.051   2.337  0.4320  0.2371 -0.1061
  482MOL0     C64977   8.505   6.038   2.186  0.1759  0.8856 -1.2236
  482MOL0     C64978   8.491   6.173   2.116 -0.0166  0.1915 -1.0696
  482MOL0    Cl64979   8.393   6.151   1.966 -0.0721  0.2177 -0.2071
  482MOL0     C64980   8.775   5.268   2.675  0.0478  0.2321  0.0217
  482MOL0     C64981   8.811   5.145   2.718  0.0062 -0.3533  0.1943
  482MOL0     O64982   9.141   4.932   2.637 -0.2717 -0.1365 -0.9946
  482MOL0     C64983   9.178   4.686   2.742  0.2982  0.2918 -0.1421
  482MOL0     C64984   9.192   4.548   2.758  0.9669  0.4911 -0.1729
  482MOL0     N64985   9.412   3.957   3.221 -0.3686  0.3701 -0.4775
  482MOL0     N64986   9.490   3.873   3.156 -0.9210  0.5469  0.6704
  482MOL0     C64987  10.071   3.744   2.065 -0.0266  0.6504 -0.3987
  482MOL0     C64988  10.125   3.696   1.941 -0.0773 -0.7067 -0.6965
  482MOL0     C64989  10.300   3.370   1.661 -0.4522 -0.1973  0.4306
  482MOL0     C64990  10.408   3.318   1.735  0.1263  0.4045 -0.3925
  482MOL0     C64991  10.520   3.265   1.679  0.1464  1.5101  0.6902
  482MOL0     C64992  10.529   3.244   1.543 -0.9726  0.4288  0.4803
  482MOL0     O64993  10.644   3.174   1.503 -0.0544 -0.6224 -0.3382
  482MOL0     C64994  10.676   3.156   1.362  0.0678 -0.3438  0.2164
  482MOL0     C64995  10.778   3.042   1.373  0.5823 -0.8879  0.1730
  482MOL0     C64996  10.856   3.041   1.243 -0.3093  0.5065 -0.2258
  482MOL0     C64997  10.976   3.130   1.235  0.2907 -0.2444  0.4263
  482MOL0     C64998  11.024   3.146   1.095  0.0697 -0.4185 -0.2267
  482MOL0     C64999  11.045   3.147   0.974 -0.3899 -0.1117  0.0806
  482MOL0     C65000  10.413   3.278   1.468 -0.4785  0.4456  0.4925
  482MOL0     C65001  10.300   3.346   1.523 -0.8672  0.2058 -0.8526
  482MOL0     C65002  10.197   3.401   1.433 -0.7104 -0.1412 -0.2138
  482MOL0     H65003  10.272   3.408   2.055  0.2531 -0.1565 -3.8213
  482MOL0     H65004  10.139   3.474   2.255 -1.0219  0.8391  1.2989
  482MOL0     H65005  10.185   3.810   2.363 -0.0704  2.2604  0.6027
  482MOL0     H65006  10.026   3.880   2.311 -0.9481 -1.7541 -2.8246
  482MOL0     H65007  10.058   3.704   2.550  0.4424  0.5376 -0.0711
  482MOL0     H65008   9.923   3.818   2.505  0.2459  1.5220 -0.9157
  482MOL0     H65009  10.071   4.014   2.527  2.5414  0.2608  1.7210
  482MOL0     H65010  10.205   3.915   2.550  0.4664  0.8277 -0.8991
  482MOL0     H65011  10.098   3.819   2.772  0.4602  0.6056  0.6060
  482MOL0     H65012  10.163   3.981   2.769 -1.0011 -0.4209  0.2025
  482MOL0     H65013   9.946   4.056   2.841 -0.9035 -2.7495  3.2832
  482MOL0     H65014   9.888   4.008   2.673 -0.3715  0.4521  0.4038
  482MOL0     H65015   9.811   3.819   2.744  0.7944  1.2807 -2.8124
  482MOL0     H65016   9.883   3.835   2.920 -0.9824  1.6993  0.5599
  482MOL0     H65017   9.667   3.996   2.800 -2.1321  1.7492  1.6586
  482MOL0     H65018   9.762   4.035   2.953  0.3928  0.2732 -0.8595
  482MOL0     H65019   9.601   3.783   2.890  0.7009 -0.2219 -1.2220
  482MOL0     H65020   9.698   3.800   3.029  3.0727 -0.2523 -4.3196
  482MOL0     H65021   9.466   4.119   2.937  1.9547  2.2664  3.0816
  482MOL0     H65022   9.343   4.199   3.269  1.1912 -2.5066  0.0073
  482MOL0     H65023   9.347   4.265   3.107 -3.0771 -0.3309 -1.1844
  482MOL0     H65024   9.139   4.054   3.184  1.8523 -2.2756 -4.3545
  482MOL0     H65025   9.107   4.219   3.227 -1.1683 -1.4804  1.1018
  482MOL0     H65026   9.010   4.129   2.992  0.6483  0.7709 -1.4563
  482MOL0     H65027   9.171   4.094   2.947  2.0791 -0.8577  2.0002
  482MOL0     H65028   9.202   4.369   2.992 -0.3229  1.4993 -0.6632
  482MOL0     H65029   9.021   4.365   3.001 -1.2131 -1.7823 -0.6143
  482MOL0     H65030   8.868   4.460   2.771  2.3492 -3.2830  2.7950
  482MOL0     H65031   8.844   4.683   2.700  0.7312 -1.2163 -2.4338
  482MOL0     H65032   8.993   5.052   2.464 -0.7767  0.4096 -1.0091
  482MOL0     H65033   8.928   5.274   2.377  2.5459 -0.9933 -0.6042
  482MOL0     H65034   8.614   5.506   2.606 -0.3670  1.8655 -3.3330
  482MOL0     H65035   8.777   5.529   2.704  0.4699 -0.3312  0.1491
  482MOL0     H65036   8.809   5.721   2.550 -0.0042  1.1248 -2.2308
  482MOL0     H65037   8.691   5.660   2.444  0.8154 -1.5866  1.1699
  482MOL0     H65038   8.507   5.722   2.618  0.2557 -0.9981  0.9648
  482MOL0     H65039   8.647   5.763   2.713  1.3923 -2.6155 -0.7502
  482MOL0     H65040   8.711   5.945   2.569 -0.0996 -0.3876 -0.1228
  482MOL0     H65041   8.543   5.974   2.605  0.2785 -1.2673  1.7861
  482MOL0     H65042   8.489   5.851   2.377 -0.6500  1.8342 -0.3152
  482MOL0     H65043   8.662   5.867   2.343 -0.8974 -4.4547  1.9691
  482MOL0     H65044   8.468   6.096   2.392 -0.5138 -0.6630 -0.7698
  482MOL0     H65045   8.641   6.113   2.345  1.0510 -0.1493 -2.9708
  482MOL0     H65046   8.407   5.991   2.200  1.1112 -0.3354  1.8287
  482MOL0     H65047   8.582   5.981   2.133  2.9672  2.0684  1.2883
  482MOL0     H65048   8.435   6.231   2.189  0.8946  1.5548 -1.4121
  482MOL0     H65049   8.583   6.229   2.097  0.9331 -0.9861 -0.1507
  482MOL0     H65050   8.706   5.325   2.737  1.4059  4.3387 -1.9135
  482MOL0     H65051   8.759   5.111   2.807 -0.8927  3.3689  1.2732
  482MOL0     H65052   9.268   4.747   2.738 -0.4516  1.5673  1.4609
  482MOL0     H65053   9.287   4.506   2.789 -0.4181 -2.9936 -0.1466
  482MOL0     H65054  10.047   3.848   2.085 -0.2452  0.6127 -0.4575
  482MOL0     H65055  10.130   3.759   1.853  2.4395  1.4596  0.8457
  482MOL0     H65056  10.394   3.324   1.842 -0.4770 -1.7161 -0.3117
  482MOL0     H65057  10.606   3.230   1.734 -2.0404 -2.8714  1.7657
  482MOL0     H65058  10.725   3.246   1.323 -1.6657 -0.0768 -1.4787
  482MOL0     H65059  10.591   3.144   1.295  1.4681 -1.7910 -1.3884
  482MOL0     H65060  10.731   2.944   1.386  0.4364 -0.9002 -0.4378
  482MOL0     H65061  10.848   3.053   1.457  0.7210  1.4381 -0.1983
  482MOL0     H65062  10.798   3.046   1.150  0.8818  4.8250 -0.9284
  482MOL0     H65063  10.892   2.939   1.228  2.4133  1.6012 -1.8880
  482MOL0     H65064  10.938   3.224   1.277  0.5710  0.2160 -0.3328
  482MOL0     H65065  11.057   3.091   1.297  0.5240 -0.4147  0.0180
  482MOL0     H65066  11.066   3.162   0.870 -2.2910 -0.9204 -0.4631
  482MOL0     H65067  10.398   3.257   1.362 -1.2306 -1.6049  0.9674
  482MOL0     H65068  10.220   3.381   1.328  1.7121 -3.2064  0.7549
  482MOL0     H65069  10.096   3.367   1.457 -1.0327  0.6555 -0.3765
  482MOL0     H65070  10.196   3.510   1.447 -0.2565  0.1510 -2.1354
  483MOL0     O65071   3.902   9.913   1.704  0.3730 -0.1208  0.0405
  483MOL0     C65072   3.921   9.798   1.650 -0.0281  0.0615  0.3761
  483MOL0     O65073   3.813   9.727   1.596 -0.4383  0.5431 -0.1680
  483MOL0     C65074   3.689   9.782   1.619  0.5594  0.8379 -0.6278
  483MOL0     C65075   3.611   9.729   1.726 -0.2752  0.5865  0.3660
  483MOL0     C65076   3.499   9.793   1.751  1.5755  0.0514 -0.0074
  483MOL0     C65077   3.450   9.903   1.692 -0.0812 -0.1808 -0.0865
  483MOL0     O65078   3.340   9.969   1.734  0.2861 -0.6602 -0.7029
  483MOL0     C65079   3.234   9.897   1.790 -0.1446  0.1670  0.8199
  483MOL0     C65080   3.107   9.969   1.784  0.7279 -0.4665  0.2245
  483MOL0     C65081   3.075  10.031   1.647  0.0138  0.5390 -0.1632
  483MOL0     C65082   2.947  10.112   1.666  0.9938 -0.1517  0.9421
  483MOL0     C65083   2.889  10.144   1.529  1.7697  0.4159  0.1673
  483MOL0     C65084   2.762  10.231   1.538 -0.2910  0.0108 -0.1934
  483MOL0     C65085   2.727  10.308   1.405 -0.8184 -1.2035  0.0684
  483MOL0     C65086   2.854  10.396   1.365 -0.1798 -0.5058 -0.2847
  483MOL0     N65087   2.817  10.487   1.261 -0.3823 -0.2136 -0.0714
  483MOL0     C65088   2.703  10.552   1.233 -0.2121  0.2218  0.7667
  483MOL0     C65089   2.732  10.647   1.134 -0.3452  0.5326  0.3088
  483MOL0     C65090   2.638  10.744   1.068  0.4862 -0.2640 -0.2436
  483MOL0     C65091   2.584  10.693   0.927  0.4179 -0.3312 -0.1354
  483MOL0     C65092   2.491  10.569   0.935 -0.6494 -0.1947  0.6336
  483MOL0     C65093   2.465  10.522   0.791  0.7684 -0.8658 -0.1861
  483MOL0     O65094   2.372  10.412   0.782  0.6735 -0.5846 -0.8052
  483MOL0     C65095   2.237  10.448   0.759  0.1952 -0.6326  0.3532
  483MOL0     C65096   2.169  10.339   0.701  0.4888  0.2215  0.5097
  483MOL0     C65097   2.032  10.335   0.680 -0.2815  0.4550  0.1467
  483MOL0     C65098   1.959  10.445   0.718 -0.1598 -0.4463 -0.2876
  483MOL0     C65099   1.807  10.432   0.706  0.7100  0.6182  1.2920
  483MOL0     O65100   1.736  10.537   0.764 -0.0369  0.0034 -0.6099
  483MOL0     C65101   1.598  10.535   0.746 -0.5590  0.4592  0.7119
  483MOL0     C65102   1.520  10.506   0.862 -0.9395  0.6657  0.1906
  483MOL0     C65103   1.383  10.517   0.859 -1.0872  0.0709  0.1073
  483MOL0     C65104   1.325  10.559   0.738 -0.2088  0.3081 -0.2076
  483MOL0     O65105   1.184  10.567   0.746  0.2152 -0.0172 -0.2690
  483MOL0     C65106   1.120  10.596   0.619  0.1867 -0.0629  0.1036
  483MOL0     C65107   0.969  10.619   0.637 -0.0842 -0.3112  1.0815
  483MOL0     C65108   0.884  10.492   0.655  0.3396  0.6641 -0.1070
  483MOL0     C65109   0.726  10.527   0.657  0.3718  0.3299  0.0429
  483MOL0     C65110   0.650  10.466   0.781 -0.1442 -0.0822  0.0873
  483MOL0     C65111   0.502  10.495   0.768  0.0904 -0.2257 -0.8304
  483MOL0     C65112   0.435  10.432   0.890  0.3393  0.0731 -0.1191
  483MOL0     C65113   0.278  10.464   0.898 -0.7497 -0.1983  1.6383
  483MOL0    Cl65114   0.260  10.635   0.943  0.2091  0.0821  0.0399
  483MOL0     C65115   1.404  10.574   0.624 -0.3823 -0.1050 -0.2925
  483MOL0     C65116   1.543  10.583   0.628  0.2514 -0.7738  1.5595
  483MOL0     O65117   1.759  10.332   0.652 -0.0170  0.1781 -0.2238
  483MOL0     C65118   2.025  10.558   0.779  0.8628  0.8653  0.7913
  483MOL0     C65119   2.160  10.566   0.792 -0.3541  0.8643 -1.2992
  483MOL0     N65120   2.855  10.623   1.095  0.3972 -0.2837  0.0326
  483MOL0     N65121   2.910  10.535   1.173  0.3447  0.0093  0.2913
  483MOL0     C65122   3.526   9.954   1.589 -0.0696 -0.4928 -0.5180
  483MOL0     C65123   3.638   9.887   1.543 -0.2877  0.0086  0.2778
  483MOL0     C65124   4.050   9.733   1.628 -0.2844 -0.4506 -0.5435
  483MOL0     C65125   4.072   9.591   1.649  0.9024 -0.4490 -0.1965
  483MOL0     C65126   4.196   9.526   1.611 -0.6006 -0.4942  0.5930
  483MOL0     C65127   4.305   9.613   1.572 -0.5788  0.3105 -0.1029
  483MOL0     O65128   4.427   9.558   1.556 -0.5804  0.9273 -0.3948
  483MOL0     C65129   4.526   9.629   1.483  0.1092 -0.6025 -0.0758
  483MOL0     C65130   4.622   9.527   1.416 -0.1619 -1.5366 -0.6047
  483MOL0     C65131   4.707   9.454   1.529  0.0147 -0.9959  0.3502
  483MOL0     C65132   4.833   9.529   1.573  0.4233 -0.1257  1.0847
  483MOL0     C65133   4.821   9.613   1.688 -0.7229 -0.6101  0.3206
  483MOL0     C65134   4.804   9.672   1.791  0.0019  0.2730 -0.6191
  483MOL0     C65135   4.287   9.746   1.564  0.0751  0.2952  0.8547
  483MOL0     C65136   4.170   9.807   1.604  0.4978 -0.5894  0.2173
  483MOL0     C65137   4.173   9.957   1.604  0.2204  1.2522 -0.2252
  483MOL0     H65138   3.639   9.655   1.800 -1.4387 -0.3043 -0.0544
  483MOL0     H65139   3.446   9.743   1.832  0.4467  1.3722  0.1119
  483MOL0     H65140   3.222   9.802   1.737  0.3686 -1.0423  2.7829
  483MOL0     H65141   3.251   9.870   1.894 -1.7729 -0.9647  0.8264
  483MOL0     H65142   3.099  10.034   1.871 -1.1237  0.0037 -0.2490
  483MOL0     H65143   3.024   9.903   1.813  0.0593  0.3541  0.2112
  483MOL0     H65144   3.061   9.953   1.572  0.5847  0.6202 -0.3613
  483MOL0     H65145   3.159  10.097   1.620 -0.7858  1.4048 -0.6112
  483MOL0     H65146   2.865  10.062   1.718  1.7151 -1.6476  0.6700
  483MOL0     H65147   2.980  10.202   1.720  0.2913 -1.3013  3.4184
  483MOL0     H65148   2.969  10.198   1.478  1.6009  0.5852  0.0830
  483MOL0     H65149   2.871  10.043   1.490 -0.5329  0.7649  0.1868
  483MOL0     H65150   2.674  10.167   1.546 -0.8203  0.7675  0.0004
  483MOL0     H65151   2.763  10.300   1.622 -2.4570  1.3198 -1.1762
  483MOL0     H65152   2.648  10.380   1.426  1.8753  0.8758  4.3487
  483MOL0     H65153   2.694  10.240   1.326  1.2155 -0.5821 -1.3977
  483MOL0     H65154   2.904  10.441   1.452  0.0251 -0.7869 -0.2548
  483MOL0     H65155   2.937  10.337   1.325 -0.9946 -3.2508  1.7579
  483MOL0     H65156   2.603  10.544   1.277 -1.4446  2.1594 -1.4378
  483MOL0     H65157   2.541  10.760   1.117  0.0752  3.3682 -1.8749
  483MOL0     H65158   2.677  10.846   1.057 -0.6326  0.2974  0.6881
  483MOL0     H65159   2.534  10.775   0.875  1.2677 -0.0310 -0.4998
  483MOL0     H65160   2.673  10.658   0.873  3.1310  2.5653  2.1112
  483MOL0     H65161   2.399  10.587   0.990 -0.4357  0.2995  0.8411
  483MOL0     H65162   2.537  10.481   0.981 -0.9583 -1.6637 -1.6950
  483MOL0     H65163   2.553  10.477   0.745 -0.2048 -1.7422 -1.2540
  483MOL0     H65164   2.435  10.611   0.735 -1.8036  1.6863  4.6114
  483MOL0     H65165   2.230  10.251   0.684  0.1547  0.3619 -1.8003
  483MOL0     H65166   1.989  10.241   0.647  1.0309 -1.5740  3.7103
  483MOL0     H65167   1.574  10.468   0.948  4.0485  1.6929 -2.1511
  483MOL0     H65168   1.330  10.496   0.951  0.5587 -0.8878  0.8767
  483MOL0     H65169   1.175  10.682   0.578  0.1049  0.1277  0.3882
  483MOL0     H65170   1.141  10.507   0.560  1.2496 -0.1407  0.5742
  483MOL0     H65171   0.953  10.701   0.707 -0.5824  1.8634 -1.4419
  483MOL0     H65172   0.934  10.662   0.543  2.2219  1.4390  0.9489
  483MOL0     H65173   0.908  10.421   0.576  0.2394 -1.2867  1.5574
  483MOL0     H65174   0.908  10.447   0.751  0.6569  0.1002 -0.4479
  483MOL0     H65175   0.679  10.477   0.572  0.1601 -0.0363  0.3729
  483MOL0     H65176   0.704  10.634   0.658 -1.6620 -0.0334  1.9686
  483MOL0     H65177   0.687  10.510   0.874  1.3647  0.2101 -0.6213
  483MOL0     H65178   0.666  10.358   0.769  0.5596 -0.0501  0.6672
  483MOL0     H65179   0.478  10.602   0.769 -1.9765 -0.5268 -3.9006
  483MOL0     H65180   0.465  10.436   0.684 -1.5954 -1.4640  0.6912
  483MOL0     H65181   0.468  10.457   0.992 -4.1509  0.4062  1.4631
  483MOL0     H65182   0.448  10.323   0.884  0.3967 -0.0108  1.1569
  483MOL0     H65183   0.231  10.456   0.799  1.8415 -1.9616  0.4402
  483MOL0     H65184   0.222  10.399   0.965 -0.4799  0.4708  2.5285
  483MOL0     H65185   1.360  10.588   0.526 -0.6498  1.1225 -0.0107
  483MOL0     H65186   1.601  10.601   0.537 -3.8765  1.3769 -0.9371
  483MOL0     H65187   1.965  10.646   0.798 -0.0599  0.7249 -1.2223
  483MOL0     H65188   2.211  10.652   0.833 -3.3799  2.8341 -1.3339
  483MOL0     H65189   3.487  10.045   1.546  0.7137 -0.5496 -1.3809
  483MOL0     H65190   3.702   9.915   1.460  2.1797  0.5516  2.2481
  483MOL0     H65191   3.986   9.538   1.687  2.4426 -3.7993 -0.9764
  483MOL0     H65192   4.203   9.418   1.606  1.9556 -0.3468 -0.7540
  483MOL0     H65193   4.569   9.706   1.547  1.0578  0.5529 -2.0139
  483MOL0     H65194   4.479   9.702   1.416  1.7229 -0.3249 -0.9883
  483MOL0     H65195   4.694   9.585   1.358  2.9550 -1.7758  2.6725
  483MOL0     H65196   4.568   9.471   1.340  0.6871 -3.4062  0.1126
  483MOL0     H65197   4.741   9.355   1.497  1.8180  0.6326 -3.4143
  483MOL0     H65198   4.648   9.440   1.620 -0.4759 -0.4691  0.1195
  483MOL0     H65199   4.913   9.460   1.602 -0.9614 -1.4831  1.7845
  483MOL0     H65200   4.852   9.595   1.487 -2.3382  0.1709  0.6115
  483MOL0     H65201   4.780   9.711   1.888 -1.2433  1.4122 -1.3518
  483MOL0     H65202   4.372   9.810   1.547  0.2497 -0.6274 -2.4770
  483MOL0     H65203   4.096  10.005   1.544  0.3498  1.8290  0.0559
  483MOL0     H65204   4.153   9.988   1.707  2.5611 -1.6911  1.2676
  483MOL0     H65205   4.273   9.994   1.579  1.6220 -0.0336  2.9019
  484MOL0     O65206   0.470   0.801   1.605 -0.0982 -0.3412 -0.1196
  484MOL0     C65207   0.569   0.835   1.675  1.2813 -0.1816 -0.2521
  484MOL0     O65208   0.595   0.966   1.714 -0.1870 -0.6531 -0.6072
  484MOL0     C65209   0.508   1.063   1.675  0.8420 -0.1130 -0.2003
  484MOL0     C65210   0.430   1.112   1.782  1.0486 -0.3316 -0.6196
  484MOL0     C65211   0.323   1.207   1.760 -0.7406 -0.2183 -0.5522
  484MOL0     C65212   0.309   1.255   1.628 -0.1620 -0.3925 -0.3298
  484MOL0     O65213   0.209   1.347   1.619  0.8939 -0.2560  0.8850
  484MOL0     C65214   0.190   1.404   1.492 -0.3196  0.7395 -0.7328
  484MOL0     C65215   0.098   1.523   1.503  0.4963 -0.4099  0.0869
  484MOL0     C65216   0.145   1.624   1.596  0.8938  1.3153 -0.3373
  484MOL0     C65217   0.090   1.759   1.574 -0.1618 -1.1815  0.4334
  484MOL0     C65218   0.203   1.851   1.639 -0.4926  0.2014  0.9750
  484MOL0     C65219   0.168   1.990   1.615 -0.0751 -0.6605 -0.0131
  484MOL0     C65220   0.256   2.106   1.661 -0.6664 -0.6388  0.3855
  484MOL0     C65221   0.320   2.099   1.792 -0.4460  0.3875 -0.0063
  484MOL0     N65222   0.232   2.136   1.906  0.5993  0.1425  0.4003
  484MOL0     C65223   0.167   2.259   1.929  0.3737  0.0642 -0.7763
  484MOL0     C65224   0.075   2.238   2.024  0.1639  0.7200 -1.2519
  484MOL0     C65225  -0.016   2.327   2.091 -0.8656 -0.4284  0.1222
  484MOL0     C65226   0.049   2.456   2.146  0.1164 -0.8133 -0.4351
  484MOL0     C65227   0.144   2.416   2.262  0.2099  0.5695 -0.8330
  484MOL0     C65228   0.166   2.534   2.354  0.0954 -0.1207  1.0581
  484MOL0     O65229   0.264   2.502   2.452  0.0392 -0.7617 -0.5235
  484MOL0     C65230   0.319   2.602   2.531 -0.5294 -0.4301  0.6231
  484MOL0     C65231   0.352   2.567   2.665  0.0113  0.0393  0.4884
  484MOL0     C65232   0.414   2.660   2.759  0.1370  0.0475  0.8328
  484MOL0     C65233   0.429   2.793   2.721 -0.3017  0.2191 -0.0991
  484MOL0     C65234   0.476   2.886   2.826 -0.2539  0.7500  0.9541
  484MOL0     O65235   0.456   3.019   2.800  0.0412  0.8322 -0.2324
  484MOL0     C65236   0.509   3.108   2.899  0.4066 -0.1852 -0.6295
  484MOL0     C65237   0.646   3.134   2.901  0.4455 -0.6178 -0.4244
  484MOL0     C65238   0.709   3.222   2.985  0.6256 -0.9032  0.3759
  484MOL0     C65239   0.631   3.278   3.088  0.7887  0.5891 -0.7974
  484MOL0     O65240   0.670   3.380   3.175 -0.8342 -0.8540 -0.1349
  484MOL0     C65241   0.788   3.354   3.252  0.4138 -0.2063 -0.2098
  484MOL0     C65242   0.766   3.248   3.366  0.2045 -0.6429 -0.3771
  484MOL0     C65243   0.664   3.300   3.474 -0.2541 -0.0450  0.4516
  484MOL0     C65244   0.586   3.170   3.515 -0.0675  0.4934  0.2591
  484MOL0     C65245   0.484   3.192   3.627  0.3346  0.2901 -0.6341
  484MOL0     C65246   0.408   3.063   3.652  0.3748  0.0725  1.9180
  484MOL0     C65247   0.309   3.052   3.769  0.4146 -0.2670  0.8223
  484MOL0     C65248   0.207   3.174   3.774  0.1842  0.2081  0.1360
  484MOL0    Cl65249   0.120   3.193   3.621 -0.4266  0.6264  0.0540
  484MOL0     C65250   0.494   3.250   3.094  0.1141 -0.3971  0.1912
  484MOL0     C65251   0.432   3.157   3.005  0.0308 -0.2719  0.2521
  484MOL0     O65252   0.530   2.843   2.925 -0.5108  0.0008 -0.3598
  484MOL0     C65253   0.393   2.837   2.589 -1.0302 -0.0990  0.6975
  484MOL0     C65254   0.346   2.736   2.498  0.3756 -1.5388  0.6791
  484MOL0     N65255   0.086   2.107   2.063 -0.0670  0.0294 -0.5553
  484MOL0     N65256   0.173   2.037   1.990  0.3653 -0.4436  0.0039
  484MOL0     C65257   0.382   1.206   1.517  0.4340  0.2943  0.1075
  484MOL0     C65258   0.481   1.103   1.543  0.6179  0.5169  0.2573
  484MOL0     C65259   0.663   0.738   1.724  0.2634 -0.0278 -0.3958
  484MOL0     C65260   0.769   0.777   1.800 -1.2352  0.0084  0.9900
  484MOL0     C65261   0.874   0.688   1.847  0.2793  0.1677  0.6635
  484MOL0     C65262   0.885   0.560   1.813 -0.7817  0.5675  0.0521
  484MOL0     O65263   0.990   0.484   1.854 -0.9264  0.3206  0.1367
  484MOL0     C65264   1.010   0.343   1.812 -0.1613  0.5825 -0.3959
  484MOL0     C65265   1.068   0.333   1.675  1.5004  0.3631 -0.6825
  484MOL0     C65266   1.029   0.193   1.611 -0.5136 -1.0127  0.2388
  484MOL0     C65267   0.971   0.206   1.468 -0.2831  0.5602 -0.0349
  484MOL0     C65268   0.828   0.230   1.476  0.0577 -0.3833 -0.3878
  484MOL0     C65269   0.703   0.225   1.476 -0.3443 -0.1365 -0.3825
  484MOL0     C65270   0.780   0.512   1.734 -0.2160 -0.6593 -0.7335
  484MOL0     C65271   0.669   0.595   1.697  0.9901 -0.9373 -0.7751
  484MOL0     C65272   0.564   0.527   1.622  0.5606  0.0229 -0.0564
  484MOL0     H65273   0.445   1.083   1.885 -1.6803  0.1948  0.0192
  484MOL0     H65274   0.283   1.251   1.850  0.6445 -1.6494  0.8300
  484MOL0     H65275   0.286   1.447   1.459  1.5932 -1.6114  1.3734
  484MOL0     H65276   0.156   1.330   1.420  1.2294 -0.0487 -0.6920
  484MOL0     H65277  -0.001   1.502   1.542  0.7184  0.9270  1.4779
  484MOL0     H65278   0.087   1.566   1.403 -2.0781  0.1647  0.5452
  484MOL0     H65279   0.254   1.629   1.591  1.0639 -0.4663  0.5684
  484MOL0     H65280   0.125   1.585   1.697  2.3460  1.1903 -0.0777
  484MOL0     H65281   0.085   1.785   1.467 -0.6961  1.6193  1.0566
  484MOL0     H65282  -0.008   1.776   1.618  0.8065 -1.3998  2.7972
  484MOL0     H65283   0.204   1.829   1.746  1.4346  0.7579  1.1023
  484MOL0     H65284   0.297   1.835   1.586 -1.1621 -0.2034 -0.1444
  484MOL0     H65285   0.134   1.996   1.511 -1.4516 -1.7385  0.3444
  484MOL0     H65286   0.073   2.002   1.669  0.8364  3.4922  1.0063
  484MOL0     H65287   0.193   2.196   1.655  2.0182  1.3123 -0.5086
  484MOL0     H65288   0.331   2.120   1.583 -0.6865 -0.7962  0.3373
  484MOL0     H65289   0.357   2.000   1.818 -1.3778 -0.8901 -3.1208
  484MOL0     H65290   0.407   2.165   1.790 -0.0190 -0.1080 -3.3821
  484MOL0     H65291   0.168   2.347   1.866 -0.9320  0.4914 -0.2297
  484MOL0     H65292  -0.101   2.355   2.028 -0.4722  0.6216  0.0251
  484MOL0     H65293  -0.063   2.263   2.166 -0.8736 -1.4090 -0.6935
  484MOL0     H65294   0.102   2.520   2.075 -1.2208  1.9008  0.8700
  484MOL0     H65295  -0.030   2.518   2.190  1.2927  0.3278  0.1224
  484MOL0     H65296   0.235   2.386   2.210 -0.9055 -2.7934 -1.0946
  484MOL0     H65297   0.113   2.332   2.325 -1.1812 -0.1490 -2.3907
  484MOL0     H65298   0.071   2.566   2.398  0.3898  0.3589  1.3590
  484MOL0     H65299   0.205   2.621   2.300  1.3207 -0.2745  1.6518
  484MOL0     H65300   0.333   2.468   2.705 -1.4469  0.3477  0.6063
  484MOL0     H65301   0.434   2.639   2.863  4.5001 -3.0529 -0.3434
  484MOL0     H65302   0.698   3.101   2.811  0.2747  1.1732 -1.2285
  484MOL0     H65303   0.813   3.240   2.961  0.1105  1.7712 -0.1695
  484MOL0     H65304   0.864   3.317   3.183 -2.9533 -1.3139 -3.7081
  484MOL0     H65305   0.812   3.456   3.283 -1.7882  0.1775  0.4816
  484MOL0     H65306   0.745   3.158   3.307  0.5510  0.3710 -2.1208
  484MOL0     H65307   0.859   3.214   3.412  0.4055 -1.2339 -1.1845
  484MOL0     H65308   0.715   3.348   3.559 -1.6431  3.0536 -0.3500
  484MOL0     H65309   0.602   3.378   3.430  2.4079  3.4819  2.4301
  484MOL0     H65310   0.661   3.096   3.546  1.6762  2.1873  0.2300
  484MOL0     H65311   0.531   3.133   3.428 -0.7441 -0.2927  1.0079
  484MOL0     H65312   0.407   3.267   3.605  0.8420  0.6075 -1.3873
  484MOL0     H65313   0.527   3.232   3.719 -0.7978  0.6512 -0.2461
  484MOL0     H65314   0.362   3.042   3.554  2.1821  2.1104  0.5367
  484MOL0     H65315   0.488   2.989   3.665  0.0448 -0.4748  1.0318
  484MOL0     H65316   0.363   3.041   3.863 -3.1193  4.2288  3.8508
  484MOL0     H65317   0.253   2.960   3.751 -0.1486  0.4460 -1.3807
  484MOL0     H65318   0.146   3.172   3.865  2.1218 -0.5557  1.4767
  484MOL0     H65319   0.256   3.267   3.806 -2.0162  0.9287  1.6861
  484MOL0     H65320   0.431   3.294   3.170  0.4658  1.4576 -0.5353
  484MOL0     H65321   0.325   3.145   3.019 -0.3715  3.4519  1.5216
  484MOL0     H65322   0.391   2.941   2.559  0.7339 -0.4349 -0.7590
  484MOL0     H65323   0.326   2.766   2.396 -2.1391 -0.6270  1.3717
  484MOL0     H65324   0.365   1.224   1.412  0.6788 -1.6439 -0.3112
  484MOL0     H65325   0.536   1.060   1.459 -2.6849 -1.8133 -0.9287
  484MOL0     H65326   0.789   0.883   1.814  2.7302 -0.1846 -1.6093
  484MOL0     H65327   0.958   0.723   1.906  2.4718  1.9623 -3.1389
  484MOL0     H65328   0.913   0.295   1.824 -0.1883  0.7871  0.2408
  484MOL0     H65329   1.072   0.295   1.888  0.6345  2.3682  0.1320
  484MOL0     H65330   1.177   0.345   1.680  1.3816  3.0109 -2.3735
  484MOL0     H65331   1.040   0.416   1.609  1.0025  0.7885  0.0480
  484MOL0     H65332   0.980   0.127   1.683  1.3046 -1.5392  1.0559
  484MOL0     H65333   1.128   0.147   1.603  0.2416  0.6983 -0.9243
  484MOL0     H65334   1.021   0.287   1.414  1.1156  1.1921  2.0801
  484MOL0     H65335   0.990   0.105   1.432  0.5953 -0.0649  1.9951
  484MOL0     H65336   0.596   0.216   1.474 -0.7650  3.4706  0.3349
  484MOL0     H65337   0.771   0.409   1.699 -2.2003 -1.8108  2.6311
  484MOL0     H65338   0.577   0.418   1.625 -2.1838 -0.4869 -1.9991
  484MOL0     H65339   0.466   0.547   1.666  1.2301  2.0219  0.6014
  484MOL0     H65340   0.562   0.568   1.520 -0.8676 -0.8934 -0.4291
  485MOL0     O65341  10.331   9.204   1.034 -0.2572 -0.0952 -0.2066
  485MOL0     C65342  10.279   9.258   0.938 -0.4093 -0.1006  0.7039
  485MOL0     O65343  10.324   9.267   0.801 -0.4192 -0.3388  0.7584
  485MOL0     C65344  10.446   9.213   0.775 -0.0241  0.2253  0.3310
  485MOL0     C65345  10.555   9.266   0.829  0.1334 -0.2271 -0.0429
  485MOL0     C65346  10.683   9.211   0.792  0.4773 -0.3806 -0.1028
  485MOL0     C65347  10.696   9.127   0.690 -0.0518 -0.0224 -0.5149
  485MOL0     O65348  10.822   9.078   0.655 -0.2170 -0.4054  0.0634
  485MOL0     C65349  10.877   8.973   0.729 -0.3108  0.2408  0.1041
  485MOL0     C65350  10.955   9.037   0.856  1.1786  0.2206  0.1142
  485MOL0     C65351  11.079   9.123   0.812 -1.2175  0.3621 -0.4910
  485MOL0     C65352  11.175   9.137   0.932 -0.4943 -0.6682  0.4023
  485MOL0     C65353  11.316   9.191   0.886 -0.2636  0.6920 -1.8690
  485MOL0     C65354  11.385   9.244   1.014 -0.8103 -0.8607 -0.6821
  485MOL0     C65355  11.533   9.277   0.977  0.2099 -0.0346 -0.6634
  485MOL0     C65356  11.629   9.152   0.983 -0.4165 -0.0710  0.7618
  485MOL0     N65357  11.672   9.134   1.120  0.2982 -0.1905 -0.5680
  485MOL0     C65358  11.614   9.040   1.202 -0.9871 -0.5640  0.2950
  485MOL0     C65359  11.669   9.072   1.318  0.7153  0.0749  0.2639
  485MOL0     C65360  11.619   9.034   1.457 -0.3117  0.5419  0.5782
  485MOL0     C65361  11.705   8.916   1.516 -0.4413 -0.3960 -0.2649
  485MOL0     C65362  11.744   8.801   1.424 -0.0379  0.4419  0.3065
  485MOL0     C65363  11.830   8.698   1.487  0.7236 -0.3314 -0.2068
  485MOL0     O65364  11.952   8.769   1.517  0.0946 -1.0953 -0.0385
  485MOL0     C65365  12.051   8.690   1.587  0.5644 -0.3420 -0.8058
  485MOL0     C65366  12.165   8.641   1.512 -0.1322  0.8250 -0.3520
  485MOL0     C65367  12.274   8.580   1.566  0.0180 -1.0228  0.2566
  485MOL0     C65368  12.279   8.561   1.704  0.3375  0.2840  0.0828
  485MOL0     C65369  12.396   8.504   1.769  0.8303  0.5561  0.9214
  485MOL0     O65370  12.514   8.499   1.706  0.7771 -0.2558  0.1355
  485MOL0     C65371  12.623   8.448   1.769  0.2561  0.4328  1.2673
  485MOL0     C65372  12.690   8.338   1.708  0.5062 -0.7266  0.5980
  485MOL0     C65373  12.808   8.282   1.758  0.9310 -1.1191 -0.4748
  485MOL0     C65374  12.860   8.326   1.882  0.5923 -0.4385  0.6664
  485MOL0     O65375  12.983   8.284   1.924 -0.3143 -0.6717 -0.6905
  485MOL0     C65376  13.007   8.143   1.935 -0.3116  0.6304 -0.0197
  485MOL0     C65377  13.051   8.112   2.085 -0.3502  0.6541  0.0766
  485MOL0     C65378  13.194   8.150   2.115 -0.3433 -0.6719 -0.2537
  485MOL0     C65379  13.294   8.061   2.033 -0.1218  0.0684  0.0518
  485MOL0     C65380  13.432   8.084   2.089  0.6087 -0.3271 -0.0144
  485MOL0     C65381  13.534   7.988   2.051 -0.7088  0.4983  0.6698
  485MOL0     C65382  13.585   8.008   1.909  0.3690 -0.5781  0.1906
  485MOL0     C65383  13.672   7.898   1.850  0.6836  0.0583  0.4459
  485MOL0    Cl65384  13.657   7.902   1.669  0.0630 -0.0455  0.5496
  485MOL0     C65385  12.791   8.429   1.947 -0.0131  1.2600 -0.3657
  485MOL0     C65386  12.680   8.493   1.893 -0.5049  0.2616  0.7252
  485MOL0     O65387  12.374   8.456   1.877 -0.0583 -0.9648 -0.6805
  485MOL0     C65388  12.164   8.601   1.788 -1.0046  0.1798  0.2437
  485MOL0     C65389  12.055   8.668   1.726  0.6550  0.6240 -0.5603
  485MOL0     N65390  11.767   9.168   1.306 -0.4574 -0.3948 -0.2583
  485MOL0     N65391  11.782   9.195   1.175 -0.5390  0.2776 -0.5229
  485MOL0     C65392  10.590   9.073   0.631 -0.1404 -0.4195  0.2717
  485MOL0     C65393  10.461   9.116   0.673  0.0865 -0.7063  0.0922
  485MOL0     C65394  10.146   9.326   0.954  0.2092 -0.3230 -1.1775
  485MOL0     C65395  10.135   9.465   0.916  0.6286 -0.8043 -0.0704
  485MOL0     C65396  10.014   9.530   0.923  0.1479 -0.1099 -0.4643
  485MOL0     C65397   9.909   9.470   0.992 -0.2223  0.0958 -0.3064
  485MOL0     O65398   9.788   9.532   0.982  0.7606 -0.7623 -0.4087
  485MOL0     C65399   9.670   9.452   1.015 -0.5968 -0.6249  0.2024
  485MOL0     C65400   9.558   9.537   0.968 -0.1159 -0.3346  0.2154
  485MOL0     C65401   9.527   9.514   0.823 -0.8105 -0.1501  0.3681
  485MOL0     C65402   9.430   9.610   0.765  0.3546 -0.4426  0.1915
  485MOL0     C65403   9.298   9.610   0.838 -0.9749  0.3683  0.3979
  485MOL0     C65404   9.184   9.602   0.880  0.5841 -0.7546 -0.1106
  485MOL0     C65405   9.920   9.340   1.045 -0.5691  0.8143  0.0212
  485MOL0     C65406  10.040   9.273   1.023  0.4514 -0.9504 -0.4882
  485MOL0     C65407  10.047   9.127   1.072  0.1451 -0.0015 -0.6896
  485MOL0     H65408  10.551   9.342   0.906  3.3933  1.3619 -1.2437
  485MOL0     H65409  10.771   9.259   0.834 -0.2981 -0.2102  1.4175
  485MOL0     H65410  10.799   8.902   0.757 -0.0971  0.0841  0.2983
  485MOL0     H65411  10.956   8.927   0.669  0.4951  2.5734 -0.7461
  485MOL0     H65412  10.971   8.939   0.902 -4.7702 -0.4866  1.5252
  485MOL0     H65413  10.890   9.100   0.917 -0.1700 -2.0868  1.1971
  485MOL0     H65414  11.052   9.223   0.776  1.7533  0.9714 -1.2976
  485MOL0     H65415  11.130   9.069   0.731  0.9394 -3.1749  2.8794
  485MOL0     H65416  11.126   9.200   1.006  0.7934 -0.5613  1.1835
  485MOL0     H65417  11.190   9.039   0.978 -0.5330 -0.3021  1.1994
  485MOL0     H65418  11.363   9.104   0.840 -1.3746 -1.3840  0.6528
  485MOL0     H65419  11.292   9.278   0.824 -0.4085  1.3722 -0.8929
  485MOL0     H65420  11.335   9.333   1.055 -1.2858 -0.8093 -1.3703
  485MOL0     H65421  11.386   9.158   1.082  1.0001 -0.9700 -0.7879
  485MOL0     H65422  11.572   9.340   1.057  1.3135 -3.0306  1.3250
  485MOL0     H65423  11.550   9.317   0.877  1.2627  0.4570 -0.2960
  485MOL0     H65424  11.577   9.066   0.940 -1.1025  1.3728 -1.4602
  485MOL0     H65425  11.719   9.161   0.921 -1.6632  2.1860 -0.8753
  485MOL0     H65426  11.526   8.984   1.173  0.5010 -2.4137 -0.8671
  485MOL0     H65427  11.635   9.118   1.525  0.7092 -0.1550  1.2283
  485MOL0     H65428  11.512   9.015   1.440 -0.6627  1.2687  1.8312
  485MOL0     H65429  11.791   8.959   1.568 -1.7685  1.2458  0.6356
  485MOL0     H65430  11.637   8.868   1.587  0.1388 -1.5885 -0.4884
  485MOL0     H65431  11.801   8.850   1.345  3.3542  0.3704  2.5004
  485MOL0     H65432  11.650   8.757   1.390  0.6591 -0.2773 -0.7617
  485MOL0     H65433  11.847   8.612   1.422  0.4119 -0.0183 -0.7088
  485MOL0     H65434  11.791   8.658   1.581  0.6554  1.0140  0.3629
  485MOL0     H65435  12.174   8.678   1.410 -0.8252 -0.6336 -0.9662
  485MOL0     H65436  12.361   8.565   1.503  1.2591  5.5118 -0.2130
  485MOL0     H65437  12.644   8.312   1.613  0.3542  0.8935  0.1919
  485MOL0     H65438  12.864   8.212   1.696 -0.3419 -2.6029 -0.0215
  485MOL0     H65439  12.918   8.084   1.909 -0.7586 -0.0106  2.6386
  485MOL0     H65440  13.082   8.118   1.860  0.8750  0.9175  1.0374
  485MOL0     H65441  12.993   8.181   2.147 -3.1474 -0.2760 -1.3332
  485MOL0     H65442  13.020   8.015   2.123  2.4436 -1.4492 -2.5267
  485MOL0     H65443  13.209   8.255   2.088  1.8918 -0.7231  0.5385
  485MOL0     H65444  13.212   8.140   2.223  1.9730 -0.1830 -0.5470
  485MOL0     H65445  13.296   8.081   1.926  0.2043 -3.0154 -0.6068
  485MOL0     H65446  13.263   7.958   2.053 -0.0982  0.2639  1.1636
  485MOL0     H65447  13.431   8.083   2.199  0.6116  1.9840  0.0484
  485MOL0     H65448  13.482   8.176   2.058  1.0790 -1.0452 -1.4643
  485MOL0     H65449  13.614   7.975   2.125  0.5678  0.9233 -0.5929
  485MOL0     H65450  13.483   7.891   2.043 -2.5277  1.5646 -2.6999
  485MOL0     H65451  13.639   8.103   1.912 -2.2364  1.0007 -0.4459
  485MOL0     H65452  13.503   8.025   1.838  1.1905  0.7249 -0.4863
  485MOL0     H65453  13.777   7.919   1.875  0.4852 -0.8178  2.1960
  485MOL0     H65454  13.644   7.800   1.889 -0.2692 -1.1216 -2.9144
  485MOL0     H65455  12.824   8.458   2.047 -1.1373  0.6839  0.1903
  485MOL0     H65456  12.612   8.553   1.952 -1.9781 -1.7322  1.1619
  485MOL0     H65457  12.158   8.591   1.896 -0.5703 -3.4451  0.0240
  485MOL0     H65458  11.986   8.711   1.798 -0.6962 -2.5181  0.1572
  485MOL0     H65459  10.602   8.994   0.558  1.5961 -0.2726  0.3629
  485MOL0     H65460  10.380   9.082   0.609 -1.9033 -0.2378  2.2399
  485MOL0     H65461  10.217   9.519   0.870  0.8825 -0.5417  0.6753
  485MOL0     H65462  10.003   9.634   0.895 -1.9415  0.0120  0.5964
  485MOL0     H65463   9.676   9.436   1.124 -1.8095 -0.7321  0.2673
  485MOL0     H65464   9.678   9.352   0.971 -1.4015 -0.0695 -1.2677
  485MOL0     H65465   9.583   9.642   0.987 -2.2323  0.1004  0.9204
  485MOL0     H65466   9.465   9.515   1.021 -0.7373 -1.5362 -1.2747
  485MOL0     H65467   9.490   9.413   0.806 -0.9732 -0.2684  1.3419
  485MOL0     H65468   9.621   9.529   0.769  0.0309 -2.8735  0.9508
  485MOL0     H65469   9.470   9.711   0.779 -0.6545 -0.0740  0.5089
  485MOL0     H65470   9.405   9.583   0.663 -3.1776 -0.0490  0.8303
  485MOL0     H65471   9.085   9.600   0.921  1.5860 -4.0551  2.6654
  485MOL0     H65472   9.838   9.285   1.091 -0.9924 -0.0879 -1.7007
  485MOL0     H65473  10.123   9.117   1.150  3.4753  0.2143 -3.6155
  485MOL0     H65474   9.945   9.101   1.100  0.2066  1.8862  1.6491
  485MOL0     H65475  10.080   9.061   0.992 -0.7737 -0.0099 -1.0733
  486MOL0     O65476   5.245  10.761   0.165  0.5395 -0.1566 -0.6114
  486MOL0     C65477   5.243  10.878   0.130 -0.1773  0.4510 -0.0789
  486MOL0     O65478   5.348  10.947   0.077 -0.8115  0.3215 -0.3510
  486MOL0     C65479   5.461  10.876   0.065 -0.9007 -0.3614  0.3938
  486MOL0     C65480   5.471  10.785  -0.043  0.4182  0.2417 -0.1658
  486MOL0     C65481   5.591  10.709  -0.062 -0.3892 -0.0700 -0.9286
  486MOL0     C65482   5.700  10.730   0.032 -0.9555  0.2637 -0.6297
  486MOL0     O65483   5.824  10.657   0.026 -0.4793 -0.0501 -0.0661
  486MOL0     C65484   5.912  10.698  -0.087  0.1656 -0.6095 -0.0060
  486MOL0     C65485   6.035  10.606  -0.088  0.5220 -0.2831  0.4635
  486MOL0     C65486   6.009  10.455  -0.088 -0.6922  0.3175  0.6713
  486MOL0     C65487   6.144  10.382  -0.090 -0.1558 -0.2981  1.3587
  486MOL0     C65488   6.127  10.227  -0.095  0.5221 -0.0061 -0.1358
  486MOL0     C65489   6.102  10.166  -0.238 -0.8533 -0.3785 -0.2968
  486MOL0     C65490   6.214  10.176  -0.343 -0.3354  0.2201  0.7604
  486MOL0     C65491   6.171  10.108  -0.483  0.0746  0.6450  0.9784
  486MOL0     N65492   6.284  10.102  -0.572 -0.1215 -0.5090  0.6232
  486MOL0     C65493   6.395  10.022  -0.574 -0.8874 -0.3806 -0.7182
  486MOL0     C65494   6.480  10.076  -0.669  0.6090 -0.5993  0.7026
  486MOL0     C65495   6.610  10.022  -0.717  0.9102  0.2241  0.1779
  486MOL0     C65496   6.711  10.107  -0.645 -0.2091 -0.4445  0.6905
  486MOL0     C65497   6.844  10.050  -0.689 -0.1520 -1.3311 -0.7975
  486MOL0     C65498   6.961  10.118  -0.607  0.8388 -0.0911  0.5726
  486MOL0     O65499   6.961  10.258  -0.632  0.5692  0.1107 -0.5664
  486MOL0     C65500   7.069  10.332  -0.595 -0.2252 -0.4827 -0.2278
  486MOL0     C65501   7.087  10.452  -0.662  0.5889 -0.1989 -0.4114
  486MOL0     C65502   7.209  10.516  -0.658 -0.1310  0.3575  0.1010
  486MOL0     C65503   7.313  10.471  -0.576  0.2448  0.3357  0.1139
  486MOL0     C65504   7.443  10.528  -0.571 -0.0657 -0.5993 -0.0124
  486MOL0     O65505   7.527  10.491  -0.470  0.6173 -0.6721 -0.0373
  486MOL0     C65506   7.641  10.561  -0.446 -0.7918  0.6882 -0.4686
  486MOL0     C65507   7.729  10.600  -0.545  0.6599  0.6884 -0.3047
  486MOL0     C65508   7.862  10.628  -0.509 -0.1883 -0.3782  0.1780
  486MOL0     C65509   7.914  10.639  -0.381  1.3185 -0.7556 -0.3249
  486MOL0     O65510   8.039  10.686  -0.346 -0.2907  0.8780  0.2300
  486MOL0     C65511   8.128  10.725  -0.456  0.1517  0.7269 -0.1598
  486MOL0     C65512   8.255  10.774  -0.390  0.0218  0.6156 -0.6890
  486MOL0     C65513   8.234  10.909  -0.330  0.6805 -0.7394 -0.0324
  486MOL0     C65514   8.367  10.960  -0.286 -0.4661 -0.2148 -0.3730
  486MOL0     C65515   8.377  11.101  -0.227 -0.5368  0.0455  0.1156
  486MOL0     C65516   8.370  11.218  -0.329 -1.1965 -0.4271 -0.4143
  486MOL0     C65517   8.418  11.350  -0.271  0.9130 -0.1196  0.0205
  486MOL0     C65518   8.404  11.452  -0.382  0.2294  0.3133 -0.0645
  486MOL0    Cl65519   8.472  11.614  -0.347  0.0943  0.3111 -0.3081
  486MOL0     C65520   7.830  10.608  -0.279 -0.1541 -0.3764 -0.2962
  486MOL0     C65521   7.705  10.561  -0.315 -0.2536  0.4879  0.5282
  486MOL0     O65522   7.458  10.628  -0.642 -0.1064 -0.6251  0.7249
  486MOL0     C65523   7.296  10.351  -0.507  0.6892 -0.6368 -0.3397
  486MOL0     C65524   7.177  10.283  -0.513 -0.7790 -1.2804 -0.4239
  486MOL0     N65525   6.414  10.185  -0.730  0.4268 -0.8411 -0.2370
  486MOL0     N65526   6.302  10.201  -0.671 -0.2506 -0.5287  0.4671
  486MOL0     C65527   5.687  10.834   0.126 -1.0574 -0.6253  0.2747
  486MOL0     C65528   5.574  10.908   0.142  1.2241 -0.3972  0.1887
  486MOL0     C65529   5.124  10.969   0.124 -0.1840  0.3947  0.3686
  486MOL0     C65530   5.142  11.110   0.136  0.0967  0.6596 -0.7468
  486MOL0     C65531   5.035  11.195   0.120 -0.0925 -0.0779 -0.8176
  486MOL0     C65532   4.905  11.149   0.100  0.5708 -0.0869 -0.1013
  486MOL0     O65533   4.796  11.229   0.082  0.3027  0.0498  0.0776
  486MOL0     C65534   4.803  11.368   0.131  0.7388 -0.9896  0.3864
  486MOL0     C65535   4.681  11.452   0.120  0.2235 -0.7107  0.6132
  486MOL0     C65536   4.574  11.384   0.195 -0.1896  0.9377  0.6130
  486MOL0     C65537   4.496  11.294   0.101  0.1867  0.0963 -0.6600
  486MOL0     C65538   4.367  11.349   0.064 -0.5954  0.2127  0.6112
  486MOL0     C65539   4.272  11.407   0.008  0.6393  0.0295  0.6668
  486MOL0     C65540   4.886  11.013   0.096  0.1817  0.3251  0.4430
  486MOL0     C65541   4.990  10.924   0.102  0.0024  1.2072  0.4632
  486MOL0     C65542   4.954  10.785   0.053  0.5875  0.5530 -0.4464
  486MOL0     H65543   5.387  10.779  -0.112  2.0071  0.4665 -2.2157
  486MOL0     H65544   5.612  10.641  -0.144 -1.4671 -0.0646 -1.2256
  486MOL0     H65545   5.845  10.692  -0.174 -0.0584 -0.3811  0.1511
  486MOL0     H65546   5.933  10.804  -0.074 -1.6305 -0.5222  3.0501
  486MOL0     H65547   6.086  10.629   0.006 -0.9989 -3.2556  2.1656
  486MOL0     H65548   6.099  10.632  -0.172 -1.1947 -3.0321 -1.8975
  486MOL0     H65549   5.964  10.433  -0.185  0.0140 -2.4098  0.8876
  486MOL0     H65550   5.944  10.426  -0.005 -1.8973  1.6528  0.2348
  486MOL0     H65551   6.200  10.421  -0.176  0.8777 -0.0042  2.1406
  486MOL0     H65552   6.190  10.416   0.003 -0.3022  2.3632  0.5371
  486MOL0     H65553   6.213  10.172  -0.057  0.6933  1.0367  1.0442
  486MOL0     H65554   6.035  10.201  -0.041 -0.8656 -0.3514 -2.5111
  486MOL0     H65555   6.095  10.059  -0.216 -4.2091 -0.0503  0.8300
  486MOL0     H65556   6.011  10.204  -0.285  0.8334  0.4091 -3.1259
  486MOL0     H65557   6.306  10.124  -0.314 -0.4033  0.8777  2.2496
  486MOL0     H65558   6.231  10.282  -0.362 -1.9014  0.7738  2.1528
  486MOL0     H65559   6.116  10.014  -0.469 -2.4638  1.7390 -0.8915
  486MOL0     H65560   6.099  10.173  -0.534  0.5357  0.7560  0.4632
  486MOL0     H65561   6.410   9.925  -0.527 -1.0484 -0.5210 -0.9579
  486MOL0     H65562   6.608   9.914  -0.700 -2.9051  0.2557  0.8581
  486MOL0     H65563   6.626  10.049  -0.822 -2.4755  0.6492 -0.3534
  486MOL0     H65564   6.708  10.208  -0.688  0.7645  0.1775  2.0008
  486MOL0     H65565   6.699  10.099  -0.536 -0.7871 -1.3772  0.5684
  486MOL0     H65566   6.848  10.073  -0.795 -1.5105  2.7259 -0.1370
  486MOL0     H65567   6.844   9.947  -0.652 -0.0037 -0.7415  0.9603
  486MOL0     H65568   7.061  10.080  -0.632 -0.2529 -2.0239 -1.1754
  486MOL0     H65569   6.933  10.094  -0.504  2.3678 -2.0650  0.6102
  486MOL0     H65570   7.003  10.482  -0.724  2.1926  3.8158 -0.9536
  486MOL0     H65571   7.217  10.602  -0.723  1.3383  1.1798  1.3172
  486MOL0     H65572   7.710  10.598  -0.652  0.3852 -2.8501 -0.3309
  486MOL0     H65573   7.926  10.644  -0.595  0.0031 -0.6886  0.2600
  486MOL0     H65574   8.154  10.634  -0.512 -0.7930 -0.4961  1.3113
  486MOL0     H65575   8.088  10.801  -0.523 -3.3123  0.1931  1.1064
  486MOL0     H65576   8.282  10.694  -0.320 -2.1584  0.5274  0.1441
  486MOL0     H65577   8.325  10.784  -0.473 -1.7553  1.5801 -2.1568
  486MOL0     H65578   8.183  10.970  -0.405 -1.7117 -0.3172  1.8179
  486MOL0     H65579   8.166  10.884  -0.249  0.4574 -0.8642 -0.2585
  486MOL0     H65580   8.448  10.946  -0.359 -0.9485 -2.3011 -0.5682
  486MOL0     H65581   8.399  10.888  -0.211 -1.3956 -1.3654 -1.0402
  486MOL0     H65582   8.473  11.110  -0.174 -1.5639  1.2996  1.8491
  486MOL0     H65583   8.291  11.118  -0.162 -0.3424 -4.7810  2.0560
  486MOL0     H65584   8.435  11.201  -0.415  2.3185  0.6752  1.8037
  486MOL0     H65585   8.268  11.228  -0.368 -0.6841  0.9419 -1.4896
  486MOL0     H65586   8.521  11.334  -0.235  0.9021  0.5418  0.3606
  486MOL0     H65587   8.352  11.384  -0.190 -1.3880  4.3953 -3.3087
  486MOL0     H65588   8.451  11.424  -0.477 -0.2905  1.5676 -0.7292
  486MOL0     H65589   8.299  11.460  -0.412  0.7073 -2.3214 -3.0448
  486MOL0     H65590   7.863  10.608  -0.176 -1.2799  0.5413  0.0996
  486MOL0     H65591   7.644  10.516  -0.238 -1.4105 -1.1075 -1.2297
  486MOL0     H65592   7.373  10.309  -0.443  1.1839  0.6609 -0.0466
  486MOL0     H65593   7.168  10.199  -0.445  2.5843  0.5839  2.7175
  486MOL0     H65594   5.777  10.852   0.183 -1.6418  3.0865  0.2234
  486MOL0     H65595   5.568  10.982   0.221  3.2546 -3.6546  3.6785
  486MOL0     H65596   5.232  11.159   0.173 -0.9591  1.3160  1.0946
  486MOL0     H65597   5.061  11.301   0.122 -1.4061  0.3471  3.9767
  486MOL0     H65598   4.877  11.421   0.069 -0.0932 -0.4037 -0.1191
  486MOL0     H65599   4.829  11.371   0.237 -0.9716 -0.1268  0.8140
  486MOL0     H65600   4.663  11.468   0.013 -0.6167 -0.9123  0.7177
  486MOL0     H65601   4.711  11.553   0.150  2.0054 -0.5645 -1.4521
  486MOL0     H65602   4.499  11.457   0.228 -0.7924 -0.1973  1.8600
  486MOL0     H65603   4.615  11.340   0.286 -0.5168 -1.0789 -0.1684
  486MOL0     H65604   4.557  11.280   0.011  1.6183  3.8202 -0.4246
  486MOL0     H65605   4.486  11.202   0.159 -0.6912  0.5199 -0.1142
  486MOL0     H65606   4.190  11.438  -0.054  1.0340 -0.2160  0.0145
  486MOL0     H65607   4.786  10.976   0.076 -1.3157  3.1898  2.0172
  486MOL0     H65608   5.040  10.734   0.009 -0.2400 -0.8089 -0.5670
  486MOL0     H65609   4.914  10.720   0.132  0.5903  1.4014  0.2717
  486MOL0     H65610   4.880  10.802  -0.026  1.1676  0.5376 -0.9926
  487MOL0     O65611   8.811   3.854   2.355 -0.0900 -0.4806  0.1465
  487MOL0     C65612   8.812   3.843   2.231 -0.3903 -0.4193  0.7018
  487MOL0     O65613   8.817   3.945   2.141  0.2945 -0.0582  0.1464
  487MOL0     C65614   8.852   4.067   2.172 -0.3920 -0.1627 -0.6059
  487MOL0     C65615   8.953   4.103   2.262 -0.6910 -0.7349  0.5677
  487MOL0     C65616   8.981   4.240   2.295 -0.2885 -0.3402 -1.2352
  487MOL0     C65617   8.904   4.342   2.231  0.5636 -0.4874 -0.0807
  487MOL0     O65618   8.942   4.467   2.268 -0.5717 -0.1263  0.2291
  487MOL0     C65619   8.852   4.571   2.217  0.8283  0.2605  0.4995
  487MOL0     C65620   8.903   4.707   2.273 -0.1723 -1.3634 -0.2934
  487MOL0     C65621   8.797   4.830   2.289 -0.4780 -0.0765 -0.4370
  487MOL0     C65622   8.714   4.811   2.418  0.2224  0.1563  0.1100
  487MOL0     C65623   8.632   4.938   2.474 -0.7773 -0.7145 -1.0379
  487MOL0     C65624   8.521   4.979   2.380  0.2206  0.1683  0.1500
  487MOL0     C65625   8.404   5.076   2.431 -0.0257 -0.2012 -1.0427
  487MOL0     C65626   8.325   5.134   2.315 -0.9302 -0.0388 -0.0282
  487MOL0     N65627   8.402   5.233   2.238  0.4037 -0.3515 -0.2985
  487MOL0     C65628   8.464   5.346   2.292 -0.5993  0.2712  1.2210
  487MOL0     C65629   8.533   5.399   2.185 -0.3616 -0.7484  0.2100
  487MOL0     C65630   8.592   5.537   2.168  0.0228  0.1512 -0.7022
  487MOL0     C65631   8.561   5.615   2.043  0.0539  0.3355 -0.2874
  487MOL0     C65632   8.418   5.680   2.056 -0.3213 -0.2024 -0.7365
  487MOL0     C65633   8.360   5.714   1.921 -0.5108 -0.0019  1.0397
  487MOL0     O65634   8.454   5.788   1.828 -0.0722  1.2670  0.1699
  487MOL0     C65635   8.485   5.735   1.703 -0.1241  1.6883 -0.8119
  487MOL0     C65636   8.624   5.732   1.666  0.0903 -0.2576  0.0769
  487MOL0     C65637   8.658   5.680   1.544  0.2630 -0.1751 -0.6310
  487MOL0     C65638   8.565   5.606   1.465  0.3724  0.1289 -1.1996
  487MOL0     C65639   8.605   5.559   1.334  0.0930  0.7994  0.1730
  487MOL0     O65640   8.711   5.627   1.276 -0.5665 -0.1857 -0.3415
  487MOL0     C65641   8.772   5.600   1.152  0.3589  0.0729  0.7750
  487MOL0     C65642   8.780   5.474   1.079 -1.2153  0.2336 -1.0062
  487MOL0     C65643   8.848   5.474   0.963  0.7972 -0.8930  1.0580
  487MOL0     C65644   8.896   5.599   0.904 -0.1850 -0.5621 -0.5194
  487MOL0     O65645   8.968   5.612   0.789 -0.4019 -1.1565  0.2371
  487MOL0     C65646   8.958   5.522   0.684 -0.1885 -0.3772  0.4779
  487MOL0     C65647   9.045   5.577   0.572 -0.3271  0.8554 -0.6255
  487MOL0     C65648   9.041   5.492   0.451  0.0165  0.9807  0.2865
  487MOL0     C65649   9.106   5.357   0.461  0.6042 -0.3120 -0.0493
  487MOL0     C65650   9.137   5.279   0.335  0.0266 -0.4019  0.4522
  487MOL0     C65651   9.012   5.252   0.262  0.0357 -0.7763 -0.3628
  487MOL0     C65652   9.049   5.197   0.121  0.0523  0.8911  0.3700
  487MOL0     C65653   8.924   5.154   0.054  1.0363 -0.1050  0.0211
  487MOL0    Cl65654   8.792   5.283   0.038 -0.1445  0.4676  0.3290
  487MOL0     C65655   8.893   5.718   0.979  0.7387  0.1493  0.1704
  487MOL0     C65656   8.826   5.717   1.099 -1.0086 -0.0459  0.4956
  487MOL0     O65657   8.537   5.469   1.280 -0.0777 -0.6062 -0.0089
  487MOL0     C65658   8.431   5.587   1.512  0.1430 -0.4503 -0.8046
  487MOL0     C65659   8.385   5.665   1.625 -0.4729  0.5648  0.4123
  487MOL0     N65660   8.525   5.300   2.089 -0.1927 -0.2013 -0.5431
  487MOL0     N65661   8.449   5.198   2.115 -0.3559  0.0422 -0.5319
  487MOL0     C65662   8.792   4.310   2.147  0.4916 -0.2072  0.8113
  487MOL0     C65663   8.770   4.172   2.122  1.2341  0.1484  0.0236
  487MOL0     C65664   8.801   3.708   2.174 -0.5016 -0.2124  0.3181
  487MOL0     C65665   8.884   3.673   2.070 -0.0987 -0.0086 -0.4124
  487MOL0     C65666   8.894   3.536   2.031 -0.2313 -0.3957  0.1120
  487MOL0     C65667   8.814   3.440   2.091 -0.3043  0.2551  0.2182
  487MOL0     O65668   8.813   3.305   2.054 -0.3050  1.4361  0.3337
  487MOL0     C65669   8.741   3.200   2.122 -0.4017 -1.0010 -0.1136
  487MOL0     C65670   8.797   3.061   2.084  1.0975 -0.0096  0.4772
  487MOL0     C65671   8.754   2.959   2.183 -0.1069 -0.4448  0.0575
  487MOL0     C65672   8.748   2.811   2.129  0.3234 -1.0240  0.2871
  487MOL0     C65673   8.872   2.773   2.064 -0.0845  1.0436 -0.4624
  487MOL0     C65674   8.981   2.759   2.004  0.0046 -0.0717 -0.4157
  487MOL0     C65675   8.731   3.480   2.190  0.5591  0.6945  0.0380
  487MOL0     C65676   8.724   3.614   2.228 -0.1393 -0.4028 -0.6005
  487MOL0     C65677   8.611   3.649   2.328 -0.4858  0.3119 -0.0448
  487MOL0     H65678   9.020   4.026   2.298  0.6712 -0.5370 -1.3345
  487MOL0     H65679   9.062   4.264   2.364 -1.2382 -1.8298  0.4667
  487MOL0     H65680   8.840   4.576   2.108 -1.1000  1.6975  0.7479
  487MOL0     H65681   8.762   4.551   2.275 -0.6333  0.1586 -1.6795
  487MOL0     H65682   8.982   4.742   2.206  1.1114 -1.1260  1.2842
  487MOL0     H65683   8.960   4.683   2.363  2.7044  1.0040 -1.3280
  487MOL0     H65684   8.733   4.838   2.201 -2.8025  4.2211  1.3151
  487MOL0     H65685   8.850   4.926   2.290 -0.2799 -0.1877 -0.2677
  487MOL0     H65686   8.627   4.752   2.390 -2.6945  3.9129  0.4784
  487MOL0     H65687   8.780   4.761   2.490  1.5250  2.8203  0.8995
  487MOL0     H65688   8.589   4.912   2.572  0.1213 -0.2128 -0.4934
  487MOL0     H65689   8.690   5.030   2.480 -0.7842 -0.7126 -0.9954
  487MOL0     H65690   8.577   5.007   2.290  0.1365 -1.7283 -0.5267
  487MOL0     H65691   8.466   4.892   2.346 -1.0174  1.5996 -1.7241
  487MOL0     H65692   8.453   5.149   2.496  0.6234 -2.8819  1.7318
  487MOL0     H65693   8.338   5.020   2.497  1.9661 -0.4252  0.9007
  487MOL0     H65694   8.306   5.044   2.256 -1.1061 -0.9923  1.4340
  487MOL0     H65695   8.233   5.177   2.356 -1.0971  0.8367 -1.2868
  487MOL0     H65696   8.444   5.389   2.390 -2.1033 -1.5320  1.7650
  487MOL0     H65697   8.543   5.591   2.250 -1.4677  1.0160 -2.1200
  487MOL0     H65698   8.700   5.548   2.180 -0.3239  1.9533  1.5619
  487MOL0     H65699   8.627   5.702   2.030  0.2167  0.0985 -1.1194
  487MOL0     H65700   8.562   5.549   1.956 -0.8760 -2.2055  1.5007
  487MOL0     H65701   8.422   5.765   2.124  1.2011 -2.0768  1.6709
  487MOL0     H65702   8.343   5.617   2.104  1.2171 -2.2674 -0.9117
  487MOL0     H65703   8.273   5.780   1.933  0.2464  0.5938  4.2604
  487MOL0     H65704   8.326   5.621   1.875  0.8868 -0.1742  0.3175
  487MOL0     H65705   8.701   5.790   1.716 -1.4558  1.2938  0.7679
  487MOL0     H65706   8.760   5.700   1.513  0.1938 -0.6515 -1.1877
  487MOL0     H65707   8.744   5.381   1.120  0.1458  0.6418  1.3209
  487MOL0     H65708   8.872   5.388   0.901  0.9643 -0.8645  1.0808
  487MOL0     H65709   8.981   5.418   0.707  1.1918  0.0926  1.3051
  487MOL0     H65710   8.854   5.524   0.650 -0.7329  0.3034  2.0974
  487MOL0     H65711   9.022   5.679   0.542  0.0041  1.3486  0.7069
  487MOL0     H65712   9.149   5.583   0.605  0.8880  1.6713 -4.1633
  487MOL0     H65713   8.934   5.475   0.433  0.1640 -1.7519  1.4886
  487MOL0     H65714   9.081   5.559   0.374 -0.0049  2.1100  1.2427
  487MOL0     H65715   9.034   5.288   0.506  0.4081 -3.4569 -4.5105
  487MOL0     H65716   9.203   5.356   0.512  0.6316  1.3169 -0.0402
  487MOL0     H65717   9.179   5.182   0.365  1.7144 -0.4316 -1.7399
  487MOL0     H65718   9.204   5.325   0.261 -1.7453  1.3573 -0.1273
  487MOL0     H65719   8.951   5.173   0.308 -1.5124 -0.2681 -1.4418
  487MOL0     H65720   8.946   5.339   0.259 -0.2412 -1.0203 -2.4743
  487MOL0     H65721   9.117   5.111   0.109 -0.9712  0.4245 -3.5184
  487MOL0     H65722   9.080   5.283   0.061 -0.5231 -0.4215 -1.9656
  487MOL0     H65723   8.951   5.109  -0.042 -0.4837 -0.4501 -0.2589
  487MOL0     H65724   8.885   5.071   0.113  2.5678 -1.8460 -1.2714
  487MOL0     H65725   8.939   5.804   0.931  4.1797 -1.3305  0.4880
  487MOL0     H65726   8.831   5.809   1.156  2.7353 -0.0825  0.4844
  487MOL0     H65727   8.370   5.526   1.447  2.1214 -0.1020 -3.1401
  487MOL0     H65728   8.285   5.656   1.667 -2.4468  2.4893 -3.4167
  487MOL0     H65729   8.731   4.379   2.090  0.0442 -1.8659 -0.8030
  487MOL0     H65730   8.690   4.147   2.053  0.9447  2.2632 -0.4741
  487MOL0     H65731   8.952   3.743   2.024  0.0819  1.2749  1.6788
  487MOL0     H65732   8.967   3.499   1.959  1.2453 -0.5381  1.6351
  487MOL0     H65733   8.635   3.204   2.096 -0.8793  1.7591  1.8491
  487MOL0     H65734   8.746   3.222   2.229 -0.5821  3.1898 -0.8020
  487MOL0     H65735   8.906   3.063   2.068  0.9359 -2.7069 -1.6688
  487MOL0     H65736   8.758   3.034   1.986  3.5096  0.5447 -0.7305
  487MOL0     H65737   8.653   2.989   2.213  0.7732  1.3992  1.3970
  487MOL0     H65738   8.816   2.970   2.272 -2.4614  0.0049  1.7372
  487MOL0     H65739   8.734   2.732   2.203  1.3129  0.4511  2.1206
  487MOL0     H65740   8.675   2.811   2.047  0.1013  1.7866  0.4050
  487MOL0     H65741   9.071   2.751   1.947  1.0511  0.4565  1.0952
  487MOL0     H65742   8.672   3.409   2.248  1.9807  1.3324  2.4390
  487MOL0     H65743   8.523   3.585   2.313  0.1699 -0.3123 -1.3634
  487MOL0     H65744   8.646   3.633   2.430  0.4217 -1.4231 -0.5902
  487MOL0     H65745   8.567   3.750   2.328 -1.5068 -0.0554  2.3799
  488MOL0     O65746  10.208   5.285   7.255  0.1617  0.5929  0.4214
  488MOL0     C65747  10.231   5.405   7.231 -0.1932  0.0793  0.2884
  488MOL0     O65748  10.344   5.475   7.275 -0.7355  0.1713  0.5602
  488MOL0     C65749  10.440   5.411   7.345  0.7346  0.2862 -0.6955
  488MOL0     C65750  10.407   5.324   7.457 -0.6141  0.0264 -0.7713
  488MOL0     C65751  10.499   5.253   7.532  0.5143 -0.3139 -0.0719
  488MOL0     C65752  10.631   5.260   7.478  0.6907  0.6952 -1.3528
  488MOL0     O65753  10.733   5.193   7.552  0.5013  0.6645 -0.4254
  488MOL0     C65754  10.705   5.049   7.547 -0.4121  1.0275 -0.5450
  488MOL0     C65755  10.841   4.982   7.537 -0.1965 -0.1013  0.2647
  488MOL0     C65756  10.905   4.985   7.674 -0.6957  0.8316  0.9368
  488MOL0     C65757  11.039   4.909   7.691 -0.2892  0.3399  0.3352
  488MOL0     C65758  11.144   4.986   7.792  0.7631  0.7569 -0.4600
  488MOL0     C65759  11.097   4.967   7.943 -0.1118 -0.3678  0.4550
  488MOL0     C65760  11.113   4.823   8.002 -0.6187 -0.0989  0.4275
  488MOL0     C65761  11.260   4.769   7.975  0.9296  0.2064  0.1758
  488MOL0     N65762  11.293   4.655   8.065 -0.1530  0.2677  0.2705
  488MOL0     C65763  11.373   4.668   8.178  0.8290  0.5494 -0.4054
  488MOL0     C65764  11.375   4.540   8.222 -0.7449  0.4769 -0.1133
  488MOL0     C65765  11.454   4.481   8.336 -0.3464 -0.2226 -0.2044
  488MOL0     C65766  11.605   4.465   8.324  0.2264 -0.0214  0.3552
  488MOL0     C65767  11.669   4.376   8.432  0.4073  0.0448  0.0057
  488MOL0     C65768  11.665   4.447   8.567 -0.5197  0.5547  0.0578
  488MOL0     O65769  11.724   4.362   8.661 -0.4008  0.1073  0.5127
  488MOL0     C65770  11.864   4.369   8.697 -0.9972  0.0489  0.3243
  488MOL0     C65771  11.903   4.309   8.822 -0.5389 -0.6584  0.2604
  488MOL0     C65772  12.038   4.290   8.850 -0.0846  0.1193  0.2152
  488MOL0     C65773  12.134   4.330   8.758 -0.1761 -0.4179 -0.2136
  488MOL0     C65774  12.272   4.338   8.801 -0.6156  0.8140 -0.6342
  488MOL0     O65775  12.360   4.410   8.722  0.6377 -0.4140  0.0156
  488MOL0     C65776  12.490   4.437   8.763  0.4164 -0.7892 -0.5618
  488MOL0     C65777  12.539   4.568   8.781  0.5374 -0.6235  0.1521
  488MOL0     C65778  12.672   4.575   8.816  0.1778 -0.0438  0.1395
  488MOL0     C65779  12.752   4.459   8.829  0.2880  0.3303  0.5200
  488MOL0     O65780  12.877   4.475   8.879 -0.2960  0.2446  0.9811
  488MOL0     C65781  12.981   4.390   8.848  0.1869  0.6454 -0.4932
  488MOL0     C65782  13.117   4.422   8.911  0.2784  0.0183 -0.4871
  488MOL0     C65783  13.119   4.394   9.062 -1.0106  0.1720  0.6090
  488MOL0     C65784  13.097   4.528   9.127 -1.1777  0.3983 -0.4901
  488MOL0     C65785  13.076   4.519   9.280  0.4717  0.2586  0.8111
  488MOL0     C65786  13.196   4.465   9.369  0.1900  0.5185  0.1841
  488MOL0     C65787  13.167   4.490   9.512 -0.1952  0.4141 -0.2104
  488MOL0     C65788  13.250   4.400   9.598 -0.5557  0.2888  0.7490
  488MOL0    Cl65789  13.216   4.395   9.778  0.0268 -0.4801 -0.0602
  488MOL0     C65790  12.705   4.330   8.799 -0.5576  0.2918 -0.6409
  488MOL0     C65791  12.567   4.321   8.776  0.2452 -0.0418  0.7863
  488MOL0     O65792  12.311   4.266   8.897 -1.1026  0.5446  0.6138
  488MOL0     C65793  12.101   4.406   8.648 -0.1871 -0.9924  0.6665
  488MOL0     C65794  11.971   4.426   8.619  0.8175 -0.2098  0.3601
  488MOL0     N65795  11.307   4.456   8.132 -0.6054 -0.7311  0.6232
  488MOL0     N65796  11.266   4.526   8.033 -0.6844  0.4015 -0.6351
  488MOL0     C65797  10.670   5.335   7.364  0.0130  0.1756  0.2952
  488MOL0     C65798  10.569   5.412   7.296 -0.2893 -0.3796 -0.4041
  488MOL0     C65799  10.132   5.490   7.153 -0.2766  0.1180 -0.0971
  488MOL0     C65800  10.163   5.620   7.140  0.0661  0.0291  0.5668
  488MOL0     C65801  10.102   5.708   7.052 -0.5602  0.3602  0.6265
  488MOL0     C65802  10.004   5.656   6.966 -0.3667 -0.1829  0.2411
  488MOL0     O65803   9.939   5.743   6.890  0.4315  0.2715 -0.5374
  488MOL0     C65804   9.809   5.726   6.827  1.1191  0.1492  0.7821
  488MOL0     C65805   9.797   5.624   6.715  0.3859 -0.2778  0.3365
  488MOL0     C65806   9.698   5.657   6.608 -0.2564 -0.5520  0.0889
  488MOL0     C65807   9.713   5.569   6.479 -0.9790 -0.7464  0.7862
  488MOL0     C65808   9.857   5.586   6.424  0.2310  0.2893 -0.6909
  488MOL0     C65809   9.980   5.598   6.401  0.0782 -0.1665 -0.4532
  488MOL0     C65810   9.970   5.524   6.985 -0.4748  0.5034  0.8508
  488MOL0     C65811  10.030   5.438   7.071  0.3493  0.7580  0.4228
  488MOL0     C65812   9.997   5.290   7.070  0.1990  0.6514  0.0608
  488MOL0     H65813  10.302   5.314   7.483 -0.5923 -0.5647 -0.9076
  488MOL0     H65814  10.474   5.207   7.627  2.6364 -1.5319 -0.0445
  488MOL0     H65815  10.657   5.008   7.636  0.9516 -1.3492 -0.8126
  488MOL0     H65816  10.637   5.021   7.466  0.9114  0.2516 -1.4228
  488MOL0     H65817  10.897   5.042   7.465 -0.4719 -0.1804 -0.0209
  488MOL0     H65818  10.829   4.884   7.491  0.7337  1.8515 -4.7809
  488MOL0     H65819  10.833   4.946   7.747 -3.1571 -1.0552 -2.1691
  488MOL0     H65820  10.926   5.086   7.709 -0.3910  0.4467  1.8727
  488MOL0     H65821  11.019   4.808   7.728  1.8066  0.3266  1.6104
  488MOL0     H65822  11.089   4.909   7.593 -1.3728 -0.7222 -0.2434
  488MOL0     H65823  11.250   4.964   7.779  0.9433  1.5927 -0.4926
  488MOL0     H65824  11.128   5.094   7.781 -2.0181  0.7730  2.3171
  488MOL0     H65825  11.148   5.044   8.002 -1.0706  1.4562 -0.9931
  488MOL0     H65826  10.996   5.006   7.956  0.0515  0.0524  0.4824
  488MOL0     H65827  11.032   4.762   7.963  0.3110 -2.4855  1.9918
  488MOL0     H65828  11.085   4.825   8.108  0.0359  1.9239  0.6129
  488MOL0     H65829  11.265   4.735   7.871 -0.6930 -0.7780  0.3767
  488MOL0     H65830  11.323   4.855   7.998 -1.4296  1.1127  4.3198
  488MOL0     H65831  11.416   4.760   8.215 -1.0796  1.1318  0.4732
  488MOL0     H65832  11.445   4.545   8.424 -1.1582  0.4231 -0.7394
  488MOL0     H65833  11.410   4.382   8.353  2.5059 -1.6103 -0.3462
  488MOL0     H65834  11.622   4.419   8.226  0.2750  2.2875 -0.7891
  488MOL0     H65835  11.636   4.570   8.324 -2.3603  0.7947  1.1257
  488MOL0     H65836  11.775   4.362   8.413  0.5871 -0.9364  1.5419
  488MOL0     H65837  11.609   4.284   8.433 -1.9252  1.4937  0.2677
  488MOL0     H65838  11.557   4.458   8.577 -1.0207 -2.7223 -0.7349
  488MOL0     H65839  11.714   4.545   8.567 -0.2325  0.4182 -1.0810
  488MOL0     H65840  11.817   4.305   8.888 -0.4348 -0.8811  0.3848
  488MOL0     H65841  12.068   4.242   8.942  2.5011 -0.2656 -0.7324
  488MOL0     H65842  12.475   4.650   8.750 -0.0012 -1.5721 -1.3118
  488MOL0     H65843  12.726   4.669   8.826  0.1910  0.2221 -1.9994
  488MOL0     H65844  12.959   4.292   8.890  0.3798 -0.5483 -2.9556
  488MOL0     H65845  12.995   4.375   8.740  0.0468  3.7850 -1.0351
  488MOL0     H65846  13.198   4.363   8.866  1.2878 -0.1316  1.4113
  488MOL0     H65847  13.137   4.528   8.892 -2.8329  0.3534 -2.4881
  488MOL0     H65848  13.044   4.319   9.087 -0.2681  0.1424  3.0308
  488MOL0     H65849  13.215   4.357   9.101 -0.3003  3.6677  2.6169
  488MOL0     H65850  13.021   4.581   9.069 -0.6990 -0.4332 -1.9203
  488MOL0     H65851  13.183   4.596   9.120 -0.2571 -0.5988  0.6057
  488MOL0     H65852  12.991   4.452   9.300 -0.8524  1.7003  0.2834
  488MOL0     H65853  13.046   4.619   9.313  1.2988  0.6523  0.3958
  488MOL0     H65854  13.200   4.359   9.342 -2.4886  0.5266 -0.5780
  488MOL0     H65855  13.285   4.512   9.327 -0.8781  0.4684 -2.3786
  488MOL0     H65856  13.059   4.470   9.516  0.0824 -1.1306  0.1804
  488MOL0     H65857  13.198   4.590   9.546  1.5801 -0.7357  1.7667
  488MOL0     H65858  13.252   4.296   9.565  1.4259  0.4598  0.1515
  488MOL0     H65859  13.355   4.423   9.577 -0.3589 -1.3166 -0.1674
  488MOL0     H65860  12.776   4.248   8.801 -1.7932 -0.7949 -0.1628
  488MOL0     H65861  12.517   4.226   8.758 -4.7367  2.1860  0.9816
  488MOL0     H65862  12.164   4.477   8.595 -3.8376 -0.2400 -3.1871
  488MOL0     H65863  11.945   4.484   8.531 -2.8296  1.2179  2.1993
  488MOL0     H65864  10.773   5.333   7.330 -0.2786  0.5204 -0.6697
  488MOL0     H65865  10.582   5.470   7.204 -1.4677  0.1404 -0.2656
  488MOL0     H65866  10.240   5.668   7.199  0.5590 -1.4286  1.1668
  488MOL0     H65867  10.136   5.809   7.030  3.7665 -1.0363 -0.1339
  488MOL0     H65868   9.795   5.822   6.775  2.0488 -0.2506 -0.2572
  488MOL0     H65869   9.735   5.720   6.907  0.1624  2.0693  0.1155
  488MOL0     H65870   9.773   5.526   6.756 -1.5941  0.0055 -0.0055
  488MOL0     H65871   9.895   5.634   6.668 -0.8638 -0.5844 -2.5598
  488MOL0     H65872   9.710   5.759   6.572 -4.1638 -0.6184 -1.9240
  488MOL0     H65873   9.594   5.655   6.642 -0.1755 -0.8696  0.3206
  488MOL0     H65874   9.702   5.465   6.510  1.4312 -1.8137 -1.5599
  488MOL0     H65875   9.640   5.609   6.408 -1.7223  3.6091  3.6007
  488MOL0     H65876  10.085   5.590   6.384 -0.1226 -3.7974 -0.7678
  488MOL0     H65877   9.899   5.478   6.918  0.7057  1.1126 -0.8705
  488MOL0     H65878  10.085   5.237   7.031 -0.3557  0.2872 -0.7132
  488MOL0     H65879   9.981   5.265   7.175 -1.1962 -0.2695 -0.3496
  488MOL0     H65880   9.902   5.260   7.026  1.7966 -5.4577 -0.1459
  489MOL0     O65881   8.871   2.050   5.641 -0.4120 -0.8619 -0.5985
  489MOL0     C65882   8.757   2.098   5.617 -0.0268  0.4469 -0.7815
  489MOL0     O65883   8.739   2.216   5.556  0.6391  0.2609 -0.2269
  489MOL0     C65884   8.821   2.327   5.568  0.0133  0.2162 -0.4181
  489MOL0     C65885   8.788   2.444   5.505 -0.2454  0.7992 -0.0371
  489MOL0     C65886   8.857   2.570   5.520  0.0224  0.6390 -0.7225
  489MOL0     C65887   8.963   2.570   5.600  0.3282  0.1871  0.4013
  489MOL0     O65888   9.013   2.698   5.621 -0.3135  0.3544  0.1848
  489MOL0     C65889   9.143   2.701   5.667 -0.3073 -0.2342 -0.4276
  489MOL0     C65890   9.214   2.835   5.616  0.2886  1.5563 -0.2238
  489MOL0     C65891   9.331   2.848   5.724  0.4854  0.0262 -0.2426
  489MOL0     C65892   9.443   2.745   5.706 -0.3542 -0.6264  0.1625
  489MOL0     C65893   9.542   2.761   5.822  0.7119  0.6570 -0.9545
  489MOL0     C65894   9.630   2.634   5.820  0.4323  0.2533 -0.4454
  489MOL0     C65895   9.749   2.651   5.916  0.0495 -0.0676 -0.5693
  489MOL0     C65896   9.706   2.632   6.066 -0.3022 -0.4454 -0.6019
  489MOL0     N65897   9.666   2.764   6.138  0.3053 -0.4714 -0.1790
  489MOL0     C65898   9.544   2.798   6.202 -0.4419 -0.6693 -0.6351
  489MOL0     C65899   9.570   2.926   6.251  0.8035 -1.0509 -0.1767
  489MOL0     C65900   9.474   2.996   6.345 -0.5173  0.4442  0.3822
  489MOL0     C65901   9.394   3.102   6.270  0.2403 -0.0451  0.2802
  489MOL0     C65902   9.317   3.186   6.379 -0.2288  0.6116  0.1251
  489MOL0     C65903   9.201   3.258   6.311  0.0683 -0.1805 -0.4290
  489MOL0     O65904   9.244   3.333   6.205 -0.7848  0.2695 -0.0476
  489MOL0     C65905   9.163   3.410   6.134  0.9870  0.2150 -0.3630
  489MOL0     C65906   9.021   3.437   6.165 -0.4132  1.4841 -0.1948
  489MOL0     C65907   8.942   3.518   6.081  0.2293 -0.5676 -1.2992
  489MOL0     C65908   9.003   3.596   5.978 -0.7026  0.1869  0.3510
  489MOL0     C65909   8.929   3.687   5.888  0.6874 -0.9070 -0.3591
  489MOL0     O65910   8.995   3.746   5.781 -0.0272 -0.3085 -0.5251
  489MOL0     C65911   8.921   3.830   5.699 -0.4327  0.5910  0.6193
  489MOL0     C65912   8.829   3.777   5.612  0.4098 -0.3706  0.3707
  489MOL0     C65913   8.746   3.860   5.534  0.4180 -0.6415 -0.8293
  489MOL0     C65914   8.765   4.000   5.537  0.0347  0.5442 -0.6596
  489MOL0     O65915   8.703   4.101   5.469  0.0810  0.0471 -0.0073
  489MOL0     C65916   8.563   4.067   5.452  0.2598  0.2705  0.0274
  489MOL0     C65917   8.491   4.172   5.368  0.1738 -0.9814 -0.7136
  489MOL0     C65918   8.480   4.316   5.421  0.4379 -0.2420  0.1806
  489MOL0     C65919   8.435   4.318   5.565 -0.0981  0.4705 -0.5356
  489MOL0     C65920   8.419   4.472   5.613  0.0142 -0.1815  0.2563
  489MOL0     C65921   8.285   4.534   5.576 -0.0814  0.8591  0.3760
  489MOL0     C65922   8.275   4.679   5.633 -0.3866  0.4019  0.6527
  489MOL0     C65923   8.134   4.742   5.641  0.9929  0.2682  1.2709
  489MOL0    Cl65924   8.056   4.668   5.788  0.1158  0.2202 -0.0284
  489MOL0     C65925   8.874   4.051   5.616 -0.6054 -0.0930  0.1408
  489MOL0     C65926   8.953   3.965   5.687 -0.7980  0.6175  0.0231
  489MOL0     O65927   8.809   3.697   5.910  0.6109 -0.4055 -0.8836
  489MOL0     C65928   9.139   3.566   5.942 -0.1022 -0.4617  0.1256
  489MOL0     C65929   9.212   3.473   6.020  0.8604  0.0861  0.1204
  489MOL0     N65930   9.703   2.960   6.233  1.3131 -0.1976  0.0436
  489MOL0     N65931   9.757   2.869   6.162  0.0318 -0.8697  0.5236
  489MOL0     C65932   8.997   2.454   5.671 -1.3870 -0.1056  0.7293
  489MOL0     C65933   8.933   2.333   5.643  0.5955  0.0424  0.2963
  489MOL0     C65934   8.641   2.017   5.655  0.3996  0.8146  0.2915
  489MOL0     C65935   8.609   1.904   5.573 -0.5756  0.3935 -0.3085
  489MOL0     C65936   8.501   1.820   5.614 -0.6834  1.1303  0.8412
  489MOL0     C65937   8.428   1.842   5.732 -0.2769 -0.2053  0.8820
  489MOL0     O65938   8.322   1.770   5.779 -0.1593  0.1494  0.9150
  489MOL0     C65939   8.278   1.666   5.695  1.4728  0.0520 -0.1253
  489MOL0     C65940   8.141   1.611   5.743  0.6761  0.0652  0.4914
  489MOL0     C65941   8.170   1.489   5.829 -1.2276 -0.5131  1.6286
  489MOL0     C65942   8.072   1.441   5.929  0.6168 -0.8270 -0.0926
  489MOL0     C65943   8.047   1.555   6.018 -0.3966  0.5523  0.5419
  489MOL0     C65944   7.997   1.634   6.095 -0.5402 -0.3135  0.7256
  489MOL0     C65945   8.466   1.957   5.811 -0.8849  0.1750 -0.0430
  489MOL0     C65946   8.570   2.044   5.770 -0.6385  0.4461 -0.0183
  489MOL0     C65947   8.590   2.155   5.870 -0.3845 -0.2815 -0.3376
  489MOL0     H65948   8.696   2.436   5.448  0.6051 -0.3656 -1.2945
  489MOL0     H65949   8.820   2.644   5.450  1.5057  0.5033 -1.6903
  489MOL0     H65950   9.132   2.693   5.776 -2.3602 -0.4159 -0.6015
  489MOL0     H65951   9.210   2.621   5.634 -0.3779 -0.3978 -0.1847
  489MOL0     H65952   9.141   2.916   5.607  1.2183  2.4564  0.1260
  489MOL0     H65953   9.254   2.815   5.516 -0.8735 -2.9214  0.0287
  489MOL0     H65954   9.295   2.850   5.828 -1.0316 -0.0518 -0.7364
  489MOL0     H65955   9.374   2.948   5.715 -0.8081  0.9545  2.6107
  489MOL0     H65956   9.409   2.641   5.710 -0.2954 -0.6463  0.1365
  489MOL0     H65957   9.501   2.760   5.615  2.0538 -3.7427  1.0199
  489MOL0     H65958   9.601   2.853   5.819  0.8064  0.9218  3.1332
  489MOL0     H65959   9.478   2.762   5.910  1.9822 -1.3153  0.0849
  489MOL0     H65960   9.562   2.552   5.847 -3.6212  2.7674 -2.1235
  489MOL0     H65961   9.669   2.627   5.718 -0.4173  0.1257 -0.7706
  489MOL0     H65962   9.811   2.741   5.905 -2.2410  1.7128  0.1207
  489MOL0     H65963   9.815   2.566   5.901  0.2445  0.0618 -0.4541
  489MOL0     H65964   9.624   2.561   6.079 -0.5218  0.0673  1.0303
  489MOL0     H65965   9.800   2.598   6.110  0.0434  0.4210 -0.6518
  489MOL0     H65966   9.445   2.755   6.217  0.0096 -0.6564  3.3831
  489MOL0     H65967   9.406   2.923   6.389 -0.7767 -0.3094 -1.1994
  489MOL0     H65968   9.530   3.029   6.433 -1.0567 -1.7123  1.6224
  489MOL0     H65969   9.464   3.167   6.218  0.8550  0.0028  1.1555
  489MOL0     H65970   9.325   3.057   6.198  0.3086 -1.4918  1.0685
  489MOL0     H65971   9.396   3.252   6.415  2.0255 -1.2894 -1.0565
  489MOL0     H65972   9.285   3.118   6.459  0.3934 -0.2415 -0.3275
  489MOL0     H65973   9.165   3.323   6.391  1.5258 -0.0156  0.1165
  489MOL0     H65974   9.129   3.185   6.273  1.3113 -0.6480 -1.9858
  489MOL0     H65975   8.958   3.384   6.236 -0.3694 -1.0181 -1.8874
  489MOL0     H65976   8.837   3.548   6.087  1.0778  2.8700 -1.3827
  489MOL0     H65977   8.813   3.669   5.614 -0.6312 -0.2179  0.7473
  489MOL0     H65978   8.670   3.816   5.470 -1.6057 -0.4413  1.2625
  489MOL0     H65979   8.547   3.968   5.409 -0.5499 -1.0519  3.0851
  489MOL0     H65980   8.516   4.063   5.550  0.8623 -1.4607  0.2872
  489MOL0     H65981   8.545   4.173   5.273  0.6219 -1.4115 -0.4715
  489MOL0     H65982   8.389   4.134   5.356 -0.5454  0.2097  1.1300
  489MOL0     H65983   8.572   4.374   5.407 -0.2784  0.8048 -0.4029
  489MOL0     H65984   8.409   4.383   5.372  2.2421  0.6977 -1.2941
  489MOL0     H65985   8.517   4.273   5.623 -0.6980  2.0673  1.7079
  489MOL0     H65986   8.342   4.261   5.577  1.4255 -2.3047 -1.1341
  489MOL0     H65987   8.491   4.533   5.559 -1.7578 -1.3809 -3.8782
  489MOL0     H65988   8.443   4.489   5.718 -0.7468 -2.1010  0.7930
  489MOL0     H65989   8.259   4.535   5.470 -1.5435 -3.9093  0.4669
  489MOL0     H65990   8.199   4.481   5.617 -0.7059  1.0208 -0.7051
  489MOL0     H65991   8.313   4.735   5.548 -1.7358  1.1250  0.4884
  489MOL0     H65992   8.337   4.704   5.720  0.4502 -0.3651  0.2831
  489MOL0     H65993   8.135   4.851   5.647 -1.2113  0.3964  0.3689
  489MOL0     H65994   8.081   4.713   5.550  1.1544  1.4184  0.7928
  489MOL0     H65995   8.885   4.159   5.612 -0.4134 -0.0606  1.2295
  489MOL0     H65996   9.039   4.008   5.737 -0.2592  0.4995 -0.7712
  489MOL0     H65997   9.180   3.621   5.858  1.6739  1.8710  2.3613
  489MOL0     H65998   9.317   3.459   5.998  0.5906 -0.4609 -0.8989
  489MOL0     H65999   9.078   2.455   5.743 -0.2759  1.0459 -0.4845
  489MOL0     H66000   8.985   2.254   5.696  2.0880 -0.8789 -2.3831
  489MOL0     H66001   8.674   1.874   5.491 -1.6845 -3.1222 -0.0918
  489MOL0     H66002   8.489   1.726   5.560  1.4092 -0.6695  3.2205
  489MOL0     H66003   8.354   1.588   5.690  1.7235  0.3184 -0.5443
  489MOL0     H66004   8.259   1.702   5.594 -0.3883 -0.0269  0.1652
  489MOL0     H66005   8.076   1.586   5.659  1.0661 -0.4917  0.3537
  489MOL0     H66006   8.082   1.681   5.804 -0.6905  1.2283 -2.0135
  489MOL0     H66007   8.267   1.506   5.875  0.4672  1.6621 -2.2723
  489MOL0     H66008   8.186   1.419   5.747  2.3483  3.8033 -1.8336
  489MOL0     H66009   7.971   1.429   5.887 -0.3221  1.3294  1.3971
  489MOL0     H66010   8.096   1.351   5.986  0.4262  0.2809  1.8320
  489MOL0     H66011   7.947   1.697   6.165 -1.0111 -0.0713  0.1772
  489MOL0     H66012   8.402   1.985   5.894 -2.6180  2.0193 -1.8846
  489MOL0     H66013   8.566   2.138   5.976 -0.7733 -1.4211 -0.5860
  489MOL0     H66014   8.685   2.210   5.872 -0.3665 -0.2947 -0.7102
  489MOL0     H66015   8.519   2.234   5.845  2.5419  2.2058 -1.4432
  490MOL0     O66016   4.192   2.468   1.748 -0.8861  0.6402 -0.0446
  490MOL0     C66017   4.313   2.485   1.768  0.9257 -0.3287  0.4405
  490MOL0     O66018   4.373   2.462   1.883 -0.0521 -0.5851 -0.1903
  490MOL0     C66019   4.303   2.414   1.984  0.6407 -0.8244  0.3774
  490MOL0     C66020   4.235   2.496   2.074  1.0388  1.1490  0.0506
  490MOL0     C66021   4.152   2.437   2.172 -0.1262  0.2745 -0.2116
  490MOL0     C66022   4.141   2.304   2.195 -0.1796  0.9559 -0.1737
  490MOL0     O66023   4.059   2.276   2.298  0.2179  0.1914  0.0375
  490MOL0     C66024   3.984   2.159   2.300  1.0122  0.1990  0.1832
  490MOL0     C66025   4.049   2.040   2.372 -0.7666  0.2287  0.3644
  490MOL0     C66026   4.102   2.084   2.510 -0.2712  0.7399 -0.7190
  490MOL0     C66027   4.243   2.144   2.510 -0.8240 -0.2804  0.8646
  490MOL0     C66028   4.290   2.178   2.648 -0.2769 -0.9086  0.0042
  490MOL0     C66029   4.243   2.318   2.692 -0.7646  1.0462 -0.1534
  490MOL0     C66030   4.313   2.343   2.834 -0.6153  0.7535  0.3660
  490MOL0     C66031   4.445   2.411   2.825 -0.3531 -0.4662 -0.4069
  490MOL0     N66032   4.507   2.448   2.963  0.7077 -0.3831 -0.2855
  490MOL0     C66033   4.450   2.432   3.094  0.9078 -0.3427 -0.4416
  490MOL0     C66034   4.549   2.475   3.179  0.7339 -0.8178  0.6918
  490MOL0     C66035   4.534   2.472   3.328 -0.1192 -0.5108  0.3442
  490MOL0     C66036   4.419   2.572   3.369  0.3153 -0.3698  0.6483
  490MOL0     C66037   4.455   2.716   3.324 -0.0648 -0.6467  0.3376
  490MOL0     C66038   4.352   2.824   3.373 -0.0656  1.1483  0.1595
  490MOL0     O66039   4.226   2.802   3.292 -0.9382  0.2511 -0.0580
  490MOL0     C66040   4.112   2.851   3.322  0.9286 -0.3434  0.9038
  490MOL0     C66041   4.082   2.962   3.408 -1.0196 -0.0410 -0.1418
  490MOL0     C66042   3.954   3.011   3.436  0.7263 -0.1310  0.1489
  490MOL0     C66043   3.837   2.938   3.388 -0.9087  0.0060  0.9327
  490MOL0     C66044   3.703   2.980   3.411 -0.0907  0.3229  0.4592
  490MOL0     O66045   3.685   3.076   3.513 -0.2284  0.8612  0.1752
  490MOL0     C66046   3.563   3.120   3.554  0.2648  1.2767  0.5698
  490MOL0     C66047   3.451   3.153   3.467 -0.1069  0.2417  0.0994
  490MOL0     C66048   3.328   3.189   3.523  0.5556 -0.2134 -0.6166
  490MOL0     C66049   3.307   3.197   3.661  0.3183 -0.5869  0.9534
  490MOL0     O66050   3.196   3.245   3.719  0.6674 -0.1220 -0.6077
  490MOL0     C66051   3.110   3.141   3.787  0.6894 -1.1553  0.3137
  490MOL0     C66052   3.024   3.054   3.692 -0.3588 -0.0903  0.1814
  490MOL0     C66053   2.934   3.134   3.603  0.7596  0.2739  0.3575
  490MOL0     C66054   2.892   3.052   3.483  0.4035  0.7800  0.5260
  490MOL0     C66055   2.821   3.149   3.375  0.2293 -0.1585  0.3103
  490MOL0     C66056   2.760   3.072   3.261 -0.2638 -0.4580  0.3728
  490MOL0     C66057   2.637   3.000   3.307  0.1829  0.0448  0.7354
  490MOL0     C66058   2.608   2.891   3.202  0.8218  0.3484  0.2819
  490MOL0    Cl66059   2.539   2.955   3.052 -0.0187  0.2755  0.1401
  490MOL0     C66060   3.407   3.157   3.747  0.0495 -0.4010 -0.6474
  490MOL0     C66061   3.530   3.108   3.688  0.7793  0.3351  0.3098
  490MOL0     O66062   3.616   2.943   3.345  0.3103  0.4694 -1.3415
  490MOL0     C66063   3.870   2.817   3.315  0.2367 -0.2535 -0.3966
  490MOL0     C66064   4.004   2.776   3.270  0.5613  0.0638 -0.6820
  490MOL0     N66065   4.654   2.518   3.107 -0.6698 -0.1210  0.1439
  490MOL0     N66066   4.626   2.507   2.978 -0.3529  0.4159  0.5288
  490MOL0     C66067   4.208   2.215   2.112 -0.2726 -0.0629  0.3933
  490MOL0     C66068   4.289   2.278   2.010  0.2453  0.3547  0.3650
  490MOL0     C66069   4.405   2.547   1.664  1.5900  1.0329 -0.2632
  490MOL0     C66070   4.343   2.625   1.565  0.1155  0.0200  0.5713
  490MOL0     C66071   4.419   2.693   1.458 -0.6005 -0.3783  0.0385
  490MOL0     C66072   4.557   2.672   1.459 -0.0542 -0.3745  0.2089
  490MOL0     O66073   4.642   2.707   1.355 -0.2178 -0.2945  0.6999
  490MOL0     C66074   4.591   2.782   1.238  0.4040 -0.0131  0.3034
  490MOL0     C66075   4.561   2.674   1.130  0.5270  0.3400 -0.1129
  490MOL0     C66076   4.538   2.730   0.980  0.0119  0.9392  0.0000
  490MOL0     C66077   4.438   2.855   0.976  0.3129 -0.0692 -0.1085
  490MOL0     C66078   4.314   2.842   1.047 -0.1891 -0.4338  0.2803
  490MOL0     C66079   4.210   2.805   1.094 -0.5591 -0.2302  0.0490
  490MOL0     C66080   4.622   2.594   1.552  0.6912 -0.8907  0.3918
  490MOL0     C66081   4.548   2.531   1.658  0.4291  0.8513 -0.7225
  490MOL0     C66082   4.628   2.445   1.758 -0.6892 -0.3343 -0.4490
  490MOL0     H66083   4.263   2.601   2.084  3.3420  0.4111  2.8485
  490MOL0     H66084   4.100   2.504   2.239 -0.9810 -0.4487 -0.1315
  490MOL0     H66085   3.898   2.184   2.364  0.8353 -2.6309  1.2012
  490MOL0     H66086   3.936   2.126   2.207 -3.1986  1.5355  1.6258
  490MOL0     H66087   4.140   2.006   2.323 -1.7775  0.9511 -2.1439
  490MOL0     H66088   3.993   1.946   2.376  1.5342 -1.4627 -2.7849
  490MOL0     H66089   4.100   1.987   2.560  0.7120  0.5560 -1.0250
  490MOL0     H66090   4.037   2.155   2.562  1.6680  1.6309  0.6458
  490MOL0     H66091   4.307   2.070   2.461  1.3276  0.3546  2.5686
  490MOL0     H66092   4.255   2.236   2.452  2.1134 -2.6626 -2.7754
  490MOL0     H66093   4.259   2.106   2.724  3.9515 -1.0864  1.8502
  490MOL0     H66094   4.399   2.169   2.641 -0.0730 -0.9017  2.5200
  490MOL0     H66095   4.272   2.397   2.621  0.9456  0.4434 -0.1708
  490MOL0     H66096   4.134   2.312   2.699 -0.5790 -0.6019  2.3194
  490MOL0     H66097   4.334   2.242   2.870  0.4486 -0.3723 -3.0155
  490MOL0     H66098   4.247   2.394   2.904  0.2125  1.4006  0.6771
  490MOL0     H66099   4.518   2.358   2.764 -0.1293  1.4934 -1.9678
  490MOL0     H66100   4.413   2.503   2.773 -1.1804 -0.4496  0.1112
  490MOL0     H66101   4.349   2.399   3.117  1.1537 -0.3997  0.6106
  490MOL0     H66102   4.520   2.367   3.355  0.7811 -0.9061 -0.6532
  490MOL0     H66103   4.626   2.515   3.370  1.9309 -4.0028 -0.1862
  490MOL0     H66104   4.326   2.549   3.317  0.4405  1.4647 -0.4812
  490MOL0     H66105   4.409   2.572   3.478  2.0660  1.9719  0.9021
  490MOL0     H66106   4.473   2.723   3.216 -2.4599  2.7262  0.0166
  490MOL0     H66107   4.552   2.737   3.370  0.6816  1.7675 -2.0643
  490MOL0     H66108   4.392   2.926   3.362  0.1141  0.9344 -1.3959
  490MOL0     H66109   4.331   2.812   3.479  1.3177  2.9254  0.6982
  490MOL0     H66110   4.161   3.029   3.440 -1.5356  0.8219 -0.6231
  490MOL0     H66111   3.938   3.110   3.477 -3.4064 -0.2117 -0.7922
  490MOL0     H66112   3.458   3.150   3.359  2.1614  0.4296  0.1918
  490MOL0     H66113   3.234   3.209   3.472  0.9773 -0.2368 -1.4197
  490MOL0     H66114   3.169   3.067   3.842  0.7369 -1.2121  0.1881
  490MOL0     H66115   3.049   3.191   3.862 -0.2075 -1.1380 -0.4029
  490MOL0     H66116   3.096   2.997   3.633  2.1183  3.7941 -0.8910
  490MOL0     H66117   2.973   2.977   3.751  1.7779 -2.2271 -0.6212
  490MOL0     H66118   2.846   3.174   3.655 -1.8972 -1.8691 -2.1472
  490MOL0     H66119   2.986   3.220   3.560  1.5177 -0.7374 -0.7762
  490MOL0     H66120   2.833   2.966   3.515  3.2414 -1.2592  0.6625
  490MOL0     H66121   2.971   2.992   3.437 -1.3123 -0.9790 -0.2632
  490MOL0     H66122   2.897   3.218   3.336 -1.0331  1.3214  0.3908
  490MOL0     H66123   2.745   3.216   3.416 -0.3804 -0.7254  0.1241
  490MOL0     H66124   2.713   3.133   3.182 -5.1981 -0.9984  2.5203
  490MOL0     H66125   2.837   3.010   3.214  1.6988  3.0910 -1.5499
  490MOL0     H66126   2.546   3.060   3.313 -1.6038 -2.2693 -0.9811
  490MOL0     H66127   2.650   2.944   3.401 -1.8470 -1.9233 -0.0702
  490MOL0     H66128   2.696   2.833   3.174  0.4924  0.0896 -0.2390
  490MOL0     H66129   2.532   2.818   3.232  1.9911 -1.5133 -1.1222
  490MOL0     H66130   3.397   3.156   3.855 -1.2953 -0.1828 -0.7486
  490MOL0     H66131   3.603   3.066   3.758  1.1208  0.8933  0.2976
  490MOL0     H66132   3.797   2.759   3.258 -0.3878  1.9435 -1.9737
  490MOL0     H66133   4.007   2.682   3.216 -3.4790  0.1388 -1.3186
  490MOL0     H66134   4.205   2.107   2.123 -0.4848  0.1074  2.3877
  490MOL0     H66135   4.350   2.212   1.949  0.3146  1.6594 -1.0528
  490MOL0     H66136   4.239   2.649   1.584  0.8956  0.5074  5.8083
  490MOL0     H66137   4.384   2.757   1.378 -0.0664  0.9325  0.8281
  490MOL0     H66138   4.675   2.834   1.191 -0.0916 -0.1615 -0.7672
  490MOL0     H66139   4.512   2.857   1.247  0.6104  1.1220 -4.5458
  490MOL0     H66140   4.477   2.611   1.160  1.3357  0.9832  4.1283
  490MOL0     H66141   4.647   2.607   1.122 -0.8954 -1.5081 -0.4789
  490MOL0     H66142   4.507   2.647   0.917 -0.0378 -0.6823  2.0689
  490MOL0     H66143   4.635   2.764   0.941  0.8310 -0.8484  0.3919
  490MOL0     H66144   4.495   2.946   0.999 -0.1679 -0.1123  1.3153
  490MOL0     H66145   4.414   2.869   0.871  0.8032  0.1669 -0.1954
  490MOL0     H66146   4.127   2.760   1.144  0.3873 -0.9007  1.0649
  490MOL0     H66147   4.730   2.599   1.543  0.4836 -0.0703 -3.5392
  490MOL0     H66148   4.631   2.486   1.859  3.0576 -0.4640 -0.3589
  490MOL0     H66149   4.600   2.340   1.757  3.0996 -1.4981 -0.5706
  490MOL0     H66150   4.730   2.448   1.718 -0.5347  0.0844 -0.0292
  491MOL0     O66151  10.935  10.698   2.696  0.4379 -0.4000  0.3483
  491MOL0     C66152  11.038  10.747   2.746  0.8960 -0.4402  0.2351
  491MOL0     O66153  11.147  10.681   2.796  0.1636  0.2265 -0.0563
  491MOL0     C66154  11.169  10.543   2.771 -0.2905 -0.3664  0.2384
  491MOL0     C66155  11.114  10.474   2.662 -0.1071 -0.9115  0.1709
  491MOL0     C66156  11.146  10.341   2.633 -0.6187  0.0708  0.2305
  491MOL0     C66157  11.244  10.276   2.708  0.1951  0.1744 -0.0283
  491MOL0     O66158  11.293  10.156   2.666 -0.8721  0.3370  0.5555
  491MOL0     C66159  11.193  10.064   2.639 -0.2005  0.5648  0.2921
  491MOL0     C66160  11.264   9.925   2.657  0.4118 -0.8287  0.3629
  491MOL0     C66161  11.179   9.810   2.602  0.3231  0.5727 -0.4071
  491MOL0     C66162  11.216   9.659   2.626 -0.1287  0.1915  0.0784
  491MOL0     C66163  11.115   9.566   2.551 -0.1070  0.7173 -0.5253
  491MOL0     C66164  11.157   9.413   2.559 -0.2630  0.2003  0.3854
  491MOL0     C66165  11.062   9.334   2.471 -0.2783 -0.1582  0.1039
  491MOL0     C66166  11.116   9.193   2.454  0.0593  0.9225 -0.3585
  491MOL0     N66167  11.024   9.077   2.431 -0.2243 -0.1924  0.1558
  491MOL0     C66168  10.976   9.031   2.312 -0.3143 -0.8384  0.5410
  491MOL0     C66169  10.893   8.926   2.346 -0.0267 -0.2372 -0.2770
  491MOL0     C66170  10.837   8.840   2.235  0.1993 -0.0748 -0.1093
  491MOL0     C66171  10.944   8.770   2.139  0.2698 -0.3478  0.3024
  491MOL0     C66172  11.058   8.714   2.215  0.0997  1.1013 -0.1304
  491MOL0     C66173  11.018   8.608   2.318 -0.1200  0.4941  0.2993
  491MOL0     O66174  11.132   8.534   2.366  0.3617 -0.9047 -0.5615
  491MOL0     C66175  11.142   8.403   2.326  0.9684  0.2649 -0.2946
  491MOL0     C66176  11.211   8.364   2.207 -0.8971 -0.0606 -0.8230
  491MOL0     C66177  11.229   8.219   2.193  0.0540 -0.2079 -0.4605
  491MOL0     C66178  11.176   8.123   2.288  0.3571  0.5817 -0.1376
  491MOL0     C66179  11.191   7.982   2.267 -1.1897  0.9965  0.0052
  491MOL0     O66180  11.126   7.903   2.356  0.3047  0.8465 -0.0439
  491MOL0     C66181  11.101   7.765   2.321 -0.3423 -0.7124 -0.5271
  491MOL0     C66182  11.021   7.740   2.207  0.0648 -0.1252 -0.1663
  491MOL0     C66183  11.002   7.612   2.176 -0.0731 -1.0437  0.6421
  491MOL0     C66184  11.055   7.499   2.242 -0.6385 -0.0162  0.6228
  491MOL0     O66185  11.029   7.375   2.198 -0.0133 -0.4734 -0.3081
  491MOL0     C66186  11.047   7.354   2.056  0.1715 -1.2357  0.3605
  491MOL0     C66187  11.106   7.221   2.010  0.2544 -0.6129  0.2618
  491MOL0     C66188  11.221   7.179   2.093 -0.5309 -0.2595 -1.0510
  491MOL0     C66189  11.347   7.270   2.088 -0.4596 -0.2957  0.8793
  491MOL0     C66190  11.451   7.224   2.202 -0.6580 -0.7502 -0.1576
  491MOL0     C66191  11.597   7.277   2.196  0.5072  1.0937  0.0653
  491MOL0     C66192  11.618   7.416   2.155 -0.7403  0.3860 -0.5118
  491MOL0     C66193  11.540   7.517   2.239  0.6745 -0.9190  0.3269
  491MOL0    Cl66194  11.597   7.521   2.410 -0.4652  0.1459  0.1731
  491MOL0     C66195  11.127   7.528   2.361  0.2774  0.2376  0.1420
  491MOL0     C66196  11.144   7.657   2.395  0.0254 -0.1234 -0.1984
  491MOL0     O66197  11.266   7.943   2.179  0.0467 -0.3596 -0.5677
  491MOL0     C66198  11.097   8.175   2.390  0.9434  0.3287 -0.5693
  491MOL0     C66199  11.077   8.306   2.409 -0.6604 -0.6540  0.5218
  491MOL0     N66200  10.919   8.896   2.480  0.1408  0.7305  0.1418
  491MOL0     N66201  10.986   8.996   2.529  0.0411  0.4104  0.1381
  491MOL0     C66202  11.301  10.335   2.826  0.3622  0.3413 -0.6364
  491MOL0     C66203  11.248  10.465   2.856 -0.8785 -0.7246 -0.6288
  491MOL0     C66204  11.045  10.889   2.780 -1.1050  0.4465 -0.2176
  491MOL0     C66205  10.937  10.939   2.856  0.0137  0.8621 -0.0188
  491MOL0     C66206  10.934  11.076   2.892  0.0377  1.0321  0.5979
  491MOL0     C66207  11.040  11.160   2.854  0.4756  0.1792  0.1046
  491MOL0     O66208  11.043  11.293   2.883 -0.6363  0.2702 -0.2792
  491MOL0     C66209  10.920  11.365   2.886 -0.4026  0.2732  0.1964
  491MOL0     C66210  10.928  11.496   2.820 -0.4212  0.1355 -0.1595
  491MOL0     C66211  11.040  11.584   2.885  0.1800  0.3052 -0.5162
  491MOL0     C66212  11.030  11.726   2.822 -0.0128  1.1534  0.2518
  491MOL0     C66213  11.086  11.727   2.693 -0.1128 -0.5556  0.4775
  491MOL0     C66214  11.146  11.706   2.591  0.4924 -0.2063 -0.0290
  491MOL0     C66215  11.145  11.114   2.774 -0.3851 -0.3652 -0.2449
  491MOL0     C66216  11.143  10.980   2.732  0.6170  0.4918  0.4649
  491MOL0     C66217  11.249  10.946   2.628 -0.1294  0.5164 -0.1643
  491MOL0     H66218  11.054  10.526   2.588 -1.1578 -1.6010  0.5048
  491MOL0     H66219  11.107  10.293   2.544  0.0383  2.4248 -1.4091
  491MOL0     H66220  11.120  10.063   2.720  0.2498 -0.4784  0.7049
  491MOL0     H66221  11.146  10.084   2.542 -0.1457 -0.8399 -0.0423
  491MOL0     H66222  11.264   9.895   2.762  1.1993  0.2679  0.6965
  491MOL0     H66223  11.364   9.930   2.614  0.4599  2.3752  0.5826
  491MOL0     H66224  11.178   9.813   2.492 -0.1538  0.7737 -0.3990
  491MOL0     H66225  11.079   9.819   2.645  0.4501  2.5296 -0.4175
  491MOL0     H66226  11.316   9.635   2.587 -1.1172 -1.6365 -1.5328
  491MOL0     H66227  11.209   9.634   2.733 -1.1189 -3.4676 -0.6842
  491MOL0     H66228  11.017   9.561   2.600 -0.3887 -3.6164 -1.0964
  491MOL0     H66229  11.111   9.602   2.448  2.8351 -0.8397 -1.2817
  491MOL0     H66230  11.255   9.409   2.511 -0.5462  1.3062 -0.3492
  491MOL0     H66231  11.175   9.375   2.659  1.1196  1.1164  0.5117
  491MOL0     H66232  11.039   9.377   2.373 -3.1606 -0.5780  0.5121
  491MOL0     H66233  10.972   9.323   2.533  0.3025 -0.3825  0.9223
  491MOL0     H66234  11.192   9.179   2.377 -0.0727 -1.3800 -0.1484
  491MOL0     H66235  11.169   9.168   2.547 -2.4291 -1.4886  0.5743
  491MOL0     H66236  10.995   9.075   2.215  1.5245 -0.2989  1.1153
  491MOL0     H66237  10.782   8.760   2.285  2.6851 -0.8023  1.6488
  491MOL0     H66238  10.766   8.898   2.176  1.7754  1.4056 -0.6483
  491MOL0     H66239  10.903   8.690   2.077  0.7370 -1.2046  1.0936
  491MOL0     H66240  10.989   8.841   2.068  1.8091 -1.8168 -0.2464
  491MOL0     H66241  11.113   8.797   2.260  1.2888  0.9847 -1.3003
  491MOL0     H66242  11.120   8.660   2.143  0.3063  0.8533  0.2284
  491MOL0     H66243  10.942   8.548   2.268  0.1490 -1.1225  1.7364
  491MOL0     H66244  10.971   8.648   2.409 -2.9299 -0.9780 -0.3864
  491MOL0     H66245  11.256   8.444   2.150 -2.2124  0.6052 -0.9749
  491MOL0     H66246  11.264   8.172   2.102 -2.7603 -1.3691 -1.0464
  491MOL0     H66247  10.976   7.817   2.146  0.0544 -0.7530 -0.9663
  491MOL0     H66248  10.939   7.593   2.089  3.1614 -2.5717 -1.5971
  491MOL0     H66249  10.947   7.369   2.014 -0.9575 -2.5853  2.3910
  491MOL0     H66250  11.121   7.429   2.025 -0.0782 -1.8322 -1.8574
  491MOL0     H66251  11.028   7.146   2.024  2.7291 -3.6798 -1.1446
  491MOL0     H66252  11.125   7.232   1.902 -1.6233  0.1530 -0.0245
  491MOL0     H66253  11.182   7.178   2.195 -1.6170 -0.9312 -1.4571
  491MOL0     H66254  11.248   7.079   2.059  2.0714  0.6181 -1.7710
  491MOL0     H66255  11.318   7.375   2.095 -1.3299 -0.5123  0.6083
  491MOL0     H66256  11.397   7.249   1.993  0.0326 -0.8148  1.2442
  491MOL0     H66257  11.458   7.115   2.212 -1.5061 -0.7376  0.7532
  491MOL0     H66258  11.403   7.256   2.295 -2.1100 -2.6342 -0.1904
  491MOL0     H66259  11.644   7.249   2.291 -0.6122 -1.3526 -0.0582
  491MOL0     H66260  11.640   7.215   2.117 -1.2417  0.3375 -0.3153
  491MOL0     H66261  11.578   7.430   2.054  0.1930  2.4032 -0.6428
  491MOL0     H66262  11.725   7.435   2.150 -0.5399 -0.8156 -1.1564
  491MOL0     H66263  11.569   7.613   2.197  1.8345 -1.4876 -0.2083
  491MOL0     H66264  11.431   7.506   2.237  0.5332 -2.3963  5.0087
  491MOL0     H66265  11.177   7.459   2.428  1.0298 -0.0852 -0.7283
  491MOL0     H66266  11.197   7.667   2.490 -1.9549 -1.4748  1.1376
  491MOL0     H66267  11.045   8.108   2.459  0.8973  0.6685 -0.2743
  491MOL0     H66268  11.016   8.354   2.484 -1.9184  0.3861 -1.1133
  491MOL0     H66269  11.380  10.282   2.877  0.9191  1.8491  0.1290
  491MOL0     H66270  11.290  10.509   2.947 -0.2812 -2.0237 -0.2555
  491MOL0     H66271  10.865  10.877   2.907 -0.3890  0.4545 -1.0493
  491MOL0     H66272  10.852  11.103   2.958  1.3313 -4.0376  5.0291
  491MOL0     H66273  10.895  11.378   2.991 -0.5651 -2.6497  0.5957
  491MOL0     H66274  10.841  11.300   2.846  0.2104 -0.8696  0.8034
  491MOL0     H66275  10.827  11.536   2.833 -0.2935 -0.2123  2.5561
  491MOL0     H66276  10.955  11.472   2.717 -2.7607  0.2319 -0.8464
  491MOL0     H66277  11.144  11.552   2.873  1.3216  3.2108  0.5208
  491MOL0     H66278  11.034  11.598   2.993  0.1320  0.9493 -0.5987
  491MOL0     H66279  10.923  11.750   2.819 -1.0419 -2.4288  2.3021
  491MOL0     H66280  11.078  11.796   2.891 -1.0609  2.0572  0.0985
  491MOL0     H66281  11.192  11.709   2.495 -1.3530  1.1718 -0.9343
  491MOL0     H66282  11.229  11.175   2.744  3.5707 -2.4593  4.9162
  491MOL0     H66283  11.345  10.955   2.681  0.3455 -1.2799 -0.6514
  491MOL0     H66284  11.243  10.844   2.589 -2.0367  0.7465 -0.5667
  491MOL0     H66285  11.248  11.021   2.549  4.4301  1.3658  0.2716
  492MOL0     O66286   1.329   9.905   2.063 -0.4809 -0.6410  0.1369
  492MOL0     C66287   1.209   9.914   2.031 -0.0286 -0.5924  0.2254
  492MOL0     O66288   1.146   9.862   1.925  0.4280  0.4319 -0.4025
  492MOL0     C66289   1.218   9.790   1.836 -0.2816  0.5956 -0.5210
  492MOL0     C66290   1.290   9.861   1.741  0.3980 -0.3063  0.2245
  492MOL0     C66291   1.377   9.794   1.642  0.8695 -0.3840  0.6534
  492MOL0     C66292   1.378   9.651   1.638  0.6713 -0.1160 -0.4118
  492MOL0     O66293   1.452   9.573   1.548 -0.4228  0.8320 -0.0967
  492MOL0     C66294   1.538   9.463   1.610 -0.5194 -0.5448  0.0177
  492MOL0     C66295   1.662   9.440   1.529 -0.3061 -0.1401 -0.0373
  492MOL0     C66296   1.760   9.347   1.603 -0.4647 -0.6206 -0.1468
  492MOL0     C66297   1.888   9.300   1.513  0.1120  0.0502  0.3056
  492MOL0     C66298   1.992   9.226   1.587 -0.8885  0.3726 -0.4424
  492MOL0     C66299   2.109   9.184   1.494  0.0140  0.7323  0.7120
  492MOL0     C66300   2.197   9.074   1.545  0.9988  0.0672 -0.3068
  492MOL0     C66301   2.330   9.080   1.469  0.1519  0.4159 -0.8107
  492MOL0     N66302   2.305   9.070   1.322  0.1258  0.4777 -0.7656
  492MOL0     C66303   2.256   8.951   1.270  0.3576  1.3338  0.1675
  492MOL0     C66304   2.251   8.986   1.142  0.3300  0.4863 -0.3559
  492MOL0     C66305   2.213   8.894   1.034 -0.0038 -0.0862  0.5427
  492MOL0     C66306   2.066   8.902   1.002  0.3920  0.5195  0.2903
  492MOL0     C66307   2.031   8.795   0.901 -0.3121  0.2756  0.2187
  492MOL0     C66308   1.885   8.798   0.849 -0.2111 -0.4969 -0.2142
  492MOL0     O66309   1.812   8.774   0.966 -0.1676  0.5873  0.0456
  492MOL0     C66310   1.674   8.770   0.954  0.3353 -0.4057 -0.4799
  492MOL0     C66311   1.601   8.854   0.872  0.0586 -0.8451 -0.3221
  492MOL0     C66312   1.458   8.869   0.892  0.3424  0.2467 -0.2795
  492MOL0     C66313   1.393   8.778   0.979 -0.0444  0.5608  0.1904
  492MOL0     C66314   1.248   8.793   1.017  0.4061  0.4675  0.2983
  492MOL0     O66315   1.193   8.690   1.084  0.4815 -0.0506 -1.1158
  492MOL0     C66316   1.058   8.684   1.110  0.0996 -0.7853 -0.6361
  492MOL0     C66317   0.980   8.586   1.034 -0.2887  0.7624 -0.7706
  492MOL0     C66318   0.839   8.587   1.055  0.6217  1.1393  0.0433
  492MOL0     C66319   0.779   8.677   1.133  0.0528 -0.6624  0.2910
  492MOL0     O66320   0.641   8.672   1.120 -0.6279 -0.2745 -0.1388
  492MOL0     C66321   0.557   8.776   1.166 -0.4094 -0.2221  0.3443
  492MOL0     C66322   0.427   8.783   1.082  0.1970 -0.4616  0.1483
  492MOL0     C66323   0.454   8.824   0.929  0.1328  0.0544 -0.5184
  492MOL0     C66324   0.371   8.753   0.828  0.5966  1.0526 -0.9020
  492MOL0     C66325   0.241   8.812   0.815 -0.5039  0.8471 -0.6527
  492MOL0     C66326   0.159   8.758   0.709  0.4534  0.5720  0.2215
  492MOL0     C66327   0.014   8.790   0.726  0.4109 -0.5078  0.2766
  492MOL0     C66328  -0.078   8.734   0.614  0.5951 -0.4248  0.3591
  492MOL0    Cl66329  -0.247   8.780   0.640  0.1378 -0.3407  0.3031
  492MOL0     C66330   0.852   8.769   1.209 -0.4877 -0.7551  0.3169
  492MOL0     C66331   0.997   8.778   1.198 -0.4164 -0.0370  0.8311
  492MOL0     O66332   1.191   8.900   0.993 -1.2029  0.3541  0.5011
  492MOL0     C66333   1.467   8.680   1.051  0.7954  0.2064  0.0152
  492MOL0     C66334   1.601   8.682   1.037  1.0559  0.0808  0.4328
  492MOL0     N66335   2.289   9.116   1.124  0.4190 -1.2323  0.5510
  492MOL0     N66336   2.319   9.166   1.240 -0.4753 -1.0206  0.2858
  492MOL0     C66337   1.284   9.589   1.723  0.9054 -0.0540  0.0139
  492MOL0     C66338   1.213   9.652   1.826 -0.2518  0.7846  0.7864
  492MOL0     C66339   1.142   9.988   2.137  1.0607  0.7054  0.0382
  492MOL0     C66340   1.188  10.111   2.178 -0.3285 -0.4366 -0.8306
  492MOL0     C66341   1.122  10.190   2.273  0.4579  0.8152 -0.6645
  492MOL0     C66342   1.007  10.148   2.332  0.8917 -1.3725 -0.0127
  492MOL0     O66343   0.929  10.238   2.413 -0.5587  0.1957  0.2424
  492MOL0     C66344   0.914  10.203   2.552  0.0841 -0.1037  0.3880
  492MOL0     C66345   1.037  10.221   2.648 -0.3988  0.6632 -0.4516
  492MOL0     C66346   1.101  10.363   2.654 -0.5033 -0.2639  0.3971
  492MOL0     C66347   1.013  10.479   2.703 -0.3562 -0.4557 -0.2086
  492MOL0     C66348   0.945  10.449   2.834  0.5650 -0.0378 -0.5238
  492MOL0     C66349   0.882  10.416   2.932 -0.7505  0.1805  0.1216
  492MOL0     C66350   0.951  10.027   2.289 -0.2091  0.0819  0.4103
  492MOL0     C66351   1.025   9.950   2.197  0.3128  0.2582  0.0517
  492MOL0     C66352   0.958   9.817   2.162 -0.1316 -0.1635  0.2494
  492MOL0     H66353   1.283   9.969   1.741  0.0514 -0.3128  1.3968
  492MOL0     H66354   1.429   9.855   1.569 -0.7768  2.2650  1.5483
  492MOL0     H66355   1.579   9.494   1.706  1.6938 -0.3361 -0.9384
  492MOL0     H66356   1.478   9.372   1.622  0.8677 -1.5126 -0.1023
  492MOL0     H66357   1.706   9.538   1.513  0.7326 -0.4329  0.9067
  492MOL0     H66358   1.630   9.401   1.431 -3.6865  2.1338 -0.0016
  492MOL0     H66359   1.711   9.257   1.640  0.4491 -0.9718  0.2408
  492MOL0     H66360   1.794   9.396   1.694  0.1747 -1.5065  0.1076
  492MOL0     H66361   1.839   9.239   1.437 -2.5730 -0.2092  2.0730
  492MOL0     H66362   1.924   9.392   1.467 -0.6965 -0.1372 -0.7352
  492MOL0     H66363   2.023   9.295   1.666 -0.1759 -0.3574 -0.0798
  492MOL0     H66364   1.951   9.130   1.621  2.8480 -1.1949  0.1505
  492MOL0     H66365   2.068   9.151   1.398  1.0624 -0.6997  0.7283
  492MOL0     H66366   2.165   9.275   1.472  0.0912  1.3185  3.0529
  492MOL0     H66367   2.146   8.983   1.512  0.2425  0.9614 -1.7202
  492MOL0     H66368   2.204   9.072   1.654 -0.2849  0.8956 -0.1759
  492MOL0     H66369   2.387   9.170   1.492  0.1514  0.3610 -0.5924
  492MOL0     H66370   2.394   8.997   1.500 -1.6952  0.5267  4.1035
  492MOL0     H66371   2.225   8.859   1.319  2.3211  0.2013 -0.5638
  492MOL0     H66372   2.280   8.916   0.951  2.3764 -4.4200  1.0314
  492MOL0     H66373   2.238   8.793   1.069 -0.3692  0.5120  2.6811
  492MOL0     H66374   2.009   8.895   1.095  0.6698 -0.2799  0.4015
  492MOL0     H66375   2.041   8.998   0.955 -2.4921 -1.2409 -2.1320
  492MOL0     H66376   2.032   8.702   0.958  0.0424 -0.6167 -1.1895
  492MOL0     H66377   2.090   8.792   0.809 -0.5081 -0.5530  0.1143
  492MOL0     H66378   1.868   8.722   0.773 -1.6288 -0.0888 -0.3344
  492MOL0     H66379   1.878   8.899   0.806  2.0602 -0.5277 -0.7759
  492MOL0     H66380   1.652   8.913   0.797  0.1112 -1.2712 -0.6221
  492MOL0     H66381   1.403   8.934   0.825  2.4535  0.3443 -2.0344
  492MOL0     H66382   1.013   8.524   0.952 -2.1047  0.7048 -1.4989
  492MOL0     H66383   0.774   8.532   0.987 -2.3512  1.8894  2.1073
  492MOL0     H66384   0.535   8.763   1.272 -1.9866  0.6018  0.1631
  492MOL0     H66385   0.604   8.875   1.155 -1.5336  0.3323  0.3661
  492MOL0     H66386   0.365   8.695   1.099  1.0581 -1.3546 -1.0971
  492MOL0     H66387   0.365   8.866   1.115 -2.0284 -1.9565 -0.0414
  492MOL0     H66388   0.449   8.933   0.930  1.2205  0.1700 -2.3993
  492MOL0     H66389   0.557   8.794   0.907 -0.2717  0.6675 -3.7630
  492MOL0     H66390   0.355   8.646   0.846  0.1073  1.3703  0.7232
  492MOL0     H66391   0.434   8.757   0.738 -0.7212 -3.3724 -2.3278
  492MOL0     H66392   0.246   8.921   0.812  0.6009  0.7957 -1.2104
  492MOL0     H66393   0.192   8.792   0.911 -1.1589  2.6374 -0.5836
  492MOL0     H66394   0.200   8.782   0.610 -2.3849 -3.3537 -2.1952
  492MOL0     H66395   0.166   8.649   0.715 -3.1838  0.2926  2.0176
  492MOL0     H66396   0.004   8.899   0.736  3.2277 -0.3413  2.9751
  492MOL0     H66397  -0.013   8.744   0.822 -0.3391 -2.1079 -0.6479
  492MOL0     H66398  -0.045   8.770   0.516  1.4019  2.2218  1.5021
  492MOL0     H66399  -0.067   8.626   0.606 -0.1407 -0.3640 -2.5090
  492MOL0     H66400   0.793   8.841   1.264 -1.3852 -2.1909  1.3039
  492MOL0     H66401   1.057   8.845   1.259 -2.2282  0.7733  1.8045
  492MOL0     H66402   1.425   8.609   1.122  2.0255  0.8061  1.3790
  492MOL0     H66403   1.666   8.611   1.088  2.2720  1.9808  1.6708
  492MOL0     H66404   1.279   9.480   1.724 -2.2491 -0.1244 -3.6567
  492MOL0     H66405   1.151   9.591   1.891 -1.0065 -0.4013 -0.9733
  492MOL0     H66406   1.280  10.148   2.134 -1.4161 -0.3846 -3.2386
  492MOL0     H66407   1.165  10.284   2.305 -2.6930  1.4727  2.3945
  492MOL0     H66408   0.861  10.108   2.552 -0.5141  0.2164  0.8662
  492MOL0     H66409   0.841  10.276   2.588  0.5194  0.8984 -0.6849
  492MOL0     H66410   1.126  10.163   2.622  0.0529  0.8738  0.5858
  492MOL0     H66411   1.007  10.193   2.749  2.1162 -3.3468 -0.6080
  492MOL0     H66412   1.140  10.394   2.556 -0.1790  1.0452  0.9162
  492MOL0     H66413   1.181  10.354   2.728  1.4949  2.8033 -1.1432
  492MOL0     H66414   1.080  10.566   2.705  1.0045 -1.4669  0.4400
  492MOL0     H66415   0.937  10.487   2.625 -0.0288  0.5988 -0.4365
  492MOL0     H66416   0.826  10.389   3.019 -0.1856 -0.8289  0.1891
  492MOL0     H66417   0.871   9.972   2.337  1.3570 -1.5694  1.2602
  492MOL0     H66418   0.910   9.778   2.252 -0.2811 -0.6376 -0.0302
  492MOL0     H66419   0.876   9.828   2.091  1.0969  1.2167 -1.0338
  492MOL0     H66420   1.026   9.745   2.113 -1.5426 -1.4464  0.0936
  493MOL0     O66421   2.925   8.756   4.435 -0.1449 -0.4370 -0.1545
  493MOL0     C66422   2.898   8.874   4.406  0.3081  0.8410 -0.6024
  493MOL0     O66423   2.957   8.943   4.316 -0.1712 -0.3216  0.0060
  493MOL0     C66424   3.073   8.895   4.262 -0.0348  0.2224 -0.1875
  493MOL0     C66425   3.175   8.868   4.353  0.4392  0.7230 -0.1133
  493MOL0     C66426   3.286   8.796   4.302 -0.5043 -0.4487 -0.0764
  493MOL0     C66427   3.294   8.755   4.166 -0.5499  0.0154 -0.3596
  493MOL0     O66428   3.389   8.674   4.118 -1.1191 -0.5133 -0.5227
  493MOL0     C66429   3.510   8.685   4.190  0.1147  0.0021  0.4347
  493MOL0     C66430   3.612   8.623   4.092 -0.3409 -0.3918 -0.2014
  493MOL0     C66431   3.746   8.698   4.085 -0.3320  0.6257 -0.5384
  493MOL0     C66432   3.818   8.688   4.225 -0.0458 -0.6409 -0.0956
  493MOL0     C66433   3.976   8.724   4.213 -0.0096  0.4505  0.5438
  493MOL0     C66434   4.073   8.706   4.331  0.3657 -0.7025  0.2307
  493MOL0     C66435   4.044   8.807   4.448 -0.3020 -1.4052 -0.0216
  493MOL0     C66436   4.157   8.801   4.553 -0.1791 -0.6157  0.2913
  493MOL0     N66437   4.271   8.883   4.509  0.8284 -0.0930  0.0198
  493MOL0     C66438   4.405   8.856   4.540 -0.5717  0.7781  0.4499
  493MOL0     C66439   4.479   8.946   4.465  0.9447  0.5701  0.3668
  493MOL0     C66440   4.625   8.960   4.442  0.0386 -0.1063 -0.8154
  493MOL0     C66441   4.705   8.886   4.551 -0.2198 -0.9202 -0.2228
  493MOL0     C66442   4.858   8.869   4.527  0.8933 -0.6817 -0.0545
  493MOL0     C66443   4.924   9.010   4.558  0.1417 -0.6697  1.2428
  493MOL0     O66444   5.067   9.010   4.591 -0.1033 -0.2930  0.0016
  493MOL0     C66445   5.099   8.935   4.698 -0.0407  0.1224 -0.4416
  493MOL0     C66446   5.217   8.861   4.699  0.0115  1.0193  0.0393
  493MOL0     C66447   5.263   8.812   4.824  1.1003 -0.2771 -0.2704
  493MOL0     C66448   5.196   8.835   4.941  0.8679 -0.9130 -0.4538
  493MOL0     C66449   5.257   8.792   5.064 -1.0683  0.0425  0.2526
  493MOL0     O66450   5.176   8.773   5.178 -0.4559 -0.8640 -0.2699
  493MOL0     C66451   5.236   8.753   5.304  1.0279  0.2779 -0.9133
  493MOL0     C66452   5.237   8.618   5.348  0.2701 -1.0912 -0.7324
  493MOL0     C66453   5.270   8.589   5.484 -0.5063  0.0042 -0.5693
  493MOL0     C66454   5.305   8.700   5.570 -0.7769  0.8812  0.6130
  493MOL0     O66455   5.336   8.669   5.701  0.5715  0.8660 -0.0222
  493MOL0     C66456   5.289   8.749   5.802 -1.4464 -0.2457 -0.5063
  493MOL0     C66457   5.311   8.684   5.933  0.5047 -0.5575 -0.5873
  493MOL0     C66458   5.457   8.696   5.976  0.5495 -0.1277  0.8425
  493MOL0     C66459   5.572   8.619   5.894 -0.3583  1.1714 -0.6591
  493MOL0     C66460   5.704   8.685   5.951 -0.0820 -0.3444 -0.8324
  493MOL0     C66461   5.813   8.589   5.922 -0.2382 -0.2987 -0.0464
  493MOL0     C66462   5.907   8.568   6.048  0.5765  0.6324  0.6307
  493MOL0     C66463   6.039   8.502   5.994  0.0262  0.0258 -0.1474
  493MOL0    Cl66464   6.164   8.500   6.124  0.5627  0.8099  0.1571
  493MOL0     C66465   5.310   8.820   5.517  0.7815  0.5282  0.1818
  493MOL0     C66466   5.275   8.856   5.382 -0.2833 -0.3894 -0.4747
  493MOL0     O66467   5.387   8.780   5.069 -0.1645 -0.2196 -0.2851
  493MOL0     C66468   5.071   8.903   4.939 -0.3145 -0.8043  1.1932
  493MOL0     C66469   5.022   8.943   4.816  0.8158 -0.6393 -0.2132
  493MOL0     N66470   4.386   9.030   4.395 -1.0064 -0.9137  0.0602
  493MOL0     N66471   4.264   8.995   4.431  0.0113 -0.9563 -0.2990
  493MOL0     C66472   3.196   8.791   4.078 -0.0196  0.0021 -0.2684
  493MOL0     C66473   3.088   8.871   4.125 -0.1258  0.1344 -0.8508
  493MOL0     C66474   2.787   8.936   4.475 -0.4328 -0.4093 -0.2964
  493MOL0     C66475   2.663   8.880   4.454  0.0766 -0.0259 -0.2206
  493MOL0     C66476   2.548   8.921   4.527 -0.1698 -0.2655 -0.8143
  493MOL0     C66477   2.561   9.028   4.616  0.2174  0.6499  0.5156
  493MOL0     O66478   2.459   9.084   4.683 -0.4703 -0.5193  0.2594
  493MOL0     C66479   2.388   9.006   4.775 -0.4945 -0.2237  0.0617
  493MOL0     C66480   2.278   9.091   4.842 -0.0156 -0.1105 -0.5471
  493MOL0     C66481   2.162   9.124   4.743  0.2561  0.1064  0.4815
  493MOL0     C66482   2.075   9.236   4.794  0.2101  0.1235  0.1038
  493MOL0     C66483   2.118   9.367   4.744  1.0164 -0.0993 -0.6387
  493MOL0     C66484   2.133   9.468   4.685  0.9087  0.1749  0.4777
  493MOL0     C66485   2.690   9.091   4.637  0.0331  0.8712 -0.2845
  493MOL0     C66486   2.801   9.037   4.567 -0.2319  1.0428 -0.9358
  493MOL0     C66487   2.931   9.088   4.609 -0.0245 -0.2429  1.0140
  493MOL0     H66488   3.185   8.894   4.458 -0.5358  0.2149  0.1151
  493MOL0     H66489   3.370   8.785   4.370  0.2677 -0.1810 -0.9636
  493MOL0     H66490   3.544   8.782   4.228  1.2332 -0.3087  0.2506
  493MOL0     H66491   3.498   8.623   4.280  0.4754 -0.9000 -0.1270
  493MOL0     H66492   3.569   8.623   3.992  0.5966 -1.1127 -0.6113
  493MOL0     H66493   3.635   8.517   4.098  1.1029 -0.3412 -3.1186
  493MOL0     H66494   3.728   8.800   4.051  0.0836  1.5442  1.8147
  493MOL0     H66495   3.810   8.654   4.008 -1.1040 -0.7693 -0.4166
  493MOL0     H66496   3.760   8.744   4.299 -0.0193 -0.0751 -0.4932
  493MOL0     H66497   3.818   8.587   4.266 -1.4735 -1.2506 -1.5096
  493MOL0     H66498   4.020   8.663   4.134 -1.5712  1.0923 -0.8940
  493MOL0     H66499   3.992   8.823   4.169  0.3680  0.6832  1.2037
  493MOL0     H66500   4.064   8.602   4.364 -0.5886 -0.1006  2.0038
  493MOL0     H66501   4.175   8.727   4.299  0.4464  0.8838  1.3954
  493MOL0     H66502   3.955   8.771   4.501 -0.9639 -0.0268 -0.1501
  493MOL0     H66503   4.034   8.910   4.414  0.5342  0.0150  3.5415
  493MOL0     H66504   4.125   8.865   4.636  0.6385 -1.1829  1.0591
  493MOL0     H66505   4.171   8.698   4.585 -0.7889 -1.3863 -1.7660
  493MOL0     H66506   4.451   8.783   4.605  1.9054  1.0399 -0.8847
  493MOL0     H66507   4.650   8.922   4.343  1.2802  0.7731 -0.8686
  493MOL0     H66508   4.646   9.067   4.455 -1.0987 -0.0157  0.5846
  493MOL0     H66509   4.685   8.926   4.651  3.1194 -1.5725  0.8200
  493MOL0     H66510   4.668   8.783   4.553 -1.9931 -0.3442 -1.0950
  493MOL0     H66511   4.887   8.833   4.427  0.7546  3.0442 -1.6006
  493MOL0     H66512   4.888   8.797   4.603 -0.2318  1.3598  2.4812
  493MOL0     H66513   4.867   9.063   4.634  0.1794  1.1927  0.0395
  493MOL0     H66514   4.921   9.050   4.456  0.8741 -1.5366  0.8588
  493MOL0     H66515   5.282   8.847   4.613 -0.5114 -2.0635  0.0638
  493MOL0     H66516   5.353   8.752   4.818  0.4810 -1.2833  0.2922
  493MOL0     H66517   5.192   8.541   5.287 -1.3906 -1.0905  0.4366
  493MOL0     H66518   5.273   8.488   5.523 -0.0960  0.6353  1.1392
  493MOL0     H66519   5.343   8.844   5.793  0.4163 -1.3251 -1.1736
  493MOL0     H66520   5.184   8.766   5.778 -1.7316  0.5981  1.1778
  493MOL0     H66521   5.245   8.724   6.011 -1.3890  2.0066 -3.2540
  493MOL0     H66522   5.272   8.583   5.926 -1.5403  0.0088  1.5051
  493MOL0     H66523   5.474   8.804   5.976 -0.2911  0.0777 -2.2244
  493MOL0     H66524   5.465   8.668   6.082  1.7014  4.9396  2.3765
  493MOL0     H66525   5.570   8.633   5.786  1.5979  1.7976 -0.6573
  493MOL0     H66526   5.571   8.511   5.916  0.3766  1.0347 -1.2803
  493MOL0     H66527   5.691   8.706   6.058  4.5718  0.0360 -0.1346
  493MOL0     H66528   5.725   8.776   5.894  1.1327  0.1466  0.3372
  493MOL0     H66529   5.773   8.496   5.881  0.0561 -1.0351  1.2801
  493MOL0     H66530   5.875   8.635   5.843  1.8443 -2.3454  0.2739
  493MOL0     H66531   5.871   8.493   6.119 -0.2367  0.3935 -0.0054
  493MOL0     H66532   5.918   8.667   6.093 -1.7153  0.5054  1.6239
  493MOL0     H66533   6.011   8.399   5.968 -0.4773 -0.8900  3.4439
  493MOL0     H66534   6.081   8.554   5.908  1.6030 -0.3877  0.3490
  493MOL0     H66535   5.344   8.902   5.580  0.5509 -0.5971  1.8190
  493MOL0     H66536   5.285   8.961   5.359  3.1364  0.0271  2.0967
  493MOL0     H66537   5.014   8.924   5.029 -0.4029 -0.2223  1.0055
  493MOL0     H66538   4.925   8.990   4.814  0.1053 -2.0484 -1.5814
  493MOL0     H66539   3.214   8.764   3.974  1.1320  1.8240 -0.5923
  493MOL0     H66540   3.004   8.906   4.066 -2.7911 -1.2236  1.7993
  493MOL0     H66541   2.646   8.793   4.390  0.4882 -2.3705  2.6538
  493MOL0     H66542   2.451   8.878   4.506 -1.3911 -0.1481  3.5901
  493MOL0     H66543   2.463   8.967   4.844  0.2444  1.8997  0.5423
  493MOL0     H66544   2.348   8.918   4.725  1.5080 -0.9414 -0.3712
  493MOL0     H66545   2.314   9.186   4.884  1.5709 -1.7492  2.0877
  493MOL0     H66546   2.242   9.037   4.929  3.7114 -2.6760 -0.3912
  493MOL0     H66547   2.109   9.033   4.714  1.9771 -0.0622 -2.6044
  493MOL0     H66548   2.213   9.167   4.656  3.1681 -0.6215  1.6930
  493MOL0     H66549   1.974   9.218   4.756 -1.5022 -2.4429  5.0897
  493MOL0     H66550   2.073   9.228   4.903  2.7712 -2.6704  0.0832
  493MOL0     H66551   2.173   9.547   4.626 -1.2196  1.1264  0.2246
  493MOL0     H66552   2.709   9.173   4.706 -0.6185  0.9044 -0.1387
  493MOL0     H66553   2.923   9.115   4.715 -0.6491  1.6324  0.5254
  493MOL0     H66554   3.007   9.010   4.615  1.0973  0.9244  2.7995
  493MOL0     H66555   2.965   9.173   4.549 -0.5788  1.9800  3.6469
  494MOL0     O66556   5.688   0.053   5.942 -0.0274  0.4961 -1.1846
  494MOL0     C66557   5.688  -0.064   5.973  0.7118  0.5688 -0.6016
  494MOL0     O66558   5.706  -0.168   5.881 -0.6094 -0.4261 -0.6208
  494MOL0     C66559   5.738  -0.134   5.756 -0.5491  0.1602 -0.9543
  494MOL0     C66560   5.636  -0.092   5.673  0.7861 -0.2513  0.4994
  494MOL0     C66561   5.647  -0.091   5.534 -0.4008  0.8425 -0.8236
  494MOL0     C66562   5.772  -0.108   5.477  0.0507  0.8028  0.6088
  494MOL0     O66563   5.782  -0.100   5.343 -0.3228 -0.2493  0.0514
  494MOL0     C66564   5.863  -0.197   5.270  0.5997  0.5731 -0.3275
  494MOL0     C66565   5.789  -0.334   5.260  0.3499 -0.2799  0.1809
  494MOL0     C66566   5.639  -0.322   5.241  0.4081 -0.1615 -0.8372
  494MOL0     C66567   5.577  -0.453   5.284  0.8120  0.8969 -0.1216
  494MOL0     C66568   5.424  -0.455   5.252 -0.6594  0.5259  1.0893
  494MOL0     C66569   5.408  -0.458   5.096 -0.4924  0.3241  0.2352
  494MOL0     C66570   5.260  -0.449   5.053 -0.1078 -0.4908  0.0505
  494MOL0     C66571   5.229  -0.541   4.927 -0.2079  0.2983 -1.1590
  494MOL0     N66572   5.329  -0.528   4.823 -0.3367  0.3839 -0.1172
  494MOL0     C66573   5.374  -0.409   4.773  0.0816 -0.6266  0.0450
  494MOL0     C66574   5.451  -0.437   4.667 -0.1336 -0.7435 -0.4433
  494MOL0     C66575   5.519  -0.345   4.578  0.2718 -0.1919 -0.5305
  494MOL0     C66576   5.663  -0.400   4.545  0.0179 -0.4182 -0.0489
  494MOL0     C66577   5.753  -0.285   4.494  0.4089 -0.0703  0.1803
  494MOL0     C66578   5.882  -0.339   4.445  0.8284  0.9746 -0.6100
  494MOL0     O66579   5.983  -0.240   4.438  0.6583 -0.1650 -0.0040
  494MOL0     C66580   6.101  -0.276   4.391  0.0110  0.1696  0.0937
  494MOL0     C66581   6.121  -0.293   4.256 -0.6724 -1.0968  0.2687
  494MOL0     C66582   6.245  -0.329   4.200 -0.4679 -0.2695 -0.0877
  494MOL0     C66583   6.363  -0.325   4.276  0.4661  0.1193 -0.2673
  494MOL0     C66584   6.483  -0.345   4.207 -0.4827 -0.5771  0.4187
  494MOL0     O66585   6.585  -0.352   4.296 -0.1902 -0.2691 -0.7719
  494MOL0     C66586   6.720  -0.359   4.265 -0.1487  0.4876 -0.6627
  494MOL0     C66587   6.773  -0.396   4.140 -0.5008 -0.0120  0.5532
  494MOL0     C66588   6.910  -0.384   4.121 -0.3913  0.2271 -0.6647
  494MOL0     C66589   6.996  -0.356   4.222 -0.4521 -0.5496 -0.8965
  494MOL0     O66590   7.134  -0.342   4.188  0.3660 -0.0210 -0.7352
  494MOL0     C66591   7.200  -0.229   4.247  0.3951 -0.5249 -0.5705
  494MOL0     C66592   7.352  -0.238   4.207  0.3233 -0.3128  0.3446
  494MOL0     C66593   7.439  -0.336   4.281  1.1754 -0.5621  0.9553
  494MOL0     C66594   7.592  -0.333   4.263  0.0051 -0.4997 -0.1622
  494MOL0     C66595   7.669  -0.413   4.375  0.3830  0.1997  0.2072
  494MOL0     C66596   7.650  -0.349   4.508 -0.0240 -0.9312 -0.7782
  494MOL0     C66597   7.697  -0.449   4.622  1.1227  0.8877 -0.4074
  494MOL0     C66598   7.690  -0.375   4.761  0.8041 -0.6433 -0.7757
  494MOL0    Cl66599   7.525  -0.385   4.797  0.6844 -0.1741  0.3353
  494MOL0     C66600   6.943  -0.331   4.356 -0.6658 -0.2625  0.4268
  494MOL0     C66601   6.808  -0.329   4.375 -0.0128  0.4600  0.7769
  494MOL0     O66602   6.500  -0.353   4.080  0.0092  0.4973  0.4055
  494MOL0     C66603   6.348  -0.303   4.415 -1.4156  0.0802 -0.3534
  494MOL0     C66604   6.212  -0.292   4.470 -0.5829  0.2455 -0.5733
  494MOL0     N66605   5.438  -0.573   4.652  0.2947 -0.0344 -0.4104
  494MOL0     N66606   5.370  -0.622   4.742 -0.0420  0.3524  0.1274
  494MOL0     C66607   5.878  -0.143   5.560 -0.0805  1.8587  0.8608
  494MOL0     C66608   5.859  -0.166   5.695 -0.3053  0.5832 -0.3250
  494MOL0     C66609   5.672  -0.106   6.112  0.7063 -0.7412 -0.5748
  494MOL0     C66610   5.726  -0.221   6.153 -0.8036  1.8310  0.2124
  494MOL0     C66611   5.725  -0.269   6.282 -0.4023 -0.3163  0.5515
  494MOL0     C66612   5.672  -0.188   6.381  0.6975  0.6234 -0.3910
  494MOL0     O66613   5.673  -0.228   6.514  0.8111 -0.0087 -0.2615
  494MOL0     C66614   5.801  -0.223   6.582  0.1197 -0.0160 -0.0930
  494MOL0     C66615   5.819  -0.089   6.645 -0.0361 -0.2951  0.2259
  494MOL0     C66616   5.698  -0.061   6.745 -0.0499 -0.1237 -0.5027
  494MOL0     C66617   5.717   0.074   6.814  0.4243  0.3078  0.5160
  494MOL0     C66618   5.631   0.083   6.930  0.1669  0.1162 -0.2142
  494MOL0     C66619   5.570   0.087   7.034 -0.4710 -0.4346 -0.0221
  494MOL0     C66620   5.611  -0.063   6.348 -0.2796 -0.8569 -0.9277
  494MOL0     C66621   5.613  -0.023   6.210  1.2524 -0.1828 -0.0756
  494MOL0     C66622   5.540   0.106   6.178  0.2563 -0.2891  0.0315
  494MOL0     H66623   5.544  -0.068   5.727  0.6771  3.2576 -0.9843
  494MOL0     H66624   5.568  -0.053   5.471  0.8978  3.1786 -1.1402
  494MOL0     H66625   5.862  -0.145   5.173 -2.0677  2.7479  0.7113
  494MOL0     H66626   5.966  -0.204   5.304  0.5816 -1.6590 -0.5826
  494MOL0     H66627   5.812  -0.381   5.356 -3.8766 -0.0362  1.5187
  494MOL0     H66628   5.828  -0.384   5.171  1.9856  0.7533  0.2704
  494MOL0     H66629   5.616  -0.293   5.138 -1.1474 -4.7872 -2.0683
  494MOL0     H66630   5.602  -0.258   5.321  3.2033 -2.1067  2.2482
  494MOL0     H66631   5.630  -0.541   5.246 -2.6282 -1.1852 -0.4797
  494MOL0     H66632   5.585  -0.459   5.393 -1.0223 -0.8705 -0.0328
  494MOL0     H66633   5.387  -0.551   5.288  4.0261 -1.2583  1.9158
  494MOL0     H66634   5.377  -0.364   5.291 -1.6797  1.0110 -1.1149
  494MOL0     H66635   5.465  -0.371   5.063  1.2373 -0.4027  1.1949
  494MOL0     H66636   5.472  -0.538   5.059 -0.8444 -0.5615  1.4545
  494MOL0     H66637   5.241  -0.344   5.025 -0.3970 -0.0342  1.8763
  494MOL0     H66638   5.191  -0.481   5.132 -1.7539 -0.9020 -1.4790
  494MOL0     H66639   5.226  -0.647   4.954 -0.5705  0.2755 -1.2816
  494MOL0     H66640   5.126  -0.520   4.898 -1.8845 -3.5189  1.1591
  494MOL0     H66641   5.355  -0.309   4.812 -2.1686 -1.3539  0.9629
  494MOL0     H66642   5.467  -0.344   4.482 -0.0350  1.9254 -0.3893
  494MOL0     H66643   5.516  -0.246   4.625 -0.1524 -0.7507  0.6679
  494MOL0     H66644   5.695  -0.450   4.637 -3.1675  0.3219  1.6212
  494MOL0     H66645   5.647  -0.471   4.463  2.3341  2.0040 -2.8317
  494MOL0     H66646   5.784  -0.209   4.566  2.8243  0.0841 -0.9175
  494MOL0     H66647   5.709  -0.230   4.410  2.8672  0.5247 -0.8008
  494MOL0     H66648   5.866  -0.379   4.345 -0.0940  0.4833 -0.2857
  494MOL0     H66649   5.910  -0.413   4.521  0.0435 -1.1357 -2.2580
  494MOL0     H66650   6.041  -0.298   4.182  0.1941 -2.7860 -0.6399
  494MOL0     H66651   6.265  -0.358   4.097 -1.2220  0.6601 -0.5153
  494MOL0     H66652   6.721  -0.412   4.046 -0.5852  1.9445  0.2174
  494MOL0     H66653   6.954  -0.410   4.025 -1.1504 -2.6940 -0.3014
  494MOL0     H66654   7.167  -0.138   4.196  1.1498 -1.7374 -3.3857
  494MOL0     H66655   7.189  -0.223   4.356 -0.1982  2.2880 -0.6969
  494MOL0     H66656   7.356  -0.257   4.100 -1.7186 -0.5470  0.2764
  494MOL0     H66657   7.404  -0.145   4.234 -0.4012 -0.0727  0.9616
  494MOL0     H66658   7.417  -0.322   4.387 -1.4612 -2.0327  0.6810
  494MOL0     H66659   7.411  -0.438   4.253  1.5383 -0.4898  0.3125
  494MOL0     H66660   7.635  -0.233   4.271 -0.9725  0.0615 -1.4513
  494MOL0     H66661   7.614  -0.362   4.160  1.0286 -1.4563  0.3097
  494MOL0     H66662   7.778  -0.422   4.365  0.5610 -3.1138  3.2513
  494MOL0     H66663   7.630  -0.515   4.377  0.1954  0.2809  1.2630
  494MOL0     H66664   7.709  -0.257   4.504 -0.9926 -0.3153 -1.3258
  494MOL0     H66665   7.544  -0.336   4.534  0.0527 -2.3392  0.3682
  494MOL0     H66666   7.801  -0.481   4.607  0.9853 -1.4003  2.5980
  494MOL0     H66667   7.640  -0.541   4.639  2.0181  0.4232  0.1611
  494MOL0     H66668   7.751  -0.426   4.837  1.7782 -1.7336 -2.2387
  494MOL0     H66669   7.726  -0.272   4.749  1.2738 -0.7017  0.0434
  494MOL0     H66670   6.996  -0.311   4.448  1.6288 -2.9825 -0.1760
  494MOL0     H66671   6.757  -0.309   4.469  0.7521  2.3698  0.8403
  494MOL0     H66672   6.439  -0.298   4.474 -1.9315  0.0191  0.4599
  494MOL0     H66673   6.194  -0.264   4.574 -0.7960 -3.4087  0.5097
  494MOL0     H66674   5.974  -0.163   5.515 -0.2179  1.6730  0.6496
  494MOL0     H66675   5.951  -0.203   5.739  1.1413  0.8579 -2.9733
  494MOL0     H66676   5.774  -0.289   6.084  0.8218  0.6407  2.3664
  494MOL0     H66677   5.775  -0.363   6.302  0.4139  0.1050  0.5315
  494MOL0     H66678   5.885  -0.248   6.517  1.7952  0.1734  1.8923
  494MOL0     H66679   5.793  -0.299   6.659  2.1112  0.4622  0.6400
  494MOL0     H66680   5.822  -0.007   6.572  0.3800  0.7714  1.3925
  494MOL0     H66681   5.917  -0.091   6.694  1.2893 -1.5839 -2.2782
  494MOL0     H66682   5.714  -0.133   6.826 -0.4162  2.3957  1.9703
  494MOL0     H66683   5.597  -0.072   6.705  0.4346  0.0344 -1.8255
  494MOL0     H66684   5.814   0.070   6.865 -0.5974  3.7410  3.0828
  494MOL0     H66685   5.698   0.162   6.752 -0.9654  0.2336  0.8069
  494MOL0     H66686   5.518   0.078   7.127 -0.3947 -1.3537 -0.0600
  494MOL0     H66687   5.548  -0.016   6.423 -0.2161 -1.6091 -0.3989
  494MOL0     H66688   5.494   0.157   6.264  1.2833  1.4616 -0.4096
  494MOL0     H66689   5.609   0.178   6.134 -1.6569  1.1439 -0.7708
  494MOL0     H66690   5.466   0.084   6.101 -1.1104  0.5692  1.0509
  495MOL0     O66691   8.244   8.685   2.379 -0.5464  0.0147 -0.1806
  495MOL0     C66692   8.194   8.784   2.322 -1.3727 -0.7421 -0.3158
  495MOL0     O66693   8.228   8.828   2.191 -1.2051  0.9910  0.1805
  495MOL0     C66694   8.342   8.787   2.139  0.1415 -0.2141  0.0562
  495MOL0     C66695   8.420   8.882   2.072 -0.5851 -0.1432  0.2324
  495MOL0     C66696   8.520   8.842   1.984 -0.2243  0.3922 -0.0911
  495MOL0     C66697   8.562   8.706   1.969  1.0072 -0.3066 -0.0672
  495MOL0     O66698   8.669   8.670   1.893  0.1769 -0.0512 -0.5451
  495MOL0     C66699   8.752   8.763   1.832  0.0996 -0.5085 -0.1989
  495MOL0     C66700   8.871   8.697   1.781  1.2941 -0.5121 -0.1955
  495MOL0     C66701   8.845   8.591   1.676  0.6060  0.4454  0.6072
  495MOL0     C66702   8.976   8.526   1.630  0.2408 -0.1003 -0.4821
  495MOL0     C66703   8.947   8.422   1.524  0.3110  0.0649 -0.3759
  495MOL0     C66704   9.073   8.354   1.464  0.6257 -0.0481 -0.0745
  495MOL0     C66705   9.035   8.263   1.344  0.4301  0.8533 -0.1151
  495MOL0     C66706   9.018   8.341   1.215 -0.3610  0.2307  0.1497
  495MOL0     N66707   8.969   8.255   1.104 -0.0579 -0.1871 -0.6718
  495MOL0     C66708   9.037   8.163   1.028 -0.0431 -0.5269 -0.0636
  495MOL0     C66709   8.945   8.126   0.936  0.1060  1.6357 -0.1560
  495MOL0     C66710   8.956   8.029   0.826 -0.0993  0.1008  0.1286
  495MOL0     C66711   8.820   7.951   0.789  0.3982  0.0856 -0.1523
  495MOL0     C66712   8.764   7.871   0.911 -0.0174  0.5835 -0.2608
  495MOL0     C66713   8.641   7.807   0.861  0.6386  0.4081  0.4908
  495MOL0     O66714   8.561   7.749   0.970 -0.3623  0.9267 -0.6567
  495MOL0     C66715   8.589   7.628   1.032  0.6861 -0.5804  0.0632
  495MOL0     C66716   8.701   7.558   1.019 -0.4727  0.0337  0.0545
  495MOL0     C66717   8.725   7.446   1.099  0.0800 -0.8119 -1.2325
  495MOL0     C66718   8.621   7.390   1.176  0.8259 -0.3247 -0.3201
  495MOL0     C66719   8.648   7.278   1.277 -0.6756  0.5384 -0.6420
  495MOL0     O66720   8.780   7.233   1.292  0.0947 -0.2975  0.1596
  495MOL0     C66721   8.819   7.153   1.395  0.3698 -0.0385 -0.6787
  495MOL0     C66722   8.747   7.037   1.425  0.4170 -0.3589  0.0090
  495MOL0     C66723   8.793   6.948   1.522  0.3386  1.1828  0.2347
  495MOL0     C66724   8.910   6.972   1.590  1.0938 -0.2229  0.6806
  495MOL0     O66725   8.946   6.900   1.696  0.7594  0.3553  0.3314
  495MOL0     C66726   9.074   6.916   1.761 -0.0859 -0.6246 -1.2130
  495MOL0     C66727   9.083   6.832   1.883 -0.0375  0.8586  0.0636
  495MOL0     C66728   8.994   6.871   1.997  0.0724 -0.0597 -0.4365
  495MOL0     C66729   9.036   6.812   2.138 -0.3451  0.4737  0.6276
  495MOL0     C66730   8.921   6.820   2.238  0.1001  0.1051  0.0610
  495MOL0     C66731   8.924   6.940   2.332  0.3267  0.4505  0.1302
  495MOL0     C66732   8.809   6.932   2.431  0.1490  0.8903 -0.0673
  495MOL0     C66733   8.816   6.822   2.538  0.6327  0.1505 -0.0649
  495MOL0    Cl66734   8.661   6.849   2.635 -0.1586 -0.3408 -0.1258
  495MOL0     C66735   8.982   7.087   1.559 -0.1940  0.3878 -0.7115
  495MOL0     C66736   8.934   7.175   1.463  0.8099  1.4629 -0.6201
  495MOL0     O66737   8.555   7.237   1.346  0.2857 -0.9030  0.3546
  495MOL0     C66738   8.496   7.466   1.185 -0.2255  0.0553  0.0295
  495MOL0     C66739   8.491   7.583   1.115  0.5163  0.4725  0.0209
  495MOL0     N66740   8.824   8.193   0.962  0.2419  0.7976 -0.3930
  495MOL0     N66741   8.839   8.271   1.054  0.5583  0.2613 -0.1672
  495MOL0     C66742   8.488   8.617   2.043 -0.4865 -0.3336  0.7661
  495MOL0     C66743   8.377   8.656   2.112 -0.3079  0.6658  0.3955
  495MOL0     C66744   8.080   8.843   2.406 -1.0705 -0.1314  0.1498
  495MOL0     C66745   8.024   8.765   2.505 -0.5705 -0.3964  0.4658
  495MOL0     C66746   7.914   8.808   2.588 -0.4641 -0.1957  0.4489
  495MOL0     C66747   7.851   8.935   2.560  0.1689 -0.0631 -0.5407
  495MOL0     O66748   7.739   8.995   2.624 -0.3747 -0.2457 -0.2809
  495MOL0     C66749   7.705   8.938   2.750 -0.1059  0.9422 -0.4597
  495MOL0     C66750   7.607   9.032   2.825 -0.6112  0.5771 -0.6568
  495MOL0     C66751   7.498   9.079   2.736  1.2825  0.1757 -0.6256
  495MOL0     C66752   7.383   9.160   2.816 -0.0605  1.5696  0.0913
  495MOL0     C66753   7.285   9.074   2.858 -0.5681  0.4167 -1.3157
  495MOL0     C66754   7.198   8.994   2.889  0.6907  0.3388  0.4287
  495MOL0     C66755   7.909   9.012   2.451  0.4178  0.1307  1.0500
  495MOL0     C66756   8.025   8.971   2.381 -0.0721 -0.3637 -0.0127
  495MOL0     C66757   8.089   9.066   2.279 -0.4354 -1.3607 -0.8038
  495MOL0     H66758   8.390   8.986   2.080  0.7687  0.2648  0.3668
  495MOL0     H66759   8.567   8.926   1.934  4.2708 -2.7507 -1.7700
  495MOL0     H66760   8.708   8.820   1.749  1.4651  1.3496  0.2730
  495MOL0     H66761   8.780   8.837   1.908 -2.1672 -2.7255  3.0330
  495MOL0     H66762   8.921   8.650   1.866  2.1491  1.4235  0.4093
  495MOL0     H66763   8.940   8.774   1.747  0.7525  0.5579  1.0770
  495MOL0     H66764   8.794   8.638   1.591  1.6658  0.7379  0.1169
  495MOL0     H66765   8.775   8.516   1.714  3.7190 -1.6578  2.6884
  495MOL0     H66766   9.042   8.606   1.595  0.0290  0.6258  0.7232
  495MOL0     H66767   9.040   8.491   1.712 -0.3011  1.9537  0.9042
  495MOL0     H66768   8.881   8.342   1.561  1.3966 -0.0494  1.4226
  495MOL0     H66769   8.903   8.479   1.442 -0.0105  2.9145  1.6389
  495MOL0     H66770   9.142   8.437   1.445  0.4135  0.1784  0.1349
  495MOL0     H66771   9.131   8.297   1.538 -0.0709  3.6181  3.6598
  495MOL0     H66772   8.941   8.209   1.360 -0.0139  2.2218  2.5043
  495MOL0     H66773   9.115   8.191   1.323 -0.3753  0.5891 -2.6379
  495MOL0     H66774   8.954   8.427   1.235 -0.2555  0.5227 -0.7332
  495MOL0     H66775   9.114   8.378   1.178 -0.4794  1.8726  1.3698
  495MOL0     H66776   9.139   8.127   1.019 -0.8189 -2.4012 -2.5151
  495MOL0     H66777   8.993   8.073   0.733 -2.4092 -0.7902 -1.3176
  495MOL0     H66778   9.020   7.950   0.864 -0.7206  0.2223  1.4988
  495MOL0     H66779   8.755   8.033   0.754  1.8709  2.4089  2.2043
  495MOL0     H66780   8.829   7.881   0.706 -1.1719  2.1832 -2.2397
  495MOL0     H66781   8.723   7.934   0.990 -0.9681  2.5438 -2.2172
  495MOL0     H66782   8.831   7.799   0.959 -1.2376 -1.6305 -1.6655
  495MOL0     H66783   8.659   7.725   0.790  1.6450  2.0267 -1.1921
  495MOL0     H66784   8.584   7.884   0.808 -0.2386 -1.2724 -1.1313
  495MOL0     H66785   8.777   7.585   0.946 -0.3244  1.6316  0.7561
  495MOL0     H66786   8.821   7.395   1.105  1.9064  2.5402  1.7748
  495MOL0     H66787   8.650   7.012   1.384 -0.2774  0.0411  1.3478
  495MOL0     H66788   8.728   6.865   1.549 -0.7568  1.8131 -0.3555
  495MOL0     H66789   9.156   6.891   1.694  0.3773 -0.5492 -0.6872
  495MOL0     H66790   9.090   7.020   1.792  1.2770 -0.6620 -1.7381
  495MOL0     H66791   9.052   6.730   1.858 -0.6836  0.3786  2.5378
  495MOL0     H66792   9.187   6.826   1.916 -0.6622  0.1867  2.0704
  495MOL0     H66793   8.993   6.980   2.010 -1.2994 -0.2024  1.0750
  495MOL0     H66794   8.896   6.839   1.961 -0.4536 -1.9100  2.2946
  495MOL0     H66795   9.135   6.843   2.172  0.8128 -2.7474  0.5402
  495MOL0     H66796   9.049   6.707   2.109 -2.3489  1.1621 -3.3949
  495MOL0     H66797   8.906   6.723   2.286  3.0356 -0.4322  0.0977
  495MOL0     H66798   8.833   6.836   2.174  0.6655  0.5432 -0.6335
  495MOL0     H66799   9.019   6.947   2.386  0.0167  3.1109  0.4530
  495MOL0     H66800   8.907   7.039   2.289 -0.2763  0.1676 -0.3026
  495MOL0     H66801   8.723   6.912   2.366  2.0192 -2.2586 -1.8121
  495MOL0     H66802   8.807   7.031   2.479  3.8084  1.1218 -0.1286
  495MOL0     H66803   8.818   6.717   2.509 -0.1805 -0.5230  2.0712
  495MOL0     H66804   8.901   6.841   2.605  0.2573 -1.2800  0.8611
  495MOL0     H66805   9.078   7.106   1.606 -0.1319  1.5445 -1.2803
  495MOL0     H66806   8.998   7.249   1.416  1.5187 -0.5943 -3.1346
  495MOL0     H66807   8.419   7.440   1.255 -2.3672 -0.6674 -2.4307
  495MOL0     H66808   8.394   7.631   1.125 -0.1303 -0.4445 -1.5197
  495MOL0     H66809   8.510   8.511   2.048  3.0824 -0.0067 -2.7757
  495MOL0     H66810   8.322   8.574   2.157 -0.5157  0.1292 -0.8155
  495MOL0     H66811   8.069   8.667   2.514  1.3575 -0.1764 -3.8998
  495MOL0     H66812   7.879   8.737   2.662 -0.6987 -1.9085 -1.2487
  495MOL0     H66813   7.790   8.909   2.813  0.0185 -0.8376 -1.3764
  495MOL0     H66814   7.654   8.843   2.730  0.9972  0.2446 -0.0650
  495MOL0     H66815   7.665   9.110   2.875  2.3683 -3.5776  3.1632
  495MOL0     H66816   7.567   8.959   2.896  0.8072 -1.4276 -1.7854
  495MOL0     H66817   7.462   8.989   2.687 -0.2915  0.0719  0.6459
  495MOL0     H66818   7.519   9.142   2.649 -0.0257  2.1448  0.3991
  495MOL0     H66819   7.425   9.207   2.906 -1.6646 -0.1117  1.7926
  495MOL0     H66820   7.331   9.231   2.750  0.0449  0.9864 -0.6321
  495MOL0     H66821   7.116   8.928   2.908  0.3044  1.1611  1.7404
  495MOL0     H66822   7.863   9.109   2.432 -1.9666 -0.8674  1.2991
  495MOL0     H66823   8.197   9.072   2.290 -0.6528  3.8410  1.4245
  495MOL0     H66824   8.080   9.034   2.175 -3.2620 -0.2306 -1.0104
  495MOL0     H66825   8.040   9.163   2.288 -0.9835 -1.3920 -2.8504
  496MOL0     O66826   8.156  10.170   8.075 -0.6089 -0.0130  0.5275
  496MOL0     C66827   8.217  10.140   8.174  0.1736  0.3155  0.1609
  496MOL0     O66828   8.163  10.109   8.293  0.3645 -0.5963 -0.2357
  496MOL0     C66829   8.027  10.083   8.297 -0.8512  0.5161 -0.3313
  496MOL0     C66830   7.971   9.958   8.252 -0.7263 -0.6821 -0.2404
  496MOL0     C66831   7.833   9.948   8.234  0.3172  0.2318  0.4558
  496MOL0     C66832   7.748  10.052   8.254 -0.2895  0.4101  0.4496
  496MOL0     O66833   7.614  10.034   8.242  0.3666 -1.2692 -0.2997
  496MOL0     C66834   7.563  10.073   8.107 -0.2888 -0.2430 -0.0387
  496MOL0     C66835   7.420  10.036   8.106 -0.9289  0.5617  1.0334
  496MOL0     C66836   7.387   9.889   8.150 -0.1806  0.5794 -0.5842
  496MOL0     C66837   7.447   9.794   8.045 -0.2078  1.1048 -0.6328
  496MOL0     C66838   7.450   9.649   8.090  0.3498 -0.6100  0.7932
  496MOL0     C66839   7.322   9.572   8.069 -0.4366  0.0956  1.0786
  496MOL0     C66840   7.295   9.441   8.149  0.9171 -0.5672 -0.7990
  496MOL0     C66841   7.371   9.325   8.074 -0.3548  0.4786  0.1569
  496MOL0     N66842   7.445   9.246   8.179 -0.3717 -0.2069  0.7765
  496MOL0     C66843   7.572   9.272   8.226 -0.7331  0.6750  0.0311
  496MOL0     C66844   7.603   9.178   8.316 -0.9591  0.7907 -0.5079
  496MOL0     C66845   7.733   9.161   8.389  0.3101  1.1314  0.4440
  496MOL0     C66846   7.812   9.040   8.333 -0.8610 -1.3921 -1.2513
  496MOL0     C66847   7.866   9.062   8.191 -0.0659 -0.3104  0.6258
  496MOL0     C66848   7.948   9.198   8.163  0.5028  0.6259 -0.2226
  496MOL0     O66849   7.981   9.188   8.024 -0.5632 -0.0992  0.2671
  496MOL0     C66850   8.100   9.244   7.986  0.2291 -0.4575 -0.3448
  496MOL0     C66851   8.157   9.203   7.866 -0.4301 -0.0908 -0.2165
  496MOL0     C66852   8.289   9.223   7.832  0.3581 -0.2674 -0.3225
  496MOL0     C66853   8.375   9.297   7.918 -0.3550 -0.2988 -0.2200
  496MOL0     C66854   8.515   9.321   7.887  0.7457  0.1725 -0.0640
  496MOL0     O66855   8.570   9.427   7.950  0.1173 -0.3476  0.1242
  496MOL0     C66856   8.690   9.462   7.916 -0.1929  0.1143 -0.2927
  496MOL0     C66857   8.793   9.384   7.962  0.3733  0.1165  0.3788
  496MOL0     C66858   8.927   9.421   7.941 -0.7340  0.0308  0.2877
  496MOL0     C66859   8.964   9.539   7.865  0.7240 -0.6285  0.3235
  496MOL0     O66860   9.089   9.566   7.838 -0.8913 -0.6588  0.2890
  496MOL0     C66861   9.131   9.705   7.796 -0.3904 -0.0877 -0.3219
  496MOL0     C66862   9.116   9.815   7.906 -0.2391  0.2499  1.1789
  496MOL0     C66863   9.173   9.762   8.040 -0.7067  0.0925  0.0226
  496MOL0     C66864   9.145   9.875   8.144 -0.5016  0.5749  0.1349
  496MOL0     C66865   9.215   9.843   8.278 -0.1985  0.2716  0.1677
  496MOL0     C66866   9.364   9.838   8.275 -0.4025  0.3508  0.3569
  496MOL0     C66867   9.412   9.865   8.423  0.0317  0.1597  0.0098
  496MOL0     C66868   9.558   9.832   8.438 -0.0399  0.6712  0.1965
  496MOL0    Cl66869   9.654   9.959   8.353  0.4450  0.1151  0.3503
  496MOL0     C66870   8.850   9.607   7.813 -0.1573  0.2008 -0.3413
  496MOL0     C66871   8.714   9.577   7.846 -0.2246  0.5005 -0.3960
  496MOL0     O66872   8.565   9.250   7.803 -0.3508  1.0684 -0.7449
  496MOL0     C66873   8.322   9.349   8.037  0.0612 -0.5917 -0.5660
  496MOL0     C66874   8.185   9.323   8.067  0.8245 -0.3274 -0.0843
  496MOL0     N66875   7.485   9.102   8.337  1.0969  0.2457 -0.2878
  496MOL0     N66876   7.392   9.151   8.256  0.8556 -0.2639  0.1208
  496MOL0     C66877   7.804  10.174   8.306 -0.0372  0.2085 -0.6645
  496MOL0     C66878   7.939  10.187   8.322 -0.0389 -0.6904 -0.0019
  496MOL0     C66879   8.365  10.124   8.155  1.2133 -0.0804  0.1957
  496MOL0     C66880   8.426  10.222   8.079  0.7851  0.5298 -0.0231
  496MOL0     C66881   8.565  10.233   8.078 -0.1003 -0.2990  0.3039
  496MOL0     C66882   8.644  10.136   8.148  0.5726  0.5129  0.0866
  496MOL0     O66883   8.787  10.129   8.165 -0.2630 -0.2323 -0.1932
  496MOL0     C66884   8.861  10.255   8.128 -0.2951  0.3729 -0.7737
  496MOL0     C66885   9.009  10.228   8.142 -0.2026 -0.1277  0.1643
  496MOL0     C66886   9.095  10.338   8.093 -0.5761 -1.0337 -0.6235
  496MOL0     C66887   9.225  10.366   8.160 -1.0071  0.4190  0.2052
  496MOL0     C66888   9.329  10.271   8.134 -0.3218 -0.3397 -0.2268
  496MOL0     C66889   9.408  10.179   8.130  0.7121 -0.3884 -0.0176
  496MOL0     C66890   8.576  10.034   8.216 -0.3665 -0.0567  1.1805
  496MOL0     C66891   8.439  10.023   8.221  0.7136  0.6184  0.2326
  496MOL0     C66892   8.380   9.914   8.318 -0.3341  0.0566 -0.6937
  496MOL0     H66893   8.040   9.878   8.225 -0.1311 -1.4589  3.1530
  496MOL0     H66894   7.807   9.854   8.188  0.3151 -0.2819  1.4940
  496MOL0     H66895   7.578  10.180   8.089  0.2288  0.0443  1.9450
  496MOL0     H66896   7.629  10.028   8.031 -1.5292 -1.8836 -0.2107
  496MOL0     H66897   7.389  10.047   8.002 -0.5126 -3.1978  0.3422
  496MOL0     H66898   7.357  10.103   8.166 -0.1356  1.1346  1.2365
  496MOL0     H66899   7.279   9.878   8.165  0.0169  1.7306  2.3021
  496MOL0     H66900   7.435   9.869   8.247  1.2516  1.0643 -1.1744
  496MOL0     H66901   7.399   9.810   7.947  1.0348 -0.3682 -1.5195
  496MOL0     H66902   7.549   9.823   8.021  0.7552 -1.2912  0.3150
  496MOL0     H66903   7.516   9.589   8.028  0.5639  1.6287 -1.2948
  496MOL0     H66904   7.487   9.653   8.193 -2.2906  0.1856  1.7832
  496MOL0     H66905   7.249   9.644   8.107 -1.2032  0.7284 -1.3508
  496MOL0     H66906   7.304   9.562   7.961  2.8093  1.0509  0.3383
  496MOL0     H66907   7.188   9.428   8.169  0.4447  4.0533  0.9163
  496MOL0     H66908   7.322   9.432   8.255  3.6717 -2.4045 -1.5621
  496MOL0     H66909   7.297   9.261   8.025  1.4752 -0.8879 -0.9792
  496MOL0     H66910   7.446   9.371   8.009 -2.3785  2.3342 -1.0175
  496MOL0     H66911   7.638   9.349   8.189  0.2330  0.2114  0.7372
  496MOL0     H66912   7.791   9.253   8.396  0.2804  1.2948 -1.1162
  496MOL0     H66913   7.697   9.129   8.487  1.0473  0.3861  0.4865
  496MOL0     H66914   7.891   9.015   8.403 -0.2000 -2.2076 -2.2542
  496MOL0     H66915   7.742   8.956   8.326 -1.4961 -0.9633 -0.2688
  496MOL0     H66916   7.781   9.064   8.122  0.8396  0.1412 -0.5141
  496MOL0     H66917   7.931   8.982   8.154  1.8249  1.1943  0.5459
  496MOL0     H66918   8.032   9.189   8.233  2.0716 -0.5628 -2.1576
  496MOL0     H66919   7.874   9.275   8.185 -1.7691 -1.3999 -0.3323
  496MOL0     H66920   8.094   9.144   7.800  0.0815  2.2509 -2.9984
  496MOL0     H66921   8.317   9.171   7.740 -0.6533 -0.9380 -0.2705
  496MOL0     H66922   8.765   9.290   8.008  1.0880 -0.6838 -0.7761
  496MOL0     H66923   9.002   9.348   7.970 -0.4250  0.0017 -0.5702
  496MOL0     H66924   9.234   9.702   7.760 -1.2217  2.0670 -3.3261
  496MOL0     H66925   9.070   9.739   7.711 -0.0935  2.7690  0.5177
  496MOL0     H66926   9.161   9.908   7.872  0.5066 -0.7957 -0.8975
  496MOL0     H66927   9.013   9.849   7.918  0.4018  2.4514  0.8460
  496MOL0     H66928   9.127   9.667   8.067  4.3566 -2.1197  1.9100
  496MOL0     H66929   9.280   9.743   8.031  0.0083  3.3442  0.2295
  496MOL0     H66930   9.038   9.898   8.153  0.0970  4.3678 -0.6603
  496MOL0     H66931   9.199   9.968   8.125  3.8308 -1.3279  1.8901
  496MOL0     H66932   9.168   9.755   8.322  0.1339  0.2877  0.5589
  496MOL0     H66933   9.187   9.925   8.345 -4.1253 -1.8841  1.5238
  496MOL0     H66934   9.391   9.735   8.249  1.8197  1.4035 -1.8363
  496MOL0     H66935   9.411   9.906   8.204 -0.0538 -1.6710 -1.4551
  496MOL0     H66936   9.359   9.794   8.488 -0.5875  0.2361 -0.4146
  496MOL0     H66937   9.406   9.971   8.448  1.0129  0.3386 -0.4618
  496MOL0     H66938   9.597   9.824   8.540 -0.4297  1.7148  0.4381
  496MOL0     H66939   9.580   9.732   8.400  2.4958  1.0567  0.4731
  496MOL0     H66940   8.868   9.697   7.755 -2.0921 -1.0653 -3.1335
  496MOL0     H66941   8.642   9.653   7.819 -0.4225  0.2596 -0.5378
  496MOL0     H66942   8.388   9.407   8.101  0.2438 -2.1959  0.7534
  496MOL0     H66943   8.141   9.362   8.158 -0.0362  2.3639 -1.5668
  496MOL0     H66944   7.741  10.262   8.314 -0.7898 -0.0443 -2.9071
  496MOL0     H66945   7.977  10.286   8.346 -3.3034  0.2955  1.8092
  496MOL0     H66946   8.381  10.301   8.020  2.7052 -0.5386 -3.1602
  496MOL0     H66947   8.623  10.299   8.014  0.6456 -0.3535  0.9069
  496MOL0     H66948   8.817  10.334   8.191  0.4972 -1.2578  1.9727
  496MOL0     H66949   8.841  10.280   8.023 -0.1669  1.7559 -0.4901
  496MOL0     H66950   9.049  10.133   8.105 -2.7180 -1.9268  1.6983
  496MOL0     H66951   9.030  10.225   8.250 -1.9755  0.4711  0.5468
  496MOL0     H66952   9.031  10.427   8.097 -1.1150 -1.4038 -0.8888
  496MOL0     H66953   9.118  10.314   7.989  3.0982  0.6727 -0.3624
  496MOL0     H66954   9.264  10.463   8.126  1.2678 -1.2539 -2.3679
  496MOL0     H66955   9.221  10.366   8.270  0.7713  1.9044  0.3292
  496MOL0     H66956   9.459  10.087   8.110 -1.3048 -2.3351  2.8305
  496MOL0     H66957   8.643   9.965   8.266 -0.0678 -1.1077 -0.6025
  496MOL0     H66958   8.467   9.866   8.364 -0.4008 -1.8904 -2.4525
  496MOL0     H66959   8.324   9.953   8.404  0.1999  1.0486 -0.7718
  496MOL0     H66960   8.329   9.836   8.262  0.1638  0.3929 -1.6381
  497MOL0     O66961   5.481   8.174   9.743 -0.2193 -0.5984 -0.7112
  497MOL0     C66962   5.506   8.291   9.780 -0.8133 -0.4071 -0.1376
  497MOL0     O66963   5.635   8.329   9.816  0.6289  0.4344 -0.3582
  497MOL0     C66964   5.724   8.223   9.824 -0.6774  1.1884  0.4789
  497MOL0     C66965   5.817   8.205   9.716  0.4785  0.9408 -1.1371
  497MOL0     C66966   5.903   8.093   9.718  0.5855  0.8440 -0.0418
  497MOL0     C66967   5.923   8.018   9.835  0.5260 -0.0952 -0.6872
  497MOL0     O66968   6.019   7.919   9.863 -0.1307 -0.0165  0.0142
  497MOL0     C66969   6.127   7.907   9.769  0.3544 -0.1490  0.7748
  497MOL0     C66970   6.222   7.789   9.806  0.4859 -0.3240  0.5618
  497MOL0     C66971   6.307   7.792   9.945 -0.6524 -0.3266 -0.9004
  497MOL0     C66972   6.264   7.705  10.061  0.0343  0.4079  0.0302
  497MOL0     C66973   6.331   7.755  10.194 -0.4264  0.1854 -0.1127
  497MOL0     C66974   6.318   7.643  10.313  0.4206  0.8930  0.6795
  497MOL0     C66975   6.368   7.690  10.445 -0.5521  0.7520 -0.3196
  497MOL0     C66976   6.402   7.574  10.540 -0.2410  0.0730 -0.4565
  497MOL0     N66977   6.458   7.624  10.660  0.1742  0.2980 -0.7723
  497MOL0     C66978   6.400   7.710  10.753  0.1925  0.2213  0.3989
  497MOL0     C66979   6.492   7.741  10.840  0.6264 -0.2663 -1.0562
  497MOL0     C66980   6.464   7.823  10.967 -0.6840 -0.3142  0.2489
  497MOL0     C66981   6.519   7.969  10.970  0.6369 -0.3460 -0.2117
  497MOL0     C66982   6.671   7.985  11.021  0.1979  0.2270  0.4240
  497MOL0     C66983   6.710   8.130  11.078  0.1769 -0.0055 -0.3938
  497MOL0     O66984   6.627   8.232  11.038  0.4916  0.5031 -0.5304
  497MOL0     C66985   6.662   8.304  10.934 -0.7972 -0.4982  0.2202
  497MOL0     C66986   6.555   8.354  10.855  0.0818  0.0543 -0.6911
  497MOL0     C66987   6.586   8.445  10.745 -0.1757 -1.2052  0.1070
  497MOL0     C66988   6.725   8.482  10.721 -0.4865 -0.2798 -0.1192
  497MOL0     C66989   6.754   8.571  10.602  0.6533 -0.0884  0.9950
  497MOL0     O66990   6.889   8.612  10.583  0.1405  0.4579 -0.4456
  497MOL0     C66991   6.932   8.728  10.511 -0.2736 -0.1339  0.6809
  497MOL0     C66992   7.057   8.718  10.450  0.4706 -0.4660  0.3691
  497MOL0     C66993   7.114   8.832  10.385  1.3135 -0.4461 -0.4155
  497MOL0     C66994   7.036   8.960  10.374 -0.7282 -0.4749  0.0471
  497MOL0     O66995   7.095   9.063  10.305 -0.1341  0.0855  0.1548
  497MOL0     C66996   7.033   9.112  10.186  0.0536 -0.2701 -0.2104
  497MOL0     C66997   6.969   9.241  10.204  0.8143 -0.4519  0.7644
  497MOL0     C66998   7.047   9.340  10.280  0.6200 -0.7289  0.2415
  497MOL0     C66999   7.039   9.487  10.224 -0.5987  1.0561 -0.1945
  497MOL0     C67000   7.077   9.585  10.325 -0.0962 -0.4868 -0.9070
  497MOL0     C67001   7.044   9.723  10.271  0.1346 -0.1631 -0.9930
  497MOL0     C67002   6.911   9.770  10.307  0.5328  0.2398  0.8507
  497MOL0     C67003   6.896   9.925  10.305  0.6265  0.3403 -0.3123
  497MOL0    Cl67004   6.943   9.993  10.148  0.2838 -0.2015 -0.0748
  497MOL0     C67005   6.907   8.956  10.427  0.4567  0.3547 -0.5879
  497MOL0     C67006   6.859   8.844  10.506 -0.1428 -0.1753  0.2330
  497MOL0     O67007   6.661   8.616  10.544 -0.0752 -0.1762 -0.4056
  497MOL0     C67008   6.824   8.424  10.800 -0.2894 -0.6240 -0.2672
  497MOL0     C67009   6.796   8.343  10.906 -0.2356 -1.0166 -0.8476
  497MOL0     N67010   6.605   7.672  10.807 -0.0883 -0.7246 -0.2433
  497MOL0     N67011   6.584   7.607  10.700  0.5566 -1.0609  0.7665
  497MOL0     C67012   5.839   8.049   9.940 -0.5724 -0.5848  0.2422
  497MOL0     C67013   5.729   8.134   9.932 -1.4923  0.0714  0.3884
  497MOL0     C67014   5.409   8.406   9.784  0.5176 -0.2784  0.2192
  497MOL0     C67015   5.448   8.533   9.841 -0.4767  0.4720  0.4169
  497MOL0     C67016   5.355   8.633   9.854  1.1950  0.4274 -0.6956
  497MOL0     C67017   5.225   8.625   9.809  0.3838  0.0045  1.1965
  497MOL0     O67018   5.146   8.738   9.834  0.3451  0.8243 -0.2778
  497MOL0     C67019   5.017   8.750   9.781 -0.9520  0.5092  0.0663
  497MOL0     C67020   4.947   8.869   9.852 -0.4250 -0.1517  0.0142
  497MOL0     C67021   4.916   8.851   9.999  0.4772 -0.3061  0.0674
  497MOL0     C67022   4.818   8.953  10.057 -0.2262 -0.2504  0.7538
  497MOL0     C67023   4.681   8.941   9.996 -0.5873  0.4526 -0.0353
  497MOL0     C67024   4.570   8.927   9.950 -1.3341  0.3162  0.0704
  497MOL0     C67025   5.193   8.510   9.740 -0.3517  0.2336  0.5942
  497MOL0     C67026   5.282   8.403   9.729  0.0404 -0.1692  0.1738
  497MOL0     C67027   5.223   8.287   9.640 -0.0821 -0.8157  0.4271
  497MOL0     H67028   5.826   8.265   9.626 -0.0608  0.5492 -1.4566
  497MOL0     H67029   5.963   8.076   9.629  0.5294 -2.7088  0.4430
  497MOL0     H67030   6.081   7.887   9.672 -3.0919  0.9424  2.0526
  497MOL0     H67031   6.185   8.000   9.761 -1.7203  1.6323  4.0996
  497MOL0     H67032   6.280   7.774   9.715 -1.2229 -1.6177 -0.3616
  497MOL0     H67033   6.165   7.696   9.811  0.1239 -0.0957  0.6752
  497MOL0     H67034   6.306   7.895   9.982 -1.6703 -1.6044  3.2335
  497MOL0     H67035   6.413   7.772   9.930 -0.6059 -0.1495 -0.8135
  497MOL0     H67036   6.155   7.705  10.066 -0.0611 -0.9686 -1.2661
  497MOL0     H67037   6.288   7.601  10.037 -0.6396 -1.0838  4.8346
  497MOL0     H67038   6.439   7.760  10.177 -0.2230  0.1138  1.0953
  497MOL0     H67039   6.298   7.848  10.241  0.6802 -0.6027  2.4318
  497MOL0     H67040   6.214   7.616  10.331  1.1488 -0.8322  2.7550
  497MOL0     H67041   6.364   7.552  10.271  0.4834  2.0298 -1.8909
  497MOL0     H67042   6.291   7.744  10.500  0.6216  1.8138  0.3379
  497MOL0     H67043   6.461   7.745  10.430  0.7502 -1.1898  0.2326
  497MOL0     H67044   6.307   7.523  10.556 -0.6248  1.2314  1.3430
  497MOL0     H67045   6.473   7.515  10.483  0.3837  1.8730 -1.6167
  497MOL0     H67046   6.293   7.724  10.739  0.1048 -0.1811  0.6448
  497MOL0     H67047   6.358   7.819  10.994 -0.6778  0.6502  0.4480
  497MOL0     H67048   6.517   7.774  11.049  1.2075  1.6202  0.2619
  497MOL0     H67049   6.506   8.007  10.868 -1.0828 -3.1565 -1.1437
  497MOL0     H67050   6.453   8.038  11.022 -0.9714  0.0576 -2.5966
  497MOL0     H67051   6.728   7.968  10.928 -1.3036 -0.5711 -0.3790
  497MOL0     H67052   6.695   7.904  11.090  0.2057 -1.3770 -1.3906
  497MOL0     H67053   6.817   8.139  11.060  0.6701 -3.4105  0.2419
  497MOL0     H67054   6.715   8.130  11.188  0.7622  1.3718 -0.3999
  497MOL0     H67055   6.453   8.321  10.868  0.1911  0.2127  0.6971
  497MOL0     H67056   6.505   8.475  10.680  1.6317 -2.7622 -3.0764
  497MOL0     H67057   7.108   8.622  10.456 -0.4712 -0.9355  1.2241
  497MOL0     H67058   7.207   8.813  10.333  1.4197  0.8066 -0.6996
  497MOL0     H67059   7.110   9.125  10.109  0.7528 -4.7948 -0.5183
  497MOL0     H67060   6.961   9.037  10.152 -0.9102 -0.2476  1.6504
  497MOL0     H67061   6.936   9.273  10.104 -1.3544 -2.1709  0.8513
  497MOL0     H67062   6.875   9.223  10.257  0.1530  0.7039  0.0134
  497MOL0     H67063   7.014   9.336  10.384  2.0252  2.1586  0.8843
  497MOL0     H67064   7.152   9.314  10.294  0.5319 -1.5631 -0.5181
  497MOL0     H67065   6.934   9.498  10.197 -0.5129  0.2302 -0.9197
  497MOL0     H67066   7.098   9.504  10.134 -1.5945  2.2856 -0.6480
  497MOL0     H67067   7.183   9.582  10.351 -0.2901 -0.4168 -0.0611
  497MOL0     H67068   7.019   9.578  10.418 -1.9675  1.2159 -1.8671
  497MOL0     H67069   7.109   9.786  10.333  0.3593 -1.7411  0.4684
  497MOL0     H67070   7.062   9.731  10.164 -2.1922  1.5932 -1.3451
  497MOL0     H67071   6.871   9.727  10.399 -2.0902 -1.9748 -1.1646
  497MOL0     H67072   6.838   9.736  10.232  1.9921  3.6854 -2.4527
  497MOL0     H67073   6.796   9.964  10.330  0.8112  1.0805 -0.6826
  497MOL0     H67074   6.953   9.969  10.387 -0.8568 -2.6891  2.5494
  497MOL0     H67075   6.839   9.039  10.410 -3.0644 -1.3476  3.3077
  497MOL0     H67076   6.767   8.844  10.562  0.4703  0.0981  1.2585
  497MOL0     H67077   6.922   8.466  10.776 -1.0118  1.0247 -0.4794
  497MOL0     H67078   6.874   8.318  10.978 -1.2660 -0.4230  0.5188
  497MOL0     H67079   5.848   7.995  10.035  0.4507  1.7594  1.5659
  497MOL0     H67080   5.664   8.137  10.019  0.7618  1.9474  2.1283
  497MOL0     H67081   5.550   8.541   9.877  0.0960  2.3095 -1.4535
  497MOL0     H67082   5.381   8.722   9.911  0.5927 -0.8328  1.6478
  497MOL0     H67083   4.957   8.659   9.787  2.2142 -1.9833 -2.2948
  497MOL0     H67084   5.024   8.772   9.674 -0.6820 -0.2384 -0.0758
  497MOL0     H67085   4.854   8.886   9.797 -0.7564  0.7481  0.8125
  497MOL0     H67086   5.008   8.959   9.843 -1.2740  0.6241  1.5084
  497MOL0     H67087   5.004   8.866  10.063 -0.1525  1.3777  0.5930
  497MOL0     H67088   4.891   8.747  10.019 -0.3014 -0.4133 -1.3866
  497MOL0     H67089   4.815   8.954  10.167  1.2330  2.7701  0.8572
  497MOL0     H67090   4.842   9.052  10.017  1.9605 -1.9397 -2.4681
  497MOL0     H67091   4.476   8.911   9.902 -2.4597  1.4902  1.7388
  497MOL0     H67092   5.098   8.498   9.688  1.2376 -3.1330 -1.9280
  497MOL0     H67093   5.295   8.251   9.566  0.1951 -3.0118  1.6755
  497MOL0     H67094   5.167   8.210   9.694 -1.6964 -1.8279 -2.4311
  497MOL0     H67095   5.137   8.322   9.582 -0.6650 -2.9756 -0.1294
  498MOL0     O67096   8.316   2.803   7.387 -0.2197  0.4566 -0.4870
  498MOL0     C67097   8.404   2.724   7.381  0.1509 -0.3362 -0.3549
  498MOL0     O67098   8.390   2.592   7.345  0.3452  0.2747  0.2475
  498MOL0     C67099   8.263   2.541   7.351 -0.4059  0.4506 -0.8795
  498MOL0     C67100   8.154   2.597   7.288 -0.3658 -0.1215  0.3131
  498MOL0     C67101   8.030   2.541   7.297  0.0681  0.3326 -0.8739
  498MOL0     C67102   8.017   2.422   7.366 -0.9239 -0.2208  0.0362
  498MOL0     O67103   7.904   2.346   7.364 -0.5222  0.5805 -0.5134
  498MOL0     C67104   7.840   2.333   7.230  0.3550 -0.5503  0.4236
  498MOL0     C67105   7.724   2.230   7.230  0.0547  0.2841  0.3332
  498MOL0     C67106   7.660   2.215   7.087 -0.8892  0.8157  0.2332
  498MOL0     C67107   7.756   2.224   6.964 -0.1862 -0.2474  0.3790
  498MOL0     C67108   7.858   2.112   6.941  0.1715 -0.7732  0.2242
  498MOL0     C67109   7.793   2.010   6.837 -0.2511  0.0212 -0.1270
  498MOL0     C67110   7.873   1.878   6.826 -0.3777  0.6573  0.2510
  498MOL0     C67111   8.022   1.893   6.788 -0.3638  0.5067 -0.3556
  498MOL0     N67112   8.081   1.771   6.724  0.4429  0.8897  0.4284
  498MOL0     C67113   8.136   1.676   6.807  0.4380  0.3083  0.2471
  498MOL0     C67114   8.190   1.591   6.710 -0.0112  0.6503  0.2741
  498MOL0     C67115   8.271   1.469   6.745  0.1187 -0.3754 -0.4396
  498MOL0     C67116   8.347   1.474   6.879 -0.4906  0.5227 -0.8957
  498MOL0     C67117   8.485   1.539   6.870 -0.6177 -0.5587  0.7120
  498MOL0     C67118   8.560   1.540   6.995 -1.2675  0.0824 -0.9755
  498MOL0     O67119   8.699   1.603   6.974 -0.1688 -0.7104 -0.4115
  498MOL0     C67120   8.713   1.735   6.963  0.6188 -0.2577 -0.0510
  498MOL0     C67121   8.634   1.837   7.000  0.5443 -0.5406  0.6755
  498MOL0     C67122   8.674   1.968   6.978  0.9027  0.2816 -0.3830
  498MOL0     C67123   8.793   2.000   6.921 -0.3596  0.3359  0.4926
  498MOL0     C67124   8.836   2.143   6.907 -0.5899  0.5446  0.3462
  498MOL0     O67125   8.923   2.163   6.802  0.0994  0.2659 -0.5063
  498MOL0     C67126   8.975   2.285   6.782  0.7424 -0.5746  0.1902
  498MOL0     C67127   9.058   2.296   6.676 -0.1164  0.3683  0.6533
  498MOL0     C67128   9.152   2.395   6.654 -0.2339 -0.2637  0.0596
  498MOL0     C67129   9.150   2.506   6.736 -0.8060  0.4436  0.1175
  498MOL0     O67130   9.233   2.611   6.702  0.2585  0.0129  0.0332
  498MOL0     C67131   9.260   2.698   6.809 -0.8620 -0.3081 -0.2495
  498MOL0     C67132   9.350   2.811   6.751 -0.5351 -0.0253 -0.6196
  498MOL0     C67133   9.486   2.764   6.718 -0.1024  0.5604 -0.5752
  498MOL0     C67134   9.581   2.880   6.700 -0.4918 -1.3454 -0.5454
  498MOL0     C67135   9.629   2.944   6.841  0.4001  0.1963  0.8782
  498MOL0     C67136   9.728   3.061   6.809  0.4134  0.7263 -0.5031
  498MOL0     C67137   9.786   3.125   6.937  0.2682  0.2361  0.9883
  498MOL0     C67138   9.864   3.249   6.892  0.2158 -0.0388  0.7158
  498MOL0    Cl67139   9.921   3.346   7.027  0.2515 -0.3097  0.2150
  498MOL0     C67140   9.053   2.511   6.840 -0.0594 -0.4411  0.4015
  498MOL0     C67141   8.974   2.404   6.865  0.4650 -0.2416  1.1163
  498MOL0     O67142   8.787   2.231   6.981 -0.0593 -0.4484  0.4311
  498MOL0     C67143   8.876   1.891   6.876  0.3596  0.7430  1.0501
  498MOL0     C67144   8.820   1.764   6.890 -0.2781 -0.2793 -0.0254
  498MOL0     N67145   8.184   1.642   6.588 -0.8115 -0.7972 -0.4993
  498MOL0     N67146   8.120   1.758   6.594  0.0529  0.2082  0.7436
  498MOL0     C67147   8.121   2.379   7.443  0.2651 -0.5459  0.2580
  498MOL0     C67148   8.243   2.437   7.442 -0.5883  0.0970  0.3519
  498MOL0     C67149   8.548   2.769   7.408  0.6528 -1.0342 -0.3793
  498MOL0     C67150   8.629   2.690   7.495 -0.6750  0.2473  0.3451
  498MOL0     C67151   8.747   2.734   7.550 -0.3294  0.0705  0.1440
  498MOL0     C67152   8.789   2.861   7.519  0.1018 -0.4094 -0.7570
  498MOL0     O67153   8.913   2.886   7.576  0.0829 -0.0466  0.9867
  498MOL0     C67154   8.981   3.003   7.527 -0.7058  0.2800  0.0618
  498MOL0     C67155   9.115   2.990   7.595 -0.2446 -0.2626  0.7737
  498MOL0     C67156   9.111   3.022   7.741  0.1194  0.6668 -1.5032
  498MOL0     C67157   9.241   2.986   7.819  0.6906 -0.3321  0.2570
  498MOL0     C67158   9.271   2.842   7.806  0.5674 -0.9431  0.8477
  498MOL0     C67159   9.273   2.716   7.783  0.0228 -0.0637  0.0648
  498MOL0     C67160   8.716   2.943   7.434 -0.8142 -0.2391 -0.0658
  498MOL0     C67161   8.598   2.903   7.376  0.6399 -0.2336 -0.0224
  498MOL0     C67162   8.525   3.012   7.306  0.6967 -0.1881 -0.2334
  498MOL0     H67163   8.157   2.689   7.232  2.9155 -0.4241 -0.2136
  498MOL0     H67164   7.943   2.587   7.251 -1.1506 -0.5003  0.5334
  498MOL0     H67165   7.797   2.429   7.201 -0.0989 -1.3831 -1.8563
  498MOL0     H67166   7.916   2.302   7.158  1.0352  1.6650  0.1350
  498MOL0     H67167   7.647   2.250   7.306  0.0335 -1.6923  0.9009
  498MOL0     H67168   7.772   2.135   7.256  2.2405  1.4675  0.8232
  498MOL0     H67169   7.578   2.287   7.086 -3.5392 -1.7889  3.2957
  498MOL0     H67170   7.604   2.125   7.061 -0.6686  0.8495 -0.3898
  498MOL0     H67171   7.690   2.237   6.877  0.5835  0.4760 -0.1197
  498MOL0     H67172   7.811   2.318   6.967 -0.2471 -0.2390  2.0456
  498MOL0     H67173   7.933   2.160   6.878 -0.9050 -0.0629 -0.5386
  498MOL0     H67174   7.896   2.071   7.035  1.0760  1.1839  0.7764
  498MOL0     H67175   7.691   1.986   6.867 -1.0372 -0.8693 -3.1143
  498MOL0     H67176   7.790   2.056   6.738 -1.5661 -1.7156 -0.9452
  498MOL0     H67177   7.823   1.824   6.745  1.8392 -0.1908 -0.6596
  498MOL0     H67178   7.866   1.818   6.917 -2.8087 -1.6208 -1.2816
  498MOL0     H67179   8.040   1.976   6.720  1.4344  0.6477  0.2354
  498MOL0     H67180   8.079   1.900   6.881  0.5873  0.1672 -0.8934
  498MOL0     H67181   8.143   1.684   6.915  3.8259  2.4363  0.0319
  498MOL0     H67182   8.198   1.388   6.751  0.3195 -0.7332 -2.2744
  498MOL0     H67183   8.344   1.457   6.665 -1.9715  0.4906 -2.6056
  498MOL0     H67184   8.288   1.523   6.957  1.6810 -0.0742  1.2499
  498MOL0     H67185   8.369   1.373   6.914  2.7319  1.5465  0.4021
  498MOL0     H67186   8.470   1.647   6.854 -1.0951 -0.8440 -1.0183
  498MOL0     H67187   8.554   1.499   6.795 -0.6083  0.1083  0.3532
  498MOL0     H67188   8.566   1.440   7.038 -2.7523  0.4856  0.2497
  498MOL0     H67189   8.518   1.591   7.082  1.1513  0.7082 -0.0767
  498MOL0     H67190   8.538   1.808   7.042 -0.3635 -6.1218 -3.9903
  498MOL0     H67191   8.611   2.055   6.991  1.7226  0.7197  0.7850
  498MOL0     H67192   9.075   2.203   6.624  2.0477  1.7303 -1.2639
  498MOL0     H67193   9.222   2.386   6.572 -1.8685  1.8657 -1.6430
  498MOL0     H67194   9.168   2.752   6.834 -1.4450 -1.8088  1.0028
  498MOL0     H67195   9.303   2.640   6.891  1.0155 -1.5116 -1.9904
  498MOL0     H67196   9.304   2.865   6.669  0.8239  3.4970  0.7491
  498MOL0     H67197   9.360   2.889   6.827  1.1155 -0.8774  0.1202
  498MOL0     H67198   9.521   2.692   6.793  0.6468 -0.2457 -1.6538
  498MOL0     H67199   9.477   2.710   6.623 -3.7877 -0.7935  0.4023
  498MOL0     H67200   9.538   2.958   6.637 -4.4078 -1.1794  2.0067
  498MOL0     H67201   9.662   2.834   6.642  0.9393 -1.0017  1.1062
  498MOL0     H67202   9.680   2.877   6.910  1.2254  1.2619  1.3460
  498MOL0     H67203   9.541   2.988   6.888 -0.3579 -0.1346 -0.1795
  498MOL0     H67204   9.811   3.018   6.752 -1.3123 -2.8339 -0.6393
  498MOL0     H67205   9.674   3.144   6.761 -0.9207 -0.7195 -1.6187
  498MOL0     H67206   9.851   3.048   6.982  2.6755 -0.4345 -3.1131
  498MOL0     H67207   9.713   3.163   7.009 -1.3851 -0.4779 -0.2526
  498MOL0     H67208   9.949   3.213   6.833 -0.9099 -2.0925  0.2819
  498MOL0     H67209   9.797   3.312   6.832  0.4347 -3.8014 -4.0604
  498MOL0     H67210   9.047   2.599   6.904 -1.1080 -1.7243  2.1336
  498MOL0     H67211   8.912   2.425   6.952  1.6720 -1.3661  2.3026
  498MOL0     H67212   8.965   1.907   6.816 -1.0884  1.4621 -1.0264
  498MOL0     H67213   8.854   1.672   6.843  0.3044 -0.5102  0.8283
  498MOL0     H67214   8.104   2.288   7.500 -2.5784  1.5126  3.0109
  498MOL0     H67215   8.325   2.417   7.511 -0.2748 -0.3614 -0.1544
  498MOL0     H67216   8.589   2.600   7.541  2.6142  0.0275  3.1848
  498MOL0     H67217   8.800   2.678   7.626  2.5473 -0.4702 -2.0547
  498MOL0     H67218   8.924   3.092   7.557  0.2200 -0.0370  3.1062
  498MOL0     H67219   8.994   3.006   7.419 -1.4676 -3.5510 -0.2622
  498MOL0     H67220   9.185   3.060   7.549 -1.0602 -0.3438 -0.6441
  498MOL0     H67221   9.152   2.888   7.579 -0.8043 -0.4093  0.3749
  498MOL0     H67222   9.029   2.972   7.794  0.7529  0.3657 -0.7900
  498MOL0     H67223   9.087   3.129   7.747  1.9508  1.1262 -1.7077
  498MOL0     H67224   9.329   3.044   7.791  1.9002 -0.1480  3.8367
  498MOL0     H67225   9.229   3.016   7.924 -2.2916  0.4246 -0.2256
  498MOL0     H67226   9.294   2.616   7.751  2.8977  0.3743  0.2887
  498MOL0     H67227   8.754   3.044   7.419  2.1186 -1.3465 -0.8248
  498MOL0     H67228   8.475   3.089   7.366 -0.3736  3.1802 -4.8916
  498MOL0     H67229   8.591   3.065   7.237  1.4121  1.0769  1.3726
  498MOL0     H67230   8.447   2.972   7.241 -1.7033 -1.1674  2.9723
  499MOL0     O67231   4.541   8.197   9.328 -0.7917 -0.1755  0.0477
  499MOL0     C67232   4.480   8.096   9.355  0.9121 -0.7214 -0.2970
  499MOL0     O67233   4.489   8.017   9.472 -0.1812  0.1890  0.0965
  499MOL0     C67234   4.612   8.009   9.539  0.9507 -0.0729  0.5102
  499MOL0     C67235   4.605   7.937   9.654 -0.2525  0.2080 -0.5138
  499MOL0     C67236   4.715   7.916   9.739  0.2896 -0.6390 -0.0321
  499MOL0     C67237   4.840   7.974   9.708 -0.0927 -0.7259  0.6780
  499MOL0     O67238   4.956   7.955   9.784  0.5270  0.1467  0.7826
  499MOL0     C67239   4.960   7.844   9.873  0.5511 -0.6395  0.0494
  499MOL0     C67240   5.100   7.816   9.909  0.0250  0.6436 -0.1866
  499MOL0     C67241   5.183   7.939   9.962 -0.8420  0.4048 -0.6734
  499MOL0     C67242   5.161   7.975  10.109 -0.3908 -0.2538  0.5688
  499MOL0     C67243   5.246   8.101  10.149  1.0359 -0.1638 -0.2265
  499MOL0     C67244   5.218   8.247  10.075  0.1818 -0.2605  0.3212
  499MOL0     C67245   5.282   8.375  10.132 -0.3412  0.4418  0.4986
  499MOL0     C67246   5.437   8.357  10.139 -0.0944 -0.8954 -0.4334
  499MOL0     N67247   5.516   8.477  10.184 -0.9140  0.6413 -0.0397
  499MOL0     C67248   5.548   8.506  10.313 -0.5336  0.7295 -0.1865
  499MOL0     C67249   5.570   8.636  10.313 -0.2950 -0.1211 -0.4737
  499MOL0     C67250   5.612   8.720  10.434  0.3623  0.1966 -0.1140
  499MOL0     C67251   5.720   8.817  10.381  0.6833 -0.0865  0.3409
  499MOL0     C67252   5.787   8.881  10.503  0.4766 -0.4789 -0.0420
  499MOL0     C67253   5.891   8.982  10.459 -0.1396 -0.4460 -0.0654
  499MOL0     O67254   5.836   9.093  10.387  0.2829  0.0310 -0.3781
  499MOL0     C67255   5.915   9.199  10.362 -0.5381  0.3223 -0.5052
  499MOL0     C67256   5.883   9.269  10.242 -0.2948 -0.3865  0.4058
  499MOL0     C67257   5.937   9.395  10.227  0.1764 -0.1945 -0.0594
  499MOL0     C67258   6.040   9.445  10.302  0.3517  0.2583  0.7386
  499MOL0     C67259   6.117   9.566  10.264 -0.3313  0.3121 -0.3761
  499MOL0     O67260   6.239   9.585  10.338  0.8719 -0.3335 -0.1334
  499MOL0     C67261   6.313   9.689  10.295  0.0598  0.3377  0.1172
  499MOL0     C67262   6.348   9.771  10.397  0.6920 -0.5618 -1.3933
  499MOL0     C67263   6.431   9.883  10.386 -0.5911 -0.1287  0.2191
  499MOL0     C67264   6.467   9.917  10.255 -0.3664 -0.4573  0.0111
  499MOL0     O67265   6.534  10.036  10.227  0.6349 -0.4367  0.0243
  499MOL0     C67266   6.524  10.144  10.327  0.4476  0.2970 -0.3573
  499MOL0     C67267   6.569  10.280  10.278  0.0052 -0.2141 -1.3122
  499MOL0     C67268   6.711  10.289  10.223 -0.1461 -1.5824  1.0416
  499MOL0     C67269   6.751  10.435  10.185 -0.7017 -0.2510  0.2352
  499MOL0     C67270   6.679  10.503  10.076  0.2083 -0.0866  0.2208
  499MOL0     C67271   6.741  10.631  10.030  0.4062  0.3360  0.2227
  499MOL0     C67272   6.803  10.628   9.884  0.1477 -0.2714  0.4575
  499MOL0     C67273   6.868  10.760   9.844  0.6171  0.0791 -0.3352
  499MOL0    Cl67274   6.866  10.760   9.664 -0.1653 -0.1713 -0.5001
  499MOL0     C67275   6.441   9.823  10.149  0.5182 -0.2729 -0.3172
  499MOL0     C67276   6.366   9.710  10.174 -0.1411  0.2637  1.0229
  499MOL0     O67277   6.076   9.621  10.165  0.1722 -0.7522  0.0765
  499MOL0     C67278   6.082   9.372  10.419  0.1588 -0.0248  0.2391
  499MOL0     C67279   6.018   9.245  10.440 -0.4388 -0.7640 -0.6338
  499MOL0     N67280   5.559   8.687  10.186 -0.9826  0.1844 -0.3399
  499MOL0     N67281   5.532   8.585  10.108  0.3609  0.9263 -0.7106
  499MOL0     C67282   4.846   8.056   9.596 -0.5703 -0.0480 -0.5521
  499MOL0     C67283   4.736   8.073   9.513 -0.1848  0.5347 -0.8759
  499MOL0     C67284   4.361   8.084   9.276  0.1983  0.4646  0.4374
  499MOL0     C67285   4.373   8.078   9.135  0.2638 -0.2609 -0.3428
  499MOL0     C67286   4.263   8.061   9.053 -0.0679  0.1268  0.1841
  499MOL0     C67287   4.132   8.059   9.102 -0.7469 -0.2177 -0.2169
  499MOL0     O67288   4.016   8.055   9.026  0.5386 -0.6829  0.0494
  499MOL0     C67289   4.029   7.987   8.898  0.0489  0.1445 -0.6255
  499MOL0     C67290   3.895   7.973   8.832 -0.7868 -0.7280 -0.3719
  499MOL0     C67291   3.898   7.905   8.694 -0.0248  0.5844  0.4491
  499MOL0     C67292   3.769   7.884   8.626 -0.0801 -0.5951 -0.0253
  499MOL0     C67293   3.683   7.797   8.704 -0.7513  0.6936 -0.0276
  499MOL0     C67294   3.604   7.727   8.763 -0.0120 -0.1248  0.7696
  499MOL0     C67295   4.120   8.064   9.238 -0.4924 -0.2574  0.6788
  499MOL0     C67296   4.233   8.081   9.329  0.2544  0.2933  0.1094
  499MOL0     C67297   4.209   8.119   9.475  0.1080 -0.2028 -0.5143
  499MOL0     H67298   4.515   7.885   9.684  0.1728  0.7083  1.7809
  499MOL0     H67299   4.708   7.852   9.826  2.0535 -0.5353  0.2169
  499MOL0     H67300   4.890   7.869   9.954  0.0034 -1.2838 -0.2177
  499MOL0     H67301   4.926   7.753   9.822  0.0016  0.2189 -1.1678
  499MOL0     H67302   5.154   7.789   9.818  0.4999  3.5196 -0.8464
  499MOL0     H67303   5.116   7.732   9.977  2.6274  1.5383  0.4240
  499MOL0     H67304   5.166   8.033   9.909 -0.5497  0.5208 -0.5587
  499MOL0     H67305   5.286   7.913   9.935 -1.6557 -1.9353 -1.8620
  499MOL0     H67306   5.055   7.994  10.129 -1.0534 -3.3503  0.5445
  499MOL0     H67307   5.198   7.893  10.171  0.5823  1.0272  1.7591
  499MOL0     H67308   5.230   8.116  10.256  1.1548  1.5904 -0.4255
  499MOL0     H67309   5.346   8.061  10.128  0.5405 -2.6951  1.6929
  499MOL0     H67310   5.245   8.245   9.969  0.4656  1.3527  0.3349
  499MOL0     H67311   5.112   8.266  10.091  0.0069 -0.6209 -0.3996
  499MOL0     H67312   5.248   8.375  10.236  0.1257 -0.7083  0.6618
  499MOL0     H67313   5.248   8.467  10.083 -1.4467 -0.0437  0.3435
  499MOL0     H67314   5.453   8.275  10.210 -0.4008  1.1742  2.1464
  499MOL0     H67315   5.466   8.324  10.038  1.3332 -3.0165  0.5944
  499MOL0     H67316   5.549   8.436  10.396 -1.2118  3.1838  2.0501
  499MOL0     H67317   5.530   8.781  10.473  0.0941 -1.1834  1.5964
  499MOL0     H67318   5.654   8.659  10.515 -1.8147  0.7797  1.5491
  499MOL0     H67319   5.801   8.768  10.327  0.3701  0.5482 -0.7355
  499MOL0     H67320   5.673   8.899  10.325 -0.2317 -0.6266  0.2987
  499MOL0     H67321   5.833   8.809  10.571  3.4217 -1.5244 -2.9185
  499MOL0     H67322   5.711   8.931  10.564  3.1940  2.3473  1.2876
  499MOL0     H67323   5.954   8.925  10.390 -0.1529 -0.8146  0.2249
  499MOL0     H67324   5.948   9.002  10.550  2.5410 -1.0595 -1.4981
  499MOL0     H67325   5.795   9.243  10.184  1.3209  0.6702 -2.8124
  499MOL0     H67326   5.904   9.455  10.143  1.0258  2.5993  1.4438
  499MOL0     H67327   6.307   9.744  10.494  0.8726  1.2772 -0.7570
  499MOL0     H67328   6.466   9.934  10.475 -1.1145 -2.0691  1.5977
  499MOL0     H67329   6.426  10.153  10.375  1.1046  0.3614  1.0296
  499MOL0     H67330   6.590  10.109  10.407 -0.5701 -0.7462  0.0620
  499MOL0     H67331   6.500  10.308  10.197 -0.8810 -0.8065 -0.7818
  499MOL0     H67332   6.562  10.341  10.368  0.9095 -2.3917  0.3433
  499MOL0     H67333   6.791  10.264  10.293 -0.8856 -1.6817  1.8790
  499MOL0     H67334   6.700  10.220  10.139 -0.3832  0.6069 -0.8230
  499MOL0     H67335   6.857  10.442  10.159  0.3092  2.2803  4.1722
  499MOL0     H67336   6.740  10.506  10.267 -0.3005  1.3428 -1.0502
  499MOL0     H67337   6.577  10.525  10.108  0.5701 -0.5792  1.7835
  499MOL0     H67338   6.667  10.447   9.982 -2.7727  2.0141 -0.7929
  499MOL0     H67339   6.652  10.693  10.016 -0.0599  0.2178  2.3545
  499MOL0     H67340   6.824  10.661  10.095 -0.5789 -1.2385  2.3134
  499MOL0     H67341   6.722  10.613   9.812 -0.4982  0.8194  0.9381
  499MOL0     H67342   6.873  10.546   9.863 -0.6489 -1.0144  0.6436
  499MOL0     H67343   6.812  10.848   9.877  0.0127 -0.1709 -0.6782
  499MOL0     H67344   6.969  10.769   9.887  0.0666  0.4640  0.9270
  499MOL0     H67345   6.468   9.849  10.047  2.6426 -3.1494 -0.6377
  499MOL0     H67346   6.346   9.647  10.088 -1.8299  1.2414  0.6401
  499MOL0     H67347   6.161   9.412  10.482  0.1001  1.3699 -0.5289
  499MOL0     H67348   6.043   9.201  10.537  2.2154 -2.4476 -1.9491
  499MOL0     H67349   4.938   8.114   9.586 -0.1374 -0.3911  1.1047
  499MOL0     H67350   4.760   8.141   9.432  3.7953 -1.6892 -1.8388
  499MOL0     H67351   4.472   8.072   9.092 -0.5056 -2.1922 -2.0502
  499MOL0     H67352   4.277   8.057   8.945  2.1615  0.3272  0.4149
  499MOL0     H67353   4.061   7.884   8.918 -1.2566 -0.7500 -2.7628
  499MOL0     H67354   4.094   8.041   8.829  0.7483  2.1882  1.5133
  499MOL0     H67355   3.852   8.073   8.829 -1.6678 -0.7908  3.7209
  499MOL0     H67356   3.835   7.907   8.895  0.2546 -1.1055  0.2463
  499MOL0     H67357   3.962   7.819   8.714  1.9296  2.1714  1.3308
  499MOL0     H67358   3.954   7.964   8.620 -0.5076  0.8004  0.2531
  499MOL0     H67359   3.716   7.980   8.623  0.0755 -0.5277 -1.2202
  499MOL0     H67360   3.776   7.847   8.523 -2.0208 -2.5112  0.4764
  499MOL0     H67361   3.530   7.672   8.818 -1.0683  1.2618  0.7697
  499MOL0     H67362   4.020   8.074   9.280 -0.4819  1.3458  0.3613
  499MOL0     H67363   4.124   8.187   9.482 -2.1869 -2.9304 -0.3302
  499MOL0     H67364   4.172   8.034   9.533  0.3568 -1.9808 -2.8266
  499MOL0     H67365   4.290   8.174   9.524 -1.3443  1.2378  0.3512
  500MOL0     O67366  10.040   2.615   3.913  0.4525  0.1399  1.1649
  500MOL0     C67367  10.068   2.492   3.928  0.2886  1.1381 -0.0863
  500MOL0     O67368  10.015   2.386   3.852  0.5274 -0.3033  0.3713
  500MOL0     C67369   9.930   2.411   3.744 -0.0831  1.0464 -0.5669
  500MOL0     C67370   9.913   2.525   3.660 -0.1615  0.2543  0.0432
  500MOL0     C67371   9.826   2.519   3.549  0.5217  0.2482  1.4614
  500MOL0     C67372   9.744   2.410   3.531  0.9323  1.0113 -0.3189
  500MOL0     O67373   9.644   2.416   3.430 -0.0018 -0.1802 -1.5546
  500MOL0     C67374   9.606   2.288   3.363  0.0693  0.3628  0.9239
  500MOL0     C67375   9.460   2.305   3.304  1.2581 -0.0843 -0.2941
  500MOL0     C67376   9.362   2.352   3.410 -0.4321 -0.2462 -0.5329
  500MOL0     C67377   9.350   2.248   3.529  0.0483  0.1700  0.9834
  500MOL0     C67378   9.246   2.295   3.634  0.2462 -0.2872  0.0364
  500MOL0     C67379   9.274   2.422   3.709 -0.0709 -0.6722  0.8022
  500MOL0     C67380   9.400   2.431   3.798  0.0466 -0.2789  0.0977
  500MOL0     C67381   9.423   2.580   3.859 -0.2565  0.0203  0.5912
  500MOL0     N67382   9.457   2.675   3.746  0.5384  0.0248 -0.3016
  500MOL0     C67383   9.582   2.723   3.713  0.6957  0.5915 -0.2512
  500MOL0     C67384   9.559   2.838   3.637 -0.9363  0.9859  0.8303
  500MOL0     C67385   9.670   2.905   3.569  0.7263 -1.0434  0.2159
  500MOL0     C67386   9.725   3.028   3.649 -0.6927 -0.2241 -0.2726
  500MOL0     C67387   9.818   3.110   3.567  0.5131 -0.2264  0.3340
  500MOL0     C67388   9.905   3.207   3.645  0.3884 -0.0645 -0.7063
  500MOL0     O67389   9.849   3.337   3.652  0.0490 -0.2529  0.2792
  500MOL0     C67390   9.874   3.423   3.758 -0.0410 -0.4753  1.0100
  500MOL0     C67391   9.884   3.383   3.883  0.1495  0.0793 -0.9728
  500MOL0     C67392   9.918   3.460   3.991 -0.0186  0.4512 -0.0805
  500MOL0     C67393   9.917   3.595   3.972 -0.7008 -1.1730 -0.7282
  500MOL0     C67394   9.920   3.689   4.094 -0.0384  0.9254  0.4575
  500MOL0     O67395   9.903   3.620   4.212  0.4563 -0.1620  0.8444
  500MOL0     C67396   9.925   3.691   4.330  0.7968 -0.5971  0.5038
  500MOL0     C67397   9.823   3.674   4.421  1.0666 -0.6323 -0.8304
  500MOL0     C67398   9.834   3.724   4.547  0.3929  0.4178  0.2395
  500MOL0     C67399   9.943   3.809   4.583  0.0366 -0.3452  1.2347
  500MOL0     O67400   9.949   3.870   4.701 -0.5260 -0.0508  0.4893
  500MOL0     C67401  10.078   3.896   4.766  0.6401  0.4409 -0.2916
  500MOL0     C67402  10.096   4.045   4.800 -0.1044 -0.5336  0.0392
  500MOL0     C67403   9.992   4.096   4.906 -0.6526 -0.0266  0.6156
  500MOL0     C67404  10.015   4.248   4.933 -0.7363  0.1904  1.0036
  500MOL0     C67405   9.923   4.295   5.052  0.0087  0.7773  0.4892
  500MOL0     C67406   9.892   4.443   5.038  0.4764 -0.4566  0.3848
  500MOL0     C67407   9.815   4.498   5.162 -0.1609  0.2209 -0.4058
  500MOL0     C67408   9.814   4.657   5.154  0.0751  0.3494  0.3652
  500MOL0    Cl67409   9.731   4.731   5.017  0.4472 -0.0305  0.0755
  500MOL0     C67410  10.044   3.838   4.479  0.2954  0.8786 -1.1293
  500MOL0     C67411  10.028   3.777   4.354 -0.0792 -0.4410  0.0670
  500MOL0     O67412   9.908   3.812   4.084 -0.5331 -0.0787 -0.3909
  500MOL0     C67413   9.900   3.650   3.842  0.9059  0.0288 -0.4993
  500MOL0     C67414   9.884   3.562   3.734 -0.7276 -0.0132  0.3849
  500MOL0     N67415   9.425   2.872   3.639  0.3375  0.1362  0.3367
  500MOL0     N67416   9.370   2.771   3.706 -0.6473 -0.1942 -0.0104
  500MOL0     C67417   9.749   2.307   3.628  1.2604 -0.7552 -0.8565
  500MOL0     C67418   9.842   2.301   3.724 -1.0367 -0.9890  1.0730
  500MOL0     C67419  10.164   2.451   4.030 -0.0052 -1.1578 -0.4635
  500MOL0     C67420  10.247   2.338   4.004  0.1000 -0.2793 -0.9468
  500MOL0     C67421  10.344   2.291   4.092 -0.3673  0.0840 -0.2090
  500MOL0     C67422  10.371   2.365   4.202 -0.6966 -0.7555  0.4397
  500MOL0     O67423  10.473   2.341   4.292 -0.3520 -0.4592  0.2355
  500MOL0     C67424  10.590   2.252   4.260 -0.2268 -0.4064  0.2961
  500MOL0     C67425  10.715   2.335   4.221 -0.1840 -0.7864 -0.2790
  500MOL0     C67426  10.678   2.437   4.120  0.0251  0.0971 -0.6542
  500MOL0     C67427  10.804   2.479   4.040 -0.4579 -0.6393 -0.1166
  500MOL0     C67428  10.835   2.395   3.926 -0.3965 -0.1672  0.4784
  500MOL0     C67429  10.871   2.328   3.825  0.1199  0.1338  0.4709
  500MOL0     C67430  10.288   2.474   4.238  0.1500 -0.9100  0.6080
  500MOL0     C67431  10.186   2.520   4.151 -0.1808 -0.0994 -0.1798
  500MOL0     C67432  10.097   2.627   4.186  0.4282 -0.0606  0.0914
  500MOL0     H67433   9.971   2.616   3.677 -2.6332  1.3111  4.1111
  500MOL0     H67434   9.814   2.604   3.483  1.1024 -0.8532 -0.1061
  500MOL0     H67435   9.671   2.277   3.276  0.2658 -1.2751  1.2439
  500MOL0     H67436   9.620   2.199   3.425 -1.1905  0.0357  0.7740
  500MOL0     H67437   9.414   2.211   3.274 -2.7242  1.4174  0.4891
  500MOL0     H67438   9.462   2.377   3.222  2.0792  1.6219  1.1519
  500MOL0     H67439   9.267   2.370   3.359 -0.4331 -1.1391 -0.8794
  500MOL0     H67440   9.406   2.446   3.443 -0.3023 -0.2372 -0.7318
  500MOL0     H67441   9.314   2.149   3.497  0.5176 -0.8063  3.2579
  500MOL0     H67442   9.445   2.239   3.581  1.0461 -0.9188 -0.9146
  500MOL0     H67443   9.149   2.318   3.588  0.1403 -1.1732 -0.2023
  500MOL0     H67444   9.239   2.210   3.702 -0.4135  1.8495  2.8201
  500MOL0     H67445   9.273   2.506   3.638 -2.6628  0.1737  1.7405
  500MOL0     H67446   9.194   2.441   3.781  1.7518 -0.0131  2.7792
  500MOL0     H67447   9.490   2.405   3.741 -0.1138 -2.6300  0.7756
  500MOL0     H67448   9.393   2.356   3.878  1.7864  0.2757  0.8247
  500MOL0     H67449   9.334   2.620   3.910 -1.1706  0.4849 -1.2572
  500MOL0     H67450   9.509   2.586   3.925 -1.3825  2.2016  1.9886
  500MOL0     H67451   9.676   2.680   3.745  1.0422 -1.3696 -3.4057
  500MOL0     H67452   9.743   2.824   3.558  2.2025 -0.1069  2.4187
  500MOL0     H67453   9.625   2.953   3.481 -2.8088 -0.2476  2.2635
  500MOL0     H67454   9.642   3.083   3.694  0.8588  2.6552 -0.6605
  500MOL0     H67455   9.782   2.992   3.735 -2.5994 -3.1161 -0.0653
  500MOL0     H67456   9.765   3.173   3.494  2.2284 -0.3121 -1.0570
  500MOL0     H67457   9.894   3.044   3.524 -0.5569  0.5035 -3.0059
  500MOL0     H67458   9.998   3.206   3.587  0.4481 -0.9298 -0.6145
  500MOL0     H67459   9.929   3.170   3.745 -1.7018  0.9716  0.2357
  500MOL0     H67460   9.866   3.280   3.912  4.0318  0.0161  1.9250
  500MOL0     H67461   9.937   3.414   4.087  0.2551 -1.5808 -1.0437
  500MOL0     H67462   9.737   3.611   4.399  1.6720 -1.4831 -0.8394
  500MOL0     H67463   9.758   3.693   4.619  1.7330 -1.9926  0.7024
  500MOL0     H67464  10.092   3.840   4.859  2.3083  0.8803 -0.2548
  500MOL0     H67465  10.159   3.860   4.702  1.2101 -1.1517  1.2407
  500MOL0     H67466  10.196   4.053   4.843  0.5978 -0.6451 -1.4967
  500MOL0     H67467  10.072   4.097   4.706 -0.0685  0.3450  0.5063
  500MOL0     H67468   9.893   4.087   4.861 -0.3300  0.1440 -0.1485
  500MOL0     H67469   9.998   4.038   4.999 -2.8766 -2.3966 -0.5753
  500MOL0     H67470   9.993   4.312   4.848 -1.2825 -0.7482  0.4174
  500MOL0     H67471  10.114   4.278   4.969 -0.1933 -1.6033  1.1142
  500MOL0     H67472   9.967   4.285   5.151  0.5044  2.6827  0.4944
  500MOL0     H67473   9.832   4.234   5.050  1.4194 -1.4263 -0.0486
  500MOL0     H67474   9.988   4.494   5.025  0.3740 -0.9934 -3.9789
  500MOL0     H67475   9.832   4.468   4.950  1.5717 -0.7820 -0.4673
  500MOL0     H67476   9.870   4.476   5.253 -2.7562 -0.1881  1.1721
  500MOL0     H67477   9.710   4.469   5.169  0.0986 -0.2417  3.9028
  500MOL0     H67478   9.766   4.690   5.246 -1.0183  1.2229 -0.4970
  500MOL0     H67479   9.917   4.692   5.143  0.7173 -1.9302 -1.7394
  500MOL0     H67480  10.136   3.894   4.489  1.5666 -1.1290 -0.8856
  500MOL0     H67481  10.112   3.792   4.287  1.3464 -1.3165  1.5771
  500MOL0     H67482   9.906   3.759   3.837  1.4195  0.0706  0.7116
  500MOL0     H67483   9.877   3.604   3.634  3.3056 -0.4811 -0.2865
  500MOL0     H67484   9.679   2.224   3.618  0.9796 -0.5337 -0.7395
  500MOL0     H67485   9.851   2.205   3.775  1.4939 -1.3548  0.1037
  500MOL0     H67486  10.244   2.283   3.911  0.0308 -2.1974  0.1435
  500MOL0     H67487  10.401   2.200   4.077 -3.1680 -1.5874 -1.4587
  500MOL0     H67488  10.570   2.189   4.173  0.4341 -1.5287  0.9387
  500MOL0     H67489  10.623   2.189   4.343  0.9162  0.1662  0.3035
  500MOL0     H67490  10.779   2.258   4.177  0.8513  0.3611 -0.8402
  500MOL0     H67491  10.764   2.367   4.313 -1.8062  1.0556  0.0182
  500MOL0     H67492  10.645   2.524   4.176  1.0507  1.4092 -2.0027
  500MOL0     H67493  10.600   2.410   4.048 -2.5013  0.0237  1.9373
  500MOL0     H67494  10.778   2.577   4.000  2.4529  1.3452  2.3978
  500MOL0     H67495  10.882   2.484   4.116 -1.4394 -2.6463  1.0985
  500MOL0     H67496  10.896   2.276   3.735 -1.1685  1.1113 -0.4878
  500MOL0     H67497  10.297   2.523   4.334  1.1497  0.2991 -0.0690
  500MOL0     H67498  10.122   2.712   4.121  0.6512  0.5407  0.9519
  500MOL0     H67499   9.989   2.611   4.181  0.2867  1.0340 -0.8577
  500MOL0     H67500  10.123   2.657   4.287 -1.2026 -0.8919  0.7885
  501MOL0     O67501  10.365   9.729   5.868 -0.0985  0.0663  0.7616
  501MOL0     C67502  10.305   9.646   5.937 -0.1868  0.3158  0.4182
  501MOL0     O67503  10.227   9.549   5.887  0.1289  0.3199 -0.1426
  501MOL0     C67504  10.229   9.527   5.752 -0.6173 -0.3065  0.2312
  501MOL0     C67505  10.156   9.613   5.675  0.0074  0.6589  0.9689
  501MOL0     C67506  10.151   9.572   5.535 -0.4793 -0.4311 -0.8942
  501MOL0     C67507  10.217   9.461   5.473  0.3528 -0.2577  0.1521
  501MOL0     O67508  10.204   9.438   5.340  0.4841 -0.7214 -0.0434
  501MOL0     C67509  10.257   9.314   5.291 -0.0899  0.7787  0.5957
  501MOL0     C67510  10.221   9.292   5.146 -0.6247 -0.1860 -0.1762
  501MOL0     C67511  10.249   9.145   5.101  0.8903  0.2701 -1.4525
  501MOL0     C67512  10.215   9.131   4.951 -0.1033 -0.2695 -0.4514
  501MOL0     C67513  10.217   8.989   4.897  1.2841 -0.7048 -0.2982
  501MOL0     C67514  10.331   8.911   4.940  0.2186  0.2964  0.4405
  501MOL0     C67515  10.315   8.775   4.861 -0.3223 -1.4552 -0.4915
  501MOL0     C67516  10.349   8.784   4.713  0.1833 -0.0179  0.7180
  501MOL0     N67517  10.487   8.838   4.692  0.0811 -0.0181  0.0743
  501MOL0     C67518  10.598   8.788   4.739 -0.2666 -0.5528 -0.1180
  501MOL0     C67519  10.703   8.869   4.696  0.2302  0.4585  0.4540
  501MOL0     C67520  10.843   8.859   4.736 -0.6431 -0.1044  0.0573
  501MOL0     C67521  10.945   8.963   4.689 -0.3941 -0.8011 -0.6571
  501MOL0     C67522  10.967   8.990   4.535 -0.4452  1.1195 -0.8326
  501MOL0     C67523  11.050   8.886   4.469 -0.0165  0.5086 -0.3178
  501MOL0     O67524  11.192   8.919   4.481  0.3135  0.1219  0.1639
  501MOL0     C67525  11.282   8.842   4.412  1.0976 -0.2540  0.1494
  501MOL0     C67526  11.264   8.715   4.368 -0.2016  0.4151 -0.4662
  501MOL0     C67527  11.359   8.648   4.284  1.1313 -0.0888 -0.5614
  501MOL0     C67528  11.470   8.705   4.234 -1.1778 -0.4208 -0.4457
  501MOL0     C67529  11.549   8.643   4.128 -0.8457 -0.1583 -0.2321
  501MOL0     O67530  11.651   8.726   4.083 -0.0987 -0.5177 -0.4490
  501MOL0     C67531  11.746   8.681   3.996 -0.5879  1.0111 -0.1513
  501MOL0     C67532  11.886   8.690   4.029  0.3042 -1.1948  0.3399
  501MOL0     C67533  11.979   8.644   3.928 -0.4090  0.0590 -0.1272
  501MOL0     C67534  11.936   8.582   3.807  0.4372  0.6030 -0.6822
  501MOL0     O67535  12.029   8.539   3.709  0.2732  0.2617 -0.0306
  501MOL0     C67536  12.033   8.408   3.666 -0.4610 -0.4191 -0.3257
  501MOL0     C67537  12.101   8.397   3.530  0.5203  0.9734  0.9322
  501MOL0     C67538  12.125   8.247   3.495 -0.2188  0.6051 -1.2951
  501MOL0     C67539  12.160   8.231   3.343  0.3708  0.0728  0.7651
  501MOL0     C67540  12.245   8.109   3.312  0.2152 -0.3179  0.7841
  501MOL0     C67541  12.192   7.971   3.361 -0.3989 -0.0716 -0.2876
  501MOL0     C67542  12.073   7.917   3.272 -0.9402  0.2735  0.1451
  501MOL0     C67543  12.108   7.805   3.168  1.1254 -0.9625 -0.6198
  501MOL0    Cl67544  11.958   7.795   3.062 -0.2597 -0.0534  0.3473
  501MOL0     C67545  11.793   8.565   3.786  0.7511 -1.1654  0.1624
  501MOL0     C67546  11.705   8.621   3.877  0.9987  0.0788  0.6354
  501MOL0     O67547  11.517   8.529   4.086 -0.0140  0.0916  0.2270
  501MOL0     C67548  11.479   8.847   4.272  0.1764 -0.2343 -0.6464
  501MOL0     C67549  11.386   8.910   4.360  0.7628 -0.2711  0.5201
  501MOL0     N67550  10.646   8.972   4.624  0.9151  0.6835 -0.1376
  501MOL0     N67551  10.524   8.953   4.622  1.0250 -0.9791 -0.4846
  501MOL0     C67552  10.286   9.376   5.561 -0.1940 -0.2126 -0.2332
  501MOL0     C67553  10.291   9.411   5.699  0.2275 -0.1592  0.0421
  501MOL0     C67554  10.319   9.661   6.088  0.2355  0.1708 -0.0669
  501MOL0     C67555  10.285   9.550   6.166  0.6220 -0.8639  0.1367
  501MOL0     C67556  10.302   9.544   6.303  0.4344 -0.6413 -0.4215
  501MOL0     C67557  10.354   9.647   6.373 -0.4948 -0.2524  0.2312
  501MOL0     O67558  10.362   9.624   6.511  0.3604 -0.2750 -0.0120
  501MOL0     C67559  10.455   9.705   6.584 -0.2791 -0.5833 -0.1090
  501MOL0     C67560  10.457   9.672   6.733 -0.2546  0.2346  0.4115
  501MOL0     C67561  10.324   9.731   6.800  0.2208  1.1922  0.6574
  501MOL0     C67562  10.297   9.665   6.941 -0.0626 -0.0127  0.4629
  501MOL0     C67563  10.167   9.592   6.934 -0.2081 -0.8694  0.0717
  501MOL0     C67564  10.071   9.522   6.940 -0.2135  0.6607  0.9881
  501MOL0     C67565  10.362   9.773   6.308  0.4971  0.2649  0.2765
  501MOL0     C67566  10.348   9.780   6.166 -0.2699 -0.1208  0.0690
  501MOL0     C67567  10.369   9.907   6.102 -0.8508  0.6547 -0.4013
  501MOL0     H67568  10.108   9.707   5.701 -2.8320  0.6500 -3.2198
  501MOL0     H67569  10.090   9.630   5.467 -2.4767 -1.9103 -0.4631
  501MOL0     H67570  10.365   9.314   5.306  0.4404 -1.7457 -2.3620
  501MOL0     H67571  10.212   9.225   5.334  3.0828 -1.6052 -0.6705
  501MOL0     H67572  10.295   9.342   5.083 -1.8244  3.5876  1.1012
  501MOL0     H67573  10.127   9.336   5.110  1.5274  0.6316 -5.7643
  501MOL0     H67574  10.193   9.077   5.166  1.7617  0.2063 -0.7495
  501MOL0     H67575  10.352   9.132   5.136  0.2975  2.5879  1.5534
  501MOL0     H67576  10.111   9.163   4.939 -1.0159 -1.8663  2.3248
  501MOL0     H67577  10.286   9.194   4.896  2.2926 -3.2144 -0.9732
  501MOL0     H67578  10.120   8.944   4.921  1.4882 -0.4790  1.0198
  501MOL0     H67579  10.217   9.009   4.789  0.1265  0.9196 -0.0337
  501MOL0     H67580  10.420   8.969   4.914  2.2331 -2.7326  0.0311
  501MOL0     H67581  10.331   8.892   5.048  0.7363  0.8094  0.5369
  501MOL0     H67582  10.218   8.725   4.870 -1.1299  0.4146  3.2871
  501MOL0     H67583  10.379   8.693   4.896 -1.2358 -1.4720  1.2951
  501MOL0     H67584  10.347   8.683   4.672 -2.5014 -0.5575  1.9739
  501MOL0     H67585  10.269   8.834   4.659  0.3904 -0.6566 -0.1962
  501MOL0     H67586  10.611   8.693   4.789  1.5917  0.2429  1.0264
  501MOL0     H67587  10.843   8.879   4.843 -0.5175 -1.3814  0.3013
  501MOL0     H67588  10.891   8.763   4.720 -0.8209 -1.0165  4.1556
  501MOL0     H67589  10.907   9.057   4.729 -0.7070 -2.9672  5.0016
  501MOL0     H67590  11.040   8.936   4.738 -1.0310  2.0767  2.5061
  501MOL0     H67591  11.023   9.082   4.520  2.3874 -0.2432  0.5634
  501MOL0     H67592  10.871   9.013   4.487 -0.5457  0.4009 -0.9932
  501MOL0     H67593  11.017   8.875   4.366  0.6430  1.2213 -0.6144
  501MOL0     H67594  11.024   8.791   4.517 -1.2305 -1.0172 -3.7009
  501MOL0     H67595  11.179   8.653   4.396  0.9428 -0.8458  0.3231
  501MOL0     H67596  11.321   8.548   4.263  1.3198 -0.1107 -0.7956
  501MOL0     H67597  11.914   8.737   4.123 -0.1467 -0.5909  0.1741
  501MOL0     H67598  12.087   8.649   3.932 -0.5026  1.4714  1.5179
  501MOL0     H67599  12.106   8.373   3.740 -0.4815  1.9311  0.9238
  501MOL0     H67600  11.938   8.357   3.684  1.2358 -3.0633  2.1417
  501MOL0     H67601  12.033   8.443   3.458 -2.3684 -3.4758  0.4808
  501MOL0     H67602  12.199   8.446   3.523  1.8141 -1.6137 -0.0365
  501MOL0     H67603  12.201   8.201   3.558  0.4437  1.3140 -1.5673
  501MOL0     H67604  12.040   8.181   3.515  1.5892 -2.0955 -1.9926
  501MOL0     H67605  12.213   8.319   3.307  0.8009  0.0323  1.2900
  501MOL0     H67606  12.068   8.217   3.285  0.4137  0.3313  0.6310
  501MOL0     H67607  12.348   8.114   3.347  0.9537 -2.9400 -0.7420
  501MOL0     H67608  12.250   8.105   3.202 -1.2893  0.7363  0.6398
  501MOL0     H67609  12.277   7.903   3.350  0.7504  1.2569  0.1120
  501MOL0     H67610  12.163   7.985   3.466  0.4491  0.3061 -0.0936
  501MOL0     H67611  12.022   8.003   3.228 -0.7230 -0.7225 -2.1787
  501MOL0     H67612  12.004   7.873   3.345  0.7281  0.5672  1.9980
  501MOL0     H67613  12.191   7.835   3.103 -0.1806 -2.1011 -2.9344
  501MOL0     H67614  12.135   7.707   3.208 -0.5248 -1.2704 -0.1915
  501MOL0     H67615  11.755   8.516   3.697 -1.3888  1.4927 -0.5295
  501MOL0     H67616  11.600   8.623   3.848  0.7656  0.9226  1.4998
  501MOL0     H67617  11.565   8.909   4.250  1.4989 -1.5002  0.7301
  501MOL0     H67618  11.382   9.019   4.369 -3.6159 -0.0866 -1.3450
  501MOL0     H67619  10.342   9.287   5.534 -4.2515 -2.5921 -1.7582
  501MOL0     H67620  10.337   9.348   5.775 -4.0152 -1.6234  1.7337
  501MOL0     H67621  10.237   9.462   6.125  0.6222 -0.2419 -1.2319
  501MOL0     H67622  10.291   9.451   6.358  1.0853  0.9937  2.7051
  501MOL0     H67623  10.427   9.810   6.567 -0.6738 -0.8027 -0.8556
  501MOL0     H67624  10.549   9.678   6.536 -1.5164 -2.7007 -1.4982
  501MOL0     H67625  10.547   9.718   6.774  2.8477 -3.7834 -1.1939
  501MOL0     H67626  10.471   9.563   6.743  0.1637  0.4003  1.7402
  501MOL0     H67627  10.239   9.710   6.734  1.7817 -0.8041 -0.8732
  501MOL0     H67628  10.341   9.838   6.812 -0.4582  1.6083 -1.5912
  501MOL0     H67629  10.378   9.593   6.959  0.8330  0.6850 -0.6538
  501MOL0     H67630  10.290   9.743   7.017  0.7607  0.3381  0.1933
  501MOL0     H67631   9.998   9.443   6.935 -2.7379  2.7891  1.6324
  501MOL0     H67632  10.388   9.866   6.357  1.6572  0.0290  0.1388
  501MOL0     H67633  10.295   9.921   6.024 -0.7357 -2.0034 -1.0908
  501MOL0     H67634  10.364   9.987   6.177 -0.0235 -1.7156  2.4056
  501MOL0     H67635  10.466   9.895   6.053 -0.6979 -4.2405  0.6165
  502MOL0     O67636   2.159   2.182   8.861 -0.3340 -0.0243 -0.5855
  502MOL0     C67637   2.263   2.220   8.921  0.1629 -0.0028 -0.1941
  502MOL0     O67638   2.325   2.151   9.015 -0.2699 -0.7751 -0.2252
  502MOL0     C67639   2.286   2.031   9.043 -0.5730  0.2196 -0.1389
  502MOL0     C67640   2.180   2.004   9.125 -0.8026  0.3927  0.6523
  502MOL0     C67641   2.137   1.867   9.156  0.4587  0.6540  0.3867
  502MOL0     C67642   2.206   1.765   9.098  0.4546 -0.6262  0.6582
  502MOL0     O67643   2.180   1.625   9.095  0.0819  0.3235 -0.8050
  502MOL0     C67644   2.050   1.580   9.070  0.1138 -0.1833  0.3800
  502MOL0     C67645   2.035   1.569   8.920 -0.6543  0.5710  1.0491
  502MOL0     C67646   2.000   1.696   8.833  0.5841 -0.8177  0.8528
  502MOL0     C67647   1.852   1.737   8.824  0.8893 -1.3844  0.6568
  502MOL0     C67648   1.827   1.877   8.748 -0.2181 -0.2361 -0.6794
  502MOL0     C67649   1.685   1.903   8.706  0.5262  0.3832 -0.0449
  502MOL0     C67650   1.663   2.042   8.645  0.1140  0.4084  0.7362
  502MOL0     C67651   1.514   2.086   8.639  0.4200 -0.0405 -0.7387
  502MOL0     N67652   1.459   2.129   8.773  0.6889 -0.2461  0.6297
  502MOL0     C67653   1.363   2.065   8.854  0.0361  0.0304 -0.9368
  502MOL0     C67654   1.360   2.140   8.965 -0.6778 -0.2964 -0.2320
  502MOL0     C67655   1.283   2.118   9.088  0.1313 -0.7594 -0.0582
  502MOL0     C67656   1.195   2.248   9.118  0.4014 -0.0614  0.1579
  502MOL0     C67657   1.070   2.252   9.031 -0.2272 -0.5051  0.1344
  502MOL0     C67658   0.992   2.379   9.075 -0.4042 -0.1108  0.5680
  502MOL0     O67659   0.964   2.378   9.213  0.1167  0.2655 -0.0096
  502MOL0     C67660   0.912   2.472   9.290  0.0898 -0.3069  0.2528
  502MOL0     C67661   0.904   2.609   9.243  0.9989 -0.0444  0.6302
  502MOL0     C67662   0.826   2.698   9.310 -0.6623  0.1966 -1.1495
  502MOL0     C67663   0.772   2.675   9.443  0.5094  0.3980 -0.4974
  502MOL0     C67664   0.698   2.775   9.524 -0.9322  0.4213 -0.0528
  502MOL0     O67665   0.640   2.731   9.644  0.3599  0.2216  0.9720
  502MOL0     C67666   0.611   2.812   9.748  0.1419  0.1251 -0.2685
  502MOL0     C67667   0.637   2.764   9.877 -0.6135 -0.4710  1.1314
  502MOL0     C67668   0.617   2.848   9.991 -0.1898  0.4757 -0.1905
  502MOL0     C67669   0.569   2.977   9.969  0.0094 -0.5579 -0.2473
  502MOL0     O67670   0.517   3.037  10.085  0.2588 -0.5989  0.4457
  502MOL0     C67671   0.457   3.167  10.066 -0.5281 -0.2139  0.2886
  502MOL0     C67672   0.371   3.208  10.191  0.3186  0.7693  0.2632
  502MOL0     C67673   0.470   3.275  10.293  0.1530 -0.4351 -0.0733
  502MOL0     C67674   0.390   3.333  10.416 -0.4769 -0.4649  0.8686
  502MOL0     C67675   0.483   3.444  10.480  0.2267 -0.1799  0.2548
  502MOL0     C67676   0.498   3.569  10.390  1.1578 -0.2398  0.3048
  502MOL0     C67677   0.578   3.672  10.472  1.0882 -0.2159 -0.3401
  502MOL0     C67678   0.655   3.770  10.387 -0.0807  0.2946  0.4682
  502MOL0    Cl67679   0.707   3.905  10.489 -0.4940 -0.4444  0.7108
  502MOL0     C67680   0.548   3.030   9.839 -0.2837 -1.0278 -0.6993
  502MOL0     C67681   0.573   2.952   9.734 -0.0338  1.4337  0.0754
  502MOL0     O67682   0.722   2.896   9.496 -0.3955  0.1270  0.4372
  502MOL0     C67683   0.778   2.541   9.481 -0.2646  0.2077 -0.1787
  502MOL0     C67684   0.857   2.445   9.414 -1.2800 -0.5472  1.0621
  502MOL0     N67685   1.452   2.239   8.955  0.1572 -1.2908  0.0953
  502MOL0     N67686   1.512   2.229   8.843  0.0396 -0.0393  0.1326
  502MOL0     C67687   2.311   1.792   9.012 -0.1006 -0.1071 -0.5569
  502MOL0     C67688   2.358   1.917   8.986 -0.3428 -0.7619 -0.6760
  502MOL0     C67689   2.325   2.344   8.880  0.1820 -0.1795 -0.1882
  502MOL0     C67690   2.249   2.442   8.811  0.7180  0.0144 -0.3833
  502MOL0     C67691   2.289   2.564   8.763  0.6176 -0.6561  0.3197
  502MOL0     C67692   2.412   2.605   8.782 -0.1599 -0.1756 -0.1644
  502MOL0     O67693   2.471   2.703   8.710  0.4761 -0.1563 -0.2946
  502MOL0     C67694   2.409   2.835   8.719 -0.2291  0.6332 -0.2127
  502MOL0     C67695   2.485   2.946   8.649  0.2531 -0.3757 -0.2048
  502MOL0     C67696   2.625   2.972   8.698  0.2166  0.3682  0.3845
  502MOL0     C67697   2.643   3.004   8.853 -0.9146  0.1941  0.5255
  502MOL0     C67698   2.789   3.024   8.869 -0.1378 -0.1763  0.1134
  502MOL0     C67699   2.913   3.038   8.873 -0.1672  0.5591 -0.8212
  502MOL0     C67700   2.501   2.516   8.852 -0.2771  0.2844  0.5034
  502MOL0     C67701   2.456   2.391   8.908 -0.2684  0.0073  0.2140
  502MOL0     C67702   2.563   2.303   8.981  0.2484  0.5480  0.0275
  502MOL0     H67703   2.131   2.087   9.175  3.1859  3.0204  0.6536
  502MOL0     H67704   2.059   1.856   9.230  1.7640 -2.5754  1.4533
  502MOL0     H67705   2.040   1.479   9.112 -0.4986 -0.1364  0.3588
  502MOL0     H67706   1.970   1.646   9.106  0.8945  0.1798  1.4806
  502MOL0     H67707   1.959   1.492   8.908 -0.3900  0.4744 -0.1760
  502MOL0     H67708   2.126   1.543   8.865 -2.3846  1.6810 -2.7257
  502MOL0     H67709   2.040   1.681   8.732 -0.0077  3.9018 -0.3142
  502MOL0     H67710   2.062   1.780   8.867  1.1369 -0.0588 -1.7919
  502MOL0     H67711   1.799   1.661   8.766 -2.6656  1.8628 -0.7935
  502MOL0     H67712   1.800   1.749   8.919 -0.2416  1.1767 -0.1848
  502MOL0     H67713   1.864   1.955   8.816  1.9347 -0.6366 -1.3132
  502MOL0     H67714   1.896   1.880   8.663  3.3895 -2.2386  1.8712
  502MOL0     H67715   1.660   1.830   8.628 -3.4033  0.4917  0.8846
  502MOL0     H67716   1.627   1.886   8.797 -0.9307 -0.4495 -1.0850
  502MOL0     H67717   1.707   2.050   8.546 -0.9271  0.5035  0.2627
  502MOL0     H67718   1.727   2.114   8.698 -0.9228  1.8100  0.1350
  502MOL0     H67719   1.503   2.161   8.560  1.3970 -4.5370 -5.7361
  502MOL0     H67720   1.451   2.003   8.607 -0.4650  0.1829  0.3371
  502MOL0     H67721   1.318   1.968   8.837  0.1559  0.2887 -3.0103
  502MOL0     H67722   1.208   2.041   9.068 -1.8260  1.1351 -0.3758
  502MOL0     H67723   1.352   2.102   9.171  2.0621  0.5807 -1.3012
  502MOL0     H67724   1.159   2.244   9.221  0.9696  0.6006  0.3845
  502MOL0     H67725   1.252   2.339   9.098 -0.7478  0.6988  0.2581
  502MOL0     H67726   1.007   2.164   9.046 -0.1107 -0.8625 -1.3498
  502MOL0     H67727   1.110   2.266   8.931 -0.9287  0.5942 -0.0161
  502MOL0     H67728   0.905   2.389   9.010  1.2419  1.4705 -1.5342
  502MOL0     H67729   1.052   2.468   9.054 -1.3065  0.4528  0.3040
  502MOL0     H67730   0.948   2.635   9.147  1.1301 -0.5682  0.5437
  502MOL0     H67731   0.815   2.795   9.264  4.7616  1.1354 -1.1665
  502MOL0     H67732   0.661   2.658   9.875  0.9458 -0.1550 -1.3290
  502MOL0     H67733   0.625   2.811  10.092  1.1734  2.0459  0.3323
  502MOL0     H67734   0.537   3.239  10.045  2.0221 -2.6804  0.9729
  502MOL0     H67735   0.377   3.153   9.993 -1.5333  1.3726  1.0080
  502MOL0     H67736   0.300   3.290  10.173  0.3347  0.3446 -1.9360
  502MOL0     H67737   0.318   3.119  10.226 -0.8641  0.9815 -0.9409
  502MOL0     H67738   0.546   3.205  10.330  0.7576  1.0859  1.7246
  502MOL0     H67739   0.514   3.359  10.238 -0.8057 -1.4355 -2.5183
  502MOL0     H67740   0.373   3.249  10.484 -0.6379 -0.9575  0.2266
  502MOL0     H67741   0.288   3.359  10.387 -0.0054 -0.2605 -0.7104
  502MOL0     H67742   0.577   3.393  10.503 -0.6460 -2.0115 -0.1077
  502MOL0     H67743   0.443   3.473  10.578 -1.0067  1.5348 -0.7123
  502MOL0     H67744   0.538   3.547  10.290 -2.1222  1.0273 -1.4596
  502MOL0     H67745   0.398   3.609  10.370  1.3178  0.9075  1.6963
  502MOL0     H67746   0.640   3.621  10.547 -1.9483 -0.6299  2.1014
  502MOL0     H67747   0.504   3.728  10.531  0.8438  0.4932 -1.3013
  502MOL0     H67748   0.753   3.732  10.357  0.6239  2.1494  0.2743
  502MOL0     H67749   0.608   3.818  10.300 -3.5155 -0.9168  1.4842
  502MOL0     H67750   0.502   3.125   9.814  0.1297 -0.2943  1.1681
  502MOL0     H67751   0.542   2.986   9.636 -2.2779  1.6197  0.7736
  502MOL0     H67752   0.718   2.518   9.568  0.1446  2.0114  0.6470
  502MOL0     H67753   0.864   2.339   9.439  1.7160 -0.6862  0.0352
  502MOL0     H67754   2.366   1.720   8.952  3.4439  2.7099 -1.0934
  502MOL0     H67755   2.453   1.917   8.934 -0.1846 -3.3053 -0.5109
  502MOL0     H67756   2.146   2.421   8.783 -0.0783  4.8315 -2.0002
  502MOL0     H67757   2.227   2.630   8.703  0.0890  1.6803  3.2195
  502MOL0     H67758   2.412   2.857   8.826 -0.0481 -1.7106  0.3254
  502MOL0     H67759   2.307   2.823   8.682 -0.1891 -1.7720  0.2965
  502MOL0     H67760   2.422   3.036   8.642  0.0206 -0.1094  3.2873
  502MOL0     H67761   2.497   2.918   8.545 -0.2399 -0.9575 -0.1062
  502MOL0     H67762   2.671   3.055   8.644 -0.7689  2.3483  2.3861
  502MOL0     H67763   2.680   2.881   8.673 -1.5245  0.0256 -2.6938
  502MOL0     H67764   2.585   3.096   8.866 -1.6076 -0.1214 -0.2529
  502MOL0     H67765   2.604   2.921   8.914  1.2159 -2.2222 -1.1701
  502MOL0     H67766   3.020   3.030   8.878 -0.2962 -1.5738 -0.7644
  502MOL0     H67767   2.599   2.552   8.882  0.9262 -2.5818  0.3592
  502MOL0     H67768   2.562   2.204   8.933 -3.3299  0.5487 -0.1251
  502MOL0     H67769   2.664   2.342   8.966  0.7343  0.6168  2.8514
  502MOL0     H67770   2.550   2.295   9.090  1.0733 -2.2805  0.0176
  503MOL0     O67771   0.908   6.374  11.399  0.2013 -0.0990  0.3949
  503MOL0     C67772   0.941   6.287  11.310 -0.0010  0.0521 -0.6598
  503MOL0     O67773   0.852   6.226  11.230 -0.6720 -0.1478  0.0707
  503MOL0     C67774   0.722   6.253  11.247 -0.1990  0.6279 -0.0879
  503MOL0     C67775   0.637   6.185  11.336  0.0454  0.5906 -0.6237
  503MOL0     C67776   0.503   6.230  11.343 -1.1427 -0.2475 -0.7991
  503MOL0     C67777   0.449   6.329  11.256  0.9810  0.2772 -0.1278
  503MOL0     O67778   0.331   6.395  11.267 -0.1206  0.2194  0.0132
  503MOL0     C67779   0.253   6.359  11.372 -0.7527 -0.2290 -0.2742
  503MOL0     C67780   0.132   6.453  11.379 -0.2174 -0.6705  0.5142
  503MOL0     C67781   0.022   6.386  11.460  1.0462 -0.7118  0.1763
  503MOL0     C67782  -0.101   6.486  11.469 -0.2372 -0.7188 -0.5141
  503MOL0     C67783  -0.072   6.601  11.578 -0.0889  0.1620  0.5174
  503MOL0     C67784  -0.014   6.547  11.712  0.9412 -0.1679 -0.3598
  503MOL0     C67785  -0.041   6.642  11.839 -0.3406 -0.4161 -0.3253
  503MOL0     C67786   0.013   6.579  11.969  0.0949 -0.1788 -0.2876
  503MOL0     N67787  -0.009   6.677  12.077  0.7466 -0.9429  0.1422
  503MOL0     C67788   0.025   6.812  12.090  0.1017 -0.1436 -0.2695
  503MOL0     C67789  -0.017   6.843  12.214  0.3597 -0.2162 -0.4575
  503MOL0     C67790   0.000   6.972  12.277 -0.0192 -0.1101 -0.1542
  503MOL0     C67791  -0.133   7.046  12.280 -0.0345 -0.6282  0.1937
  503MOL0     C67792  -0.140   7.180  12.352  0.3413 -0.5792 -0.6348
  503MOL0     C67793  -0.098   7.169  12.502  0.5043  0.6427 -0.7832
  503MOL0     O67794   0.048   7.191  12.500 -0.3833  0.2191 -0.4800
  503MOL0     C67795   0.122   7.174  12.618  0.2988  0.3595 -0.6918
  503MOL0     C67796   0.093   7.089  12.733 -0.3746  0.4401  0.4099
  503MOL0     C67797   0.182   7.065  12.836 -0.1016 -0.0294  0.5937
  503MOL0     C67798   0.317   7.123  12.825 -0.5177  0.4972  0.2407
  503MOL0     C67799   0.409   7.091  12.934 -0.2695  0.5976 -0.3814
  503MOL0     O67800   0.359   7.031  13.054 -0.2322  0.1795 -0.1266
  503MOL0     C67801   0.444   7.024  13.160  0.2186  0.1135 -0.5791
  503MOL0     C67802   0.474   6.901  13.210  0.2778  0.2799  0.8374
  503MOL0     C67803   0.549   6.891  13.323 -0.0746  0.2397  0.1153
  503MOL0     C67804   0.613   7.004  13.383  0.2839  1.5355 -0.5838
  503MOL0     O67805   0.692   7.012  13.497  0.5945  0.3965 -0.3725
  503MOL0     C67806   0.658   6.931  13.611  0.3593  0.1952  0.2843
  503MOL0     C67807   0.540   6.973  13.691  1.0844 -0.2364 -0.1085
  503MOL0     C67808   0.494   6.863  13.786  0.5488 -0.5440 -0.0397
  503MOL0     C67809   0.371   6.891  13.864 -0.0854 -0.1064 -0.0924
  503MOL0     C67810   0.389   7.011  13.952  0.6769  1.4275  1.2022
  503MOL0     C67811   0.262   7.019  14.033  1.1319  0.3772  0.2470
  503MOL0     C67812   0.232   7.161  14.089  0.0781 -0.5600 -0.1926
  503MOL0     C67813   0.359   7.206  14.155 -0.3239  0.0981 -0.9041
  503MOL0    Cl67814   0.438   7.078  14.249  0.2801  0.1646  0.3400
  503MOL0     C67815   0.581   7.126  13.334  0.5625  0.6620  0.5484
  503MOL0     C67816   0.507   7.139  13.218  0.1079 -0.2446  0.1422
  503MOL0     O67817   0.523   7.116  12.914 -0.0456 -0.0904  0.9011
  503MOL0     C67818   0.345   7.195  12.712 -1.5431  0.2780  0.6055
  503MOL0     C67819   0.253   7.230  12.614 -0.0213  0.4153 -0.3832
  503MOL0     N67820  -0.077   6.733  12.278 -0.2012 -0.1112 -0.1733
  503MOL0     N67821  -0.080   6.640  12.186  0.1289  0.2525 -0.3823
  503MOL0     C67822   0.538   6.382  11.162  1.0005  0.1119  0.3159
  503MOL0     C67823   0.667   6.347  11.159 -0.0078  0.5126  0.5091
  503MOL0     C67824   1.087   6.256  11.294  0.5046 -0.1857 -0.5134
  503MOL0     C67825   1.124   6.186  11.178 -0.6729  0.0592  1.6314
  503MOL0     C67826   1.256   6.166  11.130 -0.5900  0.2818 -0.3347
  503MOL0     C67827   1.359   6.203  11.219 -1.3255  0.2923 -0.7675
  503MOL0     O67828   1.491   6.155  11.217 -0.5767 -0.0804  0.1559
  503MOL0     C67829   1.524   6.047  11.126  0.1250 -0.2550  0.6556
  503MOL0     C67830   1.676   6.006  11.152  0.1198 -0.8493  0.0701
  503MOL0     C67831   1.769   6.126  11.131 -0.0209 -1.0735  0.3848
  503MOL0     C67832   1.910   6.106  11.187  1.1349 -0.3456 -0.0916
  503MOL0     C67833   2.009   6.206  11.138 -0.3131 -0.0136 -0.2228
  503MOL0     C67834   2.096   6.288  11.105  0.0999  0.7955  0.4104
  503MOL0     C67835   1.326   6.275  11.337  0.5698  0.8196 -0.9851
  503MOL0     C67836   1.188   6.304  11.375 -0.0455 -0.5850  0.2830
  503MOL0     C67837   1.169   6.363  11.506  0.7567  0.8673  0.3072
  503MOL0     H67838   0.673   6.103  11.397  0.5689 -0.4279 -2.2596
  503MOL0     H67839   0.447   6.192  11.428  0.0026 -1.1290 -0.4007
  503MOL0     H67840   0.206   6.263  11.351 -0.5025 -0.5690  0.6680
  503MOL0     H67841   0.312   6.357  11.464  0.5450  2.3476 -0.9480
  503MOL0     H67842   0.086   6.472  11.281 -0.6936  1.6440  1.1136
  503MOL0     H67843   0.155   6.549  11.426 -0.4336 -0.2350 -0.2398
  503MOL0     H67844   0.055   6.341  11.554  0.0523  1.4758  1.6559
  503MOL0     H67845  -0.012   6.300  11.401 -0.0882 -0.6828  0.7742
  503MOL0     H67846  -0.123   6.535  11.373  1.0803 -0.5191 -0.7357
  503MOL0     H67847  -0.188   6.421  11.486 -0.2074  0.0685  3.6832
  503MOL0     H67848  -0.004   6.682  11.547  0.1981 -0.2461  0.0613
  503MOL0     H67849  -0.168   6.645  11.605  1.0115  2.9649  0.2168
  503MOL0     H67850  -0.055   6.448  11.735 -0.0576  0.2588 -0.2617
  503MOL0     H67851   0.095   6.544  11.695  1.1416  3.2693 -0.2347
  503MOL0     H67852  -0.148   6.652  11.853 -1.0375 -2.7304 -2.9071
  503MOL0     H67853   0.015   6.735  11.823  3.1143 -2.6204 -2.6923
  503MOL0     H67854  -0.053   6.493  11.986 -3.3407  1.9472 -1.6896
  503MOL0     H67855   0.120   6.555  11.973  0.3287  0.8782  0.3770
  503MOL0     H67856   0.070   6.880  12.017 -1.2104  1.5302  0.4156
  503MOL0     H67857   0.037   6.954  12.378  0.4314 -1.3570 -0.5220
  503MOL0     H67858   0.079   7.028  12.227  1.0065 -1.2434  0.1354
  503MOL0     H67859  -0.169   7.065  12.178  1.9067 -2.6657 -0.9729
  503MOL0     H67860  -0.207   6.981  12.326  1.4588 -2.9818 -0.5603
  503MOL0     H67861  -0.239   7.226  12.344  0.9279  0.8751  0.0256
  503MOL0     H67862  -0.064   7.252  12.320  0.5641  0.6335  2.2717
  503MOL0     H67863  -0.122   7.069  12.539 -0.6736 -0.5884 -4.4886
  503MOL0     H67864  -0.147   7.251  12.556 -0.5678  1.1329 -2.4233
  503MOL0     H67865  -0.005   7.040  12.731 -0.1088 -0.1140  0.6519
  503MOL0     H67866   0.159   7.017  12.931  0.5789 -0.6334  0.4638
  503MOL0     H67867   0.445   6.805  13.170  2.0602  0.0549 -0.0249
  503MOL0     H67868   0.567   6.792  13.366 -1.4643  1.0070  2.6819
  503MOL0     H67869   0.649   6.827  13.579 -1.5676  0.1022  0.9548
  503MOL0     H67870   0.744   6.946  13.677 -0.3402 -0.8301  1.4845
  503MOL0     H67871   0.569   7.061  13.749  0.4853 -0.4823  0.5778
  503MOL0     H67872   0.459   7.011  13.628  1.4175  0.1900 -0.2944
  503MOL0     H67873   0.471   6.770  13.733 -1.8162 -0.5869  0.9471
  503MOL0     H67874   0.569   6.839  13.862 -0.6106  1.2743  1.7653
  503MOL0     H67875   0.331   6.801  13.912  0.1759 -1.2457 -1.9107
  503MOL0     H67876   0.292   6.921  13.796  2.5745  3.0526 -2.0830
  503MOL0     H67877   0.397   7.097  13.885 -0.4020  1.1605  0.7125
  503MOL0     H67878   0.490   7.003  13.995  1.6466  1.0480 -0.9807
  503MOL0     H67879   0.179   6.986  13.971  1.7003  2.9015 -2.0229
  503MOL0     H67880   0.277   6.943  14.111  0.6070  0.8290  0.7968
  503MOL0     H67881   0.149   7.163  14.160  1.8056 -1.9450  1.9888
  503MOL0     H67882   0.209   7.228  14.005  2.0296 -0.3072 -0.5787
  503MOL0     H67883   0.431   7.237  14.078 -1.4212  4.7943 -0.3303
  503MOL0     H67884   0.350   7.288  14.227 -2.8254 -1.0894  0.2637
  503MOL0     H67885   0.636   7.209  13.375 -1.1701  1.8481  0.5604
  503MOL0     H67886   0.495   7.241  13.183  2.8228  0.3581  0.7294
  503MOL0     H67887   0.445   7.238  12.709 -2.0363  1.4280 -0.2720
  503MOL0     H67888   0.289   7.285  12.528  1.3254  1.6525  0.9096
  503MOL0     H67889   0.494   6.458  11.099  0.4372 -0.5164 -0.0658
  503MOL0     H67890   0.727   6.399  11.084 -0.6061  2.1015  1.0907
  503MOL0     H67891   1.052   6.133  11.116 -0.0823  0.7895  0.2546
  503MOL0     H67892   1.268   6.108  11.038 -3.9454 -2.6351  0.8348
  503MOL0     H67893   1.519   6.090  11.026  2.5941  0.6909  0.8828
  503MOL0     H67894   1.465   5.955  11.138  2.0621 -1.7107 -0.2772
  503MOL0     H67895   1.703   5.925  11.085 -2.7464 -2.4994  0.7361
  503MOL0     H67896   1.685   5.978  11.257 -4.3194 -2.4529  0.2242
  503MOL0     H67897   1.734   6.227  11.156  0.8193 -0.6406 -0.1534
  503MOL0     H67898   1.776   6.127  11.022 -1.1291 -1.3108  0.2977
  503MOL0     H67899   1.920   6.123  11.294 -0.2217 -0.1188  0.0156
  503MOL0     H67900   1.947   6.010  11.149 -0.3220 -0.7701 -0.5176
  503MOL0     H67901   2.167   6.361  11.073  1.1880  0.6171  2.2528
  503MOL0     H67902   1.401   6.287  11.414 -1.0515  4.1655  0.2810
  503MOL0     H67903   1.125   6.463  11.503  2.1687  1.4871 -1.0435
  503MOL0     H67904   1.098   6.303  11.563  3.2444 -3.3575 -0.5742
  503MOL0     H67905   1.265   6.368  11.558  0.3509 -1.0618  1.3487
  504MOL0     O67906   5.320   6.818   8.885  0.4637 -0.0956  0.4465
  504MOL0     C67907   5.257   6.771   8.978  0.0496 -0.2153  0.5491
  504MOL0     O67908   5.209   6.640   8.984  0.0043 -0.2404 -0.1566
  504MOL0     C67909   5.273   6.548   8.900 -0.6258  0.3427 -0.0990
  504MOL0     C67910   5.379   6.471   8.947 -0.1534  0.5044 -0.0888
  504MOL0     C67911   5.455   6.390   8.860  0.1180  0.1968  0.1716
  504MOL0     C67912   5.424   6.388   8.726  0.8161  0.4565  0.2967
  504MOL0     O67913   5.496   6.303   8.648  0.1959 -0.6690 -0.8998
  504MOL0     C67914   5.503   6.334   8.506  0.4520 -0.4259  0.1119
  504MOL0     C67915   5.594   6.234   8.445  0.1405  0.4694  0.4581
  504MOL0     C67916   5.593   6.236   8.299 -0.5744 -0.0467  0.3524
  504MOL0     C67917   5.686   6.125   8.246  0.2501 -0.8717 -1.2998
  504MOL0     C67918   5.714   6.150   8.096  0.0324  0.2073  0.8178
  504MOL0     C67919   5.757   6.015   8.033  0.0034  0.1640  0.0784
  504MOL0     C67920   5.780   6.019   7.886 -0.4768 -0.3721  1.0720
  504MOL0     C67921   5.837   5.880   7.842  0.0492 -0.4476  0.2530
  504MOL0     N67922   5.751   5.763   7.863  0.7538 -0.2739  1.3359
  504MOL0     C67923   5.748   5.684   7.970 -0.2022 -0.4265 -0.0950
  504MOL0     C67924   5.684   5.575   7.931 -0.1225 -0.5583 -0.1141
  504MOL0     C67925   5.675   5.463   8.029 -0.0220 -0.5067 -0.0098
  504MOL0     C67926   5.747   5.339   7.973 -0.6363  0.2606 -0.0017
  504MOL0     C67927   5.893   5.354   8.006  0.7451  1.3495 -0.4760
  504MOL0     C67928   5.965   5.236   7.941  0.4400 -0.4761 -0.3434
  504MOL0     O67929   6.044   5.169   8.042  0.4455 -0.6378  0.5297
  504MOL0     C67930   6.111   5.051   8.001  0.1460 -0.9147 -0.6190
  504MOL0     C67931   6.164   4.986   8.100 -0.8934 -0.4032  0.0383
  504MOL0     C67932   6.236   4.869   8.091 -0.1345  0.2033  0.5992
  504MOL0     C67933   6.240   4.810   7.960  0.4298 -0.5611  0.2133
  504MOL0     C67934   6.306   4.681   7.940  0.2329  0.4384 -0.3072
  504MOL0     O67935   6.362   4.618   8.051 -0.3472  0.3347  0.1045
  504MOL0     C67936   6.439   4.508   8.014 -0.6194  0.6030  0.3410
  504MOL0     C67937   6.575   4.538   7.998  0.6373 -0.2108  0.9182
  504MOL0     C67938   6.661   4.430   7.967 -0.0605 -0.6347  0.4422
  504MOL0     C67939   6.619   4.299   7.951 -0.0747  0.4631  0.0508
  504MOL0     O67940   6.709   4.197   7.956  0.4186 -0.6104  0.4128
  504MOL0     C67941   6.769   4.173   7.826  0.1746 -0.5495  0.7787
  504MOL0     C67942   6.714   4.057   7.752  0.2262 -0.8617  0.5491
  504MOL0     C67943   6.777   3.919   7.795 -0.6761  0.0106 -0.1647
  504MOL0     C67944   6.707   3.792   7.737 -1.5197 -0.3038 -0.2553
  504MOL0     C67945   6.810   3.686   7.759  0.4189  0.5087  0.0078
  504MOL0     C67946   6.749   3.545   7.741 -0.6952  0.0291  0.7343
  504MOL0     C67947   6.850   3.433   7.745 -0.3382 -0.0419 -0.0448
  504MOL0     C67948   6.778   3.297   7.736 -0.0594  0.5399  0.4570
  504MOL0    Cl67949   6.705   3.276   7.578 -0.2542 -0.1062  0.0182
  504MOL0     C67950   6.489   4.278   7.990 -0.1796 -0.8464 -0.5314
  504MOL0     C67951   6.403   4.374   8.020 -0.1681 -0.0514  0.4919
  504MOL0     O67952   6.297   4.632   7.827  1.0189  0.4110  0.6199
  504MOL0     C67953   6.186   4.881   7.850 -0.0912  0.5580 -0.2350
  504MOL0     C67954   6.120   5.001   7.873  0.7763 -0.7003  0.6067
  504MOL0     N67955   5.644   5.591   7.797  0.0989  0.9607  0.0090
  504MOL0     N67956   5.675   5.709   7.764 -0.0829  0.5674 -0.5428
  504MOL0     C67957   5.314   6.464   8.674 -0.1548 -1.0589 -0.1992
  504MOL0     C67958   5.240   6.547   8.768  0.1011  0.2066  0.2240
  504MOL0     C67959   5.198   6.869   9.071  0.8764  0.1957 -0.2645
  504MOL0     C67960   5.066   6.837   9.115  0.4127 -0.6043  0.5100
  504MOL0     C67961   4.987   6.935   9.191  0.3001  0.4974  0.7963
  504MOL0     C67962   5.036   7.062   9.204 -0.2495  0.5379 -1.1918
  504MOL0     O67963   4.975   7.174   9.250 -0.5383  0.6421 -0.4045
  504MOL0     C67964   4.844   7.169   9.300 -0.8147 -0.7470  0.4173
  504MOL0     C67965   4.845   7.126   9.444 -0.5581 -0.3124 -0.7059
  504MOL0     C67966   4.921   7.239   9.530  0.9341 -0.0520 -0.6667
  504MOL0     C67967   4.922   7.193   9.681  0.3921  0.3954 -0.3071
  504MOL0     C67968   4.935   7.314   9.770  0.3485 -0.1402  0.2403
  504MOL0     C67969   4.949   7.418   9.826  0.9999  0.1749  0.0611
  504MOL0     C67970   5.171   7.089   9.176  0.7581  1.0838 -0.8053
  504MOL0     C67971   5.244   6.993   9.097  0.3514  0.0585  0.3986
  504MOL0     C67972   5.370   7.058   9.055  1.2900  0.0731 -0.2570
  504MOL0     H67973   5.407   6.478   9.051  3.1155 -2.2354 -0.5861
  504MOL0     H67974   5.538   6.332   8.899  0.4566 -0.2334 -1.1210
  504MOL0     H67975   5.403   6.317   8.464  1.4795 -0.2994 -2.5395
  504MOL0     H67976   5.533   6.436   8.484  1.7984 -1.4337 -3.3108
  504MOL0     H67977   5.557   6.132   8.462  3.2286 -1.0085 -0.9081
  504MOL0     H67978   5.697   6.242   8.481  0.0280 -0.7129  1.1100
  504MOL0     H67979   5.630   6.331   8.260 -1.0987 -0.6062 -1.6240
  504MOL0     H67980   5.492   6.226   8.260 -0.5166  0.4885  0.0558
  504MOL0     H67981   5.783   6.124   8.296  0.4747  0.5490 -1.6553
  504MOL0     H67982   5.637   6.029   8.266  0.2385 -0.3278  1.8283
  504MOL0     H67983   5.616   6.181   8.059 -1.3609 -2.9875  1.5048
  504MOL0     H67984   5.784   6.232   8.077 -1.6962  1.2161 -1.6862
  504MOL0     H67985   5.849   5.968   8.069  1.1031  1.1510 -1.2944
  504MOL0     H67986   5.672   5.950   8.053  0.4150 -0.8166 -1.2151
  504MOL0     H67987   5.863   6.089   7.873  0.5332 -1.5328  1.1116
  504MOL0     H67988   5.688   6.031   7.827 -0.4050 -0.7094  0.8916
  504MOL0     H67989   5.867   5.892   7.737 -2.4879 -0.9081 -0.5928
  504MOL0     H67990   5.926   5.856   7.901 -0.9215  0.6018  2.2399
  504MOL0     H67991   5.789   5.698   8.070  0.8916  0.2884 -0.6358
  504MOL0     H67992   5.711   5.493   8.128  2.0326  1.9764 -1.3865
  504MOL0     H67993   5.570   5.440   8.049  0.7009 -4.9084 -0.1627
  504MOL0     H67994   5.709   5.245   8.015  0.4633 -0.3490 -0.3228
  504MOL0     H67995   5.733   5.335   7.865 -2.8422  0.6087  0.2234
  504MOL0     H67996   5.913   5.360   8.114  0.4419 -3.0190  0.0106
  504MOL0     H67997   5.929   5.446   7.960  3.4846  1.4306  1.5818
  504MOL0     H67998   6.032   5.285   7.869 -1.0618  1.2541 -0.6276
  504MOL0     H67999   5.894   5.168   7.893 -3.0579  1.9849  0.9192
  504MOL0     H68000   6.160   5.035   8.197 -1.8779 -0.3832 -0.0090
  504MOL0     H68001   6.288   4.828   8.176 -0.3153 -0.3246  0.4606
  504MOL0     H68002   6.606   4.641   7.989 -0.5473  0.2318  1.7204
  504MOL0     H68003   6.767   4.453   7.961 -0.6490  2.6342  0.4164
  504MOL0     H68004   6.764   4.264   7.765  3.7876 -0.2491  0.7193
  504MOL0     H68005   6.876   4.155   7.838  0.1288 -0.6556  1.0232
  504MOL0     H68006   6.606   4.045   7.768 -0.9650  2.5335 -3.1730
  504MOL0     H68007   6.732   4.080   7.646 -1.4596  0.6571  0.5380
  504MOL0     H68008   6.880   3.930   7.761 -0.9941  1.5828 -0.7049
  504MOL0     H68009   6.791   3.911   7.903  4.3505  0.7458 -0.4958
  504MOL0     H68010   6.688   3.803   7.629  1.4878 -0.7355 -0.9113
  504MOL0     H68011   6.615   3.772   7.793 -0.1488  0.7068  2.5553
  504MOL0     H68012   6.841   3.675   7.863  0.6538 -3.2917 -0.3365
  504MOL0     H68013   6.897   3.702   7.694 -0.0397 -3.6233 -1.9198
  504MOL0     H68014   6.700   3.522   7.836 -0.4713 -1.6315  0.4678
  504MOL0     H68015   6.694   3.535   7.647  0.9156 -1.3337 -0.1088
  504MOL0     H68016   6.917   3.449   7.830  1.2796  1.5341 -1.5175
  504MOL0     H68017   6.914   3.446   7.657  1.0268  0.1256  0.9462
  504MOL0     H68018   6.845   3.212   7.748 -1.1315 -0.0358  3.1323
  504MOL0     H68019   6.710   3.285   7.821  0.0267 -0.9193  0.3305
  504MOL0     H68020   6.451   4.176   7.999  0.5546 -1.3225 -2.2852
  504MOL0     H68021   6.301   4.348   8.043 -0.4206 -0.9804 -1.4380
  504MOL0     H68022   6.202   4.851   7.747 -0.8388 -1.0551  0.0824
  504MOL0     H68023   6.090   5.051   7.782  0.6267 -0.2835  0.8790
  504MOL0     H68024   5.285   6.461   8.569 -0.7944 -0.5648 -0.0388
  504MOL0     H68025   5.159   6.611   8.735 -0.9240 -2.5765 -3.3593
  504MOL0     H68026   5.015   6.742   9.107 -0.1030 -0.2078 -1.2614
  504MOL0     H68027   4.887   6.912   9.228  0.4146  0.0190  0.8193
  504MOL0     H68028   4.784   7.098   9.243  0.4360  0.9985 -3.4766
  504MOL0     H68029   4.798   7.267   9.288 -0.6092 -0.9395 -2.8232
  504MOL0     H68030   4.891   7.027   9.449  0.5046  0.0733 -2.2997
  504MOL0     H68031   4.745   7.113   9.487  0.2491  0.9280  1.7066
  504MOL0     H68032   4.880   7.339   9.514  2.5897  0.9215  0.8884
  504MOL0     H68033   5.026   7.240   9.500  0.3494 -0.7129 -2.9229
  504MOL0     H68034   4.839   7.129   9.711 -1.5334  1.4707 -2.8876
  504MOL0     H68035   5.010   7.132   9.700  0.4910  1.1934  2.1714
  504MOL0     H68036   4.963   7.513   9.873  2.3252 -0.4956  1.1043
  504MOL0     H68037   5.196   7.187   9.214  1.4417  0.8026 -0.5194
  504MOL0     H68038   5.363   7.094   8.951 -0.9425  0.0415 -0.1631
  504MOL0     H68039   5.407   7.138   9.120  1.6268  1.9486 -2.6073
  504MOL0     H68040   5.451   6.985   9.050 -0.2654 -2.1741  3.4398
  505MOL0     O68041   6.466   3.430   0.393  0.0864 -0.0359  0.1776
  505MOL0     C68042   6.364   3.453   0.330 -0.8006  0.3053  0.1259
  505MOL0     O68043   6.344   3.397   0.209  0.2182 -0.0260  0.2108
  505MOL0     C68044   6.448   3.335   0.137 -0.8387 -0.3494  0.1815
  505MOL0     C68045   6.419   3.219   0.077  0.6847  0.2805  0.4094
  505MOL0     C68046   6.513   3.159  -0.010 -0.0938  0.3966 -0.6390
  505MOL0     C68047   6.634   3.218  -0.043  0.6705  0.5134 -0.1606
  505MOL0     O68048   6.714   3.141  -0.130  0.3395  0.7417  0.0286
  505MOL0     C68049   6.845   3.180  -0.174  0.0918  0.6316  0.6362
  505MOL0     C68050   6.892   3.062  -0.253  0.7519 -0.2623 -0.5287
  505MOL0     C68051   7.003   3.098  -0.358 -0.0963 -0.0817 -0.4671
  505MOL0     C68052   7.134   3.119  -0.280 -0.5870  0.0478 -0.2323
  505MOL0     C68053   7.241   3.169  -0.375  0.0717 -0.0010 -0.9405
  505MOL0     C68054   7.276   3.072  -0.480  0.3255 -0.6727  0.2587
  505MOL0     C68055   7.379   3.130  -0.567 -0.3541 -0.4700  0.8967
  505MOL0     C68056   7.359   3.086  -0.711  0.7880 -0.9581  1.1064
  505MOL0     N68057   7.241   3.136  -0.786  0.1682  0.2517 -0.4185
  505MOL0     C68058   7.174   3.251  -0.766  0.5620 -0.4801  0.2071
  505MOL0     C68059   7.076   3.247  -0.868 -0.1994  0.3947  0.9046
  505MOL0     C68060   6.965   3.327  -0.911 -0.5183 -0.0183  0.1128
  505MOL0     C68061   6.838   3.272  -0.857 -0.1787 -0.9322 -0.6591
  505MOL0     C68062   6.724   3.343  -0.918 -0.0433  0.3568 -0.0800
  505MOL0     C68063   6.591   3.281  -0.884 -0.3930 -0.6873  0.6655
  505MOL0     O68064   6.556   3.161  -0.959 -0.6539 -0.1673  0.0066
  505MOL0     C68065   6.430   3.102  -0.940  0.3794 -0.8389 -0.2541
  505MOL0     C68066   6.420   2.977  -0.992  0.2518  0.2504  0.0486
  505MOL0     C68067   6.296   2.918  -0.991 -0.3469 -0.3698  0.3008
  505MOL0     C68068   6.182   2.980  -0.947 -0.7228 -0.2094 -0.1629
  505MOL0     C68069   6.056   2.915  -0.948 -0.4262 -0.1217  0.9134
  505MOL0     O68070   5.944   2.979  -0.923  0.2530  0.6391  0.0709
  505MOL0     C68071   5.829   2.913  -0.912 -0.3738  1.0211  0.2440
  505MOL0     C68072   5.779   2.818  -1.003 -0.6700  0.1734 -0.5644
  505MOL0     C68073   5.646   2.773  -0.991 -0.3162 -0.0296 -0.1687
  505MOL0     C68074   5.576   2.798  -0.873 -0.8368 -0.1793  0.2509
  505MOL0     O68075   5.455   2.746  -0.860 -0.2737  0.2995 -0.7127
  505MOL0     C68076   5.376   2.714  -0.969  0.7404 -0.3133 -0.3902
  505MOL0     C68077   5.231   2.703  -0.916 -0.4156  0.6635  0.1219
  505MOL0     C68078   5.210   2.610  -0.796 -0.0140  0.5920 -0.6403
  505MOL0     C68079   5.068   2.605  -0.760  0.7128  0.3013  0.2114
  505MOL0     C68080   5.015   2.483  -0.676  0.8560 -0.6290 -1.2633
  505MOL0     C68081   4.873   2.499  -0.605 -1.0261  0.2746  0.2198
  505MOL0     C68082   4.753   2.481  -0.697  0.8055 -0.1276 -0.2313
  505MOL0     C68083   4.624   2.473  -0.619  0.4647  0.3283 -0.9253
  505MOL0    Cl68084   4.621   2.608  -0.502  0.0427 -0.3191 -0.0209
  505MOL0     C68085   5.627   2.888  -0.777  0.1625 -0.0918 -0.1716
  505MOL0     C68086   5.750   2.943  -0.794  0.3265  0.7443 -0.3110
  505MOL0     O68087   6.064   2.789  -0.969 -0.6135 -0.1023 -0.1231
  505MOL0     C68088   6.193   3.112  -0.895  0.2143 -0.4018 -0.0723
  505MOL0     C68089   6.316   3.171  -0.882  0.1325  0.2997  0.0714
  505MOL0     N68090   7.096   3.125  -0.938  0.1874 -0.7511 -0.1435
  505MOL0     N68091   7.190   3.065  -0.892  0.3214 -0.2342 -0.0308
  505MOL0     C68092   6.660   3.334   0.029 -0.3044 -0.2500  0.2107
  505MOL0     C68093   6.573   3.388   0.116 -0.8643 -0.7097 -0.0800
  505MOL0     C68094   6.257   3.538   0.378 -0.0041 -0.4758  0.7319
  505MOL0     C68095   6.172   3.599   0.287 -0.7115  1.0987 -0.1361
  505MOL0     C68096   6.067   3.684   0.323 -0.2740  0.0506  0.0411
  505MOL0     C68097   6.059   3.720   0.459 -0.2058  0.3334  0.5322
  505MOL0     O68098   5.967   3.812   0.496  0.8669  0.0619  0.4215
  505MOL0     C68099   6.002   3.898   0.606  0.4115  0.4976  0.7349
  505MOL0     C68100   5.918   4.025   0.612  0.5118 -0.4221  0.0380
  505MOL0     C68101   5.979   4.137   0.538  0.1176 -0.3388  0.1606
  505MOL0     C68102   5.930   4.279   0.574 -0.7448 -0.3051 -0.7008
  505MOL0     C68103   5.790   4.296   0.544 -0.2707 -1.1555  0.4648
  505MOL0     C68104   5.673   4.311   0.509  0.1753  1.0468  0.7354
  505MOL0     C68105   6.149   3.667   0.554  0.0992 -0.0565  0.0492
  505MOL0     C68106   6.240   3.571   0.515 -0.1459 -0.6786 -1.6360
  505MOL0     C68107   6.322   3.512   0.627  1.1311  0.5333  0.5437
  505MOL0     H68108   6.322   3.173   0.094 -0.5238  1.9035 -1.6160
  505MOL0     H68109   6.492   3.068  -0.067 -0.1644 -1.0847  1.6462
  505MOL0     H68110   6.839   3.265  -0.243  2.6404  0.6225  0.3081
  505MOL0     H68111   6.932   3.196  -0.110 -0.9281  1.8526  1.7571
  505MOL0     H68112   6.803   3.027  -0.306 -1.1098  2.4101  0.6371
  505MOL0     H68113   6.926   2.979  -0.191 -1.4459 -0.6287  0.2811
  505MOL0     H68114   6.965   3.174  -0.428 -0.5669  0.6072  0.5110
  505MOL0     H68115   7.016   3.002  -0.409 -0.8476 -0.5215  0.1580
  505MOL0     H68116   7.115   3.193  -0.202 -0.0081  1.2656 -1.2231
  505MOL0     H68117   7.166   3.031  -0.223  1.1139  2.4231  2.7996
  505MOL0     H68118   7.206   3.264  -0.416  1.1220  0.8611  0.0923
  505MOL0     H68119   7.331   3.184  -0.315 -0.2622  2.3256 -0.9153
  505MOL0     H68120   7.316   2.975  -0.448  0.0661 -1.0804 -0.6234
  505MOL0     H68121   7.190   3.061  -0.545  1.4997 -0.3486 -1.4076
  505MOL0     H68122   7.480   3.110  -0.532  0.9844  0.4795 -2.0532
  505MOL0     H68123   7.380   3.239  -0.579 -1.2111 -0.2430  2.5906
  505MOL0     H68124   7.448   3.126  -0.761  0.3298 -1.2656  0.0309
  505MOL0     H68125   7.361   2.977  -0.722  1.4085 -0.7230 -1.6797
  505MOL0     H68126   7.209   3.328  -0.698  0.9179 -0.0872 -0.4110
  505MOL0     H68127   6.973   3.428  -0.870 -1.7520 -1.0833  3.2735
  505MOL0     H68128   6.976   3.333  -1.020  4.2362  1.3492  0.4345
  505MOL0     H68129   6.838   3.164  -0.875  0.2530 -1.0552  0.0193
  505MOL0     H68130   6.842   3.273  -0.748  1.9410 -3.2778 -0.6183
  505MOL0     H68131   6.732   3.349  -1.027 -1.3208 -0.5669 -0.2429
  505MOL0     H68132   6.727   3.446  -0.880 -2.8980 -0.1997  1.9626
  505MOL0     H68133   6.511   3.351  -0.909  0.8775  0.3959 -0.5085
  505MOL0     H68134   6.581   3.254  -0.778 -1.8707 -1.4822  0.3475
  505MOL0     H68135   6.504   2.925  -1.037  1.3460  0.9088  1.2501
  505MOL0     H68136   6.294   2.815  -1.026 -1.0750  0.0605 -0.9819
  505MOL0     H68137   5.840   2.780  -1.084  0.3245  1.4419 -0.4364
  505MOL0     H68138   5.609   2.700  -1.062 -1.6590 -1.1242  1.5651
  505MOL0     H68139   5.380   2.798  -1.038  0.1017 -2.0467 -2.6543
  505MOL0     H68140   5.411   2.633  -1.033 -0.2455 -1.0932  0.0175
  505MOL0     H68141   5.195   2.804  -0.898  0.7262  0.7212  2.3352
  505MOL0     H68142   5.176   2.661  -1.001  2.8565  1.1575 -2.4718
  505MOL0     H68143   5.240   2.508  -0.823 -0.9374  0.1052  0.1225
  505MOL0     H68144   5.253   2.649  -0.703  0.7564  0.0923 -0.7803
  505MOL0     H68145   5.012   2.605  -0.854  1.7147  0.4362 -0.4012
  505MOL0     H68146   5.041   2.699  -0.711  1.1870 -0.5214  2.1115
  505MOL0     H68147   5.084   2.465  -0.593 -0.6843  0.9893  0.4670
  505MOL0     H68148   5.021   2.397  -0.744 -1.1332 -0.8794 -1.1908
  505MOL0     H68149   4.869   2.431  -0.519  1.8321  0.5744  0.6681
  505MOL0     H68150   4.871   2.597  -0.556 -2.5742 -0.5858  1.9935
  505MOL0     H68151   4.746   2.396  -0.766 -1.2576  0.2021 -0.4911
  505MOL0     H68152   4.735   2.569  -0.759  1.3300 -0.1355 -0.3913
  505MOL0     H68153   4.530   2.474  -0.676 -0.3418 -0.0027  0.3522
  505MOL0     H68154   4.607   2.376  -0.572 -2.3537  0.8105 -0.7428
  505MOL0     H68155   5.563   2.908  -0.692 -1.6424  2.9952 -2.0548
  505MOL0     H68156   5.784   3.023  -0.728 -2.9979  6.3233 -4.4093
  505MOL0     H68157   6.104   3.159  -0.855 -0.4566 -1.9653  0.3597
  505MOL0     H68158   6.328   3.273  -0.847  2.2170  0.3101 -0.5169
  505MOL0     H68159   6.756   3.382   0.014  0.3532 -1.2385  1.1515
  505MOL0     H68160   6.606   3.486   0.149 -0.6296 -1.1137  0.9068
  505MOL0     H68161   6.159   3.584   0.181  0.3406 -1.0671 -0.0200
  505MOL0     H68162   5.992   3.729   0.258 -0.7200 -1.5492 -0.6069
  505MOL0     H68163   6.108   3.917   0.626  1.2712 -0.2431 -2.5667
  505MOL0     H68164   5.955   3.844   0.688  1.9196  2.1758  2.8113
  505MOL0     H68165   5.910   4.060   0.715 -2.1108  2.5335 -1.0075
  505MOL0     H68166   5.815   4.004   0.578 -0.6187  2.1180  1.6411
  505MOL0     H68167   5.983   4.124   0.430 -0.2059  1.5208 -0.1042
  505MOL0     H68168   6.081   4.155   0.571 -0.5258  2.4479  0.8973
  505MOL0     H68169   5.931   4.302   0.681 -0.0849  0.1832 -0.8049
  505MOL0     H68170   5.995   4.344   0.514 -1.0272  0.8467  0.2019
  505MOL0     H68171   5.572   4.316   0.473  1.0962  1.3960 -1.9826
  505MOL0     H68172   6.143   3.697   0.659  1.7607  0.3276  0.0602
  505MOL0     H68173   6.301   3.561   0.723 -2.2647  1.3906 -0.5131
  505MOL0     H68174   6.321   3.403   0.634 -1.1403  0.5759  1.6742
  505MOL0     H68175   6.426   3.542   0.611  1.2717  1.1545  2.3699
  506MOL0     O68176   5.413   5.952   9.406  0.2756  0.8065 -0.1863
  506MOL0     C68177   5.403   6.004   9.302 -0.9028  0.5798 -0.1962
  506MOL0     O68178   5.503   6.027   9.218 -0.5992 -0.0114 -0.2093
  506MOL0     C68179   5.640   5.991   9.227 -0.6643  0.2155 -0.2059
  506MOL0     C68180   5.706   5.933   9.335  0.8804 -0.2772 -0.6694
  506MOL0     C68181   5.841   5.892   9.324  0.5161 -0.5165 -0.1938
  506MOL0     C68182   5.910   5.912   9.205 -0.8436 -0.0989  0.4359
  506MOL0     O68183   6.035   5.846   9.205  0.0555  0.2383 -0.0541
  506MOL0     C68184   6.130   5.887   9.109  0.0038  0.0269 -0.7422
  506MOL0     C68185   6.209   5.760   9.084 -0.4668  0.0199  0.6575
  506MOL0     C68186   6.329   5.778   8.998 -0.2248 -0.8294  0.4038
  506MOL0     C68187   6.359   5.662   8.912 -0.0439 -0.3739  0.2630
  506MOL0     C68188   6.487   5.681   8.830  0.0706  0.0212 -0.1684
  506MOL0     C68189   6.532   5.558   8.741  0.0855  0.2386  1.1846
  506MOL0     C68190   6.601   5.442   8.826  0.1450 -0.5879 -0.8902
  506MOL0     C68191   6.617   5.316   8.750  0.0338  0.0258  0.5740
  506MOL0     N68192   6.636   5.193   8.831 -0.4115 -0.3612  0.3007
  506MOL0     C68193   6.583   5.079   8.798  0.5211  0.6310 -0.4125
  506MOL0     C68194   6.634   4.990   8.888 -0.6903 -0.3028  0.9696
  506MOL0     C68195   6.615   4.836   8.886 -0.1035 -0.4289 -0.6933
  506MOL0     C68196   6.657   4.769   8.759 -0.1480 -0.8040 -0.7439
  506MOL0     C68197   6.674   4.626   8.803  0.6559  0.4201  0.0568
  506MOL0     C68198   6.730   4.524   8.707 -0.4527 -0.0962 -0.1720
  506MOL0     O68199   6.712   4.395   8.768  0.7187  0.0668 -0.1240
  506MOL0     C68200   6.777   4.279   8.733  0.5185 -1.1090 -0.3853
  506MOL0     C68201   6.836   4.263   8.616  0.0637 -0.5333 -0.1576
  506MOL0     C68202   6.882   4.137   8.565 -0.0007 -0.9087  0.4094
  506MOL0     C68203   6.868   4.020   8.648  0.0407  0.6149  0.6680
  506MOL0     C68204   6.921   3.893   8.601 -0.6394 -0.0277 -0.0149
  506MOL0     O68205   6.942   3.880   8.458  0.3163 -0.1067  0.3617
  506MOL0     C68206   6.995   3.774   8.396  0.9349  0.5396 -0.2698
  506MOL0     C68207   6.989   3.766   8.259 -0.4498  0.1816  0.0893
  506MOL0     C68208   7.038   3.655   8.191 -0.6377 -0.3395  0.1502
  506MOL0     C68209   7.092   3.537   8.259  0.6385 -0.0550  0.1347
  506MOL0     O68210   7.139   3.419   8.200  0.2370  0.1035 -0.2059
  506MOL0     C68211   7.125   3.401   8.058  0.0433 -0.2605  0.1446
  506MOL0     C68212   7.181   3.271   8.016  0.6576 -0.3324 -0.4733
  506MOL0     C68213   7.326   3.253   8.021 -1.3675 -0.1678 -0.5236
  506MOL0     C68214   7.353   3.125   7.939 -0.0326  0.2913  0.6717
  506MOL0     C68215   7.492   3.066   7.962 -0.3472 -1.1216 -1.3900
  506MOL0     C68216   7.517   2.996   8.101  0.3313  0.0609  0.7312
  506MOL0     C68217   7.445   2.857   8.102 -0.2002 -0.2695  0.5493
  506MOL0     C68218   7.520   2.746   8.017  0.2282 -0.3783  0.7759
  506MOL0    Cl68219   7.685   2.718   8.081 -0.2265 -0.3693  0.2950
  506MOL0     C68220   7.108   3.550   8.396 -0.2198 -0.7966 -0.2909
  506MOL0     C68221   7.069   3.669   8.459 -0.3597 -0.4385  0.2404
  506MOL0     O68222   6.936   3.804   8.682  0.0248  0.1643 -0.5008
  506MOL0     C68223   6.814   4.049   8.777  0.0880 -0.2269  0.1389
  506MOL0     C68224   6.762   4.169   8.814 -0.6062  0.0524  0.2578
  506MOL0     N68225   6.716   5.057   8.983  0.1382 -0.4659  0.5274
  506MOL0     N68226   6.720   5.181   8.936  0.2897 -0.4780  0.7311
  506MOL0     C68227   5.839   5.964   9.089 -0.6098 -0.3080 -1.1075
  506MOL0     C68228   5.707   6.006   9.104 -0.3389 -0.5306 -0.2428
  506MOL0     C68229   5.276   6.060   9.260  0.1450 -0.0020 -0.4593
  506MOL0     C68230   5.287   6.181   9.193  0.0079  0.2509  1.2272
  506MOL0     C68231   5.165   6.253   9.159 -0.5165  0.3374 -0.9383
  506MOL0     C68232   5.037   6.224   9.218  0.5020  0.0765 -0.3569
  506MOL0     O68233   4.923   6.302   9.196 -0.2889 -0.3642  0.6863
  506MOL0     C68234   4.942   6.419   9.121 -1.2353 -1.2272  0.3845
  506MOL0     C68235   4.799   6.460   9.072 -0.1216  0.2566  0.1277
  506MOL0     C68236   4.715   6.560   9.152 -0.0214 -0.0521 -1.1714
  506MOL0     C68237   4.579   6.569   9.086 -0.1807 -0.1458  1.1537
  506MOL0     C68238   4.507   6.446   9.107  0.1246  0.0458 -0.5032
  506MOL0     C68239   4.461   6.334   9.100  0.7274  0.5541  0.0637
  506MOL0     C68240   5.025   6.097   9.282 -0.3200 -0.5404  0.1045
  506MOL0     C68241   5.144   6.022   9.316 -0.4733  0.3331  0.4530
  506MOL0     C68242   5.119   5.901   9.403  0.3134  0.6241  0.0754
  506MOL0     H68243   5.653   5.915   9.428 -0.5559  1.5530 -1.0706
  506MOL0     H68244   5.890   5.858   9.415  0.0164 -0.3110  0.1565
  506MOL0     H68245   6.089   5.921   9.013  0.5609  0.6213 -0.7706
  506MOL0     H68246   6.198   5.960   9.153 -0.4909 -1.2740  2.5113
  506MOL0     H68247   6.135   5.705   9.025 -1.4344  3.1148 -1.2241
  506MOL0     H68248   6.227   5.704   9.176 -0.0763  2.0749  1.8928
  506MOL0     H68249   6.421   5.793   9.056  0.6013 -0.8119 -0.8562
  506MOL0     H68250   6.322   5.874   8.946 -1.6211  1.4098  4.3114
  506MOL0     H68251   6.374   5.573   8.975 -0.1712 -1.2385 -0.8946
  506MOL0     H68252   6.279   5.648   8.839  0.1570  2.0766 -0.4975
  506MOL0     H68253   6.480   5.777   8.779 -2.4485 -0.3734 -0.7082
  506MOL0     H68254   6.568   5.688   8.903  0.2062 -0.3025 -0.2835
  506MOL0     H68255   6.436   5.525   8.702 -0.1981  3.0956 -0.8711
  506MOL0     H68256   6.590   5.586   8.652 -2.4345 -2.4829 -1.5671
  506MOL0     H68257   6.530   5.420   8.906  0.6849  1.7428  0.3222
  506MOL0     H68258   6.694   5.479   8.871 -0.9957  1.3166  0.0453
  506MOL0     H68259   6.535   5.301   8.678  0.8874  3.0488 -1.1790
  506MOL0     H68260   6.708   5.315   8.689 -0.2795 -3.7926 -0.1049
  506MOL0     H68261   6.521   5.052   8.713  1.3620  1.3675 -1.2939
  506MOL0     H68262   6.670   4.794   8.971  1.7266 -2.0315 -2.5746
  506MOL0     H68263   6.509   4.812   8.893 -0.0688 -0.9586 -1.8509
  506MOL0     H68264   6.583   4.781   8.680  1.1501 -1.4093 -2.1178
  506MOL0     H68265   6.748   4.815   8.720  1.5367  0.2725  3.8025
  506MOL0     H68266   6.572   4.603   8.837 -0.2412  3.0104 -0.6488
  506MOL0     H68267   6.732   4.616   8.896 -0.5906 -0.2856  0.7909
  506MOL0     H68268   6.834   4.544   8.680 -0.3207 -1.4549 -0.7061
  506MOL0     H68269   6.676   4.528   8.613  1.9857  3.1303 -1.6534
  506MOL0     H68270   6.846   4.354   8.558  2.3030  0.8409  2.1816
  506MOL0     H68271   6.915   4.135   8.462  1.0259 -0.2560  0.7100
  506MOL0     H68272   6.961   3.859   8.212 -1.3519 -0.4496 -0.6651
  506MOL0     H68273   7.032   3.655   8.083 -1.1016 -3.0248  0.1009
  506MOL0     H68274   7.020   3.407   8.028  0.0320 -0.3005  0.1768
  506MOL0     H68275   7.180   3.485   8.015 -0.6361  1.4762  2.4714
  506MOL0     H68276   7.127   3.185   8.057  0.8452 -0.8107 -1.2089
  506MOL0     H68277   7.150   3.259   7.911 -0.7482  1.4074 -0.2996
  506MOL0     H68278   7.386   3.330   7.973  2.9582 -2.1113  1.2205
  506MOL0     H68279   7.366   3.236   8.122 -1.0345  0.4240 -0.5541
  506MOL0     H68280   7.348   3.164   7.836  0.0108  0.0315  0.5704
  506MOL0     H68281   7.267   3.058   7.952 -1.9739  2.4889 -0.0970
  506MOL0     H68282   7.567   3.145   7.963  2.5718 -3.5432  2.1403
  506MOL0     H68283   7.528   3.015   7.872  0.7021  0.0943 -1.6780
  506MOL0     H68284   7.626   2.995   8.115  0.7795 -2.8963 -1.9753
  506MOL0     H68285   7.463   3.054   8.177 -0.5700 -0.4043  0.4550
  506MOL0     H68286   7.344   2.878   8.067  0.5691  1.5515 -0.7604
  506MOL0     H68287   7.438   2.824   8.206 -1.6639  1.3266  0.9952
  506MOL0     H68288   7.462   2.653   8.020  1.5868 -1.2027  2.2230
  506MOL0     H68289   7.532   2.781   7.914  3.3322 -1.5766  0.6289
  506MOL0     H68290   7.167   3.476   8.450  1.7752  1.9007  1.4583
  506MOL0     H68291   7.093   3.676   8.565 -0.3938 -2.1647  0.3932
  506MOL0     H68292   6.795   3.963   8.841 -1.3374  0.8752  1.2625
  506MOL0     H68293   6.710   4.192   8.907  1.2646  2.3049  0.8299
  506MOL0     H68294   5.877   5.989   8.990  0.8590 -1.9237 -1.0094
  506MOL0     H68295   5.663   6.053   9.016  1.3334  2.1064  0.2071
  506MOL0     H68296   5.380   6.222   9.154  1.3278 -1.9766  1.8835
  506MOL0     H68297   5.176   6.341   9.097  0.3929  2.0825  1.5558
  506MOL0     H68298   5.008   6.413   9.034 -1.8791  2.3017 -0.5472
  506MOL0     H68299   4.985   6.504   9.175 -0.9481  0.0227 -1.6665
  506MOL0     H68300   4.752   6.363   9.054  1.1033 -0.5939  1.2528
  506MOL0     H68301   4.812   6.520   8.982 -2.5755 -1.7066 -1.6768
  506MOL0     H68302   4.764   6.656   9.136 -1.5927  0.7646 -1.2915
  506MOL0     H68303   4.717   6.531   9.258  1.5698 -2.6293 -1.8231
  506MOL0     H68304   4.518   6.652   9.122  0.6853  3.3707 -4.3039
  506MOL0     H68305   4.595   6.578   8.978  0.2903 -2.3508  0.9946
  506MOL0     H68306   4.412   6.239   9.102 -0.6623  1.2043  2.8898
  506MOL0     H68307   4.933   6.048   9.315 -0.0800 -1.4847 -0.5969
  506MOL0     H68308   5.022   5.910   9.451  0.3404  0.5320  0.1462
  506MOL0     H68309   5.128   5.808   9.346 -0.1751  0.9365 -0.5246
  506MOL0     H68310   5.189   5.906   9.488 -0.6023 -0.6193  0.9312
  507MOL0     O68311   3.001   2.301   5.870 -0.3117 -1.0617 -0.3719
  507MOL0     C68312   3.079   2.257   5.784  0.7889  0.5037 -0.5346
  507MOL0     O68313   3.052   2.199   5.669 -0.5906 -0.3953  0.1270
  507MOL0     C68314   2.922   2.163   5.635  0.0205 -0.6297 -0.1695
  507MOL0     C68315   2.917   2.056   5.538 -0.1259 -0.4697 -0.9131
  507MOL0     C68316   2.798   2.014   5.485  1.6233 -0.6800 -0.2307
  507MOL0     C68317   2.675   2.069   5.529 -0.9726  0.1706  0.2518
  507MOL0     O68318   2.563   2.014   5.465 -0.1429 -0.6182  0.1887
  507MOL0     C68319   2.483   2.120   5.409  0.2452 -0.5768  1.2407
  507MOL0     C68320   2.374   2.064   5.310 -0.6480  0.9515 -0.8389
  507MOL0     C68321   2.283   2.174   5.270 -0.3544  0.2041 -1.1738
  507MOL0     C68322   2.155   2.109   5.225 -0.4881  0.3786  0.0545
  507MOL0     C68323   2.040   2.208   5.212 -0.6221 -0.0096 -0.0555
  507MOL0     C68324   1.914   2.147   5.154 -0.3881  0.7986  0.1656
  507MOL0     C68325   1.816   2.250   5.109  0.6080  0.0764 -0.0814
  507MOL0     C68326   1.704   2.179   5.031 -0.4998  0.7271  1.0249
  507MOL0     N68327   1.595   2.285   5.007  0.0999  0.7794  0.1980
  507MOL0     C68328   1.507   2.323   5.112  0.2583 -1.4581  0.7970
  507MOL0     C68329   1.442   2.429   5.058 -0.1364  0.1003  0.5049
  507MOL0     C68330   1.338   2.516   5.125  0.4544 -0.4470  0.1370
  507MOL0     C68331   1.200   2.483   5.068  0.1312 -0.3134 -0.8863
  507MOL0     C68332   1.103   2.572   5.129  1.0787  0.2576 -0.7973
  507MOL0     C68333   0.956   2.562   5.100  0.2290  0.7907 -0.2071
  507MOL0     O68334   0.886   2.484   5.202  0.1749  0.0139 -0.3421
  507MOL0     C68335   0.823   2.554   5.309  0.0901  0.2650 -0.1052
  507MOL0     C68336   0.724   2.488   5.386 -1.1248  0.3282 -0.5537
  507MOL0     C68337   0.661   2.535   5.493 -0.2769 -0.2523  0.3680
  507MOL0     C68338   0.689   2.667   5.533 -0.2290 -0.3459 -0.3412
  507MOL0     C68339   0.626   2.724   5.657  1.1984  0.4326  1.1421
  507MOL0     O68340   0.717   2.776   5.747 -0.2102  0.4934  0.3975
  507MOL0     C68341   0.686   2.847   5.865  1.0257 -0.5331  0.4040
  507MOL0     C68342   0.775   2.850   5.971 -0.4853  0.0297  0.3552
  507MOL0     C68343   0.761   2.938   6.077  0.4516 -0.4900 -0.7887
  507MOL0     C68344   0.653   3.027   6.087 -0.1197  0.9100 -0.9607
  507MOL0     O68345   0.654   3.126   6.188  0.7510  0.0444 -0.8105
  507MOL0     C68346   0.768   3.216   6.192  0.3758 -1.1537  0.4201
  507MOL0     C68347   0.729   3.334   6.279  0.2342  0.0269 -0.0071
  507MOL0     C68348   0.643   3.425   6.184 -0.4041 -0.6704 -0.6824
  507MOL0     C68349   0.607   3.563   6.227  0.4075  0.4645  1.3795
  507MOL0     C68350   0.503   3.651   6.142 -0.6575 -0.0795  0.1920
  507MOL0     C68351   0.367   3.602   6.162  0.0134 -0.6817  0.7055
  507MOL0     C68352   0.263   3.671   6.062 -0.2775 -0.2701  0.4644
  507MOL0     C68353   0.261   3.614   5.918 -0.3852  0.4021 -0.8891
  507MOL0    Cl68354   0.131   3.701   5.812  0.3553  0.0238 -0.0766
  507MOL0     C68355   0.546   3.014   5.987  0.0558  0.0979 -0.4058
  507MOL0     C68356   0.564   2.929   5.878  0.5414  0.5884 -1.0522
  507MOL0     O68357   0.502   2.709   5.674  0.0097  0.4820  0.0599
  507MOL0     C68358   0.778   2.735   5.465 -0.3639 -0.2006  0.1113
  507MOL0     C68359   0.849   2.684   5.351 -0.4039  0.4541  0.5971
  507MOL0     N68360   1.479   2.449   4.918  0.3753  0.7148 -0.3038
  507MOL0     N68361   1.573   2.363   4.897  0.7208  0.6274  0.3403
  507MOL0     C68362   2.678   2.170   5.627 -0.1490  0.2753  0.3760
  507MOL0     C68363   2.799   2.221   5.675  0.7364  0.1786 -0.3967
  507MOL0     C68364   3.220   2.300   5.809  0.2336 -0.7408 -1.2575
  507MOL0     C68365   3.303   2.299   5.698  0.1578  0.4529 -0.4482
  507MOL0     C68366   3.430   2.343   5.705 -0.4657  0.2849 -0.0907
  507MOL0     C68367   3.485   2.376   5.825  0.1967  0.6282  0.7259
  507MOL0     O68368   3.615   2.405   5.820 -0.7326 -0.0306 -0.0070
  507MOL0     C68369   3.687   2.406   5.937  0.1486 -0.6084  0.2110
  507MOL0     C68370   3.824   2.452   5.887  0.1460  0.1653 -0.6952
  507MOL0     C68371   3.884   2.354   5.787  0.2070 -0.5237  0.4638
  507MOL0     C68372   4.040   2.354   5.796 -0.5485  0.5756  0.0014
  507MOL0     C68373   4.092   2.241   5.716 -0.8483  0.8256  0.4422
  507MOL0     C68374   4.132   2.147   5.640 -0.4941 -0.7522 -0.7068
  507MOL0     C68375   3.407   2.367   5.941  0.8859  0.3846 -0.0642
  507MOL0     C68376   3.267   2.340   5.941 -0.6924  0.5767  0.6986
  507MOL0     C68377   3.192   2.351   6.071  0.3000  0.1849 -0.6393
  507MOL0     H68378   3.011   2.018   5.500  1.0992  2.4080 -0.9504
  507MOL0     H68379   2.803   1.935   5.411  0.1659  1.4437 -2.7681
  507MOL0     H68380   2.438   2.169   5.496 -1.2436  1.8050 -0.7436
  507MOL0     H68381   2.551   2.182   5.350 -2.1084  0.4335 -0.5708
  507MOL0     H68382   2.316   1.983   5.355  2.2059  0.3366  2.0732
  507MOL0     H68383   2.428   2.018   5.226  0.5434 -2.8439  1.7271
  507MOL0     H68384   2.324   2.236   5.190  2.9086  0.5390  0.5700
  507MOL0     H68385   2.266   2.240   5.355  2.6570  0.6369 -0.8215
  507MOL0     H68386   2.178   2.049   5.136  1.3417 -0.8489  1.2939
  507MOL0     H68387   2.109   2.043   5.300 -0.3475 -0.3783 -0.5106
  507MOL0     H68388   2.019   2.253   5.309 -1.2838  0.0778 -0.2328
  507MOL0     H68389   2.075   2.292   5.151  0.3356  0.6576  1.3560
  507MOL0     H68390   1.946   2.089   5.067 -0.9340 -1.2899  1.2776
  507MOL0     H68391   1.873   2.072   5.222  1.7577  0.6021  1.3485
  507MOL0     H68392   1.857   2.309   5.026  0.4966 -2.5321 -2.1421
  507MOL0     H68393   1.781   2.309   5.194 -0.7656 -1.8617  0.7765
  507MOL0     H68394   1.740   2.141   4.935 -1.7189  0.1651  0.7730
  507MOL0     H68395   1.668   2.094   5.089  0.8438  0.5191  1.5872
  507MOL0     H68396   1.495   2.285   5.213 -2.0102  1.5307  1.8013
  507MOL0     H68397   1.343   2.524   5.234  1.4498  1.4031 -0.0174
  507MOL0     H68398   1.350   2.617   5.087 -1.9657  0.1727  0.8484
  507MOL0     H68399   1.203   2.492   4.959  1.1892  2.1406 -0.7159
  507MOL0     H68400   1.178   2.380   5.098 -4.2787 -0.2573 -3.1255
  507MOL0     H68401   1.135   2.668   5.088  2.7144 -0.6568 -1.7470
  507MOL0     H68402   1.107   2.572   5.239 -0.8857 -1.3418 -0.6679
  507MOL0     H68403   0.954   2.502   5.008 -0.1737 -0.6391  0.6983
  507MOL0     H68404   0.911   2.659   5.080 -2.9001 -0.3885  0.4402
  507MOL0     H68405   0.705   2.384   5.364 -0.2818  0.6498 -3.1906
  507MOL0     H68406   0.589   2.477   5.550 -1.6437  3.5783  2.9311
  507MOL0     H68407   0.862   2.787   5.953 -1.1173 -0.8804  0.3798
  507MOL0     H68408   0.840   2.948   6.152  1.5908 -3.8296 -1.4014
  507MOL0     H68409   0.858   3.166   6.229 -0.4126 -3.6411 -0.7681
  507MOL0     H68410   0.793   3.245   6.090 -3.5960  1.8350  0.0555
  507MOL0     H68411   0.677   3.306   6.371  0.7336 -0.4157  0.1447
  507MOL0     H68412   0.819   3.393   6.300 -0.6878  2.0210 -1.3585
  507MOL0     H68413   0.698   3.440   6.090  2.0519 -0.1099  0.7542
  507MOL0     H68414   0.549   3.371   6.171 -0.5095 -0.4588 -0.7835
  507MOL0     H68415   0.702   3.616   6.236  0.2940  0.8931  0.2016
  507MOL0     H68416   0.561   3.536   6.323  0.8748 -2.8912  0.7618
  507MOL0     H68417   0.549   3.649   6.042 -0.2561 -0.3934  0.3837
  507MOL0     H68418   0.504   3.753   6.181  0.7136 -0.8118  2.2093
  507MOL0     H68419   0.354   3.497   6.136  1.5644 -0.6057 -0.6052
  507MOL0     H68420   0.349   3.627   6.267  2.1942  1.0811  0.7484
  507MOL0     H68421   0.287   3.778   6.056 -1.3499 -0.1109 -2.1263
  507MOL0     H68422   0.162   3.654   6.101 -1.4665  3.0696 -0.7527
  507MOL0     H68423   0.357   3.627   5.868 -0.1021  1.0449 -0.1934
  507MOL0     H68424   0.249   3.505   5.919  0.0657  0.3528 -0.7622
  507MOL0     H68425   0.456   3.074   6.002 -0.7933 -0.8989 -1.3654
  507MOL0     H68426   0.482   2.925   5.807  1.0982  0.2152 -1.6909
  507MOL0     H68427   0.799   2.841   5.478  0.3616 -0.2438 -0.6729
  507MOL0     H68428   0.916   2.749   5.295 -2.7686  1.4798 -1.2118
  507MOL0     H68429   2.581   2.206   5.662 -1.3212 -0.5168 -1.8520
  507MOL0     H68430   2.799   2.305   5.744  2.2463 -0.9622  1.0879
  507MOL0     H68431   3.259   2.274   5.602 -0.0061 -2.6685  0.3407
  507MOL0     H68432   3.485   2.361   5.614 -1.4409 -1.0185 -0.9876
  507MOL0     H68433   3.682   2.306   5.981  2.1033 -0.5458  0.6863
  507MOL0     H68434   3.644   2.477   6.007  1.5181 -1.0816  1.5798
  507MOL0     H68435   3.885   2.455   5.978  1.0272 -1.9646 -1.1728
  507MOL0     H68436   3.818   2.551   5.840 -0.7784 -0.1121 -1.1823
  507MOL0     H68437   3.858   2.377   5.683  0.7757  0.1281  0.4588
  507MOL0     H68438   3.837   2.256   5.798 -1.8959  0.3416 -0.3662
  507MOL0     H68439   4.072   2.448   5.750 -1.2817  0.3131 -1.1141
  507MOL0     H68440   4.089   2.348   5.893 -0.4494  0.7833 -0.0355
  507MOL0     H68441   4.167   2.060   5.588 -1.8687 -1.0955 -1.0935
  507MOL0     H68442   3.451   2.388   6.038  1.0122 -2.2688  0.5531
  507MOL0     H68443   3.261   2.355   6.156 -1.0151  1.8602  0.4181
  507MOL0     H68444   3.135   2.444   6.069  0.8718  0.5915  0.6702
  507MOL0     H68445   3.136   2.259   6.083 -0.4162  0.8531  1.5237
  508MOL0     O68446   0.541   6.411   9.346  0.5399  0.5735  0.6907
  508MOL0     C68447   0.544   6.508   9.417 -0.0773 -0.5017 -0.1165
  508MOL0     O68448   0.649   6.596   9.422  0.2386 -0.7645 -0.5414
  508MOL0     C68449   0.745   6.587   9.326 -0.5765 -0.3615 -0.6048
  508MOL0     C68450   0.847   6.489   9.325  0.5587 -0.3716  0.6430
  508MOL0     C68451   0.951   6.498   9.238  0.5841  0.5417  0.2024
  508MOL0     C68452   0.957   6.601   9.138 -0.5252 -0.4149  0.2570
  508MOL0     O68453   1.069   6.632   9.068 -0.3676 -0.1597  0.3989
  508MOL0     C68454   1.167   6.536   9.051  0.1166  0.1498  0.0537
  508MOL0     C68455   1.278   6.585   8.956 -0.5601  0.3128  0.0872
  508MOL0     C68456   1.350   6.462   8.888 -0.3372  0.4392 -0.1235
  508MOL0     C68457   1.420   6.354   8.972 -0.0024  0.2666  0.6275
  508MOL0     C68458   1.511   6.412   9.073  0.4332  0.2225  0.1310
  508MOL0     C68459   1.603   6.302   9.137 -0.4406 -0.2946  0.1396
  508MOL0     C68460   1.607   6.299   9.286 -0.6188 -0.6941  0.6255
  508MOL0     C68461   1.677   6.420   9.351  0.2550 -0.0608  0.2540
  508MOL0     N68462   1.593   6.542   9.368  0.0580 -0.0834 -0.1900
  508MOL0     C68463   1.469   6.546   9.442 -0.7981  0.2477  0.8272
  508MOL0     C68464   1.391   6.636   9.389  0.3890  0.1485  0.3338
  508MOL0     C68465   1.253   6.676   9.440  0.1964 -0.1187 -1.0060
  508MOL0     C68466   1.210   6.809   9.375  0.2033  0.2655 -0.1017
  508MOL0     C68467   1.054   6.829   9.388  0.0914 -0.2784 -0.3750
  508MOL0     C68468   1.007   6.957   9.306 -0.2820 -0.6099 -0.2805
  508MOL0     O68469   0.865   6.977   9.339  0.5078 -0.3157  0.8632
  508MOL0     C68470   0.776   7.022   9.244  0.2821 -0.1445 -0.3819
  508MOL0     C68471   0.810   7.076   9.121  0.3688 -1.4017  0.1823
  508MOL0     C68472   0.709   7.122   9.043  0.5476  1.1896  0.2620
  508MOL0     C68473   0.576   7.126   9.084  0.9153  0.5569 -0.3551
  508MOL0     C68474   0.470   7.171   8.996  0.1984  1.1496 -0.0543
  508MOL0     O68475   0.352   7.115   9.010 -0.5019 -0.5289  0.0912
  508MOL0     C68476   0.241   7.132   8.929 -0.0011  0.3095 -0.7008
  508MOL0     C68477   0.134   7.056   8.968 -1.3098 -0.4168  0.0442
  508MOL0     C68478   0.005   7.072   8.908 -1.2098  0.2049 -0.1554
  508MOL0     C68479  -0.015   7.173   8.820 -0.9103  1.0353  0.2648
  508MOL0     O68480  -0.140   7.169   8.776  0.7026  0.8793  0.7644
  508MOL0     C68481  -0.219   7.284   8.824  0.1058 -0.0905  0.2177
  508MOL0     C68482  -0.230   7.289   8.982 -0.2431 -0.1078  0.9135
  508MOL0     C68483  -0.313   7.183   9.050  0.7658  0.1590  0.6479
  508MOL0     C68484  -0.469   7.197   9.023 -0.7074 -0.4313 -0.1717
  508MOL0     C68485  -0.556   7.093   9.108 -1.0993 -0.2420 -0.1663
  508MOL0     C68486  -0.556   6.944   9.060  0.3886  0.7506  0.6298
  508MOL0     C68487  -0.672   6.855   9.100 -0.3582  0.3597  0.1595
  508MOL0     C68488  -0.684   6.838   9.250  0.1794  0.3338  0.1078
  508MOL0    Cl68489  -0.557   6.733   9.323 -0.5946  0.3274 -0.1325
  508MOL0     C68490   0.092   7.254   8.763 -0.5668  0.7196 -0.1925
  508MOL0     C68491   0.218   7.224   8.818 -0.7124 -0.2215  0.8071
  508MOL0     O68492   0.500   7.261   8.924  0.3276 -0.2614 -0.1710
  508MOL0     C68493   0.542   7.065   9.211  0.7162  0.0481  0.9575
  508MOL0     C68494   0.642   7.012   9.283 -0.0713  0.4593 -0.2894
  508MOL0     N68495   1.472   6.707   9.301  0.1141  0.1007  0.1591
  508MOL0     N68496   1.583   6.650   9.285  0.8525 -0.9599  0.0638
  508MOL0     C68497   0.858   6.696   9.126  0.3283 -0.3751  0.4625
  508MOL0     C68498   0.752   6.682   9.221  0.1278  0.0196 -0.4399
  508MOL0     C68499   0.422   6.542   9.505 -0.8082 -0.3165  0.1857
  508MOL0     C68500   0.454   6.633   9.614  0.3634 -0.3229 -0.4877
  508MOL0     C68501   0.353   6.664   9.709  0.3522 -1.0478 -0.8249
  508MOL0     C68502   0.224   6.612   9.699 -0.7691 -0.0069 -0.3700
  508MOL0     O68503   0.135   6.619   9.804 -0.6332  0.0271  0.0162
  508MOL0     C68504   0.136   6.712   9.911 -0.8240 -1.1238 -0.4401
  508MOL0     C68505   0.014   6.730   9.994 -0.2297  0.7327 -0.5907
  508MOL0     C68506  -0.014   6.615  10.076 -1.0569  0.9771 -0.0605
  508MOL0     C68507  -0.132   6.634  10.170  0.6262  1.0160 -1.0636
  508MOL0     C68508  -0.225   6.529  10.137 -0.3249  0.0371  0.0079
  508MOL0     C68509  -0.292   6.430  10.125  0.0701  0.2569  0.3047
  508MOL0     C68510   0.197   6.531   9.592  0.6308 -0.2111  0.6602
  508MOL0     C68511   0.292   6.492   9.493  0.3317  0.5198  1.0386
  508MOL0     C68512   0.240   6.422   9.371 -0.0388 -0.8247  0.2989
  508MOL0     H68513   0.854   6.409   9.398 -1.4723 -0.3217  0.9724
  508MOL0     H68514   1.028   6.426   9.265  2.3931  1.8368 -1.2493
  508MOL0     H68515   1.210   6.517   9.150 -2.8690  2.2247  1.9336
  508MOL0     H68516   1.123   6.447   9.005 -1.0458  0.9618 -0.4619
  508MOL0     H68517   1.350   6.646   9.012 -0.4477 -1.8737  2.5556
  508MOL0     H68518   1.230   6.655   8.888 -1.0497  1.2737  1.3743
  508MOL0     H68519   1.429   6.501   8.823 -0.0255  0.8037  0.4767
  508MOL0     H68520   1.277   6.412   8.823  0.1147  1.3376 -1.3645
  508MOL0     H68521   1.335   6.299   9.015  0.5434 -0.0237  1.3514
  508MOL0     H68522   1.471   6.291   8.898  1.5953  2.1226  0.0813
  508MOL0     H68523   1.583   6.484   9.033  0.4489 -0.7823 -1.7766
  508MOL0     H68524   1.454   6.461   9.153 -2.7470 -0.3138 -1.6353
  508MOL0     H68525   1.572   6.204   9.100  1.0005 -1.3744  1.6197
  508MOL0     H68526   1.700   6.328   9.095 -1.6864  5.2877 -0.0598
  508MOL0     H68527   1.669   6.221   9.331  0.9191 -0.3119 -0.7505
  508MOL0     H68528   1.499   6.289   9.302 -0.6474 -3.0769 -0.5869
  508MOL0     H68529   1.698   6.392   9.454  0.6351  1.3479  0.5788
  508MOL0     H68530   1.769   6.425   9.291 -0.7527 -0.6187 -1.4025
  508MOL0     H68531   1.450   6.480   9.526  3.7093  0.8975  2.6377
  508MOL0     H68532   1.180   6.602   9.405 -0.8719  1.7121 -2.8671
  508MOL0     H68533   1.251   6.682   9.549  1.5238 -1.9806 -0.8387
  508MOL0     H68534   1.262   6.885   9.435  0.2388 -0.7987  1.2743
  508MOL0     H68535   1.238   6.804   9.270 -0.9492  0.6193 -0.4383
  508MOL0     H68536   1.026   6.852   9.491  0.9117  0.9125 -0.3945
  508MOL0     H68537   0.994   6.739   9.371  0.3440 -0.4060 -0.5926
  508MOL0     H68538   1.024   6.944   9.199  1.0325 -0.6634 -0.0772
  508MOL0     H68539   1.068   7.041   9.341 -0.6161 -1.7374  3.4533
  508MOL0     H68540   0.912   7.069   9.085  1.2014  5.0553  0.1310
  508MOL0     H68541   0.726   7.166   8.945 -3.5452 -2.2145 -2.3157
  508MOL0     H68542   0.153   6.981   9.045  0.2731 -0.6681 -0.5372
  508MOL0     H68543  -0.080   7.014   8.944 -1.2756 -0.9915 -2.1056
  508MOL0     H68544  -0.160   7.370   8.792 -1.0930  1.8674  2.8994
  508MOL0     H68545  -0.321   7.292   8.783  0.9566 -0.9929 -2.2701
  508MOL0     H68546  -0.128   7.281   9.020  0.2994  1.9865  0.0227
  508MOL0     H68547  -0.261   7.385   9.025 -0.5594 -1.0250  2.8162
  508MOL0     H68548  -0.279   7.082   9.022  0.1400 -0.0240  0.5330
  508MOL0     H68549  -0.307   7.198   9.158 -2.4817  0.9812  0.8126
  508MOL0     H68550  -0.490   7.202   8.916 -4.3496  2.4552  0.4714
  508MOL0     H68551  -0.490   7.301   9.051  1.5214 -0.0243  0.1293
  508MOL0     H68552  -0.658   7.134   9.107 -0.1991  2.1391 -1.5847
  508MOL0     H68553  -0.527   7.094   9.213  0.7152  3.4676 -0.5552
  508MOL0     H68554  -0.554   6.943   8.951  0.9556 -0.3825  0.6374
  508MOL0     H68555  -0.465   6.908   9.109  0.2906 -0.7531 -0.2372
  508MOL0     H68556  -0.648   6.752   9.071 -0.5463 -0.0060  1.2467
  508MOL0     H68557  -0.764   6.888   9.052 -0.2556 -0.4962 -0.6492
  508MOL0     H68558  -0.682   6.937   9.296  3.8905  1.9746 -2.9431
  508MOL0     H68559  -0.780   6.787   9.258  0.1650  0.0205 -1.5629
  508MOL0     H68560   0.070   7.329   8.688 -1.6275  0.6765  0.0631
  508MOL0     H68561   0.296   7.297   8.799  0.9514 -1.8963  0.9220
  508MOL0     H68562   0.444   7.062   9.257  0.3739  1.9581  0.4603
  508MOL0     H68563   0.630   6.959   9.377  2.5901 -1.0041 -0.6669
  508MOL0     H68564   0.849   6.778   9.055 -0.9162 -0.4901  0.4519
  508MOL0     H68565   0.665   6.747   9.214 -0.2701 -0.5579 -1.0419
  508MOL0     H68566   0.557   6.669   9.620  0.6273 -1.2525  1.1415
  508MOL0     H68567   0.374   6.737   9.786  0.3785 -0.6004 -1.2548
  508MOL0     H68568   0.169   6.812   9.880  0.8315 -0.9158  1.7448
  508MOL0     H68569   0.211   6.662   9.973 -2.7122 -3.5985 -0.0123
  508MOL0     H68570  -0.076   6.761   9.940 -1.0507  1.2864  1.0357
  508MOL0     H68571   0.035   6.818  10.055  2.3289  1.3162 -2.1525
  508MOL0     H68572   0.080   6.594  10.129 -1.5415 -0.9723  0.0883
  508MOL0     H68573  -0.029   6.536  10.002  0.1880  0.5878  0.0645
  508MOL0     H68574  -0.087   6.622  10.269  2.9350 -2.8547 -2.3551
  508MOL0     H68575  -0.188   6.727  10.160  1.0265  1.3498 -0.2588
  508MOL0     H68576  -0.344   6.337  10.116  0.5357  0.0511 -0.3166
  508MOL0     H68577   0.098   6.486   9.587 -0.1266  1.2918  1.4065
  508MOL0     H68578   0.262   6.467   9.274  0.9695 -2.0441 -0.0562
  508MOL0     H68579   0.300   6.331   9.371 -0.2125 -0.9416  0.7564
  508MOL0     H68580   0.134   6.399   9.387 -0.9069  2.7863  0.7049
  509MOL0     O68581   5.103   1.620   1.703 -0.1616 -0.4897  0.1929
  509MOL0     C68582   5.108   1.728   1.639  0.8083 -0.1712  0.1001
  509MOL0     O68583   5.204   1.818   1.654  0.2684  0.3269  1.2430
  509MOL0     C68584   5.277   1.837   1.770  0.8012  0.3177  0.4286
  509MOL0     C68585   5.399   1.901   1.765 -0.0418  1.3879  0.0302
  509MOL0     C68586   5.464   1.920   1.889 -0.1890 -0.2674  0.1939
  509MOL0     C68587   5.403   1.897   2.013 -0.2922 -0.5545 -0.3431
  509MOL0     O68588   5.465   1.944   2.124  0.5157  0.0412  0.3284
  509MOL0     C68589   5.416   1.906   2.250 -0.1138 -0.0622 -0.3006
  509MOL0     C68590   5.510   1.961   2.355  0.1583 -1.4136  0.0024
  509MOL0     C68591   5.662   1.957   2.318  0.3928 -0.1867  0.1001
  509MOL0     C68592   5.756   1.990   2.422 -0.7474  0.5436  0.2851
  509MOL0     C68593   5.769   1.864   2.518 -0.2744  0.2051  0.5435
  509MOL0     C68594   5.886   1.890   2.607 -0.6886  1.0841  0.1123
  509MOL0     C68595   5.886   1.790   2.735  0.2186 -0.5142  1.0419
  509MOL0     C68596   5.780   1.820   2.828  1.0770  0.8784 -0.2015
  509MOL0     N68597   5.814   1.766   2.960  0.2214  1.0601  0.0155
  509MOL0     C68598   5.799   1.633   2.990  0.6465 -0.0710 -0.2157
  509MOL0     C68599   5.826   1.618   3.120  0.7841 -0.1323  0.2308
  509MOL0     C68600   5.832   1.490   3.193  0.3292  0.3540  0.8889
  509MOL0     C68601   5.694   1.437   3.191  1.3671 -0.6178  0.4684
  509MOL0     C68602   5.682   1.314   3.283 -0.1404  0.0053 -0.3774
  509MOL0     C68603   5.782   1.200   3.251 -0.1810  0.6145  0.2355
  509MOL0     O68604   5.758   1.159   3.114  0.9100  0.2715  0.9895
  509MOL0     C68605   5.662   1.048   3.100 -0.7237 -1.3098  1.1848
  509MOL0     C68606   5.708   0.920   3.096 -0.3694  0.5568 -0.4488
  509MOL0     C68607   5.613   0.813   3.093 -0.2387  0.4705  1.0403
  509MOL0     C68608   5.473   0.836   3.068  0.6748  0.2987  0.2226
  509MOL0     C68609   5.380   0.725   3.038  0.0676 -0.3339 -0.4716
  509MOL0     O68610   5.421   0.605   3.094  0.4396  0.0912  0.3476
  509MOL0     C68611   5.346   0.490   3.075 -0.5438  0.8568  1.2394
  509MOL0     C68612   5.308   0.409   3.180  0.0127 -0.2982  0.5725
  509MOL0     C68613   5.250   0.285   3.147 -1.4223  0.6540 -0.2242
  509MOL0     C68614   5.231   0.234   3.014  0.2827 -0.0933 -1.7814
  509MOL0     O68615   5.161   0.117   3.002  0.3387  0.3303 -0.1541
  509MOL0     C68616   5.223   0.005   2.931 -1.1700  0.3340 -1.1568
  509MOL0     C68617   5.135  -0.127   2.919 -0.2960 -0.8528 -0.5876
  509MOL0     C68618   5.125  -0.212   3.041 -0.3190 -0.7759  1.1165
  509MOL0     C68619   5.035  -0.332   2.996  0.4346  0.3604 -0.6944
  509MOL0     C68620   4.995  -0.436   3.100  0.3901  0.0606  0.2100
  509MOL0     C68621   4.854  -0.404   3.158  0.1043 -0.0539 -0.1509
  509MOL0     C68622   4.772  -0.535   3.167 -0.5274 -0.0006 -0.1854
  509MOL0     C68623   4.643  -0.508   3.250  0.5201  0.1106  1.1571
  509MOL0    Cl68624   4.536  -0.651   3.233 -0.6296  0.0081  0.3111
  509MOL0     C68625   5.262   0.321   2.911 -0.5400 -0.7965 -0.1441
  509MOL0     C68626   5.326   0.446   2.943 -0.3896  0.8726  0.3245
  509MOL0     O68627   5.276   0.754   2.976 -0.1049 -0.1316 -0.5562
  509MOL0     C68628   5.427   0.969   3.069 -0.0691 -0.0679  0.1394
  509MOL0     C68629   5.524   1.074   3.086 -0.6008  0.3139 -0.7236
  509MOL0     N68630   5.837   1.746   3.168  0.5287  0.4818 -0.1660
  509MOL0     N68631   5.824   1.835   3.080 -0.1281 -0.1601  0.1523
  509MOL0     C68632   5.282   1.839   2.017 -0.1360 -0.0990 -0.0935
  509MOL0     C68633   5.222   1.807   1.893  0.0768  0.4325 -0.8602
  509MOL0     C68634   5.013   1.762   1.527  0.0429 -0.2121 -0.1809
  509MOL0     C68635   5.044   1.869   1.439 -0.6678 -0.0874  0.3170
  509MOL0     C68636   4.952   1.902   1.330 -0.3500  0.4385 -0.3894
  509MOL0     C68637   4.834   1.828   1.318  0.7740  0.6829  0.4008
  509MOL0     O68638   4.738   1.858   1.214 -0.3350  0.5603 -0.0841
  509MOL0     C68639   4.767   1.958   1.110  0.1553  0.2016  0.3986
  509MOL0     C68640   4.671   1.960   1.004 -0.6405 -0.3691 -0.0377
  509MOL0     C68641   4.696   2.043   0.878 -0.3247 -0.3673  0.8539
  509MOL0     C68642   4.727   1.976   0.740 -0.0513 -0.9410 -0.0250
  509MOL0     C68643   4.751   2.067   0.629  0.2224 -0.5327 -0.4165
  509MOL0     C68644   4.781   2.151   0.544  0.1127 -1.0907 -0.1391
  509MOL0     C68645   4.803   1.730   1.415  0.9067 -0.8464  0.0118
  509MOL0     C68646   4.888   1.694   1.519  0.0199 -0.6166  0.9199
  509MOL0     C68647   4.839   1.586   1.608 -0.1846  0.0516 -0.2462
  509MOL0     H68648   5.450   1.924   1.672  2.1875  0.6381  0.9945
  509MOL0     H68649   5.559   1.973   1.889  0.5977 -1.5907 -0.9173
  509MOL0     H68650   5.311   1.936   2.262 -0.6598 -2.3024  1.0714
  509MOL0     H68651   5.426   1.799   2.270  3.2995  0.6774  3.2556
  509MOL0     H68652   5.498   1.894   2.441  1.5180 -2.2904 -0.4664
  509MOL0     H68653   5.476   2.063   2.372  0.0582 -1.0605 -2.0414
  509MOL0     H68654   5.681   2.033   2.241  2.8046 -0.1949  0.6248
  509MOL0     H68655   5.683   1.859   2.275 -2.3398 -0.5592 -0.5469
  509MOL0     H68656   5.851   1.995   2.369  0.6734 -1.6362  2.4271
  509MOL0     H68657   5.731   2.079   2.481 -1.7674  1.0663 -0.8996
  509MOL0     H68658   5.682   1.855   2.583  0.9060 -0.8289  2.0384
  509MOL0     H68659   5.783   1.776   2.455  1.0471 -0.0618  1.1709
  509MOL0     H68660   5.976   1.875   2.546 -2.3590 -1.2227 -2.0066
  509MOL0     H68661   5.903   1.988   2.652  0.7378  0.0800  1.9248
  509MOL0     H68662   5.982   1.789   2.787  1.1389  3.3716 -0.2278
  509MOL0     H68663   5.878   1.687   2.699 -0.2639 -0.1460  0.0479
  509MOL0     H68664   5.771   1.929   2.839  3.3882  1.1608 -0.6494
  509MOL0     H68665   5.680   1.782   2.808  0.6021  1.6953  0.5347
  509MOL0     H68666   5.804   1.553   2.917  1.5853  0.0548 -0.3058
  509MOL0     H68667   5.898   1.422   3.137  0.3050  1.9530 -1.2003
  509MOL0     H68668   5.862   1.511   3.296  0.8456  1.7167  0.4702
  509MOL0     H68669   5.630   1.516   3.232  1.2709  0.0744 -0.9548
  509MOL0     H68670   5.677   1.419   3.084  2.5389 -0.1436  0.1920
  509MOL0     H68671   5.578   1.278   3.284 -1.3526  3.1639 -0.0006
  509MOL0     H68672   5.712   1.359   3.378 -0.1232  1.3192 -0.9842
  509MOL0     H68673   5.745   1.128   3.324  0.1692  1.3967  1.2015
  509MOL0     H68674   5.887   1.227   3.265 -0.0125 -0.6252  1.5791
  509MOL0     H68675   5.815   0.910   3.104  0.0371  3.2435 -1.4427
  509MOL0     H68676   5.624   0.705   3.096 -2.9557  0.0258 -1.0951
  509MOL0     H68677   5.340   0.439   3.280  1.2631  3.3027 -0.7250
  509MOL0     H68678   5.222   0.223   3.232  2.9830 -0.1103  0.9608
  509MOL0     H68679   5.234   0.044   2.830 -3.7913  0.6113 -1.4123
  509MOL0     H68680   5.322  -0.017   2.972 -0.4929  2.6078 -1.4594
  509MOL0     H68681   5.036  -0.089   2.893  0.2297  1.2098  0.2146
  509MOL0     H68682   5.179  -0.178   2.833 -1.6406 -0.8552 -1.2913
  509MOL0     H68683   5.223  -0.237   3.080  0.6687  2.3001  0.8770
  509MOL0     H68684   5.075  -0.154   3.120 -0.5737  1.1629 -0.3851
  509MOL0     H68685   5.089  -0.393   2.923  2.0428 -0.3033  0.9990
  509MOL0     H68686   4.939  -0.312   2.947  1.9369  0.8789 -3.6390
  509MOL0     H68687   5.076  -0.440   3.173  1.0147  0.0439 -0.4674
  509MOL0     H68688   4.988  -0.538   3.060  0.8149 -0.7221  2.0483
  509MOL0     H68689   4.865  -0.347   3.250 -0.8487  1.7822 -1.1066
  509MOL0     H68690   4.798  -0.334   3.094  0.7044 -0.6156 -1.3252
  509MOL0     H68691   4.828  -0.617   3.213  0.2500  1.4571  1.5809
  509MOL0     H68692   4.748  -0.564   3.065  0.2179  1.8692 -0.9391
  509MOL0     H68693   4.652  -0.472   3.353 -1.2689  3.7189  0.2098
  509MOL0     H68694   4.588  -0.420   3.215 -0.9025  0.0747  3.1481
  509MOL0     H68695   5.239   0.289   2.809  3.2284 -1.8565 -0.8483
  509MOL0     H68696   5.360   0.504   2.858 -0.6213  0.4748 -0.0464
  509MOL0     H68697   5.322   0.987   3.048 -0.1830 -1.6533 -0.8284
  509MOL0     H68698   5.504   1.181   3.077 -2.1717  0.2841  1.5526
  509MOL0     H68699   5.230   1.807   2.106 -1.9362 -0.1516 -1.1110
  509MOL0     H68700   5.126   1.756   1.896  0.6841 -0.7139  1.3672
  509MOL0     H68701   5.134   1.925   1.461 -2.7750  2.5497  3.1258
  509MOL0     H68702   4.964   1.996   1.277 -0.2092  0.8366  0.3369
  509MOL0     H68703   4.860   1.917   1.069 -1.8473 -3.2912 -1.1166
  509MOL0     H68704   4.779   2.056   1.156  1.3294  1.4828 -2.4576
  509MOL0     H68705   4.584   2.010   1.050  0.0567  1.7190 -0.8541
  509MOL0     H68706   4.643   1.857   0.980 -0.8526 -1.1583  3.1337
  509MOL0     H68707   4.776   2.114   0.899 -1.3396  0.6118  1.5512
  509MOL0     H68708   4.616   2.116   0.864  0.6096  0.6309  0.6109
  509MOL0     H68709   4.806   1.902   0.756  1.1786  0.4948  0.7713
  509MOL0     H68710   4.639   1.913   0.719 -1.0494  0.1309  0.7996
  509MOL0     H68711   4.806   2.204   0.454  1.6247 -2.8042 -0.7992
  509MOL0     H68712   4.701   1.693   1.410  0.2623  0.6236  1.4536
  509MOL0     H68713   4.889   1.491   1.589  0.8819  0.4326  0.5742
  509MOL0     H68714   4.848   1.615   1.713  0.4569 -0.4758 -0.1507
  509MOL0     H68715   4.730   1.574   1.598 -0.3895  0.1276  1.5195
  510MOL0     O68716   9.134   8.142   7.356 -0.1308 -0.2395 -0.2129
  510MOL0     C68717   9.097   8.089   7.254 -0.2620 -0.1984  0.1777
  510MOL0     O68718   9.121   8.137   7.130  0.0081  0.4578 -0.1204
  510MOL0     C68719   9.204   8.245   7.122  1.0019  0.9174 -0.5613
  510MOL0     C68720   9.158   8.377   7.154  0.1307  0.2044  0.4572
  510MOL0     C68721   9.256   8.477   7.163  0.0546  0.0706  0.2272
  510MOL0     C68722   9.392   8.468   7.118  0.2830 -0.1594 -0.5393
  510MOL0     O68723   9.495   8.565   7.111 -0.1049  0.2164 -0.6019
  510MOL0     C68724   9.457   8.700   7.102 -0.8410  0.1129 -0.4835
  510MOL0     C68725   9.587   8.787   7.135  0.5074  0.4942  0.0785
  510MOL0     C68726   9.615   8.788   7.290  0.4375 -0.5550  0.0626
  510MOL0     C68727   9.490   8.767   7.382 -0.5041 -0.1138 -0.0175
  510MOL0     C68728   9.520   8.776   7.536 -0.0113  0.9953  0.1865
  510MOL0     C68729   9.400   8.718   7.613 -0.8209  0.0157  0.1847
  510MOL0     C68730   9.432   8.729   7.771  0.5314  0.3097  0.1032
  510MOL0     C68731   9.326   8.679   7.864 -0.0217  0.3701  0.8308
  510MOL0     N68732   9.344   8.703   8.013  0.6919 -0.0310 -0.1647
  510MOL0     C68733   9.359   8.830   8.064 -0.6063 -0.6009 -0.4115
  510MOL0     C68734   9.315   8.815   8.189  0.4588 -0.4184  0.1718
  510MOL0     C68735   9.299   8.921   8.293  0.9804  0.0491 -0.2200
  510MOL0     C68736   9.296   8.873   8.440 -0.1918 -0.2722  0.8792
  510MOL0     C68737   9.434   8.835   8.491  0.1487 -0.1829  0.5430
  510MOL0     C68738   9.426   8.761   8.627 -0.6672 -0.2981 -0.5054
  510MOL0     O68739   9.365   8.846   8.716 -0.1177 -0.2054 -0.9437
  510MOL0     C68740   9.429   8.843   8.842  1.2555 -0.1074  0.3477
  510MOL0     C68741   9.559   8.885   8.855  0.7762 -0.6225 -0.2665
  510MOL0     C68742   9.625   8.874   8.978  0.0864  0.6116 -0.7525
  510MOL0     C68743   9.559   8.823   9.090 -0.9357 -1.1731  0.6989
  510MOL0     C68744   9.632   8.817   9.214  0.6003  0.2063  0.9202
  510MOL0     O68745   9.730   8.905   9.238  0.5122  0.3913 -0.2285
  510MOL0     C68746   9.812   8.908   9.350 -0.7835  0.2287 -0.4589
  510MOL0     C68747   9.820   8.814   9.450  0.1946 -0.1644  0.2189
  510MOL0     C68748   9.924   8.809   9.539 -0.0774 -0.4070 -0.7671
  510MOL0     C68749  10.028   8.906   9.528  0.2927  0.5001 -0.3300
  510MOL0     O68750  10.133   8.882   9.608  1.3312 -0.4654  0.0021
  510MOL0     C68751  10.204   9.008   9.643  0.3149  0.1422 -0.5023
  510MOL0     C68752  10.300   8.983   9.764  0.5524 -0.5883  0.6374
  510MOL0     C68753  10.354   9.118   9.815 -0.2640 -0.6878  0.4041
  510MOL0     C68754  10.469   9.105   9.910  0.3326  0.3352 -0.1009
  510MOL0     C68755  10.583   9.190   9.873 -0.3119  0.7844  0.2064
  510MOL0     C68756  10.692   9.221   9.981  0.3832  0.2269  0.8599
  510MOL0     C68757  10.780   9.330   9.925 -0.4857  0.0048 -0.1229
  510MOL0     C68758  10.891   9.354  10.018  0.3157  0.0829 -0.6051
  510MOL0    Cl68759  10.994   9.454   9.910  0.7588 -0.5889 -0.7346
  510MOL0     C68760  10.018   9.010   9.430 -0.8340  0.3749  0.7049
  510MOL0     C68761   9.911   9.008   9.344  0.6005  0.4063  0.0912
  510MOL0     O68762   9.587   8.731   9.293  0.5187  0.1052 -0.2335
  510MOL0     C68763   9.424   8.792   9.082  0.2839 -0.2929 -0.0994
  510MOL0     C68764   9.366   8.802   8.960 -0.0279 -0.0304 -0.9731
  510MOL0     N68765   9.270   8.687   8.204  0.5635  0.4583  0.3270
  510MOL0     N68766   9.276   8.615   8.093 -0.2156  0.1470 -0.2374
  510MOL0     C68767   9.426   8.335   7.088 -0.0785  0.5224  0.0209
  510MOL0     C68768   9.332   8.227   7.093 -0.0314  0.3201  0.3390
  510MOL0     C68769   9.037   7.948   7.259 -0.3377  0.5618  0.5929
  510MOL0     C68770   8.987   7.889   7.144  0.0490  0.3752  0.1691
  510MOL0     C68771   8.937   7.763   7.140  0.6096  0.3188 -0.3486
  510MOL0     C68772   8.927   7.681   7.254  0.4695  1.0261 -0.1535
  510MOL0     O68773   8.876   7.552   7.258  0.3879  0.2016  0.1991
  510MOL0     C68774   8.829   7.480   7.148  0.3094  1.0990 -0.9303
  510MOL0     C68775   8.963   7.407   7.116 -0.9636 -0.3836 -0.4384
  510MOL0     C68776   8.946   7.294   7.024  0.6864  0.2747  0.2528
  510MOL0     C68777   8.943   7.338   6.877 -0.5005  0.1014 -0.2728
  510MOL0     C68778   8.877   7.250   6.775  0.3025 -0.0840  0.0067
  510MOL0     C68779   8.813   7.185   6.692 -0.2965 -0.1595 -0.7952
  510MOL0     C68780   8.977   7.740   7.372 -0.0042  0.4575 -0.5488
  510MOL0     C68781   9.028   7.867   7.378  0.9596 -0.7889 -0.0941
  510MOL0     C68782   9.050   7.917   7.520 -0.0312 -0.8319  0.5063
  510MOL0     H68783   9.057   8.394   7.192  0.3124  3.6124 -0.2173
  510MOL0     H68784   9.224   8.576   7.194 -0.6433 -0.0995  0.0525
  510MOL0     H68785   9.426   8.735   7.004  1.0626  2.4367 -0.3387
  510MOL0     H68786   9.374   8.731   7.167  0.7610 -1.0773  2.3440
  510MOL0     H68787   9.566   8.893   7.113  2.8129  0.6289 -1.9090
  510MOL0     H68788   9.676   8.765   7.076  0.6129  3.2125 -0.9730
  510MOL0     H68789   9.671   8.874   7.327  0.5873  0.5492 -2.5342
  510MOL0     H68790   9.682   8.704   7.312 -0.8216 -1.0932  2.0089
  510MOL0     H68791   9.413   8.841   7.361  2.2863  2.7685 -0.7772
  510MOL0     H68792   9.449   8.667   7.360 -1.7728  0.4914 -0.5105
  510MOL0     H68793   9.612   8.723   7.563  0.9502  2.8425  0.7185
  510MOL0     H68794   9.530   8.882   7.562  5.1246  0.2005  2.7899
  510MOL0     H68795   9.313   8.779   7.585 -0.9075 -1.4786 -3.3177
  510MOL0     H68796   9.379   8.618   7.574  1.1696 -0.9422  1.4692
  510MOL0     H68797   9.441   8.832   7.806  4.0180  0.3985 -0.6203
  510MOL0     H68798   9.530   8.681   7.785 -0.3030 -1.7649 -0.7952
  510MOL0     H68799   9.228   8.722   7.843 -0.2034 -1.0231 -1.4009
  510MOL0     H68800   9.316   8.572   7.844 -0.4416  0.4506  0.6046
  510MOL0     H68801   9.386   8.921   8.012  3.5583 -0.5358  1.4963
  510MOL0     H68802   9.377   8.995   8.273  2.7405 -1.8024 -0.4961
  510MOL0     H68803   9.200   8.967   8.291  0.9093  0.3235  3.2175
  510MOL0     H68804   9.238   8.933   8.511  0.0105 -0.9940  1.6677
  510MOL0     H68805   9.234   8.783   8.435 -0.0810 -0.4321  2.0830
  510MOL0     H68806   9.502   8.920   8.505  0.3005 -0.5370  2.1145
  510MOL0     H68807   9.466   8.757   8.422 -2.2864 -0.6493 -0.1799
  510MOL0     H68808   9.529   8.731   8.651 -0.3771  1.4566  0.6438
  510MOL0     H68809   9.368   8.669   8.621 -0.8861 -0.3440  1.6536
  510MOL0     H68810   9.625   8.928   8.780  2.1080  1.3836  1.8962
  510MOL0     H68811   9.731   8.896   8.985 -0.1717  1.3697  1.4138
  510MOL0     H68812   9.734   8.749   9.461 -1.7553  2.5353  2.9825
  510MOL0     H68813   9.932   8.728   9.611  1.0259  0.1572 -0.2326
  510MOL0     H68814  10.265   9.042   9.559 -0.1505 -1.2829 -1.4523
  510MOL0     H68815  10.128   9.084   9.667  1.4467  1.4580 -0.9323
  510MOL0     H68816  10.250   8.935   9.849 -2.0933  2.0172  0.6986
  510MOL0     H68817  10.382   8.925   9.722  1.4932  1.6592 -0.8504
  510MOL0     H68818  10.386   9.172   9.725 -1.9178  1.1236  0.8255
  510MOL0     H68819  10.276   9.180   9.860  0.8943  1.3933 -0.3163
  510MOL0     H68820  10.486   8.997   9.913  0.7910  0.4101  2.5191
  510MOL0     H68821  10.434   9.129  10.010 -0.4499  1.7612 -0.6771
  510MOL0     H68822  10.532   9.284   9.851 -2.2419 -0.4357 -0.7607
  510MOL0     H68823  10.627   9.155   9.779 -1.3376 -1.2081  0.4220
  510MOL0     H68824  10.642   9.258  10.070  2.1221  1.8938  1.1922
  510MOL0     H68825  10.764   9.140   9.995  1.4245  0.7145 -1.2321
  510MOL0     H68826  10.723   9.424   9.928 -0.9472 -0.2848  0.3352
  510MOL0     H68827  10.815   9.298   9.826  1.2556  0.7354  0.2168
  510MOL0     H68828  10.866   9.408  10.109 -2.1461 -1.2115 -0.4175
  510MOL0     H68829  10.936   9.261  10.054 -0.6501 -0.0119  0.4148
  510MOL0     H68830  10.100   9.076   9.404  0.3247 -1.0478  0.5719
  510MOL0     H68831   9.909   9.077   9.260 -0.0039 -0.0283 -0.2596
  510MOL0     H68832   9.366   8.747   9.162 -1.6119 -1.0557 -1.8341
  510MOL0     H68833   9.262   8.772   8.968  0.1335  0.0124  2.3487
  510MOL0     H68834   9.521   8.307   7.044 -1.0097 -0.5479 -1.3893
  510MOL0     H68835   9.354   8.125   7.063 -0.4647 -0.4929  2.5622
  510MOL0     H68836   9.000   7.953   7.058  2.1464  2.7503  2.1151
  510MOL0     H68837   8.892   7.727   7.048 -0.7248 -0.3541  0.5324
  510MOL0     H68838   8.782   7.532   7.064  0.5041 -0.0733 -1.7921
  510MOL0     H68839   8.765   7.398   7.182  2.8955 -0.6047  0.1761
  510MOL0     H68840   9.006   7.369   7.208 -1.0758 -1.0682 -0.6588
  510MOL0     H68841   9.031   7.487   7.086 -1.8184 -0.0368 -1.5554
  510MOL0     H68842   8.859   7.231   7.042  1.0263 -0.9845 -2.0903
  510MOL0     H68843   9.036   7.232   7.038  3.0575  3.1623 -1.0558
  510MOL0     H68844   8.893   7.436   6.870  1.3334  1.2602  1.7223
  510MOL0     H68845   9.045   7.345   6.838 -0.8171 -4.2505 -2.4715
  510MOL0     H68846   8.755   7.126   6.623 -0.2800 -2.4825  1.0236
  510MOL0     H68847   8.981   7.678   7.462  0.3423 -1.3459 -1.7513
  510MOL0     H68848   8.964   7.950   7.579  1.0793  2.0958  0.6542
  510MOL0     H68849   9.083   7.837   7.587  0.3810  2.5539  4.7970
  510MOL0     H68850   9.134   7.985   7.535 -0.2342 -1.0235  2.9654
  511MOL0     O68851   7.316   9.921   4.152  0.7867  0.0870 -0.2836
  511MOL0     C68852   7.202   9.973   4.146  0.2662 -0.0104 -0.0617
  511MOL0     O68853   7.167  10.091   4.199 -0.0339  0.4763 -0.4011
  511MOL0     C68854   7.207  10.127   4.328  1.1517 -0.4049  0.3256
  511MOL0     C68855   7.283  10.046   4.411 -0.0996 -0.1156 -0.0819
  511MOL0     C68856   7.342  10.092   4.529  1.2754 -0.8234  0.2576
  511MOL0     C68857   7.303  10.220   4.579 -0.8585 -0.1714 -0.3148
  511MOL0     O68858   7.360  10.271   4.690  0.5113 -0.6119 -0.3250
  511MOL0     C68859   7.383  10.188   4.802 -0.4990  0.4744  1.2170
  511MOL0     C68860   7.357  10.251   4.939  0.5507  0.1426 -0.7072
  511MOL0     C68861   7.480  10.323   4.991  0.1410 -1.7586 -0.7086
  511MOL0     C68862   7.606  10.231   5.014 -0.1997  0.4385  0.3239
  511MOL0     C68863   7.712  10.297   5.092 -0.1326  0.5416 -0.2962
  511MOL0     C68864   7.810  10.388   5.017 -0.0414  0.5185  0.2515
  511MOL0     C68865   7.935  10.415   5.099  0.6379  0.1602  0.7696
  511MOL0     C68866   8.045  10.482   5.010  0.0363 -0.2691 -0.1521
  511MOL0     N68867   8.178  10.484   5.069 -0.3510 -0.2436  0.0736
  511MOL0     C68868   8.292  10.512   4.989 -0.3336 -0.3927 -0.2720
  511MOL0     C68869   8.396  10.480   5.070  0.5176 -0.3814  0.3181
  511MOL0     C68870   8.540  10.487   5.030 -1.1206  0.7700 -0.9827
  511MOL0     C68871   8.575  10.405   4.907  0.5047  0.5903  0.7630
  511MOL0     C68872   8.575  10.246   4.928 -0.4013  0.2625 -0.0208
  511MOL0     C68873   8.445  10.183   4.978 -0.6068 -0.2504  0.7624
  511MOL0     O68874   8.342  10.193   4.880  0.2073  0.2135 -0.7954
  511MOL0     C68875   8.221  10.128   4.906 -0.1669  1.1102 -1.5141
  511MOL0     C68876   8.186  10.054   5.020  1.3138  1.0999  0.5961
  511MOL0     C68877   8.053  10.013   5.045 -0.4893 -1.0045 -0.1238
  511MOL0     C68878   7.956  10.030   4.946  0.0806 -0.6156  0.0884
  511MOL0     C68879   7.815   9.965   4.954  0.3937 -1.1793 -0.0245
  511MOL0     O68880   7.758   9.929   5.079  0.6908 -0.9306  0.0941
  511MOL0     C68881   7.647   9.851   5.091 -0.3559  0.1282  1.1674
  511MOL0     C68882   7.618   9.821   5.230 -0.6650  0.0167  0.2993
  511MOL0     C68883   7.498   9.762   5.263  0.2663  0.7628  0.3227
  511MOL0     C68884   7.408   9.721   5.161  0.1538  0.8253  0.0831
  511MOL0     O68885   7.299   9.647   5.201  0.3710  0.1208 -0.9810
  511MOL0     C68886   7.169   9.697   5.142 -0.4599 -0.8872  0.4809
  511MOL0     C68887   7.127   9.847   5.180 -0.6173  0.0611  0.4302
  511MOL0     C68888   7.156   9.882   5.330  0.3436  0.6653  0.0579
  511MOL0     C68889   7.237  10.003   5.363  0.5336 -0.0995  0.2653
  511MOL0     C68890   7.213  10.063   5.505 -0.1019  0.4020  0.0763
  511MOL0     C68891   7.333  10.146   5.558  0.2612 -0.0231  0.0684
  511MOL0     C68892   7.371  10.259   5.460 -0.0402 -0.4087 -0.1615
  511MOL0     C68893   7.516  10.300   5.485  0.1694 -1.6201  0.1618
  511MOL0    Cl68894   7.622  10.163   5.442  0.0369 -0.1662  0.1847
  511MOL0     C68895   7.433   9.752   5.022  0.1368  0.5448  0.3367
  511MOL0     C68896   7.554   9.814   4.991  0.6670  0.2388 -0.4709
  511MOL0     O68897   7.761   9.948   4.847 -0.4856  0.0859 -0.6107
  511MOL0     C68898   7.997  10.084   4.815  0.0651  0.4114 -1.2293
  511MOL0     C68899   8.125  10.135   4.804 -0.8427 -1.5979 -0.4568
  511MOL0     N68900   8.348  10.441   5.193  0.4863  0.0325  0.2010
  511MOL0     N68901   8.220  10.434   5.186  0.6136  0.8084 -0.2708
  511MOL0     C68902   7.214  10.296   4.507  0.0401  0.3962 -0.0742
  511MOL0     C68903   7.156  10.252   4.387 -0.8162  1.0377 -1.1059
  511MOL0     C68904   7.104   9.898   4.069 -0.7956  0.3245 -0.5700
  511MOL0     C68905   6.972   9.905   4.114  0.0537 -0.3279  0.3712
  511MOL0     C68906   6.869   9.842   4.046  0.7802  0.1708  0.1963
  511MOL0     C68907   6.896   9.781   3.923  0.7788 -0.1500  1.1042
  511MOL0     O68908   6.798   9.721   3.845  0.2703  0.0845 -0.3656
  511MOL0     C68909   6.659   9.758   3.865  0.6348  0.5493  0.1635
  511MOL0     C68910   6.613   9.858   3.768 -0.2254 -1.0964 -0.3438
  511MOL0     C68911   6.463   9.875   3.753  0.3521  0.6451 -0.0207
  511MOL0     C68912   6.392   9.858   3.883 -0.1564  0.9925 -0.2407
  511MOL0     C68913   6.438   9.944   3.995  0.2766 -0.6512 -0.3995
  511MOL0     C68914   6.439  10.029   4.085  0.1443  0.1258 -0.3479
  511MOL0     C68915   7.020   9.760   3.876  0.1471 -0.1700  0.1744
  511MOL0     C68916   7.135   9.817   3.953  1.0566 -0.2612  0.7368
  511MOL0     C68917   7.273   9.805   3.887  0.5008  1.4445  0.2133
  511MOL0     H68918   7.308   9.944   4.381  0.2255 -0.9046  2.5855
  511MOL0     H68919   7.412  10.032   4.587  2.2172 -0.5016 -0.5056
  511MOL0     H68920   7.313  10.104   4.809  0.7232 -0.4998  2.1851
  511MOL0     H68921   7.482  10.145   4.789  0.2249  1.8268  2.0218
  511MOL0     H68922   7.332  10.170   5.007 -2.3236  0.1023 -1.6944
  511MOL0     H68923   7.271  10.319   4.934 -0.9607 -1.7900 -3.3018
  511MOL0     H68924   7.454  10.365   5.088  3.0885  1.3713 -1.0776
  511MOL0     H68925   7.513  10.401   4.922 -0.1991 -3.3300 -2.7491
  511MOL0     H68926   7.577  10.142   5.070  1.8345 -0.8988 -0.6468
  511MOL0     H68927   7.657  10.203   4.922  2.4049 -0.5227  1.9708
  511MOL0     H68928   7.666  10.359   5.170  2.6954  1.1359  1.0365
  511MOL0     H68929   7.767  10.212   5.133 -0.1069  0.9402  0.5103
  511MOL0     H68930   7.839  10.330   4.929  1.9544  1.5001  0.2096
  511MOL0     H68931   7.759  10.482   4.996  1.3296  0.6830 -2.8050
  511MOL0     H68932   7.971  10.324   5.147 -0.5835 -1.3609 -1.0450
  511MOL0     H68933   7.918  10.491   5.175  1.7908  2.4693 -1.1210
  511MOL0     H68934   8.048  10.439   4.910  0.5731 -0.2139 -0.1604
  511MOL0     H68935   8.006  10.583   4.991 -1.0643 -0.7599 -0.5710
  511MOL0     H68936   8.305  10.542   4.885 -2.4154 -4.1230 -1.8337
  511MOL0     H68937   8.551  10.594   5.010 -0.9506  1.7562  3.2856
  511MOL0     H68938   8.606  10.463   5.115 -0.1029  0.1381 -1.9238
  511MOL0     H68939   8.495  10.409   4.833  1.2453 -5.6480 -0.9776
  511MOL0     H68940   8.671  10.431   4.861 -0.1055  0.1362 -0.8288
  511MOL0     H68941   8.669  10.227   4.980 -0.2718 -3.2112 -1.2481
  511MOL0     H68942   8.597  10.203   4.829  3.1338 -0.8139  1.0825
  511MOL0     H68943   8.416  10.219   5.077 -2.7437  0.8281 -0.1845
  511MOL0     H68944   8.457  10.075   4.986 -0.0314 -0.0724  2.9936
  511MOL0     H68945   8.266  10.040   5.092  0.0991 -0.7689  1.6841
  511MOL0     H68946   8.030   9.962   5.137 -0.7804  1.5812  1.3212
  511MOL0     H68947   7.698   9.848   5.299 -0.7781 -0.0470  0.4564
  511MOL0     H68948   7.480   9.746   5.369  0.6499  1.9630  0.5809
  511MOL0     H68949   7.160   9.684   5.033  0.5362  0.5653  0.1871
  511MOL0     H68950   7.100   9.624   5.184  2.2654 -3.7858  0.2671
  511MOL0     H68951   7.180   9.919   5.116 -0.3138 -0.5359 -0.0047
  511MOL0     H68952   7.023   9.862   5.149 -0.3113 -1.9484 -1.9169
  511MOL0     H68953   7.060   9.903   5.379 -1.3860 -0.4861 -2.6100
  511MOL0     H68954   7.198   9.798   5.385  5.8201  2.9230 -0.0080
  511MOL0     H68955   7.219  10.078   5.285 -3.3311 -1.5529 -0.4574
  511MOL0     H68956   7.342   9.975   5.350  0.5932 -0.1150  0.7942
  511MOL0     H68957   7.218   9.989   5.585  1.4393  0.3403 -0.0549
  511MOL0     H68958   7.120  10.121   5.503 -1.4453 -1.6690 -0.5992
  511MOL0     H68959   7.295  10.176   5.656 -3.2993 -3.4789 -0.0171
  511MOL0     H68960   7.418  10.081   5.581  1.5271  1.3117 -0.6660
  511MOL0     H68961   7.303  10.342   5.480 -0.8436 -1.4494  1.6171
  511MOL0     H68962   7.365  10.227   5.355  3.2816 -0.5324 -0.4192
  511MOL0     H68963   7.549  10.387   5.428 -0.9661 -0.1620  1.6306
  511MOL0     H68964   7.528  10.328   5.590 -2.5506 -0.3307  0.2137
  511MOL0     H68965   7.366   9.718   4.943  0.3517  0.8907 -0.0008
  511MOL0     H68966   7.568   9.834   4.885 -0.6410 -1.9156 -1.1023
  511MOL0     H68967   7.926  10.093   4.733  0.1058  1.3116 -1.1757
  511MOL0     H68968   8.136  10.194   4.714  0.3964 -0.3401  0.4871
  511MOL0     H68969   7.185  10.392   4.550 -0.5237 -0.2535  1.0217
  511MOL0     H68970   7.094  10.326   4.338 -3.9535 -0.0192  1.0088
  511MOL0     H68971   6.941   9.967   4.197  0.2912 -0.2789  0.4243
  511MOL0     H68972   6.770   9.852   4.088  0.4865 -0.7105 -0.2468
  511MOL0     H68973   6.639   9.792   3.967  0.3017 -0.2860  0.3873
  511MOL0     H68974   6.599   9.668   3.849 -1.3783  1.6645  0.9486
  511MOL0     H68975   6.637   9.827   3.666  6.1768 -1.8654  0.9587
  511MOL0     H68976   6.662   9.953   3.792 -2.3649 -0.3087  1.2219
  511MOL0     H68977   6.420   9.800   3.687 -0.4454  2.0367 -1.1406
  511MOL0     H68978   6.439   9.977   3.720  0.4248  0.8434  0.5261
  511MOL0     H68979   6.286   9.879   3.870 -0.6934  0.0970  2.0923
  511MOL0     H68980   6.398   9.755   3.921 -1.3968 -0.1135 -2.8079
  511MOL0     H68981   6.429  10.100   4.164 -3.4866 -0.4577 -0.1446
  511MOL0     H68982   7.043   9.710   3.782  4.5181  0.0840  0.8992
  511MOL0     H68983   7.273   9.739   3.800 -1.6116  0.0571  1.1830
  511MOL0     H68984   7.313   9.905   3.868 -0.2963  1.9230  0.9760
  511MOL0     H68985   7.346   9.753   3.951 -1.6295 -3.0015 -0.5391
  512MOL0     O68986  10.581   2.473   9.617 -0.3673 -0.3384 -0.4382
  512MOL0     C68987  10.637   2.380   9.668 -0.1036  0.4790  0.1338
  512MOL0     O68988  10.769   2.376   9.694  0.2247  0.0804 -0.2874
  512MOL0     C68989  10.857   2.470   9.654 -0.6507 -0.4498  0.8094
  512MOL0     C68990  10.834   2.541   9.534  0.3358  0.5421  0.5731
  512MOL0     C68991  10.938   2.625   9.481  0.7711 -0.7562 -0.0297
  512MOL0     C68992  11.055   2.651   9.551  0.4641  0.1068  0.1379
  512MOL0     O68993  11.150   2.742   9.507  0.1252 -0.0003 -0.1510
  512MOL0     C68994  11.101   2.871   9.466 -0.4874 -0.5102 -0.7325
  512MOL0     C68995  11.217   2.968   9.426  0.1841  0.2836 -0.8062
  512MOL0     C68996  11.346   2.951   9.512  0.1693  0.2696 -0.4535
  512MOL0     C68997  11.333   2.994   9.666 -0.4437  1.0411 -0.2499
  512MOL0     C68998  11.463   3.002   9.736 -0.5219  0.1428 -0.2109
  512MOL0     C68999  11.545   2.873   9.720  0.2608  0.3763  0.7219
  512MOL0     C69000  11.656   2.868   9.828 -0.4708  1.4064 -0.0401
  512MOL0     C69001  11.731   2.729   9.838  1.0325  0.0040  1.0625
  512MOL0     N69002  11.646   2.619   9.891 -0.5059  0.1399 -0.2919
  512MOL0     C69003  11.708   2.499   9.930  0.1008 -0.4515 -0.6661
  512MOL0     C69004  11.601   2.420   9.981  0.6630  0.3100 -0.3756
  512MOL0     C69005  11.604   2.280  10.038 -0.5671  1.1529  0.9286
  512MOL0     C69006  11.644   2.169   9.937 -0.5826 -1.0491  0.0430
  512MOL0     C69007  11.547   2.159   9.815 -0.3645 -0.3029 -1.7117
  512MOL0     C69008  11.616   2.078   9.709 -0.2441  0.1155 -0.6880
  512MOL0     O69009  11.740   2.138   9.655  0.0317 -0.4924 -0.8830
  512MOL0     C69010  11.735   2.266   9.596  0.5669 -0.2213 -0.8179
  512MOL0     C69011  11.844   2.349   9.622  0.0926  0.6453 -0.2314
  512MOL0     C69012  11.844   2.470   9.560  0.3647 -0.1150 -0.2880
  512MOL0     C69013  11.741   2.519   9.480  0.5118 -0.3553  0.1475
  512MOL0     C69014  11.754   2.653   9.412 -0.6030 -0.0357  0.7289
  512MOL0     O69015  11.678   2.677   9.303 -0.2519 -0.5552  0.6016
  512MOL0     C69016  11.671   2.796   9.238  0.9237  0.3940 -0.1563
  512MOL0     C69017  11.676   2.801   9.096 -0.2052  0.1471  0.7069
  512MOL0     C69018  11.650   2.917   9.018  0.1242  0.2542 -0.7312
  512MOL0     C69019  11.619   3.035   9.090  1.2874  0.5335 -0.7937
  512MOL0     O69020  11.610   3.144   9.010  0.7731 -0.1004 -0.0264
  512MOL0     C69021  11.556   3.265   9.069 -0.3684  0.3632  0.8871
  512MOL0     C69022  11.649   3.366   9.129 -0.6582  0.7412 -0.0936
  512MOL0     C69023  11.712   3.459   9.025  0.1060  1.1158  0.2224
  512MOL0     C69024  11.757   3.398   8.890 -0.2491 -0.1203 -0.2011
  512MOL0     C69025  11.852   3.495   8.811  0.8680 -0.3621  0.2332
  512MOL0     C69026  11.902   3.450   8.683 -0.4099 -0.7767  0.7227
  512MOL0     C69027  11.956   3.568   8.590  0.3622 -0.3700 -0.6139
  512MOL0     C69028  12.046   3.511   8.484  0.1979  0.0420 -0.1529
  512MOL0    Cl69029  12.078   3.657   8.395  0.3526 -0.6197  0.0002
  512MOL0     C69030  11.603   3.034   9.239  0.1706  0.1923  0.8778
  512MOL0     C69031  11.625   2.911   9.308  0.1920 -0.1887  0.1561
  512MOL0     O69032  11.844   2.724   9.453  1.1075  0.7272  0.4815
  512MOL0     C69033  11.630   2.435   9.453  0.4018 -0.3190  0.4168
  512MOL0     C69034  11.622   2.316   9.524  1.0490 -0.7292  0.6366
  512MOL0     N69035  11.485   2.501   9.971 -0.0152 -0.6139  0.1961
  512MOL0     N69036  11.513   2.622   9.935 -0.0266 -0.2828  0.5813
  512MOL0     C69037  11.065   2.590   9.677 -0.8834 -0.2369  0.7808
  512MOL0     C69038  10.976   2.491   9.717  0.3378 -0.1190  0.0047
  512MOL0     C69039  10.549   2.282   9.723  0.0299  0.2430  0.2171
  512MOL0     C69040  10.572   2.212   9.848 -0.0971  0.6484  0.2011
  512MOL0     C69041  10.470   2.127   9.906 -0.1077  0.0502  0.1847
  512MOL0     C69042  10.353   2.099   9.839  0.7205  0.7002  0.0941
  512MOL0     O69043  10.246   2.032   9.888  0.9336 -0.4685 -0.7820
  512MOL0     C69044  10.279   1.942  10.005  0.4966  0.1398  1.2969
  512MOL0     C69045  10.167   1.853  10.038  0.7996  0.0531  0.3694
  512MOL0     C69046  10.182   1.717   9.963 -1.0743  0.6135 -0.2768
  512MOL0     C69047  10.080   1.613  10.016  0.6227 -0.8936  0.5326
  512MOL0     C69048   9.955   1.655   9.951 -0.6028  0.1660  0.2420
  512MOL0     C69049   9.852   1.698   9.927 -0.2815  0.6966  0.5838
  512MOL0     C69050  10.328   2.156   9.714  0.7981 -0.1364  0.1926
  512MOL0     C69051  10.426   2.247   9.659 -0.3571  0.1240 -0.0504
  512MOL0     C69052  10.376   2.302   9.528  0.2008 -0.4984  0.1051
  512MOL0     H69053  10.747   2.518   9.474  2.7768 -3.8974 -1.7783
  512MOL0     H69054  10.914   2.663   9.382 -1.6957  1.6755  1.3654
  512MOL0     H69055  11.039   2.870   9.376 -1.4291  2.3644 -0.2209
  512MOL0     H69056  11.025   2.912   9.533 -2.9111 -0.3310 -3.4130
  512MOL0     H69057  11.186   3.073   9.425 -0.7421  0.0331 -0.0893
  512MOL0     H69058  11.238   2.932   9.325  0.8722 -1.0539 -0.2129
  512MOL0     H69059  11.419   3.022   9.472 -1.0641  0.2515 -2.9431
  512MOL0     H69060  11.379   2.847   9.514 -1.2659 -0.2356 -1.0283
  512MOL0     H69061  11.288   3.092   9.685  1.5793  2.1838 -0.9710
  512MOL0     H69062  11.268   2.922   9.716  1.1952  1.3023  2.4168
  512MOL0     H69063  11.522   3.083   9.692  0.6134  0.1237  1.1954
  512MOL0     H69064  11.448   3.021   9.843 -2.0875 -3.2490  0.3022
  512MOL0     H69065  11.486   2.782   9.733  2.1907 -1.1430 -0.4861
  512MOL0     H69066  11.590   2.876   9.621 -0.9147  0.2612  0.1687
  512MOL0     H69067  11.612   2.889   9.927  0.1606 -1.0198  0.8309
  512MOL0     H69068  11.730   2.947   9.818  3.2895 -1.8469 -0.3998
  512MOL0     H69069  11.779   2.702   9.744 -1.3923  0.3991 -0.3664
  512MOL0     H69070  11.804   2.752   9.917 -1.6071 -2.2618  4.4804
  512MOL0     H69071  11.810   2.468   9.911  1.8003  0.4332  5.0758
  512MOL0     H69072  11.682   2.279  10.115 -1.1109 -1.5898  1.5339
  512MOL0     H69073  11.521   2.239  10.096  0.5297 -3.0095 -0.1235
  512MOL0     H69074  11.740   2.199   9.894 -1.2187  0.7218 -0.1891
  512MOL0     H69075  11.638   2.074   9.992 -2.2185 -0.6037  0.6915
  512MOL0     H69076  11.515   2.258   9.781 -1.7604 -0.9982 -2.5271
  512MOL0     H69077  11.454   2.117   9.854  1.3902 -0.4484  2.8856
  512MOL0     H69078  11.557   2.072   9.617  3.0049 -2.2435 -2.8853
  512MOL0     H69079  11.640   1.973   9.730  1.2152  0.2830 -1.3417
  512MOL0     H69080  11.929   2.310   9.676 -0.0529 -0.2789 -0.6667
  512MOL0     H69081  11.930   2.535   9.573  1.5349 -1.9085  1.3045
  512MOL0     H69082  11.713   2.712   9.046  6.7534  2.7613  0.1521
  512MOL0     H69083  11.668   2.914   8.911 -0.8476 -2.9303 -0.9234
  512MOL0     H69084  11.499   3.320   8.994  1.3976 -2.0138 -2.4760
  512MOL0     H69085  11.477   3.241   9.142  0.0185 -0.0074  1.1912
  512MOL0     H69086  11.593   3.426   9.201  0.8179  0.7301  1.1178
  512MOL0     H69087  11.721   3.305   9.185 -1.9579 -2.2381 -1.4281
  512MOL0     H69088  11.640   3.535   8.991 -0.3401  0.4044 -0.4413
  512MOL0     H69089  11.797   3.506   9.076  1.6015 -1.8843  0.7105
  512MOL0     H69090  11.676   3.371   8.823  1.4556 -0.6304 -2.1729
  512MOL0     H69091  11.811   3.304   8.903  1.4889  0.7043 -1.0870
  512MOL0     H69092  11.940   3.509   8.875  0.7735  0.3358  0.2250
  512MOL0     H69093  11.796   3.587   8.791 -1.0779 -2.1252 -3.1695
  512MOL0     H69094  11.977   3.372   8.697 -0.7954 -1.1582  0.6914
  512MOL0     H69095  11.815   3.412   8.628 -0.9005 -0.4603  1.2654
  512MOL0     H69096  12.014   3.642   8.645  2.0629 -0.3902 -2.2646
  512MOL0     H69097  11.866   3.616   8.549  0.8676 -0.3493 -1.7409
  512MOL0     H69098  12.136   3.464   8.523  0.3916  0.8325  0.3467
  512MOL0     H69099  11.997   3.438   8.418  3.7127 -1.3504 -1.4583
  512MOL0     H69100  11.578   3.124   9.294 -0.3675  2.4803 -2.8079
  512MOL0     H69101  11.592   2.897   9.410  1.3768 -2.0166  0.3211
  512MOL0     H69102  11.546   2.475   9.398  1.3986  0.2127 -0.7746
  512MOL0     H69103  11.525   2.267   9.525  0.2055  0.8252  2.5728
  512MOL0     H69104  11.143   2.622   9.745 -1.7053  3.6316  0.1576
  512MOL0     H69105  11.006   2.441   9.809 -1.1622 -1.9830 -0.4502
  512MOL0     H69106  10.662   2.231   9.907  0.4396  0.0742 -0.4099
  512MOL0     H69107  10.482   2.082  10.004  1.6932 -0.2165 -0.1274
  512MOL0     H69108  10.296   2.001  10.096  0.9932  1.2072  0.5305
  512MOL0     H69109  10.371   1.885   9.990 -0.4714 -1.0798 -0.2585
  512MOL0     H69110  10.073   1.890   9.996  0.6756  1.4332  1.7839
  512MOL0     H69111  10.162   1.840  10.146 -1.8676 -2.2627  0.1050
  512MOL0     H69112  10.283   1.682   9.990 -1.1093 -0.6344 -1.6934
  512MOL0     H69113  10.174   1.720   9.854 -3.6046 -0.4793 -0.1874
  512MOL0     H69114  10.121   1.516   9.984 -1.3247 -2.0973  1.4843
  512MOL0     H69115  10.066   1.627  10.123 -1.5059  2.7703 -0.0716
  512MOL0     H69116   9.754   1.737   9.905  0.4712  2.2072 -0.2341
  512MOL0     H69117  10.230   2.148   9.667  0.5913  3.2320 -0.2095
  512MOL0     H69118  10.312   2.391   9.529  0.6312 -0.1831 -0.2699
  512MOL0     H69119  10.462   2.328   9.467 -0.6728 -2.5217 -2.1259
  512MOL0     H69120  10.333   2.216   9.476 -0.3162  1.2935 -2.6346
  513MOL0     O69121  11.000   3.051   1.746  0.9734 -0.2063 -0.6374
  513MOL0     C69122  10.960   2.933   1.776  0.1366  0.0299  0.1271
  513MOL0     O69123  10.926   2.899   1.905  0.0044 -0.0794 -0.2899
  513MOL0     C69124  10.931   2.993   2.007 -0.3856  0.7671  0.4920
  513MOL0     C69125  10.811   3.044   2.054 -0.6666 -0.2604 -0.3310
  513MOL0     C69126  10.807   3.117   2.179 -0.5966 -0.3707  0.1317
  513MOL0     C69127  10.935   3.136   2.246  0.0518 -0.9442 -0.0326
  513MOL0     O69128  10.943   3.210   2.356 -0.4213  0.0950 -0.5987
  513MOL0     C69129  10.823   3.226   2.436 -0.5337 -0.0911  0.1607
  513MOL0     C69130  10.844   3.331   2.534  0.3919 -0.6277  0.2367
  513MOL0     C69131  10.754   3.314   2.653  0.2049  0.1692 -0.5400
  513MOL0     C69132  10.765   3.420   2.763 -0.9684 -0.0428 -0.5633
  513MOL0     C69133  10.676   3.394   2.878  0.0687 -0.5016 -0.0746
  513MOL0     C69134  10.704   3.488   2.998  0.1738 -0.1810  0.4770
  513MOL0     C69135  10.586   3.503   3.088  0.8229 -0.0696  0.5065
  513MOL0     C69136  10.564   3.376   3.170  0.2551 -0.3260  0.0108
  513MOL0     N69137  10.453   3.378   3.272 -0.3708  0.0991 -0.7132
  513MOL0     C69138  10.424   3.484   3.350 -0.6154 -0.3018  0.8160
  513MOL0     C69139  10.323   3.432   3.420 -0.8314  0.3884 -0.8911
  513MOL0     C69140  10.266   3.493   3.541 -0.2856 -0.1875 -0.4296
  513MOL0     C69141  10.364   3.484   3.654 -0.2246 -0.3865  0.7270
  513MOL0     C69142  10.298   3.531   3.781 -0.3448 -0.2063 -1.1316
  513MOL0     C69143  10.399   3.551   3.898  0.1877 -0.4855  0.7685
  513MOL0     O69144  10.451   3.681   3.865  0.5022 -0.9612 -0.1576
  513MOL0     C69145  10.425   3.759   3.970  0.1769 -0.1674 -0.4221
  513MOL0     C69146  10.478   3.734   4.092 -0.1699 -0.7243 -1.4644
  513MOL0     C69147  10.443   3.810   4.203  0.5743  0.1417  1.0841
  513MOL0     C69148  10.372   3.936   4.183 -0.8283  0.1845 -0.9136
  513MOL0     C69149  10.326   4.015   4.299 -0.0696 -0.6975 -0.1893
  513MOL0     O69150  10.264   4.124   4.280 -0.4292 -0.7456 -0.2274
  513MOL0     C69151  10.277   4.218   4.379 -1.1726 -0.1958 -0.4761
  513MOL0     C69152  10.182   4.227   4.480  0.0012  0.1157 -1.0788
  513MOL0     C69153  10.195   4.325   4.586  0.8532  0.5944  0.2948
  513MOL0     C69154  10.291   4.428   4.582 -0.4645  0.8339  0.3578
  513MOL0     O69155  10.301   4.526   4.675 -0.0029 -0.3064  0.8648
  513MOL0     C69156  10.180   4.569   4.742 -0.0362  0.6922 -0.3676
  513MOL0     C69157  10.184   4.715   4.784  0.2707  0.0309  0.6163
  513MOL0     C69158  10.260   4.735   4.917  0.2295  1.2127  1.0198
  513MOL0     C69159  10.210   4.868   4.973 -0.3507 -0.2746 -0.2058
  513MOL0     C69160  10.225   4.889   5.124  0.8237  0.0478 -0.4176
  513MOL0     C69161  10.179   5.028   5.174  0.3396 -0.3131  0.1848
  513MOL0     C69162  10.018   5.035   5.177  0.1755 -0.2076  0.5308
  513MOL0     C69163   9.971   5.013   5.311  0.1201  0.4897  0.4466
  513MOL0    Cl69164   9.789   5.008   5.318 -0.4389  0.3047  0.7810
  513MOL0     C69165  10.385   4.411   4.480  0.6599 -0.1483  0.7736
  513MOL0     C69166  10.379   4.310   4.379 -0.0592  0.3668 -0.4709
  513MOL0     O69167  10.353   3.972   4.409 -0.7304 -0.1677  0.1105
  513MOL0     C69168  10.345   3.974   4.050  0.2234  0.3550 -0.5412
  513MOL0     C69169  10.361   3.879   3.944  0.4051 -0.2291 -0.2515
  513MOL0     N69170  10.300   3.300   3.403  0.7043 -0.8853 -0.2453
  513MOL0     N69171  10.375   3.269   3.305  0.4055  0.0768 -0.5784
  513MOL0     C69172  11.049   3.091   2.188 -0.2907 -0.1438 -0.2435
  513MOL0     C69173  11.053   3.020   2.069  0.8980  0.7127  0.6574
  513MOL0     C69174  10.947   2.841   1.667  0.7024  0.1791  0.1214
  513MOL0     C69175  11.022   2.845   1.555 -0.1757  0.2719 -0.3832
  513MOL0     C69176  11.020   2.751   1.444  0.3762 -0.0817 -0.3603
  513MOL0     C69177  10.921   2.654   1.433  0.6134  0.8984 -0.1896
  513MOL0     O69178  10.922   2.571   1.320  0.5045  0.1880 -0.2236
  513MOL0     C69179  10.833   2.458   1.333  0.0614  0.3434 -0.1070
  513MOL0     C69180  10.855   2.372   1.208  0.0977  0.0011 -0.0485
  513MOL0     C69181  10.812   2.237   1.253  0.8028  0.2520  0.9374
  513MOL0     C69182  10.762   2.135   1.144  0.8267 -0.8998  0.4722
  513MOL0     C69183  10.700   2.020   1.192  0.4860 -0.9897 -0.8577
  513MOL0     C69184  10.661   1.914   1.234 -1.1719  0.4199  0.0004
  513MOL0     C69185  10.839   2.651   1.542  0.7274  0.4982 -0.5246
  513MOL0     C69186  10.852   2.733   1.662  0.4144  0.0169 -0.5432
  513MOL0     C69187  10.737   2.710   1.761  0.7291  0.0784  0.8792
  513MOL0     H69188  10.730   3.025   1.985 -0.6707  2.8967 -1.3852
  513MOL0     H69189  10.718   3.163   2.221  0.0962  1.0577  0.1231
  513MOL0     H69190  10.750   3.267   2.366  0.7740 -0.4662 -1.4797
  513MOL0     H69191  10.773   3.135   2.470 -0.8935 -0.3029 -0.8932
  513MOL0     H69192  10.822   3.432   2.500  0.8035 -0.1736  1.2929
  513MOL0     H69193  10.948   3.332   2.567  0.6925 -0.3291 -0.6855
  513MOL0     H69194  10.771   3.216   2.700 -3.6346 -1.4172 -2.0320
  513MOL0     H69195  10.652   3.311   2.615  0.3151 -3.2665 -0.9023
  513MOL0     H69196  10.870   3.435   2.789 -1.4687  2.3066  0.3044
  513MOL0     H69197  10.731   3.510   2.712  0.7852 -0.1923 -2.1121
  513MOL0     H69198  10.577   3.392   2.832 -0.2347  2.3978  0.2299
  513MOL0     H69199  10.688   3.292   2.916  2.9912  0.0685  0.8451
  513MOL0     H69200  10.793   3.459   3.056 -0.1511  0.2667  1.2070
  513MOL0     H69201  10.725   3.589   2.962 -2.8268  0.5737  0.6316
  513MOL0     H69202  10.493   3.513   3.031 -0.4341 -2.8737  1.8522
  513MOL0     H69203  10.595   3.590   3.152 -1.0085 -0.3225  1.1436
  513MOL0     H69204  10.549   3.287   3.108 -0.1016  0.0627 -0.4580
  513MOL0     H69205  10.654   3.369   3.232 -0.5526  0.0207  1.2723
  513MOL0     H69206  10.456   3.588   3.345 -1.6117 -0.0445 -1.7348
  513MOL0     H69207  10.240   3.596   3.515 -3.3138 -0.6696  0.2624
  513MOL0     H69208  10.176   3.437   3.570 -0.8379  0.5747 -0.6307
  513MOL0     H69209  10.406   3.384   3.665 -1.4393 -0.8690  1.1741
  513MOL0     H69210  10.444   3.557   3.634 -0.6080  0.0434  0.7429
  513MOL0     H69211  10.227   3.459   3.823 -0.9681  2.0915  2.0788
  513MOL0     H69212  10.244   3.625   3.769 -1.6028 -0.7177  0.1368
  513MOL0     H69213  10.478   3.476   3.894  1.2419  0.4929  2.1030
  513MOL0     H69214  10.353   3.530   3.995 -2.9117 -0.4496 -0.5859
  513MOL0     H69215  10.535   3.644   4.112 -0.0615 -0.1874  0.9583
  513MOL0     H69216  10.460   3.775   4.304 -0.1390 -0.2549  1.0713
  513MOL0     H69217  10.111   4.146   4.469  1.0258 -0.6285 -2.5992
  513MOL0     H69218  10.117   4.344   4.658  0.9312  2.6215 -0.0804
  513MOL0     H69219  10.097   4.561   4.671 -0.7771 -0.9863  0.6381
  513MOL0     H69220  10.150   4.506   4.826 -1.9474  3.1013  0.8691
  513MOL0     H69221  10.231   4.781   4.711  1.2259  1.3974  2.3928
  513MOL0     H69222  10.082   4.749   4.803  0.5744 -0.4708  3.6893
  513MOL0     H69223  10.232   4.665   4.995 -3.6106 -1.4439 -2.2988
  513MOL0     H69224  10.367   4.733   4.894  2.0184  1.1557  7.4692
  513MOL0     H69225  10.102   4.876   4.959 -0.4403 -0.2918  0.4754
  513MOL0     H69226  10.265   4.949   4.923  1.2704 -1.6343 -0.7123
  513MOL0     H69227  10.330   4.877   5.151  0.8357 -1.4817 -1.0203
  513MOL0     H69228  10.181   4.819   5.195  2.2635 -0.8743 -0.3934
  513MOL0     H69229  10.230   5.052   5.267  0.4376 -0.6271  0.2144
  513MOL0     H69230  10.220   5.103   5.107 -0.3555 -0.1953 -0.1141
  513MOL0     H69231   9.962   4.968   5.111  2.1417 -1.0676 -0.3358
  513MOL0     H69232   9.978   5.131   5.142  1.4050  0.4770  0.9546
  513MOL0     H69233  10.015   4.923   5.356 -2.8959 -0.1504  2.3772
  513MOL0     H69234  10.021   5.096   5.363 -2.3204  2.5855 -0.3176
  513MOL0     H69235  10.471   4.478   4.475 -0.3648  1.2319  0.9613
  513MOL0     H69236  10.461   4.302   4.308 -0.1887  2.1042 -0.8762
  513MOL0     H69237  10.284   4.060   4.025  0.2063  0.4891 -0.0492
  513MOL0     H69238  10.323   3.898   3.844  0.5581 -0.6469 -0.3915
  513MOL0     H69239  11.138   3.116   2.246 -1.1839 -1.4205  1.7837
  513MOL0     H69240  11.139   2.992   2.010 -2.4122 -3.0576 -2.9914
  513MOL0     H69241  11.105   2.915   1.551  0.7065 -0.7399 -0.1682
  513MOL0     H69242  11.089   2.765   1.360  0.6670  2.8232  0.2485
  513MOL0     H69243  10.734   2.504   1.339 -0.3568 -0.6399  0.7125
  513MOL0     H69244  10.859   2.399   1.421 -1.9741  1.0939  1.0466
  513MOL0     H69245  10.961   2.382   1.182  0.4719  0.0777  1.3870
  513MOL0     H69246  10.795   2.422   1.132 -3.6833  0.0286  2.6593
  513MOL0     H69247  10.735   2.231   1.331  0.6343 -3.3533  0.6559
  513MOL0     H69248  10.898   2.188   1.301  0.3675  0.6405  2.1595
  513MOL0     H69249  10.694   2.188   1.076  0.8217  0.5327  1.5547
  513MOL0     H69250  10.851   2.104   1.089  0.5156  0.5163 -0.9173
  513MOL0     H69251  10.614   1.823   1.265 -0.7988  0.2871  0.1824
  513MOL0     H69252  10.756   2.582   1.551  1.1110  0.1536  0.4742
  513MOL0     H69253  10.718   2.805   1.810  2.7585  0.9572  0.0520
  513MOL0     H69254  10.644   2.672   1.716  0.7201  1.4073 -0.2898
  513MOL0     H69255  10.768   2.628   1.827  0.6078 -0.5797  0.1463
  514MOL0     O69256   5.733   7.050   0.421 -0.0029 -0.5393  0.4501
  514MOL0     C69257   5.807   6.987   0.494  0.2678  0.3241 -0.1313
  514MOL0     O69258   5.906   6.908   0.446  0.1912  0.6729 -0.3598
  514MOL0     C69259   5.944   6.916   0.320 -0.5001 -0.9926 -0.3507
  514MOL0     C69260   5.870   6.938   0.201 -0.0328 -0.2429  0.4904
  514MOL0     C69261   5.935   6.933   0.074 -0.7809  0.0917  0.4807
  514MOL0     C69262   6.073   6.915   0.059  1.3973 -0.2618  0.0535
  514MOL0     O69263   6.142   6.896  -0.058  0.8281  0.1946 -0.1350
  514MOL0     C69264   6.248   6.993  -0.086 -0.4392 -0.2807 -0.3811
  514MOL0     C69265   6.287   6.968  -0.241 -0.5311 -1.2444  0.3910
  514MOL0     C69266   6.347   7.098  -0.301 -0.5345  0.0574  0.4533
  514MOL0     C69267   6.242   7.200  -0.341 -0.7502  1.3441  0.5163
  514MOL0     C69268   6.302   7.308  -0.432  0.0929 -0.9790  0.7208
  514MOL0     C69269   6.235   7.452  -0.421  0.5987 -0.0902  0.8194
  514MOL0     C69270   6.097   7.449  -0.486 -0.9283  0.4173  0.1583
  514MOL0     C69271   6.047   7.595  -0.522  0.8557  0.0537 -0.6268
  514MOL0     N69272   6.010   7.673  -0.403 -0.2634 -0.0060  0.2815
  514MOL0     C69273   5.894   7.680  -0.334 -0.3781 -0.1510 -0.3463
  514MOL0     C69274   5.927   7.749  -0.224  0.2176  0.1436 -0.0750
  514MOL0     C69275   5.829   7.781  -0.111  1.1294 -0.2722  0.5194
  514MOL0     C69276   5.762   7.919  -0.139 -0.0459 -0.6259 -0.6487
  514MOL0     C69277   5.642   7.916  -0.235 -0.4803 -1.0380 -0.1257
  514MOL0     C69278   5.598   8.064  -0.272  0.2093 -0.0256 -0.8233
  514MOL0     O69279   5.711   8.119  -0.350  0.3657 -0.8020 -0.4843
  514MOL0     C69280   5.700   8.254  -0.391  0.0002 -0.5423  0.1134
  514MOL0     C69281   5.589   8.328  -0.370  1.1915  0.7646 -0.6676
  514MOL0     C69282   5.585   8.467  -0.395 -0.3956 -0.8581 -0.1940
  514MOL0     C69283   5.697   8.521  -0.468 -0.4003  0.1489 -0.4475
  514MOL0     C69284   5.699   8.668  -0.506  0.3307  0.4549 -0.2102
  514MOL0     O69285   5.582   8.735  -0.469  0.4912 -0.3010  0.0361
  514MOL0     C69286   5.538   8.841  -0.546 -0.1054  0.9840  0.2555
  514MOL0     C69287   5.484   8.808  -0.672 -0.6821  0.1221  0.6515
  514MOL0     C69288   5.427   8.909  -0.750 -0.7433  0.0281  1.0926
  514MOL0     C69289   5.428   9.044  -0.711  0.1881 -0.8497 -0.2293
  514MOL0     O69290   5.352   9.146  -0.774 -0.4147 -0.0947  0.5313
  514MOL0     C69291   5.366   9.170  -0.917 -0.0181 -0.3169  0.6579
  514MOL0     C69292   5.463   9.288  -0.934 -0.1649  0.8764  1.0628
  514MOL0     C69293   5.520   9.325  -1.078  0.1131  0.1194 -0.3408
  514MOL0     C69294   5.604   9.456  -1.073  0.4637  0.0130 -0.5092
  514MOL0     C69295   5.617   9.517  -1.214  0.6343 -0.5098  0.3162
  514MOL0     C69296   5.688   9.662  -1.213 -0.8244  0.0746 -0.6747
  514MOL0     C69297   5.674   9.726  -1.353  1.1147  0.2578 -0.4101
  514MOL0     C69298   5.696   9.877  -1.353  0.2038 -0.4936  0.0959
  514MOL0    Cl69299   5.631   9.952  -1.506 -0.2062  0.4799 -0.5195
  514MOL0     C69300   5.482   9.076  -0.580  0.7189 -0.3384  1.2488
  514MOL0     C69301   5.530   8.973  -0.494 -0.1902  0.3683 -0.1574
  514MOL0     O69302   5.777   8.702  -0.597 -0.2358  0.0217 -0.2505
  514MOL0     C69303   5.799   8.433  -0.510  0.5896 -0.4392  1.0119
  514MOL0     C69304   5.799   8.302  -0.476  0.2269 -0.4232  0.8304
  514MOL0     N69305   6.063   7.784  -0.233 -0.5038  0.4482 -0.6371
  514MOL0     N69306   6.114   7.739  -0.346 -0.0400  0.2110  0.1364
  514MOL0     C69307   6.141   6.894   0.182  0.1014  0.0460  0.5836
  514MOL0     C69308   6.078   6.898   0.305  1.7084  0.8251  0.0596
  514MOL0     C69309   5.789   7.004   0.646 -0.4082  0.2936  0.2226
  514MOL0     C69310   5.887   6.951   0.733  0.7555  0.0240 -0.0423
  514MOL0     C69311   5.880   6.966   0.881 -0.4490 -0.1720 -0.3022
  514MOL0     C69312   5.770   7.028   0.935 -0.2666 -1.1805  0.1472
  514MOL0     O69313   5.759   7.033   1.070 -0.5055  0.2826  0.6209
  514MOL0     C69314   5.671   7.115   1.132 -0.5419  0.5675 -0.4733
  514MOL0     C69315   5.686   7.265   1.099 -0.7080 -0.5805  0.7815
  514MOL0     C69316   5.793   7.339   1.183  0.0346  0.0212  0.6097
  514MOL0     C69317   5.935   7.287   1.151  0.4865 -0.4415  0.1417
  514MOL0     C69318   5.992   7.220   1.268  0.1096  0.3717  0.0409
  514MOL0     C69319   6.046   7.160   1.360 -0.5538 -0.2611  0.4938
  514MOL0     C69320   5.676   7.078   0.836 -1.0939 -0.6489 -0.4714
  514MOL0     C69321   5.680   7.072   0.704 -0.0379 -1.0786 -0.8183
  514MOL0     C69322   5.555   7.111   0.630 -0.1989  0.9344  0.9145
  514MOL0     H69323   5.763   6.952   0.209  0.1995  0.6218  2.9251
  514MOL0     H69324   5.884   6.942  -0.021  0.0532 -4.4274 -0.6375
  514MOL0     H69325   6.202   7.092  -0.096 -0.3668 -0.2980 -0.9206
  514MOL0     H69326   6.327   6.998  -0.011 -0.0106  0.6436 -0.8705
  514MOL0     H69327   6.197   6.940  -0.296 -1.7804 -0.9958  2.2180
  514MOL0     H69328   6.362   6.889  -0.252  0.4986 -0.0097 -2.4577
  514MOL0     H69329   6.388   7.065  -0.397 -3.9562 -1.8341 -0.5229
  514MOL0     H69330   6.412   7.164  -0.242 -0.4116  2.7385 -2.4242
  514MOL0     H69331   6.162   7.145  -0.392  0.8941  0.0597 -0.7581
  514MOL0     H69332   6.201   7.253  -0.255 -0.3546  1.3811  0.6846
  514MOL0     H69333   6.404   7.326  -0.395  1.5349  0.5583 -3.3907
  514MOL0     H69334   6.301   7.277  -0.537 -1.9956 -0.8956  0.6846
  514MOL0     H69335   6.225   7.474  -0.314 -1.1475 -1.0030  0.8913
  514MOL0     H69336   6.302   7.527  -0.463 -1.2110  1.8748  1.2538
  514MOL0     H69337   6.034   7.382  -0.428  0.5645 -3.0951 -1.9423
  514MOL0     H69338   6.112   7.394  -0.580  2.7732  1.4434 -0.0049
  514MOL0     H69339   6.118   7.653  -0.582  1.1067  2.8543  2.0934
  514MOL0     H69340   5.957   7.586  -0.583  0.4628 -0.8187  0.0693
  514MOL0     H69341   5.797   7.631  -0.339 -0.3656 -0.2423  0.2691
  514MOL0     H69342   5.754   7.702  -0.101 -0.3539  1.0800  0.5029
  514MOL0     H69343   5.891   7.796  -0.022  0.3646  0.4865  0.9426
  514MOL0     H69344   5.740   7.966  -0.043  1.0884 -4.4286  1.7364
  514MOL0     H69345   5.839   7.987  -0.176 -0.6889  1.4448  1.5840
  514MOL0     H69346   5.558   7.860  -0.193  0.8679 -3.0819 -0.0133
  514MOL0     H69347   5.674   7.868  -0.329  0.6399  0.1549 -0.3890
  514MOL0     H69348   5.597   8.132  -0.186 -1.6843 -0.3130 -0.5767
  514MOL0     H69349   5.499   8.063  -0.317 -1.1833  0.6257  1.9940
  514MOL0     H69350   5.499   8.310  -0.312  0.6594 -3.8840 -2.5629
  514MOL0     H69351   5.489   8.514  -0.374 -1.0119 -2.6105  1.2459
  514MOL0     H69352   5.496   8.711  -0.718  3.3508  1.6240 -2.0183
  514MOL0     H69353   5.375   8.874  -0.839 -2.3004  2.2650  1.0335
  514MOL0     H69354   5.403   9.085  -0.974  0.2244  1.2796 -1.6986
  514MOL0     H69355   5.268   9.182  -0.963 -0.6740 -0.1634  2.0410
  514MOL0     H69356   5.413   9.367  -0.876 -3.8701 -2.6674  3.2392
  514MOL0     H69357   5.560   9.265  -0.888  0.5916 -0.3864 -1.0703
  514MOL0     H69358   5.582   9.243  -1.114 -1.0103 -0.7931 -0.2876
  514MOL0     H69359   5.425   9.341  -1.130 -1.0183  0.9563  1.8600
  514MOL0     H69360   5.703   9.430  -1.034 -0.4592 -0.5229  1.6397
  514MOL0     H69361   5.551   9.521  -1.003  0.6956 -1.2749  0.9269
  514MOL0     H69362   5.520   9.527  -1.264  1.0472  0.1695 -0.3578
  514MOL0     H69363   5.681   9.448  -1.270 -0.5326 -1.2459 -0.1613
  514MOL0     H69364   5.635   9.727  -1.143 -2.8182 -0.9686 -1.1352
  514MOL0     H69365   5.795   9.648  -1.195 -0.0209  1.0225 -4.1381
  514MOL0     H69366   5.576   9.704  -1.395  0.6142  3.7867 -1.4287
  514MOL0     H69367   5.738   9.665  -1.417  0.0770  1.0761 -2.3174
  514MOL0     H69368   5.646   9.922  -1.267 -2.2138  0.0789 -1.5045
  514MOL0     H69369   5.803   9.899  -1.344  0.3547 -1.8694  2.4592
  514MOL0     H69370   5.468   9.179  -0.549  0.6005 -0.4888  1.7038
  514MOL0     H69371   5.553   8.994  -0.390 -3.4219 -3.0890  1.4990
  514MOL0     H69372   5.888   8.467  -0.562  0.6419  0.1448  1.4609
  514MOL0     H69373   5.866   8.222  -0.504 -1.0086 -0.2060 -3.5912
  514MOL0     H69374   6.244   6.865   0.170  0.2422  0.8452 -0.2382
  514MOL0     H69375   6.142   6.891   0.393  1.4440 -4.0618  0.1036
  514MOL0     H69376   5.981   6.906   0.701  2.3158  3.9392 -1.5820
  514MOL0     H69377   5.948   6.912   0.946 -0.8255  2.2104  2.2866
  514MOL0     H69378   5.674   7.111   1.242 -0.6649  0.5133 -0.4714
  514MOL0     H69379   5.575   7.084   1.089 -0.1896 -0.2475 -0.6885
  514MOL0     H69380   5.591   7.318   1.116  1.0893  2.5460  1.8481
  514MOL0     H69381   5.709   7.280   0.993 -0.5656  1.9127  1.0990
  514MOL0     H69382   5.776   7.334   1.291  1.2440 -1.5391  0.7706
  514MOL0     H69383   5.807   7.443   1.154 -1.9180 -0.9117 -5.0497
  514MOL0     H69384   5.932   7.216   1.068 -0.2709 -1.2889  0.8886
  514MOL0     H69385   6.008   7.368   1.138  1.9755 -0.7510  4.6496
  514MOL0     H69386   6.102   7.116   1.441 -0.3823 -0.8515  0.0569
  514MOL0     H69387   5.586   7.115   0.884  0.0805 -0.4217  1.6913
  514MOL0     H69388   5.583   7.200   0.572  1.1135 -1.4831 -2.4789
  514MOL0     H69389   5.517   7.039   0.557  0.5055  2.7378 -1.3670
  514MOL0     H69390   5.471   7.117   0.699  0.5139 -0.8837  1.9899
  515MOL0     O69391   6.887  10.258   7.112  1.0065  0.6501  0.0360
  515MOL0     C69392   6.822  10.154   7.131  0.0540  0.5312 -0.2084
  515MOL0     O69393   6.848  10.041   7.069 -0.4218 -0.1081 -0.5342
  515MOL0     C69394   6.950  10.043   6.971  0.5692 -0.3301  0.9737
  515MOL0     C69395   7.070   9.958   6.983 -0.7665 -1.8963 -0.1462
  515MOL0     C69396   7.169   9.962   6.887  0.8466  0.3506  0.0913
  515MOL0     C69397   7.160  10.055   6.786  0.2310  0.3405 -0.5335
  515MOL0     O69398   7.258  10.051   6.700  0.1403 -0.5947 -0.1559
  515MOL0     C69399   7.360  10.158   6.704 -0.0136  0.1249 -0.5975
  515MOL0     C69400   7.500  10.097   6.705  0.6187 -0.4372 -1.2087
  515MOL0     C69401   7.562  10.120   6.840 -0.1035  0.1045  0.0406
  515MOL0     C69402   7.714  10.067   6.845  0.7730  0.0683 -0.2174
  515MOL0     C69403   7.726   9.917   6.822  0.1456  0.4241 -0.6733
  515MOL0     C69404   7.866   9.875   6.781  0.3955 -0.2484 -0.1429
  515MOL0     C69405   7.925   9.751   6.862  0.6910  0.1460  1.2667
  515MOL0     C69406   7.973   9.785   7.000  0.9762 -0.2494 -0.2601
  515MOL0     N69407   8.087   9.702   7.041  0.5780  0.7841  0.2360
  515MOL0     C69408   8.205   9.698   6.970 -0.2843 -0.7344 -0.7015
  515MOL0     C69409   8.293   9.641   7.052 -0.2344 -0.4121 -0.4976
  515MOL0     C69410   8.435   9.597   7.023 -1.2118 -0.4573  0.2202
  515MOL0     C69411   8.495   9.674   6.906 -0.7945  0.4018  0.3606
  515MOL0     C69412   8.518   9.827   6.930  0.2250  0.2224  0.6736
  515MOL0     C69413   8.663   9.867   6.904  0.1549 -1.1521  0.7246
  515MOL0     O69414   8.668  10.012   6.909 -0.0154 -0.6791 -0.7504
  515MOL0     C69415   8.608  10.101   6.820 -0.2257 -0.5696 -0.0891
  515MOL0     C69416   8.615  10.244   6.835 -0.2827 -0.0526  0.1784
  515MOL0     C69417   8.553  10.324   6.744  0.3882 -1.4584  0.5342
  515MOL0     C69418   8.483  10.277   6.634  0.0961 -0.3569  0.2455
  515MOL0     C69419   8.428  10.370   6.530 -0.2204  0.1123 -0.5941
  515MOL0     O69420   8.333  10.316   6.450  0.2384  0.8436  0.3266
  515MOL0     C69421   8.319  10.357   6.325 -0.6166  0.0294 -0.3957
  515MOL0     C69422   8.256  10.478   6.294  0.4102  1.4963  0.2334
  515MOL0     C69423   8.250  10.521   6.161 -0.3501  0.1887  0.4601
  515MOL0     C69424   8.309  10.447   6.054 -0.0031  0.8035 -0.4187
  515MOL0     O69425   8.335  10.500   5.928 -0.6061 -0.1532 -0.3323
  515MOL0     C69426   8.228  10.587   5.876 -0.1075  0.4898 -0.5951
  515MOL0     C69427   8.240  10.598   5.724 -0.6708  0.6726  0.1479
  515MOL0     C69428   8.226  10.451   5.648 -0.7978 -0.0702 -0.5426
  515MOL0     C69429   8.081  10.411   5.598 -0.1296  0.0500  0.0720
  515MOL0     C69430   8.085  10.279   5.525 -0.4735 -0.3805 -0.2016
  515MOL0     C69431   7.954  10.241   5.454  0.0597 -0.1395 -0.4272
  515MOL0     C69432   7.956  10.108   5.380 -0.4005  0.9955 -0.2983
  515MOL0     C69433   7.951   9.984   5.472  0.1515 -0.2393  0.1682
  515MOL0    Cl69434   7.983   9.839   5.369  0.4908  0.0033 -0.1182
  515MOL0     C69435   8.368  10.324   6.095 -0.9949 -0.1437  0.5821
  515MOL0     C69436   8.374  10.282   6.229  0.7528 -0.1262 -0.6554
  515MOL0     O69437   8.493  10.475   6.514 -0.1587  0.0563 -0.3140
  515MOL0     C69438   8.480  10.141   6.615 -0.6824  0.6129  0.1171
  515MOL0     C69439   8.550  10.054   6.705 -0.1656  0.3056  0.5821
  515MOL0     N69440   8.231   9.614   7.166 -0.1025  0.7583  0.0340
  515MOL0     N69441   8.111   9.646   7.157  0.2357  0.9975 -0.2663
  515MOL0     C69442   7.055  10.146   6.776 -0.0368 -0.3928 -0.7408
  515MOL0     C69443   6.945  10.132   6.861 -0.5481 -0.6766  0.2085
  515MOL0     C69444   6.701  10.157   7.224 -0.0444 -1.0686 -0.2591
  515MOL0     C69445   6.647  10.288   7.259 -0.3543  0.3735  0.3461
  515MOL0     C69446   6.530  10.299   7.331  0.6696 -0.2731 -0.2999
  515MOL0     C69447   6.470  10.192   7.384  0.8768  0.3552  0.9378
  515MOL0     O69448   6.352  10.207   7.457 -0.2503 -0.0928  0.4055
  515MOL0     C69449   6.305  10.334   7.486  0.2435 -0.2336 -0.9855
  515MOL0     C69450   6.183  10.309   7.573  0.4837 -0.5010  0.3195
  515MOL0     C69451   6.057  10.264   7.490  0.3980  0.8801 -0.0267
  515MOL0     C69452   5.933  10.320   7.561 -0.4144  0.2438  0.0317
  515MOL0     C69453   5.818  10.242   7.518 -1.2652  0.3475 -0.3632
  515MOL0     C69454   5.711  10.199   7.474  0.3897 -0.5258 -0.2144
  515MOL0     C69455   6.527  10.068   7.364  0.4410 -0.7286  0.6372
  515MOL0     C69456   6.639  10.044   7.284 -0.3645  0.6413  0.8399
  515MOL0     C69457   6.679   9.898   7.264 -0.7911  1.2863 -0.3522
  515MOL0     H69458   7.093   9.889   7.064 -0.6117 -0.6177  0.9271
  515MOL0     H69459   7.250   9.890   6.893  2.4053  2.0775  0.9527
  515MOL0     H69460   7.353  10.212   6.609  1.1148 -1.0435 -1.3743
  515MOL0     H69461   7.349  10.232   6.783  2.1005 -0.5946  0.4405
  515MOL0     H69462   7.556  10.136   6.620  1.2674  1.5153  0.0320
  515MOL0     H69463   7.480   9.990   6.695 -4.4119  0.2980 -1.3154
  515MOL0     H69464   7.506  10.066   6.917 -1.1000 -0.8682 -1.3198
  515MOL0     H69465   7.571  10.225   6.869  2.9685  0.4918 -1.7406
  515MOL0     H69466   7.765  10.119   6.763 -0.2986 -0.8293 -1.5039
  515MOL0     H69467   7.755  10.097   6.942 -1.8513  2.2857  0.3481
  515MOL0     H69468   7.698   9.854   6.907 -0.2631  0.9848 -0.3920
  515MOL0     H69469   7.660   9.885   6.741 -2.9470 -1.2872  2.2766
  515MOL0     H69470   7.871   9.848   6.675  0.0268  2.3086 -0.8881
  515MOL0     H69471   7.928   9.962   6.804 -1.4929  0.8028  1.1416
  515MOL0     H69472   8.004   9.715   6.795 -1.3570  0.8274 -1.7253
  515MOL0     H69473   7.840   9.683   6.863 -0.8443  1.9957  0.9429
  515MOL0     H69474   7.997   9.892   7.005 -0.8354  0.1494  1.3706
  515MOL0     H69475   7.893   9.770   7.073  2.0726  0.4435  1.1373
  515MOL0     H69476   8.219   9.727   6.866  1.8629  0.1006 -0.2549
  515MOL0     H69477   8.501   9.603   7.110  0.7893  1.4727 -1.2936
  515MOL0     H69478   8.431   9.491   6.999  0.7587 -0.4801 -0.1930
  515MOL0     H69479   8.583   9.625   6.864 -0.3687  1.7883 -0.4540
  515MOL0     H69480   8.428   9.666   6.819 -0.0684  0.1052 -0.1797
  515MOL0     H69481   8.489   9.849   7.033 -3.8497  1.4993 -0.5631
  515MOL0     H69482   8.446   9.888   6.875 -3.0796 -0.1544  4.1371
  515MOL0     H69483   8.676   9.839   6.799 -0.3035 -0.1101  0.3809
  515MOL0     H69484   8.734   9.822   6.973 -0.9048 -0.6780  2.1885
  515MOL0     H69485   8.667  10.278   6.923 -0.2865  2.4334 -0.6893
  515MOL0     H69486   8.548  10.429   6.769 -2.6249 -0.8984 -1.8864
  515MOL0     H69487   8.230  10.536   6.381  2.3372  1.2278  1.0305
  515MOL0     H69488   8.226  10.624   6.138  2.8225  1.2519  1.4290
  515MOL0     H69489   8.128  10.550   5.901 -0.8063  1.5008 -1.7712
  515MOL0     H69490   8.238  10.684   5.924  2.3770 -1.0189  2.2573
  515MOL0     H69491   8.167  10.671   5.686 -1.5081 -0.2589 -0.0889
  515MOL0     H69492   8.339  10.636   5.698  0.2224 -1.2625  0.5709
  515MOL0     H69493   8.287  10.472   5.560  1.9663 -0.4645  1.1371
  515MOL0     H69494   8.269  10.379   5.719  0.1430  3.3436  2.6975
  515MOL0     H69495   8.033  10.484   5.532  2.5075  1.9192  0.0644
  515MOL0     H69496   8.018  10.407   5.687 -0.0665 -0.7192  0.0909
  515MOL0     H69497   8.092  10.219   5.616 -0.0866  3.5982  2.6887
  515MOL0     H69498   8.172  10.271   5.460  0.2130 -1.9200  0.8615
  515MOL0     H69499   7.873  10.230   5.527 -0.4615 -1.0688 -1.1248
  515MOL0     H69500   7.932  10.324   5.387  1.4338  1.7053  1.2654
  515MOL0     H69501   8.052  10.109   5.328 -0.4978  0.2240 -0.5115
  515MOL0     H69502   7.868  10.095   5.315 -1.5325 -0.7402  1.4530
  515MOL0     H69503   8.029   9.986   5.548  0.5137  0.3357 -0.2063
  515MOL0     H69504   7.853   9.973   5.519  0.0032  2.7753  0.7578
  515MOL0     H69505   8.419  10.257   6.027 -0.2336  1.6405 -0.6523
  515MOL0     H69506   8.438  10.202   6.263 -0.2341 -0.3261  0.8158
  515MOL0     H69507   8.431  10.099   6.528  1.0323 -1.9549  0.2844
  515MOL0     H69508   8.541   9.948   6.680 -0.0410  0.6532 -1.0338
  515MOL0     H69509   7.063  10.212   6.691  3.0401 -1.2932 -1.2888
  515MOL0     H69510   6.859  10.196   6.846  0.8227  0.5564 -3.5741
  515MOL0     H69511   6.704  10.373   7.225 -2.8538  1.9477 -0.1985
  515MOL0     H69512   6.490  10.400   7.338 -1.9681 -1.2702  0.1743
  515MOL0     H69513   6.261  10.382   7.398 -2.9348 -0.8489  0.1379
  515MOL0     H69514   6.376  10.403   7.532  0.7752 -2.3114  1.5287
  515MOL0     H69515   6.166  10.407   7.619  0.2717 -1.2486  1.8730
  515MOL0     H69516   6.206  10.234   7.649 -1.3144 -1.7633 -0.3211
  515MOL0     H69517   6.059  10.155   7.479  0.9501  0.8378  0.4540
  515MOL0     H69518   6.067  10.311   7.392  0.3094 -0.6838 -0.8220
  515MOL0     H69519   5.940  10.315   7.670 -1.6892  1.3333  0.1831
  515MOL0     H69520   5.928  10.423   7.525  3.1280  0.6620  0.4188
  515MOL0     H69521   5.626  10.163   7.420  1.9337 -1.4833 -2.1294
  515MOL0     H69522   6.488   9.984   7.421 -0.0710  0.5050  2.1627
  515MOL0     H69523   6.593   9.844   7.305 -0.6857  3.9218  4.0753
  515MOL0     H69524   6.694   9.863   7.162 -2.5329  0.1541 -0.2647
  515MOL0     H69525   6.762   9.876   7.331 -0.7369  1.2817 -0.4220
  516MOL0     O69526   5.002   6.676   3.321 -0.5527  0.6219 -0.2917
  516MOL0     C69527   4.898   6.616   3.321 -0.5902  0.6662  0.3428
  516MOL0     O69528   4.840   6.564   3.200  0.3256  0.6937  0.7655
  516MOL0     C69529   4.878   6.612   3.072 -0.5559 -0.3364 -0.7306
  516MOL0     C69530   4.844   6.532   2.964 -0.0013 -0.2614  0.4021
  516MOL0     C69531   4.872   6.570   2.830  0.0053  0.8996 -0.1594
  516MOL0     C69532   4.955   6.684   2.815 -0.9204  0.1820  0.3747
  516MOL0     O69533   4.986   6.715   2.680 -0.7121  0.1522 -0.3080
  516MOL0     C69534   5.121   6.760   2.670 -0.0509 -0.1564  0.2807
  516MOL0     C69535   5.224   6.658   2.714  0.5517  0.6020  0.5763
  516MOL0     C69536   5.362   6.652   2.631  0.3869  1.0575 -0.1686
  516MOL0     C69537   5.431   6.786   2.625 -0.3292  0.2581 -0.4356
  516MOL0     C69538   5.567   6.758   2.550 -0.4191  0.1424  0.5444
  516MOL0     C69539   5.654   6.885   2.553 -0.2477 -0.6123 -0.8417
  516MOL0     C69540   5.779   6.865   2.471 -0.0454 -0.4965 -0.6216
  516MOL0     C69541   5.878   6.987   2.480  0.6960 -0.6128 -0.0724
  516MOL0     N69542   5.934   7.007   2.616 -0.3415 -0.1654  0.2717
  516MOL0     C69543   6.022   7.109   2.649  0.1376 -0.0357 -0.9712
  516MOL0     C69544   6.071   7.074   2.771 -0.1429 -0.7274 -0.7559
  516MOL0     C69545   6.160   7.145   2.866 -0.0130 -0.6041 -0.1728
  516MOL0     C69546   6.088   7.254   2.952 -0.5365  0.4390 -0.1326
  516MOL0     C69547   6.097   7.394   2.886  0.3602  0.0277  0.4181
  516MOL0     C69548   5.994   7.488   2.961  0.0446  0.4217 -0.0839
  516MOL0     O69549   5.997   7.609   2.883 -0.3212  0.1525  0.1916
  516MOL0     C69550   5.891   7.699   2.890  0.3800  0.3566  0.3180
  516MOL0     C69551   5.769   7.659   2.855 -0.7165  0.5359  0.3306
  516MOL0     C69552   5.663   7.747   2.845 -0.8290 -0.4536  0.5827
  516MOL0     C69553   5.683   7.884   2.864 -0.4704  0.7356  0.0294
  516MOL0     C69554   5.574   7.984   2.839  0.4014 -0.4644 -0.1200
  516MOL0     O69555   5.555   8.073   2.936  0.2608  0.3464  0.8318
  516MOL0     C69556   5.467   8.178   2.905 -0.0228  0.0347 -0.1699
  516MOL0     C69557   5.337   8.174   2.930 -0.5643 -0.0296 -1.0418
  516MOL0     C69558   5.259   8.287   2.916  0.6666  0.5819 -0.6423
  516MOL0     C69559   5.306   8.415   2.888  0.3997  0.8913 -1.2815
  516MOL0     O69560   5.230   8.530   2.879 -0.3826  0.1639  0.6889
  516MOL0     C69561   5.091   8.525   2.849  0.4073  0.1129  0.0872
  516MOL0     C69562   5.005   8.537   2.985  0.1218  0.1836 -0.7400
  516MOL0     C69563   4.849   8.556   2.971 -0.8512  0.6311  0.0941
  516MOL0     C69564   4.778   8.434   2.908  0.5781  0.1698  0.6192
  516MOL0     C69565   4.629   8.432   2.915 -0.6239 -0.4121 -0.0045
  516MOL0     C69566   4.556   8.474   2.793  0.4951 -0.2375  0.4241
  516MOL0     C69567   4.595   8.393   2.668  0.0847  0.3637 -0.1739
  516MOL0     C69568   4.504   8.395   2.549  0.0528 -0.2396  0.3316
  516MOL0    Cl69569   4.571   8.269   2.430  0.4976 -0.0821 -0.4159
  516MOL0     C69570   5.445   8.418   2.856  0.1270  0.7422  0.7484
  516MOL0     C69571   5.525   8.299   2.873  0.3392  0.7941  1.4632
  516MOL0     O69572   5.516   7.972   2.736 -0.2364  0.0991  0.2713
  516MOL0     C69573   5.814   7.923   2.892 -0.4142  0.1043  0.1624
  516MOL0     C69574   5.923   7.831   2.900  0.4119  0.0317 -0.4499
  516MOL0     N69575   6.046   6.942   2.798  0.7519  0.3207 -0.0924
  516MOL0     N69576   5.952   6.906   2.712 -0.8792 -0.6003 -0.5044
  516MOL0     C69577   4.982   6.768   2.930 -0.1370  0.5692  0.3359
  516MOL0     C69578   4.939   6.735   3.052  0.1657 -0.4764 -0.6632
  516MOL0     C69579   4.832   6.570   3.444 -0.2471  1.5081 -0.2565
  516MOL0     C69580   4.712   6.505   3.434 -0.2222 -0.2473  0.0939
  516MOL0     C69581   4.639   6.452   3.539 -0.1784  0.2361  0.1995
  516MOL0     C69582   4.687   6.483   3.670  0.6160 -0.1277  0.1264
  516MOL0     O69583   4.612   6.440   3.778  0.4517  0.2099  0.7044
  516MOL0     C69584   4.578   6.544   3.865  0.6967 -0.6678 -0.0868
  516MOL0     C69585   4.429   6.529   3.896 -0.2533 -0.1007 -1.0983
  516MOL0     C69586   4.371   6.647   3.969 -0.0613 -0.1795  0.2825
  516MOL0     C69587   4.254   6.588   4.053 -0.9104 -0.4884 -0.7051
  516MOL0     C69588   4.143   6.545   3.963 -0.6074 -0.1228 -0.2995
  516MOL0     C69589   4.058   6.507   3.887  0.6655  0.7479  0.7067
  516MOL0     C69590   4.812   6.548   3.685  0.2591 -1.1156  0.0087
  516MOL0     C69591   4.895   6.578   3.576 -0.2970 -0.1833  0.0936
  516MOL0     C69592   5.042   6.616   3.590  0.3129 -0.2463 -0.0656
  516MOL0     H69593   4.786   6.443   2.987 -1.4702  0.2315 -1.1542
  516MOL0     H69594   4.846   6.502   2.749  1.1084 -1.1093  1.0947
  516MOL0     H69595   5.135   6.782   2.563  3.3444 -0.3834  0.5757
  516MOL0     H69596   5.140   6.857   2.715  0.3382 -0.9879  1.9841
  516MOL0     H69597   5.180   6.561   2.688  1.6805  0.4104 -0.7592
  516MOL0     H69598   5.243   6.658   2.821  1.6867 -0.4272  0.3951
  516MOL0     H69599   5.351   6.612   2.530  2.3470  3.7368 -1.5778
  516MOL0     H69600   5.438   6.584   2.670  0.3704  1.0320 -0.1801
  516MOL0     H69601   5.372   6.863   2.574  0.4562  1.9733  1.1160
  516MOL0     H69602   5.456   6.810   2.729 -0.2345 -3.9040  0.6848
  516MOL0     H69603   5.621   6.675   2.596 -1.2159 -0.1833  0.8994
  516MOL0     H69604   5.537   6.731   2.448 -1.5989 -2.2483  1.4572
  516MOL0     H69605   5.605   6.973   2.510  1.0284  1.1043  0.9857
  516MOL0     H69606   5.689   6.911   2.653  4.7845 -2.7425 -1.7055
  516MOL0     H69607   5.744   6.835   2.372 -2.9414 -1.9130  0.7191
  516MOL0     H69608   5.842   6.781   2.502  1.2174  1.0244  1.2373
  516MOL0     H69609   5.966   6.959   2.421  0.9050 -4.0194  1.6534
  516MOL0     H69610   5.836   7.079   2.438  2.5636 -1.0527 -3.2672
  516MOL0     H69611   6.043   7.200   2.594 -1.9914 -0.4240 -2.5903
  516MOL0     H69612   6.195   7.068   2.936 -1.3923 -1.7399 -0.6767
  516MOL0     H69613   6.246   7.194   2.820  1.4050 -0.4773  2.4655
  516MOL0     H69614   5.988   7.212   2.965 -0.1629 -0.6290 -0.5643
  516MOL0     H69615   6.120   7.259   3.056 -0.0194  4.2194 -0.3246
  516MOL0     H69616   6.086   7.391   2.777  0.4673 -1.7891  0.4383
  516MOL0     H69617   6.203   7.419   2.897  1.0121 -2.7786  1.4283
  516MOL0     H69618   6.021   7.510   3.065 -0.9809  1.2461  0.0231
  516MOL0     H69619   5.901   7.429   2.960 -0.0825  0.6220 -0.1887
  516MOL0     H69620   5.757   7.555   2.826 -1.7756  0.3521  1.3575
  516MOL0     H69621   5.573   7.705   2.804  0.6072 -2.0414 -1.1044
  516MOL0     H69622   5.293   8.080   2.960  1.3017 -0.7303 -0.3662
  516MOL0     H69623   5.152   8.281   2.933  0.8941  0.5063  0.8793
  516MOL0     H69624   5.079   8.613   2.785  0.5628  0.0735  0.0036
  516MOL0     H69625   5.077   8.431   2.796  0.6077  0.1205  0.0209
  516MOL0     H69626   5.012   8.442   3.039 -0.8836 -0.7912 -2.2561
  516MOL0     H69627   5.046   8.613   3.051 -2.4638  0.8457  0.2311
  516MOL0     H69628   4.792   8.576   3.063 -2.1046  2.5992 -1.0286
  516MOL0     H69629   4.829   8.636   2.900 -0.3814  2.0008  1.4395
  516MOL0     H69630   4.817   8.350   2.966 -0.1201 -2.2691 -2.2242
  516MOL0     H69631   4.808   8.416   2.805 -0.3319  0.6288  0.2613
  516MOL0     H69632   4.603   8.498   2.999  0.8581 -2.6744  2.3878
  516MOL0     H69633   4.589   8.333   2.940  0.9789 -0.6904  1.6707
  516MOL0     H69634   4.446   8.476   2.801  0.1888 -2.1072 -2.0395
  516MOL0     H69635   4.598   8.574   2.780  0.6012 -0.2148  0.9325
  516MOL0     H69636   4.599   8.286   2.691 -0.0938  0.3038 -0.4285
  516MOL0     H69637   4.694   8.426   2.635  0.8023 -0.6736  0.8717
  516MOL0     H69638   4.403   8.370   2.583  0.3314 -0.4720  1.0029
  516MOL0     H69639   4.501   8.490   2.494  1.0926 -0.1046  0.4894
  516MOL0     H69640   5.496   8.513   2.845  0.0141  0.5609 -2.0847
  516MOL0     H69641   5.632   8.320   2.868  0.2985  0.7566  0.1201
  516MOL0     H69642   5.837   8.025   2.921  1.7249 -0.6071  1.2291
  516MOL0     H69643   6.020   7.870   2.931 -0.4076 -0.3219  2.9161
  516MOL0     H69644   5.044   6.856   2.909  1.0148 -0.8654 -3.0523
  516MOL0     H69645   4.955   6.816   3.122 -0.2719  0.2467 -1.3819
  516MOL0     H69646   4.682   6.481   3.332  0.6946 -2.0073  0.1879
  516MOL0     H69647   4.553   6.388   3.523  0.7558 -1.4021  1.4362
  516MOL0     H69648   4.585   6.643   3.818 -1.3745 -1.1672 -1.5928
  516MOL0     H69649   4.639   6.548   3.956  2.1215  3.0194 -1.0030
  516MOL0     H69650   4.418   6.434   3.949 -0.7953  2.0781  3.1169
  516MOL0     H69651   4.381   6.517   3.799 -0.9978 -3.6931 -0.4210
  516MOL0     H69652   4.335   6.728   3.905  1.6725  0.3634 -0.0458
  516MOL0     H69653   4.444   6.688   4.038  0.9881 -2.5822  0.6807
  516MOL0     H69654   4.288   6.508   4.119  2.3899  2.0733  1.0300
  516MOL0     H69655   4.209   6.658   4.123  0.6762 -0.6397  0.5186
  516MOL0     H69656   3.996   6.500   3.800  3.0356 -2.0021 -0.9295
  516MOL0     H69657   4.851   6.561   3.785  0.2543  0.4533 -0.1786
  516MOL0     H69658   5.108   6.558   3.525 -0.1597 -0.1426 -0.6502
  516MOL0     H69659   5.068   6.720   3.569 -2.2311  0.9084  1.8585
  516MOL0     H69660   5.084   6.603   3.691  2.6197  1.7586 -0.6760
  517MOL0     O69661   0.317   7.195   7.525  0.1044  0.7360  0.2080
  517MOL0     C69662   0.393   7.109   7.569  0.7602  0.1709 -0.2187
  517MOL0     O69663   0.375   6.969   7.571  0.3568  0.2361  0.2012
  517MOL0     C69664   0.260   6.926   7.507  0.4272  0.0068  0.8802
  517MOL0     C69665   0.257   6.896   7.374  0.4663 -0.0472 -0.9851
  517MOL0     C69666   0.145   6.825   7.316  1.1354 -0.1170  0.2222
  517MOL0     C69667   0.030   6.789   7.392 -0.6887 -0.8103  0.2533
  517MOL0     O69668  -0.076   6.722   7.338 -0.0361  0.1231  0.0976
  517MOL0     C69669  -0.117   6.607   7.409  0.2679 -0.0743 -0.3601
  517MOL0     C69670  -0.229   6.545   7.326 -1.1787 -0.9830 -0.5214
  517MOL0     C69671  -0.167   6.473   7.203  0.2630 -0.0893  0.4750
  517MOL0     C69672  -0.299   6.438   7.116 -0.3981  0.3478 -0.4546
  517MOL0     C69673  -0.269   6.360   6.993  0.6518 -0.8234 -0.0812
  517MOL0     C69674  -0.400   6.332   6.916  0.2598 -0.1106 -0.4380
  517MOL0     C69675  -0.368   6.258   6.791  0.0506  0.5981 -0.1035
  517MOL0     C69676  -0.336   6.371   6.688 -0.0785  0.5190 -0.1999
  517MOL0     N69677  -0.322   6.330   6.549  1.0196 -0.3383 -0.2198
  517MOL0     C69678  -0.220   6.256   6.499  0.0803 -0.3564 -0.0156
  517MOL0     C69679  -0.233   6.287   6.363 -1.1628  0.4599  0.5536
  517MOL0     C69680  -0.140   6.236   6.258  0.8670  0.2440 -0.3056
  517MOL0     C69681   0.000   6.286   6.276  0.0004 -0.7595  0.3527
  517MOL0     C69682   0.086   6.258   6.163  0.5114  0.6229 -0.2389
  517MOL0     C69683   0.229   6.302   6.191 -0.1163  0.2519  0.1991
  517MOL0     O69684   0.312   6.246   6.088  0.1797 -0.0648 -0.1062
  517MOL0     C69685   0.448   6.269   6.083  0.2187 -0.4201 -0.3376
  517MOL0     C69686   0.513   6.373   6.157 -0.4909  0.3579  0.7977
  517MOL0     C69687   0.651   6.389   6.155 -0.8845  0.8759  0.7393
  517MOL0     C69688   0.732   6.305   6.083 -0.3992  1.0391  0.2355
  517MOL0     C69689   0.884   6.317   6.081  0.3103  0.5845 -0.2945
  517MOL0     O69690   0.950   6.192   6.050  0.0159 -0.2432 -0.1855
  517MOL0     C69691   1.091   6.178   6.031 -0.0901 -0.4574  0.6169
  517MOL0     C69692   1.172   6.275   5.982 -0.1641  0.0830 -0.2210
  517MOL0     C69693   1.309   6.258   5.974  0.6781 -0.2504  0.1183
  517MOL0     C69694   1.368   6.146   6.014  0.2390  1.0496  0.6634
  517MOL0     O69695   1.500   6.135   5.982 -0.4475  0.0033 -0.7761
  517MOL0     C69696   1.568   6.008   6.018 -1.1734  0.6662 -0.8594
  517MOL0     C69697   1.715   6.019   5.964 -0.6469  0.2794 -0.0397
  517MOL0     C69698   1.811   6.099   6.054  0.1251 -0.9148  0.3472
  517MOL0     C69699   1.763   6.241   6.082  0.3826  0.1099 -0.4227
  517MOL0     C69700   1.869   6.320   6.152 -0.1051  0.0856  0.3623
  517MOL0     C69701   1.916   6.292   6.296 -0.0107 -0.6514  0.1938
  517MOL0     C69702   2.065   6.317   6.301 -0.9235  0.9287  0.4122
  517MOL0     C69703   2.124   6.314   6.439 -0.1073 -0.4189  0.0232
  517MOL0    Cl69704   2.083   6.469   6.513 -0.2917  0.1700 -0.4753
  517MOL0     C69705   1.287   6.048   6.081  0.3448  0.3602  0.4576
  517MOL0     C69706   1.151   6.071   6.089 -0.0992 -0.0831 -0.1893
  517MOL0     O69707   0.940   6.429   6.102 -0.0031  0.1362  0.5995
  517MOL0     C69708   0.670   6.203   6.008 -0.9897 -0.4036 -0.2536
  517MOL0     C69709   0.534   6.200   5.997  0.3454  0.8997  0.4634
  517MOL0     N69710  -0.345   6.369   6.342 -0.2270  0.4845 -0.4757
  517MOL0     N69711  -0.397   6.385   6.451  0.0761  0.6955 -0.2393
  517MOL0     C69712   0.039   6.819   7.530  0.0592  0.6681  0.3788
  517MOL0     C69713   0.146   6.894   7.586  0.0847 -0.3726 -0.0878
  517MOL0     C69714   0.519   7.160   7.632 -0.2388 -0.0706  0.1173
  517MOL0     C69715   0.567   7.086   7.736 -0.3328  0.1271  0.0567
  517MOL0     C69716   0.690   7.113   7.787 -0.1276 -0.4214 -0.1564
  517MOL0     C69717   0.769   7.214   7.733  0.2961  0.4538 -0.0865
  517MOL0     O69718   0.897   7.214   7.787  0.4494 -0.3210  0.7153
  517MOL0     C69719   0.997   7.280   7.715  0.2739  0.4222  0.0696
  517MOL0     C69720   1.094   7.315   7.822 -0.6535 -0.0750 -0.1695
  517MOL0     C69721   1.168   7.190   7.874  0.2240  0.8403 -0.0515
  517MOL0     C69722   1.265   7.241   7.979 -0.7275 -0.2828  0.3624
  517MOL0     C69723   1.213   7.319   8.091 -0.6904 -0.1143 -0.4035
  517MOL0     C69724   1.187   7.388   8.189 -1.3070 -0.2428  0.0712
  517MOL0     C69725   0.716   7.292   7.631 -0.3431  0.0459 -0.2038
  517MOL0     C69726   0.591   7.275   7.578  1.2848 -0.9796  0.7256
  517MOL0     C69727   0.522   7.364   7.475 -0.4042  0.3494  0.0238
  517MOL0     H69728   0.337   6.926   7.307  0.3201  0.0019 -1.1395
  517MOL0     H69729   0.147   6.812   7.209 -1.1704  0.8240 -0.0085
  517MOL0     H69730  -0.043   6.528   7.425  0.4647  0.1357 -0.2291
  517MOL0     H69731  -0.163   6.634   7.505 -1.2032 -1.7040 -0.5574
  517MOL0     H69732  -0.281   6.628   7.278  4.2666  2.6670 -1.0849
  517MOL0     H69733  -0.305   6.491   7.384 -0.9987 -0.3052  0.3683
  517MOL0     H69734  -0.114   6.383   7.237  1.2496  0.1711 -0.3240
  517MOL0     H69735  -0.092   6.534   7.151 -0.5028  1.5602  1.2358
  517MOL0     H69736  -0.372   6.391   7.183 -0.9674  0.6784 -0.8335
  517MOL0     H69737  -0.352   6.530   7.087  2.2652  2.6604  1.4399
  517MOL0     H69738  -0.191   6.412   6.935  1.7878 -1.6975  0.6121
  517MOL0     H69739  -0.219   6.268   7.025  1.4520 -0.7394 -1.0187
  517MOL0     H69740  -0.466   6.276   6.983  1.1230 -2.1015 -1.1543
  517MOL0     H69741  -0.463   6.420   6.901 -0.5657 -0.3874  1.1245
  517MOL0     H69742  -0.457   6.200   6.765 -1.7684  4.1839 -2.9506
  517MOL0     H69743  -0.282   6.193   6.807  0.7385  1.6599  0.6730
  517MOL0     H69744  -0.420   6.441   6.689  0.8925  1.7468 -1.3563
  517MOL0     H69745  -0.247   6.429   6.714  1.1988 -0.8077 -1.3687
  517MOL0     H69746  -0.138   6.199   6.543  1.4969  0.8112 -1.0268
  517MOL0     H69747  -0.147   6.126   6.259  0.7206  0.2327 -1.3597
  517MOL0     H69748  -0.186   6.268   6.164 -2.0969 -2.6174 -0.0147
  517MOL0     H69749   0.002   6.395   6.279 -2.6823 -0.6703  0.8663
  517MOL0     H69750   0.040   6.245   6.369 -0.2561 -0.5709  0.5469
  517MOL0     H69751   0.057   6.312   6.073 -2.3779 -0.3246  0.0349
  517MOL0     H69752   0.080   6.153   6.133 -1.0195  0.6156  0.0300
  517MOL0     H69753   0.260   6.266   6.289 -0.2739  0.6099  0.3851
  517MOL0     H69754   0.235   6.412   6.191 -2.5800  0.4720 -1.2117
  517MOL0     H69755   0.448   6.427   6.225 -1.6484 -0.2104  0.1703
  517MOL0     H69756   0.692   6.464   6.222 -0.2759  0.7480  0.5189
  517MOL0     H69757   1.133   6.370   5.945  2.5746  1.5180  0.2666
  517MOL0     H69758   1.368   6.339   5.931  1.5924 -0.8411  0.2561
  517MOL0     H69759   1.564   5.985   6.125 -1.5975  0.4720 -0.9114
  517MOL0     H69760   1.516   5.928   5.965 -2.1008  1.7918 -1.7120
  517MOL0     H69761   1.746   5.915   5.956 -0.0747  0.6047 -2.8120
  517MOL0     H69762   1.718   6.059   5.862  3.4225  1.3416  0.3492
  517MOL0     H69763   1.816   6.041   6.147  0.5445 -2.7643 -0.7650
  517MOL0     H69764   1.909   6.104   6.007 -0.1703  1.5582 -0.0964
  517MOL0     H69765   1.671   6.232   6.142 -0.0013  0.1307 -1.0021
  517MOL0     H69766   1.736   6.299   5.993 -2.2658  0.5082  0.5245
  517MOL0     H69767   1.843   6.426   6.160 -1.9496 -0.4539  2.6385
  517MOL0     H69768   1.957   6.316   6.088  2.2776 -3.1818  3.4514
  517MOL0     H69769   1.863   6.363   6.361 -3.4640 -0.4931 -2.5083
  517MOL0     H69770   1.887   6.190   6.324 -1.8092 -1.1624 -3.1031
  517MOL0     H69771   2.097   6.410   6.253  0.2710  0.0489 -0.5661
  517MOL0     H69772   2.099   6.235   6.237  0.3285  0.4931  1.5947
  517MOL0     H69773   2.097   6.226   6.498  1.2941 -0.3284  0.8590
  517MOL0     H69774   2.233   6.309   6.427 -0.1297 -0.6016 -0.0986
  517MOL0     H69775   1.311   5.953   6.127  1.7790  0.7010  0.4603
  517MOL0     H69776   1.084   6.009   6.148 -2.8153  1.6265 -1.2747
  517MOL0     H69777   0.733   6.145   5.941  0.0765  3.0363 -2.5193
  517MOL0     H69778   0.482   6.129   5.934  0.4870 -1.6618  3.0177
  517MOL0     H69779  -0.036   6.784   7.600  1.0839  0.1310  1.2382
  517MOL0     H69780   0.133   6.922   7.690  1.4031  2.8231 -0.6736
  517MOL0     H69781   0.515   7.009   7.792  1.1874  1.3747  3.4054
  517MOL0     H69782   0.726   7.037   7.856 -2.6754  0.6410  2.5809
  517MOL0     H69783   0.972   7.367   7.654 -1.0741  0.6754  0.9548
  517MOL0     H69784   1.039   7.209   7.643 -0.0475  1.4618 -1.1754
  517MOL0     H69785   1.037   7.357   7.905  1.2264  0.4545  0.9126
  517MOL0     H69786   1.159   7.389   7.775 -2.8567  2.2912  0.2980
  517MOL0     H69787   1.227   7.139   7.797  1.3382  2.5394 -0.3893
  517MOL0     H69788   1.102   7.116   7.919  2.8071 -2.2456 -0.9949
  517MOL0     H69789   1.313   7.152   8.019 -4.4314 -2.0128  1.4393
  517MOL0     H69790   1.331   7.308   7.923 -3.0914  0.4605 -1.7825
  517MOL0     H69791   1.164   7.457   8.268  0.4260 -2.3508  2.5820
  517MOL0     H69792   0.780   7.365   7.582  0.3226  0.4729  1.2398
  517MOL0     H69793   0.463   7.313   7.399 -1.2550 -3.9423  3.1660
  517MOL0     H69794   0.447   7.419   7.533  0.7620  0.1108  1.8712
  517MOL0     H69795   0.585   7.436   7.421  1.2576  1.2553  2.9345
  518MOL0     O69796   5.132   5.060   0.023  0.5807 -0.7811 -0.4417
  518MOL0     C69797   5.118   5.111  -0.087 -1.0595 -1.2395 -0.6374
  518MOL0     O69798   5.207   5.092  -0.193  0.1626  0.6869  0.3664
  518MOL0     C69799   5.313   5.016  -0.167 -0.4697 -0.5345 -0.6996
  518MOL0     C69800   5.303   4.873  -0.156  0.5934  0.5146 -0.1377
  518MOL0     C69801   5.406   4.792  -0.104 -0.3071  0.3931  0.4999
  518MOL0     C69802   5.535   4.845  -0.089  0.8137  0.2272 -0.2194
  518MOL0     O69803   5.627   4.761  -0.040 -0.9713  0.7896 -0.5996
  518MOL0     C69804   5.763   4.789  -0.045  0.2793 -0.2744  0.0557
  518MOL0     C69805   5.817   4.651  -0.080 -0.1067 -0.1086 -0.6592
  518MOL0     C69806   5.968   4.645  -0.106 -0.7237 -0.4331 -0.0143
  518MOL0     C69807   6.027   4.738  -0.209 -0.0699 -0.2558  0.6402
  518MOL0     C69808   5.996   4.714  -0.361  0.3297  0.5787 -0.4716
  518MOL0     C69809   6.066   4.804  -0.465 -0.5527  0.2007  0.5822
  518MOL0     C69810   6.015   4.790  -0.609  0.9080 -0.1417 -0.0388
  518MOL0     C69811   6.020   4.646  -0.655  0.9462 -0.1830  0.6213
  518MOL0     N69812   5.989   4.625  -0.800  0.0512 -0.6766 -0.4935
  518MOL0     C69813   5.952   4.725  -0.886 -0.7742  0.3797 -0.9116
  518MOL0     C69814   5.936   4.665  -1.002  0.1415  0.6482 -0.0435
  518MOL0     C69815   5.882   4.710  -1.135 -0.2078  0.5615  0.7589
  518MOL0     C69816   5.800   4.605  -1.214 -0.7454  0.2438 -0.7258
  518MOL0     C69817   5.722   4.674  -1.327  0.6994  0.1709  0.2729
  518MOL0     C69818   5.806   4.725  -1.439 -0.1227 -1.2468  0.2194
  518MOL0     O69819   5.727   4.761  -1.550 -0.2730  0.1608 -0.0942
  518MOL0     C69820   5.792   4.826  -1.650 -0.4104 -0.2364  0.5793
  518MOL0     C69821   5.713   4.895  -1.737  1.1190  0.3568  0.3529
  518MOL0     C69822   5.750   4.976  -1.842 -0.2242  0.2300 -0.6594
  518MOL0     C69823   5.885   4.983  -1.873 -0.9984  0.7125 -0.4161
  518MOL0     C69824   5.928   5.060  -1.988  0.2314  0.6589  0.3145
  518MOL0     O69825   6.044   5.026  -2.054  0.4249  0.8617 -0.5332
  518MOL0     C69826   6.087   5.096  -2.165  0.1290  0.4626  0.9002
  518MOL0     C69827   6.023   5.095  -2.292 -0.0543  0.0929  0.7085
  518MOL0     C69828   6.086   5.154  -2.409  0.0511 -0.0957 -0.0200
  518MOL0     C69829   6.208   5.220  -2.390 -0.1492 -0.2859  0.2899
  518MOL0     O69830   6.283   5.267  -2.492 -0.4090 -0.6393  0.2585
  518MOL0     C69831   6.248   5.246  -2.630 -0.1788  0.5678 -0.1759
  518MOL0     C69832   6.145   5.350  -2.674  0.3284 -0.4049  0.1347
  518MOL0     C69833   6.118   5.336  -2.826 -0.1108 -0.0766  0.1728
  518MOL0     C69834   6.097   5.189  -2.873 -0.1207  0.1683 -0.6655
  518MOL0     C69835   6.061   5.190  -3.021  0.1840 -0.0794  0.7138
  518MOL0     C69836   5.911   5.230  -3.042  0.2369 -0.6516  0.1900
  518MOL0     C69837   5.791   5.177  -2.955 -0.0053 -0.3102 -0.3328
  518MOL0     C69838   5.650   5.216  -3.010  0.3152 -0.8082 -0.2919
  518MOL0    Cl69839   5.624   5.173  -3.183 -0.0374 -0.3803  0.3095
  518MOL0     C69840   6.271   5.222  -2.267  0.5231 -0.3350 -0.4836
  518MOL0     C69841   6.206   5.166  -2.154 -0.7217 -0.7560  0.2514
  518MOL0     O69842   5.862   5.157  -2.026 -0.2729 -1.0179 -0.2369
  518MOL0     C69843   5.975   4.911  -1.788 -0.4486  0.7672 -0.3158
  518MOL0     C69844   5.925   4.837  -1.671  0.0302  0.0379 -0.0886
  518MOL0     N69845   5.986   4.540  -0.987 -0.4138  0.0481  0.2758
  518MOL0     N69846   6.009   4.514  -0.868 -0.4747  0.5427  1.0029
  518MOL0     C69847   5.552   4.987  -0.102 -0.5720  0.7665  0.1764
  518MOL0     C69848   5.446   5.065  -0.153 -0.1881  0.3861 -0.4451
  518MOL0     C69849   4.998   5.195  -0.113 -0.2664 -0.4319 -1.3153
  518MOL0     C69850   4.887   5.176  -0.025  1.1086  0.3050  0.0874
  518MOL0     C69851   4.767   5.242  -0.051 -0.2068  0.4827  0.8977
  518MOL0     C69852   4.744   5.318  -0.161  0.3572  0.8220  0.4902
  518MOL0     O69853   4.618   5.370  -0.173  0.4048 -0.2927 -0.1178
  518MOL0     C69854   4.588   5.463  -0.279 -0.3390  0.1610  0.0015
  518MOL0     C69855   4.439   5.507  -0.283  0.0455  0.0557 -0.4766
  518MOL0     C69856   4.436   5.644  -0.348  0.3496 -0.2128  0.2196
  518MOL0     C69857   4.319   5.738  -0.295 -1.0839 -0.2352 -0.2280
  518MOL0     C69858   4.191   5.664  -0.325 -0.6897  0.1954  0.0441
  518MOL0     C69859   4.080   5.615  -0.316 -0.4286  0.7127 -0.1301
  518MOL0     C69860   4.854   5.341  -0.250 -0.1729 -0.1187 -0.2131
  518MOL0     C69861   4.980   5.282  -0.229 -0.4132  0.7194 -0.2227
  518MOL0     C69862   5.088   5.313  -0.337 -0.0517 -0.5305  0.0643
  518MOL0     H69863   5.212   4.816  -0.167  1.2384 -0.6694  0.4287
  518MOL0     H69864   5.397   4.687  -0.075  3.0946 -1.0516 -2.7974
  518MOL0     H69865   5.782   4.854  -0.130  2.4743 -1.6417 -0.5712
  518MOL0     H69866   5.797   4.836   0.048 -0.2120 -0.8627  0.5390
  518MOL0     H69867   5.766   4.601  -0.162  1.5288 -1.9572 -0.6236
  518MOL0     H69868   5.796   4.595   0.011 -1.1953  0.7651 -0.3471
  518MOL0     H69869   5.995   4.546  -0.144  4.2505  0.1373  1.3103
  518MOL0     H69870   6.020   4.651  -0.009  1.3674 -4.1710 -0.6716
  518MOL0     H69871   6.003   4.843  -0.191 -1.6725 -0.2188 -1.3392
  518MOL0     H69872   6.135   4.740  -0.196 -0.1251 -0.0285  1.0651
  518MOL0     H69873   6.029   4.612  -0.385 -0.2521 -0.0850  1.4056
  518MOL0     H69874   5.887   4.716  -0.360  0.3309  0.6400 -0.4823
  518MOL0     H69875   6.050   4.906  -0.429  0.9371  0.5967  0.1847
  518MOL0     H69876   6.172   4.780  -0.470 -0.9969 -1.9759  0.2610
  518MOL0     H69877   6.078   4.846  -0.679  0.1111  1.3870  0.4238
  518MOL0     H69878   5.914   4.830  -0.598  0.0977 -2.5989  2.6033
  518MOL0     H69879   6.123   4.615  -0.633  1.0228  0.9427  1.9820
  518MOL0     H69880   5.955   4.581  -0.595 -2.6020  2.5815  0.1099
  518MOL0     H69881   5.916   4.823  -0.857  1.3298  1.2666 -1.1033
  518MOL0     H69882   5.816   4.793  -1.112 -0.5868  0.3734  0.3652
  518MOL0     H69883   5.959   4.752  -1.201 -1.5657 -0.5986 -1.7151
  518MOL0     H69884   5.869   4.534  -1.262 -1.6554  0.0384 -1.7694
  518MOL0     H69885   5.730   4.553  -1.148 -0.4969  1.2782  0.3822
  518MOL0     H69886   5.653   4.750  -1.288  1.2711  0.5204  0.6348
  518MOL0     H69887   5.659   4.598  -1.374 -1.6393  1.0780  1.7567
  518MOL0     H69888   5.877   4.650  -1.476  0.8176  0.1807 -0.9778
  518MOL0     H69889   5.870   4.806  -1.401  0.9195 -2.1223  0.3740
  518MOL0     H69890   5.606   4.882  -1.724  0.5477 -0.1754 -3.6230
  518MOL0     H69891   5.680   5.029  -1.907 -1.4164  0.2543  0.6082
  518MOL0     H69892   5.923   5.053  -2.306 -1.0745  2.1432  1.4736
  518MOL0     H69893   6.037   5.136  -2.504  1.9025 -1.5220 -0.7758
  518MOL0     H69894   6.338   5.249  -2.692  1.2274 -2.4428  1.4682
  518MOL0     H69895   6.210   5.146  -2.650 -0.5388  0.3788  1.3520
  518MOL0     H69896   6.053   5.347  -2.616 -0.7811  3.2647 -1.1390
  518MOL0     H69897   6.182   5.451  -2.653  0.6271 -0.7096  1.1748
  518MOL0     H69898   6.035   5.404  -2.849 -2.3926 -3.1484 -1.5016
  518MOL0     H69899   6.199   5.378  -2.887 -0.5457  3.9533  2.0653
  518MOL0     H69900   6.022   5.143  -2.808  1.4589  0.1792  1.2481
  518MOL0     H69901   6.190   5.132  -2.867  1.2057  2.3540  1.3082
  518MOL0     H69902   6.061   5.091  -3.067  0.6811  0.1879  0.1423
  518MOL0     H69903   6.140   5.252  -3.064  0.2775  1.3337  2.7558
  518MOL0     H69904   5.914   5.339  -3.049  0.9230 -0.7024 -0.5801
  518MOL0     H69905   5.890   5.204  -3.146 -0.6248 -0.2537  0.2602
  518MOL0     H69906   5.800   5.211  -2.851  0.0537  0.2772 -0.5268
  518MOL0     H69907   5.790   5.067  -2.955  1.5286 -0.4111  1.9582
  518MOL0     H69908   5.566   5.171  -2.957 -1.4337  3.2901  0.8048
  518MOL0     H69909   5.646   5.322  -2.981  4.8694  0.2423 -2.4511
  518MOL0     H69910   6.365   5.276  -2.258  0.6077 -0.6106  0.3845
  518MOL0     H69911   6.251   5.164  -2.055  0.4884 -2.0828 -0.2861
  518MOL0     H69912   6.081   4.900  -1.812  0.7108 -0.0929  4.2434
  518MOL0     H69913   5.993   4.784  -1.605  0.7768  0.0698 -0.8088
  518MOL0     H69914   5.645   5.042  -0.093 -1.2716  1.9512  0.2797
  518MOL0     H69915   5.461   5.171  -0.165  0.4123  0.1133 -2.4658
  518MOL0     H69916   4.882   5.113   0.063  2.0058  1.1972  0.8057
  518MOL0     H69917   4.686   5.221   0.018  0.0294 -1.4088  0.6329
  518MOL0     H69918   4.614   5.420  -0.377  1.7328 -1.9806  1.3883
  518MOL0     H69919   4.653   5.548  -0.256 -1.7965  1.8078 -1.5557
  518MOL0     H69920   4.415   5.522  -0.177  3.5690 -0.1156  0.4854
  518MOL0     H69921   4.373   5.436  -0.334 -0.3803 -0.6888  1.0214
  518MOL0     H69922   4.426   5.627  -0.456 -0.5081  2.9683 -0.3044
  518MOL0     H69923   4.530   5.699  -0.341  0.9022 -1.0387 -0.4974
  518MOL0     H69924   4.308   5.753  -0.187 -0.9504  0.3858 -0.2945
  518MOL0     H69925   4.322   5.834  -0.348  0.0136 -0.6429 -0.9434
  518MOL0     H69926   3.987   5.576  -0.278 -1.0195  0.7145 -1.5158
  518MOL0     H69927   4.825   5.403  -0.335  2.1280 -1.2686 -1.9229
  518MOL0     H69928   5.060   5.395  -0.403  2.8325  0.5640  0.0356
  518MOL0     H69929   5.178   5.350  -0.287  1.2092 -1.8101 -1.1461
  518MOL0     H69930   5.117   5.223  -0.393 -1.4189 -1.2884  0.5243
  519MOL0     O69931   6.021   4.578   8.804  0.3871  0.2491 -0.3297
  519MOL0     C69932   6.107   4.660   8.792  0.3358  0.1397 -0.7815
  519MOL0     O69933   6.131   4.742   8.691 -0.0634 -0.3200  1.1966
  519MOL0     C69934   6.041   4.764   8.584 -0.1934  1.1853  0.2361
  519MOL0     C69935   5.909   4.784   8.612  0.2400 -0.4080 -0.2462
  519MOL0     C69936   5.807   4.782   8.512  0.2956 -0.7283  0.3503
  519MOL0     C69937   5.847   4.775   8.375  0.1461  0.6827 -0.1977
  519MOL0     O69938   5.753   4.777   8.273 -0.6693  0.7975  0.7093
  519MOL0     C69939   5.749   4.877   8.168  0.0954  0.1081 -0.1810
  519MOL0     C69940   5.781   4.825   8.037 -0.0713  0.2204  0.2741
  519MOL0     C69941   5.665   4.735   7.989 -0.2620  0.1296 -0.2825
  519MOL0     C69942   5.697   4.585   7.996 -0.6348  0.0708 -0.4284
  519MOL0     C69943   5.572   4.507   7.957 -0.9620 -0.7760  0.2932
  519MOL0     C69944   5.608   4.361   7.917  0.0529  0.3245  1.0610
  519MOL0     C69945   5.685   4.353   7.778 -0.6361  0.5142 -1.0868
  519MOL0     C69946   5.605   4.416   7.660  0.1853 -0.8825  0.6753
  519MOL0     N69947   5.461   4.362   7.656  0.4200 -0.2818  0.4727
  519MOL0     C69948   5.426   4.233   7.619  0.9542  0.5019  0.6471
  519MOL0     C69949   5.289   4.240   7.598 -0.5788 -0.6847 -0.5886
  519MOL0     C69950   5.203   4.121   7.557  0.1841 -0.1676 -0.9388
  519MOL0     C69951   5.259   4.045   7.431  0.8469 -0.4522  0.0092
  519MOL0     C69952   5.179   3.922   7.392  0.7503  0.2944  0.4131
  519MOL0     C69953   5.206   3.800   7.475  0.1427 -0.3360  0.2178
  519MOL0     O69954   5.162   3.813   7.604  0.8088 -0.4021 -1.0905
  519MOL0     C69955   5.039   3.760   7.652 -0.2506  0.1964  0.0176
  519MOL0     C69956   5.009   3.765   7.787 -0.9299 -0.7383  0.7252
  519MOL0     C69957   4.886   3.727   7.841 -0.4848  0.1749  0.6004
  519MOL0     C69958   4.781   3.696   7.749 -0.6978  0.3545  0.2356
  519MOL0     C69959   4.649   3.636   7.803 -0.8792  0.3770  0.4826
  519MOL0     O69960   4.641   3.620   7.934  0.3034  0.0055  0.5255
  519MOL0     C69961   4.529   3.655   8.005 -0.4515  0.0577  0.0484
  519MOL0     C69962   4.434   3.752   7.977 -0.3980 -0.5604 -0.5804
  519MOL0     C69963   4.318   3.771   8.056  0.5292  0.1565  1.4794
  519MOL0     C69964   4.309   3.707   8.177  0.8165 -0.0155  0.8219
  519MOL0     O69965   4.204   3.730   8.261  0.6537 -0.0278  0.1165
  519MOL0     C69966   4.131   3.623   8.329 -0.1625  0.3447  0.0415
  519MOL0     C69967   4.069   3.509   8.242  0.5743 -0.1335  0.4495
  519MOL0     C69968   4.014   3.548   8.102 -0.6825  0.3861  0.3859
  519MOL0     C69969   3.896   3.654   8.115 -0.0982 -0.1681 -1.0100
  519MOL0     C69970   3.846   3.680   7.970 -0.4070  0.2008  0.8775
  519MOL0     C69971   3.734   3.781   7.972  0.3532 -0.3354 -0.3908
  519MOL0     C69972   3.686   3.819   7.830 -0.4425 -0.2258 -0.3184
  519MOL0     C69973   3.781   3.922   7.757 -0.6826  0.7254  0.0504
  519MOL0    Cl69974   3.808   4.073   7.863  0.2469 -0.0097 -0.3570
  519MOL0     C69975   4.407   3.615   8.212 -0.0296  0.5705  0.0464
  519MOL0     C69976   4.515   3.591   8.129 -0.0840 -0.6626  0.2258
  519MOL0     O69977   4.553   3.631   7.726  0.7750 -0.6733  0.6779
  519MOL0     C69978   4.807   3.716   7.611 -0.9074  0.8778  0.0508
  519MOL0     C69979   4.932   3.737   7.556  0.0384  0.3596 -0.3277
  519MOL0     N69980   5.245   4.366   7.629 -1.4092 -0.1526 -0.0312
  519MOL0     N69981   5.349   4.442   7.642  0.0422  0.6718  0.2513
  519MOL0     C69982   5.983   4.763   8.354 -0.2008 -0.8367 -0.1317
  519MOL0     C69983   6.079   4.755   8.450 -0.4637  0.6608 -0.1738
  519MOL0     C69984   6.190   4.690   8.915  0.0839  0.6560  0.3899
  519MOL0     C69985   6.203   4.814   8.969  0.0041  0.3513  0.1654
  519MOL0     C69986   6.282   4.844   9.081  0.5244 -0.5944 -0.4418
  519MOL0     C69987   6.361   4.748   9.142 -0.1502  0.6458 -1.0834
  519MOL0     O69988   6.465   4.761   9.240 -0.1096  0.4661  0.2603
  519MOL0     C69989   6.489   4.886   9.304  0.2996 -0.2544 -0.1388
  519MOL0     C69990   6.584   4.860   9.420  0.4332  0.3249 -0.1016
  519MOL0     C69991   6.549   4.741   9.511 -0.1136  0.5436  1.2033
  519MOL0     C69992   6.405   4.727   9.550  0.2408  0.4842 -0.6907
  519MOL0     C69993   6.366   4.862   9.608  0.5208 -0.8527  0.2319
  519MOL0     C69994   6.337   4.968   9.667  0.3166 -0.0781  0.5256
  519MOL0     C69995   6.331   4.618   9.100 -0.0588  0.7180  0.6064
  519MOL0     C69996   6.254   4.585   8.989 -0.1440  0.2305 -0.6098
  519MOL0     C69997   6.257   4.444   8.945 -0.0090  0.5207  0.6623
  519MOL0     H69998   5.871   4.801   8.713 -1.2646 -1.1621 -0.6511
  519MOL0     H69999   5.704   4.775   8.543  0.1949  0.7396  0.4095
  519MOL0     H70000   5.655   4.934   8.166  0.2459  0.3463 -0.6194
  519MOL0     H70001   5.826   4.951   8.194 -0.0366  1.5247 -3.4420
  519MOL0     H70002   5.875   4.771   8.041 -1.3517 -2.2428 -0.6380
  519MOL0     H70003   5.789   4.916   7.976 -2.7675  1.8182  2.0809
  519MOL0     H70004   5.652   4.762   7.884 -0.9863  2.9031  0.4415
  519MOL0     H70005   5.573   4.757   8.045 -0.0401 -2.7034  1.3899
  519MOL0     H70006   5.785   4.569   7.933  0.4857  1.7370  0.6343
  519MOL0     H70007   5.731   4.535   8.087 -0.4729 -2.6999 -1.8925
  519MOL0     H70008   5.510   4.511   8.047  0.7192 -3.4348  1.7105
  519MOL0     H70009   5.513   4.554   7.878 -0.3337  0.0635  0.3113
  519MOL0     H70010   5.664   4.315   8.000  0.6051 -1.3388 -0.1847
  519MOL0     H70011   5.510   4.314   7.926 -1.0056  2.6578  3.1824
  519MOL0     H70012   5.705   4.248   7.754 -2.4092  0.4768 -2.6185
  519MOL0     H70013   5.777   4.411   7.789 -2.1019  3.1430 -1.8586
  519MOL0     H70014   5.599   4.525   7.657  2.9808 -0.6618 -1.0716
  519MOL0     H70015   5.658   4.400   7.565 -0.2906 -2.4290  0.6367
  519MOL0     H70016   5.477   4.137   7.613  1.3479  0.7301  0.2938
  519MOL0     H70017   5.214   4.052   7.641 -1.7207  0.5403 -0.0595
  519MOL0     H70018   5.097   4.148   7.551 -0.4376 -1.9636  0.8562
  519MOL0     H70019   5.276   4.112   7.347  3.4866 -2.8630 -1.5595
  519MOL0     H70020   5.365   4.028   7.454  1.1626 -0.3714 -1.3278
  519MOL0     H70021   5.211   3.888   7.293  1.1665  3.7484 -0.7565
  519MOL0     H70022   5.070   3.928   7.396  0.2707 -4.3805  0.4433
  519MOL0     H70023   5.315   3.788   7.476  0.0976 -1.0079  2.9210
  519MOL0     H70024   5.163   3.712   7.426  0.2821  1.0227 -2.6146
  519MOL0     H70025   5.090   3.797   7.851 -0.5660  0.5276 -0.3092
  519MOL0     H70026   4.867   3.739   7.947 -1.4812  3.3142  0.1689
  519MOL0     H70027   4.445   3.810   7.886 -0.8368  3.1797  1.5304
  519MOL0     H70028   4.243   3.847   8.034  2.2032  1.6371  0.6007
  519MOL0     H70029   4.188   3.583   8.414  0.6299  1.7844  0.2182
  519MOL0     H70030   4.042   3.672   8.369  0.5835  2.1210 -0.3553
  519MOL0     H70031   4.146   3.432   8.234 -0.2208 -1.0633  1.4143
  519MOL0     H70032   3.989   3.461   8.300  0.1054  0.6368  0.4550
  519MOL0     H70033   4.093   3.600   8.047 -0.1120 -1.2125 -0.3836
  519MOL0     H70034   3.992   3.465   8.034 -1.1354 -0.4409  1.5179
  519MOL0     H70035   3.938   3.747   8.154  0.0932 -2.0798  4.1024
  519MOL0     H70036   3.819   3.613   8.181 -1.7224 -0.5993 -3.0557
  519MOL0     H70037   3.819   3.582   7.930  1.5202 -0.5276  1.2513
  519MOL0     H70038   3.925   3.713   7.902 -1.0678 -1.0486 -0.5503
  519MOL0     H70039   3.657   3.719   8.017  0.0950 -0.6179 -1.2050
  519MOL0     H70040   3.765   3.866   8.034  3.6133 -1.0865 -0.7650
  519MOL0     H70041   3.592   3.873   7.841  0.4457  1.1824  0.6738
  519MOL0     H70042   3.668   3.730   7.769  3.1851  0.4244 -2.6742
  519MOL0     H70043   3.875   3.872   7.734 -1.6122 -0.7941 -0.5892
  519MOL0     H70044   3.720   3.952   7.671  2.0015 -0.2426 -2.3458
  519MOL0     H70045   4.407   3.561   8.306  0.6797  2.2517  1.0653
  519MOL0     H70046   4.603   3.534   8.157  0.2726  0.7259  2.1233
  519MOL0     H70047   4.729   3.712   7.535  0.3496 -2.7319 -1.2449
  519MOL0     H70048   4.934   3.753   7.449 -0.6869 -0.7522 -0.5307
  519MOL0     H70049   6.003   4.752   8.247  2.4439 -2.2029  0.4149
  519MOL0     H70050   6.184   4.743   8.424 -0.0250  1.7421  1.0160
  519MOL0     H70051   6.152   4.895   8.918 -0.6847  0.5652  1.1705
  519MOL0     H70052   6.279   4.949   9.107 -1.1560 -0.6322 -0.3325
  519MOL0     H70053   6.396   4.938   9.330 -0.6451 -2.4094  1.0265
  519MOL0     H70054   6.532   4.947   9.224 -0.7766 -1.0822 -1.3895
  519MOL0     H70055   6.594   4.946   9.487 -2.5430 -0.4087  1.4034
  519MOL0     H70056   6.679   4.846   9.367 -1.1630 -1.0880 -2.7876
  519MOL0     H70057   6.610   4.738   9.601  2.2800  2.6890 -0.2281
  519MOL0     H70058   6.573   4.655   9.448 -3.3073  1.3144 -1.3729
  519MOL0     H70059   6.345   4.682   9.470  3.1693 -2.1243 -1.6112
  519MOL0     H70060   6.400   4.654   9.631  0.3421 -0.0027 -1.1169
  519MOL0     H70061   6.325   5.064   9.714 -1.9176 -0.8971  1.7760
  519MOL0     H70062   6.392   4.547   9.156 -1.0664  0.5076  1.4592
  519MOL0     H70063   6.296   4.422   8.845  0.7692 -0.6437  1.1992
  519MOL0     H70064   6.319   4.378   9.007  0.8522  1.5405  0.9150
  519MOL0     H70065   6.159   4.397   8.935  0.7721 -1.1177  0.3728
  520MOL0     O70066   8.773   4.885   0.273 -0.5084  0.2319  0.5556
  520MOL0     C70067   8.708   4.787   0.226 -0.2748  0.1743 -0.3626
  520MOL0     O70068   8.726   4.721   0.110 -0.1643 -0.6377  0.7477
  520MOL0     C70069   8.815   4.776   0.024 -0.0645 -0.4267 -0.2255
  520MOL0     C70070   8.783   4.791  -0.109  0.5525 -0.3348  0.2153
  520MOL0     C70071   8.872   4.829  -0.205 -0.2288 -0.2342  0.9107
  520MOL0     C70072   9.004   4.861  -0.166 -0.7754  0.5707  0.1798
  520MOL0     O70073   9.088   4.893  -0.267 -0.0541 -0.3028  0.3408
  520MOL0     C70074   9.162   4.791  -0.338  1.0952  0.6314 -0.4064
  520MOL0     C70075   9.193   4.844  -0.476 -0.0825  0.3837  0.2081
  520MOL0     C70076   9.328   4.788  -0.528  0.0134 -0.1528  0.8362
  520MOL0     C70077   9.403   4.896  -0.607  0.6150 -0.2054 -0.7185
  520MOL0     C70078   9.537   4.851  -0.657 -0.5497  0.5833  0.3600
  520MOL0     C70079   9.613   4.950  -0.747 -0.6170 -0.5499 -0.1017
  520MOL0     C70080   9.719   4.880  -0.840  0.9212 -0.0658  0.2603
  520MOL0     C70081   9.818   4.817  -0.754 -0.4599  0.1227 -0.3804
  520MOL0     N70082   9.936   4.777  -0.831 -0.0282  0.2714  0.2938
  520MOL0     C70083   9.932   4.683  -0.931 -0.6592  0.1980  1.0418
  520MOL0     C70084  10.054   4.689  -0.987 -0.4355 -0.6227  0.6442
  520MOL0     C70085  10.124   4.611  -1.102 -0.0691  0.5609  0.4558
  520MOL0     C70086  10.262   4.555  -1.046 -0.1146  0.3131  0.0607
  520MOL0     C70087  10.305   4.424  -1.115  0.7952  0.4385 -0.5832
  520MOL0     C70088  10.285   4.422  -1.269  0.1596  0.3789 -0.2134
  520MOL0     O70089  10.392   4.501  -1.318 -0.6903  0.2663  0.5161
  520MOL0     C70090  10.502   4.445  -1.377  0.6382  0.0683 -1.1706
  520MOL0     C70091  10.540   4.309  -1.389 -0.3203 -0.7380  0.0294
  520MOL0     C70092  10.658   4.263  -1.455  0.6555 -0.0499 -0.3681
  520MOL0     C70093  10.740   4.363  -1.502  0.0845  0.9853  0.4071
  520MOL0     C70094  10.870   4.325  -1.559 -0.7672 -0.8558 -0.7083
  520MOL0     O70095  10.922   4.207  -1.532  0.3057 -0.2595 -0.9347
  520MOL0     C70096  11.041   4.161  -1.583 -0.8649  0.0076  1.1389
  520MOL0     C70097  11.098   4.072  -1.505  0.0209 -0.3294  0.4335
  520MOL0     C70098  11.216   4.008  -1.550 -0.2323  0.6557 -0.4462
  520MOL0     C70099  11.270   4.036  -1.680 -0.4287 -0.6067 -0.1108
  520MOL0     O70100  11.397   3.997  -1.712 -0.2721 -1.2354  0.1837
  520MOL0     C70101  11.395   3.857  -1.719 -0.0093 -0.4656  0.4133
  520MOL0     C70102  11.521   3.799  -1.791  0.3533  0.8222 -0.6344
  520MOL0     C70103  11.655   3.852  -1.731  0.3786  0.2107  0.5401
  520MOL0     C70104  11.772   3.788  -1.807 -0.4985  0.0279 -0.5646
  520MOL0     C70105  11.905   3.852  -1.746 -0.2133 -0.0011  0.5253
  520MOL0     C70106  12.033   3.770  -1.751  0.6259 -0.1261 -0.7688
  520MOL0     C70107  12.163   3.846  -1.718 -0.5743 -0.1609  0.1262
  520MOL0     C70108  12.171   3.953  -1.598  0.5517 -0.7954  0.2422
  520MOL0    Cl70109  12.150   3.882  -1.432 -0.3773 -0.0115  0.1577
  520MOL0     C70110  11.206   4.129  -1.763  0.0929 -0.1952 -0.5939
  520MOL0     C70111  11.088   4.195  -1.716  0.4143  0.5569  0.4003
  520MOL0     O70112  10.930   4.421  -1.621 -0.3595  0.1860  0.2363
  520MOL0     C70113  10.700   4.497  -1.498 -0.4502  0.4138  0.0161
  520MOL0     C70114  10.580   4.533  -1.444 -0.1979 -0.3742  0.2444
  520MOL0     N70115  10.122   4.793  -0.921 -0.7919  0.4670  0.2834
  520MOL0     N70116  10.061   4.835  -0.815 -0.0437  0.7196  0.3849
  520MOL0     C70117   9.043   4.845  -0.034 -0.2260 -0.0877 -0.1192
  520MOL0     C70118   8.951   4.792   0.063 -0.2005  0.6436 -0.0334
  520MOL0     C70119   8.586   4.728   0.314  0.6213  0.0780  0.1518
  520MOL0     C70120   8.542   4.603   0.285  0.4779  0.7367 -0.1669
  520MOL0     C70121   8.446   4.538   0.364 -0.0151  0.0199  0.5793
  520MOL0     C70122   8.395   4.606   0.479  0.2031 -0.3178  0.6557
  520MOL0     O70123   8.304   4.543   0.565 -0.0263 -0.4164  0.1005
  520MOL0     C70124   8.254   4.413   0.541 -0.3380 -0.8349 -0.7171
  520MOL0     C70125   8.151   4.371   0.646 -0.7125 -1.1015  0.6669
  520MOL0     C70126   8.055   4.480   0.689 -0.5464  0.4069  0.7517
  520MOL0     C70127   7.975   4.441   0.814  0.8410 -0.1132  0.6075
  520MOL0     C70128   7.851   4.367   0.771 -0.1516 -0.0304  0.0196
  520MOL0     C70129   7.743   4.312   0.737 -0.8415 -0.3760 -0.4847
  520MOL0     C70130   8.422   4.739   0.488 -0.0342 -0.2168  0.4441
  520MOL0     C70131   8.516   4.804   0.407  0.6631  0.5249 -0.2280
  520MOL0     C70132   8.538   4.958   0.424 -0.1944  0.2142 -0.3293
  520MOL0     H70133   8.685   4.765  -0.146 -0.1858 -1.0848  2.5068
  520MOL0     H70134   8.837   4.833  -0.308 -2.9023  0.0308  1.7531
  520MOL0     H70135   9.253   4.779  -0.278 -0.4400 -2.2588  1.5715
  520MOL0     H70136   9.109   4.697  -0.349  0.4012  1.0175 -0.4394
  520MOL0     H70137   9.179   4.953  -0.476 -0.5885  0.3208  0.7252
  520MOL0     H70138   9.123   4.811  -0.554  1.7697 -1.8801 -0.6091
  520MOL0     H70139   9.311   4.701  -0.592  2.7397 -0.1938  0.0521
  520MOL0     H70140   9.387   4.753  -0.443 -0.7140 -5.7205 -0.5971
  520MOL0     H70141   9.339   4.924  -0.691 -2.0781 -0.5759  1.1049
  520MOL0     H70142   9.415   4.986  -0.546 -1.4772  0.3131 -1.0151
  520MOL0     H70143   9.602   4.828  -0.571 -1.3007 -3.9337 -0.0153
  520MOL0     H70144   9.531   4.761  -0.719  0.7244  0.6902  0.0613
  520MOL0     H70145   9.550   5.004  -0.818 -1.3506 -1.7108 -0.3624
  520MOL0     H70146   9.659   5.035  -0.696  2.2409 -2.2852  0.4098
  520MOL0     H70147   9.764   4.958  -0.902 -0.2439  0.9289  0.6149
  520MOL0     H70148   9.682   4.807  -0.912 -0.3138 -0.0550  0.8567
  520MOL0     H70149   9.853   4.892  -0.682  0.4102 -1.4959  0.9614
  520MOL0     H70150   9.775   4.743  -0.686  0.3445  2.8352  3.4127
  520MOL0     H70151   9.848   4.624  -0.967 -0.1706  0.9049 -1.4673
  520MOL0     H70152  10.068   4.522  -1.133  1.0958 -0.4596  1.1769
  520MOL0     H70153  10.150   4.679  -1.183 -0.1532 -1.0413 -0.9893
  520MOL0     H70154  10.343   4.628  -1.038  0.3017 -0.0651 -0.6217
  520MOL0     H70155  10.244   4.519  -0.944 -1.3258  0.2145 -0.1728
  520MOL0     H70156  10.238   4.347  -1.076 -1.4474  2.5126 -0.0551
  520MOL0     H70157  10.409   4.399  -1.093  0.3345 -0.4691  0.7227
  520MOL0     H70158  10.195   4.480  -1.289 -0.7293 -0.7906  0.2733
  520MOL0     H70159  10.266   4.322  -1.309  2.0666  0.1503 -0.6332
  520MOL0     H70160  10.479   4.238  -1.335  3.0240 -2.3952  1.9622
  520MOL0     H70161  10.672   4.155  -1.453 -0.1189 -0.1693 -1.0630
  520MOL0     H70162  11.062   4.055  -1.404 -0.6339  2.4102  0.7406
  520MOL0     H70163  11.274   3.942  -1.486  0.3164  1.8408  0.3272
  520MOL0     H70164  11.400   3.813  -1.619 -0.3948  1.1539  1.1740
  520MOL0     H70165  11.309   3.817  -1.774  0.5758  1.6247 -2.2724
  520MOL0     H70166  11.528   3.692  -1.771  0.1064  0.6682 -1.3654
  520MOL0     H70167  11.502   3.803  -1.898  0.9085 -1.2668 -0.8527
  520MOL0     H70168  11.652   3.961  -1.736 -2.1727  0.1652 -0.7551
  520MOL0     H70169  11.651   3.820  -1.626 -1.3076  4.1332  1.8863
  520MOL0     H70170  11.758   3.827  -1.909  0.2549  3.0974  0.3810
  520MOL0     H70171  11.777   3.680  -1.794  0.8190  0.2410  1.0897
  520MOL0     H70172  11.897   3.879  -1.640  3.9752 -2.4088  1.6771
  520MOL0     H70173  11.922   3.946  -1.800 -1.7896  0.7748  1.2966
  520MOL0     H70174  12.031   3.696  -1.671  4.8758 -0.6904 -0.9871
  520MOL0     H70175  12.051   3.730  -1.851  0.2966 -0.5220 -0.6743
  520MOL0     H70176  12.194   3.898  -1.809  1.1246  1.2226  1.4060
  520MOL0     H70177  12.249   3.782  -1.695  0.4607 -0.3728 -3.7444
  520MOL0     H70178  12.266   4.008  -1.591  0.3356 -0.3667 -0.1706
  520MOL0     H70179  12.093   4.023  -1.627  1.1454 -0.5430 -0.7859
  520MOL0     H70180  11.242   4.151  -1.863  1.0669  0.4710 -0.1143
  520MOL0     H70181  11.025   4.254  -1.781  2.5973  0.4334 -1.9692
  520MOL0     H70182  10.755   4.570  -1.557  0.9538 -0.2588  0.4381
  520MOL0     H70183  10.559   4.639  -1.444 -1.1141 -0.5279 -1.3177
  520MOL0     H70184   9.148   4.857  -0.011  0.6013 -1.6443 -2.7123
  520MOL0     H70185   8.981   4.783   0.167  0.9032  2.5226 -0.1461
  520MOL0     H70186   8.593   4.538   0.215  0.3220  0.9357 -0.4683
  520MOL0     H70187   8.431   4.431   0.347  0.6057 -0.3065  1.9796
  520MOL0     H70188   8.341   4.346   0.535  0.9554  0.4368  2.3423
  520MOL0     H70189   8.205   4.417   0.443 -2.0132  1.9159  0.1484
  520MOL0     H70190   8.221   4.343   0.725  0.9797 -2.1146 -1.0970
  520MOL0     H70191   8.095   4.281   0.620 -0.7666 -0.7624 -0.4320
  520MOL0     H70192   7.999   4.513   0.600 -1.4283  1.1356  1.5529
  520MOL0     H70193   8.118   4.564   0.721  1.7627 -0.9041 -0.1193
  520MOL0     H70194   8.037   4.370   0.869  0.0635  0.8330  2.8081
  520MOL0     H70195   7.968   4.520   0.889 -0.3534  2.4578 -2.0351
  520MOL0     H70196   7.645   4.276   0.712 -0.3658 -1.8419 -0.3096
  520MOL0     H70197   8.374   4.790   0.571 -0.6972  1.7381 -1.0761
  520MOL0     H70198   8.623   4.965   0.492  2.5389  0.7109 -3.5440
  520MOL0     H70199   8.550   5.013   0.330  3.3037 -1.8982 -1.3088
  520MOL0     H70200   8.442   4.984   0.468 -1.1960 -2.1647 -0.9282
  521MOL0     O70201   2.273   9.711   5.510 -0.2984  0.6955  0.9636
  521MOL0     C70202   2.186   9.626   5.480 -0.2093 -0.1234 -0.1627
  521MOL0     O70203   2.210   9.518   5.403 -0.5378  0.1011 -0.0681
  521MOL0     C70204   2.313   9.516   5.312 -0.0615  0.5275  0.5321
  521MOL0     C70205   2.407   9.614   5.275 -0.4609 -0.1155  0.1345
  521MOL0     C70206   2.508   9.594   5.182 -0.0515  0.0851  0.4892
  521MOL0     C70207   2.500   9.482   5.094  0.3062  0.2127 -0.1042
  521MOL0     O70208   2.603   9.461   5.009  0.0314  0.1478  0.0803
  521MOL0     C70209   2.583   9.373   4.894 -0.1231 -0.7621  0.5671
  521MOL0     C70210   2.676   9.426   4.782 -0.6099  0.0856 -0.0328
  521MOL0     C70211   2.822   9.434   4.818  1.1713 -0.3466  0.3443
  521MOL0     C70212   2.896   9.498   4.695 -0.1710  1.2037 -0.3317
  521MOL0     C70213   3.042   9.500   4.715 -0.8700 -0.3716  0.3556
  521MOL0     C70214   3.121   9.549   4.589 -0.1608  1.0624  0.0839
  521MOL0     C70215   3.271   9.539   4.614 -0.2637 -0.0050  0.2182
  521MOL0     C70216   3.347   9.607   4.487 -0.2432  0.7951  0.4019
  521MOL0     N70217   3.490   9.552   4.472 -0.1670  0.0936  0.9417
  521MOL0     C70218   3.597   9.629   4.516  0.6148 -0.3940 -0.5516
  521MOL0     C70219   3.703   9.562   4.468 -0.7725  0.7157  0.8639
  521MOL0     C70220   3.844   9.597   4.499 -0.2063  0.6098  0.1584
  521MOL0     C70221   3.948   9.490   4.464  0.2884  0.7520  0.0443
  521MOL0     C70222   4.080   9.557   4.428 -0.1765  0.5241 -0.4281
  521MOL0     C70223   4.148   9.619   4.552  0.3600  0.8010  0.5914
  521MOL0     O70224   4.277   9.688   4.528 -0.1690 -0.3581 -0.3922
  521MOL0     C70225   4.400   9.619   4.524  0.3475 -0.5959 -0.0660
  521MOL0     C70226   4.525   9.692   4.533  0.2215 -1.3714  0.5346
  521MOL0     C70227   4.645   9.628   4.531 -0.1457  0.5440 -0.8348
  521MOL0     C70228   4.656   9.488   4.530  0.2426 -0.1174 -0.2849
  521MOL0     C70229   4.786   9.419   4.523  0.1127  0.3240 -1.0090
  521MOL0     O70230   4.890   9.505   4.509 -0.2218  0.1073 -0.4113
  521MOL0     C70231   5.008   9.463   4.550  0.1244  0.2833 -0.3148
  521MOL0     C70232   5.081   9.351   4.496  0.6816 -0.1896  1.0836
  521MOL0     C70233   5.204   9.317   4.544  0.1753  0.6208  0.5559
  521MOL0     C70234   5.267   9.395   4.639  0.3567 -0.3903  0.8476
  521MOL0     O70235   5.397   9.365   4.670 -0.8538  0.4254  0.0763
  521MOL0     C70236   5.430   9.226   4.680 -0.0387  0.1595  0.1809
  521MOL0     C70237   5.547   9.222   4.776 -0.3139 -0.1830 -0.9829
  521MOL0     C70238   5.627   9.090   4.766  0.7891 -0.2528  0.0434
  521MOL0     C70239   5.569   8.986   4.866  0.6296  0.2375 -1.3218
  521MOL0     C70240   5.621   8.845   4.825 -0.4692  0.6973  0.2840
  521MOL0     C70241   5.772   8.826   4.853 -0.2750  0.2070  0.0832
  521MOL0     C70242   5.861   8.828   4.719  0.1086  0.3910 -0.6809
  521MOL0     C70243   5.970   8.934   4.731 -0.1916 -0.4705  0.1943
  521MOL0    Cl70244   6.081   8.885   4.859 -0.0336  0.1228  0.5889
  521MOL0     C70245   5.208   9.511   4.679 -0.2874 -0.6067 -0.0829
  521MOL0     C70246   5.072   9.545   4.637 -0.8123 -0.1924 -0.8406
  521MOL0     O70247   4.794   9.300   4.534 -0.3649  0.5146 -0.5709
  521MOL0     C70248   4.530   9.419   4.521 -0.3220  0.1636 -0.0135
  521MOL0     C70249   4.406   9.482   4.514  0.5756 -0.1137  0.5720
  521MOL0     N70250   3.658   9.451   4.390 -0.2418  0.0337  0.1717
  521MOL0     N70251   3.534   9.451   4.392 -0.4963 -0.2048 -0.2671
  521MOL0     C70252   2.399   9.390   5.114  0.5661  0.0193 -0.6935
  521MOL0     C70253   2.313   9.403   5.224  1.1613  0.1847 -0.1500
  521MOL0     C70254   2.064   9.613   5.566 -0.0376  0.6159  0.0738
  521MOL0     C70255   2.069   9.667   5.695  0.6396  0.2261 -0.1461
  521MOL0     C70256   1.953   9.664   5.768 -0.5175  0.0331 -0.0171
  521MOL0     C70257   1.836   9.601   5.723  1.6222  0.6310  1.0210
  521MOL0     O70258   1.721   9.585   5.802  0.5344  0.7105 -0.7724
  521MOL0     C70259   1.611   9.678   5.771  0.5323 -0.1091  0.1104
  521MOL0     C70260   1.488   9.633   5.857  0.6399  0.6233 -0.7041
  521MOL0     C70261   1.505   9.700   6.000 -0.5106  0.0166 -0.9277
  521MOL0     C70262   1.403   9.809   6.019  0.0392  0.4473 -0.7285
  521MOL0     C70263   1.435   9.924   5.935  0.6004  0.5387  0.1873
  521MOL0     C70264   1.482  10.002   5.853 -0.0439  0.0975 -0.3232
  521MOL0     C70265   1.830   9.548   5.592 -0.1915  0.0149 -0.4847
  521MOL0     C70266   1.938   9.561   5.508  0.5499 -1.0604  0.8825
  521MOL0     C70267   1.921   9.514   5.364 -0.2410  0.3253  0.1674
  521MOL0     H70268   2.408   9.710   5.326  1.5266  0.3396 -0.6928
  521MOL0     H70269   2.592   9.658   5.158  0.0815 -0.9839 -2.2810
  521MOL0     H70270   2.614   9.273   4.926  1.8400  0.0403  1.2803
  521MOL0     H70271   2.479   9.376   4.858  0.5472  2.3577 -1.4441
  521MOL0     H70272   2.643   9.523   4.743  2.3630 -0.5941 -5.1478
  521MOL0     H70273   2.664   9.368   4.690 -2.1617  0.8230 -0.3247
  521MOL0     H70274   2.854   9.332   4.842  0.8470 -1.3290 -2.8921
  521MOL0     H70275   2.839   9.501   4.903  1.1218  1.2187 -0.8473
  521MOL0     H70276   2.892   9.439   4.603 -1.9884  2.8121 -1.3601
  521MOL0     H70277   2.860   9.597   4.669  5.2380  3.5360 -0.2032
  521MOL0     H70278   3.062   9.572   4.795 -2.8995  2.7359 -1.6612
  521MOL0     H70279   3.082   9.400   4.729  1.6238  0.2154 -1.6973
  521MOL0     H70280   3.093   9.505   4.493  2.3097 -1.9413  0.5822
  521MOL0     H70281   3.082   9.652   4.588 -2.6129  0.1947 -0.7463
  521MOL0     H70282   3.299   9.433   4.623 -1.0587 -0.3531 -1.0804
  521MOL0     H70283   3.309   9.578   4.709 -0.6154 -0.8775  0.7322
  521MOL0     H70284   3.295   9.578   4.394 -1.2066  2.8792  0.2402
  521MOL0     H70285   3.355   9.716   4.495  3.0647  0.5693  1.6731
  521MOL0     H70286   3.597   9.716   4.581 -2.7448  0.1261 -1.0808
  521MOL0     H70287   3.861   9.690   4.444  1.1145  1.0768  1.3325
  521MOL0     H70288   3.849   9.628   4.603 -1.2599  0.9078  0.1334
  521MOL0     H70289   3.951   9.413   4.542  3.7511  2.6812  2.0489
  521MOL0     H70290   3.914   9.441   4.372  1.2994  1.6768 -0.8561
  521MOL0     H70291   4.066   9.636   4.354  2.7603  2.3271  0.7341
  521MOL0     H70292   4.155   9.496   4.376  1.2383  2.1901 -0.4468
  521MOL0     H70293   4.159   9.535   4.622  2.8105 -1.2083 -1.9879
  521MOL0     H70294   4.076   9.686   4.599  0.5064  0.3583  1.4791
  521MOL0     H70295   4.511   9.800   4.533 -1.1912 -1.4793 -1.9386
  521MOL0     H70296   4.742   9.677   4.542 -0.3335  0.7030  0.1958
  521MOL0     H70297   5.037   9.277   4.430 -0.6465 -0.4253  2.1771
  521MOL0     H70298   5.252   9.230   4.500  1.1756  0.6509  1.5633
  521MOL0     H70299   5.345   9.166   4.713  0.1623 -0.1252  0.1893
  521MOL0     H70300   5.457   9.180   4.584 -3.4330 -1.0506 -0.3106
  521MOL0     H70301   5.612   9.306   4.751  0.7183 -0.6261  0.1310
  521MOL0     H70302   5.509   9.241   4.877 -2.2652  0.4928 -1.7918
  521MOL0     H70303   5.615   9.059   4.661 -0.9570  0.6436 -0.0660
  521MOL0     H70304   5.733   9.113   4.777  0.1419  2.8804  0.7112
  521MOL0     H70305   5.461   8.998   4.859  0.1619 -3.6987 -3.0883
  521MOL0     H70306   5.604   9.016   4.965  1.5766 -4.2953 -0.0749
  521MOL0     H70307   5.597   8.815   4.723  0.5333 -1.2261  0.5701
  521MOL0     H70308   5.569   8.775   4.891  0.4988  1.2369  1.6572
  521MOL0     H70309   5.819   8.892   4.926  0.1006  0.8565 -0.7314
  521MOL0     H70310   5.786   8.721   4.883  0.5189  0.3210  0.1541
  521MOL0     H70311   5.807   8.857   4.629 -0.9926  1.0105  0.1582
  521MOL0     H70312   5.908   8.731   4.702 -0.8843 -1.6743  5.5295
  521MOL0     H70313   6.022   8.939   4.635 -1.7686  1.4640 -0.6383
  521MOL0     H70314   5.922   9.030   4.752 -2.3137 -1.0365 -1.6231
  521MOL0     H70315   5.257   9.586   4.740 -3.4747  2.5093 -1.0506
  521MOL0     H70316   5.030   9.633   4.684  1.0211  0.8189 -1.0169
  521MOL0     H70317   4.524   9.310   4.527 -0.8280  0.1908 -0.0327
  521MOL0     H70318   4.320   9.415   4.513  2.3904 -2.6408  2.3512
  521MOL0     H70319   2.377   9.299   5.059 -0.4626  0.7784 -1.5932
  521MOL0     H70320   2.243   9.323   5.244 -0.3259  1.8233  1.7048
  521MOL0     H70321   2.155   9.716   5.740  0.0317  0.2318  1.0403
  521MOL0     H70322   1.953   9.704   5.869  2.6959 -1.7566  0.8370
  521MOL0     H70323   1.579   9.669   5.667  1.9050  4.2034 -0.9031
  521MOL0     H70324   1.627   9.785   5.788 -2.5835  0.2661  1.3649
  521MOL0     H70325   1.485   9.525   5.872 -2.0848  0.9014  1.5056
  521MOL0     H70326   1.400   9.669   5.802 -0.8229 -0.2437  0.9649
  521MOL0     H70327   1.601   9.750   6.012  0.5754 -2.5321  3.0054
  521MOL0     H70328   1.505   9.624   6.079 -0.1074  2.7775  1.9251
  521MOL0     H70329   1.304   9.772   5.988  0.3019 -1.9593  1.0363
  521MOL0     H70330   1.395   9.845   6.122 -0.2113 -0.1827 -0.5253
  521MOL0     H70331   1.526  10.061   5.775  0.1473 -3.5711 -3.2435
  521MOL0     H70332   1.739   9.498   5.560 -0.5123 -1.4847  2.3955
  521MOL0     H70333   1.818   9.509   5.328 -0.2263 -1.8941  0.2927
  521MOL0     H70334   1.969   9.586   5.297  0.9311 -1.0478 -0.5413
  521MOL0     H70335   1.974   9.420   5.348  0.7854  0.6496  1.5224
  522MOL0     O70336   3.056   0.410  10.485 -0.4538 -0.3221 -0.4462
  522MOL0     C70337   3.052   0.288  10.495  0.5614 -0.9068 -0.2892
  522MOL0     O70338   3.036   0.203  10.391  0.7385 -0.4111  0.7224
  522MOL0     C70339   3.000   0.219  10.252  0.1216  0.4859 -0.2950
  522MOL0     C70340   3.025   0.114  10.153  0.3944  0.0751  0.3671
  522MOL0     C70341   2.991   0.129  10.016  0.2130 -0.4280 -1.5560
  522MOL0     C70342   2.927   0.257   9.972  0.3019  0.1286  0.5123
  522MOL0     O70343   2.899   0.252   9.837 -0.4228 -0.3495 -0.2131
  522MOL0     C70344   2.884   0.384   9.771 -0.8686  0.8800  0.2982
  522MOL0     C70345   2.835   0.391   9.626  0.9830  0.9513  0.3106
  522MOL0     C70346   2.683   0.401   9.609  0.1638  0.5557 -0.3618
  522MOL0     C70347   2.639   0.415   9.468  0.4727 -0.3206 -0.2399
  522MOL0     C70348   2.497   0.467   9.453 -0.5771  0.4589 -0.3132
  522MOL0     C70349   2.399   0.362   9.480 -0.1343  0.5527  0.0712
  522MOL0     C70350   2.266   0.387   9.402  0.4188  0.4745 -0.2930
  522MOL0     C70351   2.167   0.269   9.443 -0.8029  0.5556  0.6539
  522MOL0     N70352   2.128   0.277   9.588  0.3880  0.8801  0.5725
  522MOL0     C70353   2.062   0.184   9.662  0.3793  0.0904  0.0689
  522MOL0     C70354   2.053   0.246   9.785 -0.0643 -0.3012 -0.0886
  522MOL0     C70355   1.981   0.185   9.899 -0.0334 -0.0614 -0.0356
  522MOL0     C70356   2.070   0.159  10.025  0.2163 -0.0989 -0.2098
  522MOL0     C70357   2.213   0.093  10.000  0.0030  0.1857 -0.6779
  522MOL0     C70358   2.272   0.038  10.124 -0.3145  0.4809  0.0020
  522MOL0     O70359   2.413   0.029  10.113  0.2142  0.1000  0.2735
  522MOL0     C70360   2.486   0.043  10.232 -0.0969  0.2973  0.5330
  522MOL0     C70361   2.588   0.137  10.240 -1.0086  0.0246 -0.6623
  522MOL0     C70362   2.660   0.161  10.365 -0.3383 -0.4183 -0.5591
  522MOL0     C70363   2.633   0.076  10.477  0.4188 -0.6660  0.6265
  522MOL0     C70364   2.692   0.095  10.611 -0.2326  0.0212  0.4834
  522MOL0     O70365   2.635   0.030  10.712 -0.5058 -0.8791  0.4839
  522MOL0     C70366   2.697   0.022  10.831  0.7370  0.3047 -0.3784
  522MOL0     C70367   2.831   0.017  10.856  0.1688 -0.0621 -0.5629
  522MOL0     C70368   2.892   0.035  10.980 -0.0683  0.8155  0.5843
  522MOL0     C70369   2.815   0.039  11.094 -0.1923 -0.8297  0.7452
  522MOL0     O70370   2.885   0.029  11.215  0.9997  0.2022 -0.3744
  522MOL0     C70371   2.811   0.049  11.337  0.3822  0.4630  0.3197
  522MOL0     C70372   2.912   0.022  11.453 -0.1670  0.9254  0.2385
  522MOL0     C70373   2.891   0.112  11.582  0.9025  1.1840  0.3682
  522MOL0     C70374   2.929   0.027  11.701 -1.0662 -0.2400 -0.5075
  522MOL0     C70375   2.919   0.103  11.838 -0.5867  0.3213  0.3960
  522MOL0     C70376   2.977   0.019  11.946 -0.4484 -0.1335 -0.8437
  522MOL0     C70377   2.885  -0.091  11.985  0.5894  0.0176 -0.2032
  522MOL0     C70378   2.749  -0.056  12.045  0.7950 -0.0756  0.4365
  522MOL0    Cl70379   2.631  -0.031  11.915 -0.2963 -0.1942  0.0493
  522MOL0     C70380   2.674   0.031  11.080  0.1772 -0.8534  0.1060
  522MOL0     C70381   2.621   0.029  10.950  0.3297 -0.4062  0.9734
  522MOL0     O70382   2.771   0.186  10.618 -0.8815 -0.5009  0.3348
  522MOL0     C70383   2.539  -0.026  10.461 -1.2233 -0.2573 -0.5795
  522MOL0     C70384   2.463  -0.038  10.344  0.3884 -0.3343 -0.1471
  522MOL0     N70385   2.117   0.367   9.785 -0.1469  0.6197 -0.6838
  522MOL0     N70386   2.146   0.389   9.659  0.3823  0.3028 -0.4433
  522MOL0     C70387   2.908   0.362  10.073  1.1817 -0.0155  0.0811
  522MOL0     C70388   2.945   0.336  10.207 -0.8784 -0.4106  0.2744
  522MOL0     C70389   3.105   0.228  10.624  0.0785  0.2096 -0.2890
  522MOL0     C70390   3.194   0.112  10.617  0.3326 -0.2751 -0.6586
  522MOL0     C70391   3.245   0.063  10.740 -0.4187 -0.3483 -0.2128
  522MOL0     C70392   3.218   0.131  10.861 -0.4057  0.3398 -0.5027
  522MOL0     O70393   3.278   0.085  10.971 -0.2791 -0.3063  0.1445
  522MOL0     C70394   3.265   0.157  11.096  0.2137 -1.0731 -0.1846
  522MOL0     C70395   3.339   0.078  11.200  0.2898  0.0372 -0.0564
  522MOL0     C70396   3.344   0.158  11.332 -0.1246 -0.4064 -0.1407
  522MOL0     C70397   3.388   0.078  11.451 -0.4274  0.5120 -0.4525
  522MOL0     C70398   3.534   0.071  11.460  0.1191  0.2365  0.1600
  522MOL0     C70399   3.649   0.050  11.465 -0.8680 -0.3386 -0.3229
  522MOL0     C70400   3.139   0.247  10.858  0.0555  0.4230 -0.7272
  522MOL0     C70401   3.079   0.290  10.747 -0.2521 -0.3960 -0.5380
  522MOL0     C70402   2.988   0.408  10.764 -0.5165 -0.0805 -0.3553
  522MOL0     H70403   3.085   0.032  10.191 -1.4341 -2.2033 -1.4389
  522MOL0     H70404   2.998   0.046   9.946  0.4033 -0.7546 -1.1512
  522MOL0     H70405   2.825   0.446   9.839 -3.1289 -0.4371 -0.3514
  522MOL0     H70406   2.987   0.420   9.771 -0.2294 -0.5831  3.6614
  522MOL0     H70407   2.888   0.314   9.568 -1.9025 -1.4692  0.6535
  522MOL0     H70408   2.865   0.481   9.572 -0.6256  1.1377 -0.3130
  522MOL0     H70409   2.632   0.476   9.670 -3.5550 -3.3689  1.9111
  522MOL0     H70410   2.639   0.305   9.636  0.8374  0.8634  2.1191
  522MOL0     H70411   2.704   0.491   9.425 -3.6136  3.3699 -0.5202
  522MOL0     H70412   2.653   0.332   9.398 -1.4683  0.2061 -1.3408
  522MOL0     H70413   2.479   0.554   9.517  0.2887  2.3161 -2.4597
  522MOL0     H70414   2.491   0.497   9.348 -2.2267 -0.5851 -0.5441
  522MOL0     H70415   2.438   0.271   9.435 -1.4571  0.4544 -0.9611
  522MOL0     H70416   2.392   0.353   9.589 -0.5540 -0.7635 -0.0426
  522MOL0     H70417   2.286   0.377   9.295  0.8095 -1.8789 -0.0538
  522MOL0     H70418   2.227   0.484   9.435  0.8517  0.6056 -0.1643
  522MOL0     H70419   2.077   0.287   9.384 -0.5325  1.1860  0.4202
  522MOL0     H70420   2.204   0.170   9.414 -1.6995 -0.3786  2.5678
  522MOL0     H70421   2.009   0.096   9.627 -0.2728 -0.3616  2.0864
  522MOL0     H70422   1.899   0.253   9.925 -0.1195 -0.7130  1.4962
  522MOL0     H70423   1.930   0.091   9.874  2.0606 -1.0535 -0.8400
  522MOL0     H70424   2.086   0.260  10.064  0.0580  0.2999 -1.1496
  522MOL0     H70425   2.011   0.104  10.099 -3.7850  2.2747 -1.3288
  522MOL0     H70426   2.278   0.167   9.952  0.2994  1.0545  0.9841
  522MOL0     H70427   2.183   0.016   9.929  0.3854 -1.7800  1.2021
  522MOL0     H70428   2.228  -0.061  10.139  1.8352 -0.3466  1.2856
  522MOL0     H70429   2.242   0.092  10.215  1.6791 -2.4845  2.6185
  522MOL0     H70430   2.610   0.195  10.151  0.6037  0.1976 -0.1715
  522MOL0     H70431   2.736   0.238  10.374 -0.4483 -0.5407  1.9509
  522MOL0     H70432   2.904   0.019  10.776  2.9190  1.2134  1.7899
  522MOL0     H70433   2.999   0.021  10.990 -0.3758 -2.6046  0.1269
  522MOL0     H70434   2.768   0.150  11.334 -3.0392 -0.8787 -0.4749
  522MOL0     H70435   2.736  -0.030  11.344  1.2208 -0.4731 -0.8440
  522MOL0     H70436   2.895  -0.081  11.484  1.0585 -0.5122 -3.3250
  522MOL0     H70437   3.013   0.042  11.417  0.0057  1.0713  0.7924
  522MOL0     H70438   2.966   0.191  11.587  1.2378  0.8839  0.1280
  522MOL0     H70439   2.790   0.151  11.596  0.3281 -0.5321  1.3438
  522MOL0     H70440   3.031  -0.011  11.690 -0.9311 -0.1293  0.2882
  522MOL0     H70441   2.870  -0.064  11.708 -1.2244 -0.0264  1.7218
  522MOL0     H70442   2.821   0.145  11.862  0.6183  3.1928  0.7159
  522MOL0     H70443   2.968   0.200  11.844 -3.1582  1.6465  1.5387
  522MOL0     H70444   3.068  -0.033  11.913 -0.2199  0.0539 -0.5201
  522MOL0     H70445   2.997   0.084  12.031 -1.3853 -0.2098 -0.5495
  522MOL0     H70446   2.936  -0.145  12.066  2.1644  0.9728 -0.5330
  522MOL0     H70447   2.871  -0.163  11.904  1.1215  0.0159 -0.2967
  522MOL0     H70448   2.712  -0.146  12.095 -0.8817  1.7695  2.7433
  522MOL0     H70449   2.750   0.027  12.116 -2.5903  0.1663  0.3466
  522MOL0     H70450   2.610   0.016  11.166  0.2584 -0.1770  0.2844
  522MOL0     H70451   2.515   0.042  10.930  0.9022 -1.4259 -4.0232
  522MOL0     H70452   2.521  -0.097  10.540 -1.9642  1.1915  0.6045
  522MOL0     H70453   2.399  -0.120  10.315 -1.5286  1.5868 -1.7045
  522MOL0     H70454   2.866   0.461  10.058  0.4485 -0.0953  1.4671
  522MOL0     H70455   2.949   0.424  10.271  1.9098  1.5275 -2.2662
  522MOL0     H70456   3.207   0.065  10.520 -6.6721  1.7229 -3.1969
  522MOL0     H70457   3.305  -0.027  10.734 -1.1614 -0.8461 -0.2116
  522MOL0     H70458   3.160   0.168  11.126  0.8844 -0.9415  2.3979
  522MOL0     H70459   3.305   0.259  11.090 -5.8297  1.8524  0.9026
  522MOL0     H70460   3.442   0.050  11.174  0.7843 -1.1000  2.8026
  522MOL0     H70461   3.285  -0.017  11.214 -0.4956 -0.0134 -2.7659
  522MOL0     H70462   3.243   0.190  11.360  0.5599 -0.9357  3.4008
  522MOL0     H70463   3.403   0.250  11.331 -1.3613  0.4050 -0.7417
  522MOL0     H70464   3.342   0.118  11.542 -1.3089 -2.2771  0.4199
  522MOL0     H70465   3.348  -0.023  11.440 -2.7645  1.2384  0.6175
  522MOL0     H70466   3.755   0.053  11.474 -0.9010  2.3236  0.1174
  522MOL0     H70467   3.109   0.282  10.956  2.4210  1.0931 -0.1722
  522MOL0     H70468   3.047   0.500  10.773 -0.4632  0.0444 -1.6933
  522MOL0     H70469   2.919   0.416  10.679 -1.3055 -0.2144  0.2687
  522MOL0     H70470   2.927   0.398  10.854  2.8866  2.1668  2.4655
  523MOL0     O70471   3.996  10.544   3.926  0.6582 -0.5568  0.9138
  523MOL0     C70472   4.000  10.450   4.005  0.6371  0.2212 -0.6748
  523MOL0     O70473   4.104  10.372   4.028  0.0081 -0.2340  0.7389
  523MOL0     C70474   4.189  10.345   3.926  0.5467  0.0829  0.3368
  523MOL0     C70475   4.178  10.353   3.786  0.6031 -0.4444  0.1825
  523MOL0     C70476   4.279  10.311   3.704 -0.0753 -0.4870 -0.0669
  523MOL0     C70477   4.404  10.261   3.758 -0.0786  0.3995  0.3893
  523MOL0     O70478   4.504  10.234   3.671 -0.0256  0.8192  0.6802
  523MOL0     C70479   4.614  10.155   3.699 -1.8237 -0.9166 -0.5261
  523MOL0     C70480   4.583  10.014   3.720 -0.0186  0.2940 -0.7438
  523MOL0     C70481   4.713   9.935   3.773  0.3265 -0.3798  0.3350
  523MOL0     C70482   4.694   9.787   3.777 -0.3642 -0.1306  0.2038
  523MOL0     C70483   4.830   9.713   3.817  0.5083  0.9368  0.6058
  523MOL0     C70484   4.813   9.557   3.805 -0.1094 -0.3112  0.0051
  523MOL0     C70485   4.951   9.489   3.807  0.3193 -0.9695 -0.8290
  523MOL0     C70486   5.021   9.484   3.942  0.8201  0.8224  0.6397
  523MOL0     N70487   5.114   9.367   3.953 -0.1521 -0.0608 -0.2413
  523MOL0     C70488   5.097   9.268   4.049  0.0404  0.8339 -0.2307
  523MOL0     C70489   5.211   9.201   4.022 -0.1639 -0.3607  1.1798
  523MOL0     C70490   5.262   9.075   4.096 -0.7805  0.5969 -0.8787
  523MOL0     C70491   5.159   8.969   4.129  0.2887 -0.4162  0.2028
  523MOL0     C70492   5.083   8.907   4.004 -0.1583 -0.6591  0.2269
  523MOL0     C70493   4.961   8.819   4.041 -0.2377 -0.8710  0.1215
  523MOL0     O70494   4.879   8.892   4.135  0.8104  0.1163  0.1983
  523MOL0     C70495   4.807   8.999   4.079  0.3713  0.0618  0.2232
  523MOL0     C70496   4.761   9.098   4.163  1.0687 -1.1279 -1.0003
  523MOL0     C70497   4.649   9.186   4.144 -1.1098  0.4746  1.1684
  523MOL0     C70498   4.606   9.195   4.005  0.4450  0.4005 -0.6220
  523MOL0     C70499   4.510   9.299   3.961 -0.6713 -1.0787 -0.6515
  523MOL0     O70500   4.482   9.394   4.049 -0.1819  0.2665 -0.3820
  523MOL0     C70501   4.368   9.456   4.031  0.0398 -0.8955  0.0409
  523MOL0     C70502   4.254   9.410   4.101  0.2544 -0.0118  0.3103
  523MOL0     C70503   4.135   9.485   4.078  0.6187 -0.3421 -0.0525
  523MOL0     C70504   4.125   9.598   3.999 -0.0955 -0.4151  0.4050
  523MOL0     O70505   4.019   9.683   3.975 -0.3285 -0.1649  0.0173
  523MOL0     C70506   3.890   9.621   3.996  0.0263 -1.2714  0.4895
  523MOL0     C70507   3.781   9.701   3.920 -0.6219  0.7012 -0.5244
  523MOL0     C70508   3.801   9.677   3.771  0.3846  0.0986  0.7046
  523MOL0     C70509   3.713   9.778   3.695  0.2280  0.4812  0.1996
  523MOL0     C70510   3.711   9.735   3.541  1.0261 -0.1099  0.3239
  523MOL0     C70511   3.647   9.829   3.440  0.0216 -0.1420  1.0116
  523MOL0     C70512   3.604   9.748   3.314 -0.1584 -0.2197  0.6430
  523MOL0     C70513   3.553   9.831   3.192  0.2927  0.2059 -0.2117
  523MOL0    Cl70514   3.433   9.962   3.234 -0.0709 -0.2063 -0.2054
  523MOL0     C70515   4.241   9.648   3.932  0.2252  0.2947  1.1424
  523MOL0     C70516   4.359   9.570   3.944 -0.2829 -0.1171  0.3550
  523MOL0     O70517   4.456   9.283   3.853 -0.1246 -0.3059  0.1688
  523MOL0     C70518   4.669   9.114   3.912 -0.8494 -0.5994  0.2250
  523MOL0     C70519   4.766   9.018   3.947  0.3805  0.1072  0.3072
  523MOL0     N70520   5.279   9.251   3.918  0.2603  0.3373 -0.1391
  523MOL0     N70521   5.219   9.343   3.860 -0.0528 -0.4276  0.0315
  523MOL0     C70522   4.414  10.251   3.896  0.6480 -0.0412 -0.6391
  523MOL0     C70523   4.305  10.293   3.973 -0.7002  0.2070 -1.0524
  523MOL0     C70524   3.885  10.445   4.103 -0.1428 -0.4958 -0.7654
  523MOL0     C70525   3.757  10.439   4.064  0.8631 -0.6223 -0.5434
  523MOL0     C70526   3.644  10.434   4.145 -0.7277  0.0473  0.2605
  523MOL0     C70527   3.662  10.437   4.286  0.4226 -0.1650  0.3385
  523MOL0     O70528   3.563  10.452   4.380 -0.0315  0.9272 -0.3049
  523MOL0     C70529   3.440  10.375   4.360 -0.7257 -0.6199  0.1691
  523MOL0     C70530   3.378  10.367   4.499  0.9290 -0.2551  0.8108
  523MOL0     C70531   3.243  10.285   4.494 -0.2960  0.7800 -0.1700
  523MOL0     C70532   3.151  10.364   4.396 -0.4147  0.3229 -0.5051
  523MOL0     C70533   3.015  10.312   4.419  1.0012 -1.6230  0.5755
  523MOL0     C70534   2.897  10.296   4.441  0.8735  0.2511  0.6278
  523MOL0     C70535   3.795  10.450   4.327 -0.1946  0.7797 -0.6797
  523MOL0     C70536   3.910  10.452   4.243  0.7665  0.0195 -0.6908
  523MOL0     C70537   4.053  10.460   4.305  0.1630 -0.3060  0.5067
  523MOL0     H70538   4.082  10.382   3.744 -0.3451 -3.2012  0.2066
  523MOL0     H70539   4.271  10.316   3.596 -2.6418  0.2307  0.1083
  523MOL0     H70540   4.685  10.152   3.615 -0.4553 -1.4910  0.5951
  523MOL0     H70541   4.665  10.198   3.786 -2.2505  0.9521 -1.1599
  523MOL0     H70542   4.546   9.967   3.628  0.5896 -0.1524 -0.7721
  523MOL0     H70543   4.528   9.993   3.812  2.1346 -2.4625  0.0752
  523MOL0     H70544   4.743   9.975   3.871  0.5652 -0.6209  0.3617
  523MOL0     H70545   4.796   9.950   3.703  1.0077 -1.7582  0.8051
  523MOL0     H70546   4.613   9.764   3.848 -2.0737  0.9778 -1.2849
  523MOL0     H70547   4.654   9.750   3.682 -0.6387 -2.4216  1.1436
  523MOL0     H70548   4.914   9.737   3.752 -1.0476  2.3017 -1.0057
  523MOL0     H70549   4.864   9.737   3.918  1.1987  2.1759  0.1043
  523MOL0     H70550   4.745   9.522   3.884  1.2689 -1.4440  0.7429
  523MOL0     H70551   4.759   9.541   3.712  0.6279  0.6079 -0.5997
  523MOL0     H70552   5.029   9.520   3.737  2.3082 -0.8466  1.3194
  523MOL0     H70553   4.916   9.386   3.791 -2.1446 -0.2991 -0.0970
  523MOL0     H70554   5.072   9.578   3.967 -1.5951  2.1819  0.7828
  523MOL0     H70555   4.942   9.475   4.016 -0.5509 -0.1175 -0.8684
  523MOL0     H70556   5.017   9.272   4.122 -0.4798  4.2043 -0.8256
  523MOL0     H70557   5.354   9.031   4.057  0.0269  1.9637 -0.5915
  523MOL0     H70558   5.295   9.118   4.191 -3.3380 -0.6087  0.6658
  523MOL0     H70559   5.224   8.899   4.182  1.6437 -1.0948 -2.1905
  523MOL0     H70560   5.086   9.016   4.195 -0.1440  1.4046 -1.4848
  523MOL0     H70561   5.164   8.855   3.953  0.9034  1.4127 -0.3040
  523MOL0     H70562   5.056   8.992   3.942 -0.9223 -0.9516  0.1542
  523MOL0     H70563   4.994   8.723   4.083 -2.9572 -1.7596  0.4556
  523MOL0     H70564   4.904   8.793   3.951 -0.0273  3.1131 -1.3522
  523MOL0     H70565   4.795   9.093   4.266  2.3910  0.2320 -1.3330
  523MOL0     H70566   4.604   9.247   4.221 -0.3538  3.4055 -0.5565
  523MOL0     H70567   4.262   9.325   4.167  0.9809  0.8494  1.3759
  523MOL0     H70568   4.051   9.461   4.142  1.6379  1.2779  1.9774
  523MOL0     H70569   3.885   9.515   3.970 -1.5769 -1.1369  0.1460
  523MOL0     H70570   3.855   9.623   4.100 -1.7039 -1.8034 -0.0467
  523MOL0     H70571   3.682   9.666   3.951  1.1763 -3.2934  1.3677
  523MOL0     H70572   3.778   9.807   3.948  0.0528  0.4635  0.5110
  523MOL0     H70573   3.906   9.688   3.743  0.5440  2.0333  1.8861
  523MOL0     H70574   3.768   9.576   3.745  0.8907  0.2142 -0.4306
  523MOL0     H70575   3.766   9.870   3.722 -1.4061  0.3773  4.4402
  523MOL0     H70576   3.611   9.788   3.734 -1.2695  0.0104 -3.2563
  523MOL0     H70577   3.661   9.637   3.537 -0.1424  0.4905 -0.2604
  523MOL0     H70578   3.810   9.707   3.505 -0.0011 -2.8368 -0.6950
  523MOL0     H70579   3.558   9.879   3.479 -0.3254 -0.2499  0.3736
  523MOL0     H70580   3.728   9.894   3.406 -1.1564  1.0022  0.2720
  523MOL0     H70581   3.524   9.676   3.335 -2.6524  2.1737 -0.0862
  523MOL0     H70582   3.688   9.692   3.272  2.4660  1.6799  2.9928
  523MOL0     H70583   3.640   9.870   3.139  1.0854 -1.8489 -0.4864
  523MOL0     H70584   3.502   9.767   3.120  0.3426 -2.7661  2.1811
  523MOL0     H70585   4.228   9.727   3.858 -0.3550 -1.7929 -1.1204
  523MOL0     H70586   4.445   9.606   3.887  0.4080 -3.3581 -0.8732
  523MOL0     H70587   4.640   9.113   3.807 -4.2800 -0.6673  1.0514
  523MOL0     H70588   4.795   8.943   3.875 -0.0834 -2.4624  2.6486
  523MOL0     H70589   4.498  10.205   3.946  2.2729  1.6192 -1.6994
  523MOL0     H70590   4.311  10.271   4.079 -2.6677  2.8028 -0.2858
  523MOL0     H70591   3.733  10.441   3.958  0.1307 -2.8237 -0.4767
  523MOL0     H70592   3.545  10.441   4.101 -1.4231 -0.5023  1.6744
  523MOL0     H70593   3.452  10.283   4.302  2.3993  0.8599 -1.7772
  523MOL0     H70594   3.384  10.446   4.299 -0.8905 -1.3612 -0.5481
  523MOL0     H70595   3.355  10.465   4.541  2.4467 -0.3090  1.8741
  523MOL0     H70596   3.437  10.313   4.575 -0.5382 -1.0162  1.4553
  523MOL0     H70597   3.215  10.271   4.599  0.4428 -0.5954 -0.1346
  523MOL0     H70598   3.273  10.187   4.455  3.3429  2.0170 -0.8620
  523MOL0     H70599   3.149  10.472   4.412 -0.3077  0.6752 -2.6285
  523MOL0     H70600   3.184  10.348   4.293 -1.1139  2.3902 -1.0906
  523MOL0     H70601   2.793  10.271   4.448  1.3555 -2.9386 -1.3006
  523MOL0     H70602   3.819  10.440   4.432  0.1281 -2.9862 -0.9537
  523MOL0     H70603   4.047  10.505   4.404 -2.7832 -1.3708  0.9314
  523MOL0     H70604   4.096  10.362   4.324  0.0334 -0.1476  1.6484
  523MOL0     H70605   4.117  10.515   4.235 -1.0172 -2.3876 -2.4478
  524MOL0     O70606   4.271   2.301   6.069  0.6600 -0.2173 -0.2117
  524MOL0     C70607   4.373   2.369   6.085  0.3270 -0.1270 -0.2412
  524MOL0     O70608   4.488   2.362   6.015 -0.0228  0.6706 -0.0685
  524MOL0     C70609   4.494   2.264   5.918  0.5788  0.1463 -0.4101
  524MOL0     C70610   4.438   2.292   5.789 -1.0728 -0.1166 -0.4054
  524MOL0     C70611   4.457   2.196   5.683 -0.3843  0.0505  0.4608
  524MOL0     C70612   4.529   2.081   5.700 -0.0527 -0.8804 -1.2570
  524MOL0     O70613   4.531   1.998   5.596  0.7307 -0.1480 -0.0068
  524MOL0     C70614   4.584   1.868   5.609 -0.1199  0.6010 -0.3723
  524MOL0     C70615   4.738   1.868   5.607  0.0056 -0.0197 -0.8067
  524MOL0     C70616   4.800   1.942   5.485 -0.2692 -1.0987 -0.3434
  524MOL0     C70617   4.948   1.948   5.493 -0.0624  0.5438 -0.0756
  524MOL0     C70618   5.013   2.032   5.386  1.0551 -0.3292 -0.8003
  524MOL0     C70619   5.148   2.072   5.426 -1.6031 -0.0463  0.0104
  524MOL0     C70620   5.202   2.164   5.322 -0.2787  0.4351  0.3323
  524MOL0     C70621   5.343   2.189   5.333 -0.0282 -0.1515 -0.0735
  524MOL0     N70622   5.375   2.268   5.458 -0.0722  0.2387 -0.0727
  524MOL0     C70623   5.348   2.406   5.484  0.3252 -0.0128 -0.0756
  524MOL0     C70624   5.383   2.417   5.616 -0.4599 -0.3453 -0.7264
  524MOL0     C70625   5.391   2.543   5.703 -0.3632 -0.6425  0.3034
  524MOL0     C70626   5.536   2.577   5.733 -0.2752 -0.0611 -0.3432
  524MOL0     C70627   5.593   2.643   5.614 -0.7750  0.7652  0.4070
  524MOL0     C70628   5.736   2.687   5.620  0.7305 -0.4425 -0.4697
  524MOL0     O70629   5.771   2.770   5.731  0.3095  0.2712 -0.3593
  524MOL0     C70630   5.896   2.755   5.797  0.5863  0.0486 -0.1560
  524MOL0     C70631   5.999   2.839   5.761  0.1555  0.2447  0.8876
  524MOL0     C70632   6.115   2.849   5.841 -0.6304  0.1396  0.3907
  524MOL0     C70633   6.127   2.769   5.957 -1.2792  0.1285  0.1960
  524MOL0     C70634   6.251   2.780   6.031 -0.4284 -0.7046  0.1695
  524MOL0     O70635   6.260   2.709   6.153 -0.4232  0.3003 -0.8860
  524MOL0     C70636   6.376   2.671   6.229  0.7421  0.2094  0.1552
  524MOL0     C70637   6.420   2.729   6.348  0.9452  0.6878 -0.4258
  524MOL0     C70638   6.545   2.695   6.401 -0.5918  0.1682  0.3671
  524MOL0     C70639   6.630   2.608   6.330 -0.5006 -0.2179  0.0072
  524MOL0     O70640   6.752   2.572   6.387 -0.3542  0.1464  0.1768
  524MOL0     C70641   6.861   2.608   6.298 -0.0823  0.3382 -0.0083
  524MOL0     C70642   6.958   2.494   6.328  0.2842  0.2401  0.3247
  524MOL0     C70643   7.078   2.521   6.240 -0.7425  0.4574  0.1016
  524MOL0     C70644   7.199   2.416   6.270 -0.0522  0.0777  0.7251
  524MOL0     C70645   7.321   2.458   6.188  0.3992 -0.1850  0.8568
  524MOL0     C70646   7.443   2.368   6.202 -0.5683 -0.5516 -0.2816
  524MOL0     C70647   7.542   2.417   6.098  0.0233  0.4461 -1.1520
  524MOL0     C70648   7.691   2.413   6.145  0.0517  0.0325 -0.2332
  524MOL0    Cl70649   7.804   2.405   6.006 -0.0363 -0.2594 -0.8168
  524MOL0     C70650   6.584   2.544   6.216  0.2887 -0.5260 -0.2014
  524MOL0     C70651   6.456   2.569   6.163 -0.0020 -0.3486 -0.1390
  524MOL0     O70652   6.343   2.843   5.981 -0.0381  0.9505 -0.3179
  524MOL0     C70653   6.023   2.674   5.988 -0.2719 -0.7458  0.2882
  524MOL0     C70654   5.911   2.664   5.902  0.0823 -0.3160 -0.9356
  524MOL0     N70655   5.435   2.296   5.669  0.8222 -0.8312  0.0549
  524MOL0     N70656   5.430   2.219   5.569 -0.5910  1.2743 -0.6851
  524MOL0     C70657   4.564   2.051   5.830 -0.3401  0.4891 -0.1998
  524MOL0     C70658   4.558   2.143   5.940  0.3153  0.4760  0.1311
  524MOL0     C70659   4.380   2.468   6.195  0.2286 -1.3193 -0.0128
  524MOL0     C70660   4.479   2.575   6.183  0.5957  0.4367 -0.3580
  524MOL0     C70661   4.467   2.683   6.261  0.3064 -0.2669  0.5673
  524MOL0     C70662   4.376   2.686   6.368  0.3909  0.2990 -0.3123
  524MOL0     O70663   4.383   2.808   6.435 -0.0625  0.4645 -0.3137
  524MOL0     C70664   4.300   2.833   6.545  0.2992 -0.3042  0.3828
  524MOL0     C70665   4.305   2.988   6.565  0.2673 -0.3749  0.6674
  524MOL0     C70666   4.437   3.027   6.620 -0.3164  0.1226 -0.6676
  524MOL0     C70667   4.464   3.180   6.592  0.2180  0.9257 -0.0939
  524MOL0     C70668   4.580   3.226   6.671  0.2302  0.3829  0.4724
  524MOL0     C70669   4.676   3.257   6.731  0.0477  0.0016 -0.3659
  524MOL0     C70670   4.286   2.585   6.384 -0.3152  1.1175 -0.3802
  524MOL0     C70671   4.285   2.474   6.298  0.6701 -0.2601 -0.0174
  524MOL0     C70672   4.183   2.362   6.330  0.4629 -0.8463  0.7386
  524MOL0     H70673   4.371   2.375   5.769 -1.7705 -0.3646  0.7774
  524MOL0     H70674   4.413   2.217   5.586 -1.5633 -1.3600  0.6410
  524MOL0     H70675   4.545   1.807   5.692 -0.6874  2.8388  1.1099
  524MOL0     H70676   4.560   1.811   5.519  1.0687 -0.7195  0.1001
  524MOL0     H70677   4.751   1.759   5.606  1.1340  0.0973 -0.4037
  524MOL0     H70678   4.776   1.893   5.707 -3.5983 -1.6672  1.2047
  524MOL0     H70679   4.759   2.043   5.489 -0.6763 -1.2740  0.0070
  524MOL0     H70680   4.752   1.891   5.401  0.8625 -2.3694 -0.2603
  524MOL0     H70681   4.977   1.995   5.588  2.9454  3.1724 -2.0411
  524MOL0     H70682   4.986   1.846   5.489 -1.0902  0.1797 -1.0476
  524MOL0     H70683   5.014   1.971   5.295  3.1771 -3.0450  0.8582
  524MOL0     H70684   4.948   2.119   5.372  3.6128  1.2149 -4.5359
  524MOL0     H70685   5.142   2.125   5.521 -1.2994 -0.6537  0.3763
  524MOL0     H70686   5.214   1.993   5.462 -1.1531  0.3496  0.0495
  524MOL0     H70687   5.147   2.258   5.314 -2.3363 -0.8096 -1.1971
  524MOL0     H70688   5.192   2.105   5.230 -0.6993 -2.1273  1.9188
  524MOL0     H70689   5.392   2.094   5.357  0.1853  0.0399  0.2612
  524MOL0     H70690   5.386   2.228   5.241 -1.1432 -0.8724 -0.9194
  524MOL0     H70691   5.298   2.482   5.425 -0.8628 -0.1274  0.7669
  524MOL0     H70692   5.344   2.627   5.652 -0.5684 -0.7290  0.3505
  524MOL0     H70693   5.343   2.520   5.798  1.2922  1.7258  1.7976
  524MOL0     H70694   5.544   2.649   5.815  2.2099 -1.6488  0.9235
  524MOL0     H70695   5.596   2.491   5.764 -2.2257 -1.2942  0.1905
  524MOL0     H70696   5.534   2.733   5.596  1.3825  2.3477  0.8476
  524MOL0     H70697   5.586   2.567   5.535 -2.0658 -1.8969  2.9044
  524MOL0     H70698   5.762   2.736   5.526  0.6188  0.5925  0.0198
  524MOL0     H70699   5.806   2.604   5.630  0.9328 -0.0048  2.6674
  524MOL0     H70700   5.980   2.908   5.680  1.2927 -0.7619 -0.2799
  524MOL0     H70701   6.194   2.920   5.819  0.0072 -0.4375  0.7881
  524MOL0     H70702   6.339   2.779   6.399 -0.7576  0.0097 -2.2942
  524MOL0     H70703   6.576   2.745   6.493 -1.0613 -0.1696  0.7132
  524MOL0     H70704   6.828   2.603   6.194 -1.2224 -0.9244  0.3789
  524MOL0     H70705   6.912   2.699   6.329 -0.1534  0.2050  0.5148
  524MOL0     H70706   6.981   2.501   6.435 -1.8805 -0.0856  0.8697
  524MOL0     H70707   6.905   2.400   6.308 -1.0951  1.1216 -0.3367
  524MOL0     H70708   7.075   2.515   6.131  0.4849 -1.5656  0.1268
  524MOL0     H70709   7.123   2.620   6.253 -0.5983  0.4000  0.0556
  524MOL0     H70710   7.156   2.320   6.241 -2.1441  0.9727  0.6845
  524MOL0     H70711   7.219   2.429   6.377 -0.6179 -2.1418  1.1614
  524MOL0     H70712   7.349   2.554   6.233  1.6591 -0.1502  0.0648
  524MOL0     H70713   7.303   2.464   6.080  0.7463  2.9845  0.8948
  524MOL0     H70714   7.481   2.366   6.305  1.0260 -0.6587 -0.8472
  524MOL0     H70715   7.420   2.262   6.193  0.8589 -0.7047 -3.9030
  524MOL0     H70716   7.518   2.516   6.059 -3.5836  0.2813  0.2779
  524MOL0     H70717   7.534   2.350   6.012  0.5145 -0.9738 -0.1118
  524MOL0     H70718   7.716   2.499   6.208  0.6254  0.5711 -1.1640
  524MOL0     H70719   7.711   2.321   6.200  2.6603  0.2736 -0.6235
  524MOL0     H70720   6.645   2.472   6.161 -0.3612  0.2180 -1.9699
  524MOL0     H70721   6.425   2.515   6.074 -0.2512  0.5585 -0.6140
  524MOL0     H70722   6.029   2.606   6.073 -2.0443 -0.8598  0.3680
  524MOL0     H70723   5.832   2.592   5.920  0.1460 -1.4644 -4.4753
  524MOL0     H70724   4.626   1.962   5.833  0.0113  0.5782 -2.4382
  524MOL0     H70725   4.612   2.131   6.034  1.7104  0.1092 -0.6907
  524MOL0     H70726   4.560   2.591   6.113  0.2817  1.5855 -0.4931
  524MOL0     H70727   4.525   2.772   6.245 -0.6961 -0.0804 -2.7205
  524MOL0     H70728   4.331   2.768   6.628 -2.8436 -1.9601  0.4166
  524MOL0     H70729   4.199   2.805   6.515  1.2210 -0.1369 -3.3614
  524MOL0     H70730   4.213   3.021   6.615  0.4217  0.8240  0.2022
  524MOL0     H70731   4.285   3.034   6.468 -2.6041  0.5914  1.6069
  524MOL0     H70732   4.522   2.968   6.586 -1.1823 -1.0251 -0.8965
  524MOL0     H70733   4.434   3.004   6.727 -0.8211 -1.5904 -1.0291
  524MOL0     H70734   4.479   3.198   6.485 -2.5987  1.2005 -0.5289
  524MOL0     H70735   4.380   3.248   6.608 -1.6474 -1.3390  0.2453
  524MOL0     H70736   4.756   3.284   6.797 -2.0183  1.5537  1.6600
  524MOL0     H70737   4.209   2.595   6.460  2.5117 -0.3784  2.9440
  524MOL0     H70738   4.168   2.376   6.437  1.5066 -1.7138  1.0203
  524MOL0     H70739   4.090   2.380   6.277 -0.5565 -3.7482  1.3534
  524MOL0     H70740   4.227   2.266   6.302 -0.8296 -0.6274 -2.4698
  525MOL0     O70741   1.564   4.247  11.415 -0.1417  0.0747 -0.3797
  525MOL0     C70742   1.591   4.356  11.366 -0.3062  0.0416  0.6773
  525MOL0     O70743   1.712   4.403  11.361 -0.5130 -0.2523 -0.2043
  525MOL0     C70744   1.821   4.327  11.415 -0.1018 -0.3412 -0.5263
  525MOL0     C70745   1.827   4.279  11.551  0.5517  0.3547  0.3161
  525MOL0     C70746   1.947   4.223  11.592  0.7861  0.0630  0.4271
  525MOL0     C70747   2.056   4.213  11.501  0.6206  0.5163  1.1592
  525MOL0     O70748   2.180   4.158  11.518 -0.4990 -0.1808  0.3373
  525MOL0     C70749   2.220   4.104  11.639 -0.8564  0.5345 -0.8573
  525MOL0     C70750   2.359   4.038  11.637  0.1578 -0.0820 -0.0148
  525MOL0     C70751   2.470   4.141  11.638 -0.1701  0.3296 -0.7623
  525MOL0     C70752   2.602   4.069  11.671  0.3060  0.1856 -0.2903
  525MOL0     C70753   2.704   4.177  11.713 -0.1326  0.6036  0.1124
  525MOL0     C70754   2.839   4.122  11.722 -1.1683 -0.6646 -0.1085
  525MOL0     C70755   2.954   4.224  11.746 -0.3519  0.3692 -0.0123
  525MOL0     C70756   2.940   4.304  11.865 -0.7145 -0.1690  0.0430
  525MOL0     N70757   2.859   4.425  11.839  0.3835  0.0730 -0.0154
  525MOL0     C70758   2.904   4.547  11.785  0.6102  0.6833  0.5096
  525MOL0     C70759   2.806   4.636  11.817 -0.1981  0.4567  0.2718
  525MOL0     C70760   2.824   4.787  11.785  0.6851  0.3996 -0.3835
  525MOL0     C70761   2.944   4.857  11.854  0.8761  0.3516  0.1604
  525MOL0     C70762   2.977   4.994  11.782  0.0578 -0.1396 -0.7284
  525MOL0     C70763   3.120   5.002  11.728  0.3080 -0.7058  0.2855
  525MOL0     O70764   3.216   4.987  11.838 -0.2165  0.2520 -0.7209
  525MOL0     C70765   3.327   4.922  11.802 -1.2021  0.5935 -0.9123
  525MOL0     C70766   3.409   4.861  11.905  0.2589  0.3348  0.2644
  525MOL0     C70767   3.536   4.800  11.877 -1.2041 -0.5260 -0.2285
  525MOL0     C70768   3.584   4.787  11.745 -0.4395 -0.1129 -0.0313
  525MOL0     C70769   3.717   4.723  11.712 -0.3166 -0.5533 -0.7979
  525MOL0     O70770   3.744   4.710  11.582  0.6823  0.5821  0.1496
  525MOL0     C70771   3.874   4.682  11.543 -0.9940  0.5636  0.2510
  525MOL0     C70772   3.955   4.787  11.501  0.6414  0.2340  0.2103
  525MOL0     C70773   4.085   4.756  11.456  0.0653 -0.3512 -0.1444
  525MOL0     C70774   4.132   4.628  11.442 -0.1064 -0.0550 -0.6312
  525MOL0     O70775   4.259   4.618  11.392 -0.3166 -0.4448 -0.1318
  525MOL0     C70776   4.336   4.512  11.451  0.0674 -0.6408  0.0242
  525MOL0     C70777   4.483   4.520  11.412 -0.5276  0.0312 -0.5949
  525MOL0     C70778   4.571   4.423  11.496  0.1898 -0.0875  0.5833
  525MOL0     C70779   4.697   4.383  11.427  0.2220 -0.0699  1.0388
  525MOL0     C70780   4.800   4.299  11.495  0.3546 -0.1490  0.8367
  525MOL0     C70781   4.754   4.152  11.485  0.2684 -0.2684 -1.1205
  525MOL0     C70782   4.852   4.056  11.554  0.3068  0.5407 -0.2025
  525MOL0     C70783   4.964   4.019  11.472  0.6107 -0.6484  1.0960
  525MOL0    Cl70784   5.049   3.882  11.558  0.0914 -0.2975 -0.0382
  525MOL0     C70785   4.054   4.521  11.481  0.7718 -0.6543 -0.9072
  525MOL0     C70786   3.921   4.547  11.523 -0.4018 -0.0664 -0.0523
  525MOL0     O70787   3.783   4.683  11.808 -0.6317 -0.7442 -0.3616
  525MOL0     C70788   3.518   4.872  11.655 -0.4178  0.5375 -0.8381
  525MOL0     C70789   3.391   4.927  11.678  0.2004  0.2630  0.2027
  525MOL0     N70790   2.710   4.567  11.877  0.2559  0.5516  0.3667
  525MOL0     N70791   2.736   4.445  11.901  0.0807 -0.2057 -0.0838
  525MOL0     C70792   2.042   4.265  11.373 -0.3677  0.8926  0.3590
  525MOL0     C70793   1.928   4.317  11.336  0.3941  0.9975  0.1890
  525MOL0     C70794   1.486   4.436  11.298 -0.8819  0.3310 -0.7327
  525MOL0     C70795   1.524   4.564  11.249  0.3238  0.2285  0.7167
  525MOL0     C70796   1.422   4.641  11.188  0.3785  0.5148  0.4812
  525MOL0     C70797   1.297   4.588  11.151 -0.8302 -0.4827  0.0491
  525MOL0     O70798   1.213   4.674  11.074 -0.6131  0.4296 -0.0273
  525MOL0     C70799   1.069   4.659  11.071  0.2270 -0.5502 -0.5092
  525MOL0     C70800   1.013   4.775  10.988  0.0093  0.1508  0.2339
  525MOL0     C70801   0.882   4.825  11.033 -0.5293  0.5771 -0.0367
  525MOL0     C70802   0.846   4.957  10.964 -0.5995  0.0295 -0.0428
  525MOL0     C70803   0.713   4.999  11.006 -0.0042 -0.4222 -0.2209
  525MOL0     C70804   0.604   5.042  11.060 -0.7153  0.9745  0.0801
  525MOL0     C70805   1.265   4.464  11.187  0.1220 -0.0501  0.0848
  525MOL0     C70806   1.355   4.393  11.272  0.2379  0.6957 -0.6606
  525MOL0     C70807   1.289   4.257  11.316  0.0928  0.2563 -0.5562
  525MOL0     H70808   1.734   4.287  11.607 -1.9777 -1.6164 -3.2111
  525MOL0     H70809   1.953   4.188  11.694 -1.4576  2.7209  1.6127
  525MOL0     H70810   2.215   4.178  11.719 -2.3100  0.4475 -0.8403
  525MOL0     H70811   2.149   4.030  11.678 -1.3886  1.2377 -0.4739
  525MOL0     H70812   2.355   3.985  11.542 -2.3278  0.3939 -0.2511
  525MOL0     H70813   2.365   3.965  11.719 -2.0699  3.0296  3.2685
  525MOL0     H70814   2.463   4.209  11.723  1.0268 -2.2507  1.5292
  525MOL0     H70815   2.484   4.193  11.542 -1.9051  5.3407  1.3415
  525MOL0     H70816   2.597   3.993  11.750  1.0399 -1.3145 -1.6257
  525MOL0     H70817   2.634   4.010  11.585  2.7521 -0.3339  0.9006
  525MOL0     H70818   2.711   4.255  11.637 -1.6053  0.6590 -0.0079
  525MOL0     H70819   2.672   4.220  11.808 -1.1080  0.1177  0.0190
  525MOL0     H70820   2.830   4.039  11.792 -0.9453 -0.3318  0.3237
  525MOL0     H70821   2.865   4.076  11.627  0.2571 -1.2090  0.5206
  525MOL0     H70822   2.962   4.288  11.658  2.0945  0.9051  0.5261
  525MOL0     H70823   3.040   4.157  11.754  0.3539  1.1162 -1.1112
  525MOL0     H70824   2.893   4.238  11.938  0.7459 -2.1893 -0.7356
  525MOL0     H70825   3.039   4.325  11.907 -0.5020  1.5543 -1.2311
  525MOL0     H70826   2.999   4.562  11.735  1.3019 -0.4571  1.4080
  525MOL0     H70827   2.827   4.805  11.677 -3.1635 -1.4226 -0.9627
  525MOL0     H70828   2.731   4.841  11.806  1.9049  2.1807  0.7334
  525MOL0     H70829   2.920   4.877  11.959  0.9608 -1.4875  0.5735
  525MOL0     H70830   3.030   4.789  11.852  0.5065 -0.1212  0.1436
  525MOL0     H70831   2.970   5.068  11.862  0.3634 -0.3597 -0.4952
  525MOL0     H70832   2.903   5.019  11.705 -1.2980  3.9790  1.6399
  525MOL0     H70833   3.123   5.099  11.678 -2.0874 -1.1971 -0.9261
  525MOL0     H70834   3.128   4.930  11.646 -1.1476 -2.3094  1.4902
  525MOL0     H70835   3.379   4.863  12.010  1.0446 -2.1707  0.6006
  525MOL0     H70836   3.592   4.759  11.960 -0.2311  3.3335  1.2115
  525MOL0     H70837   3.914   4.887  11.489 -0.1128 -0.2300 -1.4703
  525MOL0     H70838   4.159   4.831  11.432  1.8870 -0.1216  4.9646
  525MOL0     H70839   4.339   4.515  11.560 -0.8642 -0.3072  0.0454
  525MOL0     H70840   4.290   4.419  11.418 -2.2592  1.2975 -2.6390
  525MOL0     H70841   4.492   4.480  11.310 -0.9460 -0.8834 -0.2826
  525MOL0     H70842   4.515   4.623  11.427 -0.0292 -0.0974 -0.7570
  525MOL0     H70843   4.611   4.468  11.587  2.1578 -0.7101  0.0754
  525MOL0     H70844   4.516   4.332  11.521  1.4548 -1.2957 -0.8314
  525MOL0     H70845   4.742   4.473  11.384 -0.9647 -1.2524 -3.1100
  525MOL0     H70846   4.659   4.334  11.337 -3.2785  2.2305  1.0837
  525MOL0     H70847   4.814   4.320  11.602  2.5383 -0.8071  0.7190
  525MOL0     H70848   4.894   4.324  11.447  0.5648 -0.2210  1.2067
  525MOL0     H70849   4.654   4.138  11.529  1.0299 -3.4029 -0.0952
  525MOL0     H70850   4.741   4.133  11.378 -1.4343  0.9490 -1.1732
  525MOL0     H70851   4.792   3.968  11.581  1.5994 -0.0662  0.8283
  525MOL0     H70852   4.898   4.088  11.648 -1.1823 -0.5542  0.9633
  525MOL0     H70853   4.931   3.995  11.371 -1.5785  1.5757  1.1718
  525MOL0     H70854   5.032   4.101  11.449 -0.6715  0.1285 -0.1076
  525MOL0     H70855   4.081   4.416  11.476  2.0830 -0.8128  3.8413
  525MOL0     H70856   3.860   4.461  11.553 -2.5215  1.8931  1.6289
  525MOL0     H70857   3.565   4.891  11.559  0.4643  1.2568 -0.2816
  525MOL0     H70858   3.345   4.985  11.598 -2.0522 -3.6081 -1.6126
  525MOL0     H70859   2.128   4.266  11.306  0.3436 -0.8620  1.2084
  525MOL0     H70860   1.921   4.362  11.237  1.0797  3.0891  1.0362
  525MOL0     H70861   1.625   4.602  11.262  0.9991 -1.3954  0.5181
  525MOL0     H70862   1.458   4.738  11.155  3.6095 -0.3601  1.1221
  525MOL0     H70863   1.032   4.657  11.173  0.2929 -2.2360 -0.4877
  525MOL0     H70864   1.041   4.570  11.014  1.2026  0.5622 -2.9081
  525MOL0     H70865   1.014   4.757  10.880  0.8212  1.0104  0.0749
  525MOL0     H70866   1.092   4.851  10.984 -0.1525  0.4178  1.7835
  525MOL0     H70867   0.898   4.826  11.141  2.8883 -2.1876 -0.3229
  525MOL0     H70868   0.803   4.757  10.999  0.6093  0.6683 -3.2486
  525MOL0     H70869   0.921   5.034  10.987  0.5295 -1.4045  1.2784
  525MOL0     H70870   0.842   4.942  10.856 -3.6784 -0.3257  0.0393
  525MOL0     H70871   0.519   5.085  11.109  0.7572  1.3925  2.4362
  525MOL0     H70872   1.164   4.429  11.170  0.1358 -0.8982  1.5905
  525MOL0     H70873   1.180   4.267  11.310 -0.0728  0.0728  1.4272
  525MOL0     H70874   1.317   4.175  11.249  3.4496 -0.0796  1.0959
  525MOL0     H70875   1.322   4.214  11.411  1.0664 -1.4367 -1.6104
  526MOL0     O70876   1.859   9.679   1.787 -0.1778  0.2129  0.1023
  526MOL0     C70877   1.835   9.695   1.908  0.1113  0.3026  0.2707
  526MOL0     O70878   1.816   9.603   2.004 -0.2464  0.3618  0.7928
  526MOL0     C70879   1.832   9.475   1.958  0.4521  0.4380  0.1711
  526MOL0     C70880   1.724   9.395   1.970  1.2655  0.2619 -1.3100
  526MOL0     C70881   1.723   9.258   1.962 -1.4864  0.1594  0.5176
  526MOL0     C70882   1.849   9.197   1.936 -1.2886 -0.5701 -0.0064
  526MOL0     O70883   1.863   9.061   1.936 -0.3112  0.3517  0.2443
  526MOL0     C70884   1.762   8.977   1.890  0.4590  0.9666  0.6044
  526MOL0     C70885   1.831   8.838   1.870 -0.3172 -0.5490  0.0040
  526MOL0     C70886   1.743   8.741   1.805  0.0108 -0.0046  0.8631
  526MOL0     C70887   1.819   8.609   1.811 -0.1327  1.0499 -0.0040
  526MOL0     C70888   1.752   8.496   1.746 -0.0388 -0.3291 -0.7313
  526MOL0     C70889   1.835   8.367   1.775  0.0921  1.0197 -0.3905
  526MOL0     C70890   1.944   8.324   1.678  1.0624  0.7651  0.1640
  526MOL0     C70891   1.891   8.285   1.543  0.7417 -0.1651 -0.6251
  526MOL0     N70892   1.838   8.151   1.535  0.0418  0.2041 -0.7448
  526MOL0     C70893   1.897   8.026   1.519  0.5971 -0.6631  0.6009
  526MOL0     C70894   1.797   7.929   1.515 -0.4190 -0.0977  0.5690
  526MOL0     C70895   1.818   7.779   1.488  0.5949 -0.5494  0.2551
  526MOL0     C70896   1.814   7.759   1.338  0.1857 -0.6283  0.3706
  526MOL0     C70897   1.791   7.603   1.293 -0.2974 -0.4371  0.9285
  526MOL0     C70898   1.778   7.585   1.149 -0.0488  0.1932  0.3911
  526MOL0     O70899   1.667   7.664   1.101  0.4458 -0.4199  0.0722
  526MOL0     C70900   1.601   7.627   0.983  0.5762  0.2497  0.0300
  526MOL0     C70901   1.661   7.538   0.890 -0.0314  0.8497  0.2895
  526MOL0     C70902   1.582   7.491   0.780 -0.3240  0.4326 -0.5096
  526MOL0     C70903   1.453   7.528   0.761 -0.7173 -0.5982  0.2887
  526MOL0     C70904   1.377   7.493   0.641  0.6142 -0.2301  0.3133
  526MOL0     O70905   1.422   7.372   0.578  0.9407  0.1771 -0.1520
  526MOL0     C70906   1.358   7.340   0.460  0.9272  0.0559  0.6423
  526MOL0     C70907   1.389   7.420   0.340  0.5428  0.3465 -0.2160
  526MOL0     C70908   1.320   7.385   0.216 -0.2403  0.2662  0.3214
  526MOL0     C70909   1.226   7.277   0.216 -0.3171  0.4879  1.3733
  526MOL0     O70910   1.138   7.231   0.127 -1.0130 -0.0911  0.6738
  526MOL0     C70911   1.079   7.321   0.034  0.5544 -0.5615 -0.6131
  526MOL0     C70912   1.144   7.310  -0.107  0.2920 -0.1841  0.0642
  526MOL0     C70913   1.123   7.441  -0.179  0.5640  0.3858 -0.2284
  526MOL0     C70914   1.195   7.441  -0.322  0.1459 -0.8427  0.0378
  526MOL0     C70915   1.187   7.581  -0.381  0.9763  0.4003  0.2828
  526MOL0     C70916   1.299   7.599  -0.488  0.0863 -0.3992 -0.6071
  526MOL0     C70917   1.307   7.745  -0.545  0.9573 -0.3649 -0.0799
  526MOL0     C70918   1.342   7.740  -0.692  0.0095 -0.3762  0.1885
  526MOL0    Cl70919   1.350   7.914  -0.735  0.2000 -0.2266  0.1249
  526MOL0     C70920   1.222   7.196   0.328  0.3162  0.2163 -1.4877
  526MOL0     C70921   1.282   7.223   0.445  0.2366  0.6738 -0.0638
  526MOL0     O70922   1.284   7.563   0.594  0.4547 -0.6662  0.2664
  526MOL0     C70923   1.399   7.623   0.855 -0.2479  0.4532 -0.2984
  526MOL0     C70924   1.469   7.672   0.958  0.1169  0.2512 -0.2393
  526MOL0     N70925   1.678   8.002   1.515  0.6503  0.1097  0.3491
  526MOL0     N70926   1.701   8.125   1.537  0.5597 -0.3137  0.2164
  526MOL0     C70927   1.969   9.272   1.940  0.8865 -0.1974  0.0238
  526MOL0     C70928   1.963   9.413   1.945  0.4562 -0.5390 -0.6652
  526MOL0     C70929   1.804   9.827   1.967 -0.3667 -1.2926  0.5445
  526MOL0     C70930   1.681   9.865   2.006  0.6493  0.1350 -0.6320
  526MOL0     C70931   1.653   9.991   2.065  0.3376 -0.2593  0.0091
  526MOL0     C70932   1.761  10.079   2.079  0.0563  0.0872  0.2187
  526MOL0     O70933   1.739  10.206   2.139 -0.6443  0.5859 -0.1926
  526MOL0     C70934   1.743  10.188   2.287  0.2581  0.2443  0.1721
  526MOL0     C70935   1.675  10.317   2.357 -0.3728  0.9173 -0.3172
  526MOL0     C70936   1.520  10.298   2.369 -0.9347  1.4162  0.2471
  526MOL0     C70937   1.473  10.391   2.473  0.4539 -0.7426 -1.2968
  526MOL0     C70938   1.515  10.530   2.479 -0.3179  0.1138  0.4349
  526MOL0     C70939   1.552  10.642   2.497 -1.1105  0.0034 -0.2160
  526MOL0     C70940   1.886  10.041   2.029 -0.0372  1.1375  0.0112
  526MOL0     C70941   1.910   9.918   1.971  0.5946 -0.1590 -0.4878
  526MOL0     C70942   2.052   9.898   1.917 -0.5615 -0.0107  0.1305
  526MOL0     H70943   1.632   9.451   1.982  1.7326  0.7932  0.0628
  526MOL0     H70944   1.629   9.204   1.966 -1.2869 -0.5948 -2.5866
  526MOL0     H70945   1.674   8.960   1.953  0.8717  0.6148  1.0930
  526MOL0     H70946   1.710   9.009   1.799  0.3899 -1.1548 -0.1589
  526MOL0     H70947   1.861   8.794   1.966 -1.8134 -0.6205  0.4624
  526MOL0     H70948   1.914   8.854   1.801  0.7452 -0.0313  1.3670
  526MOL0     H70949   1.721   8.770   1.702 -1.0674 -2.2805  0.3795
  526MOL0     H70950   1.645   8.729   1.851 -0.4346  4.9117  1.6605
  526MOL0     H70951   1.920   8.615   1.769  0.8577 -0.0711  2.0427
  526MOL0     H70952   1.842   8.584   1.915  2.3319 -2.1913 -1.1267
  526MOL0     H70953   1.654   8.490   1.794  0.6068 -0.0750  0.6858
  526MOL0     H70954   1.752   8.521   1.640 -3.9414  0.0580 -0.7592
  526MOL0     H70955   1.867   8.362   1.880 -0.2152 -0.4125 -0.3447
  526MOL0     H70956   1.764   8.284   1.763  1.1100  0.4179 -2.7870
  526MOL0     H70957   1.997   8.238   1.722 -2.2381 -0.7887  1.4421
  526MOL0     H70958   2.024   8.399   1.673  0.7336  1.0874 -0.3249
  526MOL0     H70959   1.817   8.357   1.505  1.4450  0.2119 -1.2998
  526MOL0     H70960   1.966   8.285   1.464  0.2225 -3.1182 -1.2264
  526MOL0     H70961   2.003   8.006   1.508  0.9098  0.3006  1.6514
  526MOL0     H70962   1.901   7.731   1.541 -0.1997  0.2768  2.3796
  526MOL0     H70963   1.727   7.723   1.514  1.6487 -1.8864  1.1987
  526MOL0     H70964   1.730   7.822   1.307  0.6028  0.9610  2.2950
  526MOL0     H70965   1.906   7.789   1.288 -0.8858 -3.9010 -4.2455
  526MOL0     H70966   1.715   7.557   1.357  0.6739 -1.5577  1.3161
  526MOL0     H70967   1.882   7.549   1.322 -1.6607 -1.7976  2.9667
  526MOL0     H70968   1.771   7.477   1.130  1.3949  0.4429 -1.9906
  526MOL0     H70969   1.875   7.610   1.104  0.2925 -0.5122  0.7093
  526MOL0     H70970   1.764   7.503   0.901  0.4714  1.1720 -2.5802
  526MOL0     H70971   1.622   7.419   0.709  1.0755  2.3630 -1.7864
  526MOL0     H70972   1.460   7.503   0.342  3.1899 -1.7741 -0.5659
  526MOL0     H70973   1.322   7.455   0.133 -1.7158 -0.1042 -0.0481
  526MOL0     H70974   0.969   7.319   0.033  0.5335  0.0425 -1.5853
  526MOL0     H70975   1.099   7.419   0.078 -1.5710 -1.0723  1.7000
  526MOL0     H70976   1.251   7.301  -0.085  1.2569  0.9116 -3.4440
  526MOL0     H70977   1.109   7.225  -0.166  1.6334  0.4903 -1.8207
  526MOL0     H70978   1.016   7.452  -0.196  0.5154 -0.0622 -0.2383
  526MOL0     H70979   1.161   7.525  -0.121 -0.8312  2.8591 -2.6979
  526MOL0     H70980   1.143   7.374  -0.392 -1.4181 -1.6206  1.8401
  526MOL0     H70981   1.300   7.412  -0.311 -0.2321 -2.0914  0.5763
  526MOL0     H70982   1.194   7.658  -0.303  0.9001  1.1802 -0.4665
  526MOL0     H70983   1.088   7.590  -0.426 -0.6135 -0.9683  3.1953
  526MOL0     H70984   1.394   7.577  -0.437 -0.6719  1.5781  1.8609
  526MOL0     H70985   1.271   7.533  -0.570  0.4972 -0.5387 -0.6406
  526MOL0     H70986   1.375   7.805  -0.484 -1.1114  0.5752  1.4761
  526MOL0     H70987   1.207   7.791  -0.543  0.8072 -0.6794 -0.2915
  526MOL0     H70988   1.436   7.685  -0.708  0.0738 -0.7787  1.7960
  526MOL0     H70989   1.265   7.689  -0.750 -0.5725  0.5617  0.1086
  526MOL0     H70990   1.163   7.107   0.307 -0.0758  0.6979 -2.4981
  526MOL0     H70991   1.286   7.154   0.529 -1.8115 -0.8329 -1.1356
  526MOL0     H70992   1.293   7.647   0.850 -1.5820 -4.6217 -1.2223
  526MOL0     H70993   1.422   7.739   1.029  0.3735  2.8415 -2.3479
  526MOL0     H70994   2.061   9.220   1.915  0.5901 -0.8549  0.2717
  526MOL0     H70995   2.048   9.480   1.945 -0.2095  0.4259  1.5622
  526MOL0     H70996   1.606   9.788   1.997 -1.3220  1.9661 -0.4909
  526MOL0     H70997   1.551  10.024   2.086  0.7294  1.0321 -0.0234
  526MOL0     H70998   1.844  10.186   2.329  1.6734  0.2295 -2.9352
  526MOL0     H70999   1.696  10.094   2.317  0.0247  0.3529  0.1510
  526MOL0     H71000   1.691  10.410   2.302 -3.1335  0.9939 -1.1378
  526MOL0     H71001   1.722  10.334   2.454  1.5155 -0.0806 -1.0077
  526MOL0     H71002   1.488  10.196   2.392 -1.9660  0.2669 -4.9207
  526MOL0     H71003   1.464  10.319   2.277 -0.4200 -2.3110 -1.0656
  526MOL0     H71004   1.364  10.397   2.460  0.4616  3.2693 -0.6029
  526MOL0     H71005   1.490  10.342   2.569  1.1241 -2.1741 -2.1038
  526MOL0     H71006   1.611  10.730   2.518 -0.4772 -1.0615  3.0635
  526MOL0     H71007   1.962  10.118   2.026 -2.0647  3.2422 -2.6176
  526MOL0     H71008   2.113   9.987   1.930  0.5993 -0.7621 -0.0340
  526MOL0     H71009   2.102   9.817   1.972  2.5016  2.0300  0.5625
  526MOL0     H71010   2.056   9.885   1.809 -0.5324 -1.5979  0.2908
  527MOL0     O71011   3.545   9.617   6.179  0.1324  0.4486 -1.1743
  527MOL0     C71012   3.537   9.628   6.060 -0.1221  0.9124  0.0937
  527MOL0     O71013   3.618   9.712   5.983 -0.2168  0.0621 -0.2999
  527MOL0     C71014   3.721   9.789   6.036  0.3856  0.4758 -0.1000
  527MOL0     C71015   3.697   9.865   6.152  0.5595 -0.6570  0.5060
  527MOL0     C71016   3.805   9.930   6.211 -0.7262 -0.0970  0.2847
  527MOL0     C71017   3.935   9.923   6.162 -0.0842  0.8817 -0.7343
  527MOL0     O71018   4.034   9.992   6.222 -0.2605 -0.2322 -0.7538
  527MOL0     C71019   4.107   9.906   6.323  0.3506 -0.5234 -0.0353
  527MOL0     C71020   4.202   9.997   6.392 -0.2170 -0.1449 -0.0785
  527MOL0     C71021   4.332  10.022   6.302  0.1632  0.4613  0.2843
  527MOL0     C71022   4.432  10.107   6.387  0.3096 -0.2716 -1.3886
  527MOL0     C71023   4.573  10.106   6.334 -0.5964 -0.5054  1.6859
  527MOL0     C71024   4.660   9.987   6.377  0.2155 -0.3056 -0.2735
  527MOL0     C71025   4.806   9.984   6.340 -0.4876 -1.1200  0.2904
  527MOL0     C71026   4.893  10.087   6.422  0.6989  0.3662  0.0248
  527MOL0     N71027   5.034  10.068   6.412  0.2046 -0.1306  0.0570
  527MOL0     C71028   5.098   9.953   6.441  0.0943 -0.1981  0.6083
  527MOL0     C71029   5.228   9.969   6.401  0.5147 -1.6023  0.4073
  527MOL0     C71030   5.331   9.859   6.427 -0.1686  0.1999  0.0478
  527MOL0     C71031   5.462   9.873   6.342  0.6492 -0.1855 -0.1157
  527MOL0     C71032   5.541   9.750   6.387  0.3935  1.0669 -0.2789
  527MOL0     C71033   5.681   9.761   6.327 -0.5355  0.2873 -0.4771
  527MOL0     O71034   5.760   9.647   6.374  0.1820  0.2701  0.5364
  527MOL0     C71035   5.872   9.621   6.294 -0.2489 -0.2000  0.5263
  527MOL0     C71036   5.922   9.490   6.295  0.1275  0.4540  0.5613
  527MOL0     C71037   6.033   9.453   6.213 -0.4504  0.8266 -1.0244
  527MOL0     C71038   6.117   9.543   6.158  0.4476  0.5977  0.1314
  527MOL0     C71039   6.237   9.508   6.088  0.0721  0.1484  0.0241
  527MOL0     O71040   6.283   9.379   6.103  0.1835 -0.6554  0.3920
  527MOL0     C71041   6.410   9.349   6.046  0.0809 -0.3357  0.3104
  527MOL0     C71042   6.425   9.324   5.900 -1.4704 -1.1406 -0.2751
  527MOL0     C71043   6.551   9.267   5.858  1.0759  0.6635 -0.3024
  527MOL0     C71044   6.650   9.245   5.959 -0.3281  0.6095  0.7893
  527MOL0     O71045   6.770   9.187   5.913 -0.1359 -0.2209 -0.5636
  527MOL0     C71046   6.832   9.243   5.795  0.3354 -0.1018  1.2252
  527MOL0     C71047   6.979   9.213   5.792  0.5262 -0.1381  1.3544
  527MOL0     C71048   7.066   9.277   5.687  0.1777 -0.2733  0.4089
  527MOL0     C71049   7.022   9.229   5.546  0.4513 -0.3270  0.5573
  527MOL0     C71050   6.938   9.326   5.474 -0.1846 -0.6827  0.2591
  527MOL0     C71051   6.867   9.262   5.359  0.4351 -0.5035  0.7991
  527MOL0     C71052   6.954   9.228   5.237  0.3226 -1.2925  0.1785
  527MOL0     C71053   6.985   9.347   5.143 -1.3457 -0.2786  0.4202
  527MOL0    Cl71054   7.055   9.281   4.991  0.0914  0.4408 -0.0558
  527MOL0     C71055   6.642   9.282   6.090  0.1637 -0.5096  0.1206
  527MOL0     C71056   6.516   9.317   6.137 -0.7124  0.1866 -0.5376
  527MOL0     O71057   6.293   9.596   6.023  0.4211 -0.2058  0.6414
  527MOL0     C71058   6.078   9.679   6.174  0.6697 -0.1324  0.6993
  527MOL0     C71059   5.959   9.719   6.240 -0.3506  0.1489  0.8147
  527MOL0     N71060   5.235  10.095   6.343  0.3077 -0.1890 -0.0719
  527MOL0     N71061   5.120  10.149   6.338  0.9170  0.1651  0.1768
  527MOL0     C71062   3.959   9.841   6.049 -0.2069  0.8063  0.2890
  527MOL0     C71063   3.851   9.777   5.983  0.0789 -0.5259 -0.2679
  527MOL0     C71064   3.431   9.553   5.983  0.2580  0.3876  0.4410
  527MOL0     C71065   3.448   9.542   5.844  0.8594  0.4161  0.3489
  527MOL0     C71066   3.344   9.481   5.766 -0.6526  0.4723 -0.2200
  527MOL0     C71067   3.239   9.421   5.832  0.2816  0.0411 -1.5792
  527MOL0     O71068   3.138   9.355   5.758 -0.0001 -0.7538  0.1945
  527MOL0     C71069   2.999   9.374   5.795 -0.1677 -0.1035 -0.3751
  527MOL0     C71070   2.897   9.336   5.695 -0.3786  0.6039  0.6815
  527MOL0     C71071   2.902   9.185   5.666 -0.0607 -0.5938 -0.6764
  527MOL0     C71072   2.828   9.147   5.540 -0.2052 -0.3844  0.0840
  527MOL0     C71073   2.851   9.001   5.525 -0.0141 -0.3484 -0.3564
  527MOL0     C71074   2.855   8.885   5.509 -0.2869  0.3197 -0.4799
  527MOL0     C71075   3.220   9.438   5.968 -0.0856  0.0091 -0.2788
  527MOL0     C71076   3.306   9.513   6.043 -0.1834 -0.4925 -0.0458
  527MOL0     C71077   3.281   9.526   6.189  0.7601 -0.1419 -0.2481
  527MOL0     H71078   3.602   9.884   6.201 -0.0756  4.0224 -1.9829
  527MOL0     H71079   3.788  10.000   6.292  4.3224  1.7986  0.0294
  527MOL0     H71080   4.042   9.868   6.401  0.7112  0.5844  0.8297
  527MOL0     H71081   4.161   9.821   6.281  2.2878  0.1953  0.8694
  527MOL0     H71082   4.249   9.951   6.480  2.9498  1.3806 -0.8552
  527MOL0     H71083   4.150  10.082   6.437  1.1768 -0.3128  1.9784
  527MOL0     H71084   4.312  10.079   6.211 -2.2400 -0.7187 -0.0134
  527MOL0     H71085   4.377   9.925   6.281 -4.0919 -2.0059  1.3371
  527MOL0     H71086   4.396  10.210   6.381 -2.8190 -0.9000  2.2310
  527MOL0     H71087   4.436  10.076   6.492  1.3901 -0.0843 -1.3661
  527MOL0     H71088   4.564  10.109   6.225 -1.1098  0.9188  1.7385
  527MOL0     H71089   4.623  10.198   6.364 -2.6684  0.8931  1.0774
  527MOL0     H71090   4.641   9.981   6.484 -2.0985 -3.4376 -0.7235
  527MOL0     H71091   4.622   9.899   6.323  1.8183 -1.0852 -0.1743
  527MOL0     H71092   4.822  10.013   6.236  0.4150  2.9787  1.4176
  527MOL0     H71093   4.842   9.880   6.331 -0.4915 -1.3377  2.2822
  527MOL0     H71094   4.866  10.188   6.387  1.2302 -0.4658 -3.0883
  527MOL0     H71095   4.869  10.063   6.526 -1.4130  1.5380 -0.1253
  527MOL0     H71096   5.053   9.868   6.491 -0.6633  0.0225  0.3165
  527MOL0     H71097   5.362   9.862   6.532  0.4282  0.9311 -0.1440
  527MOL0     H71098   5.279   9.764   6.410  1.1814 -1.2648  3.2096
  527MOL0     H71099   5.455   9.870   6.233  2.7395  0.4110 -0.3164
  527MOL0     H71100   5.515   9.965   6.369  0.1017 -0.7927  3.4907
  527MOL0     H71101   5.489   9.662   6.347  0.1614  1.2851 -0.4569
  527MOL0     H71102   5.535   9.732   6.495  3.5844 -0.8757 -0.2968
  527MOL0     H71103   5.712   9.858   6.368 -1.5177  0.3700  0.1034
  527MOL0     H71104   5.672   9.760   6.218  1.5638  3.5276 -0.8265
  527MOL0     H71105   5.868   9.407   6.338  2.5120 -3.4540 -3.1249
  527MOL0     H71106   6.044   9.345   6.211 -2.4343  0.4205  2.5260
  527MOL0     H71107   6.352   9.339   5.822 -2.2047  1.2672  0.7929
  527MOL0     H71108   6.576   9.260   5.753 -3.7927  1.8064 -1.7544
  527MOL0     H71109   6.788   9.199   5.705 -0.8436 -1.6194  2.4741
  527MOL0     H71110   6.827   9.352   5.809 -0.0542  0.4708 -2.4664
  527MOL0     H71111   7.023   9.247   5.887  0.3873 -4.0219  2.9846
  527MOL0     H71112   6.998   9.105   5.791  0.9609 -0.0811 -0.8736
  527MOL0     H71113   7.096   9.382   5.692  0.8316 -0.3527 -1.2044
  527MOL0     H71114   7.162   9.229   5.707  0.8217 -0.4725 -2.7185
  527MOL0     H71115   6.973   9.131   5.550 -1.0888  0.0609 -3.4631
  527MOL0     H71116   7.112   9.220   5.484 -0.1563  2.2316 -0.8330
  527MOL0     H71117   7.003   9.412   5.453  0.4256  0.1480  4.5390
  527MOL0     H71118   6.864   9.366   5.544 -0.8639 -1.2152 -0.1415
  527MOL0     H71119   6.801   9.180   5.388 -0.7507  0.7185  1.7348
  527MOL0     H71120   6.795   9.340   5.333  2.0711  1.0115  0.6498
  527MOL0     H71121   6.901   9.152   5.179 -0.2177  0.3974 -1.6412
  527MOL0     H71122   7.050   9.192   5.275  0.9061  1.3277  1.4614
  527MOL0     H71123   6.884   9.385   5.122 -1.3425 -0.3766  0.2318
  527MOL0     H71124   7.054   9.425   5.176  0.2469 -1.2261 -0.5751
  527MOL0     H71125   6.723   9.248   6.153  0.6479  0.8447  0.2467
  527MOL0     H71126   6.492   9.329   6.242 -1.9208  3.4228 -1.0528
  527MOL0     H71127   6.131   9.762   6.129 -1.3803  0.3162 -1.0790
  527MOL0     H71128   5.950   9.827   6.245  0.3779  0.3228 -0.9180
  527MOL0     H71129   4.060   9.843   6.011  0.6412  0.5635  2.4092
  527MOL0     H71130   3.873   9.705   5.905 -0.9733 -1.8045  0.5649
  527MOL0     H71131   3.538   9.575   5.794  1.1982 -0.9624 -0.0019
  527MOL0     H71132   3.358   9.472   5.659  0.9476 -1.3713  0.0993
  527MOL0     H71133   2.998   9.481   5.815  0.8092  0.4082 -2.7557
  527MOL0     H71134   2.972   9.320   5.886  0.9628 -1.8461 -1.0072
  527MOL0     H71135   2.905   9.396   5.604 -0.5330  2.3232  1.7608
  527MOL0     H71136   2.801   9.354   5.745 -0.7929 -0.8794  0.4723
  527MOL0     H71137   2.874   9.132   5.758  3.1430 -1.6392 -0.1795
  527MOL0     H71138   3.008   9.157   5.660  0.2135  0.3619 -0.4626
  527MOL0     H71139   2.722   9.173   5.548  0.2537  2.6909 -1.9156
  527MOL0     H71140   2.868   9.193   5.449  0.7333 -3.9170 -1.4434
  527MOL0     H71141   2.837   8.780   5.495 -5.5648  0.9582 -0.6354
  527MOL0     H71142   3.140   9.379   6.011 -3.0384  2.5883 -1.8071
  527MOL0     H71143   3.339   9.457   6.250  0.0972 -0.5131 -0.0171
  527MOL0     H71144   3.301   9.624   6.233 -2.9182 -0.7345  3.3288
  527MOL0     H71145   3.174   9.518   6.210  0.4944  0.6915 -1.1877
  528MOL0     O71146   0.132   6.037   2.379  0.4936  0.6498 -0.0868
  528MOL0     C71147   0.033   6.108   2.407  0.2454  0.7532 -0.4613
  528MOL0     O71148  -0.051   6.174   2.316 -0.1990  0.1272  0.4734
  528MOL0     C71149  -0.021   6.171   2.178 -0.1915 -0.1394 -0.3883
  528MOL0     C71150  -0.077   6.282   2.107 -0.2595  0.5867  1.3122
  528MOL0     C71151  -0.058   6.285   1.964  0.0233  0.8802 -0.1635
  528MOL0     C71152   0.007   6.183   1.889 -0.1671 -0.0010 -0.5936
  528MOL0     O71153   0.031   6.179   1.756  0.9204 -0.2041 -0.6361
  528MOL0     C71154  -0.043   6.255   1.654 -0.0461  0.2827 -0.1651
  528MOL0     C71155  -0.050   6.168   1.528  0.1316 -0.1052 -0.2290
  528MOL0     C71156  -0.139   6.233   1.425  0.0493 -0.1403  0.5248
  528MOL0     C71157  -0.126   6.166   1.292 -0.5853 -0.1732 -0.4873
  528MOL0     C71158  -0.194   6.247   1.169  0.7839  0.5988 -0.0773
  528MOL0     C71159  -0.197   6.169   1.028  0.1404  0.4114 -0.6123
  528MOL0     C71160  -0.310   6.067   1.011 -0.7446  0.4036 -0.2133
  528MOL0     C71161  -0.299   6.004   0.865  0.1289  0.0241  0.3900
  528MOL0     N71162  -0.427   5.934   0.836  0.0565  0.3347 -0.0075
  528MOL0     C71163  -0.550   5.989   0.854 -0.1432  0.7181  0.3977
  528MOL0     C71164  -0.635   5.888   0.823 -0.1548  0.2745  0.6061
  528MOL0     C71165  -0.785   5.905   0.830 -0.8161  0.0114 -0.6995
  528MOL0     C71166  -0.839   6.001   0.720  0.1585 -0.4219 -0.9497
  528MOL0     C71167  -0.995   5.996   0.714 -0.7853  0.4733 -1.6405
  528MOL0     C71168  -1.096   6.030   0.835 -0.6353 -0.8829 -0.6538
  528MOL0     O71169  -1.097   6.172   0.864  0.5633 -0.0614  0.5537
  528MOL0     C71170  -1.208   6.249   0.837 -0.2182  0.2791  0.2778
  528MOL0     C71171  -1.327   6.195   0.775 -1.6394 -0.6691 -0.2601
  528MOL0     C71172  -1.430   6.281   0.751  0.0079 -0.4484  0.5825
  528MOL0     C71173  -1.434   6.416   0.808 -0.2415  0.3228 -0.1079
  528MOL0     C71174  -1.554   6.497   0.806  0.5506 -0.3427 -0.0236
  528MOL0     O71175  -1.652   6.474   0.709  0.1425  0.3200  0.3634
  528MOL0     C71176  -1.776   6.527   0.732  0.0256  0.1282  1.0694
  528MOL0     C71177  -1.889   6.451   0.781 -0.4121 -0.3577  0.2654
  528MOL0     C71178  -2.012   6.516   0.803  0.8154  0.5644 -0.4964
  528MOL0     C71179  -2.027   6.653   0.768  0.3714  0.3313  0.6075
  528MOL0     O71180  -2.149   6.723   0.774 -0.3339  0.3530 -0.4063
  528MOL0     C71181  -2.267   6.670   0.836 -0.4632 -0.6487  0.6277
  528MOL0     C71182  -2.353   6.631   0.712  0.9647 -0.0475 -0.3349
  528MOL0     C71183  -2.476   6.545   0.744 -0.1220  0.8880  0.8126
  528MOL0     C71184  -2.455   6.391   0.778 -0.1744  0.3302  1.0556
  528MOL0     C71185  -2.470   6.363   0.931 -0.0530  0.4294 -0.0853
  528MOL0     C71186  -2.455   6.219   0.966 -0.5394  0.6475  0.2189
  528MOL0     C71187  -2.492   6.204   1.114 -0.8575  0.6844  0.1723
  528MOL0     C71188  -2.502   6.061   1.153 -0.8883  0.6368 -0.1999
  528MOL0    Cl71189  -2.507   6.058   1.326  0.4612 -0.1875 -0.3081
  528MOL0     C71190  -1.922   6.726   0.713 -0.4035  0.7266 -0.1157
  528MOL0     C71191  -1.798   6.662   0.708  0.1577  0.6459 -0.3734
  528MOL0     O71192  -1.571   6.574   0.898  0.6323 -0.7845 -0.0054
  528MOL0     C71193  -1.319   6.456   0.878 -0.9636 -0.0626 -0.0408
  528MOL0     C71194  -1.196   6.382   0.880  0.4686 -0.1120  0.5674
  528MOL0     N71195  -0.568   5.771   0.788  0.1587  0.2099 -0.7108
  528MOL0     N71196  -0.440   5.802   0.794 -0.9285  0.1408 -0.1615
  528MOL0     C71197   0.059   6.076   1.957  0.5283 -0.0185 -0.2880
  528MOL0     C71198   0.044   6.069   2.101  0.7104  0.1202  1.4985
  528MOL0     C71199  -0.007   6.128   2.551 -0.7946 -0.0722  0.4218
  528MOL0     C71200  -0.134   6.171   2.586  0.2005  0.4312 -0.0890
  528MOL0     C71201  -0.163   6.204   2.716  1.2734  0.3248 -0.4368
  528MOL0     C71202  -0.081   6.201   2.825 -0.8407  0.6628  0.7661
  528MOL0     O71203  -0.111   6.232   2.954 -0.3909 -0.0407  0.2522
  528MOL0     C71204  -0.245   6.224   3.004 -0.2412 -0.5758  0.2321
  528MOL0     C71205  -0.247   6.249   3.154  0.0904 -0.2194  0.6405
  528MOL0     C71206  -0.204   6.131   3.243  0.4634 -0.6022  0.0032
  528MOL0     C71207  -0.095   6.038   3.196 -0.1686  0.3587 -0.9368
  528MOL0     C71208  -0.038   5.956   3.300  0.0773 -0.0207  0.3016
  528MOL0     C71209   0.020   5.894   3.386 -0.1897  1.6107 -0.0770
  528MOL0     C71210   0.054   6.178   2.787  0.2644  0.5576  0.2673
  528MOL0     C71211   0.097   6.133   2.651  0.2331  0.1764 -0.2984
  528MOL0     C71212   0.238   6.118   2.630 -0.5515 -0.4477  0.2316
  528MOL0     H71213  -0.123   6.367   2.155  0.2041  3.1227 -2.2920
  528MOL0     H71214  -0.092   6.370   1.905  1.1897  1.5821  0.1217
  528MOL0     H71215  -0.144   6.284   1.684 -0.2559  0.4573 -1.0220
  528MOL0     H71216   0.014   6.344   1.629 -1.1091  0.6099 -1.5379
  528MOL0     H71217  -0.088   6.076   1.573 -2.1245  1.0591  0.4163
  528MOL0     H71218   0.053   6.149   1.495  1.4318  1.5136  2.5307
  528MOL0     H71219  -0.112   6.336   1.401  0.3998 -0.2507  0.4523
  528MOL0     H71220  -0.243   6.238   1.460 -0.2411  0.9665 -0.4335
  528MOL0     H71221  -0.021   6.153   1.264 -1.3581  0.5838 -4.2103
  528MOL0     H71222  -0.179   6.070   1.293  1.1144 -1.2186 -2.3230
  528MOL0     H71223  -0.297   6.266   1.203  0.7032  0.4088 -0.2159
  528MOL0     H71224  -0.141   6.343   1.163 -0.9626  1.9506  3.0817
  528MOL0     H71225  -0.207   6.241   0.947 -1.1222  0.4219 -0.4713
  528MOL0     H71226  -0.108   6.105   1.021 -0.9321 -1.2063 -0.1448
  528MOL0     H71227  -0.407   6.114   1.025  0.1114  1.9989  0.5978
  528MOL0     H71228  -0.294   5.982   1.079  3.1824 -0.8266 -2.3328
  528MOL0     H71229  -0.286   6.090   0.798 -0.6175  1.3870  1.9404
  528MOL0     H71230  -0.211   5.942   0.847 -1.0373 -1.8693  0.9304
  528MOL0     H71231  -0.571   6.090   0.888  4.6941  2.0888 -0.0049
  528MOL0     H71232  -0.828   5.806   0.813  0.8947 -0.8486 -0.2747
  528MOL0     H71233  -0.804   5.935   0.934  0.5243  1.0475 -0.7300
  528MOL0     H71234  -0.802   6.102   0.741  1.9667 -1.6623  2.6639
  528MOL0     H71235  -0.807   5.980   0.618 -1.6228  0.0820 -1.6586
  528MOL0     H71236  -1.022   5.893   0.691  0.2712 -0.5412  1.2970
  528MOL0     H71237  -1.023   6.058   0.627 -0.2392 -0.5358 -2.5626
  528MOL0     H71238  -1.055   5.978   0.922  0.2681  1.0194  0.1172
  528MOL0     H71239  -1.192   5.984   0.812 -1.5105  0.9768 -0.9743
  528MOL0     H71240  -1.330   6.096   0.731  1.4282 -0.9323 -0.0868
  528MOL0     H71241  -1.503   6.250   0.676  0.6230  0.0848 -0.2581
  528MOL0     H71242  -1.867   6.346   0.795  0.2681 -0.2514  0.0267
  528MOL0     H71243  -2.095   6.465   0.852 -0.4313  0.7321 -2.3432
  528MOL0     H71244  -2.241   6.586   0.901 -0.4143 -2.0078 -1.0721
  528MOL0     H71245  -2.314   6.752   0.892 -1.7744 -0.7954 -0.2127
  528MOL0     H71246  -2.389   6.720   0.658 -2.2405 -2.2873 -2.2796
  528MOL0     H71247  -2.290   6.574   0.644 -2.3670 -0.1183 -3.7024
  528MOL0     H71248  -2.523   6.571   0.839 -0.6038 -4.2261  2.2815
  528MOL0     H71249  -2.554   6.562   0.669 -1.3969  2.2981  2.3583
  528MOL0     H71250  -2.361   6.351   0.738 -2.3881 -3.1676 -1.2151
  528MOL0     H71251  -2.533   6.336   0.725 -0.5195  0.6438  1.2373
  528MOL0     H71252  -2.568   6.389   0.973  0.1362 -0.3529  0.8957
  528MOL0     H71253  -2.399   6.424   0.988  0.9735 -0.6389 -0.1810
  528MOL0     H71254  -2.525   6.156   0.910  0.3510 -0.3280  0.1576
  528MOL0     H71255  -2.350   6.188   0.960 -0.9365 -0.6285 -0.4681
  528MOL0     H71256  -2.590   6.249   1.131 -3.0825 -4.1522  1.7711
  528MOL0     H71257  -2.418   6.257   1.175 -0.8783  1.2894 -0.3160
  528MOL0     H71258  -2.584   6.006   1.105  1.3820 -1.9404 -1.4198
  528MOL0     H71259  -2.415   5.999   1.128 -2.0108 -0.9442 -0.3532
  528MOL0     H71260  -1.938   6.830   0.688 -2.3663  1.2396  2.8201
  528MOL0     H71261  -1.712   6.725   0.685 -1.9788  3.9113 -0.1050
  528MOL0     H71262  -1.323   6.551   0.931  1.6283  1.2458 -1.9783
  528MOL0     H71263  -1.112   6.430   0.928  0.1863  0.4441  0.5202
  528MOL0     H71264   0.107   6.002   1.894  0.4409  2.1965 -3.1666
  528MOL0     H71265   0.088   5.982   2.147  3.0031  0.7921  0.7314
  528MOL0     H71266  -0.214   6.183   2.514  0.2764 -0.6645 -0.3815
  528MOL0     H71267  -0.265   6.228   2.745  0.3694 -4.1080  0.8362
  528MOL0     H71268  -0.284   6.123   2.984  0.8040 -1.0474  0.5316
  528MOL0     H71269  -0.314   6.300   2.965 -0.6532 -0.0652  1.8712
  528MOL0     H71270  -0.351   6.265   3.184  0.6588 -0.4634  2.9641
  528MOL0     H71271  -0.196   6.343   3.175 -2.6645  1.7134 -0.7053
  528MOL0     H71272  -0.292   6.068   3.259 -1.8162  2.2826 -0.5769
  528MOL0     H71273  -0.180   6.178   3.339 -0.2402 -2.4487  1.1393
  528MOL0     H71274  -0.121   5.982   3.105  3.2428 -0.5712 -1.4590
  528MOL0     H71275  -0.016   6.100   3.153  1.2752 -1.7457 -1.4711
  528MOL0     H71276   0.081   5.838   3.454 -0.0665  0.5738 -1.0072
  528MOL0     H71277   0.129   6.206   2.861  0.6381  2.1396 -0.6607
  528MOL0     H71278   0.278   6.154   2.725 -0.6919 -0.2618  0.2226
  528MOL0     H71279   0.258   6.017   2.595 -1.3568  0.0787 -1.9153
  528MOL0     H71280   0.282   6.188   2.558 -0.8514 -1.1505 -0.6510
  529MOL0     O71281   1.911   4.768   5.612 -0.0380  0.1155  0.2080
  529MOL0     C71282   1.976   4.868   5.580  0.4094 -0.2364  0.4065
  529MOL0     O71283   1.940   5.003   5.598 -0.1751 -0.2664 -0.9869
  529MOL0     C71284   1.825   5.036   5.662  0.6992 -0.4271 -0.7042
  529MOL0     C71285   1.705   5.023   5.588 -0.1613  0.5373 -0.2309
  529MOL0     C71286   1.585   5.037   5.658  0.1947 -0.4369 -0.6714
  529MOL0     C71287   1.585   5.095   5.791  0.4584 -0.2962 -0.4187
  529MOL0     O71288   1.465   5.138   5.850  0.4371 -0.1214  0.1620
  529MOL0     C71289   1.350   5.170   5.774  0.7363 -0.3107  0.3459
  529MOL0     C71290   1.254   5.244   5.860 -0.2761 -0.5224 -0.0375
  529MOL0     C71291   1.120   5.270   5.794 -0.8360  0.3686  0.5396
  529MOL0     C71292   1.019   5.335   5.897 -0.0654 -0.4382  0.7265
  529MOL0     C71293   0.917   5.242   5.960 -1.0514 -0.2381  0.2054
  529MOL0     C71294   0.772   5.297   5.978 -0.4252 -0.1356 -0.4002
  529MOL0     C71295   0.767   5.404   6.089 -0.4349  0.4661  1.1267
  529MOL0     C71296   0.681   5.522   6.052 -0.7789  1.1687  0.6660
  529MOL0     N71297   0.535   5.510   6.053 -0.1692  0.9488 -0.1195
  529MOL0     C71298   0.462   5.487   5.940  0.8732  0.2121 -0.3233
  529MOL0     C71299   0.336   5.464   5.985  0.0669  0.1903  0.9562
  529MOL0     C71300   0.214   5.445   5.896 -0.1896  0.3373  0.4108
  529MOL0     C71301   0.115   5.560   5.904  0.8067  0.6866  0.3959
  529MOL0     C71302  -0.009   5.517   5.835  0.3999 -0.7709 -0.5364
  529MOL0     C71303  -0.090   5.641   5.797 -0.4028 -0.6928  0.1403
  529MOL0     O71304  -0.021   5.694   5.682 -0.2076  0.2496  0.7368
  529MOL0     C71305  -0.084   5.782   5.599 -0.2496 -0.3916  0.2024
  529MOL0     C71306  -0.209   5.842   5.628 -0.6883 -0.0914 -0.7443
  529MOL0     C71307  -0.261   5.950   5.555 -0.3648  0.0311 -0.5743
  529MOL0     C71308  -0.192   5.993   5.437 -0.2387  0.6346 -0.6831
  529MOL0     C71309  -0.244   6.097   5.351  0.4478  0.7763  0.5258
  529MOL0     O71310  -0.163   6.167   5.276  0.3672 -0.8165 -0.5461
  529MOL0     C71311  -0.221   6.261   5.194  0.4366  0.2831 -0.3989
  529MOL0     C71312  -0.222   6.243   5.058 -0.6211  0.8787  0.2032
  529MOL0     C71313  -0.295   6.324   4.974 -0.9408 -0.2846  0.1173
  529MOL0     C71314  -0.351   6.441   5.020 -0.3140 -0.0692 -0.3890
  529MOL0     O71315  -0.415   6.526   4.926 -0.8938 -0.3668 -0.3128
  529MOL0     C71316  -0.352   6.558   4.800  0.5869  0.1314 -0.5638
  529MOL0     C71317  -0.423   6.667   4.734  0.7165 -0.2585  0.1077
  529MOL0     C71318  -0.444   6.796   4.815  0.5151 -0.1836 -0.4344
  529MOL0     C71319  -0.457   6.918   4.725 -1.1075 -0.3186  0.2900
  529MOL0     C71320  -0.411   7.056   4.794  0.1691  0.6110 -0.1674
  529MOL0     C71321  -0.423   7.168   4.696  0.6584 -0.1837  0.5038
  529MOL0     C71322  -0.571   7.209   4.703  0.4826 -0.3346 -0.2928
  529MOL0     C71323  -0.588   7.350   4.653 -0.1895  0.4911 -0.4690
  529MOL0    Cl71324  -0.569   7.355   4.474  0.0677 -0.1925 -0.1822
  529MOL0     C71325  -0.337   6.475   5.155  0.2829  0.3747  0.5360
  529MOL0     C71326  -0.282   6.376   5.244  0.3046 -0.2772  0.5801
  529MOL0     O71327  -0.370   6.114   5.364  0.5629  0.3308 -0.0857
  529MOL0     C71328  -0.077   5.921   5.397 -0.4786 -0.3115 -0.2968
  529MOL0     C71329  -0.026   5.825   5.479  0.5329  0.6260  0.6998
  529MOL0     N71330   0.331   5.476   6.123 -0.4648 -0.3631 -0.8294
  529MOL0     N71331   0.457   5.489   6.162  0.2869  0.4490 -0.0036
  529MOL0     C71332   1.703   5.107   5.856 -0.5756 -0.2163  0.2564
  529MOL0     C71333   1.820   5.080   5.792 -0.6371 -0.7799  0.0354
  529MOL0     C71334   2.106   4.830   5.529  0.0304 -0.3566 -0.4579
  529MOL0     C71335   2.203   4.766   5.608 -0.3553 -0.1071  0.5083
  529MOL0     C71336   2.337   4.740   5.561  0.1846 -0.5211 -0.8150
  529MOL0     C71337   2.383   4.798   5.448 -0.3695 -0.8580 -0.1569
  529MOL0     O71338   2.514   4.794   5.406  0.2528 -0.4640 -0.0050
  529MOL0     C71339   2.606   4.719   5.483 -0.8797  0.5352 -0.1392
  529MOL0     C71340   2.747   4.777   5.454  0.6597 -0.4790 -0.4134
  529MOL0     C71341   2.838   4.686   5.546  0.3879 -0.2701 -0.0698
  529MOL0     C71342   2.979   4.737   5.541  0.1620 -0.3034 -0.3684
  529MOL0     C71343   3.028   4.700   5.405  0.0058 -0.5939  0.5495
  529MOL0     C71344   3.075   4.668   5.299  0.7536 -0.3674  0.8702
  529MOL0     C71345   2.287   4.869   5.372 -0.1460 -0.0940  1.8846
  529MOL0     C71346   2.150   4.875   5.404 -0.4968 -0.0844  0.5950
  529MOL0     C71347   2.059   4.933   5.296 -0.0143 -1.3373 -0.3486
  529MOL0     H71348   1.704   4.982   5.488 -0.4298  0.8753 -0.3683
  529MOL0     H71349   1.493   5.030   5.599 -0.6539 -2.2712  0.7491
  529MOL0     H71350   1.382   5.232   5.690  2.3022 -1.1282  0.2934
  529MOL0     H71351   1.300   5.078   5.742  0.9761 -0.5027  0.5147
  529MOL0     H71352   1.302   5.340   5.881 -0.9852 -0.7657  3.1922
  529MOL0     H71353   1.238   5.191   5.954  3.5708 -4.4686 -1.2269
  529MOL0     H71354   1.072   5.183   5.747 -1.2065  2.0280 -2.4547
  529MOL0     H71355   1.137   5.345   5.716  0.8639 -0.2169  0.2888
  529MOL0     H71356   1.083   5.387   5.968  2.5653 -1.5990 -0.6712
  529MOL0     H71357   0.965   5.419   5.851 -0.7723  0.8158  3.6616
  529MOL0     H71358   0.911   5.146   5.909 -3.0618 -0.3700  0.6004
  529MOL0     H71359   0.947   5.220   6.063  0.8926  4.4701  0.9136
  529MOL0     H71360   0.733   5.345   5.888  0.7576  1.6065 -0.0214
  529MOL0     H71361   0.702   5.217   6.003 -1.1676 -0.1733 -2.4266
  529MOL0     H71362   0.869   5.443   6.099 -0.1717 -0.3559  1.6753
  529MOL0     H71363   0.726   5.354   6.177 -2.1680  0.0658  0.1290
  529MOL0     H71364   0.705   5.598   6.127  0.5067 -0.5554  2.0761
  529MOL0     H71365   0.697   5.574   5.957 -2.0063 -2.9124 -2.0204
  529MOL0     H71366   0.483   5.475   5.834  0.9090  0.1588 -0.3101
  529MOL0     H71367   0.260   5.440   5.797 -0.3259 -0.1381  0.3668
  529MOL0     H71368   0.162   5.352   5.923  2.6225 -1.6666 -0.5718
  529MOL0     H71369   0.099   5.576   6.011 -1.0340  1.6519  0.0104
  529MOL0     H71370   0.174   5.646   5.872  0.5918  1.3377  1.6842
  529MOL0     H71371  -0.075   5.461   5.902  2.4026 -1.8688  0.6517
  529MOL0     H71372   0.015   5.450   5.752  0.6836  1.0777 -2.0140
  529MOL0     H71373  -0.098   5.716   5.876  0.3430  0.4882 -0.8797
  529MOL0     H71374  -0.186   5.601   5.764 -0.4996  0.5851 -1.2332
  529MOL0     H71375  -0.260   5.819   5.721  0.0255  0.4358 -0.2082
  529MOL0     H71376  -0.338   6.013   5.599  3.1731  3.0943  1.8627
  529MOL0     H71377  -0.158   6.172   5.008 -2.5926 -2.9939  2.6788
  529MOL0     H71378  -0.305   6.305   4.867 -1.2810  4.9534 -1.0364
  529MOL0     H71379  -0.249   6.591   4.815  0.2314  0.7002  0.6902
  529MOL0     H71380  -0.364   6.466   4.741 -0.1290 -2.0725  2.7708
  529MOL0     H71381  -0.365   6.691   4.644  2.2355 -3.0111  0.2596
  529MOL0     H71382  -0.523   6.631   4.708 -0.4468  2.4439  0.4573
  529MOL0     H71383  -0.541   6.778   4.865  0.0676  1.9872 -0.4502
  529MOL0     H71384  -0.371   6.797   4.896 -1.0765 -2.3149  1.1864
  529MOL0     H71385  -0.556   6.928   4.680 -0.8390  3.1296  0.2094
  529MOL0     H71386  -0.382   6.903   4.647 -1.6417 -1.1044 -0.0873
  529MOL0     H71387  -0.304   7.046   4.811  0.6098  2.2105 -1.6593
  529MOL0     H71388  -0.463   7.067   4.889 -0.5062 -0.1945 -0.4266
  529MOL0     H71389  -0.364   7.255   4.724 -0.3093  1.3078 -1.7847
  529MOL0     H71390  -0.403   7.158   4.589 -1.3668 -1.6925  0.2003
  529MOL0     H71391  -0.603   7.208   4.808 -2.1939  0.1743 -1.0348
  529MOL0     H71392  -0.645   7.155   4.642 -2.1977 -0.4258  2.7310
  529MOL0     H71393  -0.686   7.389   4.684 -0.6902 -3.4237  4.0069
  529MOL0     H71394  -0.521   7.419   4.705 -1.6677 -0.0098  2.3460
  529MOL0     H71395  -0.389   6.567   5.181 -1.7390 -0.9457  1.4391
  529MOL0     H71396  -0.274   6.382   5.352  0.4540  0.4770  0.5358
  529MOL0     H71397  -0.026   5.950   5.306 -0.9656 -0.0138 -0.4802
  529MOL0     H71398   0.065   5.773   5.454 -0.1726 -1.6853  2.5610
  529MOL0     H71399   1.688   5.146   5.956 -1.5526 -1.9246  0.8308
  529MOL0     H71400   1.911   5.098   5.848 -0.9444  2.6917 -0.3769
  529MOL0     H71401   2.180   4.719   5.703 -0.4102 -0.0716  0.5126
  529MOL0     H71402   2.400   4.675   5.622  1.3048  0.5240 -0.8325
  529MOL0     H71403   2.601   4.612   5.459 -1.3844  0.4571  0.2805
  529MOL0     H71404   2.594   4.728   5.592  0.7174  0.0593  0.1065
  529MOL0     H71405   2.752   4.886   5.462 -1.9697 -0.1453 -2.1415
  529MOL0     H71406   2.766   4.762   5.347 -2.2810  2.4511 -1.5019
  529MOL0     H71407   2.846   4.581   5.515  1.0385 -0.5185  0.9013
  529MOL0     H71408   2.794   4.693   5.645 -1.0435  0.7107 -0.7423
  529MOL0     H71409   2.991   4.842   5.570 -0.2075 -0.5315  0.6389
  529MOL0     H71410   3.040   4.695   5.622 -0.5146  1.3094  1.0528
  529MOL0     H71411   3.113   4.656   5.200  1.0634 -0.7295  1.0328
  529MOL0     H71412   2.323   4.907   5.277  3.0567 -2.2473  2.0726
  529MOL0     H71413   1.955   4.930   5.330 -0.1767 -4.2563 -0.8228
  529MOL0     H71414   2.087   5.037   5.277 -2.2503 -1.0959 -2.8943
  529MOL0     H71415   2.059   4.878   5.201  1.5333 -1.4132 -0.3328
  530MOL0     O71416   1.804  10.177  10.147 -0.4896 -0.0409  0.9954
  530MOL0     C71417   1.714  10.126  10.079 -0.3531  0.2851 -0.2989
  530MOL0     O71418   1.622  10.041  10.135 -0.3584  0.5571  0.6004
  530MOL0     C71419   1.640  10.024  10.271 -0.7146 -0.2322  1.2030
  530MOL0     C71420   1.748   9.959  10.327 -0.4746  0.3696  0.1827
  530MOL0     C71421   1.778   9.958  10.461 -0.4688 -0.1745 -0.5102
  530MOL0     C71422   1.686  10.014  10.549  0.2467  0.4318 -0.1266
  530MOL0     O71423   1.694  10.013  10.682  0.0074 -0.6794 -0.4038
  530MOL0     C71424   1.793   9.943  10.756 -0.1252 -0.2918 -0.4159
  530MOL0     C71425   1.753   9.953  10.912 -0.6591 -0.4000 -0.5427
  530MOL0     C71426   1.639   9.858  10.945 -0.3506 -0.6548 -1.4552
  530MOL0     C71427   1.649   9.826  11.100  0.5492  1.1293 -0.0311
  530MOL0     C71428   1.528   9.745  11.145  0.4764 -0.7201  0.3925
  530MOL0     C71429   1.406   9.832  11.163 -0.6914 -1.3245  0.7386
  530MOL0     C71430   1.300   9.744  11.240 -0.1798 -0.3340  1.0444
  530MOL0     C71431   1.172   9.817  11.253  0.9324 -0.0682  0.3872
  530MOL0     N71432   1.123   9.788  11.378  0.2357 -0.2717  0.7977
  530MOL0     C71433   1.184   9.837  11.488 -0.4017 -0.3553  0.8095
  530MOL0     C71434   1.142   9.752  11.587  0.1019  0.5485 -0.8565
  530MOL0     C71435   1.160   9.746  11.735  0.2476 -0.0449  0.7243
  530MOL0     C71436   1.045   9.678  11.816 -0.3125 -0.0194 -0.7700
  530MOL0     C71437   1.068   9.687  11.968  0.2877 -0.5000 -0.9113
  530MOL0     C71438   1.209   9.648  12.027 -0.5317 -0.3298 -0.2460
  530MOL0     O71439   1.234   9.510  12.017  0.4581 -0.0249  0.2699
  530MOL0     C71440   1.348   9.454  12.059 -0.5169 -0.0346 -0.4851
  530MOL0     C71441   1.356   9.348  12.145  0.7913 -0.1544  0.0112
  530MOL0     C71442   1.468   9.297  12.198 -1.3320  0.9259  0.0598
  530MOL0     C71443   1.594   9.352  12.159  0.4474  0.2307  0.4989
  530MOL0     C71444   1.724   9.292  12.198  0.8992  0.4480 -0.7594
  530MOL0     O71445   1.837   9.363  12.158  0.8481 -1.0059 -0.2630
  530MOL0     C71446   1.961   9.316  12.129 -0.6966 -0.4852 -0.0048
  530MOL0     C71447   1.996   9.186  12.132  0.2774  0.2476 -0.0337
  530MOL0     C71448   2.135   9.151  12.112 -0.6132 -0.8792  0.3166
  530MOL0     C71449   2.232   9.250  12.090 -0.0844 -0.9636 -0.7576
  530MOL0     O71450   2.369   9.222  12.087  0.9884 -0.0304 -0.2135
  530MOL0     C71451   2.403   9.138  12.194 -1.2312  0.0429 -0.0302
  530MOL0     C71452   2.548   9.160  12.215 -0.2105  0.8805 -0.0596
  530MOL0     C71453   2.588   9.091  12.346  0.1085  0.2304 -0.8886
  530MOL0     C71454   2.713   9.148  12.414 -0.8664 -0.2100  0.5930
  530MOL0     C71455   2.763   9.071  12.537  0.0066 -0.8468 -0.0373
  530MOL0     C71456   2.909   9.109  12.576  0.3760 -0.1437 -0.0672
  530MOL0     C71457   2.943   9.048  12.709 -0.3742 -0.3341  0.3408
  530MOL0     C71458   3.057   9.129  12.766 -0.2269 -0.5985  0.1172
  530MOL0    Cl71459   3.148   9.055  12.912  0.0677 -0.0607  0.1368
  530MOL0     C71460   2.191   9.385  12.087  0.4577  0.3692  0.5047
  530MOL0     C71461   2.050   9.414  12.097  0.2666 -0.6409 -0.2865
  530MOL0     O71462   1.722   9.181  12.244 -0.5295  0.0701  0.4176
  530MOL0     C71463   1.594   9.462  12.065  0.3712  0.0086 -0.0831
  530MOL0     C71464   1.465   9.509  12.014  0.3471 -0.5338 -0.1496
  530MOL0     N71465   1.052   9.664  11.528  0.1402  0.8359  0.2408
  530MOL0     N71466   1.046   9.679  11.404 -0.3888  0.2931 -0.1588
  530MOL0     C71467   1.571  10.078  10.498 -0.3789  0.3167  0.9771
  530MOL0     C71468   1.547  10.081  10.360  0.5716 -0.4699  0.6050
  530MOL0     C71469   1.698  10.160   9.934 -1.0514  0.5351  0.1289
  530MOL0     C71470   1.575  10.130   9.866 -1.3808 -0.8399 -0.3670
  530MOL0     C71471   1.563  10.156   9.728  0.0167 -0.2844  0.4308
  530MOL0     C71472   1.677  10.199   9.654 -0.2922  0.7410 -0.1919
  530MOL0     O71473   1.670  10.213   9.518  0.2370 -0.2071 -0.7311
  530MOL0     C71474   1.576  10.141   9.438 -0.7520 -0.2819 -1.3990
  530MOL0     C71475   1.645  10.097   9.312 -0.3240  0.4929 -0.4172
  530MOL0     C71476   1.690  10.202   9.212 -1.2808 -0.1672 -0.4553
  530MOL0     C71477   1.806  10.151   9.115  0.0914  0.7246  0.3964
  530MOL0     C71478   1.740  10.116   8.993  0.3908  0.0460  0.7668
  530MOL0     C71479   1.687  10.075   8.892 -0.7323 -0.7308 -0.0143
  530MOL0     C71480   1.792  10.228   9.720 -0.5192 -0.8793 -0.3065
  530MOL0     C71481   1.804  10.223   9.860 -0.7614 -0.0955  0.2879
  530MOL0     C71482   1.935  10.288   9.925  0.3810 -0.1420 -0.1305
  530MOL0     H71483   1.827   9.911  10.269 -1.4361  1.5251 -2.2077
  530MOL0     H71484   1.859   9.898  10.502  0.4179  0.3033 -1.5050
  530MOL0     H71485   1.790   9.842  10.715 -1.5978  0.0826 -1.3207
  530MOL0     H71486   1.885  10.000  10.736 -0.9864  0.6729 -1.8209
  530MOL0     H71487   1.727  10.057  10.936 -2.1060 -0.6354 -0.9578
  530MOL0     H71488   1.849   9.924  10.956  0.1233 -1.8762 -2.9903
  530MOL0     H71489   1.658   9.761  10.898 -2.3325 -2.2025  0.7136
  530MOL0     H71490   1.540   9.889  10.913 -1.4047  1.0340  2.7179
  530MOL0     H71491   1.745   9.783  11.127  1.4425  2.5764 -0.7594
  530MOL0     H71492   1.641   9.918  11.159  1.5172  1.1602  0.0585
  530MOL0     H71493   1.505   9.663  11.076 -1.4969 -0.1171  0.2593
  530MOL0     H71494   1.554   9.696  11.239  1.3814 -0.6975  0.1627
  530MOL0     H71495   1.428   9.926  11.215 -1.4062  0.8213 -2.5401
  530MOL0     H71496   1.380   9.871  11.064  1.0940 -0.1717  0.6689
  530MOL0     H71497   1.343   9.721  11.338  2.6153  0.0876  0.0165
  530MOL0     H71498   1.289   9.647  11.190  1.4528 -0.8397  1.5879
  530MOL0     H71499   1.171   9.926  11.239 -2.5951 -0.0586 -0.1716
  530MOL0     H71500   1.099   9.777  11.183  2.0446  1.6555 -1.8837
  530MOL0     H71501   1.250   9.922  11.504  1.2643 -1.3771 -0.3193
  530MOL0     H71502   1.244   9.675  11.738 -1.2386 -1.8618  1.5386
  530MOL0     H71503   1.183   9.845  11.775  2.7290  0.6139 -1.9541
  530MOL0     H71504   0.953   9.728  11.785  0.2115 -0.6463 -3.5708
  530MOL0     H71505   1.059   9.574  11.788  3.0426 -0.3725  1.5824
  530MOL0     H71506   0.997   9.621  12.020 -0.0010  0.5111  0.0183
  530MOL0     H71507   1.033   9.785  12.001 -1.5055 -2.3799  3.5959
  530MOL0     H71508   1.218   9.679  12.132 -2.8833 -2.3295  0.6615
  530MOL0     H71509   1.282   9.712  11.978 -3.6985  2.1214 -2.1223
  530MOL0     H71510   1.265   9.294  12.171  0.2954  1.4618  1.8417
  530MOL0     H71511   1.467   9.211  12.263 -0.1728  0.2506 -0.7791
  530MOL0     H71512   1.929   9.104  12.157 -1.9740  2.5776  2.1906
  530MOL0     H71513   2.163   9.046  12.112  4.3803  0.2045  1.9728
  530MOL0     H71514   2.346   9.157  12.285 -1.7997  1.2414 -0.6167
  530MOL0     H71515   2.395   9.030  12.179  0.8825 -0.2273  0.4921
  530MOL0     H71516   2.594   9.109  12.130  0.4211  0.9029  0.2670
  530MOL0     H71517   2.570   9.266  12.223  1.1109  0.5481  1.0005
  530MOL0     H71518   2.500   9.078  12.410 -0.0988 -1.8183 -1.5247
  530MOL0     H71519   2.605   8.986  12.322 -0.2204 -0.2036  0.6378
  530MOL0     H71520   2.681   9.248  12.444  1.8673  1.2446 -0.9465
  530MOL0     H71521   2.792   9.152  12.338 -1.5212 -0.4598 -0.1255
  530MOL0     H71522   2.749   8.964  12.521 -0.4810 -0.8648  0.4773
  530MOL0     H71523   2.691   9.091  12.617  3.3975  1.8729  2.6662
  530MOL0     H71524   2.973   9.069  12.498  0.8474  2.1103 -0.9201
  530MOL0     H71525   2.914   9.219  12.582 -3.9993  0.2988 -0.5507
  530MOL0     H71526   2.979   8.945  12.693 -1.2785 -0.3948 -1.6083
  530MOL0     H71527   2.866   9.036  12.785  0.1083 -2.3459  0.5703
  530MOL0     H71528   3.138   9.140  12.693  0.9536  1.2466  1.6084
  530MOL0     H71529   3.023   9.232  12.778 -0.8445 -0.2239 -3.5899
  530MOL0     H71530   2.261   9.467  12.091 -0.9061  1.5770  0.3091
  530MOL0     H71531   2.002   9.511  12.095 -1.9465 -1.5759  1.9679
  530MOL0     H71532   1.682   9.502  12.016  0.0315 -0.7970 -1.3872
  530MOL0     H71533   1.462   9.572  11.925 -1.0942 -2.4291 -1.5189
  530MOL0     H71534   1.493  10.107  10.568 -0.6946 -0.4215  0.9393
  530MOL0     H71535   1.454  10.131  10.338  0.3701  0.4124  3.1821
  530MOL0     H71536   1.494  10.091   9.928  1.7580 -4.1963  2.1008
  530MOL0     H71537   1.474  10.111   9.686  1.3406 -0.2251 -2.6942
  530MOL0     H71538   1.482  10.195   9.424 -0.9241 -0.6630 -1.7447
  530MOL0     H71539   1.546  10.049   9.489  2.0688 -0.2859  0.4615
  530MOL0     H71540   1.577  10.029   9.261  0.6789  0.1126 -1.2913
  530MOL0     H71541   1.722  10.025   9.345  0.7944  2.4048  1.3643
  530MOL0     H71542   1.737  10.290   9.258 -0.9744 -1.3065  1.5620
  530MOL0     H71543   1.602  10.237   9.158 -2.7301  0.1012  1.9062
  530MOL0     H71544   1.870  10.236   9.093  0.8111  0.9109  2.8659
  530MOL0     H71545   1.860  10.065   9.156  0.5027  0.3780 -0.8448
  530MOL0     H71546   1.641  10.026   8.809  1.3468  0.1291 -1.7681
  530MOL0     H71547   1.875  10.265   9.661 -2.7832  1.5190 -2.2037
  530MOL0     H71548   2.000  10.321   9.843  2.0716 -5.7619 -1.4825
  530MOL0     H71549   1.914  10.379   9.981  1.2791  0.9008 -1.4150
  530MOL0     H71550   1.997  10.223   9.988 -2.9500 -1.3521  2.2149
  531MOL0     O71551   6.209   7.249   8.586 -0.0039  0.1617  0.3511
  531MOL0     C71552   6.118   7.313   8.638  0.0181 -0.6787  0.5226
  531MOL0     O71553   6.055   7.423   8.575 -0.2682 -0.2730  0.3281
  531MOL0     C71554   5.929   7.459   8.608  0.7383  1.0927 -1.5140
  531MOL0     C71555   5.819   7.400   8.541  0.2803 -0.0302 -0.2389
  531MOL0     C71556   5.692   7.446   8.566 -0.5366  0.5896  0.5594
  531MOL0     C71557   5.668   7.545   8.659  0.3831 -0.5163  0.1935
  531MOL0     O71558   5.545   7.605   8.675  0.0944 -0.1418  0.4378
  531MOL0     C71559   5.425   7.523   8.669 -0.4869  0.9543  0.1408
  531MOL0     C71560   5.316   7.572   8.755  0.3340  0.2975 -0.7663
  531MOL0     C71561   5.183   7.494   8.739  0.0512 -0.2756 -0.2386
  531MOL0     C71562   5.087   7.509   8.865 -0.1254  0.2141  0.0710
  531MOL0     C71563   4.939   7.515   8.829  0.0594 -0.8602  0.0054
  531MOL0     C71564   4.887   7.640   8.757 -0.0633  0.7526  0.8518
  531MOL0     C71565   4.897   7.761   8.864 -0.3437 -0.8465  0.0241
  531MOL0     C71566   4.833   7.888   8.802  0.1589  0.7908  0.3675
  531MOL0     N71567   4.682   7.878   8.791  0.3979 -0.0903  0.0002
  531MOL0     C71568   4.601   7.825   8.694 -0.4249  0.5493 -0.3404
  531MOL0     C71569   4.476   7.846   8.725  0.7714  0.0751  0.2562
  531MOL0     C71570   4.354   7.813   8.647  0.6653 -0.5022 -0.1704
  531MOL0     C71571   4.271   7.698   8.694 -0.4355  0.5227 -0.1751
  531MOL0     C71572   4.333   7.565   8.642  0.7683 -0.6516 -0.1378
  531MOL0     C71573   4.228   7.449   8.660 -0.5594  0.7069 -0.3871
  531MOL0     O71574   4.284   7.336   8.591  0.0514 -0.3102 -0.1019
  531MOL0     C71575   4.260   7.214   8.630 -0.1204  0.4990  0.4535
  531MOL0     C71576   4.143   7.160   8.678 -0.2627  0.0347  0.2206
  531MOL0     C71577   4.137   7.026   8.714  0.3986 -0.0492  0.1018
  531MOL0     C71578   4.247   6.945   8.691 -0.0381 -0.0467 -0.2703
  531MOL0     C71579   4.251   6.806   8.735 -0.1778  0.0863  0.1403
  531MOL0     O71580   4.352   6.741   8.670 -0.1918  0.3343  0.3120
  531MOL0     C71581   4.339   6.605   8.660  0.4437  0.6616 -0.7870
  531MOL0     C71582   4.311   6.522   8.769  1.0796 -0.1548  0.1404
  531MOL0     C71583   4.279   6.384   8.749  0.1347  0.2513  0.0373
  531MOL0     C71584   4.287   6.323   8.622  0.0710  0.5294 -0.7012
  531MOL0     O71585   4.258   6.196   8.600  0.1458  0.6238  0.2629
  531MOL0     C71586   4.350   6.097   8.561 -0.0722  0.2563  1.1192
  531MOL0     C71587   4.434   6.034   8.668 -0.0697 -0.3845  0.0403
  531MOL0     C71588   4.521   5.917   8.619  0.1806  0.1858 -0.5454
  531MOL0     C71589   4.666   5.943   8.674 -0.6197 -0.5403 -0.3244
  531MOL0     C71590   4.747   5.819   8.635 -0.3263 -0.7948  0.0726
  531MOL0     C71591   4.893   5.842   8.651 -0.1140 -0.3386 -0.2970
  531MOL0     C71592   4.967   5.732   8.573 -0.3999 -0.3468 -0.5451
  531MOL0     C71593   5.082   5.689   8.652  0.5279  0.2472  0.5237
  531MOL0    Cl71594   5.171   5.588   8.519  0.3785  0.4693 -0.0309
  531MOL0     C71595   4.315   6.408   8.515  0.4620  0.6691 -0.0052
  531MOL0     C71596   4.343   6.548   8.531 -0.2263  0.1991  0.4898
  531MOL0     O71597   4.154   6.751   8.787  0.6073  0.1193 -0.3076
  531MOL0     C71598   4.374   7.002   8.649  0.9854 -0.0494 -0.2509
  531MOL0     C71599   4.371   7.136   8.618 -0.1222 -0.6702  1.1726
  531MOL0     N71600   4.471   7.921   8.835  0.6188  0.4293 -0.4494
  531MOL0     N71601   4.590   7.931   8.885  0.2760 -0.5970  0.4043
  531MOL0     C71602   5.772   7.593   8.736  0.2653  0.6787  0.1009
  531MOL0     C71603   5.901   7.543   8.712  0.3290 -0.7009 -0.1298
  531MOL0     C71604   6.078   7.269   8.769 -0.0356 -1.6190 -1.1207
  531MOL0     C71605   6.136   7.341   8.878 -0.1119 -0.4100  0.6816
  531MOL0     C71606   6.085   7.331   9.003  0.3936  0.2188 -0.2686
  531MOL0     C71607   5.968   7.259   9.024  0.2381 -0.4297 -0.1687
  531MOL0     O71608   5.910   7.278   9.154 -0.0624  0.4023 -0.1074
  531MOL0     C71609   5.791   7.207   9.195  0.8014 -0.4910 -0.0231
  531MOL0     C71610   5.777   7.220   9.342 -0.1611 -0.6898 -0.4493
  531MOL0     C71611   5.822   7.098   9.422  0.2998  0.6310  0.2490
  531MOL0     C71612   5.807   7.108   9.576 -0.7793  0.1104  0.7945
  531MOL0     C71613   5.846   7.241   9.630 -0.0762  0.1634 -0.4552
  531MOL0     C71614   5.880   7.350   9.662  0.6857 -0.0533  0.0881
  531MOL0     C71615   5.914   7.188   8.913 -0.0102  0.5837  0.0206
  531MOL0     C71616   5.975   7.182   8.791  0.0191  0.0680 -1.0076
  531MOL0     C71617   5.908   7.094   8.689  0.2236 -0.6210  0.9461
  531MOL0     H71618   5.831   7.333   8.457 -0.6035  0.1641 -0.5243
  531MOL0     H71619   5.617   7.390   8.513  1.0261 -0.1647 -0.9696
  531MOL0     H71620   5.377   7.517   8.571 -0.6197  3.6546 -0.0472
  531MOL0     H71621   5.455   7.422   8.696  2.9346  2.0360  0.9105
  531MOL0     H71622   5.299   7.678   8.736 -0.7790  0.3842  0.5910
  531MOL0     H71623   5.345   7.563   8.861  0.9372  4.4974 -0.4096
  531MOL0     H71624   5.209   7.392   8.711  3.0248  0.2022  0.4338
  531MOL0     H71625   5.125   7.540   8.658 -0.3066 -1.6510 -0.7985
  531MOL0     H71626   5.094   7.418   8.926  1.1626 -0.8804 -1.6205
  531MOL0     H71627   5.120   7.597   8.922  1.2120 -0.6187  0.6508
  531MOL0     H71628   4.917   7.421   8.777 -0.2979  0.2897 -2.0432
  531MOL0     H71629   4.877   7.501   8.918 -0.5737 -2.5948 -0.6711
  531MOL0     H71630   4.946   7.660   8.667 -2.0939  1.1766 -0.4559
  531MOL0     H71631   4.784   7.635   8.721 -0.9913  3.4702  2.7930
  531MOL0     H71632   5.005   7.782   8.867 -0.2491 -1.4026  0.5943
  531MOL0     H71633   4.858   7.739   8.964 -0.6925 -4.6256 -0.7724
  531MOL0     H71634   4.860   7.965   8.875 -0.1641  1.8766 -0.6399
  531MOL0     H71635   4.879   7.910   8.705 -5.1991 -1.1272 -3.0895
  531MOL0     H71636   4.639   7.780   8.603  3.6126  2.2793  0.2636
  531MOL0     H71637   4.301   7.908   8.638 -0.4684 -1.1672 -0.7059
  531MOL0     H71638   4.383   7.790   8.544 -1.7794  0.8367 -1.2450
  531MOL0     H71639   4.246   7.707   8.800 -1.7180  1.6254 -0.5360
  531MOL0     H71640   4.175   7.709   8.643  0.0351  0.4904 -1.0863
  531MOL0     H71641   4.436   7.543   8.669  0.8806  0.9236  0.8362
  531MOL0     H71642   4.332   7.576   8.533 -2.7462 -1.5168 -0.3370
  531MOL0     H71643   4.133   7.473   8.611 -2.0228 -2.2986  0.6842
  531MOL0     H71644   4.198   7.436   8.765  1.1976  2.0986  0.3521
  531MOL0     H71645   4.055   7.224   8.676  0.5288  1.1442 -2.0607
  531MOL0     H71646   4.045   6.989   8.758 -0.1408  0.0024 -0.9553
  531MOL0     H71647   4.305   6.563   8.869 -0.6863 -1.0795  0.4701
  531MOL0     H71648   4.258   6.318   8.832  1.0210 -1.3700 -0.9680
  531MOL0     H71649   4.294   6.021   8.507 -2.5689  2.5394  0.2530
  531MOL0     H71650   4.427   6.128   8.490 -2.0289  0.3414 -1.0887
  531MOL0     H71651   4.510   6.106   8.701 -1.0803  0.6876  0.0932
  531MOL0     H71652   4.366   6.004   8.748  0.3806  0.7737  0.8992
  531MOL0     H71653   4.478   5.827   8.664 -0.2999  1.5641  1.9431
  531MOL0     H71654   4.522   5.923   8.510  1.6603  2.9869 -0.4549
  531MOL0     H71655   4.656   5.943   8.783 -2.8191  0.2048 -0.4857
  531MOL0     H71656   4.721   6.032   8.641 -1.6265 -0.3961 -1.7043
  531MOL0     H71657   4.722   5.801   8.529  0.5082 -1.6669  0.0048
  531MOL0     H71658   4.714   5.734   8.695 -1.8811 -0.8249 -0.7573
  531MOL0     H71659   4.923   5.929   8.592 -0.5835 -0.6633 -1.0243
  531MOL0     H71660   4.924   5.861   8.754  1.0160  1.3825 -0.8969
  531MOL0     H71661   4.994   5.764   8.472 -0.0505  0.4454 -0.2132
  531MOL0     H71662   4.902   5.646   8.557  0.4037 -0.7821 -1.5776
  531MOL0     H71663   5.148   5.771   8.682  2.1982 -1.8406  2.9584
  531MOL0     H71664   5.048   5.636   8.741  1.3474 -2.4434 -0.6497
  531MOL0     H71665   4.320   6.351   8.423  0.4984  0.2612  0.2511
  531MOL0     H71666   4.357   6.606   8.440  1.2912 -1.9912 -0.7654
  531MOL0     H71667   4.464   6.943   8.655 -0.3798 -2.1944  0.4307
  531MOL0     H71668   4.460   7.188   8.584 -1.6558  2.6765  1.8431
  531MOL0     H71669   5.756   7.669   8.812  1.5146 -0.2837  1.3872
  531MOL0     H71670   5.986   7.566   8.777  0.8341 -0.5810 -0.8258
  531MOL0     H71671   6.219   7.411   8.868 -0.6788  0.1010 -0.6310
  531MOL0     H71672   6.127   7.395   9.080  1.6900  2.8965 -3.0039
  531MOL0     H71673   5.785   7.106   9.153 -1.1162  0.5509 -2.6017
  531MOL0     H71674   5.704   7.251   9.143  1.6973  1.3469 -0.0427
  531MOL0     H71675   5.676   7.252   9.370  0.1172 -1.4913  1.7048
  531MOL0     H71676   5.853   7.296   9.366  1.4713 -2.1973 -0.6202
  531MOL0     H71677   5.928   7.087   9.398  0.0949  0.7828 -0.7984
  531MOL0     H71678   5.768   7.010   9.385  2.9981 -0.4721 -1.3921
  531MOL0     H71679   5.706   7.084   9.610 -1.1274 -0.2096 -0.4205
  531MOL0     H71680   5.865   7.025   9.618  0.1635  0.6395  0.5628
  531MOL0     H71681   5.916   7.443   9.702 -0.7285  0.6069 -0.0985
  531MOL0     H71682   5.816   7.144   8.905  1.4504 -2.8410 -0.9058
  531MOL0     H71683   5.814   7.142   8.659  1.7079  1.8828 -0.0996
  531MOL0     H71684   5.963   7.083   8.594 -0.4255 -2.4927  0.7509
  531MOL0     H71685   5.889   6.996   8.733  0.2913 -0.3479  1.5860
  532MOL0     O71686   6.639   2.516   1.501  1.1420  1.0714  0.0247
  532MOL0     C71687   6.614   2.608   1.423 -0.0573 -0.6254 -0.0428
  532MOL0     O71688   6.709   2.693   1.365 -0.3416  0.6219  1.3598
  532MOL0     C71689   6.838   2.668   1.394 -0.6797 -0.3115  0.0989
  532MOL0     C71690   6.885   2.654   1.527  0.0030  0.2672  0.3735
  532MOL0     C71691   7.017   2.629   1.554  0.0644 -0.4463  0.8265
  532MOL0     C71692   7.117   2.625   1.447 -0.2114  0.1107 -0.4909
  532MOL0     O71693   7.252   2.622   1.476 -0.7385 -0.1388  0.3769
  532MOL0     C71694   7.303   2.489   1.470  0.5628 -0.4185  0.1321
  532MOL0     C71695   7.454   2.474   1.512  0.5610 -0.4974  0.0844
  532MOL0     C71696   7.545   2.587   1.471 -0.3735 -0.0019  0.1049
  532MOL0     C71697   7.542   2.613   1.320 -0.0839  0.2947  0.0991
  532MOL0     C71698   7.635   2.735   1.297 -0.3100 -0.6491  0.7382
  532MOL0     C71699   7.637   2.772   1.147 -0.0718 -0.2512 -0.5842
  532MOL0     C71700   7.504   2.836   1.109  0.1398 -0.5132 -0.3473
  532MOL0     C71701   7.504   2.923   0.984  0.3518  0.1105 -0.9566
  532MOL0     N71702   7.369   2.943   0.929  0.2518  0.5674 -0.3506
  532MOL0     C71703   7.253   2.864   0.910 -0.0630  0.3573  0.0911
  532MOL0     C71704   7.146   2.949   0.877  0.3691 -0.3218 -0.1683
  532MOL0     C71705   7.001   2.913   0.850  0.3249 -0.3017  0.5634
  532MOL0     C71706   6.911   3.012   0.922  0.8490  0.1191 -0.1317
  532MOL0     C71707   6.916   3.015   1.079  0.4092 -0.0828  0.2552
  532MOL0     C71708   6.802   3.084   1.142  0.2966  0.4019 -0.3945
  532MOL0     O71709   6.675   3.018   1.103  0.5991 -0.6514  0.2852
  532MOL0     C71710   6.553   3.071   1.146  0.6393  0.2991 -0.3618
  532MOL0     C71711   6.541   3.161   1.249  0.1196 -0.2101 -0.1665
  532MOL0     C71712   6.416   3.206   1.296  0.6934  0.7137 -0.2981
  532MOL0     C71713   6.295   3.156   1.244 -0.2551 -0.9249 -0.3891
  532MOL0     C71714   6.163   3.200   1.292  0.2734  0.4867 -1.6659
  532MOL0     O71715   6.066   3.193   1.196  0.2771 -0.3713  0.0938
  532MOL0     C71716   5.934   3.230   1.224 -0.1682  0.3716 -0.3404
  532MOL0     C71717   5.889   3.313   1.331  0.0689 -0.1961 -0.1118
  532MOL0     C71718   5.746   3.321   1.357 -0.1025 -0.2190 -0.5976
  532MOL0     C71719   5.655   3.253   1.279  0.3181  0.5551 -0.3772
  532MOL0     O71720   5.519   3.246   1.315  0.6431 -0.1605  0.7316
  532MOL0     C71721   5.434   3.274   1.209  0.2389 -0.1901 -0.0050
  532MOL0     C71722   5.285   3.255   1.252 -0.6002  0.2829 -0.2124
  532MOL0     C71723   5.235   3.112   1.256 -1.0544 -0.6093 -0.5015
  532MOL0     C71724   5.087   3.106   1.306 -0.4730 -0.6581  0.4038
  532MOL0     C71725   5.047   2.966   1.337  0.4497  1.0286  0.9886
  532MOL0     C71726   4.901   2.940   1.373 -0.2424  0.1197 -0.4221
  532MOL0     C71727   4.846   3.035   1.474 -0.0010 -0.7116 -0.1487
  532MOL0     C71728   4.745   2.959   1.560 -0.4012  0.8690 -0.1260
  532MOL0    Cl71729   4.820   2.858   1.690  0.3587  0.3917 -0.3531
  532MOL0     C71730   5.707   3.178   1.183 -0.2739 -0.0634  1.2524
  532MOL0     C71731   5.841   3.148   1.163  0.6328  0.0813  0.1895
  532MOL0     O71732   6.145   3.226   1.413  0.0253 -0.1744 -0.4605
  532MOL0     C71733   6.304   3.072   1.138 -0.4648  0.0865 -0.2438
  532MOL0     C71734   6.431   3.031   1.094 -0.4577  0.8809 -0.3243
  532MOL0     N71735   7.204   3.076   0.854 -0.3188  0.7968  0.1796
  532MOL0     N71736   7.327   3.064   0.884 -0.4731  0.2336 -0.2660
  532MOL0     C71737   7.062   2.638   1.314  0.2803  0.5284  0.2957
  532MOL0     C71738   6.929   2.654   1.288  0.6104  0.2992  0.6005
  532MOL0     C71739   6.475   2.634   1.374 -0.3330  0.1529  0.0992
  532MOL0     C71740   6.456   2.686   1.250  0.1210 -0.2296  0.1047
  532MOL0     C71741   6.327   2.715   1.207  0.1085  0.5270  0.2600
  532MOL0     C71742   6.218   2.715   1.290 -0.2353  0.5308  0.3367
  532MOL0     O71743   6.098   2.740   1.236 -0.0212  0.3186  0.1735
  532MOL0     C71744   6.029   2.856   1.288  0.4351  0.7738  0.8079
  532MOL0     C71745   5.932   2.823   1.409  1.0422  0.0944  0.6906
  532MOL0     C71746   5.790   2.856   1.376  0.0229 -0.6813  0.0604
  532MOL0     C71747   5.696   2.818   1.498  0.1183 -0.4425  0.1510
  532MOL0     C71748   5.556   2.814   1.457  0.7776 -0.5906  0.4600
  532MOL0     C71749   5.435   2.815   1.422  0.8608  0.5166 -0.3075
  532MOL0     C71750   6.232   2.666   1.411  0.6657  0.9758 -0.9954
  532MOL0     C71751   6.359   2.622   1.459 -0.2151 -0.5377 -0.1291
  532MOL0     C71752   6.351   2.577   1.605  0.1844  0.7689 -0.3321
  532MOL0     H71753   6.821   2.672   1.613  0.6365  2.3969  0.4625
  532MOL0     H71754   7.043   2.633   1.660  1.2694  0.7476  0.5120
  532MOL0     H71755   7.256   2.402   1.516  0.7921 -1.9715 -2.3718
  532MOL0     H71756   7.299   2.477   1.362  3.4611  2.5430 -0.4811
  532MOL0     H71757   7.492   2.379   1.474 -0.8453 -1.5008  1.0746
  532MOL0     H71758   7.464   2.467   1.621 -0.8951  2.1353  0.4956
  532MOL0     H71759   7.648   2.565   1.503  0.1225  0.5164 -1.0496
  532MOL0     H71760   7.512   2.678   1.521 -1.2637 -0.4790  0.4007
  532MOL0     H71761   7.577   2.526   1.264 -1.7401 -1.5937  1.8653
  532MOL0     H71762   7.444   2.640   1.281  0.4796  1.5869 -0.5058
  532MOL0     H71763   7.609   2.822   1.358 -1.4033 -0.6029  0.2176
  532MOL0     H71764   7.738   2.710   1.324  0.0923  0.0133 -0.1435
  532MOL0     H71765   7.720   2.838   1.118 -0.4279  0.0664 -0.8993
  532MOL0     H71766   7.635   2.683   1.083 -1.2108  0.4641 -1.6105
  532MOL0     H71767   7.459   2.875   1.201 -0.2968 -2.7350  0.4503
  532MOL0     H71768   7.435   2.756   1.083 -0.8614 -0.2547  1.3769
  532MOL0     H71769   7.533   3.021   1.023 -1.1736 -0.4641  1.9325
  532MOL0     H71770   7.575   2.892   0.907 -2.6882  0.7635 -4.3041
  532MOL0     H71771   7.238   2.759   0.930  1.5840  0.5195  2.6473
  532MOL0     H71772   6.983   2.909   0.742 -0.4639  0.8462  0.6389
  532MOL0     H71773   6.975   2.816   0.894  0.7817 -1.5021 -1.6103
  532MOL0     H71774   6.928   3.114   0.885 -1.3438  0.4794 -0.2909
  532MOL0     H71775   6.819   2.983   0.871  2.0979 -1.3021 -1.7156
  532MOL0     H71776   7.014   3.055   1.106  1.3190 -1.1556 -1.2861
  532MOL0     H71777   6.910   2.912   1.114 -1.6044  0.0572  0.4624
  532MOL0     H71778   6.800   3.192   1.124 -0.6550  0.8784  2.1091
  532MOL0     H71779   6.810   3.078   1.251 -2.4722 -1.0027 -0.1832
  532MOL0     H71780   6.625   3.209   1.299 -0.7185 -1.3535  2.4797
  532MOL0     H71781   6.399   3.261   1.388  0.1967  0.0414  0.0163
  532MOL0     H71782   5.956   3.373   1.392 -1.3598  0.4840  0.8728
  532MOL0     H71783   5.717   3.394   1.431  0.2199 -0.8174  0.1361
  532MOL0     H71784   5.456   3.378   1.184 -0.7698 -0.1970 -0.9730
  532MOL0     H71785   5.445   3.204   1.125 -1.7375 -1.0500  0.3907
  532MOL0     H71786   5.259   3.310   1.344  4.3530  1.7488  0.5794
  532MOL0     H71787   5.218   3.305   1.182 -0.1802  0.4698 -0.4813
  532MOL0     H71788   5.243   3.075   1.154 -1.5132 -1.5183 -0.2158
  532MOL0     H71789   5.294   3.047   1.321 -0.4950  0.8003  0.4536
  532MOL0     H71790   5.011   3.145   1.238  2.4296  1.8138 -1.6828
  532MOL0     H71791   5.076   3.166   1.397  1.5923  1.1563 -0.4449
  532MOL0     H71792   5.112   2.928   1.416 -0.3990  0.1272  1.2656
  532MOL0     H71793   5.056   2.911   1.242  1.4211  1.2941  0.9200
  532MOL0     H71794   4.851   2.950   1.276  2.6075 -0.4058 -2.0395
  532MOL0     H71795   4.880   2.837   1.404  0.1812  0.4731  1.0981
  532MOL0     H71796   4.805   3.125   1.428  0.8250  0.2692  0.9735
  532MOL0     H71797   4.932   3.062   1.536  0.9907 -0.7892 -1.4599
  532MOL0     H71798   4.675   3.029   1.605 -0.5693  0.5217  0.1549
  532MOL0     H71799   4.688   2.891   1.495 -1.8144  0.7972  1.1430
  532MOL0     H71800   5.638   3.129   1.115  0.6478  0.3003  0.0181
  532MOL0     H71801   5.870   3.070   1.093 -2.2544 -0.6351 -0.3524
  532MOL0     H71802   6.227   3.021   1.081  0.4341 -1.6820  0.0534
  532MOL0     H71803   6.430   2.971   1.003 -2.1756  0.3717 -0.0148
  532MOL0     H71804   7.125   2.627   1.226  2.4875  1.4071  1.6524
  532MOL0     H71805   6.903   2.661   1.183 -1.7721 -3.8290  0.7340
  532MOL0     H71806   6.533   2.720   1.181 -1.7527  2.6218 -0.7576
  532MOL0     H71807   6.305   2.755   1.109  0.1755 -0.3524 -0.1174
  532MOL0     H71808   5.979   2.896   1.199  1.6245 -2.5870 -1.5776
  532MOL0     H71809   6.104   2.925   1.328  1.4486  0.3845 -0.3531
  532MOL0     H71810   5.961   2.891   1.489  0.0089  1.9899 -0.4544
  532MOL0     H71811   5.947   2.718   1.435  0.2081 -0.0692  0.5437
  532MOL0     H71812   5.744   2.798   1.296  1.0141 -1.0231 -0.2639
  532MOL0     H71813   5.788   2.963   1.353  1.5338 -0.6914 -0.1794
  532MOL0     H71814   5.729   2.721   1.537  0.6882  0.2478  1.4524
  532MOL0     H71815   5.705   2.900   1.570 -1.5583 -0.7233  0.7434
  532MOL0     H71816   5.331   2.804   1.399  1.0590 -0.4347 -0.7738
  532MOL0     H71817   6.141   2.648   1.467  0.2320 -4.0473 -2.7945
  532MOL0     H71818   6.394   2.653   1.672 -0.5787  0.5862  0.3779
  532MOL0     H71819   6.246   2.569   1.633  0.1637 -0.3086 -0.6817
  532MOL0     H71820   6.399   2.480   1.621 -0.5493  0.1493 -1.6951
  533MOL0     O71821   6.609   9.607   8.515 -0.1126  0.4760 -0.1782
  533MOL0     C71822   6.624   9.604   8.636  0.7721 -0.0740 -0.5007
  533MOL0     O71823   6.522   9.579   8.729  0.0362  0.3507  0.6839
  533MOL0     C71824   6.467   9.451   8.726 -0.0747 -0.0664 -1.3353
  533MOL0     C71825   6.512   9.342   8.655 -0.6705  0.1871  0.0338
  533MOL0     C71826   6.442   9.224   8.659 -0.5421  0.0877  0.4348
  533MOL0     C71827   6.329   9.200   8.738  0.5092 -0.1597  0.5697
  533MOL0     O71828   6.269   9.086   8.709  0.2730 -0.0507  0.3111
  533MOL0     C71829   6.177   9.029   8.815 -0.3340 -0.5292  0.1462
  533MOL0     C71830   6.097   8.912   8.765  0.5381  0.4615  0.3566
  533MOL0     C71831   6.027   8.845   8.877 -0.8721  0.4545 -0.2867
  533MOL0     C71832   5.992   8.705   8.855  0.7042  0.5900 -0.3341
  533MOL0     C71833   5.903   8.664   8.977  0.0023  0.1459  0.6014
  533MOL0     C71834   5.864   8.518   8.981  0.5390  0.7565  0.5028
  533MOL0     C71835   5.792   8.465   8.848 -0.2276  0.1604 -0.9916
  533MOL0     C71836   5.719   8.332   8.876 -0.4516  0.1223  0.2577
  533MOL0     N71837   5.663   8.275   8.757 -0.0860 -0.3569  0.2749
  533MOL0     C71838   5.730   8.245   8.649  0.0693  0.8259 -0.2908
  533MOL0     C71839   5.639   8.189   8.563  0.0374 -0.3413 -0.0751
  533MOL0     C71840   5.668   8.130   8.423 -1.1296 -1.3809  0.6189
  533MOL0     C71841   5.753   8.003   8.442 -0.9295  0.4500  0.2557
  533MOL0     C71842   5.687   7.876   8.493  0.1022  0.2637 -0.3128
  533MOL0     C71843   5.550   7.857   8.423 -0.1319  1.4860 -0.3535
  533MOL0     O71844   5.561   7.877   8.289 -0.3470  0.8561  1.4931
  533MOL0     C71845   5.629   7.783   8.208  0.8999 -0.6087  0.7232
  533MOL0     C71846   5.687   7.666   8.264 -0.6718  0.0197 -0.5987
  533MOL0     C71847   5.753   7.571   8.186 -0.1614 -0.1508 -0.1955
  533MOL0     C71848   5.775   7.582   8.053 -0.9658 -0.3754  0.3100
  533MOL0     C71849   5.849   7.481   7.980 -0.8631  0.9240  0.5113
  533MOL0     O71850   5.860   7.355   8.027  0.2584  0.7212 -0.0075
  533MOL0     C71851   5.929   7.264   7.955 -0.5705 -0.4296  0.0335
  533MOL0     C71852   6.062   7.241   7.989 -0.0578  0.5094 -0.5201
  533MOL0     C71853   6.133   7.150   7.910 -0.5367  0.1059 -0.9235
  533MOL0     C71854   6.079   7.091   7.796 -0.5243  1.1516  0.5388
  533MOL0     O71855   6.151   7.009   7.720  0.2480  0.1224  0.0905
  533MOL0     C71856   6.084   6.910   7.637 -0.0609  0.5118 -0.5315
  533MOL0     C71857   6.179   6.806   7.574 -0.5709 -0.0675  0.2050
  533MOL0     C71858   6.262   6.878   7.465 -0.3417  0.4747 -0.0066
  533MOL0     C71859   6.337   6.782   7.375 -0.3806  0.1783 -0.3075
  533MOL0     C71860   6.432   6.854   7.284 -0.4777  0.3815  0.6367
  533MOL0     C71861   6.457   6.784   7.146  0.1643 -0.5834 -0.3172
  533MOL0     C71862   6.580   6.837   7.070  0.7541 -0.0376 -0.6907
  533MOL0     C71863   6.726   6.823   7.136 -0.0947  0.1202 -0.1956
  533MOL0    Cl71864   6.804   6.655   7.141  0.0571  0.3010  0.2890
  533MOL0     C71865   5.946   7.118   7.764  0.0925  0.1331  0.9526
  533MOL0     C71866   5.870   7.205   7.843  0.5676  0.3158  0.7909
  533MOL0     O71867   5.885   7.504   7.861 -0.7676 -0.5622  0.1559
  533MOL0     C71868   5.705   7.687   7.991 -0.1839  0.2452 -0.7151
  533MOL0     C71869   5.642   7.786   8.066 -1.1217 -0.6805  0.3622
  533MOL0     N71870   5.515   8.199   8.627  0.8258 -0.0639  0.4955
  533MOL0     N71871   5.526   8.257   8.748  0.6200  0.4815  0.8491
  533MOL0     C71872   6.279   9.314   8.815 -0.5049  1.1052 -0.5130
  533MOL0     C71873   6.359   9.432   8.818  0.8786 -0.3253  0.6171
  533MOL0     C71874   6.747   9.655   8.697 -1.1604  0.7855  0.4091
  533MOL0     C71875   6.785   9.610   8.821 -0.1139 -0.0703  0.9034
  533MOL0     C71876   6.901   9.657   8.885 -0.4026  0.2053  0.2126
  533MOL0     C71877   6.983   9.751   8.838 -0.2640  0.0956  1.3434
  533MOL0     O71878   7.097   9.774   8.917  1.4076  0.5251  0.1323
  533MOL0     C71879   7.198   9.858   8.882 -0.2004  0.8399  0.0409
  533MOL0     C71880   7.162  10.005   8.906  0.0172  0.4584  0.6163
  533MOL0     C71881   7.271  10.100   8.886 -0.0388  0.8327  0.1004
  533MOL0     C71882   7.408  10.078   8.937  0.3996 -0.2689  0.1212
  533MOL0     C71883   7.404  10.065   9.084  0.5145  0.3960  0.3831
  533MOL0     C71884   7.403  10.066   9.204 -0.4677 -0.5261  0.7557
  533MOL0     C71885   6.943   9.815   8.716 -0.0840  1.1930 -1.0405
  533MOL0     C71886   6.831   9.758   8.644  0.1889 -1.0884 -0.4407
  533MOL0     C71887   6.802   9.825   8.510 -0.6525  0.2431 -0.1279
  533MOL0     H71888   6.601   9.359   8.595 -0.9740  0.9320 -0.2154
  533MOL0     H71889   6.492   9.143   8.606  1.4258 -0.6209  3.1900
  533MOL0     H71890   6.244   8.984   8.889  1.2501 -0.4241 -1.1837
  533MOL0     H71891   6.105   9.095   8.864  2.3774  2.3990  0.4886
  533MOL0     H71892   6.165   8.845   8.711  0.7039 -0.7520  1.9970
  533MOL0     H71893   6.026   8.960   8.698  1.8404  1.2520 -0.5078
  533MOL0     H71894   5.935   8.894   8.912 -0.2349 -0.2693  2.6745
  533MOL0     H71895   6.085   8.847   8.970 -0.9732  0.1347 -0.2147
  533MOL0     H71896   5.932   8.695   8.764  0.5371 -0.6154 -0.1071
  533MOL0     H71897   6.080   8.639   8.853  1.0537  0.7932  3.1095
  533MOL0     H71898   5.959   8.690   9.067  0.9972  1.2928 -0.3087
  533MOL0     H71899   5.811   8.724   8.983 -1.2406 -1.6080 -0.2005
  533MOL0     H71900   5.941   8.446   9.011  1.4068  0.2618 -2.5521
  533MOL0     H71901   5.791   8.509   9.062  1.9687 -1.9332  1.6515
  533MOL0     H71902   5.882   8.447   8.789  2.1207 -1.1960  2.6536
  533MOL0     H71903   5.733   8.548   8.808 -1.0660 -0.0059 -0.1428
  533MOL0     H71904   5.793   8.268   8.924 -1.3500 -0.2289  1.2061
  533MOL0     H71905   5.636   8.354   8.944 -0.1796  2.0269  0.0400
  533MOL0     H71906   5.834   8.260   8.624  0.2205 -1.1656 -1.0385
  533MOL0     H71907   5.579   8.120   8.360 -0.8684  0.7185 -0.1599
  533MOL0     H71908   5.730   8.202   8.368  0.6249 -3.6573 -0.5719
  533MOL0     H71909   5.801   7.971   8.349  0.7671  1.8617  0.5864
  533MOL0     H71910   5.834   8.018   8.514 -1.1608 -3.9703  1.7084
  533MOL0     H71911   5.663   7.895   8.599 -2.5585  0.9859 -0.9672
  533MOL0     H71912   5.748   7.786   8.480 -1.4620 -0.5813 -2.3527
  533MOL0     H71913   5.484   7.927   8.476  1.9590  0.4672  4.0115
  533MOL0     H71914   5.496   7.765   8.447 -0.4527  1.2704 -1.7822
  533MOL0     H71915   5.660   7.640   8.366  0.0959  1.7826  0.0967
  533MOL0     H71916   5.790   7.488   8.245 -1.6343 -0.0977  0.8702
  533MOL0     H71917   6.107   7.279   8.080 -0.1952 -0.6182  0.0444
  533MOL0     H71918   6.241   7.149   7.923 -0.6644  0.2377  0.3428
  533MOL0     H71919   6.025   6.853   7.709 -1.3297  1.6714 -0.6065
  533MOL0     H71920   6.014   6.949   7.563 -3.2001 -3.1764  0.1447
  533MOL0     H71921   6.237   6.756   7.652 -2.1149 -1.9630  0.2316
  533MOL0     H71922   6.113   6.729   7.534  0.9663 -1.6371  0.5722
  533MOL0     H71923   6.211   6.954   7.405 -0.4895  1.2629  1.0611
  533MOL0     H71924   6.340   6.941   7.510  0.4958  0.0091 -0.7702
  533MOL0     H71925   6.267   6.730   7.308  1.9449 -0.4156 -2.4420
  533MOL0     H71926   6.391   6.702   7.428 -1.9083 -1.9233 -1.7328
  533MOL0     H71927   6.520   6.852   7.349  0.1443 -0.5248 -0.2127
  533MOL0     H71928   6.403   6.959   7.269  2.2886  1.2045  0.5922
  533MOL0     H71929   6.481   6.679   7.163 -0.1286 -1.1880 -3.2751
  533MOL0     H71930   6.368   6.790   7.084 -0.7439  2.7091  1.0858
  533MOL0     H71931   6.566   6.945   7.064  1.6811  0.2530  1.5076
  533MOL0     H71932   6.587   6.794   6.969 -1.1642  0.2738 -0.9857
  533MOL0     H71933   6.792   6.891   7.080 -2.1256  1.2511 -1.3492
  533MOL0     H71934   6.726   6.853   7.241  0.9100  1.1290 -0.4682
  533MOL0     H71935   5.907   7.093   7.666  0.6296  3.2776 -0.1907
  533MOL0     H71936   5.764   7.222   7.824  0.3481 -0.1688  1.5355
  533MOL0     H71937   5.700   7.690   7.882  1.0045  0.5503 -0.7815
  533MOL0     H71938   5.614   7.877   8.013 -0.4502 -2.0573 -2.5680
  533MOL0     H71939   6.186   9.314   8.872 -0.2911 -0.6011 -0.1013
  533MOL0     H71940   6.329   9.525   8.864  1.3940  1.4431 -2.3447
  533MOL0     H71941   6.724   9.534   8.869 -2.0875  1.8564  1.5647
  533MOL0     H71942   6.927   9.601   8.975 -0.3148  0.0716  0.1055
  533MOL0     H71943   7.223   9.856   8.775  1.4376  1.2452  0.3919
  533MOL0     H71944   7.288   9.834   8.938 -2.9952 -2.1583  3.7732
  533MOL0     H71945   7.110  10.022   9.001 -3.8539  1.3294 -1.4487
  533MOL0     H71946   7.077  10.027   8.842 -0.9214 -0.2166  1.5913
  533MOL0     H71947   7.237  10.194   8.931  0.7149 -0.2047  3.0322
  533MOL0     H71948   7.283  10.132   8.782  0.3149  0.4088  0.0072
  533MOL0     H71949   7.459   9.995   8.889 -0.5350  0.9754 -3.3419
  533MOL0     H71950   7.471  10.166   8.917 -1.6392  0.7429 -2.5202
  533MOL0     H71951   7.405  10.050   9.310  1.0816  0.1395  0.8452
  533MOL0     H71952   7.008   9.893   8.679  2.6151 -1.2126 -1.7801
  533MOL0     H71953   6.830   9.758   8.429 -0.7496  1.2731 -1.0356
  533MOL0     H71954   6.693   9.837   8.503 -0.6892 -0.9278 -2.1593
  533MOL0     H71955   6.856   9.918   8.493 -0.1059 -0.4028 -2.1736
  534MOL0     O71956   9.405   1.085   3.982 -0.0126 -0.2006  0.4862
  534MOL0     C71957   9.300   1.150   3.985 -1.1256  0.7408 -0.4204
  534MOL0     O71958   9.252   1.197   4.108  0.6320 -0.6269  0.0893
  534MOL0     C71959   9.333   1.188   4.216  0.1967  0.1009 -1.3002
  534MOL0     C71960   9.430   1.278   4.234 -0.6509  0.8837  1.4139
  534MOL0     C71961   9.504   1.296   4.349 -0.8092  0.2761  0.9037
  534MOL0     C71962   9.471   1.208   4.450  0.5560 -0.0748 -0.6706
  534MOL0     O71963   9.507   1.215   4.582 -0.3417  0.1591  0.4144
  534MOL0     C71964   9.648   1.242   4.616  0.3836 -0.7338 -0.4682
  534MOL0     C71965   9.752   1.136   4.585 -0.5086  0.8709 -0.2883
  534MOL0     C71966   9.715   1.008   4.662  0.0430  0.2109  0.9903
  534MOL0     C71967   9.747   0.996   4.808  0.1298 -0.2466  0.4946
  534MOL0     C71968   9.732   0.859   4.875 -1.0449 -0.0159  0.7167
  534MOL0     C71969   9.680   0.872   5.021 -1.1087  0.1680  0.8497
  534MOL0     C71970   9.547   0.950   5.038  0.7341 -0.6393  0.3463
  534MOL0     C71971   9.472   0.925   5.174 -0.3464  0.1907 -0.3395
  534MOL0     N71972   9.397   0.799   5.176  1.0350 -0.8651 -0.0967
  534MOL0     C71973   9.456   0.682   5.191  0.8355  0.9608 -1.4830
  534MOL0     C71974   9.347   0.598   5.205  0.0927 -0.4435 -0.1581
  534MOL0     C71975   9.358   0.443   5.217  0.4829 -0.0211 -0.2830
  534MOL0     C71976   9.310   0.385   5.352  0.2557  0.5167 -0.0783
  534MOL0     C71977   9.350   0.242   5.388 -0.5411 -0.0817 -0.3251
  534MOL0     C71978   9.501   0.201   5.380 -0.4277  0.4640  0.2686
  534MOL0     O71979   9.520   0.063   5.403 -0.9433 -0.4232 -0.1802
  534MOL0     C71980   9.648   0.009   5.422  0.3378 -0.9883 -0.4083
  534MOL0     C71981   9.653  -0.117   5.481  0.6199 -0.5120  0.6702
  534MOL0     C71982   9.778  -0.180   5.498  0.4403  0.3485 -0.8215
  534MOL0     C71983   9.900  -0.107   5.483 -0.2168  0.7220 -0.4901
  534MOL0     C71984  10.028  -0.169   5.500 -0.6987 -0.2168  0.1375
  534MOL0     O71985  10.029  -0.302   5.495 -0.3278  0.3697  0.9401
  534MOL0     C71986  10.154  -0.362   5.473 -0.2250  0.3820 -0.5981
  534MOL0     C71987  10.231  -0.424   5.575 -0.0159 -0.2369  0.0081
  534MOL0     C71988  10.357  -0.479   5.544  0.6140  0.5809 -0.0110
  534MOL0     C71989  10.408  -0.480   5.417  0.0837  0.3333  0.1202
  534MOL0     O71990  10.530  -0.532   5.387 -0.1684 -0.5523 -1.2455
  534MOL0     C71991  10.630  -0.542   5.490  0.7026  0.2516  0.2497
  534MOL0     C71992  10.771  -0.582   5.435  0.3745 -0.3182  0.0035
  534MOL0     C71993  10.899  -0.523   5.512 -0.5086 -0.2650 -0.6780
  534MOL0     C71994  10.918  -0.578   5.659  0.1094  0.0081  0.5828
  534MOL0     C71995  11.054  -0.527   5.721 -0.6552 -0.0435 -0.8452
  534MOL0     C71996  11.058  -0.372   5.739 -0.7339  0.3638  0.7260
  534MOL0     C71997  10.943  -0.308   5.809 -0.6345  0.2394 -0.4197
  534MOL0     C71998  10.948  -0.152   5.821  0.1006  0.6808 -0.1574
  534MOL0    Cl71999  11.098  -0.110   5.911 -0.5222 -0.2025  0.2264
  534MOL0     C72000  10.323  -0.423   5.322  0.9211  0.3058 -0.3671
  534MOL0     C72001  10.205  -0.361   5.345 -0.6188 -0.0896 -0.6580
  534MOL0     O72002  10.127  -0.100   5.506 -0.3972  0.4619  0.0384
  534MOL0     C72003   9.887   0.023   5.439 -0.4693  0.3567  1.0411
  534MOL0     C72004   9.766   0.081   5.418 -0.0479 -0.1108  0.3620
  534MOL0     N72005   9.226   0.666   5.198  0.5221 -0.3028  0.1420
  534MOL0     N72006   9.262   0.792   5.176  0.5224  0.1063 -0.9088
  534MOL0     C72007   9.373   1.107   4.435 -0.9843 -0.8517  1.0336
  534MOL0     C72008   9.308   1.095   4.315 -0.0366 -0.4388  0.1896
  534MOL0     C72009   9.237   1.171   3.852  0.5317  1.0705 -0.5544
  534MOL0     C72010   9.298   1.135   3.731  0.2264 -0.9302  0.6108
  534MOL0     C72011   9.242   1.179   3.614 -0.0239 -0.9116  0.7157
  534MOL0     C72012   9.125   1.252   3.599 -0.5238 -0.4610 -0.1377
  534MOL0     O72013   9.087   1.309   3.482  0.7452 -0.2221  0.6064
  534MOL0     C72014   8.976   1.399   3.475 -0.6570  0.0025 -0.8464
  534MOL0     C72015   8.939   1.426   3.332  0.2742  0.0776 -0.4985
  534MOL0     C72016   8.784   1.459   3.326 -1.0163  0.1229  0.2573
  534MOL0     C72017   8.756   1.610   3.372  0.2833  0.5587  0.2475
  534MOL0     C72018   8.740   1.623   3.508  0.5129 -0.3873 -0.3937
  534MOL0     C72019   8.724   1.625   3.629  1.3119 -0.2559 -0.9477
  534MOL0     C72020   9.058   1.272   3.718 -0.2957  0.8888  0.3777
  534MOL0     C72021   9.115   1.244   3.847  0.4191  1.1616  1.1271
  534MOL0     C72022   9.031   1.287   3.968 -0.0894  0.9378  0.2018
  534MOL0     H72023   9.440   1.354   4.157  1.0786  0.6719  1.3845
  534MOL0     H72024   9.585   1.367   4.361 -0.0414 -0.4671  0.2841
  534MOL0     H72025   9.681   1.325   4.552 -0.2077  1.1241  1.5219
  534MOL0     H72026   9.656   1.270   4.721  1.0418 -0.2481 -0.6441
  534MOL0     H72027   9.850   1.170   4.619  0.1442  0.9501 -2.0960
  534MOL0     H72028   9.763   1.120   4.477  3.3925  0.0851  0.0661
  534MOL0     H72029   9.777   0.936   4.609  0.6766  4.1415 -4.3806
  534MOL0     H72030   9.606   0.997   4.654 -0.3706  1.2999  3.7855
  534MOL0     H72031   9.846   1.037   4.831  0.7405 -1.8392  0.8828
  534MOL0     H72032   9.680   1.064   4.861 -1.6585 -1.1557 -0.5446
  534MOL0     H72033   9.670   0.793   4.815 -1.9167  1.7384 -0.4056
  534MOL0     H72034   9.831   0.812   4.873 -1.4335 -1.0694  3.0527
  534MOL0     H72035   9.666   0.769   5.056  1.3657  0.0290  1.6982
  534MOL0     H72036   9.759   0.907   5.089 -0.0461 -0.5149  0.0134
  534MOL0     H72037   9.488   0.943   4.946  2.1628 -0.4876 -0.6152
  534MOL0     H72038   9.587   1.052   5.046  0.5169 -0.6202  1.3123
  534MOL0     H72039   9.544   0.927   5.256 -0.4709  1.2462 -0.2386
  534MOL0     H72040   9.393   0.999   5.186 -0.0190  0.7762 -1.5601
  534MOL0     H72041   9.563   0.661   5.192  0.6826  0.1135  0.3547
  534MOL0     H72042   9.324   0.402   5.121  1.0018  0.4187 -0.6607
  534MOL0     H72043   9.466   0.434   5.207  1.3884  4.9486  1.8457
  534MOL0     H72044   9.345   0.455   5.428  0.1080  2.1233 -1.4329
  534MOL0     H72045   9.201   0.395   5.343  0.3278  0.9053 -0.5383
  534MOL0     H72046   9.290   0.170   5.331  2.1553 -2.3046 -0.6128
  534MOL0     H72047   9.318   0.228   5.491 -1.6115  2.2908 -0.2701
  534MOL0     H72048   9.562   0.258   5.449  1.5735 -1.8749  0.5797
  534MOL0     H72049   9.538   0.220   5.279  0.5407 -0.9378  0.3412
  534MOL0     H72050   9.559  -0.164   5.509 -0.3341  1.5340  1.0866
  534MOL0     H72051   9.789  -0.287   5.513 -1.1807  0.5031  2.4948
  534MOL0     H72052  10.190  -0.437   5.675  0.9243 -2.1958  0.1970
  534MOL0     H72053  10.406  -0.530   5.627  0.9936  1.0517  0.0571
  534MOL0     H72054  10.635  -0.447   5.544  1.1610  1.2535 -1.4571
  534MOL0     H72055  10.596  -0.617   5.561  2.1699  1.5215  2.4187
  534MOL0     H72056  10.763  -0.691   5.430 -0.0385 -0.2717 -0.4585
  534MOL0     H72057  10.768  -0.541   5.333 -3.1453 -1.1296 -0.3719
  534MOL0     H72058  10.980  -0.574   5.459  2.8605 -0.6648  4.1509
  534MOL0     H72059  10.921  -0.416   5.520  1.7687 -0.8143  3.2179
  534MOL0     H72060  10.931  -0.686   5.659 -2.1935 -0.6136 -4.9027
  534MOL0     H72061  10.831  -0.547   5.718 -0.1470 -2.6590  1.7340
  534MOL0     H72062  11.127  -0.565   5.648 -1.8308 -0.5410 -1.7943
  534MOL0     H72063  11.083  -0.584   5.810  3.0120  3.7117  0.6774
  534MOL0     H72064  11.155  -0.344   5.783  0.4990 -0.4072 -1.3332
  534MOL0     H72065  11.076  -0.336   5.637 -0.8896 -0.9092  0.2381
  534MOL0     H72066  10.938  -0.353   5.909  0.9864 -2.4859 -1.4328
  534MOL0     H72067  10.851  -0.332   5.755 -0.5154 -3.4006  0.7434
  534MOL0     H72068  10.956  -0.095   5.727  0.7184  2.4348  0.9072
  534MOL0     H72069  10.855  -0.114   5.865  0.6576 -0.4890  2.1453
  534MOL0     H72070  10.362  -0.427   5.221 -1.3301  4.3749 -1.6155
  534MOL0     H72071  10.143  -0.311   5.271 -1.3162  0.7975  0.5084
  534MOL0     H72072   9.977   0.078   5.412 -0.9739  0.1566 -1.2094
  534MOL0     H72073   9.781   0.184   5.385  0.9513 -0.6125 -0.8297
  534MOL0     H72074   9.341   1.048   4.520  1.8065 -2.8106  0.8712
  534MOL0     H72075   9.217   1.036   4.305 -0.3909  0.2316 -0.6509
  534MOL0     H72076   9.375   1.060   3.716  0.1435 -0.4826 -3.0498
  534MOL0     H72077   9.297   1.146   3.526  0.4202 -0.5994  0.8734
  534MOL0     H72078   9.015   1.493   3.515  0.8801  1.2389 -4.7387
  534MOL0     H72079   8.889   1.357   3.527  1.6692  0.4503  3.8854
  534MOL0     H72080   8.962   1.335   3.275  1.1542 -0.6420  0.9558
  534MOL0     H72081   8.993   1.508   3.285 -0.3945 -0.7502 -2.8770
  534MOL0     H72082   8.724   1.388   3.383 -1.6610 -0.7882 -1.4950
  534MOL0     H72083   8.753   1.438   3.223  2.7423 -0.7382 -0.8420
  534MOL0     H72084   8.839   1.675   3.340  1.3227 -0.2706  1.1896
  534MOL0     H72085   8.665   1.636   3.318  2.2750 -0.0373 -3.8068
  534MOL0     H72086   8.695   1.597   3.728 -0.3797 -2.6281 -1.9980
  534MOL0     H72087   8.955   1.309   3.721 -0.7230 -0.1710 -0.4947
  534MOL0     H72088   9.083   1.365   4.024 -1.5656  2.4060 -0.3711
  534MOL0     H72089   8.937   1.332   3.935 -2.3394 -1.7425  2.4468
  534MOL0     H72090   9.013   1.210   4.042  1.0863  1.3555  0.9553
  535MOL0     O72091   4.750  10.169   0.222 -0.0345  0.0159  0.0743
  535MOL0     C72092   4.855  10.210   0.175 -0.9880 -0.3196 -0.0627
  535MOL0     O72093   4.901  10.182   0.047 -0.1946  0.3289 -0.0271
  535MOL0     C72094   4.852  10.081  -0.034  0.1618 -0.0651  0.4414
  535MOL0     C72095   4.931   9.963  -0.049  0.4257  0.6842 -0.1307
  535MOL0     C72096   4.886   9.859  -0.128  0.6029  0.5508  0.1825
  535MOL0     C72097   4.754   9.877  -0.188 -0.4736  0.0516 -0.1131
  535MOL0     O72098   4.692   9.781  -0.256 -0.4087 -0.6457 -0.2858
  535MOL0     C72099   4.774   9.689  -0.324 -0.0185 -0.7451 -0.1247
  535MOL0     C72100   4.675   9.616  -0.418  0.7820  0.1705  0.2048
  535MOL0     C72101   4.609   9.721  -0.508 -0.7929 -0.1110 -0.1336
  535MOL0     C72102   4.554   9.677  -0.646 -1.0979  0.4702  0.2247
  535MOL0     C72103   4.674   9.652  -0.733 -0.4968  0.3880  0.1450
  535MOL0     C72104   4.620   9.604  -0.870 -0.9198 -0.2492 -0.3278
  535MOL0     C72105   4.746   9.553  -0.952 -0.5586 -0.1104  0.4174
  535MOL0     C72106   4.697   9.493  -1.084  0.8375 -0.7172 -0.2464
  535MOL0     N72107   4.787   9.420  -1.168  0.0334 -0.3004 -0.1326
  535MOL0     C72108   4.865   9.462  -1.275 -0.0903 -0.4397 -0.3489
  535MOL0     C72109   4.921   9.346  -1.317 -0.8799 -0.5518 -0.1870
  535MOL0     C72110   5.025   9.335  -1.426 -0.4231 -0.3316 -0.4614
  535MOL0     C72111   5.144   9.433  -1.402 -0.2974 -0.3933 -0.3288
  535MOL0     C72112   5.241   9.434  -1.515  0.1825 -0.3577  0.1669
  535MOL0     C72113   5.298   9.299  -1.566  0.5970  0.2326  0.1152
  535MOL0     O72114   5.373   9.231  -1.463  0.3554 -0.4662  0.2045
  535MOL0     C72115   5.444   9.123  -1.496  0.5751  0.6714  0.7183
  535MOL0     C72116   5.541   9.097  -1.401 -0.1522 -0.4769 -0.1139
  535MOL0     C72117   5.623   8.988  -1.419 -0.6783 -0.3103 -1.0662
  535MOL0     C72118   5.621   8.911  -1.533 -0.2815  0.0454  0.7784
  535MOL0     C72119   5.716   8.798  -1.554 -0.1339 -1.0034  0.0635
  535MOL0     O72120   5.828   8.796  -1.476 -0.1267  0.3032  0.2280
  535MOL0     C72121   5.927   8.709  -1.488  0.3135 -0.3613  0.6681
  535MOL0     C72122   6.057   8.752  -1.456 -0.3533 -0.3507  0.8022
  535MOL0     C72123   6.166   8.671  -1.495 -0.1308  0.0810  0.2123
  535MOL0     C72124   6.141   8.538  -1.547 -0.1793  0.1863  0.0548
  535MOL0     O72125   6.238   8.460  -1.588 -0.1135  0.0395  0.5337
  535MOL0     C72126   6.262   8.336  -1.510  0.1569 -0.0438  0.0639
  535MOL0     C72127   6.364   8.256  -1.591  0.2279 -0.5471 -0.7267
  535MOL0     C72128   6.506   8.321  -1.585 -0.1548 -0.1906 -0.5267
  535MOL0     C72129   6.617   8.213  -1.600 -0.5175 -0.2458  0.0359
  535MOL0     C72130   6.752   8.285  -1.629  0.5398  0.7841 -0.6407
  535MOL0     C72131   6.862   8.183  -1.656  0.0327 -1.0585  0.4974
  535MOL0     C72132   6.888   8.092  -1.538  1.5335 -0.2879  0.9444
  535MOL0     C72133   7.021   8.039  -1.545 -0.6800 -0.7364  0.7136
  535MOL0    Cl72134   7.036   7.888  -1.431  0.3198 -0.2615  0.0798
  535MOL0     C72135   6.009   8.493  -1.575  0.1420  0.1938 -1.4422
  535MOL0     C72136   5.907   8.581  -1.542 -0.6732 -0.6046  0.0676
  535MOL0     O72137   5.698   8.731  -1.649 -0.2206  0.1359 -1.3809
  535MOL0     C72138   5.510   8.937  -1.631  0.7554  0.9054  0.1048
  535MOL0     C72139   5.425   9.034  -1.611 -0.1675  0.3005  0.8910
  535MOL0     N72140   4.879   9.243  -1.241 -0.3550  0.4057  0.6409
  535MOL0     N72141   4.806   9.290  -1.152  0.0390 -0.0874 -0.8642
  535MOL0     C72142   4.682   9.999  -0.167  0.4737  0.5847 -0.7485
  535MOL0     C72143   4.733  10.101  -0.089 -0.8339  0.1737  0.0563
  535MOL0     C72144   4.939  10.295   0.261  0.6445 -0.1082  0.2505
  535MOL0     C72145   4.919  10.281   0.393 -0.4040  0.3023  0.0301
  535MOL0     C72146   5.006  10.351   0.484  0.3795 -0.1176  0.4131
  535MOL0     C72147   5.100  10.440   0.443 -0.1150  0.0137  0.2281
  535MOL0     O72148   5.181  10.508   0.530 -0.5007  0.1963 -0.1242
  535MOL0     C72149   5.125  10.632   0.571  0.1110 -0.2277 -0.9678
  535MOL0     C72150   5.141  10.655   0.726  0.7685 -0.2177  0.0659
  535MOL0     C72151   5.288  10.668   0.774 -0.6810 -0.5857 -0.6236
  535MOL0     C72152   5.321  10.754   0.902 -0.1958  0.4772  0.1729
  535MOL0     C72153   5.320  10.677   1.025  0.0625 -0.2444  0.5351
  535MOL0     C72154   5.329  10.605   1.119 -1.2198 -0.1174  0.0063
  535MOL0     C72155   5.115  10.462   0.310 -0.4842  0.1406  0.6495
  535MOL0     C72156   5.029  10.392   0.220  0.0028  0.3141 -0.2233
  535MOL0     C72157   5.059  10.410   0.076  0.1962  0.5711  0.1670
  535MOL0     H72158   5.022   9.943   0.006 -0.6837 -2.8472  0.7376
  535MOL0     H72159   4.935   9.764  -0.143 -2.5580 -1.1312 -0.3497
  535MOL0     H72160   4.844   9.744  -0.387  0.4891 -0.3472  0.7793
  535MOL0     H72161   4.828   9.632  -0.247 -1.0157 -1.4790  0.0587
  535MOL0     H72162   4.604   9.564  -0.353 -0.1561 -0.1293 -1.0374
  535MOL0     H72163   4.729   9.540  -0.476  0.1490  0.3380 -0.6219
  535MOL0     H72164   4.676   9.806  -0.523 -0.4184 -0.1683  1.1196
  535MOL0     H72165   4.524   9.751  -0.446 -0.9625 -2.9591  1.1947
  535MOL0     H72166   4.502   9.581  -0.633  2.5474 -1.5191  1.8389
  535MOL0     H72167   4.482   9.754  -0.672 -1.2349  0.2564 -0.0369
  535MOL0     H72168   4.736   9.742  -0.733  2.1024 -1.2544  2.0896
  535MOL0     H72169   4.745   9.575  -0.703 -1.2485 -0.0190  0.9478
  535MOL0     H72170   4.550   9.524  -0.845 -0.1110 -0.5088  1.2844
  535MOL0     H72171   4.571   9.679  -0.933 -0.5490 -0.9124 -1.4374
  535MOL0     H72172   4.801   9.477  -0.896 -1.2505 -1.9080 -1.2109
  535MOL0     H72173   4.808   9.643  -0.965 -1.6681  0.7876  1.1379
  535MOL0     H72174   4.632   9.414  -1.045 -0.5396 -0.0196 -1.0537
  535MOL0     H72175   4.636   9.562  -1.142  1.4854 -0.9518 -1.2442
  535MOL0     H72176   4.875   9.560  -1.319 -1.8076 -0.5026 -0.9278
  535MOL0     H72177   5.059   9.231  -1.430 -1.3360 -0.6381 -4.0823
  535MOL0     H72178   4.973   9.355  -1.520 -0.7326 -1.3395 -0.5138
  535MOL0     H72179   5.106   9.533  -1.382 -2.3140 -1.3134  0.7353
  535MOL0     H72180   5.202   9.401  -1.316 -4.7632 -1.6145  2.5701
  535MOL0     H72181   5.328   9.498  -1.495 -0.0836  0.0409  0.0655
  535MOL0     H72182   5.201   9.484  -1.604  4.2670  0.4931 -1.4186
  535MOL0     H72183   5.358   9.332  -1.651  0.5063 -0.3608 -0.1854
  535MOL0     H72184   5.221   9.236  -1.610  0.6625 -1.3988  2.1455
  535MOL0     H72185   5.549   9.143  -1.303 -0.0352 -2.3117  0.7714
  535MOL0     H72186   5.697   8.990  -1.340 -1.2512  0.0096 -0.5304
  535MOL0     H72187   6.076   8.852  -1.419  1.2967  0.2217 -1.3915
  535MOL0     H72188   6.269   8.704  -1.494  0.9439 -2.9185  1.2372
  535MOL0     H72189   6.298   8.349  -1.407  2.2022  1.8457 -0.8090
  535MOL0     H72190   6.178   8.266  -1.498 -1.0872  1.3922  0.0154
  535MOL0     H72191   6.371   8.159  -1.541 -0.5931 -1.0435 -1.5376
  535MOL0     H72192   6.341   8.241  -1.697 -1.8814  2.9922 -0.9146
  535MOL0     H72193   6.521   8.407  -1.651 -1.8532 -0.2712 -1.0452
  535MOL0     H72194   6.522   8.362  -1.484 -0.7264 -0.0218 -0.5056
  535MOL0     H72195   6.577   8.136  -1.667  1.0010 -1.4841  0.4812
  535MOL0     H72196   6.621   8.155  -1.508  1.2339  0.8875  0.7271
  535MOL0     H72197   6.766   8.356  -1.547 -1.6907 -0.7320  1.1918
  535MOL0     H72198   6.737   8.341  -1.721 -1.0974 -0.1054 -0.9571
  535MOL0     H72199   6.837   8.128  -1.748  2.8107 -1.3424 -0.1788
  535MOL0     H72200   6.956   8.233  -1.682 -1.6156  2.1915  0.2538
  535MOL0     H72201   6.822   8.005  -1.543  0.3786  0.5857  0.6489
  535MOL0     H72202   6.874   8.147  -1.445 -0.6073  0.0032  0.5002
  535MOL0     H72203   7.029   8.000  -1.647 -2.5001 -2.4292  1.1675
  535MOL0     H72204   7.086   8.127  -1.536 -1.7579  0.0289  1.0967
  535MOL0     H72205   5.998   8.395  -1.620  2.2643 -0.6054 -0.3735
  535MOL0     H72206   5.809   8.538  -1.563 -0.9771 -0.3135  0.8676
  535MOL0     H72207   5.485   8.870  -1.713 -1.8453 -0.0715  1.5687
  535MOL0     H72208   5.345   9.053  -1.681  0.8660  3.4245  0.3709
  535MOL0     H72209   4.584  10.001  -0.213  1.7209  2.0906 -3.6027
  535MOL0     H72210   4.674  10.191  -0.074 -1.0199  0.2895 -1.2563
  535MOL0     H72211   4.847  10.215   0.440  1.1364  0.1801  2.4311
  535MOL0     H72212   4.986  10.348   0.590 -1.8328  1.0299  0.1090
  535MOL0     H72213   5.019  10.636   0.545  0.2137  0.4352 -1.3158
  535MOL0     H72214   5.171  10.716   0.518 -0.6990  0.4766 -0.5613
  535MOL0     H72215   5.083  10.571   0.766 -3.2063  2.0894 -0.3940
  535MOL0     H72216   5.084  10.745   0.749 -0.2974 -1.1664  1.3448
  535MOL0     H72217   5.343  10.712   0.691  0.7135 -0.0158  0.5696
  535MOL0     H72218   5.330  10.567   0.778  0.8107 -0.0489 -1.7745
  535MOL0     H72219   5.426  10.777   0.880 -0.6277  3.0968  0.5298
  535MOL0     H72220   5.261  10.845   0.904  1.3971  1.5684  1.8789
  535MOL0     H72221   5.343  10.549   1.209  1.8684  3.1084  1.8080
  535MOL0     H72222   5.178  10.543   0.275  1.2338 -1.2992  0.2747
  535MOL0     H72223   5.092  10.314   0.036  0.7847 -0.4755  2.9720
  535MOL0     H72224   4.981  10.454   0.013  2.3349  2.1887 -1.5619
  535MOL0     H72225   5.144  10.479   0.066  0.2419  0.8335  2.0471
  536MOL0     O72226  10.993   9.423   1.274 -0.0618 -0.2124 -0.5830
  536MOL0     C72227  10.945   9.366   1.373 -0.9841 -0.1141  0.2552
  536MOL0     O72228  11.018   9.350   1.485 -0.1821  0.5201 -0.5378
  536MOL0     C72229  11.150   9.390   1.499  0.1057  0.0734 -0.6437
  536MOL0     C72230  11.183   9.437   1.623  0.3774 -0.7319  0.0009
  536MOL0     C72231  11.314   9.455   1.661 -0.6458 -0.3609  0.5746
  536MOL0     C72232  11.415   9.453   1.565  0.2817  0.6668  0.0694
  536MOL0     O72233  11.537   9.488   1.613 -0.9018  0.1702  0.2373
  536MOL0     C72234  11.647   9.413   1.572  0.6039  0.0229  0.2431
  536MOL0     C72235  11.749   9.493   1.503 -0.3289  0.3621 -0.1145
  536MOL0     C72236  11.709   9.516   1.355  0.1530 -1.3984 -1.2123
  536MOL0     C72237  11.825   9.559   1.259  0.4403  0.7378 -0.1871
  536MOL0     C72238  11.765   9.579   1.123  0.7446 -0.4227 -0.0416
  536MOL0     C72239  11.830   9.650   1.010 -0.2586  0.1039  0.1226
  536MOL0     C72240  11.982   9.611   0.986 -0.1151 -0.5534  0.3712
  536MOL0     C72241  12.007   9.465   0.936  0.4152  0.7065 -0.0939
  536MOL0     N72242  11.937   9.448   0.803 -0.6130  0.0244 -0.2394
  536MOL0     C72243  11.962   9.542   0.698  0.1329  0.0862  0.1864
  536MOL0     C72244  11.900   9.485   0.592  0.1231  0.3182  0.3374
  536MOL0     C72245  11.889   9.524   0.445  0.1641  0.2125 -0.4986
  536MOL0     C72246  11.900   9.666   0.415 -0.3308 -0.5952  0.5230
  536MOL0     C72247  12.049   9.701   0.425 -0.1838 -0.3584 -1.0324
  536MOL0     C72248  12.060   9.850   0.382  0.3656 -0.7046  0.1627
  536MOL0     O72249  12.196   9.889   0.386 -0.0179 -0.2275  0.3082
  536MOL0     C72250  12.242  10.011   0.340 -0.0645 -0.5109 -0.8395
  536MOL0     C72251  12.164  10.119   0.301  0.9821  0.0657  0.1940
  536MOL0     C72252  12.208  10.256   0.288 -0.9816  0.3365 -0.2707
  536MOL0     C72253  12.345  10.278   0.304 -0.7091  0.6810  0.2947
  536MOL0     C72254  12.411  10.413   0.290 -0.2477  0.0942  1.0423
  536MOL0     O72255  12.545  10.407   0.278 -0.4421 -1.1916 -0.0695
  536MOL0     C72256  12.612  10.529   0.277 -0.0513 -0.3939  0.2566
  536MOL0     C72257  12.747  10.507   0.239 -0.1026 -1.4195  0.0398
  536MOL0     C72258  12.832  10.619   0.232 -1.0053 -0.0169 -0.1612
  536MOL0     C72259  12.794  10.748   0.259 -0.5627 -0.2511  1.2542
  536MOL0     O72260  12.871  10.859   0.259 -0.3519  0.0650 -0.4496
  536MOL0     C72261  13.006  10.843   0.307 -0.1444  0.5766  1.1732
  536MOL0     C72262  13.090  10.967   0.293 -0.3675  0.1302 -0.0274
  536MOL0     C72263  13.239  10.932   0.323 -0.7945 -0.3612 -0.8645
  536MOL0     C72264  13.300  11.077   0.350  0.2793 -0.8459 -0.0967
  536MOL0     C72265  13.451  11.074   0.304  1.3260  0.1159 -0.4239
  536MOL0     C72266  13.481  11.047   0.147  0.3760  0.1485  0.2355
  536MOL0     C72267  13.635  11.016   0.147  0.5169  0.2743 -1.2449
  536MOL0     C72268  13.703  10.995   0.011 -0.9059  0.1392 -0.0796
  536MOL0    Cl72269  13.871  10.945   0.038  0.1955 -0.1628  0.0948
  536MOL0     C72270  12.658  10.768   0.298  0.5714  0.2947  0.2109
  536MOL0     C72271  12.572  10.657   0.314 -0.2620  0.2698  0.6676
  536MOL0     O72272  12.340  10.511   0.273 -1.0020  0.7215  0.2015
  536MOL0     C72273  12.432  10.171   0.342  1.2463  0.1679  0.4639
  536MOL0     C72274  12.379  10.044   0.367 -0.3556 -0.7651  0.3747
  536MOL0     N72275  11.851   9.360   0.636 -0.2675  0.3579 -0.0781
  536MOL0     N72276  11.864   9.344   0.763  0.5755  0.0270  0.4735
  536MOL0     C72277  11.377   9.418   1.437 -0.2538 -0.3189  1.3219
  536MOL0     C72278  11.250   9.380   1.402  0.4791 -1.2462  0.2243
  536MOL0     C72279  10.804   9.325   1.392 -0.8291  0.6205 -1.0456
  536MOL0     C72280  10.750   9.335   1.522  0.0579 -0.7464 -0.1568
  536MOL0     C72281  10.612   9.300   1.541  0.9559  0.3984 -0.2157
  536MOL0     C72282  10.538   9.245   1.437  0.0969 -0.9085 -0.6737
  536MOL0     O72283  10.409   9.206   1.471 -0.6151 -0.0051  0.8457
  536MOL0     C72284  10.329   9.109   1.397  0.6545  0.7131 -0.6321
  536MOL0     C72285  10.238   9.049   1.501  0.1919 -0.3744 -0.0748
  536MOL0     C72286  10.297   8.984   1.627 -0.3681 -0.3042 -0.1552
  536MOL0     C72287  10.364   8.853   1.591  0.0335 -0.8859 -0.2284
  536MOL0     C72288  10.503   8.858   1.545 -0.0628 -0.2404 -0.4409
  536MOL0     C72289  10.608   8.846   1.491  0.7934 -0.3184  1.3520
  536MOL0     C72290  10.596   9.239   1.306 -0.1949 -0.1620 -0.5912
  536MOL0     C72291  10.724   9.278   1.276 -0.2394  0.4052 -0.4017
  536MOL0     C72292  10.782   9.266   1.143 -0.7738  0.4822 -0.2154
  536MOL0     H72293  11.103   9.457   1.694  0.8726  2.0303 -0.1186
  536MOL0     H72294  11.334   9.500   1.758  1.3473  0.8929 -0.3410
  536MOL0     H72295  11.700   9.372   1.659 -1.9855 -1.1759  1.3672
  536MOL0     H72296  11.617   9.333   1.504 -1.9525  2.5274 -1.8386
  536MOL0     H72297  11.837   9.429   1.498  0.3907  1.1782  1.2871
  536MOL0     H72298  11.773   9.579   1.566 -1.0992 -0.3642  1.2060
  536MOL0     H72299  11.641   9.601   1.358 -1.0846 -2.3927 -0.2337
  536MOL0     H72300  11.661   9.424   1.322 -0.8176 -1.9785  1.5426
  536MOL0     H72301  11.871   9.652   1.294 -0.0836  1.1237 -0.5018
  536MOL0     H72302  11.898   9.477   1.257  0.3855  0.5330  2.4686
  536MOL0     H72303  11.747   9.478   1.087  1.5029 -0.5547 -0.0667
  536MOL0     H72304  11.667   9.625   1.139  2.1154  2.2576  1.2842
  536MOL0     H72305  11.762   9.634   0.926 -0.9709 -0.0706  0.7197
  536MOL0     H72306  11.829   9.759   1.020 -0.8566  0.1007  0.0942
  536MOL0     H72307  12.030   9.624   1.084 -1.5714  0.6543  0.9563
  536MOL0     H72308  12.022   9.681   0.911 -1.0216  0.9308  1.2218
  536MOL0     H72309  12.115   9.449   0.926  0.8748  0.2232  3.9724
  536MOL0     H72310  11.970   9.390   1.007 -0.8458  1.2650 -0.1256
  536MOL0     H72311  12.015   9.636   0.691  2.1355 -1.1034 -2.6486
  536MOL0     H72312  11.958   9.467   0.382  0.4814 -3.2462  2.6023
  536MOL0     H72313  11.790   9.484   0.420  0.4914 -1.8723  1.2435
  536MOL0     H72314  11.861   9.677   0.313  0.3757  1.5995  0.4318
  536MOL0     H72315  11.843   9.731   0.481 -3.7688 -1.0219 -1.7883
  536MOL0     H72316  12.114   9.654   0.351 -0.3213 -1.0807 -0.7029
  536MOL0     H72317  12.087   9.682   0.526  0.6455  0.2461 -1.2170
  536MOL0     H72318  11.998   9.919   0.440 -1.4169 -3.1535  1.3876
  536MOL0     H72319  12.031   9.847   0.277 -0.0414 -2.9676  0.2741
  536MOL0     H72320  12.058  10.100   0.286  0.4907  1.4526  1.5548
  536MOL0     H72321  12.141  10.335   0.255  0.0956  0.3819 -2.5306
  536MOL0     H72322  12.785  10.407   0.220 -1.9348 -1.9505 -1.1302
  536MOL0     H72323  12.934  10.590   0.210 -0.2305  1.6292  1.0333
  536MOL0     H72324  13.015  10.794   0.404 -0.2020  0.5853  1.1836
  536MOL0     H72325  13.043  10.777   0.228 -1.7960  1.2040 -0.2044
  536MOL0     H72326  13.094  11.020   0.198  1.8261  0.2143  0.0550
  536MOL0     H72327  13.040  11.032   0.366  0.8025 -0.5495  1.4409
  536MOL0     H72328  13.231  10.867   0.411 -3.1654 -1.1681 -1.5881
  536MOL0     H72329  13.297  10.884   0.244  1.4096  2.7648 -1.2894
  536MOL0     H72330  13.289  11.109   0.454  1.9834  1.2033 -0.4803
  536MOL0     H72331  13.253  11.157   0.291  3.1111  2.2867  1.5373
  536MOL0     H72332  13.489  10.991   0.366  2.0189  1.3694  0.8909
  536MOL0     H72333  13.515  11.151   0.347  1.2468  0.1870 -0.4331
  536MOL0     H72334  13.440  10.957   0.100  2.2348 -1.3110  1.3107
  536MOL0     H72335  13.452  11.133   0.086 -2.1994  0.3367  1.5969
  536MOL0     H72336  13.650  10.931   0.215  1.7344 -0.0123 -1.8371
  536MOL0     H72337  13.683  11.104   0.190  1.5744 -1.7670  2.2099
  536MOL0     H72338  13.657  10.904  -0.028 -0.4946 -0.9109  1.7553
  536MOL0     H72339  13.679  11.081  -0.051 -0.6409  0.1000 -0.2373
  536MOL0     H72340  12.634  10.866   0.339 -0.6532  0.0444  0.1324
  536MOL0     H72341  12.478  10.669   0.367  0.0554  2.9860  0.7694
  536MOL0     H72342  12.539  10.188   0.354  0.6886  2.8232  3.0468
  536MOL0     H72343  12.442   9.965   0.408  0.7028  0.1248  0.5199
  536MOL0     H72344  11.438   9.427   1.347 -1.7239  1.9083  0.4604
  536MOL0     H72345  11.245   9.319   1.311  1.9047 -0.6695 -0.2804
  536MOL0     H72346  10.802   9.359   1.614 -0.7117 -2.4308  0.7664
  536MOL0     H72347  10.569   9.304   1.640 -0.8443  0.4192 -0.9604
  536MOL0     H72348  10.387   9.029   1.349 -0.4886  1.0054 -2.6000
  536MOL0     H72349  10.284   9.165   1.316 -0.7509 -0.4096 -0.6630
  536MOL0     H72350  10.167   8.979   1.454 -0.6393  0.8135 -0.6317
  536MOL0     H72351  10.172   9.131   1.531  0.7841 -1.1711  3.9009
  536MOL0     H72352  10.223   8.958   1.703  1.9556 -0.8517  2.0751
  536MOL0     H72353  10.378   9.047   1.664 -0.9449  0.5889 -0.3938
  536MOL0     H72354  10.377   8.818   1.695 -2.0639  4.7418  2.3150
  536MOL0     H72355  10.299   8.787   1.532  2.7045 -2.5740 -1.4911
  536MOL0     H72356  10.690   8.838   1.422  1.3148  0.7420  1.8136
  536MOL0     H72357  10.536   9.184   1.234 -0.0324  1.6876 -2.2282
  536MOL0     H72358  10.851   9.183   1.125 -0.5311  0.6555 -0.0881
  536MOL0     H72359  10.696   9.239   1.080 -0.8278  3.4343 -1.5981
  536MOL0     H72360  10.822   9.362   1.109 -1.0648  0.2547 -1.2398
  537MOL0     O72361   5.295   4.835   9.042 -0.0793  0.3890  0.4899
  537MOL0     C72362   5.302   4.950   9.091  0.6192  0.5922 -0.3916
  537MOL0     O72363   5.298   5.057   9.022 -0.0920  0.0781 -0.3554
  537MOL0     C72364   5.289   5.063   8.887  0.6021 -0.3754 -0.3124
  537MOL0     C72365   5.271   4.965   8.801  0.3865 -0.5861 -0.0077
  537MOL0     C72366   5.268   4.992   8.663 -0.2484  0.2383 -1.2011
  537MOL0     C72367   5.286   5.116   8.615 -0.9872 -0.5713  0.9893
  537MOL0     O72368   5.299   5.139   8.476 -0.0811  0.7782  0.9921
  537MOL0     C72369   5.286   5.270   8.416  0.0540 -0.1262 -0.4226
  537MOL0     C72370   5.274   5.263   8.260  0.3167  0.0683 -0.1520
  537MOL0     C72371   5.133   5.292   8.211  0.2918 -0.3002  0.0958
  537MOL0     C72372   5.114   5.295   8.057  0.2333  0.4797 -1.1736
  537MOL0     C72373   4.972   5.307   8.000 -0.0047 -0.0725  1.2512
  537MOL0     C72374   4.975   5.296   7.844  0.0800  0.4100 -0.2929
  537MOL0     C72375   4.832   5.338   7.794  0.2802  1.3286  0.6975
  537MOL0     C72376   4.741   5.231   7.732  0.5562 -0.2713 -0.6291
  537MOL0     N72377   4.809   5.161   7.622 -0.5526 -0.7343  0.1134
  537MOL0     C72378   4.828   5.218   7.497 -0.1200  0.9864 -0.0068
  537MOL0     C72379   4.904   5.120   7.424  0.7764 -0.8286 -0.9037
  537MOL0     C72380   4.954   5.135   7.285  0.3695  0.3366  0.2827
  537MOL0     C72381   5.110   5.108   7.273  0.0816 -0.6133 -0.4224
  537MOL0     C72382   5.199   5.238   7.290  0.1304 -0.3191  0.3179
  537MOL0     C72383   5.347   5.207   7.277  0.4195 -0.5321  1.7232
  537MOL0     O72384   5.362   5.158   7.140  1.1460 -0.0795 -0.0633
  537MOL0     C72385   5.486   5.130   7.100 -0.1921  0.1143 -0.1210
  537MOL0     C72386   5.597   5.114   7.175 -0.6947 -0.0344 -0.9111
  537MOL0     C72387   5.720   5.069   7.121 -0.5469  0.3408  0.1828
  537MOL0     C72388   5.745   5.061   6.983 -0.3241 -0.6177 -0.0587
  537MOL0     C72389   5.878   5.007   6.935  0.8582 -0.0146 -1.2069
  537MOL0     O72390   5.909   5.027   6.804  0.5690 -0.5474  0.0755
  537MOL0     C72391   6.040   4.996   6.762 -0.5556 -0.1854 -0.0337
  537MOL0     C72392   6.094   5.074   6.651  0.5937  0.0666 -0.7050
  537MOL0     C72393   6.208   5.042   6.592 -0.6468  0.4102  1.0246
  537MOL0     C72394   6.280   4.926   6.638 -1.0517  0.5433 -0.1199
  537MOL0     O72395   6.400   4.884   6.583  0.1352 -0.5820  0.3596
  537MOL0     C72396   6.460   4.957   6.471 -0.1284  0.3066 -0.7849
  537MOL0     C72397   6.552   4.869   6.379  0.7104  0.3537 -0.3450
  537MOL0     C72398   6.693   4.843   6.421 -0.0304 -0.0787  0.8271
  537MOL0     C72399   6.729   4.797   6.563  0.1034  0.3761  0.4603
  537MOL0     C72400   6.713   4.899   6.672 -0.1464 -0.8272 -0.6773
  537MOL0     C72401   6.771   4.854   6.803 -0.1412 -0.9106 -0.2154
  537MOL0     C72402   6.669   4.757   6.857  0.5687 -0.3007  0.8597
  537MOL0     C72403   6.719   4.694   6.997  0.5962 -0.2885  0.2015
  537MOL0    Cl72404   6.819   4.548   6.950  0.3019  0.2217  0.0379
  537MOL0     C72405   6.227   4.850   6.740  0.5365  0.1990  0.3993
  537MOL0     C72406   6.100   4.877   6.796 -0.7587  0.6993 -0.9075
  537MOL0     O72407   5.948   4.952   7.018  0.3102  0.6296  0.2908
  537MOL0     C72408   5.635   5.092   6.904 -0.0053  1.0675  0.0605
  537MOL0     C72409   5.508   5.113   6.954 -0.5346 -0.4130 -0.1867
  537MOL0     N72410   4.910   5.007   7.504 -0.3239 -0.0702 -0.4710
  537MOL0     N72411   4.857   5.031   7.619  0.1998  0.5933  0.3166
  537MOL0     C72412   5.300   5.225   8.704 -1.0085  0.0465 -0.1584
  537MOL0     C72413   5.302   5.192   8.839  0.9067  0.0936  0.6372
  537MOL0     C72414   5.335   4.951   9.236  0.4178 -0.5506  0.1740
  537MOL0     C72415   5.364   5.076   9.286 -0.0568  0.7114 -0.2525
  537MOL0     C72416   5.399   5.088   9.425  0.9235 -0.1430 -0.8388
  537MOL0     C72417   5.397   4.979   9.508 -0.6995  1.5896  0.5249
  537MOL0     O72418   5.398   4.985   9.643 -0.1658 -0.1320  0.2020
  537MOL0     C72419   5.410   5.109   9.713 -0.2949  0.2129 -0.1425
  537MOL0     C72420   5.423   5.071   9.863  0.0589  0.5182 -1.0715
  537MOL0     C72421   5.392   5.181   9.959 -0.5411 -0.5562  0.2034
  537MOL0     C72422   5.499   5.295   9.984 -0.0132 -0.8791  0.1557
  537MOL0     C72423   5.616   5.229  10.041  0.0449 -0.1673 -0.3690
  537MOL0     C72424   5.709   5.163  10.086 -0.0339 -0.2201 -0.6582
  537MOL0     C72425   5.374   4.855   9.462  0.0890 -0.1270 -0.7263
  537MOL0     C72426   5.341   4.837   9.324 -0.3651  0.5705  0.6809
  537MOL0     C72427   5.304   4.698   9.284 -0.0883 -0.2338  0.1708
  537MOL0     H72428   5.245   4.864   8.830 -2.8884 -0.0191 -0.6141
  537MOL0     H72429   5.244   4.908   8.598  1.5608 -1.7255  0.5436
  537MOL0     H72430   5.197   5.321   8.455 -0.9300 -1.4232 -0.8983
  537MOL0     H72431   5.372   5.333   8.439  0.2811  0.5870 -2.9425
  537MOL0     H72432   5.306   5.165   8.225  0.3508 -0.2945  0.8610
  537MOL0     H72433   5.344   5.338   8.222 -1.5120  2.0028  0.1036
  537MOL0     H72434   5.113   5.395   8.243  2.6077  0.5978 -1.1014
  537MOL0     H72435   5.067   5.219   8.258 -0.2764 -0.8205 -1.4400
  537MOL0     H72436   5.178   5.374   8.018  1.0968  0.1807 -0.4119
  537MOL0     H72437   5.164   5.205   8.021 -0.2126 -0.8339  1.2385
  537MOL0     H72438   4.907   5.225   8.031  0.1510 -1.9462 -2.7782
  537MOL0     H72439   4.923   5.399   8.033 -1.9906 -0.4658 -0.4137
  537MOL0     H72440   5.046   5.359   7.789 -0.8503  2.4367  0.7266
  537MOL0     H72441   4.998   5.191   7.824 -1.6216  0.1287 -0.8979
  537MOL0     H72442   4.838   5.407   7.709 -2.7813  1.3522  0.3858
  537MOL0     H72443   4.770   5.378   7.874 -1.2492  1.2457 -0.3995
  537MOL0     H72444   4.717   5.154   7.805 -1.3422  0.2559 -0.6388
  537MOL0     H72445   4.647   5.273   7.696  0.1437  0.8413  1.5444
  537MOL0     H72446   4.794   5.314   7.459 -0.0014  0.3520 -1.8525
  537MOL0     H72447   4.896   5.065   7.224  0.1210  0.4720  0.3605
  537MOL0     H72448   4.929   5.234   7.245  3.2096  0.9885 -0.1152
  537MOL0     H72449   5.150   5.046   7.353 -0.9764 -2.0484 -0.9640
  537MOL0     H72450   5.117   5.048   7.181 -1.5341  0.1584 -1.0951
  537MOL0     H72451   5.169   5.270   7.390 -6.0195 -1.9532 -0.5906
  537MOL0     H72452   5.180   5.321   7.221  1.9947  0.8943  1.1689
  537MOL0     H72453   5.389   5.155   7.363  0.9812 -3.1967 -0.0658
  537MOL0     H72454   5.404   5.300   7.283 -1.1456  0.4963  1.4943
  537MOL0     H72455   5.594   5.121   7.283 -1.5420 -0.5380 -0.8932
  537MOL0     H72456   5.809   5.064   7.184  0.6541  1.2570 -1.3744
  537MOL0     H72457   6.053   5.173   6.636 -0.1129  0.5612  3.2866
  537MOL0     H72458   6.248   5.112   6.520 -2.8936  2.1442  1.3446
  537MOL0     H72459   6.379   4.984   6.403 -0.7559 -0.9881 -0.5872
  537MOL0     H72460   6.518   5.043   6.504 -0.4214  0.5493 -0.8971
  537MOL0     H72461   6.509   4.773   6.348  1.9038  0.6411 -3.1755
  537MOL0     H72462   6.539   4.917   6.282 -2.6112 -0.4429 -0.4410
  537MOL0     H72463   6.729   4.768   6.350 -1.1213  0.7558 -0.6573
  537MOL0     H72464   6.746   4.936   6.395 -0.1799 -0.6587 -1.8285
  537MOL0     H72465   6.838   4.786   6.566  0.1927  1.3997  2.7910
  537MOL0     H72466   6.676   4.703   6.585 -1.2598  0.4966 -1.9747
  537MOL0     H72467   6.612   4.938   6.689  0.3625  0.2917 -0.1841
  537MOL0     H72468   6.773   4.987   6.648 -1.6216  0.7149  1.0182
  537MOL0     H72469   6.872   4.814   6.802 -0.2520 -1.2584  0.9489
  537MOL0     H72470   6.773   4.941   6.869 -0.1851 -0.3750 -0.9016
  537MOL0     H72471   6.633   4.685   6.783 -0.9975  0.6613  0.6260
  537MOL0     H72472   6.581   4.816   6.885  0.0428 -0.1370 -1.0182
  537MOL0     H72473   6.791   4.760   7.045  1.2401 -1.3121  0.6872
  537MOL0     H72474   6.647   4.667   7.074 -1.1332 -2.5134 -2.0011
  537MOL0     H72475   6.294   4.771   6.773 -1.0804 -0.8655  1.2118
  537MOL0     H72476   6.071   4.789   6.852  0.6651 -1.0761 -2.8041
  537MOL0     H72477   5.634   5.095   6.796 -3.0074  1.2851  0.0079
  537MOL0     H72478   5.422   5.135   6.891 -0.4900  2.7454  0.7130
  537MOL0     H72479   5.314   5.324   8.663  2.9309 -0.5307 -0.5311
  537MOL0     H72480   5.325   5.276   8.904  2.6393 -0.3187  0.6227
  537MOL0     H72481   5.355   5.163   9.221  1.4028  1.2461  0.2125
  537MOL0     H72482   5.415   5.188   9.464  2.4156 -1.0538  1.0021
  537MOL0     H72483   5.328   5.176   9.684  0.3072 -0.1928 -3.0676
  537MOL0     H72484   5.500   5.169   9.699 -1.5237  2.4090  0.8816
  537MOL0     H72485   5.518   5.025   9.891 -1.0994 -3.4626 -2.9824
  537MOL0     H72486   5.351   4.992   9.883  1.8536 -1.3354 -1.5383
  537MOL0     H72487   5.382   5.146  10.062 -0.3799  1.1988  0.8543
  537MOL0     H72488   5.300   5.230   9.924 -1.6611 -2.2904  0.6285
  537MOL0     H72489   5.522   5.349   9.891  0.9198  0.7757  1.3050
  537MOL0     H72490   5.478   5.373  10.057  0.9337 -0.0923 -0.3916
  537MOL0     H72491   5.790   5.110  10.132 -1.8841 -2.0090  0.7297
  537MOL0     H72492   5.379   4.769   9.528 -0.4979  0.5627  0.2489
  537MOL0     H72493   5.315   4.632   9.371 -2.7325  1.3249  1.8641
  537MOL0     H72494   5.199   4.706   9.253  1.0271  1.4698 -3.6817
  537MOL0     H72495   5.365   4.670   9.199  1.4946 -0.9863  1.5054
  538MOL0     O72496  11.252   5.353   0.686  0.6221 -0.2117  0.8627
  538MOL0     C72497  11.250   5.326   0.571  0.4284 -0.7757 -0.4154
  538MOL0     O72498  11.361   5.316   0.491 -0.0202  0.7678  0.9234
  538MOL0     C72499  11.479   5.303   0.563  0.0906  0.6179  1.1653
  538MOL0     C72500  11.505   5.217   0.674  0.4105 -0.7880 -0.4046
  538MOL0     C72501  11.629   5.203   0.738  0.7670 -0.6692 -0.2049
  538MOL0     C72502  11.734   5.275   0.688 -0.4944 -0.2864  0.2684
  538MOL0     O72503  11.860   5.283   0.747  0.1124 -0.4414 -0.2268
  538MOL0     C72504  11.873   5.226   0.876 -0.7328  0.1255  0.6444
  538MOL0     C72505  12.022   5.224   0.938 -0.4678 -0.5192 -0.9792
  538MOL0     C72506  12.006   5.249   1.087  0.3875  1.0284  0.0483
  538MOL0     C72507  12.140   5.250   1.167 -0.3753 -0.3157  0.6577
  538MOL0     C72508  12.130   5.290   1.312  0.0524 -0.2031 -0.4537
  538MOL0     C72509  12.261   5.328   1.382  0.9489  0.0692  0.5889
  538MOL0     C72510  12.256   5.259   1.525 -0.7400 -0.2027  0.1691
  538MOL0     C72511  12.381   5.290   1.607 -0.4954  0.6566 -1.1315
  538MOL0     N72512  12.385   5.194   1.726 -0.2872 -0.0906  0.0508
  538MOL0     C72513  12.398   5.224   1.857 -0.2343  1.2428  0.5302
  538MOL0     C72514  12.400   5.105   1.927  0.7276 -0.0768  0.4423
  538MOL0     C72515  12.432   5.093   2.072  0.0238  0.5518  0.7864
  538MOL0     C72516  12.556   5.015   2.111  0.0722 -0.9186 -0.2196
  538MOL0     C72517  12.673   5.103   2.116 -0.3464 -0.3292  1.1341
  538MOL0     C72518  12.793   5.010   2.166 -0.5543  0.4300 -0.7740
  538MOL0     O72519  12.906   5.091   2.162  0.0624  0.0670 -0.0769
  538MOL0     C72520  13.025   5.030   2.206 -0.0268  0.3136  0.4763
  538MOL0     C72521  13.144   5.086   2.156 -0.0307 -0.6524  0.9867
  538MOL0     C72522  13.268   5.026   2.195  0.0966 -0.2315  0.5672
  538MOL0     C72523  13.277   4.915   2.275  0.6486  0.2556  0.2168
  538MOL0     C72524  13.407   4.849   2.305  0.0050  0.0785 -0.2573
  538MOL0     O72525  13.520   4.899   2.248  0.0257  0.1665  0.4824
  538MOL0     C72526  13.644   4.849   2.279  0.0026  0.1437  0.1156
  538MOL0     C72527  13.757   4.924   2.269  0.4446 -0.1092  0.0925
  538MOL0     C72528  13.891   4.895   2.294  0.1814  1.4146  0.1919
  538MOL0     C72529  13.913   4.770   2.351  0.3420  0.5755 -0.0551
  538MOL0     O72530  14.037   4.732   2.401 -0.2143  0.0218 -0.3652
  538MOL0     C72531  14.050   4.707   2.544 -0.5241 -0.0317 -0.1847
  538MOL0     C72532  14.021   4.562   2.587 -0.1403 -0.0527  0.0479
  538MOL0     C72533  14.074   4.538   2.720 -1.2380 -0.3135 -0.3855
  538MOL0     C72534  13.983   4.589   2.840 -0.2583  0.3499  1.2565
  538MOL0     C72535  14.063   4.552   2.971  0.3313 -0.2226  0.0028
  538MOL0     C72536  14.011   4.625   3.092  0.1764 -0.5768 -0.4363
  538MOL0     C72537  14.102   4.601   3.212 -0.2666  0.1278 -0.7252
  538MOL0     C72538  14.053   4.687   3.329 -0.1029  0.2074  0.5764
  538MOL0    Cl72539  14.142   4.651   3.474 -0.1794 -0.1716 -0.2107
  538MOL0     C72540  13.804   4.680   2.360  0.1817 -0.4259 -0.1929
  538MOL0     C72541  13.673   4.719   2.322  0.2464 -0.5456  0.1214
  538MOL0     O72542  13.403   4.753   2.386  0.1268 -0.2578 -0.0299
  538MOL0     C72543  13.162   4.855   2.318  1.0139 -0.0198 -0.0210
  538MOL0     C72544  13.041   4.915   2.279 -0.7823  0.3425 -0.0334
  538MOL0     N72545  12.388   4.999   1.830  0.5103  0.6595  0.0589
  538MOL0     N72546  12.381   5.060   1.709  0.2002  0.4720 -1.1313
  538MOL0     C72547  11.711   5.348   0.576 -0.4274 -1.0415 -0.3017
  538MOL0     C72548  11.587   5.365   0.515  0.2105  0.0896 -0.1549
  538MOL0     C72549  11.122   5.297   0.503  0.3647  0.3859 -0.4784
  538MOL0     C72550  11.125   5.237   0.374  0.2975  0.0069 -0.0183
  538MOL0     C72551  11.011   5.207   0.302  0.7267 -0.7541  0.6802
  538MOL0     C72552  10.888   5.240   0.345  0.0453 -0.5022 -0.7588
  538MOL0     O72553  10.776   5.216   0.270 -0.1793  0.7012  0.2765
  538MOL0     C72554  10.641   5.225   0.318  0.0550 -0.9907 -0.1656
  538MOL0     C72555  10.583   5.092   0.374  0.4359  0.3233  0.8662
  538MOL0     C72556  10.616   4.968   0.285 -0.8833 -0.4724  1.5061
  538MOL0     C72557  10.508   4.865   0.286  0.1000 -0.0249  0.3593
  538MOL0     C72558  10.507   4.803   0.417 -0.5699 -0.0120  0.2817
  538MOL0     C72559  10.507   4.775   0.530 -0.7062 -0.1061  0.0571
  538MOL0     C72560  10.871   5.279   0.479 -0.8946  0.1007 -0.2448
  538MOL0     C72561  10.990   5.306   0.562  0.6264  0.1106  0.9031
  538MOL0     C72562  10.972   5.347   0.702 -0.6560 -0.2221  0.6661
  538MOL0     H72563  11.416   5.164   0.708  0.6221 -2.0180 -1.6909
  538MOL0     H72564  11.630   5.127   0.816 -1.7740 -0.8301 -0.2715
  538MOL0     H72565  11.805   5.278   0.944  0.9380  2.6494  0.4947
  538MOL0     H72566  11.832   5.124   0.880 -2.8161  0.9374  4.0019
  538MOL0     H72567  12.084   5.301   0.890 -0.3715 -0.3731 -0.6222
  538MOL0     H72568  12.066   5.125   0.924  1.3474  0.5521 -3.6571
  538MOL0     H72569  11.940   5.167   1.118 -2.4517  2.6362 -1.3725
  538MOL0     H72570  11.954   5.344   1.100 -3.3438 -0.6280 -1.2975
  538MOL0     H72571  12.185   5.152   1.148 -1.7609 -0.6452 -1.1434
  538MOL0     H72572  12.203   5.328   1.123  0.8390 -1.0442  1.0632
  538MOL0     H72573  12.063   5.375   1.324 -1.4094 -0.9093 -2.9041
  538MOL0     H72574  12.082   5.204   1.360 -0.4140  0.4333  0.2381
  538MOL0     H72575  12.347   5.298   1.321 -0.3012 -2.1269 -0.2138
  538MOL0     H72576  12.260   5.437   1.384 -1.8008  0.1396 -0.4509
  538MOL0     H72577  12.246   5.152   1.508  1.1907 -0.0136 -2.8519
  538MOL0     H72578  12.164   5.288   1.576 -0.6380 -0.8648  0.7463
  538MOL0     H72579  12.472   5.294   1.547  1.4776  1.0799  1.6941
  538MOL0     H72580  12.370   5.389   1.653 -1.5215  0.0831 -0.0631
  538MOL0     H72581  12.411   5.327   1.887 -1.9910  1.3268  1.0825
  538MOL0     H72582  12.451   5.193   2.111 -2.1438  1.9268 -1.3636
  538MOL0     H72583  12.350   5.045   2.126 -2.9781  3.2621 -0.9825
  538MOL0     H72584  12.553   4.984   2.216  3.4835  1.0945  0.6254
  538MOL0     H72585  12.555   4.915   2.065 -1.1945 -2.3362  2.6133
  538MOL0     H72586  12.662   5.176   2.197 -0.4701  1.8511 -0.7640
  538MOL0     H72587  12.703   5.151   2.022  0.7640 -1.2951  0.9843
  538MOL0     H72588  12.815   4.918   2.112  3.1703 -1.5346  3.4854
  538MOL0     H72589  12.778   4.990   2.273  1.6901  1.5854 -0.1860
  538MOL0     H72590  13.149   5.172   2.091 -2.3613 -1.4865 -0.4382
  538MOL0     H72591  13.359   5.067   2.153 -0.9111  2.7144  1.0103
  538MOL0     H72592  13.735   5.026   2.238  2.8904  0.7143  0.8632
  538MOL0     H72593  13.979   4.959   2.286  2.0549 -0.9797  0.6908
  538MOL0     H72594  14.151   4.746   2.560 -0.6002 -0.3912  1.2358
  538MOL0     H72595  13.985   4.772   2.603  1.8209  2.0945  0.2387
  538MOL0     H72596  13.915   4.534   2.586  0.6782 -3.6089 -0.0977
  538MOL0     H72597  14.066   4.479   2.532 -0.9904 -2.4814  2.7188
  538MOL0     H72598  14.091   4.430   2.728  4.4514  0.0163 -3.1222
  538MOL0     H72599  14.173   4.582   2.735 -2.1748  0.9174  3.0929
  538MOL0     H72600  13.887   4.537   2.849 -0.2900 -0.3849 -1.9794
  538MOL0     H72601  13.976   4.698   2.835  2.0437  0.6090  2.6698
  538MOL0     H72602  14.165   4.592   2.967  1.1126 -2.1150 -0.0219
  538MOL0     H72603  14.057   4.443   2.979  2.8017 -0.5208 -1.2559
  538MOL0     H72604  14.012   4.733   3.081  2.3589 -0.5857 -0.6920
  538MOL0     H72605  13.912   4.579   3.104  1.0357 -1.9595  2.3588
  538MOL0     H72606  14.205   4.629   3.189 -0.5291  1.4451 -0.4033
  538MOL0     H72607  14.110   4.497   3.243 -1.0414  0.5919  1.1974
  538MOL0     H72608  14.082   4.790   3.305  2.0269 -0.4201  0.3023
  538MOL0     H72609  13.948   4.666   3.354  0.8137  0.0990  5.1617
  538MOL0     H72610  13.812   4.577   2.393  5.5799  0.3681  1.9194
  538MOL0     H72611  13.591   4.648   2.315 -0.0273 -0.0805 -2.2250
  538MOL0     H72612  13.162   4.765   2.378 -0.7083 -0.2280 -0.2848
  538MOL0     H72613  12.960   4.850   2.309  0.6951 -0.9651  1.3801
  538MOL0     H72614  11.806   5.386   0.541 -0.9254 -0.9760 -1.6551
  538MOL0     H72615  11.568   5.435   0.435 -3.0713 -0.5492 -0.0682
  538MOL0     H72616  11.216   5.191   0.336 -0.6694 -4.2791  2.2053
  538MOL0     H72617  11.031   5.185   0.197  1.8514 -0.6961  0.8683
  538MOL0     H72618  10.584   5.256   0.230  0.2095  3.4772  1.0836
  538MOL0     H72619  10.620   5.303   0.391 -1.6501 -0.4003 -1.2217
  538MOL0     H72620  10.474   5.096   0.375  0.3295 -1.3562 -0.1415
  538MOL0     H72621  10.629   5.077   0.472  2.8078 -1.8144 -0.4498
  538MOL0     H72622  10.710   4.925   0.322 -0.2493 -0.8046 -0.3578
  538MOL0     H72623  10.629   4.991   0.178  1.2272  0.9324  2.0020
  538MOL0     H72624  10.403   4.880   0.261 -0.0370 -3.4476 -1.7340
  538MOL0     H72625  10.539   4.791   0.211  0.7814 -2.0680  2.5242
  538MOL0     H72626  10.501   4.742   0.632 -0.8496  0.5289  0.2616
  538MOL0     H72627  10.772   5.273   0.523 -0.7383 -0.2578  0.0612
  538MOL0     H72628  10.867   5.355   0.733 -0.5704 -0.9123  1.1741
  538MOL0     H72629  11.003   5.267   0.771  1.3653 -1.4745 -1.5343
  538MOL0     H72630  11.032   5.434   0.730  0.2503 -1.0920  1.5064
  539MOL0     O72631   1.710   5.854   3.344 -0.4385  0.8001 -0.5643
  539MOL0     C72632   1.599   5.832   3.307  0.9217  1.1064  0.6128
  539MOL0     O72633   1.565   5.730   3.220  0.3876 -0.8060  0.2587
  539MOL0     C72634   1.650   5.630   3.189  1.1778 -0.8654  0.0370
  539MOL0     C72635   1.732   5.580   3.281 -0.6470 -0.0968  1.0830
  539MOL0     C72636   1.838   5.492   3.246  0.5852  0.7417 -0.4345
  539MOL0     C72637   1.842   5.439   3.116  0.7491 -0.3382  0.3853
  539MOL0     O72638   1.941   5.352   3.081 -0.4227  0.5384  0.2460
  539MOL0     C72639   1.909   5.210   3.052  0.5865 -0.2026  0.1148
  539MOL0     C72640   2.031   5.113   3.061 -0.4334  0.7310  1.1744
  539MOL0     C72641   2.098   5.114   3.197  0.4711 -0.3158  0.0449
  539MOL0     C72642   2.191   4.997   3.227  0.1916  0.8171  0.3972
  539MOL0     C72643   2.258   5.009   3.365  0.0936 -0.2690  0.0251
  539MOL0     C72644   2.380   5.088   3.347 -0.4872 -0.4211  0.1611
  539MOL0     C72645   2.469   5.069   3.474  0.3784 -0.6461  0.3962
  539MOL0     C72646   2.465   5.183   3.580  0.1202  0.3359  0.0212
  539MOL0     N72647   2.343   5.168   3.653  0.1354  0.2294  0.6904
  539MOL0     C72648   2.258   5.271   3.681 -0.3981  0.3102 -0.5089
  539MOL0     C72649   2.169   5.223   3.765  1.1114 -0.7778 -0.2206
  539MOL0     C72650   2.046   5.298   3.789  0.2567 -0.0119 -1.3552
  539MOL0     C72651   1.928   5.259   3.703  0.1083 -0.3663  0.8080
  539MOL0     C72652   1.786   5.316   3.736  0.3294  0.6194  0.4411
  539MOL0     C72653   1.711   5.362   3.617 -0.1849  0.6303  0.2475
  539MOL0     O72654   1.566   5.361   3.630 -0.0420  0.6241  0.2356
  539MOL0     C72655   1.511   5.479   3.668  0.0166 -0.5047  0.0600
  539MOL0     C72656   1.572   5.572   3.748 -0.2798  0.7726 -0.1780
  539MOL0     C72657   1.512   5.692   3.793  0.6307  0.1362 -1.1798
  539MOL0     C72658   1.379   5.729   3.753  0.7716  0.9142 -0.1797
  539MOL0     C72659   1.313   5.862   3.796 -0.5160 -0.4582  0.1863
  539MOL0     O72660   1.381   5.960   3.868 -0.4293  0.4106  0.1684
  539MOL0     C72661   1.329   6.079   3.901 -0.3379 -0.0451  0.2922
  539MOL0     C72662   1.358   6.123   4.025 -0.2282 -1.0249 -0.4742
  539MOL0     C72663   1.297   6.238   4.077 -0.5187  0.0092 -0.1217
  539MOL0     C72664   1.200   6.307   3.995  0.0576  0.2112 -0.4982
  539MOL0     O72665   1.150   6.419   4.040  0.3643 -0.9679 -0.5280
  539MOL0     C72666   1.001   6.422   4.048 -0.0379  0.0856  0.7981
  539MOL0     C72667   0.940   6.530   4.143 -0.8794  0.8098 -0.4045
  539MOL0     C72668   0.971   6.480   4.293 -0.0900 -0.4551  0.0574
  539MOL0     C72669   0.842   6.453   4.368 -0.2763 -0.3645  0.1816
  539MOL0     C72670   0.761   6.579   4.400 -0.1535  0.1080 -0.0419
  539MOL0     C72671   0.649   6.549   4.499 -0.5107  0.7998 -0.1423
  539MOL0     C72672   0.544   6.452   4.445 -0.3009 -0.1518  0.2029
  539MOL0     C72673   0.420   6.439   4.536 -0.4558  0.1772  0.8127
  539MOL0    Cl72674   0.307   6.581   4.507 -0.5110  0.5903  0.1330
  539MOL0     C72675   1.171   6.260   3.868  0.3390 -0.5130  0.7223
  539MOL0     C72676   1.237   6.149   3.822 -0.9873  0.5279  1.3848
  539MOL0     O72677   1.191   5.854   3.779 -0.0312  0.2928 -0.0996
  539MOL0     C72678   1.311   5.629   3.679 -0.9234  0.3103 -0.1289
  539MOL0     C72679   1.377   5.512   3.635  0.0596 -0.3074 -0.4988
  539MOL0     N72680   2.210   5.095   3.792 -0.0143  0.3447 -0.4705
  539MOL0     N72681   2.310   5.057   3.719  0.4059 -0.7333 -0.0748
  539MOL0     C72682   1.747   5.478   3.017 -0.6145  0.3871  0.4816
  539MOL0     C72683   1.647   5.574   3.059  0.2469  0.7815 -0.2631
  539MOL0     C72684   1.497   5.916   3.362  0.2657 -0.2130  0.4783
  539MOL0     C72685   1.381   5.915   3.290  0.0858 -0.2934  0.2182
  539MOL0     C72686   1.275   6.000   3.327 -0.4616  0.0854 -0.4231
  539MOL0     C72687   1.289   6.092   3.431  1.0557 -0.2454 -0.2402
  539MOL0     O72688   1.189   6.176   3.469 -0.7078  0.4641 -0.1263
  539MOL0     C72689   1.083   6.203   3.378  0.1381 -0.7559 -0.0705
  539MOL0     C72690   0.987   6.293   3.460  0.1080  0.1048  0.3804
  539MOL0     C72691   1.055   6.421   3.509  0.4462 -0.4078  0.4838
  539MOL0     C72692   0.944   6.525   3.560  0.2580  0.2257  0.8052
  539MOL0     C72693   0.915   6.624   3.450  1.1875 -0.6472  0.0503
  539MOL0     C72694   0.881   6.704   3.360  0.3404 -1.4550  0.1675
  539MOL0     C72695   1.418   6.102   3.492  0.2873  0.0224 -0.0816
  539MOL0     C72696   1.517   6.009   3.467  0.6688  0.3848  0.6159
  539MOL0     C72697   1.641   6.021   3.558 -0.0346  0.6524 -0.1324
  539MOL0     H72698   1.737   5.617   3.382 -1.1883  0.3351  0.9560
  539MOL0     H72699   1.920   5.461   3.309 -0.6769 -0.1086  0.8571
  539MOL0     H72700   1.820   5.173   3.105 -1.5682  1.9472 -1.7594
  539MOL0     H72701   1.875   5.210   2.948  1.0691 -1.2993 -0.0451
  539MOL0     H72702   2.106   5.142   2.987 -1.3820  0.2832 -0.0133
  539MOL0     H72703   1.995   5.010   3.046 -1.4455  1.0581  1.2940
  539MOL0     H72704   2.020   5.132   3.272 -0.3448  0.7266 -1.0220
  539MOL0     H72705   2.161   5.202   3.207  1.3962 -0.7758 -1.4482
  539MOL0     H72706   2.126   4.910   3.227  1.0415  0.1418  1.6812
  539MOL0     H72707   2.259   4.979   3.143 -0.0662 -0.2286  0.3941
  539MOL0     H72708   2.189   5.049   3.439 -2.5816 -2.0845 -1.3072
  539MOL0     H72709   2.280   4.908   3.402  0.2362 -1.1036 -2.1958
  539MOL0     H72710   2.438   5.061   3.258 -0.9235  0.8319 -0.5292
  539MOL0     H72711   2.352   5.193   3.335  0.0502  0.0664  2.7088
  539MOL0     H72712   2.573   5.045   3.449 -0.2027 -2.4199 -0.5157
  539MOL0     H72713   2.446   4.976   3.528 -2.7356  0.0099  0.4020
  539MOL0     H72714   2.544   5.172   3.656 -1.0646 -0.8678  1.1250
  539MOL0     H72715   2.477   5.284   3.539 -3.4654  1.0670  0.4645
  539MOL0     H72716   2.255   5.370   3.636  0.1359  0.3283 -0.5170
  539MOL0     H72717   2.013   5.262   3.887  0.1400  2.8342 -0.2524
  539MOL0     H72718   2.065   5.405   3.795  0.8647 -0.1571 -0.3355
  539MOL0     H72719   1.952   5.297   3.603 -2.3940 -0.5723  0.0809
  539MOL0     H72720   1.919   5.151   3.696  1.3408 -0.3979 -4.2290
  539MOL0     H72721   1.802   5.392   3.812 -0.0499 -0.4321  1.6086
  539MOL0     H72722   1.727   5.231   3.772 -0.8986  1.4294  0.3952
  539MOL0     H72723   1.745   5.304   3.531  1.4111  0.3210  1.0515
  539MOL0     H72724   1.745   5.466   3.607 -1.5679  1.1980  1.0778
  539MOL0     H72725   1.672   5.553   3.785 -1.3686 -2.2013  1.6181
  539MOL0     H72726   1.556   5.760   3.865  0.7475 -0.4341 -0.6994
  539MOL0     H72727   1.434   6.077   4.088  1.8565  1.7791 -0.7293
  539MOL0     H72728   1.323   6.275   4.175  2.7996 -1.1006 -0.4776
  539MOL0     H72729   0.965   6.424   3.944  1.5007 -3.6301  0.0310
  539MOL0     H72730   0.967   6.325   4.085 -0.2195 -0.9218 -1.7984
  539MOL0     H72731   0.985   6.628   4.123 -0.7106  0.8536  0.1782
  539MOL0     H72732   0.831   6.532   4.139 -1.3576 -1.2791  4.6367
  539MOL0     H72733   1.042   6.398   4.280  0.7790  0.7271 -4.0371
  539MOL0     H72734   1.034   6.551   4.348  1.0291 -1.5921  0.2828
  539MOL0     H72735   0.877   6.404   4.460  1.8097 -4.2010 -2.3498
  539MOL0     H72736   0.772   6.379   4.329 -0.3615 -1.0104  1.4889
  539MOL0     H72737   0.717   6.634   4.317  2.7165  4.6424  1.0255
  539MOL0     H72738   0.830   6.651   4.446 -0.0152  1.5465 -2.3536
  539MOL0     H72739   0.692   6.495   4.584 -2.8837 -0.3788  0.4269
  539MOL0     H72740   0.604   6.641   4.536 -0.4839  0.1895  1.5122
  539MOL0     H72741   0.588   6.352   4.436 -0.3629 -0.3124  1.4174
  539MOL0     H72742   0.514   6.478   4.343  0.8450 -1.6102 -0.5423
  539MOL0     H72743   0.364   6.350   4.508 -0.5525  0.4813 -0.0039
  539MOL0     H72744   0.440   6.428   4.643  1.0442 -1.7108  0.3993
  539MOL0     H72745   1.096   6.303   3.803  0.5530  0.8304  1.3088
  539MOL0     H72746   1.211   6.129   3.719 -1.1427  3.7288  0.6958
  539MOL0     H72747   1.207   5.650   3.654 -1.3315  1.8786  2.5197
  539MOL0     H72748   1.330   5.446   3.563 -2.5656  2.1977 -1.3003
  539MOL0     H72749   1.761   5.449   2.913  1.8487  2.4440  0.1220
  539MOL0     H72750   1.578   5.613   2.985  0.0673  0.1544 -0.4329
  539MOL0     H72751   1.364   5.852   3.203 -0.0194  1.0147 -0.7386
  539MOL0     H72752   1.181   5.984   3.275 -0.3945 -1.6387 -0.0727
  539MOL0     H72753   1.039   6.105   3.357  1.2928 -0.6901 -3.4139
  539MOL0     H72754   1.111   6.256   3.287 -1.0696  1.8086  0.9762
  539MOL0     H72755   0.951   6.241   3.549 -0.6127  1.7670  1.1053
  539MOL0     H72756   0.896   6.308   3.401 -0.2846  0.4717  1.0706
  539MOL0     H72757   1.106   6.459   3.420 -3.0876 -2.6914 -2.8313
  539MOL0     H72758   1.111   6.393   3.598 -0.7928  0.0537  1.4410
  539MOL0     H72759   0.848   6.482   3.590  0.8485 -2.3907 -0.7900
  539MOL0     H72760   0.983   6.586   3.643  0.5864  0.8437  0.2114
  539MOL0     H72761   0.862   6.782   3.290  1.6989 -1.3619 -0.1355
  539MOL0     H72762   1.421   6.183   3.564 -0.1400  1.9582 -2.1012
  539MOL0     H72763   1.616   6.078   3.648 -1.0814  0.2305 -0.1364
  539MOL0     H72764   1.682   5.924   3.587 -1.7956  0.1431  0.7547
  539MOL0     H72765   1.727   6.068   3.509  0.5005 -0.9769 -0.8261
  540MOL0     O72766  10.690   0.593   9.379  0.0631  0.1497 -0.5236
  540MOL0     C72767  10.623   0.691   9.414  0.0635 -0.9053 -0.0012
  540MOL0     O72768  10.520   0.686   9.510 -0.2414  0.6030  0.3638
  540MOL0     C72769  10.512   0.570   9.579  0.4303 -0.8974  0.0541
  540MOL0     C72770  10.386   0.519   9.603  0.4025  0.1294 -0.2937
  540MOL0     C72771  10.368   0.406   9.685  0.0182 -0.8273  2.1599
  540MOL0     C72772  10.481   0.332   9.728 -0.1148  0.5470 -1.1282
  540MOL0     O72773  10.471   0.229   9.820  0.8700  0.6209 -0.0184
  540MOL0     C72774  10.373   0.244   9.928 -0.3539 -0.0611 -0.2583
  540MOL0     C72775  10.421   0.143  10.030 -0.5028  0.9871 -0.0964
  540MOL0     C72776  10.545   0.197  10.105  1.1838 -0.6337  0.0298
  540MOL0     C72777  10.660   0.098  10.090  0.2920 -0.8764  1.1380
  540MOL0     C72778  10.785   0.147  10.162  0.6444 -0.1349  0.0344
  540MOL0     C72779  10.898   0.036  10.158  0.0927  0.3375  0.6245
  540MOL0     C72780  10.892  -0.095  10.240  0.3002  0.4591  0.0240
  540MOL0     C72781  10.900  -0.073  10.394 -0.8574 -0.2451 -0.2401
  540MOL0     N72782  11.033  -0.017  10.420 -0.9834  0.7952 -0.1670
  540MOL0     C72783  11.155  -0.085  10.395  0.6868 -0.9211  0.7682
  540MOL0     C72784  11.251   0.017  10.435  0.1245  0.9126 -0.1480
  540MOL0     C72785  11.405  -0.004  10.452 -0.0584  0.3334  0.1971
  540MOL0     C72786  11.455   0.075  10.573  0.0793  0.4149  0.5196
  540MOL0     C72787  11.497   0.216  10.525 -0.0142 -0.1714  0.0908
  540MOL0     C72788  11.552   0.303  10.636 -0.0249  0.2232  0.5996
  540MOL0     O72789  11.689   0.251  10.679  0.3026 -0.1427  0.4852
  540MOL0     C72790  11.751   0.318  10.778 -0.2338 -0.8863 -0.0920
  540MOL0     C72791  11.879   0.272  10.806 -0.6804 -0.5984 -0.1785
  540MOL0     C72792  11.959   0.339  10.892 -0.1904  0.3653 -0.2919
  540MOL0     C72793  11.904   0.445  10.977 -0.4514 -0.9763 -0.5521
  540MOL0     C72794  11.993   0.502  11.087 -0.4488  0.7506 -0.8192
  540MOL0     O72795  12.129   0.475  11.095  0.2412 -0.3305  0.1866
  540MOL0     C72796  12.188   0.488  11.217 -0.6694  0.0513 -0.3504
  540MOL0     C72797  12.306   0.566  11.225  0.1893 -0.5417  0.0768
  540MOL0     C72798  12.370   0.587  11.345  0.0272  0.4855 -0.7175
  540MOL0     C72799  12.322   0.530  11.459  1.2108 -0.3233 -1.5247
  540MOL0     O72800  12.370   0.558  11.591  0.2460 -0.5002 -0.4705
  540MOL0     C72801  12.514   0.549  11.600  0.2290 -0.7623  0.0726
  540MOL0     C72802  12.569   0.527  11.745 -0.2251 -0.3753 -1.2190
  540MOL0     C72803  12.489   0.429  11.823 -1.3431 -0.0382  0.3172
  540MOL0     C72804  12.376   0.492  11.897  0.0594  0.0829  0.0834
  540MOL0     C72805  12.309   0.394  11.995  0.5814  0.1160 -0.7599
  540MOL0     C72806  12.216   0.282  11.944  1.0856 -0.0732 -0.8531
  540MOL0     C72807  12.111   0.327  11.846  0.0978 -0.9623  0.1665
  540MOL0     C72808  12.022   0.454  11.880 -0.6022  0.5122  0.0887
  540MOL0    Cl72809  11.931   0.410  12.034 -0.0393  0.0898 -0.0439
  540MOL0     C72810  12.198   0.458  11.457 -0.5545  0.0177  0.6537
  540MOL0     C72811  12.145   0.429  11.334 -0.3133  0.3617  0.6750
  540MOL0     O72812  11.934   0.561  11.181  0.5564  0.4547 -0.1895
  540MOL0     C72813  11.774   0.497  10.943  0.3188 -0.8420  0.4439
  540MOL0     C72814  11.704   0.430  10.847 -0.1365 -0.7861 -0.0624
  540MOL0     N72815  11.185   0.130  10.481 -0.4921  0.1209 -0.0853
  540MOL0     N72816  11.064   0.098  10.485  0.1827 -0.0073 -1.0024
  540MOL0     C72817  10.608   0.376   9.701 -0.1075  0.4104 -0.1534
  540MOL0     C72818  10.623   0.501   9.635 -0.0590  0.0260 -0.6274
  540MOL0     C72819  10.618   0.824   9.347 -0.7304  0.5394  0.2656
  540MOL0     C72820  10.511   0.900   9.331  0.0497 -0.2238  0.6413
  540MOL0     C72821  10.508   1.022   9.264 -0.4641 -0.5328  0.4223
  540MOL0     C72822  10.628   1.069   9.215  0.5766  0.0856  0.1222
  540MOL0     O72823  10.646   1.196   9.162 -0.6298 -0.2532  0.4227
  540MOL0     C72824  10.547   1.297   9.199  1.7326 -0.1042  0.0940
  540MOL0     C72825  10.603   1.435   9.193 -0.3340 -0.7516 -0.4368
  540MOL0     C72826  10.719   1.447   9.291 -0.0750 -0.9296 -0.7407
  540MOL0     C72827  10.662   1.481   9.428 -0.2851 -0.8895 -0.1885
  540MOL0     C72828  10.747   1.456   9.548 -0.1123  0.3706 -0.5577
  540MOL0     C72829  10.809   1.435   9.652  0.4178  0.6045 -0.2562
  540MOL0     C72830  10.744   0.989   9.231  0.9423 -0.7120 -0.6625
  540MOL0     C72831  10.741   0.867   9.290  0.5447 -0.4051  0.1755
  540MOL0     C72832  10.875   0.792   9.296  0.5496 -0.5663  0.3347
  540MOL0     H72833  10.305   0.579   9.562 -0.3808 -1.4947 -1.2141
  540MOL0     H72834  10.267   0.375   9.712 -1.3748  1.0649 -0.4025
  540MOL0     H72835  10.372   0.344   9.971  1.3703 -0.3098  0.4281
  540MOL0     H72836  10.275   0.210   9.892  0.1161 -0.8488 -0.8389
  540MOL0     H72837  10.459   0.050   9.988  1.0286  0.9624  1.2124
  540MOL0     H72838  10.339   0.114  10.096 -1.5091  1.3883 -1.1443
  540MOL0     H72839  10.515   0.214  10.209  2.8045 -0.4385  0.4899
  540MOL0     H72840  10.579   0.296  10.071 -1.3326  0.3348  0.1614
  540MOL0     H72841  10.634  -0.006  10.110  0.2780 -1.4890 -1.6000
  540MOL0     H72842  10.694   0.094   9.986  2.3721 -1.9422  1.8034
  540MOL0     H72843  10.823   0.234  10.108  1.1505  0.7462  1.7404
  540MOL0     H72844  10.757   0.185  10.261 -0.1793  0.5975 -0.4698
  540MOL0     H72845  10.913  -0.003  10.058 -0.6444 -1.5040  1.1889
  540MOL0     H72846  10.986   0.091  10.194 -0.3079  0.8449  0.8569
  540MOL0     H72847  10.977  -0.156  10.209  0.0376 -0.9753  1.9425
  540MOL0     H72848  10.807  -0.157  10.211  1.7501 -1.0199 -1.1896
  540MOL0     H72849  10.813  -0.015  10.426 -1.3668 -0.8253 -0.5526
  540MOL0     H72850  10.901  -0.174  10.435  1.7143 -1.3485 -2.6933
  540MOL0     H72851  11.160  -0.191  10.371 -2.4520 -0.5040 -2.7481
  540MOL0     H72852  11.424  -0.109  10.475 -0.8785 -0.0749 -0.8891
  540MOL0     H72853  11.470   0.020  10.367 -0.2799 -0.6065 -0.2579
  540MOL0     H72854  11.382   0.083  10.654 -0.6674 -0.2627 -0.0742
  540MOL0     H72855  11.540   0.031  10.626 -0.0417 -1.2041 -0.5594
  540MOL0     H72856  11.403   0.257  10.486 -0.4933 -1.6239 -0.3334
  540MOL0     H72857  11.576   0.205  10.450  2.4027 -1.5594  2.6329
  540MOL0     H72858  11.488   0.310  10.725 -0.9661  0.6358 -0.0920
  540MOL0     H72859  11.563   0.397  10.581 -1.8811 -0.5988 -1.2727
  540MOL0     H72860  11.908   0.180  10.757  0.7085 -0.5035  0.4339
  540MOL0     H72861  12.062   0.308  10.900  0.8279  3.2505 -1.0266
  540MOL0     H72862  12.343   0.601  11.129  1.7809  1.2131  1.2686
  540MOL0     H72863  12.457   0.652  11.348  0.1184  0.3420  1.4830
  540MOL0     H72864  12.557   0.474  11.533  2.8745  0.5685  0.1336
  540MOL0     H72865  12.548   0.648  11.566 -0.4785 -0.9746 -1.3264
  540MOL0     H72866  12.676   0.502  11.748  0.7150  3.1732 -1.1716
  540MOL0     H72867  12.557   0.626  11.790  0.1432 -0.6752 -0.4401
  540MOL0     H72868  12.453   0.352  11.754 -0.0836 -0.5656  0.2311
  540MOL0     H72869  12.554   0.374  11.891 -1.7607  0.1306  0.8568
  540MOL0     H72870  12.311   0.532  11.819  2.8094  0.6158 -2.0802
  540MOL0     H72871  12.413   0.567  11.966  0.1866 -0.3283  0.4688
  540MOL0     H72872  12.248   0.452  12.065 -0.7228  1.7034 -3.0835
  540MOL0     H72873  12.391   0.352  12.054 -0.7839 -0.9124  0.4748
  540MOL0     H72874  12.275   0.198  11.908  1.3112 -0.2343 -0.1207
  540MOL0     H72875  12.163   0.242  12.031 -0.7925  1.3774 -1.2572
  540MOL0     H72876  12.037   0.249  11.824 -1.3228  0.6043 -0.7978
  540MOL0     H72877  12.163   0.353  11.754  1.0233  0.4737  1.0552
  540MOL0     H72878  12.077   0.548  11.885 -2.5903  1.7014  1.3806
  540MOL0     H72879  11.944   0.457  11.803 -1.0747  2.4142  0.5941
  540MOL0     H72880  12.171   0.409  11.550  2.0000 -1.8592  0.5055
  540MOL0     H72881  12.063   0.357  11.331  0.5239 -0.6077 -2.9123
  540MOL0     H72882  11.720   0.574  10.997  0.8171 -0.1770  0.0079
  540MOL0     H72883  11.601   0.463  10.834  0.4016  0.7594 -0.7329
  540MOL0     H72884  10.691   0.321   9.744 -0.8053  0.3554  1.1684
  540MOL0     H72885  10.719   0.547   9.616  0.9180 -2.2731 -1.7160
  540MOL0     H72886  10.411   0.869   9.358 -0.5066  1.8184  1.1554
  540MOL0     H72887  10.412   1.072   9.255 -0.6489 -1.1889 -4.0641
  540MOL0     H72888  10.507   1.283   9.299  1.4041 -1.3977 -0.2062
  540MOL0     H72889  10.463   1.289   9.129  1.4685  2.6580 -0.0217
  540MOL0     H72890  10.525   1.509   9.212 -0.3244 -0.7863 -0.2658
  540MOL0     H72891  10.633   1.458   9.090 -0.3414  1.9175  0.0924
  540MOL0     H72892  10.784   1.530   9.261 -0.6183  0.1576  0.9687
  540MOL0     H72893  10.793   1.367   9.288  0.2370 -0.6368 -0.8936
  540MOL0     H72894  10.633   1.585   9.417  1.0186 -0.4406  0.3567
  540MOL0     H72895  10.566   1.429   9.434  0.0745 -2.0480 -3.0211
  540MOL0     H72896  10.854   1.421   9.748 -0.5811 -0.9477  0.0172
  540MOL0     H72897  10.828   1.047   9.194 -0.0927 -0.1417 -2.2562
  540MOL0     H72898  10.894   0.735   9.388  0.0656 -1.1348  0.0939
  540MOL0     H72899  10.872   0.714   9.219 -0.0893 -1.3062  1.0842
  540MOL0     H72900  10.960   0.857   9.273 -0.2194  0.4315  0.2516
  541MOL0     O72901   5.810   0.210   9.661  0.1473 -0.7109 -0.6585
  541MOL0     C72902   5.762   0.290   9.575 -1.0602 -0.5495 -0.2646
  541MOL0     O72903   5.776   0.287   9.438 -0.6893 -0.3849 -1.0652
  541MOL0     C72904   5.870   0.202   9.383  0.0473  0.0313 -0.6594
  541MOL0     C72905   5.821   0.085   9.323  0.1688 -1.2641  0.2631
  541MOL0     C72906   5.909  -0.015   9.282 -0.3064  0.4007  0.0038
  541MOL0     C72907   6.045   0.010   9.282 -0.8689  0.1397 -0.7276
  541MOL0     O72908   6.132  -0.086   9.234 -0.8535 -0.4934  0.6991
  541MOL0     C72909   6.204  -0.044   9.111 -0.6330  0.7914  0.4836
  541MOL0     C72910   6.139  -0.080   8.977  1.6173  0.5474 -0.9155
  541MOL0     C72911   6.144  -0.230   8.956  0.2900 -0.2457  0.2773
  541MOL0     C72912   6.087  -0.277   8.815  0.4263 -0.2740 -0.5745
  541MOL0     C72913   6.029  -0.425   8.825 -1.0296  0.7953  0.7494
  541MOL0     C72914   5.971  -0.474   8.698  0.4526 -0.2949 -0.5594
  541MOL0     C72915   6.081  -0.488   8.578  1.2201  0.1323  0.3171
  541MOL0     C72916   6.211  -0.566   8.604 -0.0241  0.1238  0.7609
  541MOL0     N72917   6.186  -0.710   8.617 -0.4604  0.4333  1.2322
  541MOL0     C72918   6.125  -0.777   8.719 -0.0422  0.6936 -0.3934
  541MOL0     C72919   6.131  -0.901   8.680  0.2446 -0.2179  0.4054
  541MOL0     C72920   6.068  -1.017   8.740  0.1353  0.1589 -0.1135
  541MOL0     C72921   6.170  -1.118   8.783 -0.1872  0.3755  0.0847
  541MOL0     C72922   6.099  -1.222   8.859  0.3443  0.5663 -0.0965
  541MOL0     C72923   6.191  -1.341   8.908  0.1759  0.0598 -0.1437
  541MOL0     O72924   6.122  -1.453   8.961 -0.1847 -0.4106  0.1082
  541MOL0     C72925   6.202  -1.545   9.030 -0.1362 -0.1577  0.5306
  541MOL0     C72926   6.296  -1.625   8.962  0.0947  0.4158  0.3246
  541MOL0     C72927   6.389  -1.707   9.024 -0.0572 -0.8291  0.6326
  541MOL0     C72928   6.403  -1.700   9.166 -0.0398 -0.6914 -0.2937
  541MOL0     C72929   6.513  -1.766   9.227  0.5188  0.5231 -0.4834
  541MOL0     O72930   6.606  -1.824   9.143 -0.4153 -0.3719  0.0222
  541MOL0     C72931   6.709  -1.891   9.207 -0.1611 -0.0529  0.0305
  541MOL0     C72932   6.732  -2.011   9.145 -0.0988  0.4644 -0.9221
  541MOL0     C72933   6.850  -2.080   9.191  0.7236  0.2052 -0.4631
  541MOL0     C72934   6.947  -2.028   9.274  0.0939 -0.8904  0.5371
  541MOL0     O72935   7.071  -2.088   9.319 -0.2257 -0.9520 -0.1200
  541MOL0     C72936   7.081  -2.226   9.308 -0.2975 -0.0022  0.5114
  541MOL0     C72937   7.214  -2.263   9.376 -1.0763 -0.4700 -0.1994
  541MOL0     C72938   7.226  -2.421   9.372  0.3075 -0.1404  0.0444
  541MOL0     C72939   7.340  -2.469   9.466 -0.4738 -0.3414 -0.0186
  541MOL0     C72940   7.348  -2.614   9.456 -1.0299  0.0627  0.4813
  541MOL0     C72941   7.418  -2.671   9.581 -0.5072 -0.1988 -0.0310
  541MOL0     C72942   7.402  -2.822   9.594  0.0110  0.3922  0.2752
  541MOL0     C72943   7.474  -2.854   9.728  0.3433  0.1698 -0.2627
  541MOL0    Cl72944   7.468  -3.027   9.763 -0.1274  0.0419 -0.2958
  541MOL0     C72945   6.908  -1.914   9.337 -0.0500 -1.0779  1.4272
  541MOL0     C72946   6.796  -1.835   9.304  0.2869  0.2073 -0.8521
  541MOL0     O72947   6.517  -1.774   9.345  0.7647 -0.2182  0.2271
  541MOL0     C72948   6.315  -1.620   9.234 -0.9056 -0.0552 -1.0841
  541MOL0     C72949   6.209  -1.549   9.169  0.5223  1.2311 -0.0493
  541MOL0     N72950   6.192  -0.908   8.559  0.6515  1.1679 -1.0796
  541MOL0     N72951   6.222  -0.794   8.518 -0.0834 -0.0562  0.7925
  541MOL0     C72952   6.096   0.122   9.339 -0.4144  0.1249  1.1520
  541MOL0     C72953   6.007   0.216   9.395 -0.4727 -0.2074  0.1145
  541MOL0     C72954   5.668   0.392   9.640  0.9005 -0.4038 -0.8488
  541MOL0     C72955   5.731   0.475   9.743 -0.2832  0.8149 -0.8260
  541MOL0     C72956   5.651   0.561   9.825 -1.0106 -0.8226 -0.2346
  541MOL0     C72957   5.514   0.563   9.824  0.3351  0.2821 -0.3105
  541MOL0     O72958   5.446   0.610   9.931 -0.1797  0.0103 -0.0425
  541MOL0     C72959   5.376   0.731   9.912 -0.6129  0.7895  0.7629
  541MOL0     C72960   5.472   0.848   9.873  1.3786  0.5016 -0.5166
  541MOL0     C72961   5.415   0.990   9.856  0.0548 -0.6704  0.9958
  541MOL0     C72962   5.360   1.025   9.723 -0.8922 -0.1049 -0.3646
  541MOL0     C72963   5.242   0.953   9.682  0.2778 -0.0885 -0.4214
  541MOL0     C72964   5.139   0.890   9.661 -0.3428  0.0357  0.1397
  541MOL0     C72965   5.451   0.481   9.719 -0.0589 -0.6456 -0.5516
  541MOL0     C72966   5.525   0.407   9.626 -0.9452 -0.6995  0.0440
  541MOL0     C72967   5.449   0.319   9.527  0.2385 -1.2521  0.1210
  541MOL0     H72968   5.713   0.081   9.314 -0.4048  2.0993  3.1105
  541MOL0     H72969   5.884  -0.113   9.244  2.2012 -0.1360 -0.4194
  541MOL0     H72970   6.234   0.061   9.116  1.8019  0.1227  2.5939
  541MOL0     H72971   6.307  -0.080   9.122  0.2888  2.8943 -0.8515
  541MOL0     H72972   6.193  -0.029   8.897  2.3557  2.2685  0.6092
  541MOL0     H72973   6.035  -0.046   8.980  1.2009 -0.6611 -1.1921
  541MOL0     H72974   6.083  -0.281   9.031 -1.9140  0.7296 -0.7798
  541MOL0     H72975   6.248  -0.262   8.973  0.1557  0.3867  2.5408
  541MOL0     H72976   6.010  -0.206   8.783  0.9861  0.7806  0.3369
  541MOL0     H72977   6.162  -0.252   8.740 -1.2899  2.4326 -1.5327
  541MOL0     H72978   6.115  -0.491   8.843  0.3664  2.9301  2.4388
  541MOL0     H72979   5.958  -0.432   8.908 -0.4675  2.5868  1.4266
  541MOL0     H72980   5.930  -0.574   8.713  1.2123 -0.2208  2.7411
  541MOL0     H72981   5.889  -0.408   8.668  0.9811  1.0795  0.9218
  541MOL0     H72982   6.103  -0.384   8.551 -0.1937  0.1493 -0.8821
  541MOL0     H72983   6.027  -0.532   8.494 -0.4143  0.0566  1.3511
  541MOL0     H72984   6.277  -0.552   8.518 -0.4697  2.3729  0.7110
  541MOL0     H72985   6.256  -0.524   8.694 -2.2793  2.3143  0.9832
  541MOL0     H72986   6.075  -0.742   8.808  3.0006  2.2172  0.8515
  541MOL0     H72987   6.017  -0.987   8.833 -0.1235  0.3102 -0.3029
  541MOL0     H72988   5.998  -1.070   8.675  3.2627 -2.6346 -1.4483
  541MOL0     H72989   6.207  -1.171   8.695 -1.6764 -2.8930  1.3022
  541MOL0     H72990   6.250  -1.070   8.842 -1.0786 -0.0027  1.6434
  541MOL0     H72991   6.025  -1.267   8.793  0.5728  2.2855 -1.6013
  541MOL0     H72992   6.047  -1.179   8.945 -2.5095 -3.0661  0.2324
  541MOL0     H72993   6.266  -1.309   8.980 -2.2966 -0.2718  2.7621
  541MOL0     H72994   6.237  -1.372   8.813 -0.4847  2.7129 -1.4305
  541MOL0     H72995   6.296  -1.625   8.853 -0.9353  2.1291  0.3004
  541MOL0     H72996   6.455  -1.770   8.966 -2.2632 -0.6254 -2.2947
  541MOL0     H72997   6.664  -2.058   9.074  0.0300  1.4600 -1.7185
  541MOL0     H72998   6.863  -2.181   9.151  2.9888 -0.3554  1.4683
  541MOL0     H72999   6.994  -2.274   9.354 -2.2907  1.3586 -1.6041
  541MOL0     H73000   7.074  -2.255   9.203 -1.7332  1.5347  0.1359
  541MOL0     H73001   7.307  -2.229   9.329  0.0201 -1.0471  1.4562
  541MOL0     H73002   7.215  -2.229   9.480 -1.6250 -2.5503  0.5453
  541MOL0     H73003   7.141  -2.477   9.413  1.0819 -1.3258  0.0833
  541MOL0     H73004   7.256  -2.453   9.271 -0.6533 -0.2654 -0.2075
  541MOL0     H73005   7.319  -2.435   9.568 -1.4431  0.1047 -0.3508
  541MOL0     H73006   7.432  -2.415   9.441 -1.4830  0.0415 -3.4097
  541MOL0     H73007   7.418  -2.628   9.373 -2.8544  0.7452 -1.2732
  541MOL0     H73008   7.252  -2.665   9.439 -0.2168 -2.4668  2.7901
  541MOL0     H73009   7.527  -2.670   9.570 -0.5928  1.8306 -1.1132
  541MOL0     H73010   7.384  -2.615   9.669 -4.5833  0.5959 -1.8882
  541MOL0     H73011   7.425  -2.875   9.501 -1.5964 -4.0793  2.1292
  541MOL0     H73012   7.299  -2.851   9.617  0.3321 -0.3614  0.8042
  541MOL0     H73013   7.575  -2.812   9.729  0.0639  1.2561 -3.8879
  541MOL0     H73014   7.421  -2.795   9.803 -0.4517  0.4577 -1.0259
  541MOL0     H73015   6.977  -1.869   9.409  3.5695 -1.6416 -1.3885
  541MOL0     H73016   6.787  -1.737   9.350  0.5105  0.5534 -1.5313
  541MOL0     H73017   6.319  -1.607   9.342 -2.3260  0.7317 -1.0940
  541MOL0     H73018   6.126  -1.502   9.219 -1.7691 -1.5827 -0.9409
  541MOL0     H73019   6.204   0.130   9.348 -0.3502  1.6647 -0.3982
  541MOL0     H73020   6.040   0.288   9.469  0.0334 -0.7231  0.3935
  541MOL0     H73021   5.840   0.475   9.748 -0.1628 -0.5039 -2.6644
  541MOL0     H73022   5.700   0.629   9.894  0.7617 -0.5052 -1.7191
  541MOL0     H73023   5.331   0.751  10.010  0.9867 -2.7735  2.3751
  541MOL0     H73024   5.288   0.722   9.848 -0.7553 -1.3782  1.1944
  541MOL0     H73025   5.529   0.822   9.784 -0.3908 -0.3877 -1.4259
  541MOL0     H73026   5.543   0.842   9.957 -0.7543 -1.6722  1.2751
  541MOL0     H73027   5.501   1.056   9.873  0.0567 -1.2933  3.8892
  541MOL0     H73028   5.351   1.023   9.938  3.0440  2.4562  2.3001
  541MOL0     H73029   5.338   1.132   9.727  1.7220  0.4837 -0.4749
  541MOL0     H73030   5.440   1.014   9.650 -2.1538  2.0700 -2.2367
  541MOL0     H73031   5.048   0.837   9.640  0.1449 -0.1992 -1.5693
  541MOL0     H73032   5.342   0.486   9.719 -0.1111  5.1065 -0.3094
  541MOL0     H73033   5.420   0.377   9.440  1.7552  0.8093  0.9116
  541MOL0     H73034   5.498   0.226   9.496 -0.0223 -0.6724 -2.2043
  541MOL0     H73035   5.354   0.287   9.573  0.7089 -0.7867  1.4686
  542MOL0     O73036   3.950   1.229   6.430 -0.1144 -0.0997  0.7568
  542MOL0     C73037   4.009   1.324   6.380  0.2280 -0.2884 -1.1850
  542MOL0     O73038   4.041   1.449   6.441 -0.5373 -0.0826  0.8646
  542MOL0     C73039   4.048   1.463   6.577 -0.1304 -0.6574  0.7090
  542MOL0     C73040   3.950   1.527   6.647  0.4786 -0.3727  0.2274
  542MOL0     C73041   3.961   1.530   6.786  0.6510 -0.0549  0.9647
  542MOL0     C73042   4.063   1.476   6.852 -0.3824  0.5577  0.4637
  542MOL0     O73043   4.060   1.491   6.985 -0.0727  0.6583  0.0556
  542MOL0     C73044   4.167   1.434   7.067  0.5353 -0.5243  0.0028
  542MOL0     C73045   4.146   1.281   7.072 -0.6284 -0.1378  0.3351
  542MOL0     C73046   4.200   1.211   7.198  0.2457  0.1185  0.3109
  542MOL0     C73047   4.349   1.225   7.223 -0.6092 -0.1750 -0.3378
  542MOL0     C73048   4.394   1.182   7.368  0.2523 -1.1820  0.0553
  542MOL0     C73049   4.377   1.032   7.385  0.4191 -0.2042  0.3490
  542MOL0     C73050   4.438   0.963   7.503  0.6276  0.0590 -0.6041
  542MOL0     C73051   4.415   0.811   7.498 -1.0543 -0.0745  0.5717
  542MOL0     N73052   4.481   0.769   7.631 -0.1481  0.2551  0.0299
  542MOL0     C73053   4.616   0.769   7.655 -0.6019  0.3495 -0.2347
  542MOL0     C73054   4.625   0.753   7.786 -0.6324  0.0978  0.3582
  542MOL0     C73055   4.758   0.746   7.861  0.2259  0.1317 -0.1675
  542MOL0     C73056   4.807   0.596   7.862 -0.1712  0.0114  0.4895
  542MOL0     C73057   4.923   0.590   7.962 -0.2528  0.1972  0.7212
  542MOL0     C73058   4.984   0.448   7.981  0.3511 -0.3237 -0.2784
  542MOL0     O73059   5.062   0.396   7.864 -0.7597 -0.6742 -0.2747
  542MOL0     C73060   5.191   0.438   7.841  0.1705 -0.0224  0.1471
  542MOL0     C73061   5.257   0.522   7.922 -0.9587  0.0799  0.2069
  542MOL0     C73062   5.381   0.573   7.882 -0.4002  0.7997  0.1215
  542MOL0     C73063   5.436   0.523   7.760 -0.7349 -0.1038  0.1032
  542MOL0     C73064   5.572   0.580   7.721  0.9638  0.2184 -0.0664
  542MOL0     O73065   5.627   0.521   7.614  0.1952  0.1837 -0.4629
  542MOL0     C73066   5.747   0.571   7.559  1.3356 -0.7853  0.4083
  542MOL0     C73067   5.844   0.486   7.506 -0.7705 -0.8265 -0.2738
  542MOL0     C73068   5.948   0.539   7.426  0.9040  0.3693 -0.0541
  542MOL0     C73069   5.950   0.681   7.402  0.2224 -0.5448 -0.1864
  542MOL0     O73070   6.051   0.743   7.324  0.3984 -0.5238 -0.0846
  542MOL0     C73071   6.179   0.675   7.307  0.3672 -0.3357  0.1085
  542MOL0     C73072   6.201   0.649   7.152 -0.1386 -0.2032 -0.6589
  542MOL0     C73073   6.118   0.535   7.102 -0.3368  0.2629 -0.7440
  542MOL0     C73074   6.142   0.526   6.958  0.9738  0.6007 -0.7249
  542MOL0     C73075   6.087   0.391   6.909  1.1986 -0.1006  0.2751
  542MOL0     C73076   6.134   0.357   6.763  0.5082  0.5518 -0.1570
  542MOL0     C73077   6.082   0.211   6.715 -0.6952 -0.5643 -0.1891
  542MOL0     C73078   6.128   0.158   6.579 -1.1532  0.3682 -0.1567
  542MOL0    Cl73079   6.314   0.168   6.560  0.0468  0.2114 -0.1936
  542MOL0     C73080   5.859   0.761   7.458 -0.2395 -0.1513  0.2072
  542MOL0     C73081   5.756   0.706   7.534  0.3282 -0.4686  0.3376
  542MOL0     O73082   5.623   0.670   7.782 -0.2506  0.0764 -0.1421
  542MOL0     C73083   5.373   0.435   7.678 -0.2213 -0.3515 -1.1944
  542MOL0     C73084   5.247   0.393   7.718 -0.1066  0.3566  0.2844
  542MOL0     N73085   4.506   0.740   7.854 -0.0484 -0.2662  0.2039
  542MOL0     N73086   4.422   0.756   7.757  0.4796  0.2144  0.5145
  542MOL0     C73087   4.173   1.420   6.771  0.2268 -0.6325  0.7319
  542MOL0     C73088   4.161   1.419   6.633 -0.7821  0.6571 -0.4302
  542MOL0     C73089   4.035   1.309   6.242 -0.1424 -0.5887 -0.4946
  542MOL0     C73090   3.931   1.348   6.157 -0.8665  0.6679 -0.1068
  542MOL0     C73091   3.944   1.329   6.018 -1.0851  0.5833  0.0970
  542MOL0     C73092   4.062   1.284   5.961  0.3497 -0.3045 -1.3069
  542MOL0     O73093   4.049   1.247   5.830 -0.6123 -0.3407  0.6940
  542MOL0     C73094   4.169   1.224   5.755 -0.7994 -0.0393  0.2440
  542MOL0     C73095   4.248   1.357   5.745  0.0130  0.8742  0.5061
  542MOL0     C73096   4.371   1.330   5.663  0.6095  1.7006  0.2984
  542MOL0     C73097   4.451   1.455   5.627  0.4259  0.7929 -0.9427
  542MOL0     C73098   4.490   1.510   5.754 -0.7496 -0.1899  0.3324
  542MOL0     C73099   4.537   1.562   5.852 -0.0258  1.1793 -0.3831
  542MOL0     C73100   4.174   1.270   6.041  0.0005  0.0954 -0.5587
  542MOL0     C73101   4.157   1.283   6.179  0.1277  0.1936 -0.4707
  542MOL0     C73102   4.282   1.276   6.261  0.6111 -0.2062  0.4933
  542MOL0     H73103   3.862   1.558   6.592 -0.4201 -0.6696  1.4475
  542MOL0     H73104   3.880   1.575   6.843 -2.2363 -3.7569  0.1962
  542MOL0     H73105   4.266   1.458   7.028  0.0528  0.9503 -0.3766
  542MOL0     H73106   4.161   1.472   7.170  2.9768  0.5753 -0.1879
  542MOL0     H73107   4.179   1.232   6.980 -1.4402 -1.9010  0.9252
  542MOL0     H73108   4.041   1.251   7.072 -0.0575 -2.6800  3.2302
  542MOL0     H73109   4.172   1.106   7.206  0.8061 -0.1724 -1.2513
  542MOL0     H73110   4.150   1.250   7.288 -2.4043 -1.7820 -0.2188
  542MOL0     H73111   4.408   1.179   7.143  0.1272  0.4372 -0.1629
  542MOL0     H73112   4.373   1.332   7.223 -1.0373  0.0631  3.1505
  542MOL0     H73113   4.497   1.219   7.379 -0.2868  0.6777 -0.7174
  542MOL0     H73114   4.329   1.240   7.433  2.1292 -0.8413  1.7150
  542MOL0     H73115   4.270   1.010   7.392  0.1845  0.4401 -0.8989
  542MOL0     H73116   4.427   0.979   7.303  2.1873  2.6456 -0.5790
  542MOL0     H73117   4.371   0.999   7.582 -1.1116 -1.8008 -1.1380
  542MOL0     H73118   4.543   0.995   7.504  0.7332 -0.2794 -0.5004
  542MOL0     H73119   4.309   0.783   7.500 -1.4268  0.8720 -2.3819
  542MOL0     H73120   4.458   0.765   7.409  1.5097  1.3951  0.9543
  542MOL0     H73121   4.702   0.767   7.589 -0.9392  1.3132 -0.7181
  542MOL0     H73122   4.836   0.806   7.814 -1.0499  0.3914 -2.0844
  542MOL0     H73123   4.737   0.779   7.963 -1.8698 -3.3087  0.6727
  542MOL0     H73124   4.736   0.516   7.886 -0.1685 -1.1856 -2.9353
  542MOL0     H73125   4.841   0.574   7.761 -2.3068 -2.0295  0.1307
  542MOL0     H73126   4.899   0.621   8.064  4.6195  0.4944  2.0080
  542MOL0     H73127   4.994   0.659   7.916  1.3662 -0.8539  1.5215
  542MOL0     H73128   4.902   0.376   7.974 -1.0172  1.2202 -5.8017
  542MOL0     H73129   5.040   0.435   8.073 -4.7723 -3.2766  2.9000
  542MOL0     H73130   5.216   0.566   8.012 -1.3686 -1.0691  0.6068
  542MOL0     H73131   5.435   0.642   7.947  1.4649  0.8039 -1.3489
  542MOL0     H73132   5.827   0.379   7.499 -2.5751 -0.5168 -0.9256
  542MOL0     H73133   6.018   0.473   7.375 -1.1518  0.2950 -3.0474
  542MOL0     H73134   6.258   0.742   7.343  1.8772 -1.3281 -1.2136
  542MOL0     H73135   6.188   0.583   7.365 -2.7259  0.1432  1.5503
  542MOL0     H73136   6.165   0.736   7.094 -3.0785  0.5656  2.0508
  542MOL0     H73137   6.308   0.624   7.149  1.0466  3.8085  0.8714
  542MOL0     H73138   6.151   0.446   7.155 -0.4138  1.5321  1.5980
  542MOL0     H73139   6.010   0.542   7.116 -0.3404 -2.3733  1.3972
  542MOL0     H73140   6.246   0.541   6.928  1.4188 -0.6937  0.0694
  542MOL0     H73141   6.076   0.598   6.910 -0.9049 -0.9115 -0.5567
  542MOL0     H73142   5.978   0.393   6.917  1.1488 -0.4684 -0.2629
  542MOL0     H73143   6.121   0.306   6.969 -0.4517 -1.9380 -1.2548
  542MOL0     H73144   6.097   0.428   6.688 -0.9770 -1.4312 -1.4047
  542MOL0     H73145   6.243   0.355   6.760  0.8504 -0.6935  4.3749
  542MOL0     H73146   5.973   0.225   6.719 -0.4766  1.3536  0.2735
  542MOL0     H73147   6.112   0.147   6.798  2.0757  2.0553  1.0203
  542MOL0     H73148   6.100   0.054   6.562  0.1340  0.1009 -0.7668
  542MOL0     H73149   6.081   0.228   6.509 -0.8338  0.3747 -0.3684
  542MOL0     H73150   5.884   0.865   7.437  2.2800 -0.6900  0.2589
  542MOL0     H73151   5.678   0.767   7.580  1.0467  2.2582 -1.8182
  542MOL0     H73152   5.409   0.392   7.585  0.7446  1.6706 -1.8060
  542MOL0     H73153   5.190   0.323   7.657  0.3553  1.3136 -1.3002
  542MOL0     H73154   4.259   1.374   6.818  1.3684  2.1849  1.6234
  542MOL0     H73155   4.241   1.369   6.578 -0.2225  0.8339  0.1975
  542MOL0     H73156   3.851   1.411   6.195 -0.1407  1.6644 -0.2024
  542MOL0     H73157   3.858   1.350   5.955 -1.0345 -3.3768 -1.5771
  542MOL0     H73158   4.138   1.211   5.651  0.5537  4.1770 -0.9084
  542MOL0     H73159   4.233   1.141   5.787 -1.9966 -0.7341  0.9281
  542MOL0     H73160   4.266   1.390   5.848  0.4224 -0.7686  0.9989
  542MOL0     H73161   4.187   1.425   5.685 -1.1495 -1.3761 -1.0132
  542MOL0     H73162   4.353   1.282   5.566  3.8211 -4.2686  2.1527
  542MOL0     H73163   4.430   1.256   5.718 -1.2599 -1.4515 -1.6297
  542MOL0     H73164   4.534   1.435   5.558  0.1284 -2.7997 -0.4350
  542MOL0     H73165   4.392   1.533   5.579  1.1753  1.2386 -1.1710
  542MOL0     H73166   4.577   1.611   5.939  4.0504  0.0182 -1.3822
  542MOL0     H73167   4.269   1.241   5.997 -0.0006 -3.7744  1.5563
  542MOL0     H73168   4.351   1.198   6.228  0.5736 -1.0083  2.2126
  542MOL0     H73169   4.342   1.368   6.251  1.0646 -0.3445  1.6923
  542MOL0     H73170   4.264   1.259   6.368 -3.2739 -0.0909 -0.0132
  543MOL0     O73171   3.509   1.893   7.365 -0.6004  0.3239  0.0602
  543MOL0     C73172   3.462   1.804   7.434  0.1420  0.7714  0.5302
  543MOL0     O73173   3.500   1.771   7.562  0.4898 -0.2053  0.4058
  543MOL0     C73174   3.544   1.867   7.640  1.1221  0.5271  0.5198
  543MOL0     C73175   3.466   1.922   7.750 -0.6195 -0.1322 -0.6171
  543MOL0     C73176   3.520   2.021   7.838 -0.1666  0.2123 -0.4910
  543MOL0     C73177   3.655   2.047   7.834  0.0985  0.0929  0.1345
  543MOL0     O73178   3.717   2.127   7.927  0.1083  0.5189 -0.6748
  543MOL0     C73179   3.654   2.248   7.965 -1.3144  0.7749  0.9060
  543MOL0     C73180   3.733   2.307   8.077 -0.5303  0.0198  0.5241
  543MOL0     C73181   3.748   2.211   8.201  0.3649 -0.0385  0.2505
  543MOL0     C73182   3.823   2.287   8.316  0.1605 -0.2659  0.7997
  543MOL0     C73183   3.863   2.191   8.429 -0.1028 -0.2759 -0.5131
  543MOL0     C73184   3.740   2.145   8.516 -0.4069 -0.2590  1.0215
  543MOL0     C73185   3.762   2.018   8.596 -0.6421 -0.3661  1.0153
  543MOL0     C73186   3.748   1.890   8.501 -0.0351  0.3691 -0.1216
  543MOL0     N73187   3.609   1.858   8.472  0.4349 -0.6062  0.0164
  543MOL0     C73188   3.553   1.883   8.349  0.5135 -0.0457 -0.1808
  543MOL0     C73189   3.422   1.884   8.378  0.2683 -0.1411 -0.2101
  543MOL0     C73190   3.320   1.922   8.274  0.1209 -1.0034 -0.2357
  543MOL0     C73191   3.180   1.876   8.314  0.3682  0.1940 -0.3391
  543MOL0     C73192   3.166   1.726   8.314  0.8833 -0.1242 -0.0363
  543MOL0     C73193   3.026   1.674   8.276 -0.2436  0.0393  0.2309
  543MOL0     O73194   2.995   1.698   8.134  0.0679  0.5126  0.4578
  543MOL0     C73195   2.860   1.705   8.088  0.7425 -0.8120  0.3134
  543MOL0     C73196   2.846   1.732   7.947  0.2810  0.0381  0.5460
  543MOL0     C73197   2.723   1.737   7.889  0.0324 -0.0569 -0.1118
  543MOL0     C73198   2.609   1.737   7.969  0.0590  0.7721 -0.4000
  543MOL0     C73199   2.485   1.780   7.907  0.2530 -1.0344  0.8804
  543MOL0     O73200   2.368   1.788   7.976 -0.8624  0.0377 -1.2000
  543MOL0     C73201   2.252   1.813   7.907  0.7290  0.8657 -0.2260
  543MOL0     C73202   2.189   1.929   7.923 -0.0236  0.4166 -0.3423
  543MOL0     C73203   2.075   1.964   7.847  0.5693 -0.1721  0.1507
  543MOL0     C73204   2.025   1.863   7.757 -0.0446 -0.3472 -0.0944
  543MOL0     O73205   1.901   1.888   7.697 -0.1583 -0.2512  0.1321
  543MOL0     C73206   1.886   1.863   7.555 -0.0625  0.1161 -0.6741
  543MOL0     C73207   1.767   1.933   7.509  0.7054  0.0397  0.5260
  543MOL0     C73208   1.748   2.092   7.519  0.5951 -0.1250 -0.2603
  543MOL0     C73209   1.598   2.127   7.511 -0.6943  0.0210  1.0613
  543MOL0     C73210   1.556   2.172   7.376 -0.0245  0.7987 -0.1486
  543MOL0     C73211   1.517   2.062   7.277  0.0523  0.4881 -0.0478
  543MOL0     C73212   1.403   1.969   7.319  0.5729 -1.2050  1.3530
  543MOL0     C73213   1.375   1.873   7.199  0.2647 -0.2951  0.1360
  543MOL0    Cl73214   1.208   1.794   7.225 -0.0183  0.2250 -0.3925
  543MOL0     C73215   2.094   1.744   7.732 -0.2010  0.1762 -0.5696
  543MOL0     C73216   2.207   1.719   7.811  0.4224 -0.0416  0.7864
  543MOL0     O73217   2.491   1.823   7.784 -0.2506 -0.7274 -0.3317
  543MOL0     C73218   2.619   1.702   8.102  0.0419 -0.3422  0.6992
  543MOL0     C73219   2.743   1.684   8.164 -0.1543 -0.8774  0.0604
  543MOL0     N73220   3.399   1.838   8.514  0.1823 -0.1870 -1.2787
  543MOL0     N73221   3.514   1.825   8.570 -0.0724  0.3950  0.6392
  543MOL0     C73222   3.729   1.973   7.745 -0.5558  0.1526  0.1709
  543MOL0     C73223   3.675   1.899   7.632 -0.2385 -0.1233 -0.2844
  543MOL0     C73224   3.339   1.730   7.375 -1.1816 -0.8362 -0.2686
  543MOL0     C73225   3.235   1.699   7.466  0.1293 -0.2245 -0.4890
  543MOL0     C73226   3.107   1.652   7.440 -0.4894 -0.4319  0.1935
  543MOL0     C73227   3.086   1.629   7.304 -0.3041 -0.1519  0.0807
  543MOL0     O73228   2.965   1.561   7.286 -0.0936 -0.6836 -0.2566
  543MOL0     C73229   2.910   1.559   7.152  0.1551 -0.2182 -0.0949
  543MOL0     C73230   2.862   1.697   7.091 -0.6882  0.2342  0.1109
  543MOL0     C73231   2.801   1.675   6.950  0.2880  0.7315  0.0380
  543MOL0     C73232   2.905   1.655   6.839 -1.5487 -0.2780  0.2015
  543MOL0     C73233   3.001   1.769   6.823 -0.7275 -0.2557  0.8342
  543MOL0     C73234   3.084   1.855   6.804 -0.2497  0.0802  0.1404
  543MOL0     C73235   3.184   1.655   7.207 -0.0546 -0.7432  0.4289
  543MOL0     C73236   3.310   1.706   7.235  0.3243  0.2932  0.2934
  543MOL0     C73237   3.404   1.726   7.113 -0.0646  0.0844 -0.1475
  543MOL0     H73238   3.370   1.877   7.772  0.5230 -3.2733 -1.5650
  543MOL0     H73239   3.453   2.046   7.919 -0.1119  2.1359 -0.9982
  543MOL0     H73240   3.658   2.315   7.878 -0.9178 -1.1596 -0.6361
  543MOL0     H73241   3.548   2.241   7.994 -1.8125 -0.0231 -0.9693
  543MOL0     H73242   3.691   2.402   8.108  2.0846  1.0790  1.0939
  543MOL0     H73243   3.829   2.333   8.030 -2.2015 -1.3034 -4.2120
  543MOL0     H73244   3.803   2.118   8.184 -0.0219 -0.7408  2.4670
  543MOL0     H73245   3.645   2.186   8.228  1.0645 -0.4428  2.8676
  543MOL0     H73246   3.911   2.326   8.266 -2.3467  1.7607 -2.4117
  543MOL0     H73247   3.773   2.377   8.351 -0.3416  1.0939 -2.9997
  543MOL0     H73248   3.919   2.101   8.402  3.8211  1.0367  2.2998
  543MOL0     H73249   3.929   2.242   8.500 -0.5983 -2.6683  1.8365
  543MOL0     H73250   3.736   2.229   8.586  2.1401  3.8058 -3.1451
  543MOL0     H73251   3.655   2.134   8.448 -0.5922 -0.8398  1.3410
  543MOL0     H73252   3.689   2.012   8.677  0.2575  0.6440  1.9535
  543MOL0     H73253   3.867   2.020   8.629  0.3767 -0.2276 -1.9922
  543MOL0     H73254   3.809   1.911   8.412  0.6042  2.5429  0.7560
  543MOL0     H73255   3.788   1.799   8.546 -0.1579  0.8981  1.0973
  543MOL0     H73256   3.597   1.908   8.253  0.1824  0.6158 -0.1686
  543MOL0     H73257   3.312   2.029   8.251  0.1667 -1.4726 -2.7275
  543MOL0     H73258   3.349   1.874   8.180 -4.4375 -2.5459 -1.1062
  543MOL0     H73259   3.155   1.902   8.417 -0.4073 -1.3352 -0.1177
  543MOL0     H73260   3.108   1.912   8.240  0.9468  2.0040 -0.0774
  543MOL0     H73261   3.187   1.680   8.411 -1.2084 -2.7165 -0.6699
  543MOL0     H73262   3.237   1.678   8.246 -0.3721 -0.5190 -1.1087
  543MOL0     H73263   2.955   1.723   8.343 -0.3462 -0.8201  0.7714
  543MOL0     H73264   3.029   1.565   8.287 -0.5673 -0.0845 -0.8631
  543MOL0     H73265   2.929   1.741   7.878  0.4737 -3.6703  0.0914
  543MOL0     H73266   2.715   1.772   7.787 -1.5546 -2.6936 -0.9770
  543MOL0     H73267   2.225   1.998   7.999 -0.1417  0.9206 -0.7417
  543MOL0     H73268   2.028   2.059   7.868  1.8093  0.1963  1.4879
  543MOL0     H73269   1.971   1.898   7.496 -0.1057  0.4900 -0.5190
  543MOL0     H73270   1.891   1.757   7.530  0.0525  0.2108 -1.0632
  543MOL0     H73271   1.748   1.910   7.404 -1.0433  1.7419  0.4124
  543MOL0     H73272   1.684   1.893   7.568 -0.1996  2.6529  1.1652
  543MOL0     H73273   1.784   2.121   7.619 -3.3964  2.2517  0.7033
  543MOL0     H73274   1.807   2.141   7.441 -0.9614  0.0810 -1.3503
  543MOL0     H73275   1.593   2.220   7.567 -1.2178  0.2351  0.6546
  543MOL0     H73276   1.538   2.049   7.559  1.5115 -3.0998 -0.8478
  543MOL0     H73277   1.635   2.227   7.325 -0.0390 -1.7559 -3.2229
  543MOL0     H73278   1.469   2.233   7.400  0.5129  1.3137  0.5380
  543MOL0     H73279   1.485   2.115   7.186 -0.0206 -0.6837 -0.7214
  543MOL0     H73280   1.608   2.008   7.250 -0.5721 -0.9105  0.5565
  543MOL0     H73281   1.310   2.027   7.329  0.5370 -1.0721  0.2927
  543MOL0     H73282   1.430   1.913   7.409 -0.1685 -1.1787  1.5950
  543MOL0     H73283   1.373   1.931   7.106  1.8542  0.2399  0.4045
  543MOL0     H73284   1.461   1.805   7.197 -0.8149 -1.7350  0.4385
  543MOL0     H73285   2.068   1.673   7.654  2.7656 -4.9127  2.5279
  543MOL0     H73286   2.261   1.625   7.815  0.0635 -0.1973  2.1747
  543MOL0     H73287   2.530   1.684   8.162 -0.0328 -0.6857  0.4887
  543MOL0     H73288   2.751   1.673   8.271  0.8664 -1.5666 -0.0724
  543MOL0     H73289   3.836   1.991   7.748 -0.7568  1.3183  1.0617
  543MOL0     H73290   3.746   1.861   7.559  1.6578 -0.0339  1.4434
  543MOL0     H73291   3.263   1.712   7.570  1.8807 -0.8896 -0.8445
  543MOL0     H73292   3.023   1.630   7.505 -1.3069  0.2106 -0.6076
  543MOL0     H73293   2.825   1.491   7.153 -0.1099  0.0974 -0.4971
  543MOL0     H73294   2.993   1.515   7.096  1.2581 -0.5376  1.7191
  543MOL0     H73295   2.945   1.767   7.102  1.0850 -1.7102 -0.4118
  543MOL0     H73296   2.772   1.739   7.138 -2.4943  2.1378 -4.4040
  543MOL0     H73297   2.745   1.768   6.954  1.6588  1.5564  2.4755
  543MOL0     H73298   2.737   1.586   6.958  0.3121  0.7705  0.7408
  543MOL0     H73299   2.960   1.565   6.868  1.6725  1.5463  0.2155
  543MOL0     H73300   2.856   1.642   6.742  1.3967 -0.6954 -1.3428
  543MOL0     H73301   3.160   1.926   6.781  0.2846 -0.8805 -1.1830
  543MOL0     H73302   3.173   1.629   7.103  1.9004  2.5633 -0.7492
  543MOL0     H73303   3.509   1.703   7.133 -0.0407 -0.4362 -0.8418
  543MOL0     H73304   3.376   1.655   7.035  0.6028 -0.7639  0.3678
  543MOL0     H73305   3.410   1.826   7.069  1.6862 -0.4261 -1.1683
  544MOL0     O73306   0.867   0.346   3.787 -0.1600  0.1953 -0.2938
  544MOL0     C73307   0.946   0.282   3.716 -0.3357 -0.5433  0.4745
  544MOL0     O73308   0.920   0.244   3.591  0.2225 -0.5181  0.3167
  544MOL0     C73309   0.804   0.276   3.522  0.7359  0.1785  0.7828
  544MOL0     C73310   0.814   0.249   3.384  0.2851 -0.3553  0.3068
  544MOL0     C73311   0.703   0.245   3.298  0.2001 -0.8646  0.3580
  544MOL0     C73312   0.574   0.251   3.357 -0.0584  1.2259 -0.7863
  544MOL0     O73313   0.467   0.227   3.280  0.2225  0.3146  0.3998
  544MOL0     C73314   0.409   0.342   3.219 -1.1710 -0.4767  0.2624
  544MOL0     C73315   0.377   0.292   3.073 -0.7808 -0.7610  0.0815
  544MOL0     C73316   0.304   0.405   2.997 -0.5322  0.4637 -0.4519
  544MOL0     C73317   0.387   0.489   2.905  0.2027 -0.4604  0.0438
  544MOL0     C73318   0.481   0.587   2.974 -0.2325  0.2607  0.2288
  544MOL0     C73319   0.623   0.545   2.975  0.0520 -0.0122  0.1686
  544MOL0     C73320   0.715   0.671   2.967  0.9285  0.0268  0.3670
  544MOL0     C73321   0.859   0.636   2.901  0.3358  0.4920 -0.7259
  544MOL0     N73322   0.941   0.755   2.902 -0.3877 -0.6684  0.1549
  544MOL0     C73323   0.948   0.839   2.789  0.3957  0.3403  0.0065
  544MOL0     C73324   1.055   0.918   2.800 -0.0368  0.2896 -0.1074
  544MOL0     C73325   1.097   1.001   2.687  0.6274 -0.5520  0.5712
  544MOL0     C73326   1.193   0.923   2.587 -0.7548 -0.4788 -0.5391
  544MOL0     C73327   1.332   0.895   2.645 -0.2292  0.1452 -0.2545
  544MOL0     C73328   1.403   1.033   2.676  0.3286  0.5692  0.9739
  544MOL0     O73329   1.396   1.118   2.569 -0.8524 -0.3879  0.0186
  544MOL0     C73330   1.517   1.142   2.504 -0.0929  0.4106 -0.5289
  544MOL0     C73331   1.627   1.064   2.486 -0.4428  0.2758 -0.2459
  544MOL0     C73332   1.736   1.119   2.412  0.1399 -0.5813 -0.1586
  544MOL0     C73333   1.737   1.248   2.354  0.2029  0.3751 -1.3998
  544MOL0     C73334   1.845   1.298   2.279  0.1698  0.9144 -0.1696
  544MOL0     O73335   1.811   1.395   2.186 -0.2969 -0.2498  0.0113
  544MOL0     C73336   1.904   1.443   2.096  0.3706 -0.1159 -0.2950
  544MOL0     C73337   2.023   1.495   2.142  0.4857 -0.5078 -0.0656
  544MOL0     C73338   2.125   1.536   2.052 -0.1730 -0.6662 -0.2578
  544MOL0     C73339   2.107   1.510   1.918  0.8683 -0.5165  0.2283
  544MOL0     O73340   2.207   1.558   1.838 -0.0020 -0.2422  0.0205
  544MOL0     C73341   2.190   1.535   1.695 -1.0440  0.7510  1.1491
  544MOL0     C73342   2.283   1.615   1.604  0.5285  0.7150 -0.5840
  544MOL0     C73343   2.429   1.561   1.617  0.1436  0.2752 -0.0340
  544MOL0     C73344   2.534   1.661   1.579  0.3239 -0.0968 -0.0105
  544MOL0     C73345   2.631   1.598   1.480  0.1503 -0.5958  0.2397
  544MOL0     C73346   2.576   1.564   1.342  0.0969 -0.4159  0.0193
  544MOL0     C73347   2.694   1.525   1.239  1.2628  0.7158  0.4602
  544MOL0     C73348   2.789   1.634   1.196  0.0970  0.8389  0.0441
  544MOL0    Cl73349   2.754   1.693   1.030  0.5523 -0.6730  0.4321
  544MOL0     C73350   1.984   1.465   1.874  0.2916  0.9875 -0.2943
  544MOL0     C73351   1.876   1.435   1.960  0.4471 -0.4884  0.5074
  544MOL0     O73352   1.954   1.241   2.299  0.2674  0.2636 -0.1643
  544MOL0     C73353   1.619   1.328   2.379 -0.3052 -0.4724  0.0827
  544MOL0     C73354   1.514   1.273   2.455  0.0240 -0.2741  0.2281
  544MOL0     N73355   1.126   0.884   2.915  0.1679  0.4699 -0.2939
  544MOL0     N73356   1.064   0.777   2.967 -0.0438 -0.7759  0.7934
  544MOL0     C73357   0.562   0.282   3.494 -1.0171  1.1137 -0.1773
  544MOL0     C73358   0.675   0.281   3.578 -0.2721 -0.6649  0.2673
  544MOL0     C73359   1.073   0.245   3.780 -0.1568 -1.1875  0.0063
  544MOL0     C73360   1.153   0.145   3.711  0.6034  0.2398  0.3694
  544MOL0     C73361   1.276   0.114   3.774  0.5619  0.3360  0.2076
  544MOL0     C73362   1.323   0.172   3.893 -0.5831  0.1022  0.4024
  544MOL0     O73363   1.439   0.140   3.966 -0.2501 -0.3529 -0.0436
  544MOL0     C73364   1.497   0.011   3.935  0.0105  0.2022  0.2384
  544MOL0     C73365   1.418  -0.110   3.979  1.0183 -0.2805 -0.3299
  544MOL0     C73366   1.380  -0.104   4.136  0.5596 -0.3537 -0.2692
  544MOL0     C73367   1.496  -0.163   4.222 -0.5011 -0.1535 -0.1206
  544MOL0     C73368   1.454  -0.162   4.360 -0.5157  0.4453  0.1231
  544MOL0     C73369   1.415  -0.151   4.474  0.3809  0.2400 -1.0116
  544MOL0     C73370   1.239   0.272   3.949 -0.3728  0.0085  0.7907
  544MOL0     C73371   1.119   0.305   3.899  0.1476 -0.1638 -0.1155
  544MOL0     C73372   1.038   0.403   3.984  0.3658 -0.0553 -0.9992
  544MOL0     H73373   0.912   0.232   3.339 -0.4222 -0.2533 -1.3632
  544MOL0     H73374   0.709   0.223   3.192  1.3139  1.2215 -0.0572
  544MOL0     H73375   0.321   0.365   3.280 -0.6829 -1.0626  1.2053
  544MOL0     H73376   0.485   0.420   3.225 -1.5200 -0.2460  2.6825
  544MOL0     H73377   0.310   0.206   3.069  0.0338 -1.3665 -3.2126
  544MOL0     H73378   0.467   0.271   3.016 -0.9456 -0.0423 -0.4522
  544MOL0     H73379   0.260   0.480   3.064 -0.0268 -0.2651  0.7341
  544MOL0     H73380   0.230   0.344   2.944  0.5228 -1.1603 -0.1103
  544MOL0     H73381   0.441   0.422   2.837 -2.4373 -1.6629 -0.9839
  544MOL0     H73382   0.320   0.563   2.861  0.7786  2.2581  3.3066
  544MOL0     H73383   0.469   0.679   2.915 -0.1316  0.0654 -0.1003
  544MOL0     H73384   0.449   0.609   3.076  0.2610  2.8397 -0.1090
  544MOL0     H73385   0.658   0.473   3.049 -1.8845 -1.4021 -0.1869
  544MOL0     H73386   0.641   0.485   2.886  1.6264  0.7643 -0.0704
  544MOL0     H73387   0.726   0.703   3.071  1.2421 -0.0756  0.3665
  544MOL0     H73388   0.676   0.752   2.906  0.2119 -0.3707  0.2777
  544MOL0     H73389   0.903   0.553   2.957  1.7779  0.9998 -1.0460
  544MOL0     H73390   0.855   0.591   2.801 -1.1606  1.2944 -1.0566
  544MOL0     H73391   0.873   0.856   2.713  1.8437  2.4172 -1.0627
  544MOL0     H73392   1.008   1.031   2.631 -0.8862 -0.5374  2.8487
  544MOL0     H73393   1.149   1.092   2.715  0.6551 -0.1260 -0.8181
  544MOL0     H73394   1.146   0.828   2.561 -3.2394  0.8525 -1.2637
  544MOL0     H73395   1.203   0.977   2.492 -0.5638  1.9688  0.7974
  544MOL0     H73396   1.396   0.847   2.571 -1.0757 -1.2056 -0.1297
  544MOL0     H73397   1.329   0.827   2.730  0.2968  0.3082 -0.1036
  544MOL0     H73398   1.507   1.017   2.707  0.9582 -0.8134 -1.5948
  544MOL0     H73399   1.347   1.072   2.762 -1.3092  2.6196 -0.9299
  544MOL0     H73400   1.616   0.968   2.535 -0.6886  0.7373  0.6233
  544MOL0     H73401   1.820   1.050   2.406  0.4381 -0.1468 -1.2822
  544MOL0     H73402   2.035   1.500   2.250  0.0700 -1.0504  0.0098
  544MOL0     H73403   2.215   1.583   2.090 -0.3015  1.0312 -1.9039
  544MOL0     H73404   2.202   1.428   1.677 -0.5695  1.2234 -1.7854
  544MOL0     H73405   2.092   1.566   1.659 -0.7408  2.0749  1.4011
  544MOL0     H73406   2.249   1.606   1.500  1.2014 -1.9631 -0.6431
  544MOL0     H73407   2.280   1.722   1.628 -0.4868  0.1633  2.0670
  544MOL0     H73408   2.441   1.537   1.723 -0.1994  3.4639  0.8606
  544MOL0     H73409   2.442   1.470   1.559 -1.1987  0.8405 -1.2789
  544MOL0     H73410   2.583   1.684   1.674  0.9489 -1.4155 -0.0025
  544MOL0     H73411   2.487   1.750   1.535 -5.1185 -1.2684  2.5631
  544MOL0     H73412   2.676   1.505   1.515  3.1428  0.9646  0.9082
  544MOL0     H73413   2.712   1.670   1.466 -0.6253 -0.1474 -2.5895
  544MOL0     H73414   2.499   1.486   1.344 -2.4217  1.7793 -2.2245
  544MOL0     H73415   2.532   1.655   1.300  1.4445  1.3936  2.2884
  544MOL0     H73416   2.643   1.496   1.146  1.5199  1.1501  0.1774
  544MOL0     H73417   2.754   1.437   1.263  0.2031 -0.4167 -0.8713
  544MOL0     H73418   2.763   1.713   1.268 -3.4507 -2.8842  3.4084
  544MOL0     H73419   2.892   1.601   1.210 -0.0645  1.0724  2.2755
  544MOL0     H73420   1.970   1.467   1.766  0.9167 -0.9815 -0.4442
  544MOL0     H73421   1.782   1.395   1.923  0.2168 -0.4790  1.0870
  544MOL0     H73422   1.623   1.430   2.344 -0.1681  0.2440  2.0436
  544MOL0     H73423   1.436   1.348   2.459  1.3474  1.4955 -3.0258
  544MOL0     H73424   0.464   0.265   3.537  0.4201 -3.1973  1.9790
  544MOL0     H73425   0.655   0.247   3.679  0.1617 -1.8727 -0.0417
  544MOL0     H73426   1.130   0.099   3.616 -2.2936  2.5432 -0.2031
  544MOL0     H73427   1.343   0.039   3.733 -1.3904 -1.0152 -0.6780
  544MOL0     H73428   1.592   0.022   3.988 -0.6351  1.3251  1.1963
  544MOL0     H73429   1.535   0.017   3.832 -0.6464  2.8630  0.0951
  544MOL0     H73430   1.487  -0.195   3.981 -0.3408 -1.4646  2.7500
  544MOL0     H73431   1.332  -0.135   3.916  0.7942  1.0719 -0.5964
  544MOL0     H73432   1.287  -0.160   4.152  1.4158 -1.6849  0.3035
  544MOL0     H73433   1.361  -0.001   4.168 -0.1396 -0.8427  0.9808
  544MOL0     H73434   1.515  -0.263   4.182  1.2241  1.2883 -3.3069
  544MOL0     H73435   1.582  -0.097   4.209 -0.2941 -0.1866  0.9604
  544MOL0     H73436   1.379  -0.155   4.574 -1.0610  0.2585 -1.5158
  544MOL0     H73437   1.271   0.311   4.045  1.5084  0.8066 -0.0864
  544MOL0     H73438   0.946   0.361   4.025  1.1822 -1.2807 -0.3802
  544MOL0     H73439   1.090   0.413   4.080 -1.7047  0.9430  0.0758
  544MOL0     H73440   1.029   0.505   3.946  0.7207 -0.0274 -1.0128
  545MOL0     O73441   4.219   1.133   1.730 -0.4846  1.2269 -0.6827
  545MOL0     C73442   4.263   1.013   1.738 -0.3822 -0.5166  0.2384
  545MOL0     O73443   4.394   0.981   1.776 -0.7617 -0.2439  0.3856
  545MOL0     C73444   4.469   1.095   1.813  0.8271 -0.4308  0.2521
  545MOL0     C73445   4.537   1.168   1.714 -0.6796 -0.0508 -0.2377
  545MOL0     C73446   4.599   1.293   1.760 -0.4169  0.7922 -0.2250
  545MOL0     C73447   4.601   1.327   1.892 -0.2257  0.6728  0.8395
  545MOL0     O73448   4.677   1.441   1.909 -0.2053  0.2172 -1.0694
  545MOL0     C73449   4.644   1.522   2.016  0.1711  0.5511 -0.3298
  545MOL0     C73450   4.766   1.625   2.022 -0.2450  0.3739 -0.6327
  545MOL0     C73451   4.774   1.684   2.165  1.1960 -0.9368  0.7113
  545MOL0     C73452   4.908   1.762   2.166  1.1229  0.6672  0.3267
  545MOL0     C73453   4.946   1.801   2.310 -0.1355  0.4381  0.2395
  545MOL0     C73454   4.882   1.918   2.377 -0.3301  0.0220 -0.4678
  545MOL0     C73455   4.952   1.945   2.513  0.4215  0.1316 -0.4099
  545MOL0     C73456   4.874   2.038   2.606  0.9888 -0.3035  0.2491
  545MOL0     N73457   4.813   2.157   2.535  0.3329 -0.1231  0.8329
  545MOL0     C73458   4.686   2.176   2.496 -0.2336 -0.5902  0.0708
  545MOL0     C73459   4.685   2.300   2.457  0.5307 -0.4062  0.4853
  545MOL0     C73460   4.553   2.367   2.406 -0.2183  0.1267 -0.0414
  545MOL0     C73461   4.530   2.335   2.255  0.8388  0.6603  0.0627
  545MOL0     C73462   4.630   2.407   2.163  0.1797  0.1189 -0.3762
  545MOL0     C73463   4.619   2.561   2.161  0.1821 -0.2992  0.3636
  545MOL0     O73464   4.715   2.629   2.076  0.2935  0.8221 -1.2139
  545MOL0     C73465   4.851   2.634   2.100  0.6497 -0.7166  0.0861
  545MOL0     C73466   4.918   2.614   2.218 -0.5364  0.6524 -0.3491
  545MOL0     C73467   5.058   2.633   2.227 -0.0739  0.9040 -0.2187
  545MOL0     C73468   5.125   2.698   2.126  0.3204 -0.1421 -0.4323
  545MOL0     C73469   5.266   2.731   2.149  0.3794  1.1564  0.5512
  545MOL0     O73470   5.326   2.734   2.271 -0.3520 -0.4641 -0.5543
  545MOL0     C73471   5.454   2.779   2.288 -0.6100  0.2236  0.5583
  545MOL0     C73472   5.535   2.707   2.375 -0.6049 -0.4075  0.5131
  545MOL0     C73473   5.667   2.750   2.403 -0.0608  0.1188  0.5613
  545MOL0     C73474   5.718   2.864   2.347 -0.4572  0.5712  0.5509
  545MOL0     O73475   5.843   2.918   2.370  0.5015  0.4631 -0.2000
  545MOL0     C73476   5.937   2.830   2.431 -0.8633 -0.0701  0.7424
  545MOL0     C73477   6.081   2.885   2.417  0.0622  0.0366  1.0087
  545MOL0     C73478   6.100   2.990   2.518  0.4225  0.2044  0.2997
  545MOL0     C73479   6.233   3.061   2.476  0.3956  0.8531  0.0398
  545MOL0     C73480   6.300   3.120   2.595  0.2744 -0.4711 -0.3646
  545MOL0     C73481   6.417   3.196   2.542 -0.2211  0.0872  0.1353
  545MOL0     C73482   6.489   3.278   2.645 -0.0007  0.0671 -0.2944
  545MOL0     C73483   6.637   3.227   2.653  0.6038  0.2414  0.5146
  545MOL0    Cl73484   6.728   3.309   2.793 -0.0691 -0.1337  0.0191
  545MOL0     C73485   5.642   2.930   2.257 -0.9930  0.1694  0.6803
  545MOL0     C73486   5.511   2.890   2.224 -0.0845  0.7291 -1.0139
  545MOL0     O73487   5.327   2.757   2.045  0.1019 -0.4173 -0.1942
  545MOL0     C73488   5.059   2.714   2.002  0.4637 -0.6239 -0.9294
  545MOL0     C73489   4.920   2.692   1.994 -0.2102  0.6687 -0.7741
  545MOL0     N73490   4.811   2.358   2.467  0.0592 -0.3056  0.5180
  545MOL0     N73491   4.892   2.269   2.510  0.3800  0.3100  0.9418
  545MOL0     C73492   4.550   1.246   1.980 -0.3022 -0.3648 -0.4084
  545MOL0     C73493   4.482   1.125   1.946 -0.6221 -1.5238 -0.2116
  545MOL0     C73494   4.190   0.899   1.678  0.4250  0.3428  0.5737
  545MOL0     C73495   4.250   0.765   1.683  0.3916 -0.1745  0.2115
  545MOL0     C73496   4.184   0.656   1.614 -1.5290  0.6330  0.4319
  545MOL0     C73497   4.065   0.666   1.543 -0.6132 -0.3844  0.5280
  545MOL0     O73498   4.005   0.563   1.475  0.1029 -0.3453 -0.0891
  545MOL0     C73499   4.025   0.433   1.507  0.0444  0.4846  0.4436
  545MOL0     C73500   3.966   0.390   1.647 -0.6792  0.2174  0.5770
  545MOL0     C73501   3.832   0.450   1.681 -0.4429 -0.3691  0.4483
  545MOL0     C73502   3.728   0.423   1.569 -0.1054  0.2798 -0.4012
  545MOL0     C73503   3.593   0.450   1.616  0.9355 -0.3168 -0.1774
  545MOL0     C73504   3.478   0.451   1.647 -0.3326 -1.1515  0.3457
  545MOL0     C73505   4.006   0.789   1.544  0.6699 -0.2727  0.3259
  545MOL0     C73506   4.058   0.902   1.614 -0.0114 -0.3445 -0.8484
  545MOL0     C73507   3.985   1.033   1.601  0.0633 -0.2343 -0.2800
  545MOL0     H73508   4.537   1.149   1.607 -1.2991  0.3056 -0.3041
  545MOL0     H73509   4.633   1.363   1.684 -1.2977  2.7363  1.0882
  545MOL0     H73510   4.559   1.591   2.008 -1.1469 -0.8670  0.7554
  545MOL0     H73511   4.643   1.468   2.111  3.2569  4.8366  2.5350
  545MOL0     H73512   4.754   1.703   1.946  0.6920  0.0079 -1.1890
  545MOL0     H73513   4.847   1.555   1.996 -1.3557 -2.3680  2.5849
  545MOL0     H73514   4.762   1.604   2.239 -2.4701  0.6952  2.1177
  545MOL0     H73515   4.698   1.760   2.187  0.9434 -0.8480 -0.3885
  545MOL0     H73516   4.979   1.687   2.130 -1.9320 -1.4227 -1.9221
  545MOL0     H73517   4.899   1.850   2.103 -0.9832  0.1677 -0.1410
  545MOL0     H73518   4.934   1.713   2.374 -0.0865  0.6601  0.5620
  545MOL0     H73519   5.048   1.842   2.306 -0.3186  1.0950  1.7251
  545MOL0     H73520   4.889   2.004   2.309  1.0333  0.4081  0.1175
  545MOL0     H73521   4.773   1.907   2.379 -0.6427  2.4193 -1.0675
  545MOL0     H73522   5.048   1.994   2.490  0.5568  0.5531  0.9355
  545MOL0     H73523   4.977   1.859   2.577  1.5160  0.5674 -0.2159
  545MOL0     H73524   4.799   1.979   2.660  1.9417 -1.9685 -0.1476
  545MOL0     H73525   4.953   2.068   2.675  1.2490 -0.7773  0.1625
  545MOL0     H73526   4.597   2.114   2.506 -0.9824  0.1200 -1.7103
  545MOL0     H73527   4.468   2.331   2.465 -1.5894  2.3820 -0.5597
  545MOL0     H73528   4.547   2.473   2.429 -1.4696  0.8780 -3.2719
  545MOL0     H73529   4.520   2.227   2.241 -2.5290  0.8261  0.3738
  545MOL0     H73530   4.433   2.379   2.234 -0.3192  1.7817  6.0266
  545MOL0     H73531   4.617   2.375   2.059 -3.4546 -1.1710  0.3255
  545MOL0     H73532   4.730   2.386   2.202 -0.5234 -0.5326  1.1626
  545MOL0     H73533   4.629   2.597   2.263  0.3557 -0.4956  0.4169
  545MOL0     H73534   4.522   2.601   2.128 -0.2674 -0.6763  1.2026
  545MOL0     H73535   4.866   2.576   2.306  1.7387  0.8706  1.1494
  545MOL0     H73536   5.107   2.616   2.322 -0.7113 -2.2384 -0.3596
  545MOL0     H73537   5.496   2.624   2.431 -2.1800  1.1748  1.8873
  545MOL0     H73538   5.712   2.681   2.474 -2.8401 -0.8203  1.5358
  545MOL0     H73539   5.903   2.815   2.534 -1.8935  0.5218  0.5135
  545MOL0     H73540   5.934   2.737   2.374  1.7925  0.1239  0.1865
  545MOL0     H73541   6.155   2.808   2.442  0.4951  1.1632  3.4222
  545MOL0     H73542   6.091   2.923   2.315 -3.0232 -4.1362 -1.1865
  545MOL0     H73543   6.022   3.067   2.518 -1.5261 -1.6606  1.8906
  545MOL0     H73544   6.102   2.955   2.622 -0.7095  0.5385  0.4418
  545MOL0     H73545   6.218   3.139   2.402 -0.0939  0.2379 -0.5191
  545MOL0     H73546   6.302   2.986   2.435 -1.9826 -2.4141  1.5509
  545MOL0     H73547   6.335   3.040   2.662  0.7434 -1.7840 -2.1072
  545MOL0     H73548   6.229   3.182   2.649 -0.4993 -2.4267  0.9644
  545MOL0     H73549   6.471   3.133   2.472 -1.4535 -3.4192  2.0822
  545MOL0     H73550   6.377   3.275   2.478 -0.6936  2.6066  3.2498
  545MOL0     H73551   6.441   3.265   2.743  0.2329  1.2505 -0.0049
  545MOL0     H73552   6.476   3.382   2.613 -3.5141 -0.2112 -0.2319
  545MOL0     H73553   6.643   3.119   2.669  2.8550  0.5001  1.7185
  545MOL0     H73554   6.677   3.246   2.553 -1.3993  1.4493 -0.1180
  545MOL0     H73555   5.679   3.019   2.207 -1.1782  0.0210  0.2748
  545MOL0     H73556   5.454   2.944   2.149  2.3808  1.9413 -2.1357
  545MOL0     H73557   5.113   2.756   1.918  1.3073  0.3176  0.0498
  545MOL0     H73558   4.860   2.712   1.907 -0.4932  0.8683 -0.5344
  545MOL0     H73559   4.548   1.249   2.088 -1.8497 -2.6729 -0.2927
  545MOL0     H73560   4.436   1.060   2.019  0.2742 -1.0735  0.7838
  545MOL0     H73561   4.343   0.748   1.736  2.3237  1.4892 -2.3525
  545MOL0     H73562   4.246   0.568   1.608  1.3912  2.6382 -1.6826
  545MOL0     H73563   4.126   0.394   1.489 -1.0713 -1.7238 -1.8028
  545MOL0     H73564   3.968   0.374   1.434  0.8657 -1.3112  1.1742
  545MOL0     H73565   4.043   0.413   1.721  0.1640 -1.7380  0.3776
  545MOL0     H73566   3.972   0.281   1.637  2.9291  0.5414 -2.9891
  545MOL0     H73567   3.843   0.556   1.703 -0.5613 -0.6909  2.2279
  545MOL0     H73568   3.790   0.409   1.774  1.4519 -2.2958  0.5249
  545MOL0     H73569   3.752   0.473   1.475 -1.4331  1.4831 -0.1321
  545MOL0     H73570   3.722   0.314   1.558  0.1305 -0.3400  3.7884
  545MOL0     H73571   3.382   0.461   1.694 -0.2645 -0.3372  0.3260
  545MOL0     H73572   3.909   0.787   1.496  0.1319 -0.0281  1.3772
  545MOL0     H73573   3.977   1.079   1.700  2.1410  1.5309 -0.8450
  545MOL0     H73574   4.041   1.099   1.533 -2.9140  2.6687 -0.1765
  545MOL0     H73575   3.881   1.037   1.567  0.4418  0.2253 -1.4365
  546MOL0     O73576  11.080   8.683   8.737  0.2402 -0.0111 -1.0654
  546MOL0     C73577  11.035   8.747   8.646  0.8201  0.1028 -0.3278
  546MOL0     O73578  10.908   8.743   8.597 -0.0585 -0.0973 -0.2630
  546MOL0     C73579  10.848   8.633   8.648 -0.1922 -1.0299  0.3893
  546MOL0     C73580  10.788   8.627   8.767  0.0282 -0.7234  0.0559
  546MOL0     C73581  10.713   8.521   8.813 -0.6080  0.0742 -0.2948
  546MOL0     C73582  10.686   8.411   8.732  0.2548 -0.2187 -0.4480
  546MOL0     O73583  10.592   8.319   8.766 -0.4572  0.2401 -0.7527
  546MOL0     C73584  10.656   8.189   8.787  0.1917 -0.0645  0.3682
  546MOL0     C73585  10.556   8.101   8.872 -0.4817 -0.0283  0.2076
  546MOL0     C73586  10.431   8.068   8.781 -1.2621  0.9126 -0.4367
  546MOL0     C73587  10.434   7.920   8.736 -0.3444 -0.0602 -0.2885
  546MOL0     C73588  10.337   7.895   8.620 -0.5817 -0.0424 -0.2641
  546MOL0     C73589  10.350   7.748   8.571 -0.7482  0.5179 -1.1122
  546MOL0     C73590  10.250   7.708   8.466  0.4504  0.1338 -0.2136
  546MOL0     C73591  10.273   7.567   8.410 -1.1697 -0.7531 -0.5578
  546MOL0     N73592  10.161   7.521   8.325 -0.1094 -0.3687 -0.0789
  546MOL0     C73593  10.046   7.464   8.375  1.1471 -0.5856 -0.6092
  546MOL0     C73594   9.973   7.421   8.266  0.5356 -0.3674 -0.5353
  546MOL0     C73595   9.839   7.350   8.245 -0.4960  0.6675 -0.2704
  546MOL0     C73596   9.727   7.457   8.224 -0.5734 -0.0986  0.9451
  546MOL0     C73597   9.598   7.376   8.200 -1.3005 -0.0262  0.6591
  546MOL0     C73598   9.486   7.468   8.142  0.8643 -0.3584 -0.2928
  546MOL0     O73599   9.362   7.407   8.136  0.7073 -0.0028  0.2981
  546MOL0     C73600   9.330   7.325   8.023 -0.7005 -0.2887 -1.0754
  546MOL0     C73601   9.424   7.273   7.937 -0.7060  0.3980  1.0825
  546MOL0     C73602   9.380   7.202   7.833 -0.5071 -0.0255  0.1592
  546MOL0     C73603   9.245   7.172   7.815  0.7053  0.4460 -0.2742
  546MOL0     C73604   9.193   7.087   7.697 -1.0535  1.0008 -0.2769
  546MOL0     O73605   9.085   7.133   7.616 -0.4225 -0.4426 -0.3576
  546MOL0     C73606   9.019   7.058   7.523  0.1831 -0.2611 -0.3797
  546MOL0     C73607   8.932   7.133   7.454  1.1021  0.3801 -0.3510
  546MOL0     C73608   8.844   7.081   7.357 -0.4540  0.2098  0.3938
  546MOL0     C73609   8.855   6.947   7.328 -0.4853 -0.0750 -0.0966
  546MOL0     O73610   8.773   6.895   7.229 -0.3250 -0.1445 -0.6457
  546MOL0     C73611   8.768   6.750   7.217 -0.1518  0.3483 -0.1631
  546MOL0     C73612   8.665   6.707   7.107 -0.0696 -0.3411 -0.2806
  546MOL0     C73613   8.529   6.748   7.142  0.1035 -0.2106  0.0249
  546MOL0     C73614   8.437   6.728   7.023  0.1558 -0.9279  0.6784
  546MOL0     C73615   8.297   6.680   7.074  0.3926  0.4145  1.6403
  546MOL0     C73616   8.300   6.537   7.113  0.1595  0.6337 -0.4738
  546MOL0     C73617   8.154   6.495   7.163 -0.1664  0.4593  0.8158
  546MOL0     C73618   8.149   6.353   7.188  0.2898  0.3205 -0.4093
  546MOL0    Cl73619   8.222   6.297   7.345 -0.2962 -0.2720 -0.0536
  546MOL0     C73620   8.950   6.871   7.397  0.0057 -0.0341 -0.7967
  546MOL0     C73621   9.030   6.921   7.499  0.4319 -0.4171 -0.0485
  546MOL0     O73622   9.257   6.990   7.665 -0.0694 -0.6201 -0.6121
  546MOL0     C73623   9.151   7.213   7.903  0.0250 -1.1722  0.2966
  546MOL0     C73624   9.193   7.294   8.010 -1.0274  0.6588 -0.6943
  546MOL0     N73625  10.055   7.458   8.153 -0.4596 -0.3138 -0.2899
  546MOL0     N73626  10.159   7.516   8.193 -0.5802  0.2335 -0.5815
  546MOL0     C73627  10.732   8.419   8.599  0.0202 -0.7230 -0.6608
  546MOL0     C73628  10.817   8.522   8.558  1.0100  0.0160 -0.3811
  546MOL0     C73629  11.119   8.859   8.601  0.0679 -0.4100 -0.4640
  546MOL0     C73630  11.251   8.835   8.580 -0.6606  0.2655  1.0371
  546MOL0     C73631  11.342   8.938   8.547 -0.7647  0.3718  0.3813
  546MOL0     C73632  11.295   9.067   8.517 -1.2785  0.7737  0.4994
  546MOL0     O73633  11.368   9.181   8.483  0.2154 -0.0378 -0.5089
  546MOL0     C73634  11.478   9.166   8.395 -0.1231  0.0278  1.0553
  546MOL0     C73635  11.587   9.249   8.452  1.3244  0.7162 -0.3820
  546MOL0     C73636  11.717   9.238   8.391  0.1540  0.4514 -0.1493
  546MOL0     C73637  11.746   9.337   8.287  0.9701 -0.6866  0.8620
  546MOL0     C73638  11.875   9.306   8.234  0.4119  0.1208 -0.1448
  546MOL0     C73639  11.990   9.297   8.201  0.0404 -0.0741  0.8891
  546MOL0     C73640  11.159   9.088   8.533 -0.7746 -0.3918  0.3448
  546MOL0     C73641  11.071   8.987   8.578 -0.4673 -0.1341  1.1872
  546MOL0     C73642  10.922   9.023   8.578 -0.2138  0.2157 -0.3867
  546MOL0     H73643  10.798   8.707   8.840  0.9194 -0.2716 -0.5390
  546MOL0     H73644  10.677   8.525   8.915 -3.0025 -0.2381 -1.0650
  546MOL0     H73645  10.699   8.148   8.695  1.3360  3.8483 -1.0519
  546MOL0     H73646  10.744   8.193   8.852  0.1387 -1.8314  0.5941
  546MOL0     H73647  10.522   8.157   8.959 -1.5557 -1.1136  0.5217
  546MOL0     H73648  10.616   8.016   8.905  1.8874  1.1971 -0.7497
  546MOL0     H73649  10.433   8.124   8.687 -0.2649  0.5252 -0.6553
  546MOL0     H73650  10.340   8.103   8.832 -0.0065  0.8523  1.9912
  546MOL0     H73651  10.540   7.899   8.718  0.1716  1.9681  0.1199
  546MOL0     H73652  10.406   7.847   8.813 -1.5272 -1.0805 -1.6337
  546MOL0     H73653  10.233   7.915   8.646  0.0134  1.9303  0.8762
  546MOL0     H73654  10.366   7.969   8.544 -0.4555 -1.0661 -1.2311
  546MOL0     H73655  10.447   7.722   8.528 -0.4090 -1.9404  0.8797
  546MOL0     H73656  10.349   7.678   8.655  1.8921 -0.3053 -1.6517
  546MOL0     H73657  10.258   7.772   8.378  0.5848 -0.5644 -0.7163
  546MOL0     H73658  10.146   7.720   8.499 -0.3647 -2.2465 -1.6196
  546MOL0     H73659  10.368   7.550   8.357 -1.3580  0.5633 -1.3718
  546MOL0     H73660  10.277   7.501   8.497 -1.6003 -0.4806 -0.3277
  546MOL0     H73661  10.023   7.448   8.479 -1.0832  2.3006 -0.5244
  546MOL0     H73662   9.850   7.290   8.155 -1.1553 -0.6458  0.4894
  546MOL0     H73663   9.808   7.286   8.329  1.7167  0.9343  0.8157
  546MOL0     H73664   9.723   7.514   8.317 -0.1583  1.0892  0.2588
  546MOL0     H73665   9.742   7.515   8.132 -0.5107  0.2713  1.1859
  546MOL0     H73666   9.570   7.323   8.291 -0.7118 -1.2036  0.1638
  546MOL0     H73667   9.620   7.300   8.125 -0.5170  1.7119 -0.9506
  546MOL0     H73668   9.507   7.522   8.050 -0.9588  2.0889  0.6116
  546MOL0     H73669   9.458   7.540   8.220 -1.3003 -2.0635  0.6035
  546MOL0     H73670   9.530   7.286   7.956 -0.3719  1.3999 -1.1506
  546MOL0     H73671   9.448   7.138   7.778 -1.2987  0.0166 -0.8999
  546MOL0     H73672   8.923   7.240   7.471  1.2687  0.0320  2.3217
  546MOL0     H73673   8.779   7.146   7.299 -1.1172  0.8306  1.7763
  546MOL0     H73674   8.864   6.713   7.181 -0.2000 -1.3990  1.3921
  546MOL0     H73675   8.744   6.689   7.304 -1.1963 -3.2534 -2.7429
  546MOL0     H73676   8.695   6.742   7.007  1.4391 -0.4118  0.1237
  546MOL0     H73677   8.673   6.598   7.102  0.8743 -0.3158  0.4123
  546MOL0     H73678   8.500   6.682   7.223  2.7692 -2.1456 -0.4554
  546MOL0     H73679   8.536   6.849   7.185 -0.7404  1.9127 -4.2464
  546MOL0     H73680   8.479   6.668   6.942 -0.1241 -1.0654  0.6338
  546MOL0     H73681   8.417   6.821   6.969  0.4808 -0.5551  1.1840
  546MOL0     H73682   8.224   6.690   6.993  0.8614  0.2115  1.1907
  546MOL0     H73683   8.257   6.734   7.161 -1.7015 -0.2454  1.1383
  546MOL0     H73684   8.330   6.471   7.031  1.5955 -1.6291  1.7511
  546MOL0     H73685   8.378   6.525   7.189  0.4118 -1.7845 -1.0449
  546MOL0     H73686   8.089   6.509   7.077 -0.0977  0.4363  0.7608
  546MOL0     H73687   8.129   6.569   7.240  2.9218  1.4427  1.0504
  546MOL0     H73688   8.045   6.320   7.186  0.1353 -0.0969  4.0662
  546MOL0     H73689   8.192   6.294   7.106  2.7819 -2.7564  2.7748
  546MOL0     H73690   8.977   6.769   7.372  0.7441 -0.1114  0.2315
  546MOL0     H73691   9.093   6.857   7.559 -0.8952 -2.8017 -1.0920
  546MOL0     H73692   9.046   7.195   7.883  0.4771 -2.3670 -1.2511
  546MOL0     H73693   9.122   7.340   8.078 -0.7395  0.7905 -0.4800
  546MOL0     H73694  10.701   8.349   8.522  0.4546 -2.0516  0.3248
  546MOL0     H73695  10.833   8.542   8.453 -3.0456 -1.2180 -1.4083
  546MOL0     H73696  11.290   8.740   8.613  0.1458 -0.4857 -1.8088
  546MOL0     H73697  11.447   8.910   8.550 -0.8167  0.2580  1.9845
  546MOL0     H73698  11.460   9.203   8.294  3.0206  1.7760  1.0150
  546MOL0     H73699  11.507   9.061   8.394 -1.4802 -0.4585  3.4169
  546MOL0     H73700  11.597   9.215   8.556  0.8167 -2.7224 -1.3369
  546MOL0     H73701  11.554   9.353   8.450  2.0387  0.9404 -2.1467
  546MOL0     H73702  11.734   9.138   8.348 -1.6792  0.0395 -0.0071
  546MOL0     H73703  11.788   9.244   8.474  0.2049  0.2728 -0.1790
  546MOL0     H73704  11.669   9.321   8.211  2.6169  0.9262 -1.2926
  546MOL0     H73705  11.734   9.440   8.322  2.7112 -0.7545  1.7461
  546MOL0     H73706  12.094   9.283   8.181  0.0663 -1.4222  1.8869
  546MOL0     H73707  11.111   9.183   8.513 -2.1246 -0.0801  4.3331
  546MOL0     H73708  10.877   8.965   8.659 -1.3451  2.3538  0.6099
  546MOL0     H73709  10.898   9.130   8.584 -1.3387 -0.0805  1.0289
  546MOL0     H73710  10.878   8.988   8.485  0.3929  2.9048 -1.7979
  547MOL0     O73711   7.585   2.005   3.066  0.3590  0.2648  0.5067
  547MOL0     C73712   7.648   1.905   3.053 -1.0322 -0.1102 -0.3572
  547MOL0     O73713   7.601   1.778   3.052  0.0583  0.3480 -0.4124
  547MOL0     C73714   7.465   1.762   3.054 -0.5761  0.7714  0.4592
  547MOL0     C73715   7.387   1.777   2.936 -0.0608 -0.9755  0.9208
  547MOL0     C73716   7.246   1.759   2.937  0.3948  0.0460  0.6054
  547MOL0     C73717   7.172   1.727   3.056  0.3345  1.3480 -0.2728
  547MOL0     O73718   7.038   1.725   3.062  0.3876  0.1733  1.1843
  547MOL0     C73719   6.986   1.631   2.961  0.2825  0.5279 -0.1944
  547MOL0     C73720   6.853   1.566   3.015 -0.7763  0.3315 -0.3373
  547MOL0     C73721   6.789   1.474   2.903 -0.3520 -0.5901 -0.6303
  547MOL0     C73722   6.636   1.477   2.897  0.3034 -0.9843 -1.3568
  547MOL0     C73723   6.568   1.401   2.788  0.2553 -0.2928 -0.3499
  547MOL0     C73724   6.629   1.432   2.645 -0.2049  0.3794 -0.1875
  547MOL0     C73725   6.559   1.354   2.529  0.6024 -0.6266 -0.0986
  547MOL0     C73726   6.418   1.407   2.510 -0.2271 -0.5171  0.1942
  547MOL0     N73727   6.346   1.335   2.405  0.0447 -0.4882 -0.0622
  547MOL0     C73728   6.257   1.233   2.416  0.5740 -0.5231 -0.2262
  547MOL0     C73729   6.189   1.237   2.297 -0.9969 -0.4024 -0.6027
  547MOL0     C73730   6.082   1.145   2.265 -0.1207  0.3763  0.3121
  547MOL0     C73731   6.049   1.137   2.117 -0.5905 -0.0948 -0.2537
  547MOL0     C73732   5.923   1.041   2.088 -0.0241  0.0527  0.2952
  547MOL0     C73733   5.903   1.019   1.938  0.2552 -0.7957  0.2716
  547MOL0     O73734   5.838   1.147   1.889 -0.3522  0.3058 -0.0187
  547MOL0     C73735   5.812   1.146   1.757 -0.6137 -0.2936 -0.5690
  547MOL0     C73736   5.842   1.033   1.667  0.8460  0.1393  0.4495
  547MOL0     C73737   5.820   1.052   1.533 -0.1360  0.7657  0.2309
  547MOL0     C73738   5.761   1.165   1.479 -0.7487  0.0343  1.1023
  547MOL0     C73739   5.739   1.175   1.338  0.3574  0.0437 -0.0551
  547MOL0     O73740   5.759   1.297   1.294 -0.4138 -0.3459  0.3059
  547MOL0     C73741   5.723   1.328   1.162 -0.2967 -0.1950 -0.1727
  547MOL0     C73742   5.811   1.309   1.061 -0.3933  0.4207  0.4528
  547MOL0     C73743   5.785   1.351   0.932 -0.3891  0.6741  0.3681
  547MOL0     C73744   5.661   1.415   0.898  0.1572  0.1788 -0.0696
  547MOL0     O73745   5.619   1.455   0.775 -0.2052  0.4424  0.2531
  547MOL0     C73746   5.719   1.479   0.674  0.5301 -0.2297 -0.1479
  547MOL0     C73747   5.643   1.533   0.553 -0.4995 -0.4278 -0.2560
  547MOL0     C73748   5.744   1.588   0.456 -0.4936  0.1607  0.2865
  547MOL0     C73749   5.675   1.652   0.332 -0.2420 -0.8350  0.4680
  547MOL0     C73750   5.772   1.732   0.248 -0.4168  0.4003  0.1611
  547MOL0     C73751   5.815   1.871   0.310  0.9964 -0.7917  0.3979
  547MOL0     C73752   5.850   1.979   0.216 -0.5761  1.4344 -0.6159
  547MOL0     C73753   5.933   2.099   0.267 -0.6352 -0.8359  0.0049
  547MOL0    Cl73754   6.114   2.056   0.290  0.4858 -0.3574  0.6459
  547MOL0     C73755   5.571   1.428   1.007 -0.5220  0.2020  0.8321
  547MOL0     C73756   5.598   1.387   1.136 -0.2202  0.9939  0.3565
  547MOL0     O73757   5.696   1.076   1.275  1.0283 -0.3113  0.6323
  547MOL0     C73758   5.735   1.273   1.568  1.1077 -0.2079 -0.9523
  547MOL0     C73759   5.768   1.264   1.707  0.5079 -1.0751 -0.0284
  547MOL0     N73760   6.247   1.330   2.213  0.0772  0.4097 -0.0106
  547MOL0     N73761   6.330   1.396   2.283 -0.6564  0.2023  1.2271
  547MOL0     C73762   7.252   1.715   3.171  0.1680 -0.9495  0.1694
  547MOL0     C73763   7.392   1.726   3.175 -0.5273 -0.2924 -0.1945
  547MOL0     C73764   7.795   1.921   3.059  1.2945 -0.1896 -0.2706
  547MOL0     C73765   7.850   2.030   3.124  0.4197  0.0764  0.1441
  547MOL0     C73766   7.986   2.053   3.137  0.5598  0.0733  0.1392
  547MOL0     C73767   8.076   1.956   3.090 -0.6893  0.4280  0.1365
  547MOL0     O73768   8.214   1.961   3.107 -0.5642 -0.9386  0.6575
  547MOL0     C73769   8.275   2.075   3.176  0.6001  1.0639  1.0750
  547MOL0     C73770   8.422   2.073   3.141  0.1416 -0.3405  0.0160
  547MOL0     C73771   8.444   2.138   2.996 -0.6737  0.9388 -0.0505
  547MOL0     C73772   8.420   2.032   2.882 -0.0417 -0.9953 -0.1731
  547MOL0     C73773   8.510   2.065   2.771 -0.3107 -0.2468  0.1959
  547MOL0     C73774   8.580   2.086   2.673  1.6247 -0.0507 -0.0276
  547MOL0     C73775   8.019   1.848   3.019  0.2422 -0.1822  0.5351
  547MOL0     C73776   7.883   1.832   3.001 -0.2820  0.3048 -0.5444
  547MOL0     C73777   7.841   1.700   2.934  0.3333  0.0531  1.3234
  547MOL0     H73778   7.435   1.807   2.842 -0.3478 -1.0321  0.7561
  547MOL0     H73779   7.202   1.771   2.839 -3.1203  2.3501  2.2810
  547MOL0     H73780   6.963   1.703   2.882 -4.0608 -2.4830 -2.1095
  547MOL0     H73781   7.057   1.556   2.925  1.4240 -0.0448  2.9550
  547MOL0     H73782   6.784   1.647   3.042  0.4249  3.1659 -4.6621
  547MOL0     H73783   6.869   1.505   3.104 -4.4564 -0.0114  0.2483
  547MOL0     H73784   6.831   1.374   2.897 -0.8142 -0.7260 -1.8581
  547MOL0     H73785   6.816   1.525   2.810  2.1376 -1.4010 -0.4179
  547MOL0     H73786   6.599   1.438   2.993  0.4444 -2.6339 -1.9332
  547MOL0     H73787   6.605   1.581   2.906  1.0125 -0.8294 -0.5417
  547MOL0     H73788   6.575   1.292   2.790  1.4559 -0.2200 -0.0446
  547MOL0     H73789   6.464   1.429   2.803  0.9712  1.0312  2.8877
  547MOL0     H73790   6.624   1.540   2.629  0.1212  0.3783 -0.3008
  547MOL0     H73791   6.734   1.404   2.637 -0.9026 -2.2542 -0.9711
  547MOL0     H73792   6.556   1.251   2.564 -1.6755 -0.3380  0.7330
  547MOL0     H73793   6.615   1.359   2.435 -0.2061 -2.9663 -0.7586
  547MOL0     H73794   6.351   1.393   2.595 -2.6859 -0.8099 -1.7036
  547MOL0     H73795   6.421   1.514   2.488 -0.6830 -0.2702  1.2390
  547MOL0     H73796   6.240   1.181   2.510  1.8608  0.7169  0.7314
  547MOL0     H73797   6.097   1.040   2.293  1.1598 -0.0769 -1.8481
  547MOL0     H73798   5.991   1.184   2.312  0.0011  0.2131  0.6855
  547MOL0     H73799   6.024   1.242   2.099 -0.5959  0.9495  4.4587
  547MOL0     H73800   6.133   1.104   2.056  0.1396  0.7819  0.2359
  547MOL0     H73801   5.827   1.084   2.116 -0.9157  0.0359 -2.4551
  547MOL0     H73802   5.923   0.945   2.141  1.0923 -0.5862 -0.7890
  547MOL0     H73803   5.827   0.943   1.919 -3.9914  3.3110 -1.1084
  547MOL0     H73804   5.995   0.991   1.887  0.5570  1.8027 -0.8143
  547MOL0     H73805   5.876   0.937   1.705  1.6876 -0.3992 -1.5244
  547MOL0     H73806   5.838   0.968   1.468 -1.9292  0.4860  0.0565
  547MOL0     H73807   5.905   1.261   1.083 -1.7361 -2.0669  1.2385
  547MOL0     H73808   5.860   1.344   0.854 -1.2946 -0.8529 -0.4258
  547MOL0     H73809   5.792   1.555   0.704 -0.3836  0.2133  1.0134
  547MOL0     H73810   5.763   1.389   0.632  1.6982  1.2941 -2.4274
  547MOL0     H73811   5.575   1.460   0.508 -1.3076 -0.0015  0.2445
  547MOL0     H73812   5.578   1.620   0.570 -0.4614 -0.5346  0.4701
  547MOL0     H73813   5.791   1.678   0.497 -0.6437  0.3746 -0.0056
  547MOL0     H73814   5.817   1.512   0.427 -0.0687  0.4945  0.4761
  547MOL0     H73815   5.602   1.722   0.375  1.0599 -0.4215  2.1326
  547MOL0     H73816   5.635   1.562   0.286  0.9337 -1.0658 -0.1427
  547MOL0     H73817   5.713   1.756   0.159 -0.3222 -0.1587 -0.0544
  547MOL0     H73818   5.863   1.676   0.224 -0.6352  0.3412 -0.5388
  547MOL0     H73819   5.722   1.911   0.352  2.0416  0.3133  1.7504
  547MOL0     H73820   5.884   1.873   0.394 -0.4975 -0.2313  1.6523
  547MOL0     H73821   5.751   2.024   0.200 -0.6488  2.3656  1.9531
  547MOL0     H73822   5.893   1.938   0.125 -1.3603 -0.5219 -0.1598
  547MOL0     H73823   5.925   2.178   0.191 -0.2528 -0.2759  0.5333
  547MOL0     H73824   5.909   2.140   0.366  1.1762  3.0966 -0.9708
  547MOL0     H73825   5.482   1.485   0.980 -0.0797  1.3312  1.6761
  547MOL0     H73826   5.522   1.408   1.210 -1.3939 -0.4995 -0.3709
  547MOL0     H73827   5.692   1.367   1.535 -0.0083  0.4659  2.0969
  547MOL0     H73828   5.753   1.348   1.774 -2.0812  0.9219 -2.7952
  547MOL0     H73829   7.200   1.716   3.266 -0.1024  4.6467  0.2765
  547MOL0     H73830   7.439   1.717   3.273 -2.3128 -3.5858  0.5066
  547MOL0     H73831   7.774   2.090   3.174  0.3665 -0.3395  0.5762
  547MOL0     H73832   8.027   2.132   3.198 -0.4446 -0.6422  1.7910
  547MOL0     H73833   8.257   2.057   3.282  0.7574 -0.0827  0.9216
  547MOL0     H73834   8.226   2.170   3.154 -2.6445 -0.5791  0.5476
  547MOL0     H73835   8.460   1.971   3.151  0.8132 -0.6622 -4.0038
  547MOL0     H73836   8.469   2.133   3.219  0.0197 -0.1250 -0.0733
  547MOL0     H73837   8.549   2.170   2.987 -1.1659  3.6930  2.4349
  547MOL0     H73838   8.380   2.227   2.996  0.5675  1.8867  1.6899
  547MOL0     H73839   8.448   1.931   2.914  4.9768  0.0943 -0.3357
  547MOL0     H73840   8.317   2.034   2.844 -0.2942  0.8868  0.4990
  547MOL0     H73841   8.639   2.116   2.589 -0.7681 -0.7001 -2.0426
  547MOL0     H73842   8.086   1.772   2.981  1.5816  1.2002  0.0676
  547MOL0     H73843   7.753   1.727   2.874  2.9774  0.9860 -2.5475
  547MOL0     H73844   7.903   1.678   2.846 -2.3333  0.8101 -0.8867
  547MOL0     H73845   7.827   1.618   3.006  0.1729  1.3724  2.8385
  548MOL0     O73846   0.013  10.872   1.916  0.6618  0.2727 -0.1225
  548MOL0     C73847  -0.027  10.761   1.943  0.4272  0.6213  0.0952
  548MOL0     O73848   0.016  10.649   1.884 -0.4304  0.8069  1.2000
  548MOL0     C73849   0.144  10.645   1.830  0.3837 -0.4100 -0.3977
  548MOL0     C73850   0.251  10.700   1.897 -0.1349  0.5058 -0.5619
  548MOL0     C73851   0.374  10.705   1.841 -0.5679 -0.0648 -0.5410
  548MOL0     C73852   0.390  10.655   1.707  0.8074  0.1988  0.3441
  548MOL0     O73853   0.496  10.680   1.629 -0.5350 -0.7646 -0.1438
  548MOL0     C73854   0.559  10.807   1.659 -1.2808  0.1867 -0.1394
  548MOL0     C73855   0.664  10.848   1.549  0.8811  0.3026 -0.4615
  548MOL0     C73856   0.813  10.798   1.569  0.0103  0.2319 -0.1670
  548MOL0     C73857   0.895  10.887   1.664 -0.7728 -0.1618  0.3201
  548MOL0     C73858   1.033  10.836   1.700 -0.3953  0.1709  0.0726
  548MOL0     C73859   1.132  10.843   1.586  0.9404 -0.4019  0.1509
  548MOL0     C73860   1.267  10.795   1.641 -0.3351  0.0769 -0.3466
  548MOL0     C73861   1.356  10.899   1.717 -0.7962  0.7522  0.4083
  548MOL0     N73862   1.488  10.934   1.651  0.5682  0.4643  0.3585
  548MOL0     C73863   1.601  10.858   1.683 -0.0618 -0.2878 -0.6436
  548MOL0     C73864   1.713  10.935   1.656  0.1832 -0.2091  0.6358
  548MOL0     C73865   1.857  10.899   1.696  0.5898 -0.4768 -0.9311
  548MOL0     C73866   1.959  10.992   1.623  0.1399  0.4292  0.0306
  548MOL0     C73867   2.091  10.921   1.611  0.1080 -1.4022 -0.0133
  548MOL0     C73868   2.163  10.897   1.745 -0.2061  0.2857  0.1638
  548MOL0     O73869   2.219  11.012   1.816 -0.4255  0.4914 -0.3723
  548MOL0     C73870   2.337  11.052   1.745  0.6059 -0.6956 -0.8224
  548MOL0     C73871   2.343  11.175   1.686  0.2022 -0.2202  0.4523
  548MOL0     C73872   2.457  11.233   1.641  0.3150  0.8710 -0.0896
  548MOL0     C73873   2.581  11.158   1.658  1.2817  0.5863 -0.1072
  548MOL0     C73874   2.707  11.214   1.616 -0.4972 -0.2317  0.2787
  548MOL0     O73875   2.705  11.335   1.535  0.0166  0.8954 -0.4258
  548MOL0     C73876   2.807  11.418   1.505 -0.2465  0.3870 -0.3722
  548MOL0     C73877   2.932  11.419   1.553  0.1697  0.2472 -0.5687
  548MOL0     C73878   3.035  11.505   1.505 -0.0176  0.5515  0.7627
  548MOL0     C73879   3.000  11.605   1.405  0.3230  0.2050 -0.3784
  548MOL0     O73880   3.094  11.694   1.353  0.8011  0.2153 -0.1898
  548MOL0     C73881   3.161  11.647   1.234  0.2848  0.1448  0.0611
  548MOL0     C73882   3.277  11.550   1.263 -0.5289  0.2854 -0.0268
  548MOL0     C73883   3.408  11.623   1.302 -0.1936  0.0227  0.9656
  548MOL0     C73884   3.480  11.678   1.177 -0.8370 -0.1794 -1.1176
  548MOL0     C73885   3.611  11.754   1.213  0.7052  0.7991  0.2274
  548MOL0     C73886   3.688  11.807   1.096 -0.0806  0.4649  0.2041
  548MOL0     C73887   3.822  11.859   1.139 -0.8633 -0.9079  1.2328
  548MOL0     C73888   3.869  11.966   1.036 -1.0558 -0.8821  0.4385
  548MOL0    Cl73889   4.047  11.996   1.054  0.1063 -0.2870 -0.5278
  548MOL0     C73890   2.874  11.593   1.351  0.3709 -0.3878  0.1420
  548MOL0     C73891   2.777  11.505   1.405 -1.0246 -0.0333  1.0798
  548MOL0     O73892   2.814  11.157   1.650 -0.4671  0.0189 -0.8023
  548MOL0     C73893   2.575  11.033   1.712  1.0987 -0.0291  0.1118
  548MOL0     C73894   2.453  10.977   1.750  0.8728 -0.6417 -0.3216
  548MOL0     N73895   1.662  11.053   1.597  0.7319 -0.0635 -0.2831
  548MOL0     N73896   1.536  11.056   1.605 -0.2653  0.0214  0.0651
  548MOL0     C73897   0.279  10.608   1.641  0.5871 -0.4157 -0.1489
  548MOL0     C73898   0.156  10.600   1.705  0.2299 -0.5362  0.9950
  548MOL0     C73899  -0.140  10.739   2.028 -0.4654 -0.8956 -0.4894
  548MOL0     C73900  -0.204  10.620   2.029 -0.2054  0.6779  0.0171
  548MOL0     C73901  -0.320  10.592   2.117 -1.2225 -0.2684  0.2911
  548MOL0     C73902  -0.353  10.681   2.216 -0.4657  0.3104 -0.4790
  548MOL0     O73903  -0.458  10.671   2.305 -0.1147 -0.1213 -0.3773
  548MOL0     C73904  -0.571  10.584   2.276  0.2569 -0.1757  0.6462
  548MOL0     C73905  -0.700  10.631   2.358 -0.3165  0.0850 -0.0999
  548MOL0     C73906  -0.741  10.522   2.461 -0.4229 -0.4632 -0.3250
  548MOL0     C73907  -0.845  10.574   2.555  0.5805 -0.0475 -0.6755
  548MOL0     C73908  -0.965  10.631   2.488 -0.5615  0.3537  0.9935
  548MOL0     C73909  -1.071  10.676   2.445  0.0817 -0.0283 -0.2712
  548MOL0     C73910  -0.278  10.793   2.229 -0.6414 -0.1189  0.0181
  548MOL0     C73911  -0.171  10.828   2.139  0.4730  0.3921 -0.4128
  548MOL0     C73912  -0.096  10.955   2.169  0.1581 -0.5839 -1.2423
  548MOL0     H73913   0.225  10.745   1.992 -0.4736  1.8327 -1.2730
  548MOL0     H73914   0.449  10.750   1.906 -3.0359  0.2433  2.3312
  548MOL0     H73915   0.486  10.888   1.666 -1.8583 -0.2286 -1.2319
  548MOL0     H73916   0.615  10.802   1.754 -0.9944  1.3463 -0.2305
  548MOL0     H73917   0.672  10.957   1.552  1.1770  0.2572  1.8338
  548MOL0     H73918   0.624  10.830   1.449 -0.5696 -1.4824  0.3913
  548MOL0     H73919   0.863  10.791   1.472 -0.6240  2.4119 -0.6969
  548MOL0     H73920   0.816  10.694   1.604  0.8350  0.6571  1.1124
  548MOL0     H73921   0.907  10.985   1.616 -2.3486  0.3289  0.8613
  548MOL0     H73922   0.835  10.905   1.754 -0.5893 -0.8124  0.5827
  548MOL0     H73923   1.070  10.898   1.782  0.5324 -2.4847  1.8136
  548MOL0     H73924   1.038  10.734   1.740  1.2218 -0.1263 -0.8011
  548MOL0     H73925   1.089  10.776   1.511 -0.7412 -1.6251  2.1022
  548MOL0     H73926   1.144  10.948   1.559  2.7707  0.2594  2.9989
  548MOL0     H73927   1.324  10.764   1.552 -3.8118 -0.2530 -2.6619
  548MOL0     H73928   1.255  10.705   1.702  1.5629 -0.3275 -0.4898
  548MOL0     H73929   1.293  10.985   1.743 -1.7801 -0.4554  2.1322
  548MOL0     H73930   1.383  10.845   1.807 -2.7168 -0.9288  0.0377
  548MOL0     H73931   1.603  10.764   1.737  1.0071 -0.7168 -1.3914
  548MOL0     H73932   1.867  10.904   1.805 -2.5013  1.2915 -0.6104
  548MOL0     H73933   1.868  10.794   1.668  1.6235 -0.6636  0.0672
  548MOL0     H73934   1.921  11.017   1.524  0.9753  3.4623  0.3844
  548MOL0     H73935   1.962  11.089   1.674  0.6212 -0.0569  0.9508
  548MOL0     H73936   2.148  10.981   1.539 -0.4326 -2.6636 -1.5537
  548MOL0     H73937   2.075  10.829   1.554 -4.5155 -0.4498 -0.7280
  548MOL0     H73938   2.231  10.811   1.740 -0.3029  0.2645 -1.0846
  548MOL0     H73939   2.096  10.865   1.825  1.0575  0.3429  1.2749
  548MOL0     H73940   2.257  11.238   1.667  0.3999 -1.0414 -4.4710
  548MOL0     H73941   2.457  11.336   1.607 -0.0369  1.5897  1.9132
  548MOL0     H73942   2.957  11.340   1.624 -5.3028 -1.3828 -0.0232
  548MOL0     H73943   3.134  11.517   1.548 -0.6612  1.5014  2.0452
  548MOL0     H73944   3.079  11.607   1.173 -0.9405  1.8322  0.5104
  548MOL0     H73945   3.198  11.741   1.192 -2.1923  2.2899  2.2772
  548MOL0     H73946   3.246  11.478   1.340 -4.9935  3.9979  2.1370
  548MOL0     H73947   3.301  11.485   1.178  0.7982  0.0766  0.4844
  548MOL0     H73948   3.380  11.695   1.379 -0.0959  1.0437  0.0812
  548MOL0     H73949   3.478  11.555   1.350 -2.3267 -2.6230  0.5587
  548MOL0     H73950   3.415  11.753   1.132 -2.9447 -0.6940  0.9260
  548MOL0     H73951   3.507  11.599   1.106 -1.1302 -0.1009 -1.3176
  548MOL0     H73952   3.669  11.676   1.264  0.8168 -0.4515 -1.6816
  548MOL0     H73953   3.578  11.841   1.269 -3.3481  0.3967 -1.1629
  548MOL0     H73954   3.707  11.735   1.016 -2.0508 -0.2327  0.3036
  548MOL0     H73955   3.626  11.880   1.043 -0.5655 -2.3014 -3.4249
  548MOL0     H73956   3.886  11.771   1.139 -2.7798 -2.3846  0.9514
  548MOL0     H73957   3.829  11.888   1.244 -2.8628 -1.1764  1.4870
  548MOL0     H73958   3.845  11.934   0.934 -1.2473  2.2537 -0.5814
  548MOL0     H73959   3.814  12.060   1.044 -1.2564 -1.0240  0.7641
  548MOL0     H73960   2.846  11.656   1.268 -1.9193 -1.9922 -0.4044
  548MOL0     H73961   2.678  11.501   1.361 -0.8990  3.2706  0.2332
  548MOL0     H73962   2.661  10.967   1.723  1.9272  0.4828 -2.5784
  548MOL0     H73963   2.462  10.878   1.793  0.6712 -1.6957 -2.5520
  548MOL0     H73964   0.261  10.596   1.534 -0.3666 -1.2307  0.0818
  548MOL0     H73965   0.067  10.563   1.655  0.4426 -0.2255  0.3766
  548MOL0     H73966  -0.174  10.541   1.961  0.1085 -0.6966  1.6884
  548MOL0     H73967  -0.349  10.487   2.108 -2.1200 -0.0122  0.0511
  548MOL0     H73968  -0.548  10.483   2.309 -0.7951 -0.4661  0.5348
  548MOL0     H73969  -0.598  10.589   2.170 -1.5831 -2.1578  0.9590
  548MOL0     H73970  -0.777  10.641   2.280  1.0147  2.0982 -1.2314
  548MOL0     H73971  -0.695  10.729   2.406 -2.6473  0.9688 -1.4809
  548MOL0     H73972  -0.658  10.502   2.530 -0.3916  0.4185 -0.0936
  548MOL0     H73973  -0.769  10.425   2.420  2.6741 -1.3604 -0.5431
  548MOL0     H73974  -0.875  10.488   2.615  3.1927 -0.6193 -0.0800
  548MOL0     H73975  -0.796  10.645   2.622 -0.2071  1.4328 -1.6145
  548MOL0     H73976  -1.170  10.701   2.412 -0.0367 -1.0359 -0.7285
  548MOL0     H73977  -0.294  10.856   2.316  0.0137 -1.8567  1.4559
  548MOL0     H73978   0.011  10.933   2.164  0.6317  1.4987 -0.8654
  548MOL0     H73979  -0.116  11.027   2.090  0.6276  2.6090  1.3589
  548MOL0     H73980  -0.117  11.001   2.266 -2.1817  1.8064 -2.7511
  549MOL0     O73981   7.617   1.135  11.079 -0.3652  0.1786 -0.2487
  549MOL0     C73982   7.519   1.141  11.004  0.4482 -0.6412 -0.5325
  549MOL0     O73983   7.458   1.263  10.952  0.0121 -0.2071 -0.3702
  549MOL0     C73984   7.550   1.363  10.953 -0.8229 -0.1169  0.6397
  549MOL0     C73985   7.583   1.425  11.077 -0.5648 -0.1153  0.2620
  549MOL0     C73986   7.692   1.512  11.084  0.2609  0.7631 -0.0088
  549MOL0     C73987   7.756   1.554  10.964  0.4021 -0.4590  1.4355
  549MOL0     O73988   7.875   1.622  10.963  0.2258  0.0176  0.6235
  549MOL0     C73989   7.968   1.543  11.038  0.1381  0.3464 -0.5908
  549MOL0     C73990   8.101   1.612  11.033  1.2518  0.1917 -0.1609
  549MOL0     C73991   8.200   1.565  11.138 -0.2796  0.4213 -0.6951
  549MOL0     C73992   8.275   1.433  11.107  0.5387  0.1000  0.4441
  549MOL0     C73993   8.366   1.386  11.225 -0.7078  0.1147  0.6100
  549MOL0     C73994   8.463   1.491  11.262  1.0101 -0.2355  0.8655
  549MOL0     C73995   8.545   1.465  11.383 -1.0045 -1.1106 -0.7931
  549MOL0     C73996   8.488   1.545  11.509 -0.9286 -0.5710 -0.5028
  549MOL0     N73997   8.364   1.487  11.568  0.3559  1.7410  0.3096
  549MOL0     C73998   8.244   1.540  11.542  0.3115 -0.4788 -0.1295
  549MOL0     C73999   8.150   1.457  11.594 -0.4440  0.0459  0.2349
  549MOL0     C74000   8.006   1.492  11.616  0.8079  0.8158 -0.4461
  549MOL0     C74001   7.916   1.367  11.620 -0.2740  0.1043 -0.3574
  549MOL0     C74002   7.872   1.318  11.491 -0.7412  0.0983 -0.0168
  549MOL0     C74003   7.745   1.232  11.498  0.0539 -0.3103 -0.0508
  549MOL0     O74004   7.782   1.113  11.557 -0.0613 -0.0683  0.0599
  549MOL0     C74005   7.740   0.999  11.508 -0.6615  0.4143 -0.5541
  549MOL0     C74006   7.828   0.897  11.473  0.1498 -0.5488  0.4708
  549MOL0     C74007   7.781   0.779  11.420  1.3686 -0.1768  0.0344
  549MOL0     C74008   7.639   0.762  11.412 -0.2356  0.8030  0.9902
  549MOL0     C74009   7.582   0.638  11.363 -0.5038  0.0575  0.3332
  549MOL0     O74010   7.459   0.611  11.422 -0.6423  0.1683  0.2198
  549MOL0     C74011   7.379   0.523  11.364 -0.3726 -0.3543  1.3341
  549MOL0     C74012   7.407   0.386  11.378 -0.3312 -0.5260  0.5232
  549MOL0     C74013   7.328   0.289  11.311 -0.5636 -0.6337  0.3738
  549MOL0     C74014   7.222   0.331  11.228  0.4875  0.4606 -0.1335
  549MOL0     O74015   7.160   0.232  11.158  0.9655  0.2232 -0.3183
  549MOL0     C74016   7.012   0.241  11.168 -0.5235 -0.1884  0.6938
  549MOL0     C74017   6.939   0.120  11.109 -0.2402  0.2680  0.3109
  549MOL0     C74018   6.953   0.121  10.958  0.2340  0.2983 -1.2876
  549MOL0     C74019   6.889   0.002  10.895  0.4209 -1.3248  0.3842
  549MOL0     C74020   6.957  -0.044  10.760 -1.1443 -0.1929 -0.2490
  549MOL0     C74021   6.858  -0.136  10.686  0.1016 -0.3697 -0.5995
  549MOL0     C74022   6.791  -0.247  10.772  0.3639 -0.0121 -0.2888
  549MOL0     C74023   6.692  -0.332  10.689 -0.6924 -0.6631  0.2596
  549MOL0    Cl74024   6.547  -0.243  10.651 -0.4745  0.3109  0.2729
  549MOL0     C74025   7.206   0.468  11.207  0.3731  0.1506  0.3713
  549MOL0     C74026   7.290   0.568  11.273 -0.3383  0.1410 -0.6089
  549MOL0     O74027   7.630   0.576  11.270  0.3735  0.7806 -0.3327
  549MOL0     C74028   7.557   0.864  11.451  0.0790 -0.8343 -0.5427
  549MOL0     C74029   7.602   0.991  11.480 -0.0783  0.3705 -1.1733
  549MOL0     N74030   8.223   1.346  11.626 -0.4961 -0.1197 -0.7622
  549MOL0     N74031   8.346   1.361  11.613  1.0133  0.0668 -0.4273
  549MOL0     C74032   7.710   1.505  10.835  0.5852 -0.1047 -0.7593
  549MOL0     C74033   7.611   1.404  10.835  0.1077 -0.4671 -0.6533
  549MOL0     C74034   7.445   1.008  10.976 -0.3181 -1.2641 -0.2294
  549MOL0     C74035   7.312   1.004  10.927  0.3618  0.1415  0.7218
  549MOL0     C74036   7.240   0.889  10.926  0.5719 -0.1363 -0.7128
  549MOL0     C74037   7.297   0.768  10.935 -0.4483  0.0568 -0.0271
  549MOL0     O74038   7.219   0.657  10.915  0.1413  0.0809  0.2476
  549MOL0     C74039   7.279   0.536  10.855  0.7329  0.0239  0.3583
  549MOL0     C74040   7.328   0.574  10.708  0.4712 -0.0335 -0.6627
  549MOL0     C74041   7.238   0.654  10.610 -0.7236 -1.2226  0.3880
  549MOL0     C74042   7.084   0.625  10.612 -0.1789  0.3953  0.2439
  549MOL0     C74043   7.033   0.668  10.475 -1.3162  0.8839  0.3823
  549MOL0     C74044   7.001   0.719  10.368 -0.6656 -1.0171 -0.7270
  549MOL0     C74045   7.435   0.762  10.969 -0.8161 -0.2738  0.0047
  549MOL0     C74046   7.509   0.878  10.995  0.3805 -0.3992  0.1210
  549MOL0     C74047   7.650   0.861  11.036 -0.6696  0.5299 -0.2953
  549MOL0     H74048   7.547   1.380  11.170  2.1538 -3.5253 -0.1136
  549MOL0     H74049   7.719   1.549  11.182 -0.2253 -0.8194  0.7475
  549MOL0     H74050   7.934   1.540  11.142  0.1915 -1.5136 -0.5925
  549MOL0     H74051   7.965   1.438  11.008 -1.7055  0.3907 -0.7018
  549MOL0     H74052   8.081   1.715  11.062 -1.6771 -0.0656 -0.9772
  549MOL0     H74053   8.132   1.604  10.928  0.5766 -1.3211 -0.2741
  549MOL0     H74054   8.151   1.566  11.236  0.5775  3.1983 -0.2081
  549MOL0     H74055   8.272   1.647  11.141  2.4757 -1.8903 -0.2913
  549MOL0     H74056   8.202   1.353  11.098  0.3522  0.3149 -0.0180
  549MOL0     H74057   8.335   1.436  11.015  2.1205  0.6251  1.4597
  549MOL0     H74058   8.307   1.359  11.313  0.6745 -2.2319  0.9240
  549MOL0     H74059   8.430   1.303  11.192 -1.6783 -0.0385 -0.9878
  549MOL0     H74060   8.523   1.508  11.172 -3.9403  1.1019 -2.6342
  549MOL0     H74061   8.412   1.586  11.285  0.7256  0.5659 -2.5458
  549MOL0     H74062   8.645   1.501  11.359 -1.3932 -0.1873 -1.0799
  549MOL0     H74063   8.550   1.358  11.406 -0.4266 -0.4586  2.7184
  549MOL0     H74064   8.559   1.543  11.592  1.5732 -0.3163 -2.4889
  549MOL0     H74065   8.478   1.652  11.486  0.4898  0.2808  2.3569
  549MOL0     H74066   8.220   1.636  11.497  0.8351 -0.4388 -0.3307
  549MOL0     H74067   8.014   1.538  11.715  0.7652 -1.5256  0.7305
  549MOL0     H74068   7.962   1.558  11.542 -3.7206 -0.6998  0.5781
  549MOL0     H74069   7.976   1.290  11.671 -3.2700 -1.2218  1.4388
  549MOL0     H74070   7.830   1.380  11.685  1.0565  0.8121  1.3399
  549MOL0     H74071   7.956   1.267  11.443 -1.9789 -0.7366 -1.3798
  549MOL0     H74072   7.846   1.404  11.429 -1.4954 -0.6518 -0.7829
  549MOL0     H74073   7.709   1.218  11.396 -1.9151  2.0634  0.2111
  549MOL0     H74074   7.673   1.292  11.554 -2.4693 -0.0065 -3.3357
  549MOL0     H74075   7.935   0.914  11.473 -0.2595  2.5658 -0.3246
  549MOL0     H74076   7.855   0.709  11.384 -0.9858 -2.3795 -0.8350
  549MOL0     H74077   7.481   0.360  11.452 -1.9940  5.2497  4.9976
  549MOL0     H74078   7.357   0.186  11.325 -0.5915 -0.4399  2.1212
  549MOL0     H74079   6.992   0.261  11.273 -1.5791  2.5989  0.0678
  549MOL0     H74080   6.973   0.321  11.104  1.1863  1.0280  1.0800
  549MOL0     H74081   6.972   0.026  11.154  1.9596 -0.1367 -1.9157
  549MOL0     H74082   6.833   0.129  11.136  0.1736  0.4673  1.9848
  549MOL0     H74083   6.894   0.200  10.910 -3.0180  0.2356  2.1044
  549MOL0     H74084   7.060   0.134  10.938  0.8758  0.9030  1.9430
  549MOL0     H74085   6.782   0.012  10.879  0.4532  0.4590  1.0605
  549MOL0     H74086   6.903  -0.084  10.961  0.3310 -1.4773  0.2067
  549MOL0     H74087   7.048  -0.101  10.775 -1.5484 -1.7486 -3.0065
  549MOL0     H74088   6.977   0.046  10.700 -0.5222  1.5340  2.3871
  549MOL0     H74089   6.768  -0.080  10.657  0.8210  0.7371 -0.7482
  549MOL0     H74090   6.905  -0.191  10.605  3.2248  0.8156  0.2574
  549MOL0     H74091   6.741  -0.203  10.859  3.2402 -1.6676  2.3842
  549MOL0     H74092   6.867  -0.313  10.814 -2.6127 -2.5840  1.4670
  549MOL0     H74093   6.739  -0.370  10.598 -2.4948  0.7717 -1.3659
  549MOL0     H74094   6.661  -0.414  10.754 -1.5221 -1.3683 -0.9909
  549MOL0     H74095   7.129   0.503  11.139  2.7471 -0.1730 -2.7335
  549MOL0     H74096   7.289   0.675  11.251 -0.4767 -0.0628 -1.6205
  549MOL0     H74097   7.450   0.848  11.453 -0.2395  0.8879 -1.5555
  549MOL0     H74098   7.534   1.072  11.506 -1.1222 -1.5465  2.9924
  549MOL0     H74099   7.765   1.541  10.749  5.0955  1.0730  2.2585
  549MOL0     H74100   7.579   1.367  10.738  0.5398  1.5118 -1.5953
  549MOL0     H74101   7.265   1.095  10.892 -0.5502 -0.6353 -0.1537
  549MOL0     H74102   7.135   0.898  10.898 -0.0806  0.3198  1.7062
  549MOL0     H74103   7.206   0.455  10.842  0.3698  0.2010  1.2254
  549MOL0     H74104   7.364   0.489  10.906  2.2368  0.6116 -1.5232
  549MOL0     H74105   7.353   0.480  10.657 -1.8722 -2.3243  2.0707
  549MOL0     H74106   7.421   0.631  10.717 -0.3177  1.0801  0.9420
  549MOL0     H74107   7.276   0.634  10.509  0.1912 -0.0302  0.4805
  549MOL0     H74108   7.243   0.763  10.623 -2.0866 -0.5561 -3.3539
  549MOL0     H74109   7.064   0.518  10.627 -2.5185  0.7481  0.0451
  549MOL0     H74110   7.039   0.676  10.698  1.0794 -0.8961  1.7404
  549MOL0     H74111   6.968   0.758  10.274 -0.5854 -2.0647 -1.2089
  549MOL0     H74112   7.490   0.670  10.987  0.7060  0.9156  1.8829
  549MOL0     H74113   7.669   0.887  11.141  0.4861 -1.3497  0.0211
  549MOL0     H74114   7.677   0.755  11.037  1.4913  1.0032 -1.9062
  549MOL0     H74115   7.711   0.914  10.963 -1.4120  1.0739 -0.5230
  550MOL0     O74116   4.690   4.464   0.646 -0.0253 -0.0729  0.1743
  550MOL0     C74117   4.766   4.409   0.574 -0.4038 -0.4511  0.1285
  550MOL0     O74118   4.738   4.370   0.441  0.0809 -0.8352 -0.4631
  550MOL0     C74119   4.604   4.353   0.421 -0.7697  0.7613  0.3684
  550MOL0     C74120   4.505   4.450   0.402  0.5180  0.7037  0.1292
  550MOL0     C74121   4.375   4.417   0.356 -0.3851  0.5189 -0.3739
  550MOL0     C74122   4.352   4.281   0.332  0.2912 -0.2582 -0.7864
  550MOL0     O74123   4.228   4.251   0.277 -0.1906 -0.1103  0.3700
  550MOL0     C74124   4.153   4.195   0.392 -0.3230 -1.0415  0.3543
  550MOL0     C74125   4.025   4.152   0.332 -0.4866  0.7956  0.1748
  550MOL0     C74126   3.955   4.041   0.427 -0.7187 -0.2025  1.4623
  550MOL0     C74127   3.811   4.017   0.393 -0.5236 -0.2609  0.8989
  550MOL0     C74128   3.753   3.901   0.469  0.3667  1.0979 -0.3815
  550MOL0     C74129   3.624   3.856   0.411 -0.4033 -0.1894  0.0904
  550MOL0     C74130   3.595   3.708   0.440  0.0722  0.7985 -0.6434
  550MOL0     C74131   3.577   3.657   0.586 -0.6393 -0.1971  0.0841
  550MOL0     N74132   3.508   3.764   0.660 -0.1962 -0.8066  0.3485
  550MOL0     C74133   3.542   3.841   0.773  0.5453  0.4829 -0.3100
  550MOL0     C74134   3.426   3.877   0.826 -0.1398 -0.2856  0.4380
  550MOL0     C74135   3.422   3.948   0.958 -0.2511  0.0717  0.0017
  550MOL0     C74136   3.433   4.101   0.941  0.1435  0.4457 -0.0060
  550MOL0     C74137   3.447   4.179   1.076  0.1168 -0.4594 -0.0541
  550MOL0     C74138   3.451   4.325   1.049  0.0930  0.1247 -0.3885
  550MOL0     O74139   3.573   4.364   0.985  0.2591  0.3883  1.4439
  550MOL0     C74140   3.672   4.404   1.069  0.4047  0.0833  0.8439
  550MOL0     C74141   3.662   4.522   1.137 -0.7995  0.3222 -0.2424
  550MOL0     C74142   3.766   4.560   1.225  1.0006 -0.3492 -0.7368
  550MOL0     C74143   3.873   4.473   1.248  0.1792  0.2702  0.0003
  550MOL0     C74144   3.977   4.512   1.341  0.1916  0.8555 -1.0665
  550MOL0     O74145   4.003   4.648   1.354  0.3976  0.0027 -0.5354
  550MOL0     C74146   4.091   4.701   1.450  1.1072  0.0993 -0.4444
  550MOL0     C74147   4.221   4.657   1.457  0.0142 -0.0400 -0.6996
  550MOL0     C74148   4.295   4.697   1.574  0.4536 -0.0708  0.1754
  550MOL0     C74149   4.240   4.790   1.671  0.0630  0.2312 -0.2735
  550MOL0     O74150   4.299   4.831   1.789 -0.8080  0.2430 -0.7651
  550MOL0     C74151   4.447   4.824   1.788  0.3436  0.0017 -0.5888
  550MOL0     C74152   4.493   4.890   1.916  0.1670  0.1121  0.9568
  550MOL0     C74153   4.475   5.041   1.918  0.0046 -0.2340  0.7833
  550MOL0     C74154   4.521   5.115   1.783 -0.6686 -0.0237 -0.3342
  550MOL0     C74155   4.507   5.268   1.816  0.5405  1.4070 -0.2826
  550MOL0     C74156   4.599   5.309   1.929 -0.4739  0.1081  0.3559
  550MOL0     C74157   4.668   5.443   1.911  0.6301  0.5132  0.1501
  550MOL0     C74158   4.767   5.465   1.797 -0.5866 -0.6234 -0.0222
  550MOL0    Cl74159   4.922   5.394   1.836  0.8249  0.3237 -0.1604
  550MOL0     C74160   4.104   4.835   1.651  0.2298  0.5128  0.7529
  550MOL0     C74161   4.031   4.794   1.539  0.0346  0.9906 -0.0687
  550MOL0     O74162   4.042   4.419   1.392  0.5230 -0.2999  0.8938
  550MOL0     C74163   3.877   4.354   1.181 -0.9258  0.4291  0.5352
  550MOL0     C74164   3.777   4.319   1.086 -0.9823 -0.5627 -0.2185
  550MOL0     N74165   3.325   3.839   0.742 -0.0545 -0.7902 -0.5725
  550MOL0     N74166   3.375   3.786   0.644 -0.3663  0.3696  0.2831
  550MOL0     C74167   4.439   4.183   0.360  0.2466 -0.1309  0.2498
  550MOL0     C74168   4.569   4.220   0.401 -0.0061  0.3802  0.3359
  550MOL0     C74169   4.899   4.389   0.626  0.7547 -0.2635 -1.2878
  550MOL0     C74170   5.003   4.388   0.534 -1.1035 -0.4063  0.1903
  550MOL0     C74171   5.141   4.395   0.553 -0.5254 -0.3066 -0.3554
  550MOL0     C74172   5.183   4.389   0.689  0.7593 -0.0632 -0.4282
  550MOL0     O74173   5.314   4.387   0.723  0.3682 -0.0326 -0.1849
  550MOL0     C74174   5.365   4.351   0.850  0.3794  0.1675 -0.0181
  550MOL0     C74175   5.517   4.378   0.847  0.4205 -0.1094  0.0793
  550MOL0     C74176   5.525   4.535   0.822  0.0253 -0.4020  0.6933
  550MOL0     C74177   5.669   4.567   0.846 -0.3480 -0.6877 -0.1777
  550MOL0     C74178   5.707   4.693   0.916  0.8035  0.8768 -0.7801
  550MOL0     C74179   5.729   4.807   0.967 -0.7643  1.0610 -0.1599
  550MOL0     C74180   5.089   4.385   0.788 -0.1044 -0.5928  0.3457
  550MOL0     C74181   4.948   4.393   0.762 -1.0635 -0.3507  0.4044
  550MOL0     C74182   4.858   4.403   0.879  0.3148 -0.5582  0.1485
  550MOL0     H74183   4.521   4.554   0.427  1.0478  0.9172 -1.0393
  550MOL0     H74184   4.300   4.494   0.339 -0.0904  0.4526 -2.2754
  550MOL0     H74185   4.199   4.105   0.434  2.4855 -0.2691 -0.8186
  550MOL0     H74186   4.135   4.272   0.467 -0.8599 -2.3221  1.5761
  550MOL0     H74187   4.048   4.101   0.238  1.9598 -0.0573  1.1425
  550MOL0     H74188   3.958   4.239   0.325 -0.9217  0.6788  2.1689
  550MOL0     H74189   3.970   4.068   0.532 -0.6516  0.9250  1.1757
  550MOL0     H74190   4.017   3.952   0.414 -3.3375 -2.0142  0.6088
  550MOL0     H74191   3.756   4.110   0.410  1.0693  1.1694 -1.2446
  550MOL0     H74192   3.804   4.006   0.285 -0.3530 -0.8579  0.9413
  550MOL0     H74193   3.821   3.816   0.464  1.7647  2.0145  1.7240
  550MOL0     H74194   3.751   3.925   0.576  0.3153  0.0864 -0.1441
  550MOL0     H74195   3.544   3.916   0.455 -0.9812 -0.6904 -0.2645
  550MOL0     H74196   3.629   3.872   0.303  1.2276  1.7415  0.3980
  550MOL0     H74197   3.671   3.647   0.391  1.9658  1.0323  1.8045
  550MOL0     H74198   3.506   3.680   0.382  1.2195  0.0422 -2.1093
  550MOL0     H74199   3.512   3.570   0.573 -1.3800  0.6706 -2.7562
  550MOL0     H74200   3.671   3.630   0.635 -0.9943 -0.8755  0.3945
  550MOL0     H74201   3.637   3.853   0.824 -0.2696 -0.7444  1.6092
  550MOL0     H74202   3.336   3.922   1.021 -1.5359  1.7979 -0.9454
  550MOL0     H74203   3.501   3.919   1.028  0.3401  1.0057 -0.2626
  550MOL0     H74204   3.524   4.126   0.886  0.8378  0.6236  1.1863
  550MOL0     H74205   3.346   4.125   0.880 -1.7598 -2.0027  1.5330
  550MOL0     H74206   3.534   4.138   1.127  1.3589  0.2938 -1.5018
  550MOL0     H74207   3.363   4.171   1.146  0.8356 -1.6894  0.6952
  550MOL0     H74208   3.438   4.377   1.144 -0.5326 -2.1035  0.7944
  550MOL0     H74209   3.370   4.358   0.983 -0.5571  2.8604  1.5771
  550MOL0     H74210   3.583   4.593   1.117 -0.8673 -0.0106 -1.2012
  550MOL0     H74211   3.752   4.659   1.268  0.7084 -0.3733 -0.7719
  550MOL0     H74212   4.253   4.583   1.385 -2.1145 -1.5734 -0.1978
  550MOL0     H74213   4.389   4.643   1.581 -0.5322 -2.3968 -2.5649
  550MOL0     H74214   4.470   4.718   1.793 -1.9978 -0.5673 -0.9075
  550MOL0     H74215   4.486   4.880   1.702  0.0555  0.9241 -0.1350
  550MOL0     H74216   4.450   4.846   2.006  1.1921 -1.2097  0.8216
  550MOL0     H74217   4.601   4.874   1.927  0.9522 -0.3601 -4.4545
  550MOL0     H74218   4.372   5.074   1.933  0.5019  2.1135 -0.4625
  550MOL0     H74219   4.543   5.074   1.997  3.4928 -0.6938 -1.7921
  550MOL0     H74220   4.462   5.089   1.694 -1.5793 -0.1318  0.2895
  550MOL0     H74221   4.628   5.096   1.770 -0.1662  0.3193  2.5895
  550MOL0     H74222   4.402   5.298   1.827  0.3402  0.8866 -0.7395
  550MOL0     H74223   4.521   5.323   1.722 -3.4299  1.5487 -0.9713
  550MOL0     H74224   4.542   5.319   2.022 -1.3644  0.0383 -0.1620
  550MOL0     H74225   4.672   5.228   1.934 -0.4295 -0.0126 -1.4168
  550MOL0     H74226   4.728   5.475   1.997  1.5373  1.9353 -0.9488
  550MOL0     H74227   4.606   5.530   1.886 -0.6201 -0.0941  1.0271
  550MOL0     H74228   4.735   5.438   1.696  1.7618  3.4859 -2.1513
  550MOL0     H74229   4.789   5.570   1.774 -0.0864 -0.2164  2.0706
  550MOL0     H74230   4.066   4.902   1.727 -1.9093  1.3409 -0.9424
  550MOL0     H74231   3.926   4.822   1.530  0.0657  0.9629 -0.5409
  550MOL0     H74232   3.957   4.284   1.201 -0.3478  0.6044 -1.0072
  550MOL0     H74233   3.768   4.239   1.013 -0.8427  0.1969 -1.0850
  550MOL0     H74234   4.413   4.081   0.335  3.7137 -1.2746  0.8275
  550MOL0     H74235   4.647   4.147   0.421 -1.9737 -1.4840  1.7913
  550MOL0     H74236   4.974   4.390   0.430  0.0207 -1.5547 -0.1679
  550MOL0     H74237   5.210   4.392   0.468  3.2696 -0.7779  2.4751
  550MOL0     H74238   5.343   4.247   0.875 -2.0466  0.7568  0.6356
  550MOL0     H74239   5.333   4.410   0.936  0.3090 -0.2215  0.2269
  550MOL0     H74240   5.558   4.319   0.764  1.0808  1.5620 -0.8255
  550MOL0     H74241   5.571   4.348   0.938  2.1308  1.5262 -0.3334
  550MOL0     H74242   5.469   4.612   0.876  1.7682  3.5348 -2.6009
  550MOL0     H74243   5.507   4.556   0.717 -4.2093 -0.1620  1.2891
  550MOL0     H74244   5.715   4.490   0.909 -0.9601 -1.7598 -1.0041
  550MOL0     H74245   5.718   4.561   0.748 -2.2973  0.0271 -1.2377
  550MOL0     H74246   5.748   4.902   1.013  1.4161  1.6092 -2.0047
  550MOL0     H74247   5.121   4.390   0.892  0.6530 -2.2281  0.2097
  550MOL0     H74248   4.913   4.394   0.974  3.7154 -3.8913 -1.8313
  550MOL0     H74249   4.805   4.499   0.875  0.6981 -0.3797 -2.4545
  550MOL0     H74250   4.788   4.321   0.862 -0.1424 -0.1063 -0.1745
  551MOL0     O74251   7.271   2.100   9.029  0.0158  0.0590 -0.3050
  551MOL0     C74252   7.332   1.990   9.021  0.1146  0.3386 -0.2996
  551MOL0     O74253   7.290   1.876   8.962  0.4582 -0.1962 -0.1868
  551MOL0     C74254   7.159   1.878   8.928  0.3875  0.3372 -0.4433
  551MOL0     C74255   7.083   1.771   8.978 -1.0326  0.4163 -0.3448
  551MOL0     C74256   6.953   1.761   8.934 -0.3770  0.0959 -0.7590
  551MOL0     C74257   6.887   1.858   8.857  0.7895  0.9486 -0.5444
  551MOL0     O74258   6.753   1.839   8.852  0.6038 -0.4682 -0.0844
  551MOL0     C74259   6.686   1.944   8.780 -0.7764  0.7123 -0.3128
  551MOL0     C74260   6.704   1.915   8.631  0.2517  0.3871 -0.4524
  551MOL0     C74261   6.604   1.975   8.543  0.0043  0.0214  0.6015
  551MOL0     C74262   6.580   2.130   8.550  0.1537  0.8403  0.6813
  551MOL0     C74263   6.450   2.170   8.475  0.2212  0.9320  0.2443
  551MOL0     C74264   6.443   2.316   8.448  0.2237 -0.8797 -0.0307
  551MOL0     C74265   6.303   2.376   8.454  0.1797 -0.7744 -0.2699
  551MOL0     C74266   6.271   2.427   8.596  0.4406 -0.2897  0.0367
  551MOL0     N74267   6.270   2.333   8.704  0.1343  0.6858 -0.2927
  551MOL0     C74268   6.189   2.222   8.730 -0.3188 -0.5733  0.1503
  551MOL0     C74269   6.226   2.185   8.852  1.0306 -0.9508 -0.1146
  551MOL0     C74270   6.171   2.068   8.926  0.1335 -0.1588 -0.6314
  551MOL0     C74271   6.273   1.948   8.950  0.1028 -0.8584 -0.2425
  551MOL0     C74272   6.294   1.850   8.831  0.2486  0.2479 -0.3139
  551MOL0     C74273   6.391   1.742   8.878 -0.0870 -0.1513  0.0380
  551MOL0     O74274   6.390   1.625   8.796  0.3132  0.0083 -1.3129
  551MOL0     C74275   6.493   1.531   8.810  0.3487 -0.1267  0.0973
  551MOL0     C74276   6.609   1.540   8.891  0.3613  0.1423 -0.1712
  551MOL0     C74277   6.696   1.424   8.898  0.0792 -0.0148  0.9318
  551MOL0     C74278   6.668   1.304   8.834  1.2376  0.3880  0.2970
  551MOL0     C74279   6.750   1.191   8.851 -0.0547 -0.6426  0.1108
  551MOL0     O74280   6.692   1.068   8.811  0.0982  0.4349  0.5500
  551MOL0     C74281   6.766   0.952   8.845 -0.4564 -0.6976  0.2190
  551MOL0     C74282   6.760   0.911   8.978  0.2225  0.5061  0.1583
  551MOL0     C74283   6.836   0.803   9.017  0.8957 -0.1938 -1.2923
  551MOL0     C74284   6.915   0.732   8.934  0.3042  1.1593  0.5840
  551MOL0     O74285   6.981   0.622   8.968  0.2870  0.2148 -0.6141
  551MOL0     C74286   6.909   0.522   9.045 -0.3188  0.1762  0.6790
  551MOL0     C74287   6.976   0.515   9.179  0.2631  0.9842  0.3926
  551MOL0     C74288   7.126   0.488   9.177 -0.7716 -0.3085  0.1206
  551MOL0     C74289   7.194   0.498   9.313  1.2127  1.0007 -0.2889
  551MOL0     C74290   7.328   0.423   9.319 -0.4340  0.0991 -0.2110
  551MOL0     C74291   7.388   0.425   9.455  0.1157 -0.3981 -1.2456
  551MOL0     C74292   7.299   0.360   9.562 -0.1629 -0.3151  0.5821
  551MOL0     C74293   7.378   0.252   9.646 -0.5061 -0.1828 -0.3133
  551MOL0    Cl74294   7.256   0.183   9.752  0.2429 -0.0454  0.2382
  551MOL0     C74295   6.925   0.774   8.794 -0.5928 -0.2780 -1.2521
  551MOL0     C74296   6.861   0.891   8.759 -0.7828  1.3580 -0.2738
  551MOL0     O74297   6.859   1.209   8.912  0.9792  0.6061  1.1549
  551MOL0     C74298   6.542   1.293   8.767 -0.3065 -0.5526 -0.3454
  551MOL0     C74299   6.457   1.405   8.762 -0.3595  0.6227 -0.1347
  551MOL0     N74300   6.334   2.262   8.895  0.1055 -0.1570  0.5296
  551MOL0     N74301   6.369   2.345   8.799  0.2651 -0.4655 -0.5628
  551MOL0     C74302   6.969   1.961   8.796  0.0593  0.2342 -0.0994
  551MOL0     C74303   7.103   1.966   8.834  0.4625  0.2005  0.4031
  551MOL0     C74304   7.468   1.973   9.088  0.0343 -1.5309 -0.1083
  551MOL0     C74305   7.521   1.844   9.101  0.6570 -0.2114  0.1365
  551MOL0     C74306   7.635   1.817   9.162 -0.5654  0.8424  0.4738
  551MOL0     C74307   7.714   1.910   9.217  0.1051 -0.3243  0.4701
  551MOL0     O74308   7.822   1.880   9.295 -0.3331  0.2133 -0.4346
  551MOL0     C74309   7.792   1.788   9.404 -0.3545  0.0187  0.1720
  551MOL0     C74310   7.869   1.826   9.521 -0.7241  0.3621  0.3421
  551MOL0     C74311   7.829   1.964   9.579  0.7659 -0.4168 -1.2689
  551MOL0     C74312   7.902   1.984   9.712  0.4585 -0.4883 -0.3035
  551MOL0     C74313   7.820   1.940   9.819 -0.0817  0.1135 -0.7651
  551MOL0     C74314   7.754   1.920   9.917  0.0604  0.0630 -0.3504
  551MOL0     C74315   7.668   2.039   9.218  0.4172 -0.2830 -0.5876
  551MOL0     C74316   7.555   2.074   9.151 -0.0821 -0.5790  0.4063
  551MOL0     C74317   7.532   2.216   9.133  0.0223  0.0929  0.0917
  551MOL0     H74318   7.109   1.700   9.056 -2.0483  1.0900  0.6304
  551MOL0     H74319   6.901   1.673   8.969  0.5163 -0.4721 -0.8408
  551MOL0     H74320   6.581   1.948   8.812 -0.2673  2.8439  1.3550
  551MOL0     H74321   6.726   2.044   8.802 -0.0812  0.1668  1.0027
  551MOL0     H74322   6.720   1.809   8.609 -3.2127 -0.0653 -1.3513
  551MOL0     H74323   6.798   1.960   8.596  1.6231 -0.6067  1.6903
  551MOL0     H74324   6.508   1.923   8.555 -1.5132  2.3727 -0.5927
  551MOL0     H74325   6.629   1.952   8.440  1.3210 -1.2542  1.1677
  551MOL0     H74326   6.567   2.170   8.651 -0.1449  0.9462  0.6014
  551MOL0     H74327   6.672   2.176   8.512  1.2356  0.7046  2.9861
  551MOL0     H74328   6.432   2.111   8.384 -0.2217  3.4181 -1.3954
  551MOL0     H74329   6.374   2.146   8.550  1.5396  0.5691  1.5215
  551MOL0     H74330   6.516   2.369   8.511 -0.0778  0.1999 -0.5540
  551MOL0     H74331   6.490   2.333   8.351  1.5515  1.4722  0.9185
  551MOL0     H74332   6.233   2.302   8.412  0.2234 -1.4246  0.7485
  551MOL0     H74333   6.301   2.457   8.381 -2.3937  1.4882  2.0722
  551MOL0     H74334   6.334   2.515   8.603  0.0337  0.1278 -1.2088
  551MOL0     H74335   6.169   2.468   8.597  1.0622  2.1281 -4.7043
  551MOL0     H74336   6.112   2.173   8.671 -1.7360  0.6196  0.9501
  551MOL0     H74337   6.140   2.111   9.022  2.3764  1.2882 -0.4686
  551MOL0     H74338   6.083   2.043   8.866  0.7215 -0.5739 -1.3345
  551MOL0     H74339   6.369   1.979   8.990  0.4544 -0.2180 -1.5173
  551MOL0     H74340   6.227   1.886   9.028 -0.0954 -0.5413 -0.1044
  551MOL0     H74341   6.336   1.886   8.736  1.7091 -2.4647 -0.8009
  551MOL0     H74342   6.200   1.806   8.797 -0.4028 -2.5969  4.3674
  551MOL0     H74343   6.366   1.700   8.976  1.1889 -3.0959 -0.7902
  551MOL0     H74344   6.487   1.794   8.879  0.6255 -1.4049  0.0576
  551MOL0     H74345   6.633   1.632   8.942  0.1048 -0.3758  0.9122
  551MOL0     H74346   6.783   1.441   8.960 -0.9591 -0.0079  2.4467
  551MOL0     H74347   6.695   0.959   9.050 -1.4066  0.8915 -1.4833
  551MOL0     H74348   6.823   0.774   9.121 -4.4686  1.8264 -1.0946
  551MOL0     H74349   6.800   0.527   9.046 -0.8013 -5.0976 -0.2395
  551MOL0     H74350   6.925   0.436   8.980 -1.8183  2.3464 -2.9054
  551MOL0     H74351   6.967   0.616   9.221  3.4847  1.3729  0.4304
  551MOL0     H74352   6.915   0.449   9.242 -0.2585 -0.0032 -1.0913
  551MOL0     H74353   7.137   0.383   9.147  1.0552 -0.5533  1.4981
  551MOL0     H74354   7.169   0.552   9.100  0.7493 -1.5105 -0.0599
  551MOL0     H74355   7.123   0.450   9.381  1.5436 -0.1093 -0.7077
  551MOL0     H74356   7.202   0.604   9.340 -0.0968  0.6966  1.4840
  551MOL0     H74357   7.396   0.479   9.255  0.4923 -2.2336 -1.3702
  551MOL0     H74358   7.318   0.321   9.282 -0.0997  0.7091 -2.0706
  551MOL0     H74359   7.488   0.380   9.453 -0.1778 -1.0342 -1.9657
  551MOL0     H74360   7.411   0.528   9.487  0.1595 -1.1869  1.5129
  551MOL0     H74361   7.219   0.308   9.508  0.9672  0.6761 -2.2240
  551MOL0     H74362   7.247   0.433   9.624  1.4492  0.9038  0.5693
  551MOL0     H74363   7.423   0.179   9.578  2.2917  1.0281  0.0876
  551MOL0     H74364   7.462   0.294   9.703 -0.2504 -1.5493  0.3778
  551MOL0     H74365   6.996   0.731   8.725  1.7620 -0.5644  1.2013
  551MOL0     H74366   6.871   0.921   8.655 -1.5139 -0.8055 -1.0270
  551MOL0     H74367   6.497   1.203   8.725 -2.2257 -0.6118  1.6666
  551MOL0     H74368   6.365   1.395   8.706 -0.7854 -1.7992  0.8822
  551MOL0     H74369   6.938   2.048   8.737 -0.0668  0.3377  0.1186
  551MOL0     H74370   7.167   2.036   8.782 -0.4859  0.3823 -0.5460
  551MOL0     H74371   7.467   1.764   9.050  0.1805  1.0845 -1.5143
  551MOL0     H74372   7.674   1.716   9.171 -1.7292  0.1597 -1.5686
  551MOL0     H74373   7.829   1.690   9.374  0.2813  0.8218 -1.8731
  551MOL0     H74374   7.685   1.785   9.427 -0.8103 -2.7681 -1.7624
  551MOL0     H74375   7.976   1.834   9.500 -0.6991 -0.2267  0.2438
  551MOL0     H74376   7.853   1.744   9.592  1.1471  1.2082  1.8531
  551MOL0     H74377   7.723   1.977   9.598  0.9755 -1.9015  1.2376
  551MOL0     H74378   7.860   2.040   9.506 -0.2748  0.0017 -1.2835
  551MOL0     H74379   7.996   1.928   9.710  0.0130 -1.2572 -2.7517
  551MOL0     H74380   7.918   2.092   9.724 -1.2472 -0.3388  0.9815
  551MOL0     H74381   7.686   1.912   9.999  1.6016  0.6244  1.0337
  551MOL0     H74382   7.732   2.113   9.265 -2.3892  2.0711 -0.1066
  551MOL0     H74383   7.582   2.254   9.044 -1.8737  2.5704 -0.0186
  551MOL0     H74384   7.431   2.252   9.113  1.2165  3.4205 -0.5548
  551MOL0     H74385   7.561   2.272   9.223 -1.0360  1.0504 -0.1482
  552MOL0     O74386   4.227   7.352   4.079 -0.1239  0.3748  0.6089
  552MOL0     C74387   4.255   7.233   4.073 -0.0241 -0.4479 -1.0007
  552MOL0     O74388   4.372   7.179   4.016 -0.1869 -0.2486  0.3012
  552MOL0     C74389   4.492   7.251   3.994 -0.0941  0.0621  0.1919
  552MOL0     C74390   4.587   7.187   3.928 -0.2731 -0.2987 -0.0200
  552MOL0     C74391   4.716   7.249   3.914  0.6293  0.3354 -0.5633
  552MOL0     C74392   4.746   7.378   3.969 -0.2899  0.7465 -0.1677
  552MOL0     O74393   4.872   7.438   3.965  0.3473  0.7389  0.0455
  552MOL0     C74394   4.964   7.386   3.870 -0.3018  0.3976  1.0591
  552MOL0     C74395   5.108   7.443   3.883  0.3004 -0.2818  0.1726
  552MOL0     C74396   5.112   7.578   3.817  0.3148 -0.3449  0.0204
  552MOL0     C74397   5.250   7.651   3.826 -0.1683 -0.0159 -0.3880
  552MOL0     C74398   5.357   7.578   3.740 -0.1299 -0.6150  0.7666
  552MOL0     C74399   5.506   7.643   3.742  1.0297 -0.3494 -1.1191
  552MOL0     C74400   5.513   7.801   3.737 -0.6163  0.7746  0.0755
  552MOL0     C74401   5.657   7.852   3.734  0.1474 -0.4341 -0.0701
  552MOL0     N74402   5.716   7.812   3.612  0.1485 -0.3345  0.1618
  552MOL0     C74403   5.668   7.833   3.487  0.7666 -0.4424  0.0900
  552MOL0     C74404   5.733   7.758   3.403 -0.2269  0.4741 -0.0548
  552MOL0     C74405   5.711   7.766   3.258 -0.0814  0.0738  0.1536
  552MOL0     C74406   5.592   7.669   3.204  0.6041 -0.2664 -0.2096
  552MOL0     C74407   5.572   7.539   3.281  0.1047 -0.1704  0.5249
  552MOL0     C74408   5.500   7.436   3.198 -1.4688 -0.4567 -0.7068
  552MOL0     O74409   5.512   7.311   3.270 -0.5722 -0.0920 -0.7430
  552MOL0     C74410   5.416   7.292   3.360 -0.4289 -0.3310 -0.5276
  552MOL0     C74411   5.293   7.364   3.380  0.0390 -0.7622  0.7736
  552MOL0     C74412   5.187   7.313   3.462  0.6689 -0.3423  0.9217
  552MOL0     C74413   5.214   7.200   3.542  0.5511 -0.7362  0.2023
  552MOL0     C74414   5.119   7.148   3.640  0.6699  0.4703  0.0690
  552MOL0     O74415   5.161   7.056   3.732 -0.5491 -0.1800  0.6587
  552MOL0     C74416   5.066   6.997   3.810 -0.2257  0.3183 -0.0546
  552MOL0     C74417   5.093   6.981   3.941 -0.7500  0.1856 -0.4726
  552MOL0     C74418   4.998   6.921   4.033  0.0344  0.6784  0.8119
  552MOL0     C74419   4.879   6.858   3.981 -0.5792  0.1454  0.0454
  552MOL0     O74420   4.792   6.778   4.057 -0.1976  0.2535 -0.2607
  552MOL0     C74421   4.716   6.835   4.160  0.3579  0.5525 -0.1835
  552MOL0     C74422   4.674   6.975   4.137 -0.7291 -0.2799 -0.0167
  552MOL0     C74423   4.605   7.036   4.261 -0.4352  0.3533  0.7869
  552MOL0     C74424   4.498   6.947   4.325 -0.3593 -0.1610  0.7958
  552MOL0     C74425   4.443   7.026   4.440 -0.2356 -0.1770 -0.4817
  552MOL0     C74426   4.322   6.952   4.505  0.1149  0.7660 -0.8570
  552MOL0     C74427   4.266   7.047   4.616 -0.7989  0.2197  0.2833
  552MOL0     C74428   4.135   6.988   4.682  0.3282  0.5429 -1.0637
  552MOL0    Cl74429   4.171   6.863   4.801  0.3900  0.5799  0.3341
  552MOL0     C74430   4.848   6.882   3.846  0.7211 -0.3445 -0.5047
  552MOL0     C74431   4.944   6.950   3.760 -0.2521 -0.2541  0.3768
  552MOL0     O74432   5.004   7.190   3.630 -0.0228  0.1472  1.0089
  552MOL0     C74433   5.335   7.133   3.521  0.6636 -0.1293 -1.0712
  552MOL0     C74434   5.434   7.178   3.445 -0.2469 -0.4987 -0.1046
  552MOL0     N74435   5.840   7.702   3.476 -0.3660 -0.8701 -0.8047
  552MOL0     N74436   5.822   7.738   3.604 -0.1161  0.2016  0.2689
  552MOL0     C74437   4.639   7.446   4.025 -0.0169 -0.2073 -0.5488
  552MOL0     C74438   4.514   7.385   4.034  0.0179 -0.7214 -0.0580
  552MOL0     C74439   4.142   7.144   4.101  0.2990  0.6838  0.1224
  552MOL0     C74440   4.130   7.030   4.010 -0.3237  0.3264 -0.2250
  552MOL0     C74441   4.036   6.923   4.038  0.3208  0.4757  1.0364
  552MOL0     C74442   3.945   6.939   4.146  0.4702  0.7310 -0.4394
  552MOL0     O74443   3.841   6.854   4.171 -0.0862  0.0806  0.4524
  552MOL0     C74444   3.865   6.717   4.132 -0.4927 -0.5944 -0.5077
  552MOL0     C74445   3.748   6.625   4.172 -0.2438  0.2605  1.2922
  552MOL0     C74446   3.625   6.663   4.106  0.3669 -0.2556  0.0578
  552MOL0     C74447   3.513   6.698   4.206 -0.8195  0.7556  0.5209
  552MOL0     C74448   3.485   6.572   4.277  0.4512  0.2664  1.1822
  552MOL0     C74449   3.479   6.476   4.354 -0.0806  0.0478  0.5472
  552MOL0     C74450   3.950   7.060   4.222 -1.0408 -0.2273 -0.0276
  552MOL0     C74451   4.055   7.152   4.208  0.6366  0.5710  0.2230
  552MOL0     C74452   4.053   7.273   4.303 -0.2711  0.1959 -1.1127
  552MOL0     H74453   4.590   7.087   3.886  2.5763  0.7381 -2.6245
  552MOL0     H74454   4.789   7.198   3.852  0.7387  1.0387 -1.0185
  552MOL0     H74455   4.975   7.277   3.875  3.2732  0.3786 -2.5588
  552MOL0     H74456   4.917   7.400   3.773 -2.4450 -0.6094  1.8780
  552MOL0     H74457   5.187   7.382   3.839  0.4467 -1.6125  2.1451
  552MOL0     H74458   5.139   7.455   3.987  2.4491  0.5160 -0.5292
  552MOL0     H74459   5.042   7.641   3.874 -0.6244 -0.0202 -1.4358
  552MOL0     H74460   5.083   7.563   3.713  0.3646  0.4451 -0.1149
  552MOL0     H74461   5.243   7.758   3.805  1.1959  0.4445  1.2043
  552MOL0     H74462   5.292   7.638   3.927 -1.2193  1.6782  0.3115
  552MOL0     H74463   5.375   7.475   3.773 -0.2461 -1.3337 -1.3172
  552MOL0     H74464   5.319   7.578   3.638  0.5106 -1.6148  0.5184
  552MOL0     H74465   5.552   7.630   3.841  1.0036  1.9033 -0.7518
  552MOL0     H74466   5.557   7.592   3.660  0.9909 -1.6858 -0.3432
  552MOL0     H74467   5.467   7.848   3.824  0.2899  0.1412  0.9219
  552MOL0     H74468   5.464   7.837   3.646  0.5012  0.3353 -0.7291
  552MOL0     H74469   5.655   7.962   3.736 -3.2343 -0.3888 -1.0689
  552MOL0     H74470   5.727   7.817   3.810 -0.4865 -2.0448 -0.1889
  552MOL0     H74471   5.580   7.893   3.465 -2.3618 -2.7982  4.4997
  552MOL0     H74472   5.707   7.873   3.237  0.9430  0.1593  0.3437
  552MOL0     H74473   5.805   7.738   3.209  0.6530 -0.0310  1.5712
  552MOL0     H74474   5.499   7.725   3.222  0.1980 -1.3089  1.1202
  552MOL0     H74475   5.601   7.644   3.098  2.1316 -1.0181  0.0796
  552MOL0     H74476   5.507   7.563   3.366 -0.0304  2.7211 -0.3001
  552MOL0     H74477   5.665   7.499   3.323  0.9607  1.8817  0.6853
  552MOL0     H74478   5.561   7.422   3.108  0.6361  0.0298  0.5802
  552MOL0     H74479   5.399   7.465   3.168 -0.4302  1.7356 -2.3252
  552MOL0     H74480   5.284   7.466   3.345 -0.9765 -1.2388 -0.4142
  552MOL0     H74481   5.099   7.377   3.469  2.9882  3.2010  0.3037
  552MOL0     H74482   5.181   7.020   3.990 -1.4962 -0.5482  1.5621
  552MOL0     H74483   5.012   6.914   4.140 -1.8116  0.6050  1.0873
  552MOL0     H74484   4.634   6.764   4.174  1.4510 -1.4661 -3.0233
  552MOL0     H74485   4.776   6.826   4.251 -1.4339  2.0002  1.2137
  552MOL0     H74486   4.754   7.044   4.107 -1.1608 -0.5105 -1.8236
  552MOL0     H74487   4.600   6.971   4.057 -0.8344 -0.8993  0.1064
  552MOL0     H74488   4.681   7.059   4.336 -1.5445  0.3282  1.9499
  552MOL0     H74489   4.562   7.130   4.227  0.5867  0.3405 -0.6316
  552MOL0     H74490   4.545   6.856   4.362 -0.7697 -0.3325  0.8877
  552MOL0     H74491   4.411   6.933   4.261 -3.1054  2.3684  3.6494
  552MOL0     H74492   4.406   7.125   4.412  1.2452 -0.2965 -3.2049
  552MOL0     H74493   4.522   7.044   4.514  0.1353  0.7509 -1.0843
  552MOL0     H74494   4.244   6.944   4.428 -1.9338  1.8462  0.9852
  552MOL0     H74495   4.341   6.851   4.541  4.2073  1.5226 -0.4249
  552MOL0     H74496   4.247   7.140   4.562 -0.3628 -1.0063 -2.0956
  552MOL0     H74497   4.336   7.072   4.697  0.4879 -0.2637 -0.6462
  552MOL0     H74498   4.079   7.069   4.730  3.0816  2.7971 -1.3263
  552MOL0     H74499   4.064   6.946   4.610 -0.6493  0.7771 -0.2561
  552MOL0     H74500   4.758   6.844   3.799  1.3556  0.6951 -2.7052
  552MOL0     H74501   4.903   6.971   3.662 -3.9008  1.1364  2.0181
  552MOL0     H74502   5.363   7.051   3.587  2.0724 -0.7372 -2.3656
  552MOL0     H74503   5.531   7.129   3.446 -1.4117 -2.9786 -0.8491
  552MOL0     H74504   4.642   7.546   4.065  0.1729 -1.5799  3.2958
  552MOL0     H74505   4.432   7.439   4.080  0.6379  0.4171 -0.2517
  552MOL0     H74506   4.200   7.007   3.931 -0.8665  1.0975 -0.9445
  552MOL0     H74507   4.041   6.835   3.974 -1.1118  1.7469 -0.9208
  552MOL0     H74508   3.951   6.671   4.181  0.3402 -0.5045 -1.8443
  552MOL0     H74509   3.884   6.708   4.025  1.6975 -0.6705 -0.1667
  552MOL0     H74510   3.744   6.627   4.282  3.5986  2.6166  1.5872
  552MOL0     H74511   3.769   6.527   4.129 -0.0793  1.7609 -2.3809
  552MOL0     H74512   3.582   6.586   4.042 -0.5351  0.2001  0.1014
  552MOL0     H74513   3.642   6.757   4.053  0.1057  2.0071  3.6279
  552MOL0     H74514   3.545   6.774   4.277  0.3410 -0.3948  1.2717
  552MOL0     H74515   3.422   6.728   4.151 -3.6675 -1.0971  3.8250
  552MOL0     H74516   3.450   6.392   4.414  1.5473  0.3416  1.8213
  552MOL0     H74517   3.871   7.072   4.295 -2.2373  1.6946 -1.5316
  552MOL0     H74518   4.149   7.325   4.306 -0.7152  1.0077 -0.4513
  552MOL0     H74519   3.977   7.340   4.261  1.2379  1.7926 -1.4095
  552MOL0     H74520   4.019   7.244   4.403 -0.7950 -3.6803 -2.2463
  553MOL0     O74521   4.662   7.769   3.347 -0.3865  0.2713  0.5718
  553MOL0     C74522   4.662   7.717   3.461  0.3389  0.6231  0.3434
  553MOL0     O74523   4.780   7.685   3.532  0.6650 -0.0721 -0.5952
  553MOL0     C74524   4.895   7.678   3.447  0.9539  0.4445  0.4575
  553MOL0     C74525   4.970   7.788   3.432 -0.3355 -0.1316 -0.9634
  553MOL0     C74526   5.080   7.784   3.348  0.0140  1.0708  0.5176
  553MOL0     C74527   5.100   7.670   3.264 -0.3925 -0.0827  0.2265
  553MOL0     O74528   5.194   7.671   3.161  0.1321 -0.0693 -0.8720
  553MOL0     C74529   5.165   7.603   3.037  0.4351 -0.1456  0.3464
  553MOL0     C74530   5.254   7.666   2.926  0.4602 -0.4856 -0.1424
  553MOL0     C74531   5.195   7.608   2.795  0.5484 -0.1637  0.7230
  553MOL0     C74532   5.254   7.672   2.670  0.5770 -0.0611 -0.2446
  553MOL0     C74533   5.258   7.580   2.546  0.0065  1.0328  0.4682
  553MOL0     C74534   5.351   7.637   2.438 -0.5316 -0.3035  1.2160
  553MOL0     C74535   5.295   7.765   2.383  0.1247 -1.0505 -0.7075
  553MOL0     C74536   5.358   7.819   2.250  0.0839  0.9164  0.1084
  553MOL0     N74537   5.506   7.818   2.264 -0.1368  0.6583 -0.3773
  553MOL0     C74538   5.583   7.889   2.353  0.5567 -0.7214  0.0025
  553MOL0     C74539   5.708   7.877   2.304 -0.1309  0.6544 -0.1439
  553MOL0     C74540   5.838   7.933   2.355  0.0331 -0.0547 -0.5075
  553MOL0     C74541   5.913   7.843   2.452  0.1820 -0.0516  1.2078
  553MOL0     C74542   6.042   7.907   2.514  0.3978 -0.8302  0.3715
  553MOL0     C74543   6.114   7.823   2.612 -0.8867  0.9346 -0.4339
  553MOL0     O74544   6.248   7.813   2.563 -0.1741 -0.4447 -0.2511
  553MOL0     C74545   6.339   7.742   2.636 -0.5076 -0.0965 -0.0159
  553MOL0     C74546   6.326   7.680   2.760 -0.0642 -0.3416  1.0330
  553MOL0     C74547   6.423   7.604   2.818  0.7373 -0.1866  0.2843
  553MOL0     C74548   6.545   7.594   2.759  0.1402 -0.9739  0.6681
  553MOL0     C74549   6.661   7.546   2.843 -0.5803  0.0344 -0.1714
  553MOL0     O74550   6.633   7.444   2.933  1.1086 -0.2412  0.1568
  553MOL0     C74551   6.735   7.379   3.008 -0.3794  0.6377 -0.0745
  553MOL0     C74552   6.707   7.264   3.075  0.9408  0.6379 -0.3770
  553MOL0     C74553   6.802   7.191   3.149  0.1573 -0.3802 -0.1308
  553MOL0     C74554   6.934   7.227   3.157 -1.1600  0.7371  0.4192
  553MOL0     O74555   7.033   7.171   3.228 -0.5588  0.1245  0.1575
  553MOL0     C74556   7.039   7.030   3.209 -0.7334  0.6134  0.7470
  553MOL0     C74557   7.139   6.969   3.310 -0.6106 -0.1560 -0.4375
  553MOL0     C74558   7.268   7.053   3.332  0.0636  1.0446 -0.1304
  553MOL0     C74559   7.367   6.938   3.380  0.0007  0.5437 -0.2649
  553MOL0     C74560   7.494   7.014   3.440 -0.2554  0.2054  0.6422
  553MOL0     C74561   7.581   6.911   3.514 -0.1899  0.0731 -0.0207
  553MOL0     C74562   7.519   6.815   3.626 -0.4898 -0.5549  0.6870
  553MOL0     C74563   7.471   6.888   3.743  0.0718  0.0075  0.3376
  553MOL0    Cl74564   7.597   6.996   3.812  0.0236  0.0307 -0.2540
  553MOL0     C74565   6.960   7.356   3.112 -1.0618  0.0218 -0.0072
  553MOL0     C74566   6.867   7.434   3.041 -0.0354 -0.1403  0.4659
  553MOL0     O74567   6.774   7.584   2.808 -0.4573  0.2244  0.5109
  553MOL0     C74568   6.570   7.658   2.636 -0.0096  0.1345  0.1283
  553MOL0     C74569   6.461   7.726   2.569 -0.4538 -0.3907  0.3217
  553MOL0     N74570   5.702   7.780   2.205  0.0320 -0.2901 -1.1543
  553MOL0     N74571   5.585   7.738   2.188 -0.2501 -0.5561  0.3726
  553MOL0     C74572   5.009   7.562   3.268 -0.4527  0.3729  0.0197
  553MOL0     C74573   4.914   7.560   3.371  0.5279  0.2585  0.2944
  553MOL0     C74574   4.533   7.666   3.505 -0.0091  0.4107 -0.0960
  553MOL0     C74575   4.543   7.566   3.597  0.1544  0.2655 -0.4131
  553MOL0     C74576   4.429   7.508   3.649  0.7284  0.1969 -0.4561
  553MOL0     C74577   4.297   7.538   3.605  0.6587  0.6175  0.5219
  553MOL0     O74578   4.178   7.477   3.644  0.9411 -0.4045  0.1561
  553MOL0     C74579   4.174   7.367   3.732  0.2871 -0.1193 -0.7790
  553MOL0     C74580   4.041   7.328   3.799 -1.3323  0.2922  0.7007
  553MOL0     C74581   3.943   7.313   3.674  0.1186  0.5455  0.6470
  553MOL0     C74582   3.804   7.289   3.723  0.2066  0.0959 -0.2775
  553MOL0     C74583   3.791   7.163   3.795  1.1922 -0.8369  0.9466
  553MOL0     C74584   3.776   7.054   3.845  0.3228 -0.8195  0.5560
  553MOL0     C74585   4.291   7.645   3.524  0.2617  0.3384 -0.2263
  553MOL0     C74586   4.404   7.714   3.474  0.3315 -0.1063 -0.0456
  553MOL0     C74587   4.385   7.842   3.406  0.0591 -0.5606  0.0785
  553MOL0     H74588   4.947   7.876   3.490  1.7789 -1.1613  1.6427
  553MOL0     H74589   5.155   7.862   3.334 -1.0867  2.1485  0.5322
  553MOL0     H74590   5.201   7.500   3.047 -0.7210 -0.6392 -0.3098
  553MOL0     H74591   5.058   7.605   3.015  0.3605  0.2460  0.7368
  553MOL0     H74592   5.358   7.633   2.935  0.0566 -1.5004  0.9814
  553MOL0     H74593   5.261   7.775   2.929  5.5590 -0.5015 -1.7898
  553MOL0     H74594   5.086   7.622   2.789  0.7839  1.2112 -2.9197
  553MOL0     H74595   5.229   7.504   2.790 -0.7794 -0.5824 -2.0919
  553MOL0     H74596   5.195   7.762   2.652  1.4589  1.2366  2.7287
  553MOL0     H74597   5.359   7.694   2.691  0.4627  0.8633 -0.6041
  553MOL0     H74598   5.304   7.486   2.577  0.9713  0.2644 -2.8936
  553MOL0     H74599   5.155   7.574   2.511 -0.2255 -0.4166  1.3654
  553MOL0     H74600   5.457   7.648   2.463 -0.2881 -0.8088  0.4478
  553MOL0     H74601   5.350   7.567   2.354 -1.4470 -0.5621  1.4366
  553MOL0     H74602   5.299   7.840   2.463 -0.7602 -1.3715 -0.3406
  553MOL0     H74603   5.191   7.755   2.351 -0.1107  1.6480 -1.0035
  553MOL0     H74604   5.334   7.749   2.169 -4.3609  0.4444  1.5727
  553MOL0     H74605   5.332   7.922   2.226  0.8321  1.4030  1.3063
  553MOL0     H74606   5.563   7.958   2.434  0.2397 -1.0250  0.1819
  553MOL0     H74607   5.904   7.975   2.278  0.3218 -0.4323 -0.4696
  553MOL0     H74608   5.800   8.024   2.403 -0.8983 -0.7961  0.2030
  553MOL0     H74609   5.830   7.812   2.516 -2.6609  1.4085 -1.5140
  553MOL0     H74610   5.943   7.751   2.401  2.0262  1.1709 -0.0289
  553MOL0     H74611   6.008   7.992   2.575 -1.1545 -2.2368  1.5633
  553MOL0     H74612   6.109   7.929   2.431  0.6889 -2.8283  0.0526
  553MOL0     H74613   6.068   7.725   2.629  1.1637  0.0760  0.4413
  553MOL0     H74614   6.105   7.863   2.713 -0.8199 -1.8015  0.7385
  553MOL0     H74615   6.228   7.694   2.806 -1.7089 -4.2125 -0.8719
  553MOL0     H74616   6.398   7.558   2.913  0.1678  2.6651  1.6115
  553MOL0     H74617   6.612   7.214   3.060 -0.7929  4.1244 -2.3603
  553MOL0     H74618   6.782   7.089   3.180 -0.5605 -0.7430 -1.7463
  553MOL0     H74619   6.939   6.991   3.230 -0.6870 -0.2104 -0.4112
  553MOL0     H74620   7.061   7.002   3.105 -2.9505 -1.3602  0.7313
  553MOL0     H74621   7.095   6.951   3.408  1.4987  0.4103  0.6741
  553MOL0     H74622   7.171   6.874   3.265  1.4730  1.3990 -2.4746
  553MOL0     H74623   7.304   7.091   3.236 -2.6914  0.9252 -1.3154
  553MOL0     H74624   7.250   7.138   3.399  0.9327  1.1671 -0.0373
  553MOL0     H74625   7.393   6.891   3.285 -2.1679 -1.7463  0.1894
  553MOL0     H74626   7.321   6.866   3.448 -0.1345 -0.4829 -1.4224
  553MOL0     H74627   7.454   7.095   3.502  0.0723  1.1259 -0.3074
  553MOL0     H74628   7.538   7.057   3.350  0.8087 -0.9115  0.6094
  553MOL0     H74629   7.613   6.854   3.426 -1.5322  1.5760 -1.5662
  553MOL0     H74630   7.674   6.963   3.538  0.2196  0.7653 -2.7744
  553MOL0     H74631   7.599   6.747   3.656  0.4162  0.5363  0.8165
  553MOL0     H74632   7.441   6.751   3.584  1.1031 -2.2227  0.1607
  553MOL0     H74633   7.384   6.954   3.730 -0.6013 -0.0431  3.5915
  553MOL0     H74634   7.432   6.824   3.823 -1.3887  1.0123  0.4820
  553MOL0     H74635   7.050   7.409   3.142 -2.6116  1.8065  1.8756
  553MOL0     H74636   6.893   7.530   2.999  1.1063  0.0498  1.5496
  553MOL0     H74637   6.665   7.633   2.589 -0.2799 -1.2780  0.2853
  553MOL0     H74638   6.494   7.778   2.480 -0.5195 -2.1268 -0.7734
  553MOL0     H74639   5.015   7.471   3.208 -0.5395 -0.6474  1.4970
  553MOL0     H74640   4.842   7.483   3.396 -3.0718  2.1953 -2.8905
  553MOL0     H74641   4.635   7.535   3.647  0.6209  0.7263 -0.9759
  553MOL0     H74642   4.447   7.438   3.730  0.1130  0.9188  0.3169
  553MOL0     H74643   4.241   7.385   3.818 -1.8827 -1.1927  1.2424
  553MOL0     H74644   4.216   7.283   3.676 -1.1802  1.3597 -4.3585
  553MOL0     H74645   4.007   7.405   3.870  0.0201  1.9936 -0.3993
  553MOL0     H74646   4.049   7.233   3.853  0.5260 -0.5284 -0.8997
  553MOL0     H74647   3.977   7.235   3.606  1.1159  1.3488  0.1923
  553MOL0     H74648   3.934   7.399   3.607 -2.9759 -1.6490 -2.0610
  553MOL0     H74649   3.786   7.380   3.781  2.4586  1.1742 -1.1602
  553MOL0     H74650   3.734   7.303   3.641  0.7158  1.1594 -0.5410
  553MOL0     H74651   3.768   6.956   3.888  1.4076  0.1809  3.2821
  553MOL0     H74652   4.193   7.684   3.498  0.6461  1.2458 -0.3317
  553MOL0     H74653   4.448   7.920   3.449 -1.3263  0.6518 -0.0055
  553MOL0     H74654   4.414   7.825   3.302 -0.2581  1.3107 -0.3503
  553MOL0     H74655   4.284   7.880   3.425  0.3722  1.5429 -2.0610
  554MOL0     O74656   9.119   1.564   2.859  0.1926  0.3724 -0.4699
  554MOL0     C74657   9.232   1.593   2.833 -0.3085 -0.3941  0.7531
  554MOL0     O74658   9.327   1.645   2.923 -0.0073  0.2547 -0.0528
  554MOL0     C74659   9.284   1.654   3.053 -0.3213  0.1371 -0.7209
  554MOL0     C74660   9.319   1.564   3.155 -0.1040  0.2818  0.5050
  554MOL0     C74661   9.261   1.572   3.283  0.3430  0.2150 -0.4131
  554MOL0     C74662   9.184   1.690   3.315 -0.1279  0.1489 -0.7554
  554MOL0     O74663   9.155   1.714   3.446  0.2559  0.0247 -0.0982
  554MOL0     C74664   9.091   1.834   3.492 -0.3090 -0.1470 -0.3991
  554MOL0     C74665   9.098   1.832   3.638 -0.1538  0.5615  0.3538
  554MOL0     C74666   9.026   1.959   3.691 -0.4567 -0.1006 -0.1853
  554MOL0     C74667   9.027   1.952   3.846 -0.0811 -0.2584  0.3997
  554MOL0     C74668   8.970   2.081   3.899  0.1267 -0.2562  0.3733
  554MOL0     C74669   8.969   2.066   4.058  0.4746 -0.0356 -0.1518
  554MOL0     C74670   8.932   2.200   4.126  0.4391 -0.5997  0.2755
  554MOL0     C74671   8.921   2.198   4.280 -0.1302  0.4054 -0.1622
  554MOL0     N74672   8.849   2.076   4.322  0.2269  1.0748 -0.3213
  554MOL0     C74673   8.898   1.967   4.398 -0.5719 -0.1385  1.1516
  554MOL0     C74674   8.788   1.895   4.431  0.5000  0.1182 -0.2227
  554MOL0     C74675   8.797   1.787   4.534 -0.7864  0.4857  0.8643
  554MOL0     C74676   8.660   1.741   4.592  0.5049 -0.9356  0.8001
  554MOL0     C74677   8.601   1.856   4.684  0.5461 -0.1077  1.0985
  554MOL0     C74678   8.448   1.849   4.699 -0.3004 -0.9738  0.9847
  554MOL0     O74679   8.375   1.753   4.778 -0.5810 -0.1774 -0.3184
  554MOL0     C74680   8.239   1.753   4.757  0.5373  0.2751 -0.3347
  554MOL0     C74681   8.174   1.642   4.818 -0.4312  0.0683  0.4107
  554MOL0     C74682   8.037   1.612   4.781 -0.7410  0.5369  0.4538
  554MOL0     C74683   7.953   1.700   4.708 -0.2449  0.1871 -0.6748
  554MOL0     C74684   7.812   1.675   4.681  0.0715  0.3825 -0.9800
  554MOL0     O74685   7.749   1.597   4.771 -0.0770 -0.1906 -0.4157
  554MOL0     C74686   7.612   1.607   4.781  0.0631  0.2922  0.5542
  554MOL0     C74687   7.544   1.616   4.909 -1.0235 -0.0235 -0.5178
  554MOL0     C74688   7.408   1.642   4.910 -0.9536 -0.2302 -0.1919
  554MOL0     C74689   7.330   1.637   4.793  0.0975  0.0087 -0.3759
  554MOL0     O74690   7.187   1.670   4.786  0.4104 -0.2299  0.5327
  554MOL0     C74691   7.122   1.757   4.882  0.1269  0.5112  0.6204
  554MOL0     C74692   6.989   1.799   4.825  0.5854  0.7600  0.2635
  554MOL0     C74693   7.005   1.853   4.681 -0.2091  0.7566 -0.3888
  554MOL0     C74694   6.869   1.884   4.622 -0.6271 -0.5350 -0.1806
  554MOL0     C74695   6.867   1.921   4.469  0.3020  0.1647  0.1530
  554MOL0     C74696   6.976   2.028   4.438  0.0746 -0.3987 -0.1439
  554MOL0     C74697   6.930   2.100   4.311  0.0662  0.3088  1.0922
  554MOL0     C74698   7.050   2.177   4.254 -0.5529 -0.8804  0.1137
  554MOL0    Cl74699   6.996   2.322   4.182 -0.4657  0.0627 -0.1526
  554MOL0     C74700   7.391   1.608   4.675  0.4505 -0.4614 -0.0369
  554MOL0     C74701   7.526   1.599   4.665 -0.6843  0.0030 -0.9517
  554MOL0     O74702   7.758   1.741   4.590  0.9051  0.8963  0.7974
  554MOL0     C74703   8.022   1.813   4.655 -0.7722 -0.3334  0.9348
  554MOL0     C74704   8.161   1.840   4.667 -1.1622  0.1802 -0.4478
  554MOL0     N74705   8.679   1.947   4.363 -0.1998 -0.4837 -0.0744
  554MOL0     N74706   8.721   2.043   4.287 -0.5260 -0.4357 -1.8162
  554MOL0     C74707   9.155   1.781   3.214  0.1027  0.1740  0.6545
  554MOL0     C74708   9.196   1.755   3.079 -1.1542 -0.0637 -0.6879
  554MOL0     C74709   9.271   1.580   2.689  0.3033 -0.4757 -0.3099
  554MOL0     C74710   9.413   1.564   2.658  0.0251 -0.0998  0.0521
  554MOL0     C74711   9.456   1.547   2.523  0.7835  1.1973 -0.4133
  554MOL0     C74712   9.372   1.564   2.419  0.7261  0.2065  1.0363
  554MOL0     O74713   9.408   1.550   2.289 -0.7576 -0.1746 -0.4465
  554MOL0     C74714   9.496   1.653   2.230 -0.3790 -1.0029 -0.7889
  554MOL0     C74715   9.421   1.756   2.153  0.1688 -0.8591 -0.0549
  554MOL0     C74716   9.486   1.868   2.065  0.9116  0.7578 -0.0708
  554MOL0     C74717   9.369   1.936   1.984  0.8566 -0.4128 -0.1348
  554MOL0     C74718   9.291   2.030   2.064 -0.0986  0.1364 -0.0222
  554MOL0     C74719   9.218   2.095   2.133  0.2669 -0.6955 -0.0279
  554MOL0     C74720   9.230   1.590   2.447 -0.4367  0.2466 -0.1631
  554MOL0     C74721   9.181   1.590   2.580 -0.2590 -0.0868  0.8130
  554MOL0     C74722   9.039   1.628   2.613  0.0539 -0.8983 -0.0503
  554MOL0     H74723   9.387   1.480   3.144  0.5180  0.6180  1.6634
  554MOL0     H74724   9.282   1.498   3.359  0.1888  0.8520  0.2711
  554MOL0     H74725   9.135   1.923   3.445  0.0090 -0.0027  0.1593
  554MOL0     H74726   8.985   1.836   3.467 -1.0880  2.0008  2.5674
  554MOL0     H74727   9.202   1.840   3.672 -0.1431  1.7300  0.0879
  554MOL0     H74728   9.046   1.743   3.675 -0.5593  1.4238  1.9671
  554MOL0     H74729   8.921   1.959   3.659 -0.9756 -1.0315  1.4014
  554MOL0     H74730   9.086   2.042   3.653 -1.5429  1.1207  0.6927
  554MOL0     H74731   8.963   1.866   3.864  1.6457 -1.1106  3.0079
  554MOL0     H74732   9.129   1.941   3.883  0.4315 -0.6260 -1.0292
  554MOL0     H74733   9.039   2.162   3.874 -0.6338  0.5306  0.7908
  554MOL0     H74734   8.869   2.107   3.865  0.9337  1.9611 -0.5047
  554MOL0     H74735   8.901   1.988   4.092  0.7556  0.7700  2.5000
  554MOL0     H74736   9.067   2.035   4.097  0.2566 -1.7810 -0.9125
  554MOL0     H74737   8.839   2.230   4.077  1.1811 -0.3804 -1.0538
  554MOL0     H74738   9.012   2.272   4.103  0.8041 -0.3936  2.0583
  554MOL0     H74739   9.018   2.190   4.330 -1.4596 -0.2999  2.4900
  554MOL0     H74740   8.876   2.293   4.311  0.4665  2.4879 -4.8368
  554MOL0     H74741   8.997   1.948   4.437  1.2575  1.8020 -2.0760
  554MOL0     H74742   8.855   1.705   4.492 -2.1773 -1.0961  1.9111
  554MOL0     H74743   8.853   1.821   4.621  1.2834 -3.7484  1.4092
  554MOL0     H74744   8.594   1.732   4.506  0.6692  1.1629  0.3832
  554MOL0     H74745   8.677   1.647   4.645  0.3567 -1.7939 -0.6576
  554MOL0     H74746   8.630   1.952   4.639  0.8096 -0.1717  1.1320
  554MOL0     H74747   8.651   1.847   4.780  0.4045  4.0205  1.7506
  554MOL0     H74748   8.403   1.860   4.600  2.0999  2.0553  0.0680
  554MOL0     H74749   8.428   1.951   4.733  0.1904 -1.0632  1.5558
  554MOL0     H74750   8.224   1.578   4.890 -0.1325 -4.1420 -3.1784
  554MOL0     H74751   7.992   1.526   4.828  0.2045  0.4192  1.1981
  554MOL0     H74752   7.610   1.612   4.995 -2.4624 -1.5797  0.5779
  554MOL0     H74753   7.368   1.649   5.010  1.6498  0.0340  0.8928
  554MOL0     H74754   7.099   1.697   4.970  1.1520  1.1693  1.3528
  554MOL0     H74755   7.187   1.841   4.906  0.0150  0.1020  2.5098
  554MOL0     H74756   6.913   1.721   4.833  0.8851  0.4975  0.5664
  554MOL0     H74757   6.956   1.886   4.884  2.2874  1.6880 -0.0774
  554MOL0     H74758   7.069   1.941   4.685  1.7709 -0.6601  0.3794
  554MOL0     H74759   7.048   1.775   4.617  0.4529  0.4017  0.4699
  554MOL0     H74760   6.841   1.976   4.674  0.4597 -0.7440  0.8176
  554MOL0     H74761   6.805   1.799   4.646 -0.6880 -0.3867  0.1987
  554MOL0     H74762   6.771   1.954   4.428  0.3644  0.1214 -0.0322
  554MOL0     H74763   6.885   1.830   4.411  0.1202  0.9393 -1.1691
  554MOL0     H74764   6.991   2.110   4.507  1.6068  0.6693 -1.6636
  554MOL0     H74765   7.075   1.980   4.436 -0.4766 -1.7214  1.8362
  554MOL0     H74766   6.847   2.164   4.339 -1.4605 -1.4247  0.7447
  554MOL0     H74767   6.882   2.044   4.230 -1.1861  1.6108  0.9000
  554MOL0     H74768   7.113   2.212   4.336  4.0942  1.8543 -4.0391
  554MOL0     H74769   7.125   2.113   4.205  2.8586  2.4150  0.5566
  554MOL0     H74770   7.328   1.606   4.586  0.8309  0.2361 -0.3312
  554MOL0     H74771   7.575   1.570   4.573 -0.4515  0.3182 -0.9274
  554MOL0     H74772   7.977   1.895   4.600  4.9717  2.2501 -0.6703
  554MOL0     H74773   8.203   1.926   4.617  1.4452 -1.7011 -1.7025
  554MOL0     H74774   9.091   1.869   3.220  1.4213  1.5823 -3.0997
  554MOL0     H74775   9.141   1.804   2.999 -0.8249  0.2275 -0.7386
  554MOL0     H74776   9.487   1.541   2.735 -0.0551  1.4581  0.6362
  554MOL0     H74777   9.561   1.527   2.506  1.1994 -0.7880  3.4048
  554MOL0     H74778   9.564   1.594   2.168 -0.9078 -1.9270 -0.5056
  554MOL0     H74779   9.564   1.714   2.291 -3.3634 -0.0052  1.8017
  554MOL0     H74780   9.338   1.798   2.211 -1.4057 -1.5371 -1.7246
  554MOL0     H74781   9.381   1.700   2.068 -0.2295  1.6109 -1.5959
  554MOL0     H74782   9.543   1.804   1.996 -1.5279 -2.3250  0.5276
  554MOL0     H74783   9.550   1.938   2.118 -0.4472  1.3400  0.8321
  554MOL0     H74784   9.417   2.000   1.910 -0.8343  2.3714  1.0059
  554MOL0     H74785   9.301   1.868   1.933  0.3856  0.2151 -0.3610
  554MOL0     H74786   9.139   2.144   2.187  0.9004  0.9109 -0.5035
  554MOL0     H74787   9.165   1.617   2.364  0.0743  0.3746 -0.5241
  554MOL0     H74788   8.983   1.540   2.646  0.4877 -1.1727 -0.0395
  554MOL0     H74789   9.018   1.712   2.681 -1.0305 -1.1604 -0.0590
  554MOL0     H74790   8.997   1.661   2.517 -0.5359 -0.1377  0.4602
  555MOL0     O74791  10.230   7.694   4.250 -0.2668 -0.9272  0.3111
  555MOL0     C74792  10.187   7.798   4.201  0.5470 -0.9281 -0.3999
  555MOL0     O74793  10.261   7.894   4.144 -0.1696 -0.8725  0.1560
  555MOL0     C74794  10.395   7.882   4.119  0.5066  0.4434  0.2496
  555MOL0     C74795  10.430   7.937   3.994 -0.7022  0.6596 -0.2628
  555MOL0     C74796  10.566   7.930   3.950  0.4843 -0.5320 -0.0153
  555MOL0     C74797  10.666   7.876   4.029 -0.3826  0.1384  0.2112
  555MOL0     O74798  10.794   7.868   3.993 -0.3637  0.4093 -0.4109
  555MOL0     C74799  10.840   7.908   3.864  0.5431  0.4862  0.4942
  555MOL0     C74800  10.986   7.872   3.850  0.0194 -0.1773  0.4520
  555MOL0     C74801  11.062   7.985   3.914  0.2861 -0.6682 -0.3663
  555MOL0     C74802  11.223   7.964   3.916  1.0024 -0.2180 -0.7082
  555MOL0     C74803  11.284   8.072   3.994  0.1289  1.0514 -0.8058
  555MOL0     C74804  11.432   8.100   3.960  0.3288 -0.0471  0.7853
  555MOL0     C74805  11.449   8.160   3.826 -0.1555 -0.5466 -0.5542
  555MOL0     C74806  11.405   8.312   3.826 -0.9707 -0.2445 -0.3518
  555MOL0     N74807  11.419   8.363   3.683  0.6141 -0.4642 -0.9107
  555MOL0     C74808  11.333   8.326   3.581 -0.2022  0.2590 -0.4643
  555MOL0     C74809  11.377   8.385   3.473  0.3996 -0.1692 -0.8379
  555MOL0     C74810  11.324   8.377   3.330 -0.2065 -0.1071 -1.3231
  555MOL0     C74811  11.262   8.508   3.271 -0.3296  0.5855  0.3543
  555MOL0     C74812  11.203   8.483   3.123 -0.1221 -0.1761  0.4582
  555MOL0     C74813  11.095   8.584   3.075 -0.3738  0.4539 -0.1854
  555MOL0     O74814  11.160   8.701   3.044  0.0344  0.5207  0.1089
  555MOL0     C74815  11.162   8.815   3.125 -0.2065  0.2617  0.3424
  555MOL0     C74816  11.090   8.831   3.245  1.0175 -1.0204  0.9195
  555MOL0     C74817  11.100   8.955   3.312 -0.0315  0.0710  0.9487
  555MOL0     C74818  11.180   9.058   3.273  0.2744 -0.7464 -0.2708
  555MOL0     C74819  11.194   9.189   3.344 -0.3378  0.2795 -0.4599
  555MOL0     O74820  11.153   9.190   3.482 -0.9384  0.5255  0.1693
  555MOL0     C74821  11.164   9.306   3.554  0.4175 -0.7164  0.4736
  555MOL0     C74822  11.231   9.301   3.685 -0.0130  0.2185  0.7668
  555MOL0     C74823  11.268   9.416   3.749 -0.2774 -0.0265 -0.0680
  555MOL0     C74824  11.221   9.542   3.698  0.4302  0.1978 -0.4584
  555MOL0     O74825  11.255   9.659   3.760 -0.3029 -0.1832 -0.4194
  555MOL0     C74826  11.250   9.663   3.903  0.1233  0.6104  0.4446
  555MOL0     C74827  11.110   9.634   3.953  0.2034 -0.2386  0.7505
  555MOL0     C74828  11.004   9.721   3.887 -0.7635 -0.0933  0.0068
  555MOL0     C74829  10.864   9.691   3.938  0.7530  0.3304 -0.1481
  555MOL0     C74830  10.759   9.774   3.869  1.2977 -0.3237  0.1462
  555MOL0     C74831  10.620   9.796   3.950 -0.5445  0.1102  0.6103
  555MOL0     C74832  10.515   9.861   3.866  0.2768 -0.2270  0.2964
  555MOL0     C74833  10.559   9.949   3.751  0.8189 -0.3445  0.2658
  555MOL0    Cl74834  10.425  10.049   3.700  0.2477 -0.0880 -0.0040
  555MOL0     C74835  11.146   9.547   3.585 -0.6682  0.3788  0.1913
  555MOL0     C74836  11.122   9.435   3.503  0.2487 -0.6926 -0.5266
  555MOL0     O74837  11.252   9.281   3.283 -0.3451 -0.4981 -0.2118
  555MOL0     C74838  11.243   9.044   3.148  0.4211  0.4540  0.3830
  555MOL0     C74839  11.233   8.923   3.079 -0.3165 -1.0367  0.6188
  555MOL0     N74840  11.491   8.457   3.509 -0.1157 -0.8516 -0.8811
  555MOL0     N74841  11.506   8.460   3.638 -0.3903  0.6701  0.3440
  555MOL0     C74842  10.632   7.815   4.148 -0.4844  0.6826  0.0668
  555MOL0     C74843  10.500   7.826   4.200  0.0900 -0.1110 -0.1053
  555MOL0     C74844  10.051   7.828   4.233  0.4365 -0.2873  0.0162
  555MOL0     C74845  10.011   7.963   4.258 -0.2526  0.1432  0.1002
  555MOL0     C74846   9.883   8.002   4.281  0.2262 -0.5893  0.6184
  555MOL0     C74847   9.779   7.909   4.285 -0.4355 -0.1577 -0.3319
  555MOL0     O74848   9.656   7.946   4.331  0.3523  0.0527  0.5657
  555MOL0     C74849   9.540   7.909   4.254  0.1616  1.0110  0.0761
  555MOL0     C74850   9.541   7.971   4.116 -0.1029 -0.2704  0.6220
  555MOL0     C74851   9.527   8.118   4.129 -0.4441  0.2886 -0.9005
  555MOL0     C74852   9.468   8.185   4.003  0.3850 -0.9257 -0.1485
  555MOL0     C74853   9.323   8.159   3.999 -0.8481 -0.1681 -0.2635
  555MOL0     C74854   9.203   8.155   3.987 -0.5717 -0.5852 -0.4662
  555MOL0     C74855   9.815   7.777   4.248  0.2709 -0.3632  0.3279
  555MOL0     C74856   9.946   7.739   4.226 -0.5048  0.1418  0.3747
  555MOL0     C74857   9.973   7.593   4.194  0.3374  0.0830 -0.4281
  555MOL0     H74858  10.358   7.974   3.921  0.2540  3.1042 -0.0767
  555MOL0     H74859  10.585   7.973   3.852 -0.3912  0.1558  0.1054
  555MOL0     H74860  10.789   7.847   3.790  0.2225 -3.0141  3.3397
  555MOL0     H74861  10.813   8.013   3.845 -1.6215  0.4505  2.8558
  555MOL0     H74862  11.020   7.882   3.747  1.2653  0.4226  0.9086
  555MOL0     H74863  11.012   7.773   3.888 -0.7770 -0.1635  1.0559
  555MOL0     H74864  11.039   7.985   4.021  0.9102 -1.4424 -0.2282
  555MOL0     H74865  11.027   8.081   3.875 -3.6025 -0.7626  2.3273
  555MOL0     H74866  11.248   7.865   3.957  1.0269 -0.7411 -1.9445
  555MOL0     H74867  11.260   7.966   3.813  0.2891 -0.5658 -0.9788
  555MOL0     H74868  11.217   8.159   3.991 -3.5247 -1.5441 -0.9585
  555MOL0     H74869  11.282   8.037   4.098 -1.5105 -0.1108 -1.1745
  555MOL0     H74870  11.482   8.167   4.031  3.9322 -0.4262 -1.1520
  555MOL0     H74871  11.483   8.003   3.957  1.0509  0.3263  0.8205
  555MOL0     H74872  11.396   8.108   3.746 -0.7107 -0.2262 -0.4009
  555MOL0     H74873  11.554   8.153   3.796 -0.0062  0.4883 -0.3002
  555MOL0     H74874  11.300   8.315   3.856 -1.1030 -1.4740 -0.6638
  555MOL0     H74875  11.466   8.365   3.899 -0.8850 -0.3369 -0.3566
  555MOL0     H74876  11.247   8.261   3.592  0.8707 -1.7716 -3.0150
  555MOL0     H74877  11.412   8.339   3.277 -0.0202 -2.3012  0.4125
  555MOL0     H74878  11.256   8.294   3.307 -1.2657  1.0073 -2.3397
  555MOL0     H74879  11.188   8.555   3.336 -0.2920  1.2354 -0.0669
  555MOL0     H74880  11.343   8.580   3.260  2.1024 -1.4230  3.5555
  555MOL0     H74881  11.155   8.385   3.130  1.6117 -1.0148  1.0384
  555MOL0     H74882  11.284   8.469   3.051 -0.3178 -1.1399  0.4173
  555MOL0     H74883  11.003   8.590   3.134 -2.8745 -1.0158 -3.5499
  555MOL0     H74884  11.066   8.533   2.982 -2.5645 -0.4290  0.9064
  555MOL0     H74885  11.039   8.743   3.284 -0.9330 -0.6181 -0.5775
  555MOL0     H74886  11.041   8.965   3.403 -2.8367 -1.1010 -0.6200
  555MOL0     H74887  11.253   9.198   3.709  1.4802 -0.0227 -1.4090
  555MOL0     H74888  11.324   9.415   3.842  1.7830 -1.7941 -1.2517
  555MOL0     H74889  11.332   9.605   3.948  1.4959  2.0367 -0.1498
  555MOL0     H74890  11.249   9.767   3.936  0.1260 -0.1693  3.1960
  555MOL0     H74891  11.085   9.528   3.939  1.3598 -0.6278  1.5450
  555MOL0     H74892  11.100   9.647   4.061  0.7786  0.1581  0.7568
  555MOL0     H74893  11.016   9.826   3.913 -0.6472 -0.2279  0.4993
  555MOL0     H74894  11.009   9.722   3.778 -2.5774 -2.7953 -0.2029
  555MOL0     H74895  10.858   9.719   4.043  3.3692  0.8186 -0.0686
  555MOL0     H74896  10.831   9.587   3.926  0.0487  0.5150  0.1436
  555MOL0     H74897  10.717   9.737   3.775  1.2958  2.0568 -0.8882
  555MOL0     H74898  10.792   9.878   3.854 -2.2005  0.9738  0.3495
  555MOL0     H74899  10.588   9.697   3.984 -0.8080 -0.4187 -1.0831
  555MOL0     H74900  10.650   9.851   4.040 -1.0618 -0.9156  1.4313
  555MOL0     H74901  10.450   9.904   3.943 -0.3216 -2.2299  0.9728
  555MOL0     H74902  10.451   9.779   3.833 -3.0300  1.3746  2.1196
  555MOL0     H74903  10.641  10.013   3.782 -0.5930  1.5317  0.3147
  555MOL0     H74904  10.576   9.889   3.661  0.6300  0.6155 -0.4271
  555MOL0     H74905  11.109   9.639   3.542  0.4222  0.4844 -0.5616
  555MOL0     H74906  11.093   9.444   3.399  1.8029  0.9149 -0.8638
  555MOL0     H74907  11.298   9.120   3.093  2.6085  0.0819  1.9342
  555MOL0     H74908  11.279   8.916   2.981  1.3995  0.4687  1.2619
  555MOL0     H74909  10.712   7.762   4.201  1.2790  1.1591 -1.9789
  555MOL0     H74910  10.488   7.779   4.297  1.3037 -3.0575 -1.2608
  555MOL0     H74911  10.086   8.041   4.267 -1.0132  0.9963 -0.7452
  555MOL0     H74912   9.856   8.103   4.314 -0.6142 -1.1283  1.6588
  555MOL0     H74913   9.448   7.936   4.307  1.1921 -0.3704  2.7334
  555MOL0     H74914   9.536   7.802   4.236  0.8808  1.6247 -5.2655
  555MOL0     H74915   9.471   7.930   4.043 -0.3932  2.1180 -0.5297
  555MOL0     H74916   9.640   7.967   4.069 -0.6511  3.2227 -1.1651
  555MOL0     H74917   9.626   8.159   4.152  0.3411 -1.8901 -0.1390
  555MOL0     H74918   9.468   8.146   4.216  0.9807  1.0153 -0.1246
  555MOL0     H74919   9.470   8.293   4.017 -1.1095 -0.9404  0.4437
  555MOL0     H74920   9.516   8.157   3.909 -1.6002 -1.0711 -1.1765
  555MOL0     H74921   9.100   8.136   3.962 -0.1721 -0.9861 -1.8405
  555MOL0     H74922   9.735   7.703   4.243 -1.9637  1.9532 -0.2047
  555MOL0     H74923   9.876   7.547   4.177  0.2393 -0.0511  0.4377
  555MOL0     H74924  10.047   7.571   4.117  1.2052 -1.9332  0.8871
  555MOL0     H74925  10.003   7.547   4.289 -0.4540 -1.9536 -1.1143
  556MOL0     O74926   1.179  11.276   9.422  0.0247  0.6117  0.7538
  556MOL0     C74927   1.120  11.179   9.464 -0.0452  0.0837  0.1171
  556MOL0     O74928   0.988  11.144   9.440  0.0628 -0.1978  0.3589
  556MOL0     C74929   0.910  11.215   9.353 -0.3941  0.2724 -0.0096
  556MOL0     C74930   0.775  11.219   9.383  0.0519 -0.2782 -0.2920
  556MOL0     C74931   0.689  11.290   9.305  0.4671 -0.7991  0.7411
  556MOL0     C74932   0.735  11.346   9.181  0.2152 -0.5479  0.0819
  556MOL0     O74933   0.646  11.396   9.091  0.3468  1.5615  0.3548
  556MOL0     C74934   0.542  11.478   9.131  0.5058 -0.3166  0.0072
  556MOL0     C74935   0.483  11.561   9.008  1.2212  0.4513 -0.6321
  556MOL0     C74936   0.566  11.631   8.907 -0.9535 -0.0925 -1.0369
  556MOL0     C74937   0.666  11.720   8.971  0.1831  0.5272  0.5568
  556MOL0     C74938   0.751  11.804   8.868 -0.2131  0.4966  0.2678
  556MOL0     C74939   0.901  11.814   8.896 -0.2216 -0.1345  0.0424
  556MOL0     C74940   0.978  11.890   8.790 -0.1823  0.1118  0.5720
  556MOL0     C74941   1.133  11.907   8.825  0.5754  0.4341  0.6930
  556MOL0     N74942   1.208  11.996   8.727  0.1948 -0.0961  0.8701
  556MOL0     C74943   1.275  11.956   8.615 -0.3145 -0.0677  0.1091
  556MOL0     C74944   1.312  12.069   8.549  0.5739 -0.4474 -1.0700
  556MOL0     C74945   1.406  12.095   8.428 -0.0910  0.3543  0.5685
  556MOL0     C74946   1.538  12.016   8.448 -0.4828 -0.1199  0.3557
  556MOL0     C74947   1.624  12.045   8.327  0.6519  0.9026  0.0885
  556MOL0     C74948   1.754  11.962   8.310  0.6079 -0.4151 -0.3441
  556MOL0     O74949   1.823  11.987   8.188 -0.2225  0.2904  0.4581
  556MOL0     C74950   1.958  11.952   8.172  0.7280  0.3062 -0.2224
  556MOL0     C74951   2.013  12.003   8.058 -0.9269  0.1604  0.2479
  556MOL0     C74952   2.144  11.981   8.032  0.0584  0.0962  0.0448
  556MOL0     C74953   2.229  11.904   8.111 -0.4601  0.1288 -0.3245
  556MOL0     C74954   2.366  11.884   8.068 -0.3447 -0.6661 -0.1278
  556MOL0     O74955   2.453  11.813   8.142  0.0948 -0.2055 -0.7318
  556MOL0     C74956   2.584  11.818   8.103 -0.1346  0.7041  0.6242
  556MOL0     C74957   2.631  11.723   8.010 -0.0954  0.4903  0.6195
  556MOL0     C74958   2.765  11.698   7.987  0.1288 -0.3671 -0.4713
  556MOL0     C74959   2.861  11.764   8.057  1.2137 -0.6256  0.4559
  556MOL0     O74960   2.983  11.720   8.038  0.3739  0.5617  0.1841
  556MOL0     C74961   3.101  11.795   8.088 -0.4796  0.3542  0.4291
  556MOL0     C74962   3.135  11.755   8.234 -0.1752 -0.8963  0.2512
  556MOL0     C74963   3.279  11.745   8.273  0.3151  0.4576 -0.1510
  556MOL0     C74964   3.371  11.863   8.246 -1.3714  1.6049  0.1384
  556MOL0     C74965   3.507  11.838   8.305 -0.4449  0.5680 -1.1305
  556MOL0     C74966   3.589  11.957   8.297  0.1158 -0.1651 -0.1162
  556MOL0     C74967   3.745  11.952   8.307  0.6251 -0.8580 -0.4974
  556MOL0     C74968   3.793  12.089   8.287  0.1566 -0.5078  0.0827
  556MOL0    Cl74969   3.764  12.197   8.430 -0.1101 -0.0093  0.5406
  556MOL0     C74970   2.819  11.861   8.149 -0.5297 -0.9167  1.0731
  556MOL0     C74971   2.684  11.888   8.172 -0.0284 -0.1988 -0.8330
  556MOL0     O74972   2.397  11.938   7.957  0.2368  0.4154  0.0799
  556MOL0     C74973   2.170  11.833   8.216 -0.5808 -0.1307  0.5246
  556MOL0     C74974   2.033  11.856   8.243  0.1478  0.3919 -0.2772
  556MOL0     N74975   1.283  12.178   8.633  0.3154 -0.3587 -0.3907
  556MOL0     N74976   1.223  12.132   8.744  0.3270  0.3579  0.6199
  556MOL0     C74977   0.865  11.340   9.145 -0.3626 -0.5015 -0.1696
  556MOL0     C74978   0.960  11.270   9.221 -0.1030 -0.1226 -0.3559
  556MOL0     C74979   1.186  11.110   9.574  0.0553 -0.6365  0.6866
  556MOL0     C74980   1.106  11.068   9.680 -0.3474 -0.3155  0.2135
  556MOL0     C74981   1.163  11.025   9.802 -0.4393  1.5234  0.5041
  556MOL0     C74982   1.304  11.011   9.816 -0.7782  0.4263  0.1706
  556MOL0     O74983   1.363  10.965   9.936  1.3675 -1.0710  0.7801
  556MOL0     C74984   1.506  10.945   9.940 -0.4821 -0.3276  0.6036
  556MOL0     C74985   1.567  10.890  10.074  0.4950 -0.2787 -0.0847
  556MOL0     C74986   1.549  10.997  10.182 -0.3272  0.2183 -0.4037
  556MOL0     C74987   1.636  11.126  10.163 -0.6701 -0.2457 -0.1073
  556MOL0     C74988   1.635  11.216  10.277  0.8702 -0.1645  0.3071
  556MOL0     C74989   1.633  11.298  10.359 -0.6253 -0.2717 -0.2583
  556MOL0     C74990   1.384  11.049   9.706  0.2642 -1.2352  0.4210
  556MOL0     C74991   1.329  11.102   9.589 -0.1473 -0.0915  0.1359
  556MOL0     C74992   1.426  11.146   9.479 -0.5278  0.4301 -0.2487
  556MOL0     H74993   0.733  11.159   9.463  1.7725 -2.1904 -0.7390
  556MOL0     H74994   0.587  11.295   9.343  0.1844  0.4667 -0.1153
  556MOL0     H74995   0.466  11.413   9.174  0.8124 -0.5556  0.1883
  556MOL0     H74996   0.568  11.552   9.207 -1.9310  1.7469 -1.0250
  556MOL0     H74997   0.423  11.639   9.056  2.2668  1.0677 -0.2765
  556MOL0     H74998   0.408  11.500   8.958 -1.8672  0.6099  3.3704
  556MOL0     H74999   0.508  11.702   8.847  1.7239  2.7059 -0.5868
  556MOL0     H75000   0.621  11.569   8.836  0.1957  0.3813 -0.5827
  556MOL0     H75001   0.612  11.790   9.036 -2.6394 -0.4136 -0.6342
  556MOL0     H75002   0.747  11.677   9.032  1.6530  1.0063 -0.9816
  556MOL0     H75003   0.748  11.745   8.776  0.8051 -0.4092  0.7939
  556MOL0     H75004   0.697  11.899   8.862 -2.7324 -0.8332  0.4878
  556MOL0     H75005   0.901  11.874   8.987  2.3827  2.3595 -1.4444
  556MOL0     H75006   0.941  11.714   8.916  2.6669  1.0872  0.8075
  556MOL0     H75007   0.927  11.985   8.771 -0.5268 -0.4151 -1.4783
  556MOL0     H75008   0.975  11.840   8.692 -0.2180 -0.8921  1.0722
  556MOL0     H75009   1.135  11.949   8.925 -0.2642 -0.1572  0.9653
  556MOL0     H75010   1.166  11.803   8.831 -0.4350  0.1820  2.5157
  556MOL0     H75011   1.293  11.858   8.572  0.3507  0.3905 -0.6926
  556MOL0     H75012   1.351  12.070   8.337 -1.7490  0.0576  1.6062
  556MOL0     H75013   1.417  12.204   8.428  2.8299  0.1276  0.9361
  556MOL0     H75014   1.598  12.034   8.538  2.0850 -3.3381 -0.5344
  556MOL0     H75015   1.513  11.909   8.447 -4.9046  0.7241  1.2813
  556MOL0     H75016   1.651  12.151   8.317  2.4445  0.2586 -4.4599
  556MOL0     H75017   1.553  12.022   8.247 -0.6157  0.5811  1.2570
  556MOL0     H75018   1.730  11.855   8.319 -1.4491  0.1452  2.0092
  556MOL0     H75019   1.812  11.993   8.397 -4.4027  1.8487  2.6875
  556MOL0     H75020   1.959  12.073   7.994 -2.9293 -0.8072  0.7977
  556MOL0     H75021   2.182  12.021   7.939  2.1529 -1.9854 -0.0941
  556MOL0     H75022   2.560  11.667   7.950 -1.2037  0.6958  1.6890
  556MOL0     H75023   2.793  11.613   7.925  2.2623 -0.5359  0.6242
  556MOL0     H75024   3.182  11.793   8.015 -0.8029  2.5565 -0.0490
  556MOL0     H75025   3.078  11.901   8.097 -1.9438 -0.1110  3.1742
  556MOL0     H75026   3.090  11.830   8.300  0.7833  0.0575 -0.1338
  556MOL0     H75027   3.100  11.654   8.252  2.2714 -1.7524  0.5753
  556MOL0     H75028   3.290  11.717   8.378  1.9852  4.0540  0.7983
  556MOL0     H75029   3.319  11.666   8.209 -0.5588  0.5300 -0.8154
  556MOL0     H75030   3.327  11.957   8.281 -1.9854  1.3579  0.0512
  556MOL0     H75031   3.377  11.879   8.138 -1.6176  2.5198  0.2521
  556MOL0     H75032   3.545  11.765   8.232  2.0944  0.3010  0.3271
  556MOL0     H75033   3.518  11.788   8.401  0.9678 -0.6204 -1.8514
  556MOL0     H75034   3.572  12.011   8.203  0.0860  1.3457  0.7158
  556MOL0     H75035   3.554  12.018   8.381 -1.9416  1.8874 -2.3163
  556MOL0     H75036   3.804  11.903   8.229  1.0271  0.3028 -0.9394
  556MOL0     H75037   3.785  11.920   8.404  1.3810  0.3301 -0.4103
  556MOL0     H75038   3.900  12.100   8.270 -0.0683  4.8108  0.4379
  556MOL0     H75039   3.756  12.133   8.194  3.2900 -1.7626 -1.8891
  556MOL0     H75040   2.892  11.918   8.205  2.1721 -1.6099 -1.4939
  556MOL0     H75041   2.663  11.958   8.253 -0.0519  0.0120 -1.0195
  556MOL0     H75042   2.232  11.784   8.290 -0.4473 -0.3611  0.2619
  556MOL0     H75043   1.986  11.807   8.328  1.0707  2.1178  1.3125
  556MOL0     H75044   0.896  11.383   9.051  0.9813  2.1863  1.3834
  556MOL0     H75045   1.066  11.260   9.197  0.1148 -2.1176  1.1575
  556MOL0     H75046   0.998  11.077   9.668 -0.1869  0.5665 -0.6863
  556MOL0     H75047   1.086  10.998   9.873  0.6256 -1.4447  0.6684
  556MOL0     H75048   1.550  11.044   9.924 -2.9786  1.5542  3.9161
  556MOL0     H75049   1.534  10.877   9.859 -4.9882 -1.9472  0.1328
  556MOL0     H75050   1.670  10.855  10.059  0.2759 -0.3522 -1.5419
  556MOL0     H75051   1.509  10.800  10.097 -1.2014 -0.4660 -4.3014
  556MOL0     H75052   1.579  10.950  10.276 -0.1107  0.6034 -0.2768
  556MOL0     H75053   1.443  11.023  10.191 -0.6334 -0.2684 -2.1217
  556MOL0     H75054   1.731  11.084  10.130 -0.1121  2.8521 -3.0541
  556MOL0     H75055   1.582  11.175  10.080 -2.2957  1.3400  1.7757
  556MOL0     H75056   1.634  11.375  10.433  1.8792 -1.2290  0.8050
  556MOL0     H75057   1.493  11.046   9.705  0.3435  0.5295 -0.5460
  556MOL0     H75058   1.448  11.249   9.509 -1.1004 -0.0007  1.8836
  556MOL0     H75059   1.523  11.096   9.491  0.9171  3.1879  0.2871
  556MOL0     H75060   1.389  11.153   9.377 -0.5956  3.3855 -0.1049
  557MOL0     O75061   8.627   0.143   1.299 -0.8234 -0.3929  0.2611
  557MOL0     C75062   8.672   0.083   1.206  0.0022 -0.0023  0.1576
  557MOL0     O75063   8.786   0.007   1.206 -0.8341  0.3519 -0.2636
  557MOL0     C75064   8.848  -0.030   1.331  0.8643  0.0151  0.0491
  557MOL0     C75065   8.983   0.010   1.357  0.0263 -0.1933 -0.2933
  557MOL0     C75066   9.042  -0.032   1.481 -0.2125 -0.3116  0.3062
  557MOL0     C75067   8.973  -0.113   1.571  0.3700 -0.6906  0.0233
  557MOL0     O75068   9.045  -0.144   1.680 -0.0262 -0.1600 -0.9212
  557MOL0     C75069   8.970  -0.153   1.802  0.6189 -1.1851  0.5154
  557MOL0     C75070   9.066  -0.122   1.925 -0.2837  0.2400 -0.4811
  557MOL0     C75071   9.187  -0.211   1.964  0.8434 -0.2950 -0.1718
  557MOL0     C75072   9.222  -0.219   2.121  0.4242  0.7155  0.6033
  557MOL0     C75073   9.363  -0.261   2.163 -0.4456 -0.8710  0.1723
  557MOL0     C75074   9.421  -0.361   2.060 -0.3643 -0.0636 -0.6595
  557MOL0     C75075   9.554  -0.423   2.105 -0.4411 -0.7491 -1.0955
  557MOL0     C75076   9.623  -0.507   2.001  1.1079 -0.1435 -0.7239
  557MOL0     N75077   9.550  -0.634   1.960  1.1451 -0.6047  0.6972
  557MOL0     C75078   9.457  -0.653   1.856  0.2939 -0.2269 -1.3182
  557MOL0     C75079   9.449  -0.792   1.858  0.8295 -0.3230  0.8512
  557MOL0     C75080   9.359  -0.874   1.761 -0.4205 -0.8910  0.3548
  557MOL0     C75081   9.430  -0.965   1.657 -0.5170 -0.1257  0.3650
  557MOL0     C75082   9.491  -0.887   1.543 -0.4938  0.5210  0.6645
  557MOL0     C75083   9.621  -0.831   1.570  0.0868 -0.0450 -0.3014
  557MOL0     O75084   9.742  -0.912   1.544  0.3618  0.5024  0.0403
  557MOL0     C75085   9.872  -0.864   1.551 -0.0323 -0.0415  0.3211
  557MOL0     C75086   9.973  -0.930   1.492  0.2470  0.4392 -0.1738
  557MOL0     C75087  10.097  -0.865   1.479  0.3873 -0.1559  0.0229
  557MOL0     C75088  10.124  -0.736   1.532  1.0530  0.0489  0.7147
  557MOL0     C75089  10.259  -0.681   1.532  0.0827  0.4278 -0.5837
  557MOL0     O75090  10.292  -0.550   1.541  0.3586 -0.9184 -0.3545
  557MOL0     C75091  10.418  -0.498   1.515  0.9211  0.4002 -0.3397
  557MOL0     C75092  10.466  -0.414   1.613 -0.7603  0.0302 -0.1530
  557MOL0     C75093  10.588  -0.333   1.606  0.2051 -0.4561  0.2741
  557MOL0     C75094  10.657  -0.341   1.479  0.8057 -0.3342  0.7611
  557MOL0     O75095  10.767  -0.270   1.446  0.2040  0.1180 -0.2751
  557MOL0     C75096  10.740  -0.139   1.410  0.0669 -0.0116 -0.7722
  557MOL0     C75097  10.714  -0.133   1.261  0.6827 -0.2214  1.3056
  557MOL0     C75098  10.700   0.012   1.202 -1.2281  0.5356  0.2390
  557MOL0     C75099  10.578   0.076   1.252 -0.1135 -0.3105 -0.6562
  557MOL0     C75100  10.594   0.217   1.303  0.3291 -0.3994 -0.2765
  557MOL0     C75101  10.655   0.212   1.446  0.2400 -0.5580  0.0866
  557MOL0     C75102  10.746   0.339   1.458 -0.4353 -0.1366  0.3118
  557MOL0     C75103  10.800   0.351   1.598 -0.3917 -0.6040  1.0843
  557MOL0    Cl75104  10.666   0.356   1.725  0.5309 -0.1148  0.5120
  557MOL0     C75105  10.614  -0.431   1.380 -0.4479  0.0242  0.3493
  557MOL0     C75106  10.491  -0.495   1.396 -0.2509  0.7275 -0.4048
  557MOL0     O75107  10.345  -0.762   1.497  1.0708  0.3170  0.6347
  557MOL0     C75108  10.012  -0.675   1.587  0.0203 -0.7016 -0.8265
  557MOL0     C75109   9.886  -0.735   1.599  0.4003 -0.6572  0.3343
  557MOL0     N75110   9.529  -0.841   1.953 -0.0660 -0.0870 -0.8319
  557MOL0     N75111   9.585  -0.749   2.016 -0.0238  0.1559 -0.4843
  557MOL0     C75112   8.845  -0.155   1.536 -1.0677 -0.1255 -0.5156
  557MOL0     C75113   8.781  -0.122   1.416 -0.2455 -0.5754 -0.4297
  557MOL0     C75114   8.601   0.101   1.073  0.0257  0.3971  0.0351
  557MOL0     C75115   8.678   0.099   0.948 -0.7527 -0.2183  0.4174
  557MOL0     C75116   8.617   0.133   0.829 -0.3696 -0.4259 -0.2522
  557MOL0     C75117   8.477   0.149   0.822 -0.1497  0.0449  0.1455
  557MOL0     O75118   8.402   0.167   0.712  0.3319 -0.1232 -0.2554
  557MOL0     C75119   8.461   0.195   0.591 -2.0361 -0.3826 -0.9855
  557MOL0     C75120   8.524   0.331   0.585  0.0396  0.6367  0.1611
  557MOL0     C75121   8.435   0.448   0.638  0.2162 -0.6282  0.0129
  557MOL0     C75122   8.350   0.507   0.517 -0.0933  0.0561 -0.8785
  557MOL0     C75123   8.429   0.560   0.412  0.0070  0.6249 -0.4812
  557MOL0     C75124   8.492   0.602   0.324  0.0915  0.3203  0.6956
  557MOL0     C75125   8.403   0.148   0.940 -0.5541 -0.1511 -0.4804
  557MOL0     C75126   8.454   0.130   1.068 -0.9359 -0.3020 -0.7930
  557MOL0     C75127   8.366   0.146   1.188  1.1491  0.0920 -0.0121
  557MOL0     H75128   9.037   0.080   1.294 -0.4587  2.8243  2.3764
  557MOL0     H75129   9.142   0.005   1.503  0.3189 -1.0568 -0.7371
  557MOL0     H75130   8.884  -0.085   1.800 -1.5606 -3.6979 -3.3163
  557MOL0     H75131   8.917  -0.249   1.799 -1.3461 -0.1270 -0.7711
  557MOL0     H75132   9.014  -0.097   2.018  1.1677 -0.0723  0.4412
  557MOL0     H75133   9.117  -0.028   1.906  0.1567  0.0707 -0.1465
  557MOL0     H75134   9.277  -0.173   1.915  1.4940 -1.2230  0.2666
  557MOL0     H75135   9.167  -0.315   1.937 -1.1030 -1.2076  3.9032
  557MOL0     H75136   9.195  -0.124   2.166 -1.1589  0.1604  0.8903
  557MOL0     H75137   9.158  -0.301   2.157  1.2432  0.7150  2.1201
  557MOL0     H75138   9.423  -0.170   2.178 -0.8064 -1.0162  3.0175
  557MOL0     H75139   9.365  -0.307   2.262  2.1887  0.5214  0.8842
  557MOL0     H75140   9.355  -0.448   2.051 -0.9238  0.2328  0.3961
  557MOL0     H75141   9.438  -0.312   1.964  0.5637  2.8665  0.8595
  557MOL0     H75142   9.547  -0.473   2.202 -1.1866  1.9194  0.3248
  557MOL0     H75143   9.621  -0.339   2.126 -1.0578 -0.6084  0.4623
  557MOL0     H75144   9.631  -0.445   1.911  0.8621 -0.5110 -1.0008
  557MOL0     H75145   9.722  -0.538   2.035  1.5829  0.7562 -1.2335
  557MOL0     H75146   9.392  -0.587   1.799 -1.1380  0.4089  0.9249
  557MOL0     H75147   9.296  -0.939   1.822 -1.7027  3.1364  3.8106
  557MOL0     H75148   9.290  -0.807   1.709 -0.5579 -1.8215 -0.7123
  557MOL0     H75149   9.507  -1.028   1.701  0.8897 -0.2689 -2.1539
  557MOL0     H75150   9.360  -1.035   1.609  0.0526 -1.0679  0.8839
  557MOL0     H75151   9.429  -0.808   1.499 -1.0721 -2.5765 -5.1251
  557MOL0     H75152   9.513  -0.944   1.452 -2.5243  1.9958 -0.8744
  557MOL0     H75153   9.615  -0.801   1.675 -3.5305 -0.7852 -0.1644
  557MOL0     H75154   9.634  -0.736   1.517 -0.3735  2.0333  3.0043
  557MOL0     H75155   9.964  -1.029   1.450  0.0012  1.3837 -2.4694
  557MOL0     H75156  10.166  -0.921   1.417 -0.0836  0.0852 -0.7390
  557MOL0     H75157  10.417  -0.413   1.710  0.5185 -2.0242  0.5910
  557MOL0     H75158  10.640  -0.269   1.676  1.4806  1.9532 -2.6763
  557MOL0     H75159  10.669  -0.095   1.481  0.5537 -1.8541  0.9487
  557MOL0     H75160  10.833  -0.081   1.418 -2.4424  4.2230  1.2206
  557MOL0     H75161  10.790  -0.193   1.211  1.5821  1.7624  0.1472
  557MOL0     H75162  10.611  -0.164   1.245 -0.2537  2.2984  2.0073
  557MOL0     H75163  10.780   0.074   1.242  0.4598 -1.6511  0.4554
  557MOL0     H75164  10.707   0.014   1.093 -0.2114 -0.0285  0.2880
  557MOL0     H75165  10.523   0.017   1.326  0.5818 -0.3973 -0.1944
  557MOL0     H75166  10.512   0.079   1.165  0.5549  0.2748 -1.1507
  557MOL0     H75167  10.500   0.273   1.297  1.6256  1.9316  0.2444
  557MOL0     H75168  10.656   0.277   1.236 -2.6238  1.2818 -1.6871
  557MOL0     H75169  10.589   0.203   1.533  1.4543 -0.0078  1.0968
  557MOL0     H75170  10.727   0.131   1.457  0.5111 -0.7260 -2.2956
  557MOL0     H75171  10.677   0.422   1.438 -0.6321 -0.8725 -2.5382
  557MOL0     H75172  10.829   0.337   1.386  1.1789  1.1437  2.0225
  557MOL0     H75173  10.865   0.266   1.619 -0.2234 -1.5386 -2.5246
  557MOL0     H75174  10.859   0.444   1.601 -1.9397  0.4946 -0.5440
  557MOL0     H75175  10.669  -0.440   1.287 -0.0812 -1.2565  0.6673
  557MOL0     H75176  10.446  -0.551   1.314  2.5042 -0.6181 -1.1011
  557MOL0     H75177  10.020  -0.581   1.640 -1.0695  0.5190 -2.6630
  557MOL0     H75178   9.801  -0.682   1.643  1.4941  0.8232  0.7604
  557MOL0     H75179   8.809  -0.223   1.612  3.7170  0.6277  2.8657
  557MOL0     H75180   8.684  -0.165   1.394 -0.2460 -1.4608  1.1278
  557MOL0     H75181   8.787   0.090   0.946 -0.7722 -0.3818  0.0690
  557MOL0     H75182   8.679   0.150   0.741  1.1909 -1.8156  0.5273
  557MOL0     H75183   8.380   0.181   0.518  1.3499 -3.7358 -4.5883
  557MOL0     H75184   8.527   0.115   0.559 -1.8032  0.3810 -2.5203
  557MOL0     H75185   8.553   0.351   0.482  2.4846  1.9225  1.0304
  557MOL0     H75186   8.618   0.338   0.640  1.5294  0.4157 -2.2476
  557MOL0     H75187   8.491   0.529   0.685 -1.3273 -0.6562  2.0199
  557MOL0     H75188   8.357   0.418   0.709  2.5543  2.7049  4.4295
  557MOL0     H75189   8.280   0.431   0.482 -1.6448  1.4435 -0.8916
  557MOL0     H75190   8.297   0.590   0.564  0.1843 -1.8091  3.1916
  557MOL0     H75191   8.527   0.652   0.236  0.3037 -0.5024  0.2974
  557MOL0     H75192   8.299   0.178   0.932 -0.6788  0.7368  2.9781
  557MOL0     H75193   8.264   0.158   1.151  1.7995 -0.5571 -2.1941
  557MOL0     H75194   8.354   0.063   1.258 -0.6972 -0.9630 -1.5093
  557MOL0     H75195   8.403   0.240   1.231 -1.2642  0.5796  1.1743
  558MOL0     O75196   1.781   5.544   7.482  0.2478  0.5031 -0.2139
  558MOL0     C75197   1.722   5.548   7.374 -0.1412  0.6293  0.1867
  558MOL0     O75198   1.779   5.526   7.244  0.2047 -0.7421  0.8011
  558MOL0     C75199   1.915   5.548   7.243 -0.9619 -0.0426 -1.3085
  558MOL0     C75200   1.958   5.682   7.257 -0.5762  0.1903  0.3845
  558MOL0     C75201   2.085   5.713   7.263 -0.3021 -0.4768 -0.1471
  558MOL0     C75202   2.185   5.616   7.254  0.2238  0.8575 -0.8961
  558MOL0     O75203   2.322   5.640   7.245  0.2025  0.6918 -0.7386
  558MOL0     C75204   2.393   5.735   7.322  0.2136 -0.2236 -0.8369
  558MOL0     C75205   2.430   5.662   7.463  0.7758  0.3335  0.5890
  558MOL0     C75206   2.478   5.523   7.436 -0.0744 -0.2413 -0.9943
  558MOL0     C75207   2.583   5.482   7.551 -0.0341 -0.0686  0.9240
  558MOL0     C75208   2.624   5.331   7.537  0.6372 -0.5997 -0.0013
  558MOL0     C75209   2.706   5.281   7.659 -0.1584  0.5452 -0.8824
  558MOL0     C75210   2.842   5.357   7.675  0.5689 -0.2376 -0.8805
  558MOL0     C75211   2.934   5.291   7.779  0.2044 -0.4664  0.0520
  558MOL0     N75212   2.966   5.155   7.729  0.1619 -0.8064 -0.3606
  558MOL0     C75213   3.042   5.114   7.621 -0.5809  0.5507  0.7406
  558MOL0     C75214   3.047   4.984   7.624  1.0363 -0.4417 -0.3575
  558MOL0     C75215   3.117   4.889   7.528  0.3925  0.7039  0.6068
  558MOL0     C75216   3.027   4.777   7.475  0.2148  0.2363  1.6577
  558MOL0     C75217   3.082   4.678   7.366 -0.1343 -0.4294  0.2575
  558MOL0     C75218   3.071   4.762   7.230  0.3356 -0.2393  0.7039
  558MOL0     O75219   2.941   4.738   7.172 -0.0977 -0.0094  0.1061
  558MOL0     C75220   2.904   4.780   7.040 -0.5912  0.0440 -0.0374
  558MOL0     C75221   2.778   4.736   6.992 -0.3644 -0.1386  0.2561
  558MOL0     C75222   2.738   4.767   6.862 -0.9287 -0.3735  0.0090
  558MOL0     C75223   2.824   4.846   6.777  0.3413  0.0297 -0.0407
  558MOL0     C75224   2.765   4.895   6.645  0.1185  0.3861  0.0576
  558MOL0     O75225   2.855   4.968   6.573  0.6261 -0.5193  0.4294
  558MOL0     C75226   2.818   5.022   6.450 -0.1107 -0.8568 -0.2617
  558MOL0     C75227   2.918   5.112   6.405 -0.5246 -0.9099 -0.4564
  558MOL0     C75228   2.902   5.188   6.287 -0.1144 -1.0927  0.1558
  558MOL0     C75229   2.778   5.183   6.218  0.0418 -0.4815  0.7799
  558MOL0     O75230   2.746   5.250   6.108  1.3424  0.9499 -0.3537
  558MOL0     C75231   2.826   5.368   6.083  0.4151  0.0717 -1.0920
  558MOL0     C75232   2.768   5.433   5.962 -1.5721  0.4790  0.8247
  558MOL0     C75233   2.619   5.447   5.953  0.3162  0.2365 -0.2357
  558MOL0     C75234   2.553   5.511   6.074 -0.6722  0.5961 -0.1215
  558MOL0     C75235   2.393   5.535   6.082  0.3849  0.2095 -0.4544
  558MOL0     C75236   2.318   5.606   5.962 -1.1140  0.3932  0.3371
  558MOL0     C75237   2.175   5.640   6.000 -0.1753  0.2987 -0.2146
  558MOL0     C75238   2.075   5.675   5.887 -0.4783 -0.2029  0.0040
  558MOL0    Cl75239   2.140   5.816   5.790  0.2194 -0.1072  0.0456
  558MOL0     C75240   2.689   5.080   6.251 -0.3141  0.3966 -0.6902
  558MOL0     C75241   2.702   5.003   6.368 -0.7839  0.1596 -0.7799
  558MOL0     O75242   2.647   4.891   6.626 -0.1721  0.4418 -0.3168
  558MOL0     C75243   2.953   4.878   6.810 -0.7627  0.5241  0.1510
  558MOL0     C75244   2.992   4.848   6.946 -0.5372  0.4514  1.3645
  558MOL0     N75245   2.984   4.948   7.738  0.5994 -0.0854 -0.1490
  558MOL0     N75246   2.917   5.044   7.788 -0.0628  0.7211  0.3640
  558MOL0     C75247   2.146   5.482   7.220 -0.1357  0.0115  0.2860
  558MOL0     C75248   2.008   5.456   7.220  0.0572  0.1579 -1.1998
  558MOL0     C75249   1.572   5.552   7.368  0.3106  0.1643  0.0102
  558MOL0     C75250   1.513   5.565   7.236  0.5688  0.2784 -0.0712
  558MOL0     C75251   1.374   5.572   7.224  0.4151  0.3557 -0.1741
  558MOL0     C75252   1.289   5.566   7.331 -0.1554  0.0530  0.1548
  558MOL0     O75253   1.153   5.561   7.296  0.1913 -0.5950  0.2051
  558MOL0     C75254   1.062   5.504   7.393  0.3153 -0.0449 -0.9693
  558MOL0     C75255   0.949   5.430   7.331 -0.0192 -0.1725 -0.2589
  558MOL0     C75256   0.867   5.360   7.442 -0.5772 -0.2377 -0.1500
  558MOL0     C75257   0.767   5.278   7.375 -0.3896  0.8123  0.5728
  558MOL0     C75258   0.652   5.358   7.345 -0.1868 -1.2638 -0.3280
  558MOL0     C75259   0.549   5.423   7.320 -0.7547  0.0763 -0.8754
  558MOL0     C75260   1.347   5.554   7.461  0.0966 -0.0178  0.1057
  558MOL0     C75261   1.488   5.559   7.482  0.6983  0.7984  0.3487
  558MOL0     C75262   1.528   5.568   7.625 -0.3671  0.5823 -0.1232
  558MOL0     H75263   1.886   5.763   7.256 -1.4364 -0.5642 -0.1003
  558MOL0     H75264   2.100   5.819   7.281 -1.4768 -0.3345  0.1268
  558MOL0     H75265   2.480   5.768   7.264 -0.1653  1.8412 -0.3186
  558MOL0     H75266   2.340   5.831   7.328  2.0055  0.7761 -0.1969
  558MOL0     H75267   2.343   5.655   7.528  1.0130 -2.4524  0.7421
  558MOL0     H75268   2.506   5.724   7.512  0.9678 -0.3076  1.1202
  558MOL0     H75269   2.525   5.510   7.337 -0.0042 -2.5684 -0.7062
  558MOL0     H75270   2.404   5.443   7.439  0.7422 -1.3909 -4.8072
  558MOL0     H75271   2.671   5.546   7.540  0.4270 -0.9381 -0.8926
  558MOL0     H75272   2.541   5.511   7.648  0.6779 -0.2817  1.2992
  558MOL0     H75273   2.540   5.265   7.514  1.3953 -1.0749 -1.5247
  558MOL0     H75274   2.683   5.328   7.445  3.1581 -0.8355  1.5011
  558MOL0     H75275   2.642   5.290   7.747  1.9026  0.4387  0.7209
  558MOL0     H75276   2.719   5.179   7.623 -0.5019  0.3660 -0.4964
  558MOL0     H75277   2.821   5.462   7.697 -0.2772 -0.3617 -1.0604
  558MOL0     H75278   2.891   5.345   7.578  2.2041 -1.2395  0.0289
  558MOL0     H75279   3.023   5.354   7.789 -0.9722  0.9099  2.9331
  558MOL0     H75280   2.887   5.278   7.877 -1.1688 -1.6841 -0.7347
  558MOL0     H75281   3.087   5.183   7.551  0.1598  0.6329  1.2944
  558MOL0     H75282   3.143   4.953   7.443 -3.3515 -0.1732 -1.4421
  558MOL0     H75283   3.204   4.857   7.586 -1.0109 -1.8648  1.4537
  558MOL0     H75284   3.009   4.711   7.560  1.3565  0.6793  2.2603
  558MOL0     H75285   2.933   4.814   7.434 -0.4748  0.4028  3.3406
  558MOL0     H75286   3.019   4.591   7.345  1.3873 -1.4201 -0.2966
  558MOL0     H75287   3.183   4.650   7.395 -0.5172 -2.1414  0.0036
  558MOL0     H75288   3.142   4.733   7.152 -0.8874  3.7235 -2.2198
  558MOL0     H75289   3.086   4.868   7.251  1.8025 -0.6208  1.7424
  558MOL0     H75290   2.719   4.675   7.060 -1.7190  0.3907 -0.4112
  558MOL0     H75291   2.644   4.726   6.828 -0.6571 -0.1542 -1.0293
  558MOL0     H75292   3.015   5.124   6.452  0.0829  1.3425 -2.1034
  558MOL0     H75293   2.989   5.249   6.267 -0.9048  0.0909  0.2191
  558MOL0     H75294   2.815   5.438   6.167  0.1139 -2.5829  1.2349
  558MOL0     H75295   2.929   5.338   6.062 -0.2645 -1.5031 -2.4398
  558MOL0     H75296   2.807   5.535   5.952 -1.4898  0.3990  0.2632
  558MOL0     H75297   2.804   5.369   5.880  0.0717  0.5066  1.4871
  558MOL0     H75298   2.581   5.493   5.861 -0.2329 -3.0157 -1.7778
  558MOL0     H75299   2.581   5.345   5.947  1.6217 -0.3054  0.3884
  558MOL0     H75300   2.603   5.608   6.088  0.8678 -0.2387  0.3982
  558MOL0     H75301   2.585   5.446   6.156 -2.2791 -0.2293 -0.1162
  558MOL0     H75302   2.367   5.591   6.172 -0.9479  0.3216 -0.8853
  558MOL0     H75303   2.360   5.431   6.080  4.8519 -1.4254 -2.0359
  558MOL0     H75304   2.361   5.702   5.930  1.5432 -0.7328  0.2659
  558MOL0     H75305   2.328   5.529   5.884 -0.0568 -1.2095  1.9921
  558MOL0     H75306   2.176   5.731   6.061 -2.3180 -0.0946  0.4791
  558MOL0     H75307   2.148   5.569   6.079  0.4417  0.4580  0.1481
  558MOL0     H75308   2.051   5.589   5.823  0.3870 -1.0847  0.8253
  558MOL0     H75309   1.986   5.698   5.947  0.9608 -0.2691  2.2895
  558MOL0     H75310   2.615   5.051   6.177 -0.6610 -2.0591  0.4951
  558MOL0     H75311   2.633   4.920   6.382 -0.2603 -0.1213  0.2646
  558MOL0     H75312   3.016   4.933   6.740 -0.4169 -0.6492 -0.4909
  558MOL0     H75313   3.093   4.863   6.981 -0.7857  0.3187  2.1628
  558MOL0     H75314   2.229   5.412   7.222 -0.1787 -0.0313  0.6271
  558MOL0     H75315   1.970   5.354   7.218 -1.1042  0.5525 -0.3225
  558MOL0     H75316   1.567   5.559   7.142 -0.0488 -2.5272 -0.3573
  558MOL0     H75317   1.328   5.568   7.125 -1.2826  0.1919  0.5770
  558MOL0     H75318   1.022   5.576   7.465 -2.9463  0.0502 -2.6777
  558MOL0     H75319   1.110   5.427   7.453 -0.8375  2.0837  3.0685
  558MOL0     H75320   0.991   5.351   7.268 -3.2566 -1.5757 -0.8514
  558MOL0     H75321   0.887   5.492   7.266  0.0121  1.2570  1.0041
  558MOL0     H75322   0.837   5.428   7.523  0.1948  1.2335 -1.0559
  558MOL0     H75323   0.935   5.293   7.495  0.5639  1.3154  0.4001
  558MOL0     H75324   0.807   5.240   7.281  2.4925  0.8424  1.6994
  558MOL0     H75325   0.741   5.192   7.438  2.0985 -0.6021 -0.2253
  558MOL0     H75326   0.464   5.488   7.313  0.0546  1.1673 -0.9657
  558MOL0     H75327   1.276   5.539   7.542 -2.2565 -0.9805 -1.9864
  558MOL0     H75328   1.450   5.612   7.687  1.5783 -1.5948  4.3473
  558MOL0     H75329   1.565   5.468   7.651 -0.3254 -0.7371 -4.4533
  558MOL0     H75330   1.610   5.640   7.635 -0.5285  0.7214  0.2099
  559MOL0     O75331   2.114   4.502   6.422 -0.2625 -0.8452  0.6248
  559MOL0     C75332   2.197   4.480   6.512  0.3536  0.5667  0.6494
  559MOL0     O75333   2.285   4.568   6.558 -0.2620 -0.7054 -0.3104
  559MOL0     C75334   2.259   4.700   6.519  0.5920  0.5088  0.8484
  559MOL0     C75335   2.169   4.791   6.583  0.1060  0.1555 -0.4537
  559MOL0     C75336   2.181   4.925   6.556  0.1500  0.3436  0.4087
  559MOL0     C75337   2.260   4.970   6.456  0.8020  0.4890  0.8558
  559MOL0     O75338   2.255   5.106   6.431 -0.4525 -0.2477  0.2398
  559MOL0     C75339   2.364   5.158   6.345  0.4630  0.0457  1.0106
  559MOL0     C75340   2.380   5.309   6.377  0.8131  0.0501  0.8382
  559MOL0     C75341   2.432   5.353   6.504 -0.2033  0.3246 -0.2152
  559MOL0     C75342   2.583   5.336   6.501 -0.3405 -0.9644  0.5562
  559MOL0     C75343   2.655   5.411   6.613  0.2988 -0.6467 -0.9289
  559MOL0     C75344   2.803   5.363   6.633  0.4292 -0.7656 -0.1729
  559MOL0     C75345   2.880   5.419   6.755  0.7662 -0.0414 -0.2272
  559MOL0     C75346   3.005   5.343   6.780  0.2065 -0.6758  0.1181
  559MOL0     N75347   3.106   5.403   6.687 -0.3918 -0.3184 -0.0981
  559MOL0     C75348   3.178   5.507   6.731  0.7824 -0.0848  0.0133
  559MOL0     C75349   3.293   5.515   6.657  0.8684  0.1565 -1.0302
  559MOL0     C75350   3.404   5.618   6.648 -0.1766  0.0093  0.8526
  559MOL0     C75351   3.542   5.568   6.590  0.1090 -0.1486  0.9194
  559MOL0     C75352   3.632   5.690   6.592  0.1753  1.2049  0.1855
  559MOL0     C75353   3.750   5.661   6.493 -0.1237 -1.1515 -0.7785
  559MOL0     O75354   3.709   5.652   6.359 -0.4966  0.0169 -0.7348
  559MOL0     C75355   3.799   5.683   6.265 -0.1767  1.1402 -0.0070
  559MOL0     C75356   3.733   5.688   6.137 -1.0475 -0.9751  0.2025
  559MOL0     C75357   3.814   5.730   6.026  1.2493  0.0188 -0.0895
  559MOL0     C75358   3.948   5.756   6.037 -0.0269 -0.2536 -0.5382
  559MOL0     C75359   4.030   5.785   5.914 -1.6477 -1.0113  0.2601
  559MOL0     O75360   4.164   5.801   5.931 -0.1080 -0.4351  0.0874
  559MOL0     C75361   4.258   5.823   5.833 -0.4357 -0.5789  0.7770
  559MOL0     C75362   4.371   5.737   5.808 -0.0683  0.4773  0.7044
  559MOL0     C75363   4.462   5.765   5.708  0.0875  0.5293 -0.8221
  559MOL0     C75364   4.449   5.883   5.631  0.3610 -0.0155  0.9513
  559MOL0     O75365   4.531   5.922   5.522 -0.2789 -0.2753 -0.3568
  559MOL0     C75366   4.622   5.826   5.464  0.2647  0.6097  0.4267
  559MOL0     C75367   4.750   5.784   5.548  0.6238  1.0300  0.3084
  559MOL0     C75368   4.821   5.911   5.596  0.5550 -0.2162  0.1846
  559MOL0     C75369   4.926   5.858   5.690  0.5039  0.2703  0.1410
  559MOL0     C75370   4.995   5.969   5.767 -0.2712 -0.5800 -0.3282
  559MOL0     C75371   5.110   5.926   5.847 -0.3079 -0.0839 -0.0911
  559MOL0     C75372   5.185   6.050   5.895 -0.4416 -1.3761  0.3871
  559MOL0     C75373   5.315   5.998   5.962  0.3163  0.2204 -0.0593
  559MOL0    Cl75374   5.382   6.139   6.042 -0.4785  0.2444 -0.2529
  559MOL0     C75375   4.345   5.971   5.651 -0.1332  0.5270 -0.1461
  559MOL0     C75376   4.257   5.940   5.757 -0.6428 -0.3825 -0.0126
  559MOL0     O75377   3.974   5.803   5.808 -0.1002  0.6956 -0.2267
  559MOL0     C75378   4.006   5.751   6.165 -0.2172 -1.0078 -0.1582
  559MOL0     C75379   3.934   5.711   6.282  0.1065 -0.6905  0.2457
  559MOL0     N75380   3.284   5.408   6.572 -0.4561  1.5997  0.3290
  559MOL0     N75381   3.179   5.345   6.588  0.5241 -0.1010 -0.2063
  559MOL0     C75382   2.339   4.878   6.380 -0.5011  0.5122 -0.3235
  559MOL0     C75383   2.335   4.744   6.403  0.9387 -0.7300 -0.2538
  559MOL0     C75384   2.192   4.348   6.575 -0.1878 -0.8592 -0.9677
  559MOL0     C75385   2.294   4.256   6.532  0.3699  0.2094 -0.1019
  559MOL0     C75386   2.291   4.128   6.585  0.6264 -0.5912  0.0676
  559MOL0     C75387   2.201   4.091   6.685  1.0330 -0.7631 -0.1633
  559MOL0     O75388   2.209   3.965   6.742 -0.5739 -0.5810 -0.7481
  559MOL0     C75389   2.112   3.871   6.698  0.0813  0.7034 -0.3930
  559MOL0     C75390   2.126   3.732   6.775  0.0207  0.0251  0.1145
  559MOL0     C75391   2.137   3.737   6.931 -0.7950  0.1670  0.1579
  559MOL0     C75392   2.275   3.716   6.961 -0.3525  0.8398 -0.3397
  559MOL0     C75393   2.293   3.730   7.111 -0.7976  0.2375 -0.4522
  559MOL0     C75394   2.306   3.737   7.231  0.1010 -0.2246  0.6367
  559MOL0     C75395   2.102   4.184   6.730 -0.1375  0.0823  0.0532
  559MOL0     C75396   2.095   4.306   6.658  0.0072 -0.9357  0.1545
  559MOL0     C75397   1.968   4.394   6.676  0.2719  0.1835 -0.9492
  559MOL0     H75398   2.103   4.770   6.666 -3.9153  0.8071 -3.1799
  559MOL0     H75399   2.127   4.993   6.620 -1.1270  0.4088 -0.6845
  559MOL0     H75400   2.458   5.104   6.358  2.2707  2.1019 -2.1523
  559MOL0     H75401   2.351   5.137   6.239 -0.5164 -1.1203  1.3384
  559MOL0     H75402   2.274   5.337   6.375  0.5465 -0.9101 -1.5997
  559MOL0     H75403   2.439   5.350   6.295  0.5259 -1.9321 -0.4106
  559MOL0     H75404   2.385   5.297   6.586  1.7378 -0.2037  0.6002
  559MOL0     H75405   2.406   5.459   6.513  1.5635  0.6443  1.8870
  559MOL0     H75406   2.606   5.229   6.500  0.4218 -0.8108  0.3998
  559MOL0     H75407   2.632   5.378   6.412  0.2231  2.5056  2.3418
  559MOL0     H75408   2.649   5.519   6.594  3.5235 -0.5212 -2.0021
  559MOL0     H75409   2.608   5.386   6.708  0.7796  4.0078  0.8231
  559MOL0     H75410   2.801   5.254   6.649 -5.1415 -0.9102 -0.0742
  559MOL0     H75411   2.871   5.384   6.550  2.7745  0.9489  2.0084
  559MOL0     H75412   2.821   5.412   6.846  2.8430  3.3357  1.6036
  559MOL0     H75413   2.908   5.523   6.733 -1.2212  0.3427 -1.1616
  559MOL0     H75414   3.026   5.355   6.887 -0.2930  1.7054 -0.0013
  559MOL0     H75415   3.003   5.239   6.748 -1.3557 -0.4600 -0.5412
  559MOL0     H75416   3.160   5.577   6.811  2.2008  2.1100 -1.4591
  559MOL0     H75417   3.369   5.696   6.580 -1.3432 -0.2209  1.1700
  559MOL0     H75418   3.417   5.668   6.744  1.2257 -2.0508  1.8109
  559MOL0     H75419   3.596   5.488   6.642  0.5149  1.1271  2.5362
  559MOL0     H75420   3.526   5.533   6.487 -0.8623  2.0647  0.2449
  559MOL0     H75421   3.668   5.704   6.694  0.6366 -1.9115  0.5447
  559MOL0     H75422   3.580   5.776   6.549  1.7918  2.2425  0.2181
  559MOL0     H75423   3.793   5.566   6.525  0.5556 -0.5844  0.0369
  559MOL0     H75424   3.827   5.736   6.514 -1.4792 -0.0515  0.4777
  559MOL0     H75425   3.624   5.683   6.131 -1.1264  0.6603 -0.4242
  559MOL0     H75426   3.777   5.742   5.924  1.9975  2.1918 -0.1471
  559MOL0     H75427   4.394   5.643   5.858  0.6847  0.5209  0.4509
  559MOL0     H75428   4.526   5.680   5.687  0.4055 -0.0436  2.0963
  559MOL0     H75429   4.562   5.740   5.433 -0.2846  1.0629  0.2014
  559MOL0     H75430   4.658   5.876   5.374 -3.7367  1.0394 -1.1490
  559MOL0     H75431   4.727   5.717   5.632 -1.3100  2.0722  0.6797
  559MOL0     H75432   4.819   5.736   5.479 -0.0128  1.1272 -0.4092
  559MOL0     H75433   4.887   5.958   5.523  1.7186 -3.3384 -0.9376
  559MOL0     H75434   4.755   5.986   5.642  1.4328 -0.4867  1.9923
  559MOL0     H75435   5.004   5.811   5.631  2.0906 -2.0307  3.7699
  559MOL0     H75436   4.890   5.785   5.763 -0.0015 -0.5141 -0.8750
  559MOL0     H75437   4.925   6.010   5.840 -2.5878 -2.4933 -1.3368
  559MOL0     H75438   5.027   6.051   5.701  1.7584  0.4188  1.7597
  559MOL0     H75439   5.089   5.868   5.937 -0.2221 -0.4614 -0.3110
  559MOL0     H75440   5.172   5.876   5.771  2.5247 -0.6571  2.4159
  559MOL0     H75441   5.120   6.107   5.962  1.5154  1.9108 -0.3156
  559MOL0     H75442   5.207   6.110   5.806  1.6464  1.7517  2.8130
  559MOL0     H75443   5.308   5.910   6.026  1.6509  0.3283  0.2664
  559MOL0     H75444   5.384   5.955   5.889 -0.0218  0.0929 -0.3072
  559MOL0     H75445   4.316   6.056   5.589 -2.9507 -0.3483 -0.1888
  559MOL0     H75446   4.183   6.017   5.774  2.2609  2.4505  0.6763
  559MOL0     H75447   4.110   5.777   6.179 -0.3813  1.5899 -2.8023
  559MOL0     H75448   3.990   5.691   6.373 -1.3621  2.1826  1.8913
  559MOL0     H75449   2.400   4.913   6.297  2.5172 -0.2053  1.4098
  559MOL0     H75450   2.395   4.666   6.358 -0.5314 -1.0491 -1.8204
  559MOL0     H75451   2.364   4.282   6.453 -2.4055  0.8485 -2.5550
  559MOL0     H75452   2.363   4.055   6.550 -0.4660 -1.5120 -0.3322
  559MOL0     H75453   2.112   3.849   6.590 -2.1172 -0.4010 -0.2359
  559MOL0     H75454   2.011   3.911   6.712  0.7973  3.0922 -1.6205
  559MOL0     H75455   2.218   3.690   6.732  1.9351  1.5776  2.4285
  559MOL0     H75456   2.053   3.664   6.730  4.5782 -4.8660 -0.9134
  559MOL0     H75457   2.075   3.661   6.980 -1.0520 -0.6644 -1.3945
  559MOL0     H75458   2.107   3.838   6.960  1.1262  0.9893 -0.5463
  559MOL0     H75459   2.319   3.620   6.934  3.7622  0.8460  4.7037
  559MOL0     H75460   2.339   3.792   6.914 -0.3725  1.9425  1.3221
  559MOL0     H75461   2.322   3.747   7.336 -0.6083  4.1579  0.5161
  559MOL0     H75462   2.033   4.149   6.806  1.6741 -0.8187  1.3888
  559MOL0     H75463   1.891   4.383   6.599 -1.8330 -4.0308  1.3902
  559MOL0     H75464   1.925   4.366   6.773  1.0118 -1.7887 -1.1424
  559MOL0     H75465   2.008   4.495   6.667  1.4920 -0.3450 -1.7792
  560MOL0     O75466   8.382   4.393  10.351 -0.3370 -0.4364  0.4882
  560MOL0     C75467   8.310   4.352  10.257  0.0052 -0.0007  0.0549
  560MOL0     O75468   8.356   4.298  10.144  0.6303  0.0829 -0.8035
  560MOL0     C75469   8.496   4.296  10.130  0.0380  0.0928 -0.1940
  560MOL0     C75470   8.570   4.191  10.191 -0.4373  0.1565 -0.3252
  560MOL0     C75471   8.707   4.183  10.179 -0.5288  0.4456  0.4653
  560MOL0     C75472   8.779   4.276  10.103 -0.1565 -0.5613 -0.1889
  560MOL0     O75473   8.914   4.263  10.086 -1.0794  0.0406 -0.2738
  560MOL0     C75474   8.983   4.362  10.012  0.6506 -0.1820  0.2310
  560MOL0     C75475   9.133   4.325   9.999 -0.0857 -0.1715 -0.2537
  560MOL0     C75476   9.206   4.421   9.915  0.6931 -0.5015  0.4037
  560MOL0     C75477   9.352   4.388   9.891 -0.1441  1.3536  0.0544
  560MOL0     C75478   9.435   4.501   9.836  0.2149 -0.4659  0.4709
  560MOL0     C75479   9.584   4.465   9.814  0.1093  0.7158  0.0408
  560MOL0     C75480   9.675   4.457   9.935  0.1929 -0.2299 -1.4795
  560MOL0     C75481   9.811   4.419   9.881  0.0034 -0.2787  0.1760
  560MOL0     N75482   9.908   4.526   9.913 -0.5077  0.4720  0.1535
  560MOL0     C75483   9.945   4.625   9.830 -0.1309  0.3034  0.1367
  560MOL0     C75484  10.033   4.705   9.890 -0.8375 -1.0404  0.5455
  560MOL0     C75485  10.110   4.817   9.818 -0.0341 -0.7350 -0.2062
  560MOL0     C75486  10.231   4.778   9.738  1.1273  0.5812  0.4827
  560MOL0     C75487  10.344   4.718   9.825 -0.2228  0.4949 -0.1224
  560MOL0     C75488  10.474   4.713   9.742 -1.1114  0.1046 -0.1810
  560MOL0     O75489  10.479   4.593   9.670  0.7920 -0.2919  0.4536
  560MOL0     C75490  10.595   4.563   9.600 -0.0367 -0.6629 -0.4857
  560MOL0     C75491  10.713   4.635   9.599 -0.3256 -0.1725 -0.1161
  560MOL0     C75492  10.815   4.603   9.523 -0.8030 -0.0011  0.0144
  560MOL0     C75493  10.815   4.491   9.434  0.3789  0.2422 -0.1908
  560MOL0     C75494  10.924   4.445   9.361 -0.3808  0.2198  0.5297
  560MOL0     O75495  10.899   4.341   9.277 -0.4419  0.0061 -0.8697
  560MOL0     C75496  11.000   4.297   9.193  0.3228  0.3785 -0.2295
  560MOL0     C75497  10.981   4.284   9.053 -0.5287  0.3212 -0.0306
  560MOL0     C75498  11.075   4.218   8.977 -0.3768  0.4460 -0.1205
  560MOL0     C75499  11.201   4.182   9.027  0.2574 -0.2733  0.2813
  560MOL0     O75500  11.299   4.125   8.948  0.1328 -0.3188 -0.0642
  560MOL0     C75501  11.290   4.145   8.808 -0.4298  0.6208 -0.2065
  560MOL0     C75502  11.406   4.065   8.737 -0.1523  0.9429 -0.3218
  560MOL0     C75503  11.552   4.097   8.796  0.2388  1.2775  0.4058
  560MOL0     C75504  11.634   3.966   8.794 -0.0216  0.7874  0.7305
  560MOL0     C75505  11.775   3.987   8.870  0.0075 -0.1435 -0.2050
  560MOL0     C75506  11.849   3.852   8.885  0.2053 -0.5149 -0.5602
  560MOL0     C75507  11.965   3.869   8.974  0.5493  0.1030 -0.6274
  560MOL0     C75508  11.934   3.831   9.119 -0.6149  1.0352 -0.2101
  560MOL0    Cl75509  12.079   3.854   9.215  0.5268  0.2457 -0.3240
  560MOL0     C75510  11.227   4.208   9.163  0.4041 -0.1306  0.5526
  560MOL0     C75511  11.125   4.251   9.244  0.6414 -1.0103  0.7023
  560MOL0     O75512  11.027   4.513   9.361  0.6557  0.1311  0.2658
  560MOL0     C75513  10.695   4.417   9.436 -0.0269  0.0726  0.5532
  560MOL0     C75514  10.587   4.455   9.518  0.2674 -0.4496 -0.0606
  560MOL0     N75515  10.059   4.638  10.013 -0.1403  0.0506 -1.0183
  560MOL0     N75516   9.980   4.538  10.029  1.1102 -0.2702  0.2329
  560MOL0     C75517   8.700   4.373  10.042 -1.0986  0.3129  0.7394
  560MOL0     C75518   8.561   4.386  10.053 -0.6779  0.2617 -0.1098
  560MOL0     C75519   8.156   4.379  10.265 -1.2669 -0.5527  0.5870
  560MOL0     C75520   8.098   4.432  10.385 -0.2868 -0.4649 -0.3596
  560MOL0     C75521   7.959   4.436  10.407 -0.8630  0.5645  0.2371
  560MOL0     C75522   7.876   4.389  10.305  0.1009  0.3202  0.3481
  560MOL0     O75523   7.737   4.377  10.313  0.3277 -0.8920  0.4360
  560MOL0     C75524   7.681   4.399  10.441  0.3847 -0.6581 -0.5828
  560MOL0     C75525   7.728   4.279  10.538  0.8207  0.2328  0.5716
  560MOL0     C75526   7.691   4.142  10.484  0.6230  0.5831  0.6722
  560MOL0     C75527   7.713   4.036  10.597 -0.5189  0.5649  1.6048
  560MOL0     C75528   7.743   3.902  10.547 -0.4362 -0.1948  0.4890
  560MOL0     C75529   7.772   3.786  10.521 -0.0512 -0.3131 -1.2567
  560MOL0     C75530   7.935   4.346  10.183 -0.0782  0.3679  0.3341
  560MOL0     C75531   8.065   4.328  10.169 -1.7793 -1.2619  0.3190
  560MOL0     C75532   8.102   4.269  10.032 -0.1289 -0.0449  0.1984
  560MOL0     H75533   8.514   4.126  10.258  0.0250 -2.0037 -1.9442
  560MOL0     H75534   8.763   4.104  10.229  0.3603  1.6330  1.4239
  560MOL0     H75535   8.943   4.369   9.910 -1.5252  1.2769  1.0993
  560MOL0     H75536   8.975   4.464  10.052 -0.4685  0.3227 -1.1907
  560MOL0     H75537   9.155   4.225   9.959  1.4762  0.0909 -0.0929
  560MOL0     H75538   9.165   4.334  10.103  0.7061 -3.8933 -0.0128
  560MOL0     H75539   9.192   4.520   9.961 -1.5678 -0.1723 -0.8405
  560MOL0     H75540   9.149   4.426   9.822  1.8998  3.7669 -0.3557
  560MOL0     H75541   9.385   4.348   9.988 -0.7583  3.3344  1.1442
  560MOL0     H75542   9.344   4.302   9.825 -2.9787  0.6499  1.1743
  560MOL0     H75543   9.400   4.528   9.737  1.3199 -2.3910 -0.5169
  560MOL0     H75544   9.444   4.592   9.896  3.3163  0.0895 -0.6136
  560MOL0     H75545   9.591   4.368   9.765 -0.8286  0.8812 -0.4470
  560MOL0     H75546   9.625   4.539   9.746 -2.6070  0.1390 -2.4273
  560MOL0     H75547   9.636   4.381  10.005  3.2085 -0.7276 -0.1867
  560MOL0     H75548   9.672   4.551   9.990  0.8732 -0.3177 -1.2767
  560MOL0     H75549   9.847   4.327   9.928 -1.0120 -1.3880 -1.1152
  560MOL0     H75550   9.816   4.401   9.773  0.2237  0.7258  0.0090
  560MOL0     H75551   9.894   4.627   9.733 -1.0784 -1.0898  0.5727
  560MOL0     H75552  10.039   4.860   9.747  0.0475  0.2319  0.2712
  560MOL0     H75553  10.144   4.890   9.892 -1.9675 -0.0242  0.0317
  560MOL0     H75554  10.208   4.700   9.665  0.6288  2.1984 -1.1617
  560MOL0     H75555  10.265   4.863   9.678 -0.4189 -0.5630 -2.1866
  560MOL0     H75556  10.313   4.619   9.861 -2.4139  1.7222  1.6134
  560MOL0     H75557  10.371   4.772   9.916  2.8346 -1.4793  0.3058
  560MOL0     H75558  10.559   4.708   9.810  0.4257  1.9498 -1.8758
  560MOL0     H75559  10.491   4.797   9.675  1.6408 -0.9716 -0.9503
  560MOL0     H75560  10.731   4.726   9.654 -1.8478 -2.0670  3.9253
  560MOL0     H75561  10.900   4.669   9.535 -1.5207  1.2573 -1.4694
  560MOL0     H75562  10.888   4.325   9.016 -0.8440 -0.4179 -0.0643
  560MOL0     H75563  11.043   4.204   8.874 -4.0701 -1.7526  1.1483
  560MOL0     H75564  11.203   4.090   8.774  1.0490 -0.0476 -3.2393
  560MOL0     H75565  11.292   4.253   8.788 -2.7997  0.8423  0.5379
  560MOL0     H75566  11.393   3.957   8.750 -1.4688  1.0233 -0.8322
  560MOL0     H75567  11.399   4.086   8.630  1.0552  0.4670 -0.5029
  560MOL0     H75568  11.602   4.163   8.725  1.5662  0.0724  0.1863
  560MOL0     H75569  11.558   4.134   8.899  2.1466  1.2072  0.3485
  560MOL0     H75570  11.659   3.939   8.691  0.6182 -2.2352  1.5968
  560MOL0     H75571  11.575   3.886   8.840 -0.3963  0.5693 -0.1097
  560MOL0     H75572  11.762   4.040   8.964  0.5098  0.9850 -0.7430
  560MOL0     H75573  11.839   4.053   8.809  0.3437  1.3033  1.6386
  560MOL0     H75574  11.779   3.779   8.926  1.7234 -1.2298  0.9086
  560MOL0     H75575  11.877   3.811   8.788  0.8254  0.5864 -0.8737
  560MOL0     H75576  12.006   3.969   8.953  1.4438 -0.7220 -3.2775
  560MOL0     H75577  12.043   3.797   8.946 -0.5735 -1.3503 -0.1048
  560MOL0     H75578  11.862   3.893   9.174 -0.7894 -2.1756  3.6472
  560MOL0     H75579  11.893   3.730   9.128  0.0131  0.7893 -0.1007
  560MOL0     H75580  11.328   4.188   9.198 -0.2495 -2.4218  1.3210
  560MOL0     H75581  11.144   4.268   9.349  1.2813 -1.1568  0.6110
  560MOL0     H75582  10.704   4.316   9.398  3.3904  0.7099 -0.7198
  560MOL0     H75583  10.497   4.395   9.510 -1.4817  1.9962  0.0050
  560MOL0     H75584   8.740   4.449   9.976  0.1170 -2.6505 -2.2146
  560MOL0     H75585   8.517   4.462   9.989  0.6628  0.4595 -0.8327
  560MOL0     H75586   8.163   4.450  10.471  1.4266 -1.3733 -1.4023
  560MOL0     H75587   7.919   4.462  10.505  0.0571  0.5233  0.6254
  560MOL0     H75588   7.573   4.407  10.428  0.7365  0.5152 -3.3987
  560MOL0     H75589   7.713   4.492  10.488  0.8481 -1.3692  0.5638
  560MOL0     H75590   7.686   4.296  10.638 -0.0732 -3.5899  0.9872
  560MOL0     H75591   7.832   4.290  10.570  0.4566  1.0422  1.5561
  560MOL0     H75592   7.755   4.125  10.397 -3.2491 -1.2542 -2.1544
  560MOL0     H75593   7.588   4.151  10.447  0.8335  1.7526  0.3319
  560MOL0     H75594   7.809   4.060  10.645 -0.3729 -0.8276  2.0767
  560MOL0     H75595   7.634   4.036  10.672 -1.7506 -2.5219  0.4896
  560MOL0     H75596   7.791   3.683  10.499 -0.4511 -1.6155  3.3763
  560MOL0     H75597   7.864   4.299  10.116  1.7205 -3.8368  1.0175
  560MOL0     H75598   8.163   4.179  10.040 -1.0843 -0.7755 -0.4334
  560MOL0     H75599   8.019   4.238   9.968 -0.6428 -1.7003  1.5839
  560MOL0     H75600   8.157   4.346   9.978  0.7438 -1.9295 -1.7264
  561MOL0     O75601   8.505   0.099   7.703 -0.3592  0.2273 -1.0547
  561MOL0     C75602   8.624   0.087   7.735 -0.3988  0.0867 -0.1564
  561MOL0     O75603   8.698   0.149   7.831  0.1497 -0.6694  0.3378
  561MOL0     C75604   8.655   0.268   7.885 -0.2044  0.2952  0.6019
  561MOL0     C75605   8.747   0.311   7.986  0.1986 -0.7305  1.4175
  561MOL0     C75606   8.722   0.429   8.059 -0.6267  0.2798  0.5385
  561MOL0     C75607   8.605   0.501   8.041  0.0678 -1.2162  0.4685
  561MOL0     O75608   8.574   0.608   8.120  0.7220 -0.0402 -0.0720
  561MOL0     C75609   8.665   0.712   8.137 -0.3359 -1.1454 -0.7232
  561MOL0     C75610   8.629   0.791   8.259  0.3265  1.0246  0.1974
  561MOL0     C75611   8.751   0.860   8.315  0.1482 -0.2036 -0.3713
  561MOL0     C75612   8.716   0.901   8.467 -0.0663  0.6963  1.7177
  561MOL0     C75613   8.829   0.988   8.531 -0.6464 -0.6758 -0.0907
  561MOL0     C75614   8.792   1.035   8.668  0.1392 -0.4448  0.9292
  561MOL0     C75615   8.698   1.150   8.669  0.5593 -0.8530 -0.4841
  561MOL0     C75616   8.789   1.283   8.671 -0.1310 -0.3936 -0.3205
  561MOL0     N75617   8.715   1.406   8.680  0.5638  0.5510 -0.0134
  561MOL0     C75618   8.676   1.479   8.788 -0.3666  0.1313  0.7398
  561MOL0     C75619   8.584   1.563   8.731 -0.6742  0.2242 -0.7828
  561MOL0     C75620   8.490   1.641   8.811 -0.4809 -0.1761 -0.0526
  561MOL0     C75621   8.571   1.725   8.916  0.3516 -0.9749  0.8942
  561MOL0     C75622   8.638   1.850   8.851 -1.4280  0.0859 -0.1277
  561MOL0     C75623   8.538   1.959   8.826 -0.3540 -0.3094  0.4525
  561MOL0     O75624   8.501   2.007   8.960 -0.2452  0.9809  1.2419
  561MOL0     C75625   8.441   2.134   8.963  0.8989 -0.1624 -0.5026
  561MOL0     C75626   8.368   2.187   8.862  0.3413 -0.6941 -0.3469
  561MOL0     C75627   8.316   2.324   8.866  0.0297  0.3822  0.1122
  561MOL0     C75628   8.338   2.403   8.985 -0.2792  0.2610 -0.4309
  561MOL0     C75629   8.298   2.550   8.992  0.5276 -0.6269 -0.8491
  561MOL0     O75630   8.289   2.607   9.116  0.4690 -0.3712 -0.3972
  561MOL0     C75631   8.232   2.728   9.145  0.6544 -0.2841  0.0639
  561MOL0     C75632   8.272   2.843   9.075 -0.0101 -0.1611 -0.2096
  561MOL0     C75633   8.238   2.975   9.114 -0.2537 -0.4988 -0.3112
  561MOL0     C75634   8.139   2.989   9.211  0.3467  1.3173  0.3353
  561MOL0     O75635   8.084   3.108   9.257  0.3988 -0.1519  0.7064
  561MOL0     C75636   8.096   3.228   9.181  0.0420  0.1898  0.4352
  561MOL0     C75637   8.056   3.337   9.269 -0.6503 -0.1152 -0.3114
  561MOL0     C75638   8.168   3.392   9.369  0.3769 -0.2084  1.1965
  561MOL0     C75639   8.109   3.503   9.459 -0.5189 -0.5273  0.2489
  561MOL0     C75640   8.211   3.599   9.520  0.7995  0.1336  0.2598
  561MOL0     C75641   8.286   3.522   9.623 -0.4513  0.1615 -1.0152
  561MOL0     C75642   8.208   3.445   9.738  0.0422  0.7204 -0.2909
  561MOL0     C75643   8.104   3.530   9.805  0.7736  0.3550 -0.1921
  561MOL0    Cl75644   8.020   3.422   9.921  0.4063 -0.0389  0.1344
  561MOL0     C75645   8.096   2.874   9.282  0.5747  0.7451 -0.3423
  561MOL0     C75646   8.145   2.743   9.255  0.5802 -1.0995  0.4133
  561MOL0     O75647   8.256   2.596   8.884  0.2147  0.4198 -0.1062
  561MOL0     C75648   8.401   2.334   9.091 -0.8761 -0.0131  0.2011
  561MOL0     C75649   8.451   2.206   9.076  0.4201  0.3525 -0.4366
  561MOL0     N75650   8.587   1.556   8.598 -0.2474  0.0114  0.2315
  561MOL0     N75651   8.674   1.469   8.565 -0.1632 -0.0977 -0.4154
  561MOL0     C75652   8.512   0.457   7.956 -0.6485  0.4650  0.0527
  561MOL0     C75653   8.535   0.351   7.859 -0.7421 -0.5685 -0.0361
  561MOL0     C75654   8.703  -0.008   7.662 -0.6710 -0.2059  0.0032
  561MOL0     C75655   8.825  -0.061   7.716 -0.2117 -0.6707 -1.1199
  561MOL0     C75656   8.900  -0.164   7.652  0.7951 -0.2361 -0.9001
  561MOL0     C75657   8.842  -0.216   7.540  0.0131  0.9256  0.0237
  561MOL0     O75658   8.916  -0.299   7.464 -0.1530 -0.4396  0.5893
  561MOL0     C75659   8.960  -0.420   7.535  0.2267 -0.3277 -0.1651
  561MOL0     C75660   9.040  -0.497   7.425  0.8066  0.5569 -0.3106
  561MOL0     C75661   9.179  -0.450   7.407  0.0521 -0.4382 -0.2526
  561MOL0     C75662   9.284  -0.494   7.518 -0.1730 -0.2005  0.6749
  561MOL0     C75663   9.302  -0.415   7.632  0.6205  0.0479  0.3341
  561MOL0     C75664   9.296  -0.349   7.738 -1.1688  0.5989 -0.4881
  561MOL0     C75665   8.724  -0.177   7.489  0.3573 -0.0088  1.1021
  561MOL0     C75666   8.651  -0.072   7.538  0.1292 -0.4269  0.1346
  561MOL0     C75667   8.527  -0.037   7.461  0.4661 -0.0458  0.2353
  561MOL0     H75668   8.833   0.246   7.995 -0.7313 -2.1829  0.3090
  561MOL0     H75669   8.792   0.444   8.140  1.7311 -0.1875 -1.2915
  561MOL0     H75670   8.770   0.679   8.143  1.0557  2.7110 -1.2693
  561MOL0     H75671   8.661   0.777   8.049 -1.4326 -1.6023 -1.0276
  561MOL0     H75672   8.591   0.724   8.336  1.5191 -0.2253 -0.2488
  561MOL0     H75673   8.550   0.857   8.223 -0.4364  0.1602  0.2480
  561MOL0     H75674   8.787   0.942   8.252  0.2948  0.8696  1.0700
  561MOL0     H75675   8.840   0.797   8.317  0.5479  0.3116 -1.2912
  561MOL0     H75676   8.626   0.963   8.458  0.6372  1.4298 -1.7103
  561MOL0     H75677   8.689   0.811   8.524  1.7899 -0.7313  0.4456
  561MOL0     H75678   8.923   0.933   8.525 -2.5050 -3.9699 -1.5028
  561MOL0     H75679   8.847   1.071   8.461  1.9328  0.9812  2.3252
  561MOL0     H75680   8.761   0.955   8.737  0.4750  0.9642  2.7766
  561MOL0     H75681   8.882   1.069   8.720  0.7339 -1.4795  0.6155
  561MOL0     H75682   8.628   1.150   8.753 -0.9696 -2.8281 -1.6679
  561MOL0     H75683   8.637   1.147   8.579  0.1271  0.2792 -0.2453
  561MOL0     H75684   8.865   1.285   8.749 -0.4910  1.0757  0.0182
  561MOL0     H75685   8.838   1.275   8.574 -3.6544  3.3374 -2.7398
  561MOL0     H75686   8.710   1.461   8.890  0.5070  1.9397  0.8127
  561MOL0     H75687   8.427   1.696   8.740 -2.5503 -3.4838 -0.9721
  561MOL0     H75688   8.423   1.570   8.860  0.6716 -0.4883  1.1148
  561MOL0     H75689   8.505   1.749   9.000  0.1297 -2.9683  1.3276
  561MOL0     H75690   8.652   1.673   8.969  0.9351 -0.1840  0.8107
  561MOL0     H75691   8.706   1.828   8.767 -0.4796  0.5804  0.4982
  561MOL0     H75692   8.709   1.880   8.929 -0.4343 -2.8491  0.2596
  561MOL0     H75693   8.447   1.924   8.778 -0.5188 -1.3844  1.5027
  561MOL0     H75694   8.573   2.041   8.763  3.3016 -1.6857  0.4424
  561MOL0     H75695   8.344   2.126   8.775  2.0036 -0.6002 -0.8987
  561MOL0     H75696   8.246   2.353   8.788 -0.9573 -2.1475 -0.0166
  561MOL0     H75697   8.345   2.820   8.998 -0.0282 -0.5893 -0.0977
  561MOL0     H75698   8.284   3.058   9.061  0.3810  1.2321  2.7693
  561MOL0     H75699   8.188   3.235   9.121 -0.3098 -3.2415 -0.7210
  561MOL0     H75700   8.019   3.227   9.103  0.6599 -0.7770 -0.1819
  561MOL0     H75701   8.042   3.416   9.195  1.3422 -0.5320 -1.2080
  561MOL0     H75702   7.964   3.313   9.322 -1.0415  2.8401  0.5565
  561MOL0     H75703   8.212   3.308   9.425  0.7139 -2.2180 -1.8661
  561MOL0     H75704   8.248   3.432   9.306 -0.1200 -1.3613 -0.2214
  561MOL0     H75705   8.049   3.446   9.531  1.6727 -2.6981  0.4851
  561MOL0     H75706   8.046   3.574   9.404 -0.1979 -0.4280  0.0068
  561MOL0     H75707   8.148   3.675   9.568  0.0259  0.3889 -1.1190
  561MOL0     H75708   8.269   3.644   9.439 -0.5365  2.0600  0.3037
  561MOL0     H75709   8.354   3.454   9.571 -0.4285 -2.0424  1.6377
  561MOL0     H75710   8.347   3.589   9.685  1.4007 -2.5139  0.2846
  561MOL0     H75711   8.276   3.416   9.818 -2.2703 -0.3488  1.4239
  561MOL0     H75712   8.161   3.353   9.702  1.3690 -0.1620  0.1627
  561MOL0     H75713   8.152   3.609   9.864 -1.2248  0.6845  1.0793
  561MOL0     H75714   8.038   3.557   9.722  1.8200 -2.2510 -1.9822
  561MOL0     H75715   8.020   2.887   9.359  0.6023 -2.4971  0.3635
  561MOL0     H75716   8.115   2.655   9.311 -0.6537 -1.3956 -0.6612
  561MOL0     H75717   8.407   2.374   9.191 -0.7396  0.2588  0.0849
  561MOL0     H75718   8.474   2.149   9.166 -1.1331  2.6263  1.5155
  561MOL0     H75719   8.417   0.509   7.957 -0.7625  0.6431 -3.9386
  561MOL0     H75720   8.462   0.340   7.780  1.4206  2.7639 -2.7827
  561MOL0     H75721   8.858  -0.016   7.810 -3.8368  1.5513 -0.7328
  561MOL0     H75722   8.993  -0.210   7.685 -1.2451 -5.4326 -1.4565
  561MOL0     H75723   8.881  -0.476   7.585  1.3606 -0.6948  1.2908
  561MOL0     H75724   9.033  -0.383   7.608 -0.5922 -1.6208  1.3619
  561MOL0     H75725   8.980  -0.472   7.337  0.6093  1.2410  0.0042
  561MOL0     H75726   9.029  -0.605   7.438 -1.4006  0.6234 -1.1197
  561MOL0     H75727   9.169  -0.341   7.402 -1.2508 -0.5604 -0.7611
  561MOL0     H75728   9.222  -0.489   7.314  2.8422 -4.4722  2.4113
  561MOL0     H75729   9.264  -0.594   7.557 -0.8446 -0.4274 -0.2329
  561MOL0     H75730   9.380  -0.509   7.468  2.0188  0.8929  4.1872
  561MOL0     H75731   9.298  -0.283   7.822  1.7242 -0.4272  0.3705
  561MOL0     H75732   8.679  -0.219   7.399  1.3117  1.1751  0.0382
  561MOL0     H75733   8.518   0.072   7.454 -3.8638 -0.2371  0.1811
  561MOL0     H75734   8.518  -0.079   7.360 -2.5597 -0.0143  0.4016
  561MOL0     H75735   8.436  -0.084   7.501 -0.6529 -1.1095 -3.1949
  562MOL0     O75736  11.249   0.976   8.212 -1.0012  0.0968  0.6490
  562MOL0     C75737  11.325   0.888   8.175 -0.7608 -0.2707 -0.9397
  562MOL0     O75738  11.294   0.757   8.153  0.5654  0.1354  0.1387
  562MOL0     C75739  11.165   0.715   8.175  0.3864  0.2220  0.4144
  562MOL0     C75740  11.143   0.600   8.250  0.7510  0.5155 -0.3468
  562MOL0     C75741  11.014   0.578   8.307  0.4767  1.0012 -0.0442
  562MOL0     C75742  10.904   0.659   8.276  0.2904  0.0243 -0.3282
  562MOL0     O75743  10.781   0.639   8.328 -0.0696 -0.2316 -0.7075
  562MOL0     C75744  10.695   0.588   8.233 -0.2876  0.0003  0.3487
  562MOL0     C75745  10.602   0.486   8.298  0.3655  0.1625 -0.5847
  562MOL0     C75746  10.506   0.561   8.393 -0.1524 -0.3174 -0.5851
  562MOL0     C75747  10.434   0.450   8.478  0.7217 -0.3139 -1.2738
  562MOL0     C75748  10.346   0.505   8.600 -0.6523 -0.5534 -0.5170
  562MOL0     C75749  10.316   0.395   8.700 -0.4923  0.0652 -0.3417
  562MOL0     C75750  10.200   0.425   8.803 -0.7411 -0.4264  1.3089
  562MOL0     C75751  10.059   0.399   8.749 -0.7024 -0.1988 -0.1971
  562MOL0     N75752   9.946   0.448   8.831 -0.4126  0.7714  0.4856
  562MOL0     C75753   9.842   0.533   8.792  0.0354 -0.3017 -0.3270
  562MOL0     C75754   9.762   0.543   8.899  0.3368  1.4629 -0.1347
  562MOL0     C75755   9.627   0.624   8.905  0.0635 -0.7279  0.6920
  562MOL0     C75756   9.645   0.773   8.882  0.8528  0.8852 -0.5324
  562MOL0     C75757   9.517   0.850   8.845  0.8145 -0.2675  0.3194
  562MOL0     C75758   9.473   0.831   8.694  0.9288 -0.6438 -0.2586
  562MOL0     O75759   9.351   0.895   8.673  0.1978  0.0101 -0.2836
  562MOL0     C75760   9.249   0.817   8.617 -0.2495  0.7713 -0.7385
  562MOL0     C75761   9.189   0.713   8.701 -0.4420  1.2658  0.1666
  562MOL0     C75762   9.093   0.631   8.639 -0.6842 -0.0551  0.8833
  562MOL0     C75763   9.068   0.636   8.501 -0.5225 -1.3525  0.2448
  562MOL0     C75764   8.976   0.544   8.430  0.0846 -0.0747  0.1466
  562MOL0     O75765   8.916   0.454   8.518 -0.5021  0.5952 -0.1619
  562MOL0     C75766   8.832   0.362   8.470 -0.5606  0.5161  0.2190
  562MOL0     C75767   8.872   0.230   8.483 -0.3088 -0.1541 -0.6582
  562MOL0     C75768   8.780   0.139   8.447  0.6024  0.2205 -0.0014
  562MOL0     C75769   8.651   0.169   8.392  0.2207 -0.4383  0.3494
  562MOL0     O75770   8.577   0.057   8.350  0.1046  0.7152  1.3465
  562MOL0     C75771   8.485   0.073   8.235  0.8129 -0.2238 -0.7166
  562MOL0     C75772   8.338   0.087   8.286 -0.4422  0.0068  0.3216
  562MOL0     C75773   8.238   0.059   8.163  0.0910 -0.7889 -0.7478
  562MOL0     C75774   8.105   0.022   8.230 -1.1264 -0.5986 -0.6046
  562MOL0     C75775   8.000  -0.008   8.125  0.2665  0.2362  0.5932
  562MOL0     C75776   7.875  -0.060   8.194 -0.1071 -0.5142  0.3805
  562MOL0     C75777   7.758  -0.078   8.085  1.0929  0.7388  0.2030
  562MOL0     C75778   7.627  -0.097   8.150  0.6486  0.3993 -0.0850
  562MOL0    Cl75779   7.506  -0.076   8.030 -0.3011 -0.0918  0.1770
  562MOL0     C75780   8.614   0.310   8.379  0.3365  0.1195 -0.7251
  562MOL0     C75781   8.706   0.402   8.428  1.1232  0.5115  1.0753
  562MOL0     O75782   8.961   0.558   8.308 -0.6101 -0.6294 -0.2285
  562MOL0     C75783   9.131   0.734   8.420 -1.3789 -0.2698 -0.3645
  562MOL0     C75784   9.213   0.822   8.481 -0.2399 -0.0638  0.3545
  562MOL0     N75785   9.811   0.463   8.999  0.5606  1.1033  0.2111
  562MOL0     N75786   9.920   0.407   8.963 -0.2011 -0.2291 -1.3795
  562MOL0     C75787  10.923   0.763   8.182  0.0846  0.6153 -0.1685
  562MOL0     C75788  11.048   0.789   8.134 -0.2440 -0.0071 -0.1238
  562MOL0     C75789  11.473   0.929   8.159  0.7904  0.1322  0.4945
  562MOL0     C75790  11.514   1.046   8.080  0.0659  0.6568 -0.3844
  562MOL0     C75791  11.646   1.073   8.064  0.4550 -0.5522 -0.0778
  562MOL0     C75792  11.744   1.004   8.136  0.2331  0.7334  0.2263
  562MOL0     O75793  11.876   1.014   8.110 -0.1209  0.9615  0.9468
  562MOL0     C75794  11.933   1.146   8.104  0.5693  0.9336  0.3537
  562MOL0     C75795  12.078   1.135   8.102 -0.6654  0.0523  0.1222
  562MOL0     C75796  12.128   1.069   8.234  1.1492  0.5521  0.3106
  562MOL0     C75797  12.277   1.072   8.237 -0.8649 -0.6461  1.5069
  562MOL0     C75798  12.328   1.011   8.357 -1.1554  0.0855 -0.0873
  562MOL0     C75799  12.371   0.963   8.458  0.3076  0.0404  0.0352
  562MOL0     C75800  11.701   0.899   8.217  0.3263 -0.0839 -0.9114
  562MOL0     C75801  11.568   0.855   8.230 -0.7673 -0.4719  0.1647
  562MOL0     C75802  11.539   0.735   8.322  0.0268 -0.1245  0.4301
  562MOL0     H75803  11.232   0.547   8.283  1.9152  3.8882  2.5784
  562MOL0     H75804  10.985   0.494   8.369  0.5224  0.6722 -0.4586
  562MOL0     H75805  10.637   0.673   8.196  1.6066  2.0988  1.9109
  562MOL0     H75806  10.747   0.529   8.157 -1.6773  0.6388 -1.1614
  562MOL0     H75807  10.672   0.423   8.353 -0.2616  0.0043  0.0537
  562MOL0     H75808  10.550   0.425   8.224 -1.5000  2.5648 -1.3859
  562MOL0     H75809  10.439   0.622   8.333  0.7802  1.3667  0.0257
  562MOL0     H75810  10.562   0.635   8.451 -0.4108  0.0015 -0.7452
  562MOL0     H75811  10.365   0.396   8.413 -2.0210 -1.4187  2.2357
  562MOL0     H75812  10.500   0.370   8.511 -0.9446 -2.5040 -2.9716
  562MOL0     H75813  10.392   0.586   8.658  5.0979 -3.4695 -0.3650
  562MOL0     H75814  10.253   0.540   8.553 -1.4768 -1.5754  0.3019
  562MOL0     H75815  10.300   0.293   8.664 -0.9800 -0.2856  0.8219
  562MOL0     H75816  10.401   0.385   8.768 -1.9394 -0.4622  1.4790
  562MOL0     H75817  10.208   0.530   8.833  0.2160  0.2408 -1.0814
  562MOL0     H75818  10.215   0.362   8.892 -0.8793 -0.5982  1.2121
  562MOL0     H75819  10.048   0.447   8.651 -1.5280  0.5580  0.2581
  562MOL0     H75820  10.029   0.295   8.728 -0.7689 -0.4699  1.1489
  562MOL0     H75821   9.810   0.585   8.702 -3.0851 -0.7195  0.4021
  562MOL0     H75822   9.552   0.589   8.834 -0.2992 -0.2312  0.8211
  562MOL0     H75823   9.596   0.596   9.006 -0.8287  0.9478  0.9239
  562MOL0     H75824   9.692   0.816   8.971  2.0839  0.1678 -0.8139
  562MOL0     H75825   9.712   0.786   8.796 -0.9230  1.6400 -1.8721
  562MOL0     H75826   9.540   0.957   8.855  1.3491 -0.4917  1.7385
  562MOL0     H75827   9.440   0.821   8.917  0.8248 -0.2003  0.3579
  562MOL0     H75828   9.467   0.728   8.657  0.5995  0.4994 -3.7932
  562MOL0     H75829   9.541   0.869   8.617  0.1348  0.6070 -0.3752
  562MOL0     H75830   9.197   0.724   8.809 -0.4139 -1.9962  0.5812
  562MOL0     H75831   9.016   0.590   8.703 -3.0310  2.5548 -0.0724
  562MOL0     H75832   8.962   0.188   8.527  1.2253 -0.1823 -3.5982
  562MOL0     H75833   8.821   0.039   8.459  1.6655  0.7776  1.2174
  562MOL0     H75834   8.513   0.161   8.177 -0.2637  2.3255  2.3623
  562MOL0     H75835   8.482  -0.012   8.167 -3.9817 -1.9579  1.2011
  562MOL0     H75836   8.316   0.025   8.374 -2.0548  3.1628  2.3110
  562MOL0     H75837   8.323   0.192   8.313 -0.5814  0.4208 -1.3017
  562MOL0     H75838   8.230   0.150   8.103  2.9110 -0.0146 -0.1013
  562MOL0     H75839   8.269  -0.016   8.090  0.2144 -3.3193  1.7574
  562MOL0     H75840   8.068   0.111   8.283 -0.3631 -0.1691 -0.7789
  562MOL0     H75841   8.135  -0.060   8.295 -1.2482 -0.4410 -0.3511
  562MOL0     H75842   8.044  -0.090   8.067  2.8795  1.8317  0.1942
  562MOL0     H75843   7.986   0.079   8.061 -3.4168  0.5950  1.6241
  562MOL0     H75844   7.891  -0.162   8.231 -0.7681 -1.2860 -1.3489
  562MOL0     H75845   7.840  -0.002   8.280 -2.8614  1.3499 -1.8360
  562MOL0     H75846   7.776  -0.167   8.025 -1.1824 -0.5474  1.2507
  562MOL0     H75847   7.753   0.009   8.019  0.1085 -1.3787 -2.7242
  562MOL0     H75848   7.626  -0.197   8.196  1.3748  2.0278  3.8988
  562MOL0     H75849   7.609  -0.020   8.226 -2.3914  3.0798 -3.2058
  562MOL0     H75850   8.510   0.331   8.357 -0.4222 -2.1096  0.4880
  562MOL0     H75851   8.680   0.507   8.434  0.5753  0.3148  2.5451
  562MOL0     H75852   9.124   0.738   8.312 -0.6224 -0.6510 -0.4418
  562MOL0     H75853   9.252   0.911   8.432 -1.1158  0.6168  0.8476
  562MOL0     H75854  10.836   0.827   8.176  2.2429  3.8989  0.8253
  562MOL0     H75855  11.061   0.887   8.088  2.4527 -0.4400 -0.4629
  562MOL0     H75856  11.438   1.101   8.025 -0.1528 -1.4037 -2.2866
  562MOL0     H75857  11.669   1.146   7.986 -1.2288 -0.4432 -0.5172
  562MOL0     H75858  11.903   1.208   8.189 -0.3177  0.7574  0.1845
  562MOL0     H75859  11.893   1.177   8.007 -2.0330 -2.0007  0.3165
  562MOL0     H75860  12.113   1.237   8.081  1.2624  0.2760  3.6044
  562MOL0     H75861  12.098   1.069   8.018 -0.2702  0.9852 -0.5354
  562MOL0     H75862  12.090   0.968   8.221 -0.6889  1.4473 -2.1482
  562MOL0     H75863  12.094   1.121   8.324  0.2396 -3.0666  2.2161
  562MOL0     H75864  12.325   1.030   8.148  0.7876  1.1679  1.4725
  562MOL0     H75865  12.306   1.177   8.234 -0.7831 -0.6952 -0.0047
  562MOL0     H75866  12.414   0.919   8.546  2.2710 -1.3036 -1.5018
  562MOL0     H75867  11.771   0.856   8.289 -0.7544  1.3781  1.1361
  562MOL0     H75868  11.616   0.724   8.399 -1.0832 -1.3805  1.4055
  562MOL0     H75869  11.444   0.744   8.376  0.2913 -0.5602  0.9856
  562MOL0     H75870  11.546   0.643   8.263  1.7134  1.1766 -1.5188
  563MOL0     O75871   5.420   5.452  11.147  0.4891 -0.9173 -0.4628
  563MOL0     C75872   5.465   5.526  11.058  0.9529  0.1373 -1.2507
  563MOL0     O75873   5.479   5.660  11.070 -0.0405 -0.5441  0.5244
  563MOL0     C75874   5.432   5.714  11.187 -0.2189  0.3721  1.3304
  563MOL0     C75875   5.518   5.738  11.289 -0.3921 -0.7939 -0.3341
  563MOL0     C75876   5.466   5.786  11.407  0.1981 -0.4793 -0.0884
  563MOL0     C75877   5.332   5.830  11.419  0.0804 -0.0680 -0.8639
  563MOL0     O75878   5.268   5.893  11.526 -0.3036  1.1206 -0.1145
  563MOL0     C75879   5.343   5.933  11.633  0.1102 -0.9093 -0.4039
  563MOL0     C75880   5.251   5.964  11.761 -0.8696  1.2801 -0.0926
  563MOL0     C75881   5.138   6.062  11.725 -0.5432 -0.1099  0.6113
  563MOL0     C75882   5.032   6.066  11.837 -0.1276 -0.1279 -0.8577
  563MOL0     C75883   4.904   6.146  11.809 -0.5300  0.4354 -1.4382
  563MOL0     C75884   4.806   6.171  11.926  0.3209  0.2843  0.7970
  563MOL0     C75885   4.680   6.226  11.855 -0.4048 -0.1322  0.7570
  563MOL0     C75886   4.567   6.274  11.947 -0.6296  0.5255 -0.1402
  563MOL0     N75887   4.501   6.158  12.020 -0.4318 -0.3572 -0.5529
  563MOL0     C75888   4.383   6.102  11.983 -0.5346  1.4595  0.1366
  563MOL0     C75889   4.349   6.025  12.087 -0.1144  0.1394 -0.6347
  563MOL0     C75890   4.237   5.927  12.118 -0.7403  0.2886  0.8301
  563MOL0     C75891   4.111   5.999  12.147  0.6805 -0.0828 -0.4728
  563MOL0     C75892   4.115   6.052  12.294 -0.8136  0.2995  0.1943
  563MOL0     C75893   3.985   6.119  12.336 -0.1239  0.6037  0.7340
  563MOL0     O75894   3.953   6.225  12.250  0.0429 -0.0779  0.3406
  563MOL0     C75895   3.839   6.297  12.272 -0.4236  0.0983 -0.6772
  563MOL0     C75896   3.758   6.289  12.384  0.2529  0.0458 -0.2795
  563MOL0     C75897   3.635   6.355  12.390 -0.4303 -0.3744  0.4084
  563MOL0     C75898   3.594   6.432  12.276  0.0531  0.2089 -0.8622
  563MOL0     C75899   3.458   6.495  12.277  0.1695 -0.2504  0.4071
  563MOL0     O75900   3.393   6.533  12.164 -0.7287  0.5702 -0.0193
  563MOL0     C75901   3.282   6.602  12.191 -0.1630 -1.2420  0.7636
  563MOL0     C75902   3.274   6.735  12.143 -0.7072 -0.4735 -0.3650
  563MOL0     C75903   3.165   6.824  12.151 -0.0765  0.1704  0.0359
  563MOL0     C75904   3.037   6.765  12.215 -0.5992 -0.4874  0.1365
  563MOL0     O75905   2.927   6.844  12.245 -0.4356 -0.5345 -0.5550
  563MOL0     C75906   2.938   6.989  12.272 -0.6545 -0.3328 -0.1408
  563MOL0     C75907   2.804   7.060  12.245 -0.4783 -0.2740 -0.2568
  563MOL0     C75908   2.741   7.028  12.106 -0.3247  0.3358  0.4004
  563MOL0     C75909   2.629   7.130  12.058  0.9316 -0.5902  0.3988
  563MOL0     C75910   2.557   7.074  11.937 -0.2156  0.1763  0.9565
  563MOL0     C75911   2.431   7.156  11.900 -0.7504 -0.1125  0.3205
  563MOL0     C75912   2.319   7.129  12.000 -0.1683 -0.0486  0.4076
  563MOL0     C75913   2.179   7.102  11.921 -0.9173 -0.7244 -0.3112
  563MOL0    Cl75914   2.157   7.229  11.798  0.2405 -0.2064 -0.5471
  563MOL0     C75915   3.040   6.630  12.251 -0.3908 -0.8234  0.3704
  563MOL0     C75916   3.154   6.550  12.237 -0.2169 -0.9357 -0.0054
  563MOL0     O75917   3.420   6.526  12.394 -0.0218  0.1014 -0.2906
  563MOL0     C75918   3.680   6.444  12.169 -0.3420 -0.8281 -0.1362
  563MOL0     C75919   3.798   6.376  12.167 -0.1159  0.2348 -0.4566
  563MOL0     N75920   4.443   6.036  12.191 -0.7331  0.0685  0.2906
  563MOL0     N75921   4.535   6.112  12.145 -0.0419 -0.2768  0.2915
  563MOL0     C75922   5.255   5.817  11.302 -0.0158  0.0204 -0.7623
  563MOL0     C75923   5.304   5.763  11.189  0.6787  0.3660 -0.8306
  563MOL0     C75924   5.488   5.468  10.927  0.1301  0.0470 -0.7155
  563MOL0     C75925   5.371   5.421  10.866  0.0579 -0.3171 -0.2038
  563MOL0     C75926   5.387   5.369  10.742 -1.2343 -0.0379  0.5323
  563MOL0     C75927   5.509   5.365  10.670 -0.5292 -0.0918  0.3847
  563MOL0     O75928   5.534   5.321  10.540  0.5660  0.2287 -0.3488
  563MOL0     C75929   5.409   5.284  10.469 -0.1236  0.0540  0.6026
  563MOL0     C75930   5.335   5.412  10.414  0.1599  1.0324 -0.0360
  563MOL0     C75931   5.193   5.379  10.381  0.6439 -0.5595 -0.0180
  563MOL0     C75932   5.159   5.267  10.284  0.7842  0.8162  0.4945
  563MOL0     C75933   5.009   5.263  10.275  0.3575  0.3234  0.3560
  563MOL0     C75934   4.884   5.242  10.285 -0.7556 -0.2617  0.7800
  563MOL0     C75935   5.621   5.401  10.738  0.3055 -0.6372  0.2754
  563MOL0     C75936   5.609   5.463  10.863  0.4726  0.4139  0.1718
  563MOL0     C75937   5.737   5.521  10.924  0.5274  0.8442 -0.6097
  563MOL0     H75938   5.616   5.693  11.284  0.2698  0.6572 -1.3795
  563MOL0     H75939   5.539   5.795  11.487  0.2427  1.4455 -0.2937
  563MOL0     H75940   5.408   5.857  11.676  1.8763  1.7702  2.0131
  563MOL0     H75941   5.416   6.011  11.608  1.7670 -1.8888  1.1538
  563MOL0     H75942   5.311   6.022  11.832 -4.4179  5.4115 -0.0666
  563MOL0     H75943   5.205   5.876  11.805  0.1546 -0.7655 -2.8116
  563MOL0     H75944   5.081   6.036  11.635  1.3796  0.1023 -0.7129
  563MOL0     H75945   5.184   6.159  11.704 -1.5211 -0.0893 -1.6949
  563MOL0     H75946   4.994   5.972  11.877 -0.0943  2.1753  5.7575
  563MOL0     H75947   5.065   6.119  11.926 -1.4257  0.4798 -0.7141
  563MOL0     H75948   4.930   6.241  11.761 -1.5657  0.1585 -2.5736
  563MOL0     H75949   4.861   6.086  11.729  0.2580 -0.2692 -1.3482
  563MOL0     H75950   4.780   6.079  11.979  0.0191 -1.3560 -2.0508
  563MOL0     H75951   4.833   6.261  11.982 -0.0736  2.2626 -1.9913
  563MOL0     H75952   4.639   6.145  11.794  1.3450  0.4383 -1.2679
  563MOL0     H75953   4.712   6.304  11.786  1.8242 -0.9641  0.7829
  563MOL0     H75954   4.612   6.341  12.020 -0.4206 -0.8963  1.0972
  563MOL0     H75955   4.489   6.326  11.890 -1.3518 -0.7472 -0.3592
  563MOL0     H75956   4.337   6.128  11.889 -0.1039  0.0579 -0.4780
  563MOL0     H75957   4.226   5.857  12.034  1.7659 -0.4007  0.9975
  563MOL0     H75958   4.258   5.861  12.203  1.7743  2.6324  2.1653
  563MOL0     H75959   4.106   6.081  12.076  1.1841 -0.0759 -0.5038
  563MOL0     H75960   4.025   5.933  12.138 -0.1808  0.9251  0.1972
  563MOL0     H75961   4.193   6.128  12.286 -0.4707 -0.2187 -6.0995
  563MOL0     H75962   4.142   5.972  12.363 -0.9063 -0.4907 -0.6654
  563MOL0     H75963   4.014   6.153  12.436  2.0515  3.0188 -0.5995
  563MOL0     H75964   3.905   6.046  12.349  1.5647 -1.0509  2.6771
  563MOL0     H75965   3.785   6.229  12.470 -3.5399  0.3257  1.3402
  563MOL0     H75966   3.569   6.361  12.476 -1.9984  0.7986 -0.8042
  563MOL0     H75967   3.360   6.774  12.091 -1.3043 -0.9115 -1.7209
  563MOL0     H75968   3.160   6.928  12.120 -0.4149  1.1995  3.2092
  563MOL0     H75969   2.977   7.014  12.371 -1.5403  1.5807 -0.2321
  563MOL0     H75970   3.015   7.035  12.210  0.8372 -0.4165  1.5778
  563MOL0     H75971   2.728   7.053  12.323 -0.6625  4.4440  0.3197
  563MOL0     H75972   2.833   7.165  12.235 -1.1236 -0.2337 -2.0761
  563MOL0     H75973   2.825   7.022  12.035 -0.8554  0.0126 -0.2130
  563MOL0     H75974   2.683   6.936  12.120 -4.2364  2.4957 -0.2388
  563MOL0     H75975   2.656   7.231  12.023 -1.9036  0.6433  1.4664
  563MOL0     H75976   2.555   7.145  12.138  2.7571  0.7727  1.9455
  563MOL0     H75977   2.533   6.968  11.952  0.9332  0.0712  2.1572
  563MOL0     H75978   2.630   7.078  11.856  0.0024  0.1037  1.1486
  563MOL0     H75979   2.459   7.262  11.899  1.9603 -0.7262  1.5737
  563MOL0     H75980   2.400   7.114  11.804  2.3066 -1.5470 -0.1478
  563MOL0     H75981   2.315   7.211  12.071  1.6277 -1.9955  2.9440
  563MOL0     H75982   2.341   7.035  12.051  5.1300  0.8164  0.3335
  563MOL0     H75983   2.171   6.997  11.894  1.4082 -1.3170  0.9481
  563MOL0     H75984   2.104   7.109  12.000 -1.3466  1.8403 -0.8761
  563MOL0     H75985   2.947   6.595  12.293 -0.5027 -2.1140 -0.8784
  563MOL0     H75986   3.151   6.446  12.270 -0.8310 -1.2475 -0.9943
  563MOL0     H75987   3.646   6.502  12.084 -1.8582 -0.0392  0.9607
  563MOL0     H75988   3.859   6.397  12.080 -0.8553  2.6071 -0.4804
  563MOL0     H75989   5.154   5.855  11.298 -0.4720 -0.6404  2.0017
  563MOL0     H75990   5.260   5.761  11.090  1.0777 -0.8350 -0.9918
  563MOL0     H75991   5.275   5.435  10.917  0.9113 -2.6254  2.2578
  563MOL0     H75992   5.303   5.308  10.709  0.1897 -1.1898 -1.0986
  563MOL0     H75993   5.342   5.221  10.528 -1.0906  1.4886  1.0795
  563MOL0     H75994   5.430   5.236  10.373  0.1374  2.9292 -0.9060
  563MOL0     H75995   5.377   5.445  10.318  0.2717 -2.1443 -1.2138
  563MOL0     H75996   5.333   5.495  10.484 -0.1988 -0.0330  1.2664
  563MOL0     H75997   5.160   5.467  10.325  0.3407 -1.4705 -1.3277
  563MOL0     H75998   5.127   5.366  10.468  0.6127 -2.0029 -0.2423
  563MOL0     H75999   5.208   5.290  10.189  2.8609 -2.7238  0.5340
  563MOL0     H76000   5.206   5.179  10.327  3.4916  1.9693  0.0626
  563MOL0     H76001   4.782   5.220  10.261 -0.3776 -0.3036 -0.9273
  563MOL0     H76002   5.711   5.395  10.679 -1.5372  2.0780 -3.1497
  563MOL0     H76003   5.833   5.520  10.873  0.8259 -1.5310 -0.0986
  563MOL0     H76004   5.706   5.621  10.958 -1.6747 -0.4285  1.5279
  563MOL0     H76005   5.759   5.456  11.009  1.7776  1.3300 -0.5373
  564MOL0     O76006   6.094   0.069   3.936 -0.1699 -0.3146  0.1920
  564MOL0     C76007   6.146   0.178   3.929 -0.2299  0.7969 -1.5118
  564MOL0     O76008   6.078   0.298   3.942  0.2499 -0.0255 -0.2215
  564MOL0     C76009   5.937   0.297   3.968  0.5452 -0.4248  0.8756
  564MOL0     C76010   5.849   0.390   3.905  0.3654  0.7008 -0.3607
  564MOL0     C76011   5.708   0.388   3.919 -0.6235  0.7415 -0.1822
  564MOL0     C76012   5.648   0.287   3.993 -0.4107 -0.1840  0.0216
  564MOL0     O76013   5.516   0.264   4.014 -0.2253  0.3349 -0.6161
  564MOL0     C76014   5.423   0.338   3.944  0.6910 -0.8506 -0.0065
  564MOL0     C76015   5.276   0.317   3.995 -0.2835  0.2613  0.8342
  564MOL0     C76016   5.257   0.396   4.115  0.0600  0.5269  0.7285
  564MOL0     C76017   5.112   0.395   4.159  0.0127  0.2189 -0.7378
  564MOL0     C76018   5.079   0.512   4.259 -1.1404  0.2250  0.0915
  564MOL0     C76019   5.176   0.528   4.379  0.2260  0.2140 -0.0603
  564MOL0     C76020   5.152   0.666   4.445 -0.0533  0.5132 -0.3613
  564MOL0     C76021   5.008   0.681   4.490 -0.3702 -0.1027 -0.3926
  564MOL0     N76022   4.994   0.804   4.570  0.0126 -0.9488  0.2746
  564MOL0     C76023   5.026   0.808   4.700 -1.2168 -0.7971  0.8005
  564MOL0     C76024   4.964   0.920   4.740 -0.1635 -0.4508  0.3016
  564MOL0     C76025   4.972   0.978   4.877  0.2219  1.0726  0.0469
  564MOL0     C76026   4.832   1.034   4.917  0.2452 -0.1289 -0.2627
  564MOL0     C76027   4.719   0.930   4.901  1.1994 -0.2099 -0.2486
  564MOL0     C76028   4.589   0.987   4.958  0.1530 -0.6668  0.9313
  564MOL0     O76029   4.557   1.105   4.892 -0.6135 -0.3491  0.1616
  564MOL0     C76030   4.429   1.131   4.856  0.6116 -0.1853  0.6023
  564MOL0     C76031   4.321   1.084   4.931 -0.1528 -0.2160 -0.5717
  564MOL0     C76032   4.196   1.131   4.907  0.7134 -0.3687  0.1625
  564MOL0     C76033   4.165   1.209   4.787  0.1702 -0.1572 -0.5124
  564MOL0     C76034   4.026   1.249   4.749  0.8871 -0.4945 -0.8319
  564MOL0     O76035   4.005   1.332   4.642  0.0330  0.4366  0.2386
  564MOL0     C76036   3.882   1.373   4.621  0.2063  0.4757  0.5737
  564MOL0     C76037   3.782   1.285   4.575  0.5830 -0.3424  0.7766
  564MOL0     C76038   3.651   1.328   4.547 -0.3162 -0.1810 -0.8813
  564MOL0     C76039   3.616   1.461   4.554 -0.8008 -0.4514 -0.4985
  564MOL0     O76040   3.494   1.508   4.524  0.1422  0.3668 -0.4960
  564MOL0     C76041   3.488   1.575   4.404 -0.4817 -0.9771 -0.0493
  564MOL0     C76042   3.446   1.716   4.430 -0.3376 -0.5525 -0.4115
  564MOL0     C76043   3.428   1.812   4.306  0.4340  0.1316  0.5903
  564MOL0     C76044   3.328   1.739   4.199 -0.3205  0.4775  0.3841
  564MOL0     C76045   3.303   1.837   4.078  0.0652 -0.0941 -0.2550
  564MOL0     C76046   3.164   1.821   4.007 -1.5038  1.0844 -0.1325
  564MOL0     C76047   3.118   1.948   3.944 -0.6125  0.2040  0.5841
  564MOL0     C76048   3.233   2.021   3.864 -0.2496  0.2900 -0.3475
  564MOL0    Cl76049   3.266   1.916   3.715  0.0932  0.1194  0.0197
  564MOL0     C76050   3.707   1.549   4.609 -0.0174  0.3937 -1.1839
  564MOL0     C76051   3.831   1.502   4.649 -0.0244  0.2962 -1.5129
  564MOL0     O76052   3.943   1.199   4.818 -0.0348 -0.0031 -0.5745
  564MOL0     C76053   4.276   1.238   4.706  0.9114  0.1325 -0.4513
  564MOL0     C76054   4.406   1.202   4.742  0.1624  0.0794 -0.0265
  564MOL0     N76055   4.902   0.977   4.635  0.5202  0.0086  0.4152
  564MOL0     N76056   4.920   0.911   4.531 -0.0866 -0.0655  0.3149
  564MOL0     C76057   5.726   0.211   4.070  0.0926 -0.1092 -0.3197
  564MOL0     C76058   5.870   0.215   4.051  0.5928  1.2809 -1.1221
  564MOL0     C76059   6.291   0.200   3.936 -0.1002  0.3395 -0.2403
  564MOL0     C76060   6.347   0.335   3.923 -0.7639 -0.5823  0.7095
  564MOL0     C76061   6.487   0.358   3.929  1.4486 -0.0436  0.2489
  564MOL0     C76062   6.576   0.246   3.952  0.9415  0.0930 -0.6696
  564MOL0     O76063   6.718   0.266   3.963  0.3277 -0.2384 -0.2555
  564MOL0     C76064   6.812   0.160   3.935 -0.3938  0.1988 -0.2947
  564MOL0     C76065   6.946   0.235   3.936  0.6035 -0.6357 -0.7382
  564MOL0     C76066   7.056   0.131   3.919 -0.2402 -0.2298  0.6623
  564MOL0     C76067   7.191   0.197   3.942 -0.5513  0.2828 -0.0797
  564MOL0     C76068   7.305   0.135   3.879 -0.8371  0.2448  0.9788
  564MOL0     C76069   7.407   0.071   3.849 -0.1737 -0.4518 -1.0542
  564MOL0     C76070   6.523   0.119   3.972 -0.2019 -0.5594 -0.5781
  564MOL0     C76071   6.387   0.091   3.960 -0.7619  0.3411 -0.2604
  564MOL0     C76072   6.354  -0.054   3.978  0.2631 -0.5974  0.8796
  564MOL0     H76073   5.903   0.458   3.840  1.3576 -1.0875 -1.4883
  564MOL0     H76074   5.649   0.461   3.864 -0.8944  0.4774 -0.2439
  564MOL0     H76075   5.453   0.443   3.953 -1.3705 -0.3285  1.7754
  564MOL0     H76076   5.425   0.311   3.838  2.9477  4.5314 -1.7210
  564MOL0     H76077   5.277   0.212   4.027 -0.5409  0.7298  2.4733
  564MOL0     H76078   5.211   0.319   3.908  0.6264 -1.1138  0.0822
  564MOL0     H76079   5.285   0.499   4.094  0.7041  0.0651 -0.7961
  564MOL0     H76080   5.325   0.361   4.194 -1.4443 -0.5502  1.6105
  564MOL0     H76081   5.050   0.410   4.070 -0.8196 -1.2963 -0.4418
  564MOL0     H76082   5.096   0.298   4.206 -0.0680  0.9944  0.9259
  564MOL0     H76083   5.055   0.601   4.201 -2.4217 -0.0016  0.2403
  564MOL0     H76084   4.981   0.490   4.303 -0.3851 -1.5404  0.9955
  564MOL0     H76085   5.153   0.450   4.453  1.5778 -2.0434 -1.9143
  564MOL0     H76086   5.281   0.510   4.356 -0.2239 -0.7804 -1.4608
  564MOL0     H76087   5.172   0.739   4.366 -2.1747 -0.5013 -1.9429
  564MOL0     H76088   5.229   0.677   4.521  1.9703 -2.2368 -1.8371
  564MOL0     H76089   4.944   0.693   4.402  1.4750 -0.8847 -1.8916
  564MOL0     H76090   4.968   0.604   4.557 -2.0313  1.9346  1.0818
  564MOL0     H76091   5.082   0.738   4.761 -0.9150 -0.4397  0.9349
  564MOL0     H76092   4.989   0.904   4.955  1.2039  2.2083  0.9473
  564MOL0     H76093   5.055   1.050   4.874  0.4497  1.2973  4.8705
  564MOL0     H76094   4.853   1.057   5.022 -1.1137 -1.9349  0.4556
  564MOL0     H76095   4.812   1.131   4.872 -0.8848  0.1558  0.7771
  564MOL0     H76096   4.750   0.845   4.962  3.7581  1.3603  0.7757
  564MOL0     H76097   4.700   0.891   4.800 -0.4262  0.1962 -0.1353
  564MOL0     H76098   4.598   1.010   5.065 -0.1208  0.6368  0.6929
  564MOL0     H76099   4.511   0.910   4.958 -1.1979  0.6443 -0.4510
  564MOL0     H76100   4.332   1.024   5.021 -1.8848 -1.5800 -1.2174
  564MOL0     H76101   4.123   1.118   4.986 -1.1457 -2.4528 -1.7468
  564MOL0     H76102   3.809   1.180   4.567 -1.4426 -0.9127  0.7141
  564MOL0     H76103   3.569   1.264   4.515 -0.5262  0.8033 -2.4131
  564MOL0     H76104   3.584   1.573   4.352 -1.5916  0.1884 -2.2890
  564MOL0     H76105   3.429   1.518   4.332 -1.3633  0.9577 -0.9359
  564MOL0     H76106   3.357   1.721   4.492 -0.7869 -1.4303 -0.9637
  564MOL0     H76107   3.521   1.765   4.493 -2.9210  1.9914  0.8769
  564MOL0     H76108   3.394   1.911   4.340 -1.3899 -0.2406 -0.0174
  564MOL0     H76109   3.529   1.826   4.268  0.3672 -0.8148  0.0364
  564MOL0     H76110   3.234   1.708   4.245 -0.0051 -2.3528 -0.6869
  564MOL0     H76111   3.378   1.651   4.159  1.3727  1.8846 -0.8009
  564MOL0     H76112   3.388   1.839   4.009 -1.4092  1.4627 -2.1399
  564MOL0     H76113   3.308   1.939   4.118 -1.5539  0.0855 -0.4612
  564MOL0     H76114   3.178   1.734   3.943 -0.6297 -0.8162  2.4904
  564MOL0     H76115   3.080   1.803   4.075 -0.0875 -0.2024  1.3401
  564MOL0     H76116   3.098   2.018   4.025  3.0678 -1.2563  2.9968
  564MOL0     H76117   3.035   1.922   3.877 -0.3353 -1.1801  0.7468
  564MOL0     H76118   3.214   2.122   3.826  1.4294  1.5687  1.9229
  564MOL0     H76119   3.321   2.044   3.924 -1.5403 -0.3716  1.9125
  564MOL0     H76120   3.670   1.644   4.645  1.3784  0.2970  0.6766
  564MOL0     H76121   3.903   1.561   4.704 -1.1869 -0.3318  0.8156
  564MOL0     H76122   4.257   1.292   4.614 -0.3854  0.5879  0.0690
  564MOL0     H76123   4.495   1.234   4.688 -0.7440  0.5856 -1.2813
  564MOL0     H76124   5.674   0.154   4.146 -1.1574  1.5198  0.1008
  564MOL0     H76125   5.942   0.160   4.111 -0.9665 -1.6147 -1.7181
  564MOL0     H76126   6.294   0.424   3.891  3.9927  1.4938 -2.5352
  564MOL0     H76127   6.541   0.451   3.921 -2.0706  2.3468  1.9189
  564MOL0     H76128   6.795   0.120   3.835 -0.8141  2.0042 -0.9930
  564MOL0     H76129   6.815   0.078   4.007  1.4303 -0.4680 -1.0707
  564MOL0     H76130   6.956   0.285   4.033 -3.3564  1.3762 -1.1738
  564MOL0     H76131   6.947   0.310   3.857  0.7791  2.5270  2.0805
  564MOL0     H76132   7.048   0.095   3.816  0.0346  1.6186 -0.0303
  564MOL0     H76133   7.049   0.049   3.991 -1.1454  1.5785  2.7292
  564MOL0     H76134   7.188   0.292   3.887  2.7334  0.0065 -0.9502
  564MOL0     H76135   7.207   0.219   4.047 -0.2443 -0.2058 -0.0201
  564MOL0     H76136   7.505   0.029   3.841  0.8438  2.0951 -4.2919
  564MOL0     H76137   6.594   0.048   4.014  1.1215  1.4204  0.6717
  564MOL0     H76138   6.431  -0.111   4.031  0.3900 -1.9277 -0.6786
  564MOL0     H76139   6.257  -0.060   4.029  0.9289  0.2267  2.3105
  564MOL0     H76140   6.342  -0.093   3.877 -0.6693 -1.5642  1.3448
  565MOL0     O76141   8.135   8.877  10.327 -1.2101 -0.4466 -0.1696
  565MOL0     C76142   8.203   8.907  10.231 -0.3087 -0.3769  0.0145
  565MOL0     O76143   8.282   9.030  10.223 -0.0433 -0.5450 -0.2636
  565MOL0     C76144   8.309   9.107  10.338  0.7773 -0.4067  0.1438
  565MOL0     C76145   8.416   9.078  10.432  0.6688  0.1398  0.4818
  565MOL0     C76146   8.414   9.152  10.549 -0.2335  0.1460 -0.1267
  565MOL0     C76147   8.316   9.245  10.585 -0.0645  0.0096 -0.7433
  565MOL0     O76148   8.302   9.312  10.711 -0.3104 -0.1452 -0.2115
  565MOL0     C76149   8.408   9.288  10.804  0.1003  0.3249 -0.4085
  565MOL0     C76150   8.383   9.144  10.870  0.5519  0.5288 -0.6458
  565MOL0     C76151   8.456   9.126  11.000  0.4259 -0.4556 -0.3120
  565MOL0     C76152   8.361   9.085  11.111  0.2421  0.1164  0.3154
  565MOL0     C76153   8.262   9.193  11.151  0.6130 -0.1520 -0.3933
  565MOL0     C76154   8.155   9.151  11.263 -1.0327  0.3464  0.4531
  565MOL0     C76155   8.045   9.269  11.284  0.6478  0.2046 -0.3439
  565MOL0     C76156   7.934   9.228  11.382  0.2895  0.8145 -0.2332
  565MOL0     N76157   7.821   9.314  11.380  0.5983  0.0255  0.3028
  565MOL0     C76158   7.698   9.288  11.320  0.4204  0.0867 -0.2748
  565MOL0     C76159   7.625   9.398  11.355 -0.2496  0.0977  0.3785
  565MOL0     C76160   7.480   9.426  11.322 -0.5469  0.2098  0.4185
  565MOL0     C76161   7.382   9.401  11.441  0.5171  0.1162  0.4828
  565MOL0     C76162   7.392   9.508  11.560  0.4298 -0.1348 -0.5225
  565MOL0     C76163   7.266   9.538  11.636  0.6858 -0.2127 -1.0922
  565MOL0     O76164   7.161   9.578  11.547  0.0950  0.6343 -0.4371
  565MOL0     C76165   7.161   9.703  11.486 -0.6131  0.0729  0.2016
  565MOL0     C76166   7.251   9.813  11.518  0.7647  0.0756 -1.0098
  565MOL0     C76167   7.230   9.943  11.462 -1.2789  0.4387 -0.3717
  565MOL0     C76168   7.131   9.961  11.370 -0.8107  0.5836 -0.6997
  565MOL0     C76169   7.109  10.099  11.304 -0.5468  2.0550 -0.6954
  565MOL0     O76170   7.146  10.215  11.378 -0.8509 -0.0746 -0.1039
  565MOL0     C76171   7.157  10.346  11.332  0.3010 -1.1928  0.5945
  565MOL0     C76172   7.229  10.440  11.404  0.1842  0.2990 -0.4530
  565MOL0     C76173   7.255  10.570  11.355  0.0606 -0.3234 -0.1388
  565MOL0     C76174   7.189  10.617  11.251  0.2619 -0.4582  0.7716
  565MOL0     O76175   7.187  10.745  11.221 -0.1321  0.9809  0.3255
  565MOL0     C76176   7.282  10.786  11.118 -0.1881 -0.3403 -0.3619
  565MOL0     C76177   7.406  10.857  11.189 -0.6256  0.4050 -0.5439
  565MOL0     C76178   7.474  10.943  11.089 -0.1013 -0.3370 -0.7128
  565MOL0     C76179   7.620  10.958  11.112 -0.0029  0.1715 -0.4915
  565MOL0     C76180   7.664  11.049  11.228  0.7578 -0.5734  0.8771
  565MOL0     C76181   7.791  11.008  11.277 -0.4481  0.5441 -0.1541
  565MOL0     C76182   7.837  11.112  11.394  0.4089  0.6840  0.0692
  565MOL0     C76183   7.898  11.242  11.344  0.1935 -0.4292 -0.0330
  565MOL0    Cl76184   8.040  11.189  11.235  0.4442 -0.0872  0.3346
  565MOL0     C76185   7.116  10.527  11.164 -1.1369  0.5821  0.0444
  565MOL0     C76186   7.093  10.396  11.208 -0.0432  0.7015  0.3801
  565MOL0     O76187   7.038  10.097  11.201  0.3266  0.9263  0.3693
  565MOL0     C76188   7.052   9.849  11.326  0.3031 -0.5776 -0.4735
  565MOL0     C76189   7.061   9.726  11.387  0.3225  0.1268 -0.4851
  565MOL0     N76190   7.702   9.479  11.429  0.2486 -0.1087 -0.8030
  565MOL0     N76191   7.823   9.441  11.434 -0.1993 -0.1325 -0.2931
  565MOL0     C76192   8.220   9.273  10.487  0.1626  0.2704 -0.6134
  565MOL0     C76193   8.220   9.206  10.363  0.3933  0.0775 -0.9911
  565MOL0     C76194   8.183   8.839  10.100  0.0127 -0.0798 -0.8029
  565MOL0     C76195   8.073   8.871  10.017 -0.0827 -0.5057 -0.3996
  565MOL0     C76196   8.044   8.797   9.909 -0.4556  0.5557  1.4328
  565MOL0     C76197   8.129   8.693   9.874  0.8732 -0.2312 -0.4127
  565MOL0     O76198   8.106   8.615   9.766  0.0254 -0.4734  0.3781
  565MOL0     C76199   8.041   8.489   9.813  0.2900 -0.4304  0.8814
  565MOL0     C76200   7.979   8.430   9.684  0.3086  0.2164 -0.8990
  565MOL0     C76201   7.847   8.356   9.687  0.3271 -0.7228 -0.5648
  565MOL0     C76202   7.823   8.269   9.564  0.0282  0.0913  1.0712
  565MOL0     C76203   7.785   8.358   9.458 -0.1297  1.0441 -0.1940
  565MOL0     C76204   7.752   8.435   9.378  0.2220 -0.0008  0.4233
  565MOL0     C76205   8.240   8.665   9.956 -1.1003 -0.4204 -0.2735
  565MOL0     C76206   8.275   8.737  10.070 -0.3063  0.0376  0.4123
  565MOL0     C76207   8.389   8.686  10.151 -1.2748  0.4090 -0.0533
  565MOL0     H76208   8.489   9.001  10.409  0.5596  0.6431 -1.8563
  565MOL0     H76209   8.495   9.124  10.615  0.3963 -0.7108 -1.2342
  565MOL0     H76210   8.510   9.295  10.766  1.1715  1.7382  2.4327
  565MOL0     H76211   8.397   9.369  10.876 -1.7680 -0.6010  0.4248
  565MOL0     H76212   8.390   9.055  10.807  0.0847  1.4672 -2.0682
  565MOL0     H76213   8.275   9.144  10.886  0.1737  1.2814 -2.8806
  565MOL0     H76214   8.507   9.218  11.032  2.1653 -1.6963  0.6788
  565MOL0     H76215   8.532   9.048  11.005 -0.1684 -0.9620  3.0666
  565MOL0     H76216   8.314   8.992  11.080 -0.6640  0.8895 -0.7038
  565MOL0     H76217   8.411   9.072  11.207  0.1111  3.2722  0.9164
  565MOL0     H76218   8.327   9.272  11.187  2.7801 -1.0620 -2.0768
  565MOL0     H76219   8.199   9.230  11.069 -1.5657  2.0849  2.0933
  565MOL0     H76220   8.107   9.058  11.231 -0.7967  0.2535  0.3707
  565MOL0     H76221   8.190   9.128  11.364 -0.0739 -0.2773 -0.0122
  565MOL0     H76222   7.990   9.283  11.191  1.9403 -2.9883 -1.7263
  565MOL0     H76223   8.084   9.363  11.324 -0.5967 -0.0350  1.5672
  565MOL0     H76224   7.906   9.127  11.350  1.3614  0.1803  0.7638
  565MOL0     H76225   7.979   9.244  11.481  1.2390  2.6068 -0.8916
  565MOL0     H76226   7.655   9.211  11.257 -3.1371  2.4379 -0.9951
  565MOL0     H76227   7.472   9.530  11.289  0.5881  0.0843 -0.2754
  565MOL0     H76228   7.466   9.357  11.238  1.1957  1.1881 -0.7508
  565MOL0     H76229   7.278   9.397  11.410  0.2696  0.8164  1.1790
  565MOL0     H76230   7.405   9.300  11.476 -1.4199 -0.3984  0.3409
  565MOL0     H76231   7.426   9.595  11.503 -1.1685 -0.1106 -1.5163
  565MOL0     H76232   7.468   9.475  11.632  1.0884 -1.5545 -1.8113
  565MOL0     H76233   7.277   9.620  11.707  1.4788 -1.8779  0.8093
  565MOL0     H76234   7.235   9.451  11.696 -3.2722  0.3077 -2.0963
  565MOL0     H76235   7.332   9.795  11.588  0.9454  0.6152 -1.0725
  565MOL0     H76236   7.298  10.023  11.491 -0.6401  1.1705 -3.5180
  565MOL0     H76237   7.256  10.406  11.503 -1.0421  0.5112 -0.0361
  565MOL0     H76238   7.301  10.642  11.422 -2.5182  1.3705 -0.0206
  565MOL0     H76239   7.308  10.700  11.056 -2.5835 -0.7382 -0.9191
  565MOL0     H76240   7.233  10.855  11.048  1.7739  0.7136 -0.7709
  565MOL0     H76241   7.366  10.928  11.262  1.7642  0.1706  1.0874
  565MOL0     H76242   7.460  10.773  11.232 -1.0453  1.0746  1.3648
  565MOL0     H76243   7.461  10.905  10.987  0.4684 -0.4421 -0.7446
  565MOL0     H76244   7.428  11.042  11.098 -0.7100 -0.7553  1.2868
  565MOL0     H76245   7.675  10.980  11.020 -0.2421  1.3555 -0.3773
  565MOL0     H76246   7.657  10.856  11.127 -1.4392 -0.2034  0.6966
  565MOL0     H76247   7.600  11.036  11.316  1.6962 -2.2196  1.3502
  565MOL0     H76248   7.660  11.151  11.189  1.2071 -1.0686 -0.5177
  565MOL0     H76249   7.783  10.909  11.322  1.0425 -0.2236 -1.4912
  565MOL0     H76250   7.865  10.988  11.199  0.1119 -1.2205  0.7936
  565MOL0     H76251   7.912  11.068  11.460  1.8192  1.0330 -1.2215
  565MOL0     H76252   7.745  11.136  11.448  2.0228  0.1455  3.2967
  565MOL0     H76253   7.814  11.297  11.300 -0.7328 -0.4040  1.6366
  565MOL0     H76254   7.929  11.295  11.435  0.9549 -0.3771 -0.3203
  565MOL0     H76255   7.079  10.572  11.073  0.6394  0.3392 -0.8411
  565MOL0     H76256   7.034  10.328  11.147  1.5221 -1.5820  1.2492
  565MOL0     H76257   6.970   9.870  11.258 -0.3885 -0.0428  0.4805
  565MOL0     H76258   6.990   9.644  11.382 -1.4920  1.6011 -0.0356
  565MOL0     H76259   8.143   9.342  10.518 -0.5440 -2.2064  4.0161
  565MOL0     H76260   8.131   9.223  10.302  0.1381 -1.1406 -0.9769
  565MOL0     H76261   8.020   8.964  10.035  3.1179  1.2449  0.9643
  565MOL0     H76262   7.965   8.807   9.835  0.8624 -0.7171 -0.2239
  565MOL0     H76263   7.956   8.520   9.874 -1.4559  0.2429 -1.7549
  565MOL0     H76264   8.103   8.422   9.873  0.9175  1.5759  2.6047
  565MOL0     H76265   8.052   8.353   9.657  0.8798  1.1050 -1.9954
  565MOL0     H76266   7.977   8.502   9.601  1.4337  1.7217  0.3032
  565MOL0     H76267   7.764   8.425   9.706  1.7160  1.5764 -2.3977
  565MOL0     H76268   7.848   8.291   9.774  0.5141  1.1212  0.8704
  565MOL0     H76269   7.914   8.217   9.533 -0.5448 -0.2411 -0.1076
  565MOL0     H76270   7.743   8.195   9.573 -1.1634  0.9244 -1.6388
  565MOL0     H76271   7.722   8.491   9.292 -1.8521  0.0204  1.1011
  565MOL0     H76272   8.320   8.596   9.930  2.8333  3.9319 -1.0134
  565MOL0     H76273   8.431   8.763  10.216 -2.6818  1.8532 -0.7905
  565MOL0     H76274   8.345   8.609  10.216 -4.1170  2.5813  0.7993
  565MOL0     H76275   8.469   8.643  10.090 -3.5666 -1.1372 -2.1619
  566MOL0     O76276   4.130   8.774   6.089 -0.2604 -1.0723  0.7743
  566MOL0     C76277   4.065   8.754   5.985 -0.2697 -0.2262  0.2661
  566MOL0     O76278   4.109   8.766   5.854 -0.2053 -0.9020 -0.4157
  566MOL0     C76279   4.238   8.817   5.837 -0.1590 -0.3483  0.1627
  566MOL0     C76280   4.258   8.925   5.760 -0.2997 -1.0532 -0.4175
  566MOL0     C76281   4.391   8.958   5.721 -0.5449 -0.3013 -0.4322
  566MOL0     C76282   4.495   8.878   5.767  0.4417  0.1742  0.2433
  566MOL0     O76283   4.624   8.913   5.739  0.9453 -0.1349 -0.7501
  566MOL0     C76284   4.664   9.025   5.809 -0.2648  0.3236 -0.6493
  566MOL0     C76285   4.817   9.037   5.794 -1.0028 -0.3753  0.4610
  566MOL0     C76286   4.869   9.181   5.771  0.1657 -0.2808 -0.2341
  566MOL0     C76287   4.814   9.276   5.875 -0.3471 -0.3597  0.6444
  566MOL0     C76288   4.902   9.387   5.922  0.2629 -0.3588  0.2313
  566MOL0     C76289   4.965   9.488   5.808  0.2236 -0.5959 -0.1140
  566MOL0     C76290   4.853   9.554   5.719 -0.9360 -0.0376 -0.3682
  566MOL0     C76291   4.915   9.676   5.641 -0.1233  0.4369 -0.3912
  566MOL0     N76292   5.011   9.635   5.543  0.2217 -0.1150 -0.1028
  566MOL0     C76293   5.150   9.626   5.573  0.0831  0.2852  0.1466
  566MOL0     C76294   5.204   9.561   5.463 -0.5264 -0.6551 -0.2478
  566MOL0     C76295   5.332   9.500   5.426 -0.3754 -0.8868 -0.0632
  566MOL0     C76296   5.412   9.438   5.544 -0.1359 -0.6638  0.4977
  566MOL0     C76297   5.547   9.381   5.511  0.6642  0.5073 -0.6649
  566MOL0     C76298   5.635   9.472   5.433 -0.0856 -0.2731 -0.2364
  566MOL0     O76299   5.773   9.443   5.465  0.5871 -0.1390 -0.4078
  566MOL0     C76300   5.857   9.522   5.394  0.5260  0.0235  0.1505
  566MOL0     C76301   5.994   9.499   5.420  0.2059  0.2378  0.4402
  566MOL0     C76302   6.093   9.575   5.362  1.1695 -0.1564  1.0553
  566MOL0     C76303   6.052   9.681   5.268 -0.4000  1.4836  0.4162
  566MOL0     C76304   6.159   9.743   5.182  0.5031  0.5780  0.4933
  566MOL0     O76305   6.108   9.842   5.094 -1.1747 -0.6759  0.7704
  566MOL0     C76306   6.212   9.933   5.065 -0.3856 -0.2486  0.3991
  566MOL0     C76307   6.254  10.021   5.160 -0.4503  0.1399 -0.9441
  566MOL0     C76308   6.363  10.111   5.135 -0.1957  1.0890 -0.0065
  566MOL0     C76309   6.430  10.108   5.004 -0.1248  0.4084 -0.2924
  566MOL0     O76310   6.539  10.185   4.998 -0.2803  0.1316  0.1330
  566MOL0     C76311   6.610  10.225   4.878  0.6454  0.5273 -0.4768
  566MOL0     C76312   6.687  10.353   4.895  0.2506 -0.5179  0.1471
  566MOL0     C76313   6.781  10.385   4.773  0.5323 -0.2773  0.0037
  566MOL0     C76314   6.930  10.345   4.795 -0.4675  0.0001 -0.1334
  566MOL0     C76315   6.964  10.200   4.794  0.6757 -0.9970 -1.4014
  566MOL0     C76316   6.913  10.134   4.663  0.4025  0.2433  0.3099
  566MOL0     C76317   6.927   9.977   4.686 -0.6652 -0.6503 -0.8083
  566MOL0     C76318   6.894   9.898   4.566  0.3376 -0.4324 -0.3321
  566MOL0    Cl76319   6.720   9.923   4.540 -0.1138  0.7592 -0.0465
  566MOL0     C76320   6.383  10.023   4.909 -0.2331 -0.3192  0.0776
  566MOL0     C76321   6.278   9.929   4.934  1.2702 -0.8131 -0.1139
  566MOL0     O76322   6.281   9.732   5.213  0.4512 -0.1932 -0.1616
  566MOL0     C76323   5.919   9.705   5.247 -0.1189  0.0924  0.0115
  566MOL0     C76324   5.823   9.628   5.313  0.4145 -0.5940  0.6089
  566MOL0     N76325   5.099   9.540   5.375 -0.4085  0.1969  0.1813
  566MOL0     N76326   4.976   9.570   5.430 -0.0568 -0.1651  0.3236
  566MOL0     C76327   4.470   8.769   5.848 -0.8552  0.2093 -0.2480
  566MOL0     C76328   4.342   8.733   5.875  0.7672  0.4636 -0.4768
  566MOL0     C76329   3.915   8.729   5.995 -0.0725 -0.4309  0.2220
  566MOL0     C76330   3.853   8.660   6.108  0.7908 -0.3550  0.4943
  566MOL0     C76331   3.719   8.634   6.114  0.0618 -0.6030 -0.0234
  566MOL0     C76332   3.633   8.680   6.007 -0.6987 -1.3269  0.0382
  566MOL0     O76333   3.501   8.658   5.994 -0.0030 -0.4096  0.2949
  566MOL0     C76334   3.420   8.613   6.111 -0.2920  0.6899 -0.3658
  566MOL0     C76335   3.358   8.730   6.180 -0.1338  0.1906  0.3485
  566MOL0     C76336   3.294   8.695   6.313  0.3610 -0.5000 -0.5241
  566MOL0     C76337   3.287   8.819   6.406 -0.1540 -0.0249 -0.2113
  566MOL0     C76338   3.196   8.799   6.519 -0.0233  0.1508 -0.1144
  566MOL0     C76339   3.126   8.787   6.617 -0.5050 -0.5193  0.8705
  566MOL0     C76340   3.687   8.767   5.915 -0.9877 -0.6420  0.1930
  566MOL0     C76341   3.827   8.788   5.903 -0.5460  0.4425  0.2612
  566MOL0     C76342   3.871   8.870   5.783 -0.7127 -0.1681  0.4407
  566MOL0     H76343   4.165   8.969   5.724 -1.5648 -3.4774 -0.2737
  566MOL0     H76344   4.404   9.035   5.646 -1.5417  1.1942  0.8765
  566MOL0     H76345   4.608   9.103   5.756 -1.5782 -1.5579 -2.1594
  566MOL0     H76346   4.633   9.047   5.911  1.4886  2.2284 -0.4498
  566MOL0     H76347   4.859   8.973   5.716  0.2184  2.6444 -1.5496
  566MOL0     H76348   4.860   8.999   5.887 -3.1649  1.0751  2.1678
  566MOL0     H76349   4.841   9.213   5.670  1.4951 -0.6015 -0.7223
  566MOL0     H76350   4.978   9.187   5.770  0.5738 -4.6358 -2.4930
  566MOL0     H76351   4.722   9.319   5.836  1.5049  4.4799  0.8953
  566MOL0     H76352   4.782   9.231   5.969 -3.1255 -0.0044 -0.0536
  566MOL0     H76353   4.834   9.446   5.983 -1.2130 -1.9132  0.1436
  566MOL0     H76354   4.987   9.362   5.987  2.1155  3.9405 -0.2022
  566MOL0     H76355   5.032   9.565   5.846  0.9396 -0.0197 -2.4149
  566MOL0     H76356   5.026   9.423   5.745 -0.3960 -1.1442 -0.1614
  566MOL0     H76357   4.783   9.600   5.790  0.2304  1.5535 -0.2105
  566MOL0     H76358   4.799   9.481   5.657 -1.8355  1.6078 -1.5800
  566MOL0     H76359   4.832   9.726   5.590 -0.2978 -0.3380 -0.8944
  566MOL0     H76360   4.966   9.742   5.711 -0.0127 -0.1137  0.0510
  566MOL0     H76361   5.187   9.671   5.665 -1.3854  4.5769 -1.1324
  566MOL0     H76362   5.292   9.430   5.352 -2.5583  1.5195 -1.3290
  566MOL0     H76363   5.394   9.574   5.375  1.6594 -3.1091 -0.9876
  566MOL0     H76364   5.427   9.516   5.619  1.6630 -0.2740 -0.2072
  566MOL0     H76365   5.357   9.353   5.584 -0.4759 -0.9853 -0.5994
  566MOL0     H76366   5.523   9.287   5.460 -1.5826  0.0836  0.9980
  566MOL0     H76367   5.585   9.365   5.612 -1.2655  2.2225  0.3962
  566MOL0     H76368   5.613   9.575   5.462  0.3107 -0.9303  2.7871
  566MOL0     H76369   5.607   9.466   5.328 -2.6076  1.1675  0.2674
  566MOL0     H76370   6.019   9.419   5.489  1.5431  1.2639  1.1923
  566MOL0     H76371   6.196   9.548   5.380  1.2425 -0.9294 -0.4119
  566MOL0     H76372   6.222  10.027   5.264 -2.7660 -1.3060 -1.4965
  566MOL0     H76373   6.403  10.175   5.213 -2.2613  0.4146  1.6972
  566MOL0     H76374   6.680  10.149   4.842 -1.8622 -1.7693 -0.8847
  566MOL0     H76375   6.534  10.218   4.800  0.4549 -0.3007 -0.2334
  566MOL0     H76376   6.613  10.433   4.907  2.2646  1.1629  2.2483
  566MOL0     H76377   6.734  10.354   4.993 -1.5548 -0.7215  1.0467
  566MOL0     H76378   6.747  10.343   4.678 -0.0339 -0.5729  0.3329
  566MOL0     H76379   6.793  10.494   4.764 -0.6976 -0.1708 -0.6701
  566MOL0     H76380   6.958  10.390   4.890 -1.3661  1.0913 -0.3785
  566MOL0     H76381   6.993  10.395   4.721 -2.2777  4.2057  0.8797
  566MOL0     H76382   6.927  10.154   4.887 -0.1575  0.6384 -0.8777
  566MOL0     H76383   7.071  10.200   4.813  0.5107 -0.6055 -0.4067
  566MOL0     H76384   6.806  10.148   4.652  0.6317  1.7874 -0.1065
  566MOL0     H76385   6.953  10.156   4.563 -2.8542 -0.7733 -1.3609
  566MOL0     H76386   6.872   9.939   4.773 -0.4679 -2.8316 -1.5686
  566MOL0     H76387   7.030   9.960   4.720 -2.1663  0.0476  5.2488
  566MOL0     H76388   6.955   9.943   4.487 -2.7106  4.0459 -0.4977
  566MOL0     H76389   6.931   9.796   4.578  2.8439  0.1340 -2.2871
  566MOL0     H76390   6.434  10.006   4.814 -1.3195  0.1284 -0.6121
  566MOL0     H76391   6.246   9.858   4.858 -1.3243 -1.6983  1.6836
  566MOL0     H76392   5.875   9.769   5.170 -1.4498 -2.9630 -1.9800
  566MOL0     H76393   5.720   9.649   5.288  0.4497 -0.1848  0.8043
  566MOL0     H76394   4.554   8.718   5.896  0.8312 -0.0992 -3.2838
  566MOL0     H76395   4.330   8.641   5.932  1.2654  1.3361  1.1185
  566MOL0     H76396   3.912   8.621   6.191  1.9161  1.9703  0.8731
  566MOL0     H76397   3.680   8.566   6.190  1.1820 -2.5599 -1.1023
  566MOL0     H76398   3.481   8.571   6.191 -0.2136 -0.3423 -0.9535
  566MOL0     H76399   3.344   8.543   6.075 -1.6074  0.7197  2.0892
  566MOL0     H76400   3.288   8.774   6.109  0.3904  0.7128  0.1447
  566MOL0     H76401   3.448   8.790   6.198 -1.8543  2.7512  0.8079
  566MOL0     H76402   3.343   8.615   6.370 -1.5207 -1.1948  0.1984
  566MOL0     H76403   3.189   8.667   6.296 -0.9034  0.1648  4.5079
  566MOL0     H76404   3.391   8.833   6.439  0.5195 -2.0403 -1.3181
  566MOL0     H76405   3.265   8.914   6.357 -4.5213 -1.1394 -0.7829
  566MOL0     H76406   3.064   8.766   6.702  0.9269 -3.9896  1.2248
  566MOL0     H76407   3.627   8.820   5.841  0.8054  2.4216  0.7657
  566MOL0     H76408   3.784   8.891   5.720 -0.4382 -2.2330 -0.7300
  566MOL0     H76409   3.928   8.956   5.819  0.4274  0.2169 -2.0586
  566MOL0     H76410   3.932   8.818   5.707 -3.4401 -1.1903 -1.2058
  567MOL0     O76411  10.388   1.959   3.873 -0.0613 -0.2991  0.3297
  567MOL0     C76412  10.419   1.879   3.782 -0.0986  0.1775  0.2435
  567MOL0     O76413  10.431   1.739   3.802  0.2009 -0.9282  0.3781
  567MOL0     C76414  10.390   1.689   3.915  0.0438 -0.3873  0.1249
  567MOL0     C76415  10.253   1.672   3.949 -0.5972 -0.8656  1.2868
  567MOL0     C76416  10.222   1.609   4.073 -0.3642 -0.3171  0.5251
  567MOL0     C76417  10.320   1.570   4.161 -0.0461  0.0722 -0.1777
  567MOL0     O76418  10.285   1.512   4.279  0.4156 -0.0335  0.1212
  567MOL0     C76419  10.356   1.565   4.391 -0.4213 -0.0152  0.1770
  567MOL0     C76420  10.301   1.493   4.518 -0.3756  0.0168 -0.8049
  567MOL0     C76421  10.332   1.577   4.634  0.6314  0.1148 -0.1959
  567MOL0     C76422  10.259   1.516   4.758 -0.1424  0.2602  1.1032
  567MOL0     C76423  10.318   1.561   4.897 -0.2201 -0.6172 -0.4430
  567MOL0     C76424  10.339   1.712   4.936  0.2442  0.0704  0.9212
  567MOL0     C76425  10.402   1.731   5.078 -0.7286  0.1442 -0.1056
  567MOL0     C76426  10.325   1.676   5.195 -0.3187 -0.3759 -0.8400
  567MOL0     N76427  10.179   1.702   5.209  0.6390 -1.2877 -0.4078
  567MOL0     C76428  10.112   1.688   5.328  0.5778 -0.0697  0.8661
  567MOL0     C76429   9.991   1.750   5.303  0.5045  0.6429 -0.4080
  567MOL0     C76430   9.883   1.744   5.410  0.4687  0.4332  0.0553
  567MOL0     C76431   9.839   1.889   5.452 -0.4958  1.4515  0.4970
  567MOL0     C76432   9.760   1.879   5.583  0.0705 -0.8819  0.4232
  567MOL0     C76433   9.673   2.006   5.613 -0.1461 -0.4085  1.2394
  567MOL0     O76434   9.588   1.985   5.724  0.4815  0.1144 -0.2926
  567MOL0     C76435   9.521   2.098   5.763 -0.9522  1.0599 -0.5692
  567MOL0     C76436   9.424   2.165   5.700 -0.4666 -0.0451  0.3232
  567MOL0     C76437   9.349   2.265   5.766 -0.1487 -0.1223  0.2640
  567MOL0     C76438   9.374   2.293   5.901 -0.7142 -0.0249 -0.1514
  567MOL0     C76439   9.311   2.403   5.969 -0.1053 -0.1982 -0.0530
  567MOL0     O76440   9.326   2.414   6.101  0.0259  0.3304 -0.0120
  567MOL0     C76441   9.259   2.516   6.164 -0.6100 -0.3622  0.6821
  567MOL0     C76442   9.314   2.558   6.285 -0.5612  0.7279  0.0498
  567MOL0     C76443   9.270   2.663   6.358 -0.0656 -0.9629  0.2142
  567MOL0     C76444   9.156   2.741   6.317 -1.2112  0.0501 -0.6059
  567MOL0     O76445   9.122   2.844   6.398  0.7101 -0.2915 -0.1095
  567MOL0     C76446   9.002   2.918   6.357 -0.5647  0.3995  0.6655
  567MOL0     C76447   8.974   3.027   6.465 -0.2626 -0.3077  0.3652
  567MOL0     C76448   8.868   3.127   6.417 -0.1493 -0.4108  1.0262
  567MOL0     C76449   8.726   3.064   6.437  0.1637  0.2095 -0.2263
  567MOL0     C76450   8.616   3.162   6.379  0.2232 -0.8130  0.3540
  567MOL0     C76451   8.466   3.116   6.397  0.5012 -0.2493 -0.6962
  567MOL0     C76452   8.432   2.968   6.375  0.2995 -0.1687  0.2699
  567MOL0     C76453   8.434   2.906   6.234  0.5102 -0.1938 -0.0682
  567MOL0    Cl76454   8.302   2.974   6.135 -0.1379  0.3159 -0.6449
  567MOL0     C76455   9.091   2.693   6.200 -0.6274  1.0985  0.6477
  567MOL0     C76456   9.139   2.573   6.132 -0.2674  0.3590 -0.0432
  567MOL0     O76457   9.254   2.481   5.897  0.9365 -0.3265 -0.1115
  567MOL0     C76458   9.484   2.228   5.964  0.1644  0.8248 -0.3112
  567MOL0     C76459   9.557   2.127   5.896  0.2835 -0.6660 -0.5220
  567MOL0     N76460   9.990   1.812   5.181 -1.3677 -0.4385 -0.6487
  567MOL0     N76461  10.109   1.790   5.134  0.4279 -0.4202  0.1100
  567MOL0     C76462  10.452   1.581   4.121 -0.9693 -0.7345 -0.5966
  567MOL0     C76463  10.476   1.631   4.001 -0.4742  0.3317  0.5703
  567MOL0     C76464  10.460   1.927   3.653 -0.6364  0.6640  0.2218
  567MOL0     C76465  10.449   1.840   3.543  0.2711  0.0232 -0.5074
  567MOL0     C76466  10.495   1.875   3.420 -1.1405 -0.1899  0.3461
  567MOL0     C76467  10.561   1.996   3.393 -0.7946 -0.4605 -0.6272
  567MOL0     O76468  10.608   2.042   3.267  0.0883 -0.4744  0.6645
  567MOL0     C76469  10.615   1.966   3.143 -0.6192 -0.2964 -0.4362
  567MOL0     C76470  10.476   1.955   3.070 -0.1896  0.3744  0.8761
  567MOL0     C76471  10.429   2.081   2.995 -0.2831 -0.0130 -0.3912
  567MOL0     C76472  10.306   2.062   2.905 -0.4612  0.4291 -0.9398
  567MOL0     C76473  10.325   1.989   2.779  0.1400 -0.3770 -0.0576
  567MOL0     C76474  10.326   1.910   2.684 -0.1437  0.3734 -0.7941
  567MOL0     C76475  10.570   2.089   3.502  0.7892  0.0203  0.0443
  567MOL0     C76476  10.521   2.057   3.630 -0.1178  1.0675  0.0935
  567MOL0     C76477  10.523   2.171   3.736  0.3481  0.0446  0.8633
  567MOL0     H76478  10.181   1.700   3.873  2.3252  1.0326 -1.0159
  567MOL0     H76479  10.119   1.599   4.106 -0.6056 -0.7595 -0.3363
  567MOL0     H76480  10.461   1.534   4.381  0.1469  1.9136 -0.3408
  567MOL0     H76481  10.331   1.671   4.387 -2.1546 -0.3222  1.7119
  567MOL0     H76482  10.344   1.393   4.528  1.7163  1.0413  2.3212
  567MOL0     H76483  10.194   1.478   4.507 -0.3581  0.4106 -1.5816
  567MOL0     H76484  10.278   1.672   4.622 -0.5173 -0.7466 -2.5622
  567MOL0     H76485  10.437   1.584   4.661  0.1599  2.1619  1.2950
  567MOL0     H76486  10.155   1.550   4.750 -0.3892 -0.5044  0.9477
  567MOL0     H76487  10.266   1.407   4.759  0.0344  0.2467  3.1943
  567MOL0     H76488  10.249   1.522   4.973  0.8702 -1.8467 -0.0316
  567MOL0     H76489  10.416   1.513   4.913 -1.3848 -3.2493 -0.6960
  567MOL0     H76490  10.420   1.750   4.874  0.3702 -1.7137 -0.0838
  567MOL0     H76491  10.256   1.782   4.924  0.5825  0.6276  1.7693
  567MOL0     H76492  10.425   1.834   5.107  1.2450 -0.2060 -0.2702
  567MOL0     H76493  10.499   1.680   5.077 -0.2497  1.0071  0.7409
  567MOL0     H76494  10.350   1.570   5.187  0.9898 -0.5926  3.4686
  567MOL0     H76495  10.367   1.696   5.295 -1.4277  0.4016 -0.5145
  567MOL0     H76496  10.140   1.624   5.411  1.6952 -0.9214 -0.1284
  567MOL0     H76497   9.791   1.691   5.385 -0.2025  1.8540 -0.6601
  567MOL0     H76498   9.924   1.702   5.502  0.9239 -0.3638 -0.5003
  567MOL0     H76499   9.928   1.949   5.474 -0.2341  1.3056 -0.1096
  567MOL0     H76500   9.773   1.945   5.385 -3.9310 -0.4677  2.0362
  567MOL0     H76501   9.819   1.848   5.670 -0.3645  0.1950  1.1231
  567MOL0     H76502   9.688   1.800   5.562  1.5411 -1.8242 -1.3521
  567MOL0     H76503   9.608   2.024   5.527  0.0722 -2.3739  0.6094
  567MOL0     H76504   9.732   2.096   5.629 -2.4429  1.3175  0.6100
  567MOL0     H76505   9.417   2.145   5.594  1.3595 -1.7582  0.4596
  567MOL0     H76506   9.268   2.313   5.711  1.2068 -0.5195 -2.2076
  567MOL0     H76507   9.406   2.520   6.327 -0.3979  1.8815  0.7804
  567MOL0     H76508   9.320   2.690   6.450 -1.2742 -0.9796  0.8967
  567MOL0     H76509   9.004   2.977   6.265 -1.2058  1.2740  1.1824
  567MOL0     H76510   8.908   2.862   6.359 -0.8172  0.7529  3.6841
  567MOL0     H76511   8.929   2.983   6.555 -2.4101  2.5090  0.8038
  567MOL0     H76512   9.055   3.089   6.505 -0.5360  0.0030  0.4463
  567MOL0     H76513   8.875   3.218   6.476  0.4584  0.3340 -0.1461
  567MOL0     H76514   8.884   3.156   6.312 -1.0678 -1.0066  0.7102
  567MOL0     H76515   8.716   3.059   6.545 -0.6362 -0.4703 -0.3222
  567MOL0     H76516   8.717   2.963   6.395 -0.3532 -0.1162  0.6509
  567MOL0     H76517   8.630   3.161   6.270  0.8524 -2.7528  0.4223
  567MOL0     H76518   8.639   3.262   6.417 -5.3279  0.3343  1.5010
  567MOL0     H76519   8.433   3.153   6.495  0.0073 -0.4422 -0.7928
  567MOL0     H76520   8.421   3.167   6.312  2.0916 -0.8643 -1.9543
  567MOL0     H76521   8.333   2.947   6.417 -0.7614  0.5282 -1.7192
  567MOL0     H76522   8.493   2.906   6.440  1.6298  0.0741 -0.7132
  567MOL0     H76523   8.532   2.927   6.190  1.2067 -1.4693  0.7960
  567MOL0     H76524   8.416   2.798   6.245 -3.7685  0.3447  0.0012
  567MOL0     H76525   9.015   2.746   6.143 -1.3025 -1.7422 -1.3388
  567MOL0     H76526   9.083   2.546   6.043  0.4427  2.4963 -1.2280
  567MOL0     H76527   9.518   2.255   6.063 -0.6551  0.7257  0.0082
  567MOL0     H76528   9.638   2.072   5.944  1.3437  2.4506  1.5626
  567MOL0     H76529  10.543   1.554   4.174 -0.1488  1.8340 -0.5405
  567MOL0     H76530  10.575   1.611   3.963 -0.0350 -0.7801  2.2266
  567MOL0     H76531  10.411   1.741   3.567  2.0280  0.1408  3.4838
  567MOL0     H76532  10.489   1.796   3.346  0.1810  0.2052 -0.2189
  567MOL0     H76533  10.673   1.875   3.163  1.6237  0.6425 -2.2960
  567MOL0     H76534  10.689   2.008   3.075  0.6146 -1.5184  0.1132
  567MOL0     H76535  10.404   1.929   3.149 -2.0070  0.6645 -0.6002
  567MOL0     H76536  10.473   1.873   2.998 -3.7645 -1.4289  2.7937
  567MOL0     H76537  10.510   2.103   2.924 -1.6637  0.6275 -1.8190
  567MOL0     H76538  10.412   2.166   3.060 -3.0585  1.6957 -3.0534
  567MOL0     H76539  10.223   2.029   2.967 -2.1060  2.1918 -2.0943
  567MOL0     H76540  10.281   2.164   2.876 -5.6095 -0.0606  0.8517
  567MOL0     H76541  10.320   1.831   2.612 -1.3269  0.7612 -1.1407
  567MOL0     H76542  10.602   2.190   3.480 -1.2067  1.4117  2.8966
  567MOL0     H76543  10.586   2.157   3.824 -1.4222  0.5603  2.2771
  567MOL0     H76544  10.551   2.265   3.687 -0.2698 -0.7167 -1.0804
  567MOL0     H76545  10.422   2.190   3.774  1.1749  0.6406  2.8514
  568MOL0     O76546   7.851  10.246   8.924  0.0890 -0.2346  0.3264
  568MOL0     C76547   7.748  10.318   8.944  0.1017  0.6914  0.8266
  568MOL0     O76548   7.678  10.311   9.059  0.4453 -0.2170 -0.1851
  568MOL0     C76549   7.746  10.336   9.173 -0.8349 -0.7226 -0.7482
  568MOL0     C76550   7.680  10.310   9.288 -0.2027  0.8044 -0.8078
  568MOL0     C76551   7.743  10.317   9.413  0.6090 -0.1002  0.1810
  568MOL0     C76552   7.871  10.373   9.423 -0.2883 -0.1593  0.0505
  568MOL0     O76553   7.919  10.401   9.551 -0.3532 -0.1558  0.6472
  568MOL0     C76554   8.057  10.428   9.567  0.2168 -1.0558 -0.2267
  568MOL0     C76555   8.065  10.475   9.713  0.6321 -0.1040  0.8926
  568MOL0     C76556   8.210  10.520   9.749  0.1920  0.1592 -0.6566
  568MOL0     C76557   8.202  10.603   9.881  0.1791 -0.4764 -0.6419
  568MOL0     C76558   8.332  10.645   9.956  0.5792  0.0949 -0.6885
  568MOL0     C76559   8.406  10.761   9.879  0.5003  0.4801  0.5881
  568MOL0     C76560   8.482  10.864   9.972 -0.5352  0.0203 -0.2708
  568MOL0     C76561   8.638  10.851   9.971  0.9585 -0.2345 -0.3391
  568MOL0     N76562   8.704  10.960  10.038 -0.6165 -0.0047  0.2397
  568MOL0     C76563   8.685  11.094  10.027  0.7237  0.2967  0.2919
  568MOL0     C76564   8.769  11.150  10.112 -0.4804  0.7877  0.3588
  568MOL0     C76565   8.764  11.291  10.143  1.0344 -0.5378 -0.8617
  568MOL0     C76566   8.618  11.357  10.144 -0.0983  0.1999 -0.1023
  568MOL0     C76567   8.597  11.446  10.026 -0.6922 -0.8941  0.6184
  568MOL0     C76568   8.457  11.502   9.996 -0.1434  0.7059  0.3262
  568MOL0     O76569   8.398  11.550  10.121  0.1825  0.6384 -0.1264
  568MOL0     C76570   8.304  11.649  10.098  0.0933  0.2177 -0.5356
  568MOL0     C76571   8.213  11.658   9.988  0.7820 -0.1383 -0.4126
  568MOL0     C76572   8.125  11.764   9.978 -0.8353 -0.6105 -0.6431
  568MOL0     C76573   8.124  11.870  10.073 -0.4903  0.0817 -0.6852
  568MOL0     C76574   8.021  11.979  10.056 -0.1772  0.5899  0.1911
  568MOL0     O76575   7.906  11.959   9.979 -0.1221  0.4346 -0.2656
  568MOL0     C76576   7.806  12.054   9.966  0.8424 -0.2970  0.3080
  568MOL0     C76577   7.780  12.168  10.046 -0.0957  0.0044 -0.4338
  568MOL0     C76578   7.670  12.244  10.029  0.1061 -0.6697 -0.5440
  568MOL0     C76579   7.580  12.211   9.924 -0.0402 -0.2942 -0.5578
  568MOL0     O76580   7.467  12.293   9.913 -1.2003  1.1394  0.6679
  568MOL0     C76581   7.500  12.426   9.861  0.2757  0.5909 -0.1644
  568MOL0     C76582   7.498  12.416   9.712 -0.4000  0.1662 -0.5627
  568MOL0     C76583   7.470  12.549   9.651 -0.1637  0.4789  0.0654
  568MOL0     C76584   7.364  12.536   9.549  0.8688  0.3725  0.2244
  568MOL0     C76585   7.329  12.669   9.479  0.9441 -1.0714  0.3292
  568MOL0     C76586   7.197  12.666   9.413  0.1927  0.4405  0.3996
  568MOL0     C76587   7.163  12.796   9.323 -0.7935 -0.4836 -0.2023
  568MOL0     C76588   7.013  12.791   9.274 -0.2322 -0.0720  0.0386
  568MOL0    Cl76589   6.995  12.939   9.174  0.4910 -0.0231  0.3735
  568MOL0     C76590   7.601  12.096   9.850  0.5747 -0.2372  0.7056
  568MOL0     C76591   7.716  12.018   9.869 -0.3813  0.6336 -0.5943
  568MOL0     O76592   8.045  12.077  10.125 -0.0755 -0.2018  0.2086
  568MOL0     C76593   8.228  11.869  10.174 -0.9943 -0.9921  0.7985
  568MOL0     C76594   8.313  11.760  10.188 -0.2052  0.1243  0.6883
  568MOL0     N76595   8.841  11.045  10.167  0.5654 -0.1754 -0.0437
  568MOL0     N76596   8.811  10.932  10.117 -0.1070 -0.8167 -0.0977
  568MOL0     C76597   7.939  10.404   9.298 -0.0387 -0.3312 -0.2839
  568MOL0     C76598   7.880  10.378   9.179 -0.4107  1.1355  0.3944
  568MOL0     C76599   7.685  10.389   8.835  0.5145 -0.6259 -0.2663
  568MOL0     C76600   7.555  10.428   8.853  0.5744 -0.3334 -0.1970
  568MOL0     C76601   7.482  10.493   8.757  0.1301 -0.4150  0.1542
  568MOL0     C76602   7.533  10.517   8.629  0.6643  0.3677  0.1525
  568MOL0     O76603   7.457  10.581   8.535 -0.1852  0.3540  0.3405
  568MOL0     C76604   7.520  10.635   8.425  0.0919  0.0626  0.3076
  568MOL0     C76605   7.411  10.719   8.347  0.7147 -0.2644  0.2723
  568MOL0     C76606   7.364  10.859   8.403  0.2655 -0.7102  0.3844
  568MOL0     C76607   7.318  10.950   8.287  0.4977  0.3441  0.4256
  568MOL0     C76608   7.177  10.943   8.261  0.1841 -0.1849  0.1890
  568MOL0     C76609   7.058  10.926   8.238 -0.1813  0.2625  0.4451
  568MOL0     C76610   7.653  10.451   8.602 -0.0394 -0.6317  0.2191
  568MOL0     C76611   7.733  10.397   8.702  0.1738 -0.6246  0.7791
  568MOL0     C76612   7.865  10.346   8.659 -0.2575 -0.1327 -1.0824
  568MOL0     H76613   7.579  10.271   9.283 -1.1568  3.0821 -0.5382
  568MOL0     H76614   7.699  10.278   9.504  0.8968 -1.2161 -0.1401
  568MOL0     H76615   8.122  10.346   9.537 -0.1934 -0.8223 -1.8207
  568MOL0     H76616   8.088  10.512   9.503 -1.2581  0.6891  1.2362
  568MOL0     H76617   8.032  10.395   9.779 -2.1262  0.2262  0.0317
  568MOL0     H76618   7.994  10.558   9.723  1.6311  0.7443  1.1994
  568MOL0     H76619   8.238  10.591   9.670 -0.9906 -1.3626 -2.5284
  568MOL0     H76620   8.279  10.438   9.732 -1.4549 -1.4478  0.1017
  568MOL0     H76621   8.141  10.694   9.876 -1.4039 -1.0879  3.4548
  568MOL0     H76622   8.143  10.549   9.956  1.2028 -2.3465 -1.1428
  568MOL0     H76623   8.311  10.674  10.059  3.9446  1.3709 -0.2299
  568MOL0     H76624   8.398  10.558   9.960 -0.9023 -1.2029 -2.5783
  568MOL0     H76625   8.481  10.719   9.811  1.2179  1.0062  1.0518
  568MOL0     H76626   8.336  10.827   9.826  2.8543  1.1857 -1.8569
  568MOL0     H76627   8.457  10.860  10.078  1.5096 -1.0690  0.2132
  568MOL0     H76628   8.462  10.968   9.945  1.6363  0.8291  0.9859
  568MOL0     H76629   8.659  10.754  10.017  2.0978  0.9770  1.8643
  568MOL0     H76630   8.670  10.835   9.868  2.5182 -1.0396  0.2358
  568MOL0     H76631   8.612  11.150   9.969 -0.6980  0.9194  2.5841
  568MOL0     H76632   8.801  11.296  10.246 -0.7206  1.3260 -0.2575
  568MOL0     H76633   8.837  11.357  10.096  1.9660 -0.5749  0.4589
  568MOL0     H76634   8.538  11.282  10.140  2.4330 -2.7023 -1.4754
  568MOL0     H76635   8.610  11.422  10.231  2.1305  1.4757 -0.7623
  568MOL0     H76636   8.638  11.398   9.937  0.9540  3.5633 -1.3622
  568MOL0     H76637   8.660  11.536  10.025 -1.3390 -0.4298 -0.2709
  568MOL0     H76638   8.388  11.430   9.950  0.7255  0.5251 -0.7328
  568MOL0     H76639   8.456  11.590   9.932  1.4289  1.4860  1.3027
  568MOL0     H76640   8.221  11.586   9.908 -1.7360 -0.7524 -0.1978
  568MOL0     H76641   8.076  11.782   9.883  0.9888  1.3961 -1.2876
  568MOL0     H76642   7.849  12.193  10.125  0.6768  1.8431 -1.6427
  568MOL0     H76643   7.650  12.331  10.091 -1.0181 -0.1536 -1.5768
  568MOL0     H76644   7.418  12.490   9.895  0.6703 -0.5926  3.5100
  568MOL0     H76645   7.588  12.473   9.906  0.5225  0.2587 -0.3005
  568MOL0     H76646   7.583  12.370   9.662 -1.3344 -2.9723  0.5382
  568MOL0     H76647   7.415  12.352   9.682  1.5980 -4.3781  2.5788
  568MOL0     H76648   7.426  12.620   9.721  0.7160  0.4142  0.6934
  568MOL0     H76649   7.560  12.585   9.601  0.0709 -0.5724 -0.2905
  568MOL0     H76650   7.270  12.507   9.596  0.6659  0.6315 -0.0151
  568MOL0     H76651   7.395  12.464   9.473 -0.3122 -0.1402  0.2134
  568MOL0     H76652   7.407  12.684   9.405 -1.8197  1.0339 -2.4063
  568MOL0     H76653   7.327  12.745   9.558 -1.5942 -2.5671  1.8416
  568MOL0     H76654   7.194  12.577   9.349  1.2065  1.4427 -1.1188
  568MOL0     H76655   7.129  12.653   9.498  2.2250  3.2365  2.6611
  568MOL0     H76656   7.232  12.788   9.238 -0.6272 -2.1758  0.0469
  568MOL0     H76657   7.188  12.880   9.388 -1.6974  1.0281 -1.7539
  568MOL0     H76658   7.002  12.701   9.213 -1.3600  1.0829 -1.5622
  568MOL0     H76659   6.949  12.777   9.362 -0.1486 -4.6416 -0.3747
  568MOL0     H76660   7.519  12.054   9.793  2.7768 -2.5723 -0.9803
  568MOL0     H76661   7.734  11.920   9.825  2.6193 -0.9817  3.5954
  568MOL0     H76662   8.251  11.962  10.226  3.3635  0.7637 -3.4612
  568MOL0     H76663   8.386  11.768  10.268 -0.8430  0.4330  1.2482
  568MOL0     H76664   8.039  10.446   9.305 -0.1138 -0.0055 -1.1117
  568MOL0     H76665   7.951  10.386   9.098 -1.1788  1.3384 -0.2705
  568MOL0     H76666   7.498  10.421   8.945  1.8526 -1.3510  0.5571
  568MOL0     H76667   7.391  10.542   8.792  0.1846 -1.4516  1.8764
  568MOL0     H76668   7.561  10.560   8.356  0.4186 -1.4157  2.0379
  568MOL0     H76669   7.605  10.703   8.433 -0.5924  1.3631 -2.3104
  568MOL0     H76670   7.326  10.651   8.336  0.1362  0.2294  1.4909
  568MOL0     H76671   7.450  10.742   8.248 -0.3657  2.4647  0.4036
  568MOL0     H76672   7.452  10.904   8.450  1.2074 -2.9086  0.8520
  568MOL0     H76673   7.283  10.855   8.476 -1.7757 -0.1243 -1.7318
  568MOL0     H76674   7.332  11.050   8.329  1.5930 -0.7705  2.8993
  568MOL0     H76675   7.378  10.931   8.197  2.3610 -4.2303  2.3148
  568MOL0     H76676   6.953  10.909   8.225  0.2648 -3.3235  0.4248
  568MOL0     H76677   7.700  10.473   8.506 -2.5217  0.7959 -0.7382
  568MOL0     H76678   7.862  10.237   8.659 -1.0524 -0.1729  1.5880
  568MOL0     H76679   7.890  10.397   8.566 -2.7695  3.3604 -0.0494
  568MOL0     H76680   7.951  10.369   8.724 -1.0583 -3.1661  1.2888
  569MOL0     O76681   7.392   5.516  10.361 -0.1051 -0.0290 -0.6828
  569MOL0     C76682   7.451   5.609  10.305  0.8514 -0.1120  0.7803
  569MOL0     O76683   7.395   5.719  10.271 -0.2355 -0.1207 -0.4491
  569MOL0     C76684   7.279   5.761  10.339  0.7512  0.5197  0.6507
  569MOL0     C76685   7.157   5.685  10.340 -0.8311  0.4015  0.2744
  569MOL0     C76686   7.042   5.725  10.409  0.2958 -0.7041 -0.5284
  569MOL0     C76687   7.044   5.852  10.475  0.4464  0.2796  0.3548
  569MOL0     O76688   6.938   5.890  10.542  0.0662  0.2909 -0.2320
  569MOL0     C76689   6.915   5.802  10.655 -0.2542  0.9502 -0.3387
  569MOL0     C76690   6.893   5.893  10.784 -0.0684  0.7266 -0.2844
  569MOL0     C76691   6.756   5.961  10.776 -0.9841  0.9802  0.4652
  569MOL0     C76692   6.737   6.031  10.908  0.4693  0.3505 -0.8498
  569MOL0     C76693   6.648   6.155  10.894 -0.3252  0.9636 -0.3033
  569MOL0     C76694   6.501   6.121  10.861 -0.4362 -0.0606  0.1254
  569MOL0     C76695   6.443   6.022  10.955  0.7152  0.1237  0.3599
  569MOL0     C76696   6.286   6.021  10.952 -0.2091  0.3789 -0.8567
  569MOL0     N76697   6.210   5.912  11.015 -0.2887  0.3682  0.0810
  569MOL0     C76698   6.238   5.873  11.145  0.1018 -0.4986  0.1816
  569MOL0     C76699   6.151   5.781  11.174  0.2118 -0.1760  0.1522
  569MOL0     C76700   6.146   5.705  11.297  0.2282  0.3440 -0.1720
  569MOL0     C76701   6.094   5.794  11.422 -0.0139  0.4638  0.4205
  569MOL0     C76702   5.942   5.801  11.411  0.5556 -0.6005 -0.7910
  569MOL0     C76703   5.893   5.909  11.515 -0.8703 -0.2414 -0.2002
  569MOL0     O76704   5.752   5.883  11.549 -0.3607  0.5358 -0.2636
  569MOL0     C76705   5.715   5.939  11.668  0.1640  0.0212  0.2441
  569MOL0     C76706   5.702   6.082  11.679  0.2260 -0.5495  0.1576
  569MOL0     C76707   5.656   6.139  11.797 -0.1693 -0.1848 -0.5143
  569MOL0     C76708   5.633   6.068  11.918  1.2003 -0.7099  0.5477
  569MOL0     C76709   5.591   6.138  12.038  0.1577 -0.2820 -0.2596
  569MOL0     O76710   5.570   6.058  12.147 -0.2598 -0.0419  0.3307
  569MOL0     C76711   5.526   6.109  12.269  0.3434 -0.2510  0.1026
  569MOL0     C76712   5.568   6.225  12.339 -0.7091 -0.1815  0.5792
  569MOL0     C76713   5.522   6.251  12.472  0.2681  0.2128  0.6037
  569MOL0     C76714   5.426   6.171  12.536 -0.2967 -0.3574  0.1132
  569MOL0     O76715   5.378   6.215  12.657 -0.2458 -0.7772 -0.4502
  569MOL0     C76716   5.360   6.125  12.763 -0.3965  1.3660 -0.3293
  569MOL0     C76717   5.470   6.025  12.799 -0.2096  0.0286  1.0047
  569MOL0     C76718   5.443   5.938  12.930 -0.5881  0.9541  0.1459
  569MOL0     C76719   5.368   5.807  12.889  0.0492  0.0457  0.5219
  569MOL0     C76720   5.331   5.732  13.017  0.2620 -0.1101 -0.0838
  569MOL0     C76721   5.228   5.820  13.103 -0.5059  0.8389 -0.0274
  569MOL0     C76722   5.142   5.727  13.190 -0.0005  0.1491 -0.1797
  569MOL0     C76723   5.223   5.639  13.287 -0.3754 -0.0923 -0.2658
  569MOL0    Cl76724   5.302   5.724  13.426 -0.3527  0.1530  0.1178
  569MOL0     C76725   5.396   6.053  12.473  0.8316  0.5500  0.2514
  569MOL0     C76726   5.438   6.023  12.341  0.0843 -0.6521  0.4415
  569MOL0     O76727   5.576   6.260  12.035  0.6170  0.1855  0.7049
  569MOL0     C76728   5.645   5.929  11.904 -0.2280 -0.8624 -0.5529
  569MOL0     C76729   5.687   5.860  11.788 -0.3277  0.4350 -0.1190
  569MOL0     N76730   6.064   5.765  11.066  0.8135 -0.1141 -0.6744
  569MOL0     N76731   6.100   5.839  10.970 -0.8809  0.5458 -0.8265
  569MOL0     C76732   7.165   5.926  10.484  0.0910 -0.6823  0.4810
  569MOL0     C76733   7.284   5.877  10.418 -0.5109  0.2161 -0.4871
  569MOL0     C76734   7.596   5.579  10.262 -0.3668  0.0876  0.1379
  569MOL0     C76735   7.663   5.681  10.197  0.8064  0.3882 -0.7100
  569MOL0     C76736   7.771   5.648  10.117 -0.4345 -0.1513  0.2637
  569MOL0     C76737   7.835   5.521  10.113  0.8278  0.1110 -0.1687
  569MOL0     O76738   7.945   5.500  10.033  0.5608  0.0084  0.0005
  569MOL0     C76739   8.038   5.398  10.061 -0.4404 -0.6585  0.4431
  569MOL0     C76740   8.122   5.432  10.191 -0.3698  0.7075 -0.0058
  569MOL0     C76741   8.253   5.348  10.200 -0.6548  0.1749  1.6748
  569MOL0     C76742   8.349   5.408  10.305 -0.3673  0.6394 -0.6435
  569MOL0     C76743   8.421   5.523  10.255 -0.0285  0.2231  0.5155
  569MOL0     C76744   8.491   5.600  10.191  0.0839  0.2602 -0.4103
  569MOL0     C76745   7.768   5.421  10.189  0.5329  1.2144  0.2055
  569MOL0     C76746   7.653   5.448  10.262  0.0785 -0.5243  0.6208
  569MOL0     C76747   7.590   5.331  10.344  0.3493 -1.0006 -0.2731
  569MOL0     H76748   7.164   5.589  10.290  2.8536  0.7651 -0.2041
  569MOL0     H76749   6.954   5.662  10.419 -1.8975  1.7152 -2.8771
  569MOL0     H76750   6.828   5.735  10.649  1.5710 -1.7013  0.9634
  569MOL0     H76751   6.998   5.732  10.668 -1.2567 -0.1356  0.4215
  569MOL0     H76752   6.977   5.962  10.792  1.1794 -0.7994  0.2598
  569MOL0     H76753   6.901   5.831  10.874  1.1191  1.8953  0.4540
  569MOL0     H76754   6.688   5.876  10.764  1.0369 -0.9425  1.7218
  569MOL0     H76755   6.755   6.026  10.688  1.8595  0.2924 -0.1750
  569MOL0     H76756   6.689   5.961  10.978  0.7001 -0.6824 -1.6969
  569MOL0     H76757   6.831   6.061  10.954  0.8612 -1.7235 -0.1668
  569MOL0     H76758   6.652   6.193  10.996  0.8141 -2.4104  1.0365
  569MOL0     H76759   6.701   6.229  10.834 -0.8340  1.9808  0.4725
  569MOL0     H76760   6.440   6.212  10.862  1.5298  1.3419 -1.1754
  569MOL0     H76761   6.501   6.082  10.758 -0.9790  0.3795 -0.0517
  569MOL0     H76762   6.473   6.043  11.057 -1.9002  3.3008  0.6329
  569MOL0     H76763   6.477   5.920  10.932  1.1257  0.4021 -0.2948
  569MOL0     H76764   6.271   6.110  11.014 -0.9595 -1.4322  1.7027
  569MOL0     H76765   6.240   6.038  10.854 -1.4784 -1.4612 -0.6221
  569MOL0     H76766   6.320   5.907  11.208  0.2765  0.4720 -0.5529
  569MOL0     H76767   6.073   5.624  11.292 -1.8677  2.0453  0.8718
  569MOL0     H76768   6.239   5.650  11.317 -1.7269 -3.4064 -0.4803
  569MOL0     H76769   6.112   5.746  11.519 -2.1737 -1.0441  0.1570
  569MOL0     H76770   6.145   5.890  11.423  0.2550  0.3615 -1.0200
  569MOL0     H76771   5.899   5.706  11.441  0.1781  0.3086  1.7454
  569MOL0     H76772   5.904   5.831  11.312 -1.8698  0.5342  0.3943
  569MOL0     H76773   5.906   6.008  11.471 -1.9992  0.3041  0.6282
  569MOL0     H76774   5.950   5.915  11.609  3.0152  0.3451 -2.3814
  569MOL0     H76775   5.737   6.134  11.591  1.1488 -2.6555 -0.8083
  569MOL0     H76776   5.648   6.247  11.803  3.1784  0.0989  1.3665
  569MOL0     H76777   5.639   6.293  12.292 -0.6530 -1.5803 -1.5064
  569MOL0     H76778   5.566   6.321  12.541  1.4752  2.2457 -2.0413
  569MOL0     H76779   5.338   6.183  12.854  0.0383  1.6078 -0.3788
  569MOL0     H76780   5.271   6.064  12.745  2.0702 -2.7777  0.1399
  569MOL0     H76781   5.492   5.961  12.713 -1.5783  3.4378 -2.1612
  569MOL0     H76782   5.564   6.076  12.820 -1.8210  3.5114  0.5093
  569MOL0     H76783   5.531   5.919  12.993 -1.9709  0.3924  1.9957
  569MOL0     H76784   5.385   6.000  12.999 -1.2954  1.9512 -1.2880
  569MOL0     H76785   5.437   5.751  12.825  0.5412 -1.4117  2.2319
  569MOL0     H76786   5.283   5.830  12.824  0.5801  0.0834 -0.1705
  569MOL0     H76787   5.423   5.717  13.073  0.3381 -1.2978 -0.4947
  569MOL0     H76788   5.296   5.629  13.002 -1.4846  0.3995  0.2923
  569MOL0     H76789   5.270   5.894  13.171 -0.7808  1.2878 -0.3415
  569MOL0     H76790   5.170   5.883  13.036 -1.2778 -0.1095 -0.2867
  569MOL0     H76791   5.071   5.671  13.129 -0.1768 -0.6992  0.7638
  569MOL0     H76792   5.076   5.789  13.253 -2.1408 -0.8284 -1.3425
  569MOL0     H76793   5.149   5.572  13.332  0.3881  0.4619  1.9381
  569MOL0     H76794   5.303   5.588  13.232  2.4343  1.1908  2.3205
  569MOL0     H76795   5.329   5.983  12.522  0.3877  1.4878  1.0131
  569MOL0     H76796   5.404   5.936  12.286 -2.5189 -0.4770  1.6214
  569MOL0     H76797   5.636   5.870  11.994  1.4771 -1.7280 -0.9032
  569MOL0     H76798   5.693   5.752  11.781 -0.3357  0.4443 -0.2688
  569MOL0     H76799   7.163   6.014  10.548 -0.6458 -0.3574  0.0198
  569MOL0     H76800   7.373   5.939  10.411 -0.4944  0.0078 -3.0056
  569MOL0     H76801   7.613   5.777  10.199 -2.5578 -1.2181  2.1504
  569MOL0     H76802   7.820   5.722  10.055 -1.0151 -1.9312 -2.4733
  569MOL0     H76803   8.101   5.390   9.972  0.1402  0.9772  0.6711
  569MOL0     H76804   7.984   5.303  10.069  1.7600 -2.1657 -1.3924
  569MOL0     H76805   8.065   5.408  10.281 -0.4584 -2.9235 -0.8771
  569MOL0     H76806   8.139   5.540  10.197 -3.8904  1.3167  1.9818
  569MOL0     H76807   8.298   5.331  10.101 -0.6106 -1.7427  1.9826
  569MOL0     H76808   8.228   5.246  10.232  3.7253 -1.0767  1.7204
  569MOL0     H76809   8.287   5.440  10.389 -0.5978  1.1576 -1.0107
  569MOL0     H76810   8.429   5.336  10.323 -2.7365 -2.3106 -1.0108
  569MOL0     H76811   8.549   5.667  10.131 -0.6084 -0.6323 -2.1382
  569MOL0     H76812   7.801   5.319  10.172 -1.4306  0.1801  1.9450
  569MOL0     H76813   7.495   5.298  10.301  0.3583 -1.9711  0.4113
  569MOL0     H76814   7.657   5.244  10.347 -0.8576 -1.9432  1.0723
  569MOL0     H76815   7.583   5.380  10.441  1.1596  0.0427 -0.7248
  570MOL0     O76816   2.791   9.274   6.567 -0.7537 -0.5052  0.1155
  570MOL0     C76817   2.864   9.289   6.470 -0.1863  0.0843  0.4401
  570MOL0     O76818   2.995   9.305   6.475 -0.4960  0.0482 -0.2868
  570MOL0     C76819   3.066   9.298   6.594  0.3186  0.1257 -0.4051
  570MOL0     C76820   3.043   9.390   6.702 -0.4724 -0.1808 -0.2682
  570MOL0     C76821   3.124   9.397   6.811  0.7168 -0.0761 -0.0793
  570MOL0     C76822   3.224   9.300   6.826  0.3774 -0.3937 -0.1807
  570MOL0     O76823   3.296   9.325   6.938  0.5507 -0.1263  0.1501
  570MOL0     C76824   3.355   9.210   6.998  0.2564 -0.2014  0.0275
  570MOL0     C76825   3.252   9.114   7.035 -0.6050  0.6372  0.1767
  570MOL0     C76826   3.315   9.010   7.132 -0.0012 -0.4684  0.5100
  570MOL0     C76827   3.201   8.919   7.197  0.3840  0.4258 -0.7629
  570MOL0     C76828   3.268   8.824   7.301 -0.2356 -0.4600 -0.2501
  570MOL0     C76829   3.293   8.893   7.437 -0.3570 -0.2937  0.2723
  570MOL0     C76830   3.377   8.797   7.520 -0.1729 -0.5297 -0.4037
  570MOL0     C76831   3.389   8.856   7.664  0.1302  0.8780 -0.0710
  570MOL0     N76832   3.518   8.820   7.722 -0.4224 -0.4885 -0.2786
  570MOL0     C76833   3.569   8.691   7.753  0.1717  0.8602 -0.3215
  570MOL0     C76834   3.702   8.710   7.781 -0.2552 -0.1341 -0.3140
  570MOL0     C76835   3.796   8.598   7.812  0.5588  0.3082 -0.0529
  570MOL0     C76836   3.785   8.469   7.713  0.6672  0.3149 -0.6534
  570MOL0     C76837   3.805   8.492   7.561 -0.0750  0.2880  0.0975
  570MOL0     C76838   3.949   8.537   7.530 -1.0445  0.3677 -1.0821
  570MOL0     O76839   3.956   8.551   7.384  0.7781 -0.3393 -0.2771
  570MOL0     C76840   4.075   8.551   7.309  0.4087 -0.0055  0.7446
  570MOL0     C76841   4.196   8.521   7.368 -0.5442 -0.6810  0.0937
  570MOL0     C76842   4.319   8.500   7.293  0.3817  0.6486 -0.5422
  570MOL0     C76843   4.311   8.529   7.159  0.2746  0.2097  0.5479
  570MOL0     C76844   4.423   8.525   7.073 -0.6830  0.6826  0.1351
  570MOL0     O76845   4.432   8.610   6.964 -0.5900 -0.6495  0.6099
  570MOL0     C76846   4.549   8.614   6.897 -0.4303 -0.0663  0.9335
  570MOL0     C76847   4.612   8.500   6.830  0.7004 -1.5469 -0.0506
  570MOL0     C76848   4.713   8.524   6.732 -1.0034 -0.2960  0.5553
  570MOL0     C76849   4.772   8.646   6.711 -0.6482 -0.0529  0.4022
  570MOL0     O76850   4.884   8.673   6.628 -0.0659  0.4327 -0.8503
  570MOL0     C76851   4.895   8.584   6.519  0.4675 -0.0576 -0.9419
  570MOL0     C76852   4.940   8.673   6.395  0.3870  0.1063 -0.0901
  570MOL0     C76853   5.086   8.717   6.418 -0.1689  0.8179 -0.0470
  570MOL0     C76854   5.148   8.783   6.292 -0.1740 -1.0580 -0.7344
  570MOL0     C76855   5.270   8.860   6.343  0.3356 -0.0173  0.0794
  570MOL0     C76856   5.379   8.776   6.413  0.2325 -0.1491 -0.0397
  570MOL0     C76857   5.385   8.763   6.561 -0.4038 -1.0406 -0.6384
  570MOL0     C76858   5.519   8.796   6.630 -0.7467  0.0393 -0.1370
  570MOL0    Cl76859   5.641   8.678   6.573 -0.0923 -0.0192 -0.5257
  570MOL0     C76860   4.710   8.755   6.777 -0.6849  0.0327 -0.0191
  570MOL0     C76861   4.606   8.741   6.873 -0.0323 -0.2274 -0.3053
  570MOL0     O76862   4.508   8.439   7.104 -0.0984 -0.9025 -0.1272
  570MOL0     C76863   4.193   8.585   7.103 -0.1474  0.0897 -0.6109
  570MOL0     C76864   4.069   8.585   7.172 -0.6291 -0.1032 -0.8636
  570MOL0     N76865   3.727   8.843   7.747 -2.0916  0.4528 -0.2096
  570MOL0     N76866   3.617   8.912   7.731  0.3939  0.4124  0.6093
  570MOL0     C76867   3.245   9.205   6.727 -0.5067 -0.4122 -0.2255
  570MOL0     C76868   3.162   9.198   6.614  0.5966 -0.1760  0.3257
  570MOL0     C76869   2.787   9.277   6.351  0.2890 -0.0906  1.3803
  570MOL0     C76870   2.658   9.323   6.341  1.0296  1.0355 -0.8773
  570MOL0     C76871   2.576   9.302   6.227  0.3027 -0.3709 -0.0087
  570MOL0     C76872   2.638   9.254   6.110 -0.5023 -0.1651 -0.1300
  570MOL0     O76873   2.578   9.239   5.986  0.2456  0.1040 -0.1185
  570MOL0     C76874   2.450   9.307   5.970 -0.0306 -0.5699  0.1222
  570MOL0     C76875   2.400   9.294   5.833 -0.7932  0.2120 -0.2579
  570MOL0     C76876   2.366   9.427   5.772 -0.6611 -0.0072  0.3790
  570MOL0     C76877   2.491   9.496   5.700  0.6310  0.8121  0.3377
  570MOL0     C76878   2.541   9.439   5.568 -0.2237 -0.2730  0.7538
  570MOL0     C76879   2.589   9.412   5.459  0.8533  0.1554 -0.4797
  570MOL0     C76880   2.773   9.216   6.116  0.0579 -0.0490  0.3806
  570MOL0     C76881   2.849   9.211   6.233 -0.6434 -0.4906  0.1840
  570MOL0     C76882   2.990   9.166   6.225  0.4773  0.3230 -0.5510
  570MOL0     H76883   2.983   9.480   6.693  0.0307  0.1009 -0.9536
  570MOL0     H76884   3.119   9.475   6.886  0.1729 -1.1326  1.0215
  570MOL0     H76885   3.429   9.175   6.926 -1.4507 -0.4143 -1.6957
  570MOL0     H76886   3.401   9.245   7.091 -2.4534  0.7113  1.1292
  570MOL0     H76887   3.221   9.056   6.948  0.5931 -2.1568  1.4739
  570MOL0     H76888   3.163   9.153   7.085 -0.0168  4.5116 -1.5037
  570MOL0     H76889   3.362   9.071   7.209  0.0488  3.4117 -2.3238
  570MOL0     H76890   3.383   8.941   7.081  0.3876  0.7576 -0.7034
  570MOL0     H76891   3.129   8.985   7.247  1.7408  0.8762  0.6834
  570MOL0     H76892   3.151   8.856   7.123 -2.9021 -0.2121  1.7184
  570MOL0     H76893   3.208   8.733   7.309 -3.0530  1.1353 -1.7917
  570MOL0     H76894   3.361   8.785   7.258 -0.4171  0.3107 -1.3768
  570MOL0     H76895   3.346   8.985   7.413  1.5515 -1.3258  0.3663
  570MOL0     H76896   3.204   8.915   7.496 -0.4951 -3.4292  1.4467
  570MOL0     H76897   3.483   8.795   7.490  0.0440 -1.6139  0.3531
  570MOL0     H76898   3.336   8.696   7.525  1.6968 -1.4578 -2.0173
  570MOL0     H76899   3.371   8.963   7.677 -1.3291  0.7097 -0.4754
  570MOL0     H76900   3.312   8.809   7.725 -1.1291  3.0748  0.1516
  570MOL0     H76901   3.515   8.597   7.755 -0.7600  1.3659 -0.8417
  570MOL0     H76902   3.899   8.635   7.802  1.1249 -0.9738  0.7176
  570MOL0     H76903   3.783   8.568   7.917  1.2089  1.6617  0.4339
  570MOL0     H76904   3.860   8.398   7.749 -1.0568 -0.9517  0.5884
  570MOL0     H76905   3.689   8.425   7.740  0.5966  1.9359  2.1536
  570MOL0     H76906   3.730   8.569   7.542 -0.0397  0.7096  1.5350
  570MOL0     H76907   3.782   8.397   7.512 -1.3799  1.2548 -1.2449
  570MOL0     H76908   4.012   8.460   7.575 -0.4572  0.2489 -2.0867
  570MOL0     H76909   3.973   8.631   7.582 -2.1251 -1.2128  2.6400
  570MOL0     H76910   4.209   8.497   7.473  0.6238  1.2327  0.4269
  570MOL0     H76911   4.406   8.460   7.343  0.4855 -0.9316 -1.9221
  570MOL0     H76912   4.562   8.404   6.839  0.6416 -1.7000 -1.6668
  570MOL0     H76913   4.754   8.430   6.694 -0.1718 -0.3013  1.4201
  570MOL0     H76914   4.949   8.492   6.543 -0.1200  0.2709  2.0007
  570MOL0     H76915   4.800   8.536   6.492  1.2213 -2.0004 -0.3300
  570MOL0     H76916   4.935   8.604   6.311 -3.3678 -3.0300  2.3899
  570MOL0     H76917   4.872   8.753   6.365  0.1242 -0.8769 -2.2996
  570MOL0     H76918   5.083   8.786   6.503 -1.2350  0.3801  0.2886
  570MOL0     H76919   5.139   8.627   6.450  0.0948  1.0664  0.2246
  570MOL0     H76920   5.080   8.853   6.242  0.9848 -0.2386 -1.2249
  570MOL0     H76921   5.171   8.710   6.214  3.0745  1.0079 -1.9309
  570MOL0     H76922   5.230   8.931   6.416 -0.6892 -1.4265  0.9602
  570MOL0     H76923   5.319   8.917   6.264  4.6571 -2.4084  0.7045
  570MOL0     H76924   5.384   8.677   6.367  0.2528  1.3814 -3.6195
  570MOL0     H76925   5.474   8.821   6.382 -1.5141  2.1581 -2.4674
  570MOL0     H76926   5.338   8.669   6.594 -1.7387  0.2061  1.2253
  570MOL0     H76927   5.325   8.846   6.600  1.3617  0.5627 -1.2017
  570MOL0     H76928   5.560   8.890   6.593  2.1898 -1.0450  0.0107
  570MOL0     H76929   5.517   8.793   6.739  1.6583  1.4473  0.0280
  570MOL0     H76930   4.743   8.857   6.760  1.8833 -0.5702  0.8808
  570MOL0     H76931   4.562   8.829   6.920 -0.1814  1.4821 -3.3620
  570MOL0     H76932   4.196   8.605   6.997  0.2271  2.1150 -0.2623
  570MOL0     H76933   3.971   8.602   7.129 -1.5814 -0.9944  0.8543
  570MOL0     H76934   3.327   9.134   6.739 -1.7419 -2.4662 -2.9002
  570MOL0     H76935   3.195   9.126   6.539  1.6487  0.1354  0.4738
  570MOL0     H76936   2.626   9.368   6.434  2.7526 -2.3037  1.5695
  570MOL0     H76937   2.469   9.318   6.228  0.0669 -1.3653 -2.4092
  570MOL0     H76938   2.469   9.413   5.991  0.2955 -0.6639  0.3133
  570MOL0     H76939   2.373   9.270   6.039 -2.0280  0.3358 -1.5146
  570MOL0     H76940   2.310   9.232   5.827  1.0704 -3.2062  2.8756
  570MOL0     H76941   2.481   9.252   5.772  0.6986  0.0270  1.7204
  570MOL0     H76942   2.319   9.501   5.837  1.9791  2.2214 -0.0682
  570MOL0     H76943   2.294   9.408   5.692 -1.6035  2.2036  0.6442
  570MOL0     H76944   2.456   9.591   5.658 -2.0961  0.0554  0.7178
  570MOL0     H76945   2.563   9.519   5.779  0.9384 -2.4115  1.1506
  570MOL0     H76946   2.647   9.396   5.370  1.0452 -0.0990 -0.3097
  570MOL0     H76947   2.820   9.193   6.021  1.5152  1.9153  0.5721
  570MOL0     H76948   3.050   9.254   6.201  5.0590 -1.5213  2.8009
  570MOL0     H76949   3.025   9.128   6.321  2.2197  0.1489 -1.2220
  570MOL0     H76950   3.015   9.094   6.147  0.3118 -0.1305 -0.1860
  571MOL0     O76951   4.303   2.515   9.128 -0.1359 -0.3288  0.0574
  571MOL0     C76952   4.318   2.613   9.058  0.3034  0.0807 -0.6881
  571MOL0     O76953   4.440   2.641   8.998 -0.8610 -0.2641  0.0880
  571MOL0     C76954   4.535   2.538   8.984 -0.0624  0.4907  0.8851
  571MOL0     C76955   4.646   2.550   9.063 -0.7156 -0.0458  0.3950
  571MOL0     C76956   4.740   2.448   9.055 -0.1453 -0.5658  0.0649
  571MOL0     C76957   4.717   2.328   8.985  0.3808  0.3410 -0.0333
  571MOL0     O76958   4.823   2.234   8.967  0.2473  0.3185  0.9247
  571MOL0     C76959   4.950   2.264   9.016  0.0442  0.4605 -0.2533
  571MOL0     C76960   5.027   2.133   8.994  0.7065  1.2512  0.2855
  571MOL0     C76961   5.090   2.128   8.855  0.7945  0.3775 -0.1420
  571MOL0     C76962   5.223   2.183   8.861  0.0472 -0.8136 -0.0571
  571MOL0     C76963   5.274   2.207   8.718  0.3636  0.2699  0.0401
  571MOL0     C76964   5.424   2.240   8.699 -0.2118 -0.5772  0.0816
  571MOL0     C76965   5.466   2.373   8.765  0.0357 -0.0506  0.7640
  571MOL0     C76966   5.607   2.381   8.795  0.2789 -1.0380 -0.0020
  571MOL0     N76967   5.684   2.400   8.679  0.2620  0.0999  0.2763
  571MOL0     C76968   5.664   2.487   8.571 -0.8805 -0.5257 -0.2699
  571MOL0     C76969   5.787   2.497   8.508  0.5297 -0.0847  0.6363
  571MOL0     C76970   5.820   2.565   8.381  0.3538  0.4039  0.7960
  571MOL0     C76971   5.841   2.716   8.403  0.8020  0.4405  0.0987
  571MOL0     C76972   5.951   2.748   8.497  0.2027 -0.0166  0.1820
  571MOL0     C76973   5.984   2.903   8.507 -0.1364  0.2752  0.0673
  571MOL0     O76974   6.087   2.917   8.606  0.5192  0.7131 -0.2745
  571MOL0     C76975   6.213   2.869   8.577  0.5731  0.1562  1.0976
  571MOL0     C76976   6.251   2.859   8.440 -0.2983 -0.4547  0.2949
  571MOL0     C76977   6.379   2.809   8.408  0.2120 -0.7152 -0.0721
  571MOL0     C76978   6.460   2.768   8.512 -0.3079  0.5167 -1.2878
  571MOL0     C76979   6.599   2.705   8.496 -0.4964 -0.0109  0.7326
  571MOL0     O76980   6.669   2.656   8.602  0.2644  0.1722  1.1047
  571MOL0     C76981   6.797   2.606   8.582 -0.2192 -0.4522 -1.0517
  571MOL0     C76982   6.912   2.686   8.546  0.6276 -0.1688 -0.0989
  571MOL0     C76983   7.038   2.629   8.540 -0.4111 -0.6341 -0.0367
  571MOL0     C76984   7.057   2.496   8.564 -0.6663  0.3553 -0.1075
  571MOL0     O76985   7.184   2.430   8.547 -0.5171 -0.7690 -0.7991
  571MOL0     C76986   7.298   2.484   8.628  0.0189 -0.2405 -0.4140
  571MOL0     C76987   7.271   2.462   8.775  1.0814  1.0077 -0.0033
  571MOL0     C76988   7.361   2.519   8.875  0.6023 -0.7083  0.2178
  571MOL0     C76989   7.503   2.475   8.858 -0.4396 -0.4916 -0.3915
  571MOL0     C76990   7.594   2.508   8.973 -0.0409 -0.8684 -1.0838
  571MOL0     C76991   7.731   2.464   8.957 -1.1411  0.0030 -0.0194
  571MOL0     C76992   7.825   2.507   9.075  0.6964  0.5626  0.0181
  571MOL0     C76993   7.966   2.448   9.050 -0.2302 -0.2423 -0.9810
  571MOL0    Cl76994   7.980   2.268   9.034  0.4475 -0.2957  0.0354
  571MOL0     C76995   6.946   2.423   8.603 -0.6352 -1.5076  0.4290
  571MOL0     C76996   6.821   2.475   8.623 -0.2215  0.0440  0.1668
  571MOL0     O76997   6.632   2.684   8.376  0.3073  0.0109  0.4656
  571MOL0     C76998   6.420   2.768   8.643  0.6636  0.1677 -0.3833
  571MOL0     C76999   6.302   2.834   8.678 -0.8248  0.3229 -0.3718
  571MOL0     N77000   5.874   2.412   8.569 -0.2430 -0.2580  0.2546
  571MOL0     N77001   5.817   2.362   8.677 -0.8084 -0.0723  0.3253
  571MOL0     C77002   4.606   2.316   8.903  1.3446 -0.4087  0.2775
  571MOL0     C77003   4.518   2.422   8.903 -0.2020  1.2571 -0.2219
  571MOL0     C77004   4.216   2.719   9.067  0.8313  0.3310  0.7199
  571MOL0     C77005   4.233   2.829   8.979 -1.0309 -0.0869 -0.9797
  571MOL0     C77006   4.138   2.925   8.955  0.3173  0.0755 -0.9280
  571MOL0     C77007   4.010   2.924   9.020 -0.9237 -0.2034 -0.1721
  571MOL0     O77008   3.913   3.011   8.984  0.5387 -0.3540  0.1515
  571MOL0     C77009   3.913   3.135   9.050  0.1829 -0.4416 -0.5069
  571MOL0     C77010   4.060   3.204   9.060 -0.7455 -0.3619 -0.9273
  571MOL0     C77011   4.042   3.345   9.109  2.0338  0.3416 -0.2298
  571MOL0     C77012   4.161   3.416   9.150 -0.7152 -0.3858 -0.4620
  571MOL0     C77013   4.143   3.545   9.220 -0.6731 -0.5660  0.5035
  571MOL0     C77014   4.115   3.650   9.289 -0.4538  0.5620 -0.0079
  571MOL0     C77015   3.987   2.815   9.110 -0.2787 -0.0252 -0.9874
  571MOL0     C77016   4.081   2.712   9.132 -1.3680 -0.1920 -0.3295
  571MOL0     C77017   4.055   2.618   9.247  0.8885 -0.3310  0.2383
  571MOL0     H77018   4.666   2.636   9.127  1.1390  0.4793 -0.7951
  571MOL0     H77019   4.839   2.465   9.096 -0.6361  3.8658 -0.0842
  571MOL0     H77020   5.004   2.344   8.964  3.9023 -2.5685 -1.3915
  571MOL0     H77021   4.947   2.262   9.125  1.0939 -2.6122 -0.1890
  571MOL0     H77022   4.966   2.043   9.001 -0.8750  2.2948  0.3520
  571MOL0     H77023   5.106   2.121   9.069  1.6891 -0.6476 -0.9656
  571MOL0     H77024   5.036   2.192   8.784  1.0115 -0.6426 -1.2462
  571MOL0     H77025   5.094   2.024   8.823  2.2693 -0.2505  1.9302
  571MOL0     H77026   5.208   2.274   8.921 -1.9058 -1.7878  1.0252
  571MOL0     H77027   5.290   2.118   8.918  0.7275  0.3163  0.4685
  571MOL0     H77028   5.250   2.109   8.675 -2.1625  0.0398  1.7039
  571MOL0     H77029   5.223   2.296   8.681  3.0754  2.8638  2.0774
  571MOL0     H77030   5.488   2.164   8.745  1.1216  1.4091  1.7110
  571MOL0     H77031   5.444   2.246   8.592  0.6546 -2.4472  0.1056
  571MOL0     H77032   5.414   2.374   8.861  0.7522  1.0506  1.1648
  571MOL0     H77033   5.423   2.455   8.707 -1.7643 -0.2036  1.8131
  571MOL0     H77034   5.627   2.457   8.871 -1.5168  1.6445 -2.0234
  571MOL0     H77035   5.634   2.291   8.851  0.5050 -0.1711  1.3273
  571MOL0     H77036   5.570   2.528   8.537 -0.7419  0.0543  0.0494
  571MOL0     H77037   5.912   2.517   8.347 -0.9267 -2.1602  0.7057
  571MOL0     H77038   5.740   2.551   8.307  0.7105  1.1826  0.2468
  571MOL0     H77039   5.868   2.765   8.309 -1.0934 -2.9726 -2.4320
  571MOL0     H77040   5.744   2.760   8.430  1.5098  1.1575  1.6070
  571MOL0     H77041   6.038   2.699   8.452  1.2493  2.5676 -0.8310
  571MOL0     H77042   5.925   2.710   8.597 -1.0406 -1.0420 -0.5085
  571MOL0     H77043   5.897   2.955   8.549  0.8812  1.3898  0.8612
  571MOL0     H77044   6.016   2.949   8.413 -3.4253  0.9955 -0.8624
  571MOL0     H77045   6.193   2.892   8.354  2.2376  0.8420 -1.0149
  571MOL0     H77046   6.416   2.785   8.308  0.7852  1.1393 -0.3443
  571MOL0     H77047   6.903   2.789   8.514 -2.5631  0.4296  2.1710
  571MOL0     H77048   7.118   2.695   8.509 -2.0851  0.7173 -1.7234
  571MOL0     H77049   7.391   2.433   8.601  0.4565  0.1668  0.3050
  571MOL0     H77050   7.315   2.590   8.608 -1.8834  0.0940 -0.4077
  571MOL0     H77051   7.175   2.509   8.801  0.8397  0.5101  0.0188
  571MOL0     H77052   7.259   2.355   8.798  2.0190  0.5542 -1.4717
  571MOL0     H77053   7.345   2.627   8.868 -3.2930 -1.1682  0.2330
  571MOL0     H77054   7.327   2.486   8.973  0.6192 -3.4401 -0.6157
  571MOL0     H77055   7.546   2.516   8.766  0.0847  0.3733  0.2248
  571MOL0     H77056   7.492   2.366   8.866 -1.7426 -0.2763  1.0067
  571MOL0     H77057   7.545   2.477   9.066 -2.5875  1.3358 -1.5393
  571MOL0     H77058   7.586   2.617   8.979 -0.1560 -0.9465  1.0241
  571MOL0     H77059   7.733   2.356   8.940 -1.1254 -0.0357  0.2172
  571MOL0     H77060   7.775   2.517   8.872 -1.1472  0.3074  0.1649
  571MOL0     H77061   7.781   2.491   9.174 -1.7662  4.1776 -0.3084
  571MOL0     H77062   7.835   2.615   9.073 -1.8571  0.8649 -0.2051
  571MOL0     H77063   7.996   2.488   8.953  1.7741 -0.8966 -0.6819
  571MOL0     H77064   8.038   2.466   9.130 -0.9099 -1.2942 -0.1071
  571MOL0     H77065   6.965   2.324   8.645 -2.6522 -2.2037 -0.2228
  571MOL0     H77066   6.741   2.415   8.665  2.2447 -3.4768  0.3203
  571MOL0     H77067   6.495   2.733   8.714  0.2293  0.1108  0.0523
  571MOL0     H77068   6.268   2.854   8.779  2.3897 -1.8183  1.3035
  571MOL0     H77069   4.594   2.224   8.848  0.0872 -0.4559  0.6012
  571MOL0     H77070   4.431   2.406   8.840 -0.6264 -2.6143  1.1377
  571MOL0     H77071   4.312   2.824   8.905 -2.3376  0.6933 -2.4897
  571MOL0     H77072   4.160   2.996   8.877 -1.6718  1.0953 -0.6235
  571MOL0     H77073   3.868   3.112   9.147  0.9692 -0.6879 -0.1954
  571MOL0     H77074   3.839   3.194   8.996 -0.1233  1.2372  1.5896
  571MOL0     H77075   4.112   3.204   8.964  0.7862  0.2967 -0.1160
  571MOL0     H77076   4.122   3.151   9.133  0.1391  2.5515  0.5722
  571MOL0     H77077   3.972   3.352   9.193  1.8359  0.0368 -0.3668
  571MOL0     H77078   3.992   3.392   9.024  0.8667 -1.7939 -0.7756
  571MOL0     H77079   4.203   3.363   9.236  0.5891  0.1572 -0.7383
  571MOL0     H77080   4.232   3.423   9.067  0.9133 -2.4505  0.6457
  571MOL0     H77081   4.088   3.719   9.366 -1.7340  0.9495 -0.7678
  571MOL0     H77082   3.894   2.810   9.165  1.1513 -0.7748  1.5203
  571MOL0     H77083   4.113   2.644   9.337  2.6220  1.4578 -1.2877
  571MOL0     H77084   3.950   2.618   9.275  1.3251 -0.3601  2.0290
  571MOL0     H77085   4.081   2.514   9.226 -1.1084 -0.5139 -1.6030
  572MOL0     O77086  10.887   1.577   2.511  0.8136  0.0347 -1.0753
  572MOL0     C77087  10.981   1.571   2.594 -0.8207 -0.8281 -0.0234
  572MOL0     O77088  11.025   1.669   2.679 -0.3961  0.4880  0.4103
  572MOL0     C77089  10.947   1.782   2.706 -0.4950  0.4503  0.1191
  572MOL0     C77090  10.808   1.798   2.737 -0.2954 -0.0936  0.0106
  572MOL0     C77091  10.754   1.916   2.765  0.4091  0.0255 -0.1759
  572MOL0     C77092  10.828   2.029   2.751  1.2213 -0.4742 -0.8255
  572MOL0     O77093  10.767   2.149   2.778  0.6243 -0.4293 -0.2665
  572MOL0     C77094  10.810   2.272   2.717 -0.0930  0.6192  0.1697
  572MOL0     C77095  10.702   2.388   2.735  0.0181 -0.2683 -0.5140
  572MOL0     C77096  10.705   2.449   2.876 -0.1223  0.1423 -0.2202
  572MOL0     C77097  10.602   2.559   2.896 -0.4636  1.0936 -0.0775
  572MOL0     C77098  10.609   2.638   3.034  0.1214 -0.1137 -0.0935
  572MOL0     C77099  10.600   2.556   3.160 -0.4081 -0.3576  0.1473
  572MOL0     C77100  10.479   2.464   3.162 -0.0237  0.3865  0.0078
  572MOL0     C77101  10.479   2.358   3.276 -0.4629 -0.2470  0.1986
  572MOL0     N77102  10.497   2.427   3.407  0.1610  0.4828 -0.3479
  572MOL0     C77103  10.394   2.502   3.458 -0.5708 -1.0333  0.3795
  572MOL0     C77104  10.457   2.547   3.572  0.3582 -0.2452  0.2532
  572MOL0     C77105  10.383   2.628   3.670 -0.5664 -0.2170  1.1405
  572MOL0     C77106  10.466   2.655   3.802 -0.1141 -0.0035 -0.3069
  572MOL0     C77107  10.398   2.765   3.889  0.2638  0.1925 -0.1314
  572MOL0     C77108  10.459   2.775   4.032  1.1191 -0.2139  0.2064
  572MOL0     O77109  10.371   2.860   4.104  0.1910 -0.3469 -0.1682
  572MOL0     C77110  10.401   2.904   4.230 -0.4631  1.6982 -0.3220
  572MOL0     C77111  10.307   2.978   4.299  0.3616 -0.0348 -0.0607
  572MOL0     C77112  10.341   3.011   4.433  1.4363  0.3249 -0.1367
  572MOL0     C77113  10.455   2.974   4.501  0.0903 -0.6901  0.1547
  572MOL0     C77114  10.480   3.016   4.637  0.2568 -0.2009  0.6777
  572MOL0     O77115  10.389   3.079   4.715  0.0821  0.2599 -1.2478
  572MOL0     C77116  10.400   3.088   4.848 -0.2753  0.7758  0.1518
  572MOL0     C77117  10.319   3.012   4.938  0.5023 -0.3966  0.3916
  572MOL0     C77118  10.344   3.023   5.076 -0.3449  0.2672 -0.2303
  572MOL0     C77119  10.454   3.088   5.132 -0.0520 -0.6189  0.1330
  572MOL0     O77120  10.476   3.090   5.271  0.3126  0.3780 -0.2019
  572MOL0     C77121  10.387   3.023   5.356 -0.0201 -0.1687  0.6355
  572MOL0     C77122  10.437   3.055   5.494  0.6090  0.1835 -0.0568
  572MOL0     C77123  10.577   3.009   5.521 -0.0216 -0.6804  0.0835
  572MOL0     C77124  10.625   2.974   5.667  0.4559 -0.4763  0.3819
  572MOL0     C77125  10.775   2.936   5.667 -0.8501 -0.3495 -0.0995
  572MOL0     C77126  10.876   3.055   5.625 -0.1871 -0.3234 -1.1426
  572MOL0     C77127  11.022   3.023   5.660 -0.0106 -0.6222  0.3096
  572MOL0     C77128  11.074   2.913   5.597 -0.3574  0.3832  0.1665
  572MOL0    Cl77129  11.235   2.884   5.631 -0.0697 -0.1582 -0.3239
  572MOL0     C77130  10.531   3.164   5.040 -0.4553  0.8220  1.2720
  572MOL0     C77131  10.505   3.167   4.906 -0.3123  0.5930  0.8317
  572MOL0     O77132  10.586   2.968   4.681  0.6132  0.1060 -0.6683
  572MOL0     C77133  10.546   2.900   4.429 -0.3837 -0.2360  0.1974
  572MOL0     C77134  10.523   2.865   4.294  0.4007  0.6617 -0.8659
  572MOL0     N77135  10.587   2.499   3.586  0.4348  0.8826  0.3084
  572MOL0     N77136  10.608   2.427   3.481 -0.8124  0.6409  0.8731
  572MOL0     C77137  10.963   2.023   2.722 -0.3195 -0.1184  1.0367
  572MOL0     C77138  11.021   1.901   2.688  0.7736  0.4157  0.1932
  572MOL0     C77139  11.063   1.446   2.582 -0.8231 -0.4501 -0.9096
  572MOL0     C77140  11.187   1.440   2.652 -0.1470 -0.1776 -0.8137
  572MOL0     C77141  11.267   1.330   2.667 -0.0567 -0.1390  0.7728
  572MOL0     C77142  11.226   1.206   2.592 -0.3852 -0.9746 -0.2879
  572MOL0     O77143  11.298   1.091   2.594  0.1902 -0.2226  0.1383
  572MOL0     C77144  11.429   1.097   2.642 -0.6649 -0.1347  0.8178
  572MOL0     C77145  11.504   0.982   2.577 -1.0327 -0.1515 -0.6305
  572MOL0     C77146  11.482   0.850   2.642 -0.7884  0.6207 -0.6070
  572MOL0     C77147  11.575   0.738   2.593  0.1319  0.5871  0.1075
  572MOL0     C77148  11.529   0.602   2.630  0.0568 -0.2146 -0.3832
  572MOL0     C77149  11.484   0.493   2.661 -0.3854 -0.3364  1.1614
  572MOL0     C77150  11.100   1.208   2.525 -0.5473  0.9813  0.2211
  572MOL0     C77151  11.016   1.324   2.521  0.5935 -0.6723  0.0297
  572MOL0     C77152  10.876   1.309   2.467 -0.6140 -1.0785  0.1587
  572MOL0     H77153  10.743   1.711   2.746  0.8389 -0.9026  0.6970
  572MOL0     H77154  10.654   1.922   2.807  0.6187  0.6858  0.2533
  572MOL0     H77155  10.902   2.319   2.754 -0.4917  2.5175 -1.1090
  572MOL0     H77156  10.810   2.270   2.608 -1.8868 -0.0001  0.1544
  572MOL0     H77157  10.602   2.347   2.715 -0.5350  0.1267  1.1891
  572MOL0     H77158  10.711   2.462   2.656 -1.8478  1.7729  1.0233
  572MOL0     H77159  10.801   2.498   2.892 -1.2939  3.2449 -1.8308
  572MOL0     H77160  10.696   2.373   2.954  1.6297  1.1357  0.9969
  572MOL0     H77161  10.622   2.627   2.813  0.3953 -1.8639 -2.5177
  572MOL0     H77162  10.499   2.523   2.888 -0.0374 -0.1550 -0.2173
  572MOL0     H77163  10.701   2.696   3.044  0.1867 -0.7037  4.6411
  572MOL0     H77164  10.521   2.702   3.022 -1.0276 -1.7048 -0.4323
  572MOL0     H77165  10.687   2.491   3.177  0.6450  0.7018 -1.0086
  572MOL0     H77166  10.604   2.620   3.249  2.4870  2.1866 -1.6252
  572MOL0     H77167  10.474   2.410   3.067 -2.0529 -2.2236  1.4642
  572MOL0     H77168  10.390   2.526   3.176 -0.1707  0.1029  0.3516
  572MOL0     H77169  10.387   2.299   3.280 -2.5841  2.6826 -1.3850
  572MOL0     H77170  10.558   2.289   3.248 -1.0614 -0.4051 -1.2177
  572MOL0     H77171  10.305   2.541   3.409  1.6876 -0.1033 -3.3244
  572MOL0     H77172  10.360   2.725   3.625 -0.4007 -1.5352 -2.0069
  572MOL0     H77173  10.291   2.578   3.701 -0.9839  0.1773  0.5514
  572MOL0     H77174  10.471   2.562   3.858  0.8269 -0.3388 -0.9290
  572MOL0     H77175  10.565   2.688   3.770  0.6771 -1.4933  0.5306
  572MOL0     H77176  10.291   2.743   3.894  0.5023 -0.9294  0.4703
  572MOL0     H77177  10.411   2.865   3.847 -1.7903  1.3100  1.7126
  572MOL0     H77178  10.554   2.822   4.008  0.0075  2.1603  0.1381
  572MOL0     H77179  10.471   2.678   4.080  0.0257  1.3249  3.9733
  572MOL0     H77180  10.215   3.000   4.245 -0.8542  0.4750  2.1175
  572MOL0     H77181  10.273   3.082   4.479  1.2529  0.6000 -0.8101
  572MOL0     H77182  10.236   2.949   4.909 -0.2223 -0.1453  1.8655
  572MOL0     H77183  10.265   2.963   5.122  1.2800 -0.5391  1.6579
  572MOL0     H77184  10.281   3.048   5.341 -0.5140 -2.6263 -0.4291
  572MOL0     H77185  10.394   2.915   5.347 -0.4152 -0.0076 -3.5372
  572MOL0     H77186  10.430   3.162   5.513 -1.0019  0.1276 -0.1889
  572MOL0     H77187  10.365   3.007   5.561 -1.6059  0.9331 -1.7846
  572MOL0     H77188  10.605   2.932   5.448 -0.1498  1.2421 -2.1179
  572MOL0     H77189  10.637   3.091   5.479  2.3997 -2.5968 -0.4319
  572MOL0     H77190  10.564   2.897   5.716 -0.8734  1.6453  2.2544
  572MOL0     H77191  10.601   3.062   5.728 -1.4646 -1.9072  1.8285
  572MOL0     H77192  10.795   2.861   5.590  2.2855 -3.3962  3.2986
  572MOL0     H77193  10.792   2.896   5.767  2.7088 -2.8973 -1.5140
  572MOL0     H77194  10.876   3.085   5.520 -0.1097 -0.3966 -1.1637
  572MOL0     H77195  10.854   3.147   5.680  2.5803 -0.0113 -0.4008
  572MOL0     H77196  11.023   3.003   5.768  2.1161 -2.8372 -0.0117
  572MOL0     H77197  11.091   3.108   5.652 -1.3053  0.6875  2.2197
  572MOL0     H77198  11.012   2.829   5.629 -0.0389  0.1439  0.1590
  572MOL0     H77199  11.075   2.917   5.488  4.5698  1.6119  0.0026
  572MOL0     H77200  10.619   3.208   5.085  1.2188 -3.8557  3.2040
  572MOL0     H77201  10.567   3.229   4.842  3.3391  0.0577  3.5340
  572MOL0     H77202  10.644   2.874   4.467 -0.1370 -1.4171 -1.1715
  572MOL0     H77203  10.595   2.812   4.232  2.0521  2.2799 -0.4394
  572MOL0     H77204  11.024   2.111   2.704 -2.4771  1.1011 -0.7364
  572MOL0     H77205  11.117   1.892   2.638 -1.1407 -4.7453 -3.4626
  572MOL0     H77206  11.231   1.530   2.696 -2.1425 -0.4236  1.9659
  572MOL0     H77207  11.363   1.324   2.718  0.8639 -2.7847 -1.0537
  572MOL0     H77208  11.418   1.091   2.750 -1.7064 -0.6058  0.6986
  572MOL0     H77209  11.476   1.188   2.603 -3.3096  0.4098 -1.4293
  572MOL0     H77210  11.605   1.019   2.601 -2.2599  2.2218  1.3574
  572MOL0     H77211  11.495   0.976   2.468  4.7625 -0.2618 -1.4208
  572MOL0     H77212  11.384   0.806   2.618  0.7475 -3.0868 -0.7622
  572MOL0     H77213  11.489   0.844   2.751  1.1687  1.8651 -0.6162
  572MOL0     H77214  11.590   0.753   2.486 -3.2770  2.6662 -0.2598
  572MOL0     H77215  11.669   0.756   2.644  0.0822  1.4505 -0.0804
  572MOL0     H77216  11.442   0.397   2.681  3.0162 -2.9653 -2.5363
  572MOL0     H77217  11.076   1.119   2.468  1.2823 -0.8677  2.1741
  572MOL0     H77218  10.883   1.381   2.385  0.7972 -1.7980 -0.3725
  572MOL0     H77219  10.861   1.209   2.426 -0.1525 -2.1045  2.3318
  572MOL0     H77220  10.792   1.330   2.534 -0.2876  0.5978  0.0884
  573MOL0     O77221   3.432   3.027   4.525  0.5019  0.4175 -0.7901
  573MOL0     C77222   3.458   3.140   4.563 -0.7388  0.5572 -0.4992
  573MOL0     O77223   3.407   3.254   4.526 -0.2977 -0.5253 -0.2783
  573MOL0     C77224   3.296   3.263   4.447  0.2123 -0.7554  0.4825
  573MOL0     C77225   3.203   3.162   4.428 -0.1138 -0.0652  0.0880
  573MOL0     C77226   3.084   3.194   4.358 -0.0155 -0.7846  0.0659
  573MOL0     C77227   3.060   3.322   4.300  0.2061  1.2590  0.6194
  573MOL0     O77228   2.945   3.358   4.229 -0.2353 -0.1704 -1.0439
  573MOL0     C77229   2.966   3.404   4.098  0.1974 -0.1978 -0.2821
  573MOL0     C77230   2.839   3.386   4.017  0.2940  0.3420  0.6608
  573MOL0     C77231   2.733   3.484   4.072  0.5020  1.1688  0.4096
  573MOL0     C77232   2.588   3.431   4.055  0.1314 -0.2262 -0.1418
  573MOL0     C77233   2.550   3.402   3.906 -0.0906  0.0163 -0.7642
  573MOL0     C77234   2.422   3.319   3.906  0.1013  0.0630 -0.2586
  573MOL0     C77235   2.381   3.311   3.757  0.1225  0.7090 -0.6712
  573MOL0     C77236   2.464   3.208   3.681  0.4794  0.5691 -0.4614
  573MOL0     N77237   2.418   3.200   3.543 -0.4447 -0.2109 -0.0854
  573MOL0     C77238   2.454   3.288   3.445  0.4853  0.0467  0.3513
  573MOL0     C77239   2.379   3.255   3.338  0.0743  0.0018  0.4129
  573MOL0     C77240   2.373   3.315   3.206  0.3970 -0.3097  0.5616
  573MOL0     C77241   2.515   3.379   3.162 -0.3500 -0.6024  0.1342
  573MOL0     C77242   2.499   3.475   3.044  1.9471 -0.5598 -0.2801
  573MOL0     C77243   2.631   3.507   2.978  0.7235  0.2695  0.0330
  573MOL0     O77244   2.715   3.582   3.061  0.3127  0.0715 -0.1132
  573MOL0     C77245   2.846   3.573   3.012  0.0864  0.3148 -0.1922
  573MOL0     C77246   2.932   3.508   3.100 -0.0679 -0.3959  0.3698
  573MOL0     C77247   3.075   3.510   3.087  0.2729  0.3145  0.5649
  573MOL0     C77248   3.126   3.559   2.970  1.1515  0.0064  0.2872
  573MOL0     C77249   3.271   3.554   2.946 -1.1743  0.9106  0.6853
  573MOL0     O77250   3.354   3.535   3.057 -0.0569 -0.1303 -0.0208
  573MOL0     C77251   3.493   3.551   3.044  0.5478 -1.0694  0.0738
  573MOL0     C77252   3.562   3.535   3.164  0.2182 -0.0842 -0.5036
  573MOL0     C77253   3.702   3.532   3.169  0.3280 -0.3813 -0.3896
  573MOL0     C77254   3.772   3.565   3.057  0.5279 -0.1294 -0.4694
  573MOL0     O77255   3.904   3.571   3.051 -0.1915 -0.3411 -0.5874
  573MOL0     C77256   3.969   3.667   3.134  0.3322 -0.4496  0.2800
  573MOL0     C77257   4.084   3.612   3.224 -0.3653 -0.0562  0.7558
  573MOL0     C77258   4.098   3.697   3.351  0.7086 -0.2078  0.0720
  573MOL0     C77259   4.183   3.622   3.464 -0.5601 -0.5094 -0.2256
  573MOL0     C77260   4.194   3.720   3.577 -0.0175 -0.1661 -0.5322
  573MOL0     C77261   4.247   3.652   3.707  0.1104 -0.4400 -0.5802
  573MOL0     C77262   4.390   3.622   3.706  0.3973  0.0961 -0.0606
  573MOL0     C77263   4.446   3.559   3.833 -0.3207  0.0438 -0.9570
  573MOL0    Cl77264   4.602   3.486   3.788  0.0892  0.1860 -0.1855
  573MOL0     C77265   3.706   3.588   2.937  0.6791 -0.0452  0.7252
  573MOL0     C77266   3.567   3.582   2.934  0.8212  1.1099  0.0966
  573MOL0     O77267   3.311   3.566   2.830  0.4836 -0.9557  0.3089
  573MOL0     C77268   3.035   3.613   2.875 -0.8250  0.2760  0.2639
  573MOL0     C77269   2.897   3.633   2.899  0.0418 -0.4735  0.1871
  573MOL0     N77270   2.299   3.151   3.366  0.2738 -0.0654  0.5608
  573MOL0     N77271   2.323   3.127   3.492 -0.3950 -0.0964  1.2671
  573MOL0     C77272   3.158   3.418   4.313 -0.6720 -0.0917  0.0243
  573MOL0     C77273   3.278   3.392   4.375  0.7767  0.5082 -0.1411
  573MOL0     C77274   3.567   3.155   4.664 -0.3171  0.8880 -0.7476
  573MOL0     C77275   3.532   3.162   4.804  0.2249 -0.3825  1.3210
  573MOL0     C77276   3.637   3.165   4.898 -0.7993  0.3706 -0.2549
  573MOL0     C77277   3.766   3.157   4.858  0.0899 -0.8282 -0.1137
  573MOL0     O77278   3.878   3.176   4.933  0.0319  0.7703  0.0442
  573MOL0     C77279   3.864   3.256   5.048  0.3945  0.0258  0.1876
  573MOL0     C77280   3.965   3.238   5.159 -0.0490  0.0487  0.6101
  573MOL0     C77281   4.007   3.093   5.181 -0.6639  0.5021  0.0951
  573MOL0     C77282   4.119   3.059   5.281 -0.3495 -0.4184  0.0355
  573MOL0     C77283   4.069   3.059   5.418  0.1659  0.5182  0.1826
  573MOL0     C77284   4.032   3.035   5.533 -0.5606  0.2139 -0.3866
  573MOL0     C77285   3.799   3.136   4.723 -0.4283  0.1480  1.0710
  573MOL0     C77286   3.699   3.133   4.625 -0.5940  0.1849 -0.3255
  573MOL0     C77287   3.735   3.119   4.477  0.3827 -0.2000  0.2969
  573MOL0     H77288   3.205   3.062   4.469 -4.5101 -1.8988 -3.2692
  573MOL0     H77289   2.995   3.137   4.339 -0.0025 -0.1222 -2.3342
  573MOL0     H77290   2.983   3.512   4.098  1.3613 -0.3580 -1.1671
  573MOL0     H77291   3.047   3.344   4.056  0.2957 -0.5001  0.3355
  573MOL0     H77292   2.800   3.284   4.008  0.5852  0.2439  0.4820
  573MOL0     H77293   2.870   3.404   3.914  2.8194 -1.3744  1.0312
  573MOL0     H77294   2.741   3.576   4.013 -3.3182 -0.4844 -3.2095
  573MOL0     H77295   2.747   3.514   4.176  0.6324  0.1173  0.7083
  573MOL0     H77296   2.575   3.340   4.115 -0.9600 -0.3002 -0.4686
  573MOL0     H77297   2.514   3.495   4.103 -2.4460 -4.3435  1.9099
  573MOL0     H77298   2.522   3.499   3.865 -2.2820 -0.2045  0.0576
  573MOL0     H77299   2.635   3.357   3.854  1.8172  2.6324 -0.1224
  573MOL0     H77300   2.440   3.219   3.944  0.0457 -1.2665 -3.3915
  573MOL0     H77301   2.339   3.362   3.962 -0.8702 -1.7441 -0.2692
  573MOL0     H77302   2.401   3.411   3.717  2.8275  0.3300 -0.4403
  573MOL0     H77303   2.275   3.286   3.747  0.1297  0.8881 -1.2344
  573MOL0     H77304   2.567   3.244   3.687  1.3397 -1.4078 -2.2288
  573MOL0     H77305   2.457   3.111   3.733  1.7375  0.1894 -0.9701
  573MOL0     H77306   2.526   3.366   3.470 -1.1147  1.2907  1.2628
  573MOL0     H77307   2.358   3.236   3.132  3.0862 -1.0761  0.7425
  573MOL0     H77308   2.287   3.383   3.206  1.7454  1.4922  1.4503
  573MOL0     H77309   2.563   3.425   3.249 -2.1534 -0.9664  1.3929
  573MOL0     H77310   2.565   3.291   3.120 -1.5084 -0.2482 -2.1004
  573MOL0     H77311   2.444   3.563   3.078  1.5760 -0.9296  0.0876
  573MOL0     H77312   2.437   3.433   2.964 -0.3941  0.4518  0.9192
  573MOL0     H77313   2.614   3.554   2.881  2.2987  0.6043 -0.1207
  573MOL0     H77314   2.672   3.407   2.961 -1.2883 -0.3252 -1.7187
  573MOL0     H77315   2.887   3.453   3.182  2.1519 -1.4079  1.0043
  573MOL0     H77316   3.145   3.475   3.163  1.0592 -0.8543 -0.6428
  573MOL0     H77317   3.496   3.496   3.240  0.4898 -3.1199 -1.7044
  573MOL0     H77318   3.741   3.509   3.268 -0.0081  0.9849  0.0897
  573MOL0     H77319   4.006   3.736   3.057 -1.1553  1.2333  1.0050
  573MOL0     H77320   3.905   3.724   3.202  1.5316  0.3140  0.8105
  573MOL0     H77321   4.060   3.512   3.261 -2.5815  0.8299  1.9226
  573MOL0     H77322   4.176   3.623   3.166 -1.1197 -0.5905 -0.5961
  573MOL0     H77323   4.143   3.794   3.329  0.8679 -0.8367 -2.7797
  573MOL0     H77324   4.003   3.721   3.401  1.1938 -1.1253  1.4975
  573MOL0     H77325   4.277   3.579   3.430 -1.9492 -2.6658 -1.5450
  573MOL0     H77326   4.120   3.543   3.505 -0.4951 -0.1165  0.6602
  573MOL0     H77327   4.097   3.767   3.599  1.2502  3.3121 -1.6431
  573MOL0     H77328   4.262   3.801   3.551 -0.5877 -0.2023 -2.2711
  573MOL0     H77329   4.225   3.724   3.786  1.4723 -2.6354  1.9528
  573MOL0     H77330   4.193   3.559   3.724 -2.9423  1.3884  0.4555
  573MOL0     H77331   4.464   3.695   3.672  1.1397 -0.9048 -0.6424
  573MOL0     H77332   4.403   3.546   3.628  2.6660  0.3328  0.0083
  573MOL0     H77333   4.457   3.647   3.897  0.4940  0.2104 -1.3146
  573MOL0     H77334   4.371   3.489   3.871 -0.2482  1.0329  1.1680
  573MOL0     H77335   3.769   3.617   2.853  2.5883 -1.0429  1.7534
  573MOL0     H77336   3.536   3.621   2.837 -0.2814  1.7304  0.6867
  573MOL0     H77337   3.079   3.633   2.778 -1.3817 -3.1398 -0.8396
  573MOL0     H77338   2.838   3.686   2.825 -0.7345 -2.0360 -0.3481
  573MOL0     H77339   3.157   3.516   4.266 -0.5748 -0.6016 -1.0656
  573MOL0     H77340   3.364   3.457   4.377  1.2046  0.1942  4.6962
  573MOL0     H77341   3.427   3.177   4.831  0.1493 -0.9174  1.3221
  573MOL0     H77342   3.609   3.157   5.003  2.3451 -2.3452  0.5472
  573MOL0     H77343   3.763   3.249   5.091 -0.4449 -1.1283 -1.8007
  573MOL0     H77344   3.872   3.360   5.016 -0.7345  0.2196  0.4865
  573MOL0     H77345   3.948   3.288   5.255  2.2578 -1.3867  1.8476
  573MOL0     H77346   4.056   3.284   5.121  0.1684 -0.0489  1.0104
  573MOL0     H77347   4.047   3.052   5.087 -0.9304  1.3719 -0.4047
  573MOL0     H77348   3.922   3.031   5.210  0.4562 -0.9245  0.5081
  573MOL0     H77349   4.167   2.964   5.257  0.3617  0.3949 -1.9709
  573MOL0     H77350   4.200   3.131   5.269  0.4397 -1.4616 -1.1465
  573MOL0     H77351   3.998   3.021   5.633  1.1033  1.9489  0.5015
  573MOL0     H77352   3.901   3.116   4.696 -0.1818  1.3292  1.0441
  573MOL0     H77353   3.749   3.015   4.449  0.5212  0.3536 -1.8352
  573MOL0     H77354   3.653   3.154   4.415 -0.3858 -4.0986 -1.1460
  573MOL0     H77355   3.821   3.187   4.463  1.7534 -0.9179  4.0356
  574MOL0     O77356   0.606   2.450   6.286  0.4494  0.1241 -0.1699
  574MOL0     C77357   0.481   2.427   6.306 -1.0162 -0.6591 -0.9538
  574MOL0     O77358   0.435   2.361   6.413 -0.7753  0.3102  0.5587
  574MOL0     C77359   0.516   2.325   6.520  1.1393 -0.4184  0.1057
  574MOL0     C77360   0.657   2.314   6.527 -0.2027 -0.5306  0.3018
  574MOL0     C77361   0.717   2.261   6.643 -0.8363 -0.8762  0.8613
  574MOL0     C77362   0.651   2.222   6.756  0.3455 -0.9864 -0.2468
  574MOL0     O77363   0.724   2.169   6.857 -0.8367 -0.2427  0.1593
  574MOL0     C77364   0.675   2.226   6.976 -0.4521  0.2508  0.0751
  574MOL0     C77365   0.775   2.217   7.090 -0.5201 -0.6432  0.8199
  574MOL0     C77366   0.714   2.238   7.231  0.3751 -0.0861 -0.7764
  574MOL0     C77367   0.824   2.263   7.339  0.1924 -0.9143 -0.4598
  574MOL0     C77368   0.902   2.132   7.367 -0.0287 -1.3254 -0.0403
  574MOL0     C77369   0.836   2.007   7.404  1.0966  0.4568  0.7130
  574MOL0     C77370   0.754   2.021   7.530  0.2921  0.1742  0.0155
  574MOL0     C77371   0.687   1.895   7.577 -0.8465 -0.0778 -1.1484
  574MOL0     N77372   0.630   1.918   7.711 -0.2374  0.1128 -0.6220
  574MOL0     C77373   0.522   2.005   7.741 -0.5229 -0.7537 -0.4123
  574MOL0     C77374   0.511   2.002   7.878  0.1911  0.8907  0.3405
  574MOL0     C77375   0.402   2.063   7.950  0.5118  0.2230 -0.2446
  574MOL0     C77376   0.464   2.135   8.070  0.5537 -0.0190 -0.0612
  574MOL0     C77377   0.356   2.217   8.150 -0.3579 -0.1885 -0.6482
  574MOL0     C77378   0.406   2.314   8.251 -0.1690 -0.5630 -0.9143
  574MOL0     O77379   0.305   2.404   8.308  0.0456 -0.6873 -0.1969
  574MOL0     C77380   0.217   2.349   8.400 -1.0792  0.5232  0.6974
  574MOL0     C77381   0.226   2.218   8.455  0.9631  0.7189  0.4454
  574MOL0     C77382   0.120   2.174   8.533 -0.4034  0.0339 -0.2694
  574MOL0     C77383   0.005   2.254   8.551 -0.1854  0.0675 -0.4457
  574MOL0     C77384  -0.105   2.215   8.638 -0.1362  0.3443  0.4924
  574MOL0     O77385  -0.213   2.292   8.630  0.3661  0.2339  0.0286
  574MOL0     C77386  -0.311   2.285   8.725  0.6585 -0.3366 -0.3976
  574MOL0     C77387  -0.396   2.172   8.750  0.2250  0.3718  0.1198
  574MOL0     C77388  -0.496   2.165   8.849  0.5050  0.5891  0.3951
  574MOL0     C77389  -0.518   2.272   8.930 -0.6199 -0.4314 -0.1552
  574MOL0     O77390  -0.609   2.252   9.031  0.3465 -0.5764  0.4864
  574MOL0     C77391  -0.598   2.352   9.142  0.4826 -0.5177  0.0277
  574MOL0     C77392  -0.689   2.303   9.263 -0.4815 -0.0931 -0.3711
  574MOL0     C77393  -0.631   2.194   9.350 -0.4795 -0.4767  0.0284
  574MOL0     C77394  -0.725   2.101   9.427  0.4091 -0.6271 -0.2664
  574MOL0     C77395  -0.642   2.002   9.511  0.4965 -0.4924 -0.4865
  574MOL0     C77396  -0.712   1.872   9.556 -0.3192  0.7939 -0.1343
  574MOL0     C77397  -0.798   1.906   9.675 -0.4056  0.3639 -0.0949
  574MOL0     C77398  -0.900   1.800   9.710  0.3220  0.1614 -0.2482
  574MOL0    Cl77399  -0.840   1.653   9.803 -0.4090  0.3596  0.2889
  574MOL0     C77400  -0.438   2.390   8.903  0.9581 -0.7922 -0.5923
  574MOL0     C77401  -0.339   2.396   8.806  0.3827 -0.3497  0.7227
  574MOL0     O77402  -0.097   2.112   8.704  0.1886 -0.0243  0.5603
  574MOL0     C77403  -0.001   2.380   8.495  0.2437  0.0009 -0.3352
  574MOL0     C77404   0.102   2.424   8.416  0.6089  0.4748  0.3014
  574MOL0     N77405   0.616   1.917   7.923  0.3482 -0.5368 -0.0660
  574MOL0     N77406   0.681   1.874   7.825 -0.6868 -0.4381  0.9161
  574MOL0     C77407   0.514   2.240   6.758  0.1803  0.1446 -0.2137
  574MOL0     C77408   0.449   2.294   6.647 -0.1796  0.4296 -0.3828
  574MOL0     C77409   0.378   2.482   6.215 -0.1308 -0.1489 -0.2880
  574MOL0     C77410   0.248   2.497   6.263 -0.6932 -0.9912  0.0360
  574MOL0     C77411   0.147   2.541   6.181 -0.2645  0.0157 -0.3716
  574MOL0     C77412   0.162   2.579   6.057 -0.3327 -0.2377 -0.3028
  574MOL0     O77413   0.054   2.637   5.997 -0.0077 -0.0172  0.5626
  574MOL0     C77414   0.063   2.687   5.862  0.6751  0.4060  0.0513
  574MOL0     C77415   0.060   2.848   5.870  0.3778  0.8804 -0.3112
  574MOL0     C77416  -0.049   2.909   5.963 -0.6440 -0.6522  0.7244
  574MOL0     C77417  -0.067   3.064   5.928  0.0376  0.5683 -0.6001
  574MOL0     C77418   0.027   3.153   5.996  0.2206  0.1711  0.2855
  574MOL0     C77419   0.108   3.215   6.057  0.4190 -0.6354 -0.3957
  574MOL0     C77420   0.294   2.566   6.003 -0.1415  0.2966 -0.4848
  574MOL0     C77421   0.394   2.516   6.082 -0.7186  0.2668  0.7371
  574MOL0     C77422   0.519   2.499   6.005  0.8721  0.3420 -0.0404
  574MOL0     H77423   0.727   2.345   6.450  1.3984 -1.8773  1.1414
  574MOL0     H77424   0.825   2.250   6.649 -0.3489  2.6696  0.6244
  574MOL0     H77425   0.651   2.330   6.954 -1.6507 -0.4148 -2.1038
  574MOL0     H77426   0.582   2.187   7.020  0.1651  1.0809  2.2272
  574MOL0     H77427   0.870   2.271   7.076 -0.7570 -0.3384  0.3482
  574MOL0     H77428   0.800   2.111   7.091  1.6418 -0.2086 -0.3096
  574MOL0     H77429   0.664   2.147   7.265  1.7860 -0.3506  0.6770
  574MOL0     H77430   0.639   2.317   7.237  1.5107  0.9270  1.0727
  574MOL0     H77431   0.887   2.347   7.309 -1.3884  0.6280  0.3643
  574MOL0     H77432   0.790   2.296   7.438  2.4820  0.7035 -0.1323
  574MOL0     H77433   0.957   2.109   7.275  0.1587 -0.8700 -0.0420
  574MOL0     H77434   0.971   2.159   7.447 -0.5006  3.3111 -0.9096
  574MOL0     H77435   0.769   1.974   7.323 -0.3461 -0.1373  2.0826
  574MOL0     H77436   0.909   1.927   7.416  0.2881 -0.4134  0.0230
  574MOL0     H77437   0.674   2.094   7.516 -0.1354 -0.3123 -0.1087
  574MOL0     H77438   0.822   2.051   7.611  2.1671  0.3439 -1.5330
  574MOL0     H77439   0.606   1.881   7.505 -0.3846 -0.6476 -1.5741
  574MOL0     H77440   0.755   1.809   7.566 -3.3290 -2.2102 -0.8504
  574MOL0     H77441   0.451   2.044   7.669  1.6678  1.7956 -1.3684
  574MOL0     H77442   0.342   2.118   7.877 -0.4610 -3.7063 -2.6852
  574MOL0     H77443   0.338   1.986   7.994 -0.1487 -0.8610 -2.9054
  574MOL0     H77444   0.504   2.062   8.140  1.1390 -0.6679 -1.0523
  574MOL0     H77445   0.544   2.203   8.038  1.6513  1.2653  4.6513
  574MOL0     H77446   0.292   2.140   8.195  0.5797 -0.7672 -0.2681
  574MOL0     H77447   0.305   2.271   8.071 -0.1049  0.3103 -0.4757
  574MOL0     H77448   0.474   2.377   8.194  1.1364 -0.5160  0.6315
  574MOL0     H77449   0.469   2.270   8.329  1.1187  3.3086  0.4759
  574MOL0     H77450   0.309   2.150   8.442  0.2878  0.1066 -0.8391
  574MOL0     H77451   0.137   2.079   8.584 -1.4183  0.6287  1.2364
  574MOL0     H77452  -0.385   2.079   8.695 -0.8934 -0.0763  0.6131
  574MOL0     H77453  -0.555   2.075   8.865  0.8238  0.5767  1.6278
  574MOL0     H77454  -0.493   2.376   9.163 -0.4598  2.8762  1.4601
  574MOL0     H77455  -0.643   2.445   9.107  1.0065 -0.0833  0.4936
  574MOL0     H77456  -0.718   2.380   9.334  1.4134  1.4352 -1.1670
  574MOL0     H77457  -0.781   2.271   9.212  1.2102 -2.0132 -2.4504
  574MOL0     H77458  -0.568   2.130   9.288  1.2308  1.4836 -0.3473
  574MOL0     H77459  -0.567   2.243   9.423 -1.1775 -1.7388  1.5697
  574MOL0     H77460  -0.803   2.050   9.369 -3.2613  1.3508  2.4808
  574MOL0     H77461  -0.790   2.160   9.493 -2.4062 -1.7734 -1.8479
  574MOL0     H77462  -0.607   2.057   9.599 -1.4169 -1.5822  1.0429
  574MOL0     H77463  -0.552   1.978   9.454  0.3645 -3.5331  0.4136
  574MOL0     H77464  -0.769   1.837   9.470  1.9461  0.7810 -1.7111
  574MOL0     H77465  -0.640   1.793   9.578 -1.9043 -1.7788 -3.4338
  574MOL0     H77466  -0.855   1.999   9.664 -0.7769  0.4652  2.2075
  574MOL0     H77467  -0.735   1.930   9.761 -0.0775  0.7755 -0.4449
  574MOL0     H77468  -0.968   1.862   9.770 -1.5724  1.0270 -3.0740
  574MOL0     H77469  -0.945   1.761   9.618  1.7935  1.3275 -1.5122
  574MOL0     H77470  -0.459   2.486   8.949 -2.2721  0.1882 -3.7150
  574MOL0     H77471  -0.280   2.485   8.788 -1.5535  1.1709  1.5651
  574MOL0     H77472  -0.088   2.443   8.509  0.8506  1.0217 -1.0226
  574MOL0     H77473   0.074   2.510   8.356 -1.3353 -0.7998 -0.7543
  574MOL0     H77474   0.452   2.202   6.839  2.4604 -3.4779  0.0740
  574MOL0     H77475   0.341   2.297   6.649 -0.2789 -1.5686 -0.0943
  574MOL0     H77476   0.222   2.481   6.367 -3.3526 -0.6662 -0.5163
  574MOL0     H77477   0.047   2.555   6.222  0.5646  1.1096  1.3720
  574MOL0     H77478  -0.022   2.655   5.801  0.5316  0.1854  0.3674
  574MOL0     H77479   0.154   2.668   5.804  0.9528  3.0613 -0.5130
  574MOL0     H77480   0.031   2.874   5.767 -2.5379 -4.8390 -1.3308
  574MOL0     H77481   0.159   2.894   5.874  1.2415 -0.9694  2.2302
  574MOL0     H77482  -0.015   2.902   6.067  0.7081  1.9371  0.5271
  574MOL0     H77483  -0.142   2.851   5.957 -1.3630 -0.0951  4.3219
  574MOL0     H77484  -0.079   3.093   5.823 -0.3098  2.8986  0.0246
  574MOL0     H77485  -0.166   3.078   5.972 -0.3651 -1.4675 -0.7242
  574MOL0     H77486   0.182   3.269   6.112  0.1713  0.2699 -0.9356
  574MOL0     H77487   0.308   2.589   5.898 -2.5340  1.4095 -0.6405
  574MOL0     H77488   0.594   2.438   6.057 -1.7419 -3.7122 -0.5266
  574MOL0     H77489   0.497   2.446   5.912 -0.3566  0.5423  0.1158
  574MOL0     H77490   0.556   2.600   5.989 -1.9192  1.8549  2.0085
  575MOL0     O77491   6.153   2.044   0.988  1.1832  0.6055  0.6552
  575MOL0     C77492   6.213   2.144   0.996  0.1830  0.6490  0.5144
  575MOL0     O77493   6.190   2.252   0.923 -0.0492 -0.5153  0.5968
  575MOL0     C77494   6.071   2.267   0.855 -0.8767 -0.5818 -0.3775
  575MOL0     C77495   5.979   2.358   0.900  0.1467  0.3126  0.3109
  575MOL0     C77496   5.862   2.387   0.835  0.9773 -0.1492  0.4357
  575MOL0     C77497   5.821   2.316   0.720  0.0793  0.7694 -0.2407
  575MOL0     O77498   5.701   2.341   0.651 -0.2629  0.0416  0.3080
  575MOL0     C77499   5.613   2.443   0.696 -1.3919  0.1107 -0.4049
  575MOL0     C77500   5.468   2.422   0.657 -0.4758 -0.1848  0.1229
  575MOL0     C77501   5.455   2.433   0.509 -0.0272 -0.1201 -0.0438
  575MOL0     C77502   5.322   2.497   0.473 -0.2073 -0.2675  0.2270
  575MOL0     C77503   5.206   2.388   0.491 -0.2593 -0.0848  0.0705
  575MOL0     C77504   5.056   2.437   0.471  0.3060 -0.2928  0.2590
  575MOL0     C77505   5.012   2.425   0.327  0.2202  0.9105 -1.3217
  575MOL0     C77506   4.884   2.507   0.303  0.0269  0.0129 -0.8086
  575MOL0     N77507   4.919   2.650   0.310  0.5116 -0.3712 -0.9235
  575MOL0     C77508   4.953   2.722   0.199  1.0482  0.3620  0.2492
  575MOL0     C77509   4.962   2.850   0.229 -0.1730  0.9705  0.3918
  575MOL0     C77510   4.997   2.946   0.122 -1.0244  0.3233 -0.1999
  575MOL0     C77511   5.011   3.090   0.179 -0.8369  0.6972 -0.4768
  575MOL0     C77512   5.049   3.194   0.066 -0.9381  0.3381  0.4973
  575MOL0     C77513   4.940   3.234  -0.043 -0.1396  0.8222 -0.4930
  575MOL0     O77514   5.006   3.249  -0.170  0.4652  0.2004  0.1497
  575MOL0     C77515   4.919   3.266  -0.278 -0.0634 -0.5326 -0.5320
  575MOL0     C77516   4.782   3.278  -0.275 -0.4246  0.1778 -0.3384
  575MOL0     C77517   4.712   3.317  -0.389  0.0302 -0.4599  0.2863
  575MOL0     C77518   4.777   3.345  -0.504  0.0090  0.1814  0.6335
  575MOL0     C77519   4.708   3.410  -0.621  0.5300 -0.4056  0.0508
  575MOL0     O77520   4.789   3.451  -0.728  0.1284 -0.2476 -0.2247
  575MOL0     C77521   4.725   3.496  -0.843  1.1394 -0.7555 -0.9062
  575MOL0     C77522   4.684   3.631  -0.851 -0.5015  0.6407 -0.7252
  575MOL0     C77523   4.610   3.669  -0.960  0.2955 -0.0113  0.3154
  575MOL0     C77524   4.574   3.578  -1.061 -0.0737 -0.6392  0.1362
  575MOL0     O77525   4.512   3.625  -1.173  0.1391  0.7288 -0.1605
  575MOL0     C77526   4.367   3.635  -1.170 -0.3844  0.5697 -1.0006
  575MOL0     C77527   4.337   3.640  -1.320  0.1849  1.1552 -0.5099
  575MOL0     C77528   4.193   3.700  -1.337 -1.0065  0.4524  0.2336
  575MOL0     C77529   4.149   3.724  -1.478  0.1656 -0.1529  0.6982
  575MOL0     C77530   4.030   3.819  -1.464  0.5313  0.2508  0.7085
  575MOL0     C77531   3.970   3.884  -1.598  0.0054 -1.0847  0.0930
  575MOL0     C77532   3.902   3.773  -1.674 -0.9084 -0.6877  0.2378
  575MOL0     C77533   3.846   3.827  -1.804  0.3937 -0.2973  0.8687
  575MOL0    Cl77534   3.704   3.932  -1.779  0.3065  0.1378 -0.0664
  575MOL0     C77535   4.619   3.448  -1.058 -1.6465 -0.1039 -0.1172
  575MOL0     C77536   4.683   3.408  -0.938 -0.0177 -0.7643 -0.4166
  575MOL0     O77537   4.586   3.419  -0.612 -0.4009 -1.0706 -0.4362
  575MOL0     C77538   4.919   3.330  -0.502 -0.1196  0.3806 -0.9335
  575MOL0     C77539   4.993   3.292  -0.392  0.3511 -0.6988  0.3926
  575MOL0     N77540   4.930   2.862   0.367 -0.0878 -0.2968  0.7961
  575MOL0     N77541   4.895   2.741   0.410 -0.2481 -0.1386  0.4815
  575MOL0     C77542   5.916   2.226   0.672 -0.2678  0.1238  1.1383
  575MOL0     C77543   6.032   2.198   0.735 -0.4927 -0.7354  0.5632
  575MOL0     C77544   6.347   2.139   1.065  0.4138 -0.2243  0.3008
  575MOL0     C77545   6.427   2.264   1.065  0.5385  0.8485  0.5161
  575MOL0     C77546   6.564   2.268   1.116  0.3728  0.4645  1.2614
  575MOL0     C77547   6.616   2.154   1.173 -1.2352  0.0731 -0.8701
  575MOL0     O77548   6.752   2.163   1.212  0.5145  0.9105  0.7725
  575MOL0     C77549   6.801   2.072   1.311  0.1981 -0.2956 -0.2108
  575MOL0     C77550   6.952   2.111   1.336 -0.5268 -0.5740 -0.1022
  575MOL0     C77551   7.005   2.052   1.465 -0.0754 -0.1858  0.5626
  575MOL0     C77552   7.127   2.128   1.508 -0.0844  0.5284  0.0026
  575MOL0     C77553   7.242   2.084   1.426 -1.0595 -0.8194  0.3272
  575MOL0     C77554   7.336   2.071   1.351  0.1041  0.1109  0.1931
  575MOL0     C77555   6.528   2.045   1.193 -0.5461  0.0035  0.1102
  575MOL0     C77556   6.401   2.028   1.133 -0.0747  0.6719  0.2691
  575MOL0     C77557   6.325   1.902   1.161  0.4180  0.2722  0.6352
  575MOL0     H77558   6.015   2.410   0.988 -0.0738 -0.0397  0.6152
  575MOL0     H77559   5.804   2.471   0.872 -0.6738 -1.7105  1.5917
  575MOL0     H77560   5.610   2.447   0.805 -2.1228  1.9337 -0.4488
  575MOL0     H77561   5.650   2.543   0.669 -0.8588  0.2513  0.7771
  575MOL0     H77562   5.397   2.491   0.704 -1.1290 -0.4476 -0.4533
  575MOL0     H77563   5.437   2.321   0.687  0.0046  0.1056  1.6870
  575MOL0     H77564   5.458   2.334   0.463 -1.9934  1.1278 -3.1848
  575MOL0     H77565   5.538   2.493   0.471  1.9660 -2.0687  0.9839
  575MOL0     H77566   5.291   2.583   0.533 -0.1331  2.9155 -3.8087
  575MOL0     H77567   5.328   2.517   0.366  1.6089 -2.2637 -0.1168
  575MOL0     H77568   5.237   2.306   0.426  0.2364 -1.3429  1.8323
  575MOL0     H77569   5.218   2.340   0.588  0.8768 -0.9941 -0.5046
  575MOL0     H77570   5.000   2.365   0.531  3.6481 -1.4787  2.2230
  575MOL0     H77571   5.039   2.541   0.500  1.3800  0.5113 -1.7610
  575MOL0     H77572   4.992   2.318   0.312 -0.7559  0.8915 -0.0836
  575MOL0     H77573   5.082   2.454   0.248  0.1106 -0.3328 -1.8978
  575MOL0     H77574   4.840   2.487   0.205 -0.9678  1.1024 -0.5971
  575MOL0     H77575   4.807   2.486   0.378 -0.2815 -2.1112 -1.6430
  575MOL0     H77576   4.981   2.672   0.106  0.5863  1.0739 -0.2844
  575MOL0     H77577   5.093   2.919   0.078 -0.7991 -0.3042  0.6440
  575MOL0     H77578   4.933   2.942   0.034  1.8014 -0.1063 -2.3613
  575MOL0     H77579   4.914   3.116   0.223 -1.6829 -1.6328 -0.8176
  575MOL0     H77580   5.083   3.089   0.261  0.9866  0.2173 -2.0044
  575MOL0     H77581   5.134   3.155   0.010 -1.3505  1.2551 -0.8184
  575MOL0     H77582   5.076   3.281   0.126  1.4143  0.1657 -0.2134
  575MOL0     H77583   4.885   3.323  -0.011 -2.4487 -0.3137 -1.1250
  575MOL0     H77584   4.868   3.153  -0.055 -1.2088  1.2461  2.2359
  575MOL0     H77585   4.731   3.250  -0.184  1.4587 -3.2433 -0.2121
  575MOL0     H77586   4.608   3.344  -0.374  0.8248  1.9287  2.1043
  575MOL0     H77587   4.712   3.700  -0.772 -0.4023  2.7800 -2.5285
  575MOL0     H77588   4.572   3.770  -0.970  0.3841  0.1469  1.4507
  575MOL0     H77589   4.331   3.537  -1.135  3.2744 -2.2545 -4.2624
  575MOL0     H77590   4.322   3.713  -1.108 -2.1408  1.3277 -3.0833
  575MOL0     H77591   4.409   3.712  -1.361  1.4168  1.6924  2.3555
  575MOL0     H77592   4.357   3.542  -1.365  1.0917 -0.9454  3.9023
  575MOL0     H77593   4.125   3.631  -1.286  1.0548 -1.4915  0.5379
  575MOL0     H77594   4.205   3.796  -1.286 -0.3074  0.6965 -0.3708
  575MOL0     H77595   4.119   3.631  -1.527  3.5870 -1.1063  0.1895
  575MOL0     H77596   4.224   3.771  -1.542 -0.2275 -0.7601 -0.2394
  575MOL0     H77597   4.054   3.898  -1.392 -0.5012  1.1100  0.1433
  575MOL0     H77598   3.940   3.777  -1.419 -0.0698  2.1185  1.3320
  575MOL0     H77599   3.897   3.963  -1.577 -0.2582 -1.5538  0.9951
  575MOL0     H77600   4.044   3.927  -1.666 -1.2712 -0.6737 -1.0916
  575MOL0     H77601   3.821   3.730  -1.614 -0.4294 -1.3953  0.3982
  575MOL0     H77602   3.969   3.689  -1.695  0.8544  0.7321 -0.0346
  575MOL0     H77603   3.923   3.877  -1.862  1.3242 -3.5743 -1.0156
  575MOL0     H77604   3.799   3.746  -1.861  0.4614 -0.8930  1.6287
  575MOL0     H77605   4.606   3.379  -1.141  2.3217 -0.9549 -0.2263
  575MOL0     H77606   4.691   3.305  -0.906  0.5428 -0.7702 -0.5700
  575MOL0     H77607   4.971   3.360  -0.593 -2.7053  0.3859 -2.4996
  575MOL0     H77608   5.100   3.278  -0.390  0.3552 -0.9570 -1.1084
  575MOL0     H77609   5.888   2.176   0.580 -3.7030  0.7588  1.7263
  575MOL0     H77610   6.110   2.134   0.695 -1.1071 -1.1128 -0.0510
  575MOL0     H77611   6.383   2.352   1.020  0.2739  1.4429  1.8777
  575MOL0     H77612   6.642   2.343   1.114 -0.3019  1.1742  1.0241
  575MOL0     H77613   6.800   1.965   1.286 -1.7308 -0.5256  0.6486
  575MOL0     H77614   6.736   2.068   1.399 -0.4555  0.3146 -0.6587
  575MOL0     H77615   6.969   2.219   1.335  2.3849 -0.8886 -3.4174
  575MOL0     H77616   7.017   2.072   1.257  1.6926  1.4579  0.5807
  575MOL0     H77617   7.039   1.950   1.444 -0.9364 -0.4212  0.2537
  575MOL0     H77618   6.921   2.057   1.535 -0.4106  2.0674  0.0447
  575MOL0     H77619   7.119   2.237   1.516  1.2260  0.8064 -1.7528
  575MOL0     H77620   7.152   2.088   1.607  1.7414 -0.9449 -1.0011
  575MOL0     H77621   7.428   2.076   1.295  0.7397 -0.2728  1.1788
  575MOL0     H77622   6.570   1.955   1.237  0.2533  0.9712  1.4087
  575MOL0     H77623   6.314   1.836   1.074  1.5179 -1.3089  1.6348
  575MOL0     H77624   6.368   1.839   1.239 -2.2705 -0.2402  1.8324
  575MOL0     H77625   6.224   1.932   1.192  0.3349 -0.2192  0.8560
  576MOL0     O77626   3.190   3.965   0.125  0.3302  0.2497  0.0197
  576MOL0     C77627   3.137   3.866   0.177 -0.1023  0.0810 -0.0675
  576MOL0     O77628   3.150   3.737   0.132 -0.6863  0.1272  0.5807
  576MOL0     C77629   3.254   3.700   0.049 -0.5132  0.1035 -0.7342
  576MOL0     C77630   3.245   3.576  -0.034  0.0069 -0.5144 -0.0185
  576MOL0     C77631   3.359   3.533  -0.107 -0.0488  0.5215  0.8923
  576MOL0     C77632   3.477   3.603  -0.117  0.2106 -0.4273 -0.6016
  576MOL0     O77633   3.580   3.571  -0.205 -0.7055  0.4135  1.0942
  576MOL0     C77634   3.607   3.435  -0.239  1.0865  0.8573  0.0736
  576MOL0     C77635   3.742   3.404  -0.292  0.0886  0.4073 -0.0346
  576MOL0     C77636   3.770   3.478  -0.420 -0.3837  0.4891  0.2085
  576MOL0     C77637   3.868   3.396  -0.510  0.4947  0.2375 -0.1070
  576MOL0     C77638   3.890   3.474  -0.649 -0.0114  0.3075 -0.1913
  576MOL0     C77639   3.991   3.587  -0.613 -0.1163  0.4184  0.4678
  576MOL0     C77640   4.070   3.614  -0.742  0.2730  0.2243 -0.1642
  576MOL0     C77641   4.182   3.727  -0.731  0.6133 -0.2952  0.3968
  576MOL0     N77642   4.248   3.718  -0.607  0.0122 -0.0721 -0.1730
  576MOL0     C77643   4.360   3.649  -0.584 -0.1410  0.7370  0.2828
  576MOL0     C77644   4.402   3.707  -0.466 -0.5815 -0.5843 -0.6561
  576MOL0     C77645   4.526   3.661  -0.399 -0.3418  0.1282  0.3123
  576MOL0     C77646   4.611   3.762  -0.334 -0.4570 -0.7551  0.1951
  576MOL0     C77647   4.720   3.692  -0.252  0.5598  0.6179 -1.1073
  576MOL0     C77648   4.818   3.798  -0.188 -1.2255  0.4368  0.4708
  576MOL0     O77649   4.908   3.860  -0.284  0.2908 -1.1887  0.1502
  576MOL0     C77650   5.012   3.775  -0.318  0.2087  0.4477  0.3661
  576MOL0     C77651   5.032   3.746  -0.449 -0.1264 -0.8909  0.9123
  576MOL0     C77652   5.135   3.656  -0.484  0.4751  0.0427  0.4721
  576MOL0     C77653   5.228   3.606  -0.387 -0.0207 -0.2611  1.0363
  576MOL0     C77654   5.326   3.511  -0.429  1.1950 -0.5982 -0.4180
  576MOL0     O77655   5.417   3.471  -0.329  1.0068  0.1316  0.6622
  576MOL0     C77656   5.499   3.375  -0.377 -0.1531  0.7453 -0.0701
  576MOL0     C77657   5.469   3.242  -0.350  1.6727 -0.6621  0.0464
  576MOL0     C77658   5.554   3.143  -0.391  0.0604 -0.5716  0.0463
  576MOL0     C77659   5.675   3.184  -0.453 -0.3349  0.7577  0.4589
  576MOL0     O77660   5.764   3.085  -0.485  0.1395 -0.3444 -0.1922
  576MOL0     C77661   5.904   3.108  -0.457 -0.8193  0.8736 -0.1392
  576MOL0     C77662   5.980   2.983  -0.515 -0.1858 -0.1774 -0.7060
  576MOL0     C77663   6.132   2.995  -0.495  0.5127  0.6595 -0.7794
  576MOL0     C77664   6.195   2.885  -0.579  0.2327  0.5219  0.3509
  576MOL0     C77665   6.338   2.858  -0.545  0.0228  1.6512 -1.2638
  576MOL0     C77666   6.443   2.942  -0.613 -0.0717 -0.5125  0.3354
  576MOL0     C77667   6.581   2.911  -0.548 -0.6212 -0.2377  0.5114
  576MOL0     C77668   6.681   2.982  -0.640 -0.4252  0.3993  0.8600
  576MOL0    Cl77669   6.863   2.933  -0.607  0.1258  0.0623  0.1892
  576MOL0     C77670   5.692   3.306  -0.505 -0.6246 -0.3498 -0.7568
  576MOL0     C77671   5.611   3.406  -0.458 -0.5441 -0.5123  0.6856
  576MOL0     O77672   5.313   3.458  -0.540  0.6631  0.0185  0.5668
  576MOL0     C77673   5.203   3.642  -0.256  0.6961 -0.1185 -1.1941
  576MOL0     C77674   5.106   3.742  -0.221  0.5991  1.0456 -0.3529
  576MOL0     N77675   4.312   3.803  -0.426  0.6820  0.1589 -0.3363
  576MOL0     N77676   4.220   3.809  -0.510 -0.7851  0.0629 -0.4099
  576MOL0     C77677   3.486   3.718  -0.035  0.5695 -0.5159 -0.0289
  576MOL0     C77678   3.383   3.762   0.050 -0.3371 -0.7656 -0.0613
  576MOL0     C77679   3.066   3.873   0.309 -0.2570  0.6919  0.3505
  576MOL0     C77680   2.940   3.815   0.311 -0.8705  0.4618 -0.0560
  576MOL0     C77681   2.861   3.810   0.428  0.5841  0.1610  1.0033
  576MOL0     C77682   2.897   3.871   0.550  0.4779 -0.0839 -1.0980
  576MOL0     O77683   2.824   3.839   0.668  0.1679  0.1303 -0.0415
  576MOL0     C77684   2.724   3.930   0.720 -0.1595  0.1888  0.5012
  576MOL0     C77685   2.598   3.904   0.631 -0.7920 -0.5503 -0.4714
  576MOL0     C77686   2.535   3.762   0.659  0.1596 -0.8823  0.2799
  576MOL0     C77687   2.446   3.723   0.542 -0.3514  0.5393  0.3939
  576MOL0     C77688   2.332   3.818   0.535 -0.6206 -0.3936  0.7318
  576MOL0     C77689   2.230   3.886   0.534 -0.9662 -0.0093  0.2667
  576MOL0     C77690   3.020   3.944   0.545  0.0920 -0.2340  0.6138
  576MOL0     C77691   3.105   3.939   0.430 -0.4515 -0.0885  0.2627
  576MOL0     C77692   3.245   3.996   0.425 -0.3873 -0.2513 -1.0842
  576MOL0     H77693   3.153   3.519  -0.040 -1.1165  1.3716 -2.7731
  576MOL0     H77694   3.348   3.447  -0.172  1.7497  1.6142 -0.9622
  576MOL0     H77695   3.583   3.374  -0.151 -0.8222  0.0206 -0.9694
  576MOL0     H77696   3.539   3.415  -0.322  2.9511  0.4298 -1.4202
  576MOL0     H77697   3.750   3.297  -0.313 -0.0267  0.6642 -1.5166
  576MOL0     H77698   3.813   3.434  -0.214  0.0496 -0.1129  0.2028
  576MOL0     H77699   3.830   3.566  -0.396  2.0931 -1.8623  3.6729
  576MOL0     H77700   3.680   3.502  -0.476 -0.3929 -1.5796 -0.7499
  576MOL0     H77701   3.960   3.363  -0.461  0.7425  2.0083  0.7206
  576MOL0     H77702   3.814   3.306  -0.540  1.5591 -0.7243  0.7938
  576MOL0     H77703   3.948   3.408  -0.714 -0.2559  1.2166 -1.3598
  576MOL0     H77704   3.801   3.508  -0.702 -0.2176 -2.7569 -2.0623
  576MOL0     H77705   3.932   3.673  -0.579  1.2557  1.6237 -0.0484
  576MOL0     H77706   4.064   3.557  -0.537 -1.2519  1.6979  2.1332
  576MOL0     H77707   3.999   3.636  -0.822  0.4913  0.8002 -0.2032
  576MOL0     H77708   4.125   3.526  -0.777  0.3570 -0.1267  0.8190
  576MOL0     H77709   4.254   3.713  -0.812 -2.8059  0.4277 -3.1195
  576MOL0     H77710   4.140   3.828  -0.741  1.6029 -0.0579 -2.0104
  576MOL0     H77711   4.400   3.574  -0.651 -0.7017  2.1154 -1.6834
  576MOL0     H77712   4.511   3.576  -0.332 -0.6655 -0.7076 -0.7871
  576MOL0     H77713   4.584   3.620  -0.482 -2.3648 -1.5072 -0.3816
  576MOL0     H77714   4.659   3.829  -0.406 -1.5239  1.5357  1.4952
  576MOL0     H77715   4.552   3.840  -0.284  1.6180  2.2460 -1.7017
  576MOL0     H77716   4.776   3.622  -0.315 -0.6416 -2.5566  1.0629
  576MOL0     H77717   4.685   3.624  -0.173  1.6326  3.2001  1.7752
  576MOL0     H77718   4.870   3.746  -0.107 -3.5121 -2.0054  0.5082
  576MOL0     H77719   4.761   3.879  -0.142  3.0515  3.4895  0.9479
  576MOL0     H77720   4.962   3.782  -0.524  0.9374 -0.9596 -0.1386
  576MOL0     H77721   5.143   3.631  -0.589 -0.9052 -0.7185  0.5225
  576MOL0     H77722   5.380   3.217  -0.293  0.7876 -0.0835 -1.0289
  576MOL0     H77723   5.519   3.042  -0.374  0.5246 -0.5230  1.3853
  576MOL0     H77724   5.934   3.205  -0.497 -3.7470  1.2911 -1.5776
  576MOL0     H77725   5.922   3.099  -0.350 -3.6995 -5.6284  0.2799
  576MOL0     H77726   5.936   2.891  -0.475 -1.4471  0.2001 -1.1769
  576MOL0     H77727   5.971   2.977  -0.623 -2.6086  2.7281 -0.8116
  576MOL0     H77728   6.172   3.087  -0.540  2.6083  0.4294  0.4746
  576MOL0     H77729   6.164   2.992  -0.391  2.5645 -2.9561 -1.3217
  576MOL0     H77730   6.190   2.890  -0.688  0.9732  0.5227  0.3138
  576MOL0     H77731   6.144   2.792  -0.550 -0.6481  1.3391  1.5354
  576MOL0     H77732   6.361   2.751  -0.555  1.3724  1.8739 -0.7747
  576MOL0     H77733   6.347   2.862  -0.436 -0.9601  1.3943 -1.1666
  576MOL0     H77734   6.435   2.918  -0.719 -2.5556 -0.2997  0.4034
  576MOL0     H77735   6.415   3.047  -0.597 -0.8970 -0.7213  0.2788
  576MOL0     H77736   6.601   2.804  -0.550  1.0899  0.0489  0.6598
  576MOL0     H77737   6.574   2.954  -0.448  0.4177  3.9122 -0.9639
  576MOL0     H77738   6.654   2.955  -0.743 -0.4274  2.6154  0.2262
  576MOL0     H77739   6.687   3.091  -0.637 -1.3726  0.5508 -0.9476
  576MOL0     H77740   5.784   3.327  -0.557  1.7861 -3.1146  2.0281
  576MOL0     H77741   5.628   3.508  -0.491  2.6135 -1.2881 -0.4502
  576MOL0     H77742   5.272   3.607  -0.180  1.6220  3.1551 -0.4009
  576MOL0     H77743   5.095   3.788  -0.123  1.9732  1.5654 -0.4199
  576MOL0     H77744   3.580   3.772  -0.041 -0.4984  1.3801 -0.6129
  576MOL0     H77745   3.402   3.850   0.110 -0.2052 -1.8878  1.6171
  576MOL0     H77746   2.909   3.750   0.230 -1.1983 -2.0470  1.9338
  576MOL0     H77747   2.772   3.749   0.415 -0.5496  2.2417 -1.9737
  576MOL0     H77748   2.741   4.037   0.704 -0.6035  0.3902  1.3359
  576MOL0     H77749   2.712   3.909   0.827  2.5576 -1.7875  0.5440
  576MOL0     H77750   2.634   3.917   0.528  2.1615  0.3791  0.5893
  576MOL0     H77751   2.514   3.971   0.648 -3.1971 -3.4942  0.0089
  576MOL0     H77752   2.479   3.777   0.752  0.5248  1.6541  0.1801
  576MOL0     H77753   2.611   3.685   0.673  0.3394 -0.3424  2.9550
  576MOL0     H77754   2.505   3.731   0.450  1.1465 -2.0051  1.0422
  576MOL0     H77755   2.403   3.623   0.548  1.5238 -0.2581  1.0154
  576MOL0     H77756   2.152   3.959   0.545 -4.7105 -3.4610 -0.7539
  576MOL0     H77757   3.042   4.007   0.632 -1.1859  1.8739 -0.5034
  576MOL0     H77758   3.306   3.910   0.394 -1.4864 -2.1103  1.5898
  576MOL0     H77759   3.247   4.078   0.353 -1.9548 -0.7688 -1.7701
  576MOL0     H77760   3.270   4.029   0.526 -0.9097  2.1184 -1.6770
  577MOL0     O77761   6.233   8.821   9.222  0.7670 -0.0495  0.7679
  577MOL0     C77762   6.223   8.806   9.341  0.3684 -0.1537 -0.5375
  577MOL0     O77763   6.295   8.703   9.409  0.0011  0.1143 -0.5222
  577MOL0     C77764   6.386   8.628   9.343  0.4242 -0.1917 -0.6596
  577MOL0     C77765   6.357   8.563   9.223  0.6781  0.5421  0.2269
  577MOL0     C77766   6.451   8.481   9.146 -0.2423  0.5938 -0.2852
  577MOL0     C77767   6.578   8.462   9.204 -0.3116  0.3158  0.5872
  577MOL0     O77768   6.682   8.406   9.127 -0.1021  1.2734  0.5707
  577MOL0     C77769   6.788   8.346   9.189 -0.3947 -0.1699 -1.7720
  577MOL0     C77770   6.891   8.332   9.077  0.0792  0.3981 -0.6065
  577MOL0     C77771   6.999   8.227   9.089  0.4585 -1.3481  0.6085
  577MOL0     C77772   7.025   8.169   8.943  0.4275  0.2317 -1.1879
  577MOL0     C77773   7.128   8.063   8.945  0.2784  0.4402  0.1149
  577MOL0     C77774   7.179   8.047   8.798 -0.6493 -0.7217 -0.2359
  577MOL0     C77775   7.309   7.953   8.792  0.5070  1.0556 -0.4050
  577MOL0     C77776   7.300   7.822   8.876  0.1092 -0.9176 -0.3438
  577MOL0     N77777   7.183   7.739   8.838  0.2326 -0.4503  0.6195
  577MOL0     C77778   7.135   7.634   8.911  0.1570 -0.1715 -0.6016
  577MOL0     C77779   7.029   7.593   8.843  0.7473 -0.6210 -0.3622
  577MOL0     C77780   6.925   7.487   8.880 -0.0000 -0.4159  0.8189
  577MOL0     C77781   6.937   7.367   8.782 -0.1116  0.9810 -0.1812
  577MOL0     C77782   6.904   7.406   8.636  0.1529 -0.9228  0.2460
  577MOL0     C77783   6.887   7.298   8.541 -0.8107 -0.1513 -0.2411
  577MOL0     O77784   7.014   7.249   8.515  0.8157  0.3022 -0.5573
  577MOL0     C77785   7.030   7.186   8.396 -0.0377 -0.4520  0.4400
  577MOL0     C77786   7.162   7.156   8.352  0.3854 -0.2420 -0.5589
  577MOL0     C77787   7.194   7.109   8.219  0.4313  0.2783 -0.7145
  577MOL0     C77788   7.086   7.078   8.134 -0.5323 -0.7594  0.0019
  577MOL0     C77789   7.129   7.027   8.002  0.0101 -0.2550  0.1203
  577MOL0     O77790   7.237   7.089   7.939  0.6713 -0.2784  0.2129
  577MOL0     C77791   7.270   7.063   7.805 -0.6218  0.0014 -0.6598
  577MOL0     C77792   7.304   7.159   7.713  0.2311  0.2735  0.2765
  577MOL0     C77793   7.337   7.129   7.583 -0.2554  0.7087 -0.5413
  577MOL0     C77794   7.341   6.996   7.534 -0.0585 -0.2087  0.6775
  577MOL0     O77795   7.363   6.978   7.403  0.2223  0.1216 -0.1348
  577MOL0     C77796   7.481   6.901   7.362 -0.5686 -0.6697  0.5103
  577MOL0     C77797   7.480   6.856   7.220 -0.2267  0.7132 -0.0226
  577MOL0     C77798   7.628   6.803   7.187  0.7014  1.0778  0.4538
  577MOL0     C77799   7.658   6.772   7.045  0.6253  0.8976  0.9063
  577MOL0     C77800   7.799   6.708   7.025  0.6211 -0.1922  0.3853
  577MOL0     C77801   7.843   6.696   6.869 -0.5929  0.9179 -0.3759
  577MOL0     C77802   7.752   6.613   6.782 -0.5607 -1.3802  0.7236
  577MOL0     C77803   7.809   6.600   6.639  0.0416 -0.1301  0.2214
  577MOL0    Cl77804   7.785   6.756   6.553  0.2049 -0.1042  0.2381
  577MOL0     C77805   7.298   6.898   7.624 -0.3899 -0.0822  0.2342
  577MOL0     C77806   7.270   6.929   7.759  0.1190  0.1515  0.1320
  577MOL0     O77807   7.059   6.933   7.968 -0.6936 -0.1852  0.5616
  577MOL0     C77808   6.955   7.084   8.179  0.3858 -0.1396 -0.5667
  577MOL0     C77809   6.924   7.145   8.308 -0.5282  0.2377  0.6645
  577MOL0     N77810   7.017   7.677   8.730  0.4954  0.5490 -0.4015
  577MOL0     N77811   7.110   7.760   8.720 -0.3005  0.2740 -1.1585
  577MOL0     C77812   6.603   8.510   9.334  0.1904 -0.2285  0.6207
  577MOL0     C77813   6.509   8.594   9.400 -0.4881 -0.4594  0.9762
  577MOL0     C77814   6.120   8.893   9.417 -0.0630  0.4594  0.6508
  577MOL0     C77815   6.042   8.981   9.342  1.5664  0.4849 -0.3767
  577MOL0     C77816   5.955   9.074   9.386 -0.1859  0.4725  0.3423
  577MOL0     C77817   5.929   9.077   9.523 -0.7925 -0.2323  0.7499
  577MOL0     O77818   5.825   9.158   9.559  0.0347  0.5719 -0.0766
  577MOL0     C77819   5.786   9.173   9.689 -0.1751 -0.2284 -0.6093
  577MOL0     C77820   5.826   9.318   9.725  0.1580 -0.6771  0.2315
  577MOL0     C77821   5.758   9.382   9.846  0.1056  0.6837 -1.4475
  577MOL0     C77822   5.628   9.453   9.814 -0.9415 -0.0571  0.1686
  577MOL0     C77823   5.649   9.581   9.746 -0.0107  1.3257 -0.4091
  577MOL0     C77824   5.672   9.696   9.713 -0.1535  0.3362  0.3623
  577MOL0     C77825   6.010   8.992   9.611 -0.7326 -0.2985 -0.0671
  577MOL0     C77826   6.101   8.893   9.556  0.2684 -0.2669  0.5635
  577MOL0     C77827   6.185   8.827   9.659  0.1076 -1.0768 -0.7352
  577MOL0     H77828   6.260   8.579   9.176  0.5632  1.1142  0.6577
  577MOL0     H77829   6.434   8.429   9.052 -2.9244 -0.2177  0.5730
  577MOL0     H77830   6.841   8.403   9.266  1.1820 -2.4732 -1.0549
  577MOL0     H77831   6.764   8.251   9.238  1.2465 -0.6568 -1.8275
  577MOL0     H77832   6.948   8.425   9.072 -0.5063  1.0760  3.0372
  577MOL0     H77833   6.838   8.317   8.982  0.1996  1.0797 -0.7811
  577MOL0     H77834   6.968   8.150   9.160  1.0928 -1.1318  1.1306
  577MOL0     H77835   7.091   8.268   9.132  0.6283  1.2356 -1.9508
  577MOL0     H77836   6.930   8.141   8.896 -1.1449 -0.3915  2.0565
  577MOL0     H77837   7.051   8.257   8.883 -2.3084  1.3204 -0.9582
  577MOL0     H77838   7.211   8.095   9.008 -1.8635  4.4094  1.3262
  577MOL0     H77839   7.082   7.972   8.985 -2.7491  1.0002 -1.7204
  577MOL0     H77840   7.100   8.033   8.724 -1.1177  4.0030 -0.9444
  577MOL0     H77841   7.217   8.142   8.759  0.7457 -2.1338 -2.5443
  577MOL0     H77842   7.407   8.001   8.803  2.3158 -1.3950 -3.8160
  577MOL0     H77843   7.319   7.920   8.688  0.4780 -2.1498  0.4996
  577MOL0     H77844   7.401   7.779   8.870  1.1281  1.3622 -0.5716
  577MOL0     H77845   7.295   7.853   8.981  0.1681  1.8582 -1.0883
  577MOL0     H77846   7.165   7.604   9.011  0.7135 -1.6408 -1.1854
  577MOL0     H77847   6.940   7.450   8.982 -0.5002 -3.6509 -0.1694
  577MOL0     H77848   6.828   7.535   8.869  0.4831  0.0469 -2.0502
  577MOL0     H77849   7.035   7.320   8.790 -0.4079  0.1533 -1.2377
  577MOL0     H77850   6.864   7.298   8.826 -0.3075  0.7524 -0.8536
  577MOL0     H77851   6.990   7.464   8.601  1.0615 -0.8008  2.5105
  577MOL0     H77852   6.815   7.469   8.629  0.5999 -0.4055 -1.0681
  577MOL0     H77853   6.835   7.342   8.455 -0.5685  1.3802  0.3621
  577MOL0     H77854   6.825   7.220   8.587 -1.7761  0.6941 -0.0677
  577MOL0     H77855   7.236   7.187   8.424 -0.0056 -0.5408 -0.0232
  577MOL0     H77856   7.299   7.093   8.199  0.2242 -1.9672 -0.3264
  577MOL0     H77857   7.328   7.258   7.750  3.1049 -0.3690  0.3182
  577MOL0     H77858   7.368   7.212   7.520  1.6607  0.5057  0.0504
  577MOL0     H77859   7.568   6.952   7.404 -0.5505 -0.8935  0.7494
  577MOL0     H77860   7.473   6.811   7.425  0.3609 -0.9506  0.2549
  577MOL0     H77861   7.411   6.771   7.215  1.7823 -1.1720  1.9202
  577MOL0     H77862   7.447   6.937   7.155 -0.5885 -0.0577 -0.8286
  577MOL0     H77863   7.701   6.880   7.215  0.4239  0.0173  4.7194
  577MOL0     H77864   7.632   6.718   7.256 -0.8644  0.5293 -0.0912
  577MOL0     H77865   7.652   6.865   6.987 -0.1293 -0.5848 -1.5241
  577MOL0     H77866   7.578   6.714   6.999  2.1122 -0.1844 -0.4123
  577MOL0     H77867   7.797   6.607   7.067 -1.5646 -1.7832 -3.1265
  577MOL0     H77868   7.863   6.774   7.085 -1.0876  0.1113  1.9830
  577MOL0     H77869   7.853   6.796   6.825 -1.2331  1.9531  1.7126
  577MOL0     H77870   7.941   6.648   6.873 -1.3684 -0.9022 -2.0557
  577MOL0     H77871   7.651   6.654   6.768  1.1557  2.4674 -2.0547
  577MOL0     H77872   7.750   6.516   6.833  5.4320 -2.4429 -0.3880
  577MOL0     H77873   7.913   6.564   6.635  0.0002 -0.1752 -0.7945
  577MOL0     H77874   7.751   6.519   6.594  0.5794  1.0656 -2.8909
  577MOL0     H77875   7.265   6.798   7.596 -0.1083  0.3064 -1.6150
  577MOL0     H77876   7.238   6.860   7.837 -2.2042  2.2025  1.1200
  577MOL0     H77877   6.869   7.054   8.119  1.5208 -3.7802 -0.6165
  577MOL0     H77878   6.820   7.159   8.334 -0.3588 -1.1814  2.2834
  577MOL0     H77879   6.697   8.500   9.387  1.2654 -1.0494 -1.3036
  577MOL0     H77880   6.531   8.627   9.501  2.6572 -3.7114  1.5362
  577MOL0     H77881   6.045   8.988   9.233 -2.6366  2.2118 -0.5462
  577MOL0     H77882   5.904   9.138   9.314 -1.5470  0.9598  1.6908
  577MOL0     H77883   5.834   9.102   9.757  1.9492 -0.1017 -1.8943
  577MOL0     H77884   5.680   9.144   9.692 -0.6374  1.3662 -0.9921
  577MOL0     H77885   5.821   9.387   9.641 -1.9685 -1.4024 -0.3007
  577MOL0     H77886   5.933   9.307   9.746  0.5378  0.3666 -1.0563
  577MOL0     H77887   5.844   9.435   9.890 -0.1051 -1.2583  1.6205
  577MOL0     H77888   5.736   9.304   9.919  2.8962  2.4754  1.5814
  577MOL0     H77889   5.564   9.393   9.749 -0.5733 -1.8350  1.3650
  577MOL0     H77890   5.572   9.470   9.906 -2.1681 -1.9618 -0.1542
  577MOL0     H77891   5.689   9.794   9.674 -1.6077  1.7883  3.0331
  577MOL0     H77892   6.012   9.009   9.718 -1.5324 -0.4327 -0.0311
  577MOL0     H77893   6.291   8.851   9.650 -0.2039  0.3283 -0.9404
  577MOL0     H77894   6.145   8.865   9.753 -0.6986 -0.1825 -1.4200
  577MOL0     H77895   6.172   8.718   9.656 -0.2952 -1.1336  1.4396
  578MOL0     O77896   4.868   7.686   6.837 -0.1100  0.2350 -0.2957
  578MOL0     C77897   4.773   7.656   6.766  0.1876  0.1423  0.1003
  578MOL0     O77898   4.785   7.638   6.634 -0.0517  0.3953 -0.0678
  578MOL0     C77899   4.884   7.705   6.556  0.6208  0.8825 -0.4269
  578MOL0     C77900   4.907   7.839   6.578 -0.0546  0.0577  0.7664
  578MOL0     C77901   5.002   7.906   6.491 -0.1321  0.4485  0.7766
  578MOL0     C77902   5.075   7.842   6.382 -0.2237  0.1431  0.0484
  578MOL0     O77903   5.155   7.919   6.296  0.3156  0.4797 -0.5810
  578MOL0     C77904   5.231   7.845   6.197  0.9863 -0.6975  1.0982
  578MOL0     C77905   5.252   7.937   6.083  0.3225  0.2837 -0.1937
  578MOL0     C77906   5.340   7.890   5.962  0.6061 -0.4322  0.6007
  578MOL0     C77907   5.476   7.865   6.013 -0.8493  0.2007 -0.3412
  578MOL0     C77908   5.598   7.898   5.921  0.1025 -0.4454 -0.8755
  578MOL0     C77909   5.727   7.827   5.964  1.1409  0.1422  0.0956
  578MOL0     C77910   5.844   7.900   5.893  0.4224  0.2695  0.6375
  578MOL0     C77911   5.967   7.831   5.946 -0.2210 -0.7416  0.3974
  578MOL0     N77912   6.077   7.896   5.881 -0.6370 -0.8357  0.0096
  578MOL0     C77913   6.123   8.020   5.910 -0.5980 -0.8654 -0.7386
  578MOL0     C77914   6.240   8.020   5.840 -0.5844  0.6115 -0.2736
  578MOL0     C77915   6.340   8.128   5.852  0.1977  0.4026  0.7616
  578MOL0     C77916   6.267   8.258   5.836 -0.3970 -0.4241 -0.3919
  578MOL0     C77917   6.358   8.371   5.799  1.3285  1.1854  0.1104
  578MOL0     C77918   6.453   8.404   5.919  0.8214 -0.8935  0.2389
  578MOL0     O77919   6.547   8.297   5.946 -0.7379  0.8002 -0.6179
  578MOL0     C77920   6.660   8.272   5.876 -0.1908 -1.2216  0.3524
  578MOL0     C77921   6.702   8.365   5.767  0.3540  0.3894 -0.4726
  578MOL0     C77922   6.817   8.335   5.693 -0.0059  0.5342 -0.0353
  578MOL0     C77923   6.897   8.224   5.729  0.9786 -0.1548 -0.2918
  578MOL0     C77924   7.000   8.192   5.636  0.0323 -0.0609  0.6739
  578MOL0     O77925   6.997   8.241   5.504  0.1123 -0.2696 -0.0561
  578MOL0     C77926   7.111   8.261   5.454 -0.0449 -0.0962  0.3077
  578MOL0     C77927   7.166   8.167   5.364  0.8126 -0.5219  0.5748
  578MOL0     C77928   7.286   8.186   5.295 -1.0948 -0.0308 -0.1744
  578MOL0     C77929   7.359   8.311   5.319 -0.8690  1.2980  0.4619
  578MOL0     O77930   7.483   8.321   5.255  0.1225  0.3681 -0.0870
  578MOL0     C77931   7.569   8.429   5.292  0.5253 -0.4585  0.2730
  578MOL0     C77932   7.699   8.441   5.204  0.3865 -0.1852 -0.2222
  578MOL0     C77933   7.798   8.331   5.222  0.2580 -0.5531 -0.1915
  578MOL0     C77934   7.907   8.337   5.109 -0.3968 -0.9608  0.0600
  578MOL0     C77935   8.043   8.289   5.176  0.0916 -0.3167  0.4651
  578MOL0     C77936   8.061   8.145   5.216  0.0064  1.2475  0.9582
  578MOL0     C77937   8.032   8.100   5.364 -0.0158  0.1341 -0.4393
  578MOL0     C77938   8.080   7.958   5.389 -0.3112 -0.2733  0.1821
  578MOL0    Cl77939   8.061   7.915   5.559  0.5058 -0.0061 -0.3419
  578MOL0     C77940   7.299   8.405   5.399  1.3820  0.6345  0.1534
  578MOL0     C77941   7.175   8.384   5.464 -0.2483  0.2570 -1.1012
  578MOL0     O77942   7.103   8.151   5.691 -0.0092  0.1858  0.5747
  578MOL0     C77943   6.859   8.148   5.844  0.0086 -0.2422  0.2250
  578MOL0     C77944   6.738   8.163   5.908 -0.1540  1.0333  0.7140
  578MOL0     N77945   6.260   7.901   5.776  1.0695 -0.2452  0.0172
  578MOL0     N77946   6.156   7.824   5.792  0.2184  0.2829 -0.0818
  578MOL0     C77947   5.055   7.699   6.379 -0.2137 -0.1496  1.1027
  578MOL0     C77948   4.946   7.637   6.451 -0.9059 -0.6241  0.2056
  578MOL0     C77949   4.640   7.627   6.829  0.2008 -0.1837 -0.9550
  578MOL0     C77950   4.646   7.621   6.975  0.0535 -0.8516 -0.1089
  578MOL0     C77951   4.532   7.587   7.046 -0.8059  0.1748  0.0146
  578MOL0     C77952   4.415   7.549   6.974  0.8510  0.4861  0.8190
  578MOL0     O77953   4.283   7.509   7.021 -0.4300 -0.2214 -0.9494
  578MOL0     C77954   4.299   7.423   7.140  0.4843 -0.1115  0.9435
  578MOL0     C77955   4.309   7.282   7.084 -0.5029 -0.0908  1.0888
  578MOL0     C77956   4.249   7.187   7.180 -0.6894  0.6801  0.1192
  578MOL0     C77957   4.321   7.173   7.319 -0.0173 -0.0307  0.1486
  578MOL0     C77958   4.452   7.111   7.302 -0.2222  0.8141  0.0821
  578MOL0     C77959   4.552   7.057   7.276  0.0506  0.7788  0.0139
  578MOL0     C77960   4.410   7.550   6.835  0.4167 -0.0362  0.7878
  578MOL0     C77961   4.523   7.585   6.761  0.1933 -0.3223 -0.6755
  578MOL0     C77962   4.517   7.580   6.608  0.0726  0.6111  0.2015
  578MOL0     H77963   4.854   7.905   6.646 -1.7728  0.1465 -0.6181
  578MOL0     H77964   5.017   8.014   6.491  0.1020  0.4421 -1.2178
  578MOL0     H77965   5.323   7.801   6.237  0.4689 -2.5517  0.3861
  578MOL0     H77966   5.177   7.755   6.163 -0.4310  0.0896  1.2152
  578MOL0     H77967   5.289   8.035   6.113 -0.3497  1.5322 -3.0931
  578MOL0     H77968   5.156   7.967   6.041  1.2787  1.8890 -1.3541
  578MOL0     H77969   5.325   7.956   5.876 -3.8738 -2.3144 -0.3853
  578MOL0     H77970   5.298   7.801   5.914 -1.6725  0.9039 -0.0488
  578MOL0     H77971   5.502   7.910   6.109 -0.9049 -0.8924  0.2056
  578MOL0     H77972   5.462   7.757   6.021 -0.3560 -0.0835 -2.5395
  578MOL0     H77973   5.571   7.887   5.816  0.5380  0.8763 -1.1502
  578MOL0     H77974   5.618   8.006   5.927  1.0154 -0.6945  1.2953
  578MOL0     H77975   5.746   7.836   6.071 -0.5772 -1.2007  0.5663
  578MOL0     H77976   5.713   7.724   5.928 -2.3303  0.7755 -0.7189
  578MOL0     H77977   5.844   8.006   5.921 -0.2863  0.0798  1.4169
  578MOL0     H77978   5.844   7.897   5.784 -0.2630 -1.4091  0.6444
  578MOL0     H77979   5.978   7.846   6.054  1.8279  1.0005  0.0111
  578MOL0     H77980   5.975   7.723   5.931 -1.7720 -1.2007  2.3779
  578MOL0     H77981   6.092   8.105   5.971 -0.3719 -1.6831  0.5439
  578MOL0     H77982   6.384   8.127   5.953  2.7949  1.9633 -0.2604
  578MOL0     H77983   6.401   8.111   5.763 -2.9561  0.5396 -1.6060
  578MOL0     H77984   6.191   8.257   5.757 -0.2784  1.0090 -0.5354
  578MOL0     H77985   6.219   8.284   5.931  2.1599 -0.5724  1.0434
  578MOL0     H77986   6.292   8.453   5.769 -2.8281 -1.6628  0.4605
  578MOL0     H77987   6.405   8.328   5.710  1.1364 -0.7447  0.8803
  578MOL0     H77988   6.396   8.439   6.006 -1.1781 -0.7371 -1.0567
  578MOL0     H77989   6.508   8.496   5.900  0.0304  0.3065  3.2758
  578MOL0     H77990   6.652   8.460   5.750  1.7451  1.3303  0.3946
  578MOL0     H77991   6.853   8.406   5.619 -0.0140 -0.0102 -0.5614
  578MOL0     H77992   7.105   8.080   5.343 -2.3616  1.7586 -0.4076
  578MOL0     H77993   7.325   8.114   5.224 -1.7800  0.7050 -1.3430
  578MOL0     H77994   7.524   8.528   5.283 -0.7423 -1.1425 -1.2637
  578MOL0     H77995   7.601   8.411   5.396  1.2464  0.5403  0.2325
  578MOL0     H77996   7.669   8.442   5.099  1.6078  2.4347 -0.6264
  578MOL0     H77997   7.740   8.536   5.240 -2.1771 -0.3239  3.6551
  578MOL0     H77998   7.848   8.337   5.319 -0.7147 -2.4884  0.4912
  578MOL0     H77999   7.750   8.232   5.213  2.0829 -1.3650 -1.6402
  578MOL0     H78000   7.919   8.442   5.080  1.2258 -1.1042  0.1242
  578MOL0     H78001   7.874   8.274   5.026 -1.7196  0.2479 -0.3770
  578MOL0     H78002   8.074   8.348   5.263 -0.3453 -1.2990  1.3087
  578MOL0     H78003   8.111   8.302   5.091 -0.2118 -1.1575  0.0855
  578MOL0     H78004   7.998   8.084   5.151  1.1903  0.0106  0.9288
  578MOL0     H78005   8.164   8.115   5.193  0.2818  2.3841  0.6634
  578MOL0     H78006   7.924   8.096   5.379 -0.1185  1.0044 -0.9185
  578MOL0     H78007   8.080   8.161   5.441  1.1295  1.3979 -2.0916
  578MOL0     H78008   8.005   7.893   5.342 -0.3278 -1.0812  1.2733
  578MOL0     H78009   8.179   7.937   5.348 -0.0608 -0.0918  0.6934
  578MOL0     H78010   7.351   8.492   5.435  0.0332  1.1867  0.8336
  578MOL0     H78011   7.130   8.462   5.525  2.0321  0.8939 -0.1291
  578MOL0     H78012   6.924   8.070   5.884  1.2656  0.3700 -0.5759
  578MOL0     H78013   6.717   8.091   5.987  0.0523  2.5096  2.1620
  578MOL0     H78014   5.104   7.637   6.305  0.7150  0.8289  0.8647
  578MOL0     H78015   4.934   7.529   6.440  2.1277 -1.1040  0.5931
  578MOL0     H78016   4.735   7.653   7.029  0.3870  0.5597 -1.4102
  578MOL0     H78017   4.526   7.582   7.154  4.5842 -1.9364  0.5510
  578MOL0     H78018   4.206   7.430   7.197 -0.7329  0.1654 -0.9842
  578MOL0     H78019   4.375   7.452   7.213 -1.1263  1.3230  2.1394
  578MOL0     H78020   4.411   7.252   7.062 -0.4647  0.7510  0.0415
  578MOL0     H78021   4.259   7.279   6.987  1.6613  1.6620 -0.1848
  578MOL0     H78022   4.244   7.090   7.130  0.6072 -1.1198  3.1865
  578MOL0     H78023   4.143   7.210   7.193 -1.1092 -0.2723 -1.4330
  578MOL0     H78024   4.324   7.270   7.368  1.2729  0.2044 -0.3617
  578MOL0     H78025   4.251   7.121   7.385  0.2738  1.6157  1.8258
  578MOL0     H78026   4.640   6.999   7.261 -0.8109 -1.2544  2.1784
  578MOL0     H78027   4.326   7.505   6.784  0.3286 -1.2988  1.9858
  578MOL0     H78028   4.573   7.495   6.568 -2.1270 -0.8428  0.0630
  578MOL0     H78029   4.417   7.563   6.568  0.2188  0.4531 -0.1052
  578MOL0     H78030   4.553   7.672   6.559  0.5848  1.6282  2.3613
  579MOL0     O78031   0.489   5.979   6.717  0.0740  0.5139  0.2285
  579MOL0     C78032   0.525   6.046   6.619  0.1268  0.3121  0.8457
  579MOL0     O78033   0.439   6.081   6.513 -0.0762  0.0038 -0.1242
  579MOL0     C78034   0.318   6.011   6.493 -0.0052 -0.5338  1.1733
  579MOL0     C78035   0.217   5.998   6.584 -0.4018 -0.4034 -0.1712
  579MOL0     C78036   0.097   5.962   6.532 -0.8924 -0.3994  0.1036
  579MOL0     C78037   0.081   5.933   6.397 -0.2364  0.2152 -0.0628
  579MOL0     O78038  -0.039   5.897   6.350 -0.4234  0.4838 -1.1506
  579MOL0     C78039  -0.106   5.784   6.409 -0.6462 -0.9333 -0.2563
  579MOL0     C78040  -0.218   5.817   6.521 -0.5423  0.7054  0.3944
  579MOL0     C78041  -0.277   5.688   6.559 -0.4441 -0.2281 -0.0611
  579MOL0     C78042  -0.186   5.605   6.643  0.2782 -0.4705 -0.5188
  579MOL0     C78043  -0.273   5.480   6.691  0.3901 -0.0057 -0.6562
  579MOL0     C78044  -0.192   5.363   6.729  0.1325  0.2390 -0.0475
  579MOL0     C78045  -0.093   5.373   6.851  0.9707 -0.0697  0.6848
  579MOL0     C78046  -0.022   5.246   6.893  0.5018  0.2866 -0.5747
  579MOL0     N78047   0.109   5.270   6.957 -0.0694  0.5146 -0.7010
  579MOL0     C78048   0.228   5.214   6.929  0.3485  0.9873  1.0606
  579MOL0     C78049   0.319   5.263   7.012  0.2914  0.0768  0.7703
  579MOL0     C78050   0.463   5.246   7.003 -0.4499  0.0897  0.7474
  579MOL0     C78051   0.505   5.105   6.957  1.2626 -0.3458 -0.7444
  579MOL0     C78052   0.656   5.078   6.973 -0.2964  0.3530  0.2304
  579MOL0     C78053   0.749   5.163   6.882 -0.0202  0.4422 -0.2198
  579MOL0     O78054   0.885   5.178   6.944 -0.5653  0.0065  0.5166
  579MOL0     C78055   0.985   5.247   6.899  0.6096 -0.0147  1.5905
  579MOL0     C78056   0.986   5.320   6.777 -0.1294 -0.1929 -0.3646
  579MOL0     C78057   1.106   5.393   6.731  0.5251 -0.9464 -1.1023
  579MOL0     C78058   1.222   5.382   6.811  0.3970 -0.0807 -0.1107
  579MOL0     C78059   1.345   5.440   6.760 -0.6850  0.5340  1.1873
  579MOL0     O78060   1.460   5.399   6.823  0.7871 -0.2842  0.4184
  579MOL0     C78061   1.576   5.473   6.796  1.5435  1.4325  0.0906
  579MOL0     C78062   1.628   5.501   6.666 -0.1123 -0.5376  0.4279
  579MOL0     C78063   1.749   5.569   6.652  0.1239  0.0971  0.1070
  579MOL0     C78064   1.825   5.612   6.762  0.0716  0.1498  0.4351
  579MOL0     O78065   1.943   5.677   6.736 -0.0166 -0.7720  0.2935
  579MOL0     C78066   2.068   5.631   6.808 -0.6455  0.3251  0.0260
  579MOL0     C78067   2.188   5.699   6.749 -0.4100 -0.2683  0.0598
  579MOL0     C78068   2.321   5.669   6.824  0.4098  0.4793 -0.0292
  579MOL0     C78069   2.429   5.726   6.740  0.1147 -0.7581  0.3336
  579MOL0     C78070   2.550   5.748   6.830 -0.0892  0.1873  0.9868
  579MOL0     C78071   2.667   5.806   6.753 -0.1873  0.1305  0.4657
  579MOL0     C78072   2.794   5.816   6.831 -0.2739 -0.4414 -0.1528
  579MOL0     C78073   2.903   5.838   6.731 -0.6777 -0.0354  0.5231
  579MOL0    Cl78074   2.860   5.948   6.584  0.1904  0.0298 -0.2893
  579MOL0     C78075   1.789   5.567   6.895  0.0042 -0.4279  0.3978
  579MOL0     C78076   1.662   5.505   6.903  0.3276  0.1353  0.3802
  579MOL0     O78077   1.333   5.523   6.674  0.6856 -0.8963 -0.1590
  579MOL0     C78078   1.223   5.296   6.922  0.0585 -0.6520  0.1204
  579MOL0     C78079   1.104   5.228   6.956 -0.0597 -0.1827  0.0528
  579MOL0     N78080   0.252   5.342   7.099 -1.0093  0.5688 -0.1729
  579MOL0     N78081   0.127   5.350   7.073  0.7432 -0.8035  0.3187
  579MOL0     C78082   0.181   5.941   6.307  0.0899 -0.4243  0.1897
  579MOL0     C78083   0.302   5.981   6.354 -0.4078 -1.1084 -0.3622
  579MOL0     C78084   0.667   6.089   6.595 -0.4757  0.5416 -0.1319
  579MOL0     C78085   0.697   6.157   6.475  0.7996 -0.1943 -0.5102
  579MOL0     C78086   0.820   6.196   6.442 -0.5576  0.2685 -0.1393
  579MOL0     C78087   0.909   6.212   6.549  0.2917  0.4997  0.6424
  579MOL0     O78088   1.031   6.272   6.532  0.0085  0.3368 -0.3032
  579MOL0     C78089   1.086   6.308   6.405  0.4266 -0.2445 -0.5086
  579MOL0     C78090   1.228   6.341   6.410 -0.4442 -0.5520  0.3038
  579MOL0     C78091   1.306   6.208   6.417 -0.8371  0.4435  0.6880
  579MOL0     C78092   1.444   6.218   6.362 -0.9310 -0.1192 -0.4436
  579MOL0     C78093   1.541   6.319   6.404 -0.0093 -0.2397  0.2952
  579MOL0     C78094   1.605   6.411   6.449  0.3768  0.0023 -0.2344
  579MOL0     C78095   0.891   6.139   6.667 -0.4420 -0.6733 -0.2818
  579MOL0     C78096   0.768   6.077   6.693  0.0482  0.2082 -0.4697
  579MOL0     C78097   0.745   6.002   6.827 -0.5982 -0.8220  0.5457
  579MOL0     H78098   0.241   6.020   6.687  3.3951 -0.5338 -0.9078
  579MOL0     H78099   0.017   5.960   6.605  0.9923 -3.8201  2.3288
  579MOL0     H78100  -0.174   5.751   6.331 -1.8155  2.1816 -0.7018
  579MOL0     H78101  -0.029   5.714   6.444 -1.3129 -0.8666  1.4805
  579MOL0     H78102  -0.298   5.879   6.478 -2.6992 -2.5795 -0.7183
  579MOL0     H78103  -0.164   5.867   6.602  1.3267 -3.1361  1.7619
  579MOL0     H78104  -0.318   5.634   6.473 -3.6430  0.4967  0.8815
  579MOL0     H78105  -0.365   5.707   6.621  0.0414 -1.4830  1.0615
  579MOL0     H78106  -0.102   5.565   6.585  2.2370  1.1718  1.0568
  579MOL0     H78107  -0.156   5.664   6.730 -3.3644  0.9025  0.0132
  579MOL0     H78108  -0.340   5.512   6.772  0.0295 -2.1694 -0.0430
  579MOL0     H78109  -0.345   5.447   6.615 -2.7603  2.5105  1.0090
  579MOL0     H78110  -0.261   5.279   6.741  0.9438 -0.3677  0.4101
  579MOL0     H78111  -0.122   5.343   6.648  2.1122  3.9470  0.5275
  579MOL0     H78112  -0.153   5.402   6.938 -4.0685  0.3675 -2.5393
  579MOL0     H78113  -0.012   5.446   6.839 -0.0213  0.9271 -0.1926
  579MOL0     H78114  -0.075   5.186   6.967  1.1506 -1.2702 -1.3154
  579MOL0     H78115  -0.007   5.189   6.800  1.0310  1.5406 -1.2890
  579MOL0     H78116   0.241   5.152   6.841  0.8179  0.1368  1.7115
  579MOL0     H78117   0.491   5.320   6.927  0.3637  0.5255  1.4433
  579MOL0     H78118   0.513   5.286   7.092 -0.5084  0.9719  0.3951
  579MOL0     H78119   0.454   5.031   7.020 -2.6977  0.0349 -3.1395
  579MOL0     H78120   0.461   5.090   6.858 -0.9489  0.3081  0.0924
  579MOL0     H78121   0.686   4.977   6.944 -0.2487  0.8875 -1.6778
  579MOL0     H78122   0.684   5.104   7.076  0.5402 -0.5414  0.2445
  579MOL0     H78123   0.716   5.267   6.876 -0.2161  0.4630  0.9577
  579MOL0     H78124   0.764   5.116   6.784  2.1598  1.2510 -0.3343
  579MOL0     H78125   0.889   5.317   6.728 -0.6122 -1.4615  0.6245
  579MOL0     H78126   1.104   5.457   6.644 -0.8399 -0.5304 -0.7852
  579MOL0     H78127   1.574   5.468   6.578  1.5724  1.0098 -1.2597
  579MOL0     H78128   1.783   5.593   6.552  0.1881  1.4816  0.4411
  579MOL0     H78129   2.071   5.644   6.917 -0.8048  0.0859  0.0599
  579MOL0     H78130   2.079   5.523   6.794  2.4834  0.7848 -1.8145
  579MOL0     H78131   2.182   5.670   6.643 -3.7145  1.5816 -0.4055
  579MOL0     H78132   2.164   5.805   6.766 -2.3371 -0.6265 -0.1345
  579MOL0     H78133   2.318   5.699   6.929 -0.7912 -2.7178  0.9433
  579MOL0     H78134   2.335   5.561   6.814 -2.1620  0.0862  0.0964
  579MOL0     H78135   2.403   5.827   6.707  1.7306 -0.7566 -1.0606
  579MOL0     H78136   2.453   5.673   6.648  2.5049  2.4360 -1.0778
  579MOL0     H78137   2.562   5.644   6.864 -1.9990 -0.7384 -0.9492
  579MOL0     H78138   2.526   5.812   6.915 -2.2801  0.6243  0.0983
  579MOL0     H78139   2.681   5.731   6.675  0.7462 -0.2168  0.9543
  579MOL0     H78140   2.634   5.902   6.711  0.0030 -0.7241 -1.7563
  579MOL0     H78141   2.827   5.736   6.899  0.1335  0.4883  0.7806
  579MOL0     H78142   2.777   5.902   6.897  0.6251 -0.6756  0.4090
  579MOL0     H78143   2.996   5.884   6.766  0.3149  0.2031 -2.1323
  579MOL0     H78144   2.938   5.741   6.692  1.1100  0.1693  1.5075
  579MOL0     H78145   1.842   5.581   6.988 -1.7539 -0.8742  1.5151
  579MOL0     H78146   1.622   5.461   6.993 -1.8930 -0.8034 -0.9842
  579MOL0     H78147   1.313   5.287   6.983  0.4181  5.4818  1.1019
  579MOL0     H78148   1.112   5.159   7.039 -0.8166 -0.8447 -0.4104
  579MOL0     H78149   0.176   5.910   6.203 -3.1069 -0.7643  0.3342
  579MOL0     H78150   0.392   5.993   6.294 -1.7655 -1.0589 -2.5040
  579MOL0     H78151   0.620   6.157   6.399 -0.8922 -1.5364  1.0951
  579MOL0     H78152   0.829   6.258   6.354  0.6902  1.8513  1.0358
  579MOL0     H78153   1.034   6.391   6.356 -0.1044 -1.4861 -2.1422
  579MOL0     H78154   1.072   6.235   6.325 -1.9021  0.0230 -0.4198
  579MOL0     H78155   1.260   6.403   6.494 -1.1181  0.8275 -0.4091
  579MOL0     H78156   1.249   6.398   6.319 -0.1042 -0.2868  0.5448
  579MOL0     H78157   1.249   6.140   6.354  0.5439 -1.5016  1.4296
  579MOL0     H78158   1.299   6.176   6.522  0.8489 -1.6544  0.2374
  579MOL0     H78159   1.492   6.120   6.375  0.5452  0.6354 -0.0047
  579MOL0     H78160   1.441   6.240   6.255 -0.2804  1.6492 -0.1333
  579MOL0     H78161   1.668   6.490   6.486 -0.4248  1.2269 -1.3939
  579MOL0     H78162   0.969   6.148   6.743 -0.1887  0.4825 -0.6500
  579MOL0     H78163   0.721   5.898   6.804  0.1966 -0.3249 -3.0211
  579MOL0     H78164   0.834   5.992   6.890  0.6804  0.4577 -0.9763
  579MOL0     H78165   0.672   6.058   6.886 -0.2080  0.1752  0.1047
  580MOL0     O78166   4.981   4.901   1.906 -0.3148 -0.5179  0.2306
  580MOL0     C78167   4.894   4.824   1.882  0.4166  0.0033 -0.4128
  580MOL0     O78168   4.842   4.741   1.974  0.0264 -0.5648  0.5258
  580MOL0     C78169   4.922   4.724   2.084  0.6994  0.1421 -0.3461
  580MOL0     C78170   4.959   4.601   2.122 -0.0008 -0.1105  0.0414
  580MOL0     C78171   5.020   4.574   2.246  0.1436 -0.2413 -0.0040
  580MOL0     C78172   5.029   4.671   2.338  0.6476  0.5024  0.0485
  580MOL0     O78173   5.104   4.639   2.449  0.3968 -0.0033  0.0326
  580MOL0     C78174   5.119   4.739   2.545  0.2905  0.5629  0.6838
  580MOL0     C78175   5.160   4.686   2.684  0.2405  0.3293  0.4466
  580MOL0     C78176   5.311   4.643   2.694  0.3889  0.1469  0.0453
  580MOL0     C78177   5.338   4.495   2.678 -0.0629 -0.1525  0.3499
  580MOL0     C78178   5.488   4.465   2.684 -0.2784 -1.6572  0.5184
  580MOL0     C78179   5.556   4.461   2.817 -0.5090 -0.5582 -0.2186
  580MOL0     C78180   5.708   4.410   2.799  0.2388 -0.1907 -0.4596
  580MOL0     C78181   5.787   4.452   2.919  0.4896 -0.2223  1.0625
  580MOL0     N78182   5.934   4.426   2.904 -0.3468  0.2387 -0.0168
  580MOL0     C78183   6.012   4.443   2.798 -0.4105  1.0481  0.2269
  580MOL0     C78184   6.130   4.361   2.819  0.6176  0.2004 -0.6246
  580MOL0     C78185   6.239   4.330   2.719 -0.3401  0.5779  0.2310
  580MOL0     C78186   6.333   4.446   2.718  0.7537 -0.1557  0.6543
  580MOL0     C78187   6.427   4.422   2.597  0.6693  0.1687 -0.5987
  580MOL0     C78188   6.549   4.355   2.646  0.0186  0.1620  1.1431
  580MOL0     O78189   6.651   4.344   2.548  0.2151  0.1387  0.0011
  580MOL0     C78190   6.779   4.341   2.595  0.2230 -0.6921 -0.2707
  580MOL0     C78191   6.837   4.222   2.641  0.3201 -0.2650  0.2305
  580MOL0     C78192   6.967   4.236   2.699 -0.6599 -0.1854 -0.3291
  580MOL0     C78193   7.029   4.363   2.721 -0.1082  0.0912  0.4727
  580MOL0     C78194   7.152   4.374   2.790  0.3936 -0.4424 -0.7024
  580MOL0     O78195   7.201   4.500   2.784  0.2924 -0.6382 -1.0558
  580MOL0     C78196   7.322   4.525   2.846  0.1940 -0.3042 -0.8634
  580MOL0     C78197   7.421   4.441   2.894 -0.7227 -0.4898 -0.3121
  580MOL0     C78198   7.542   4.493   2.953 -0.4920 -0.2380  1.0969
  580MOL0     C78199   7.569   4.633   2.956  0.3002  0.5755 -0.7218
  580MOL0     O78200   7.691   4.680   3.008  0.5012 -0.0833  0.1532
  580MOL0     C78201   7.732   4.811   2.963 -0.0352 -0.4618  0.4733
  580MOL0     C78202   7.868   4.843   3.025 -0.3452 -0.6177  0.8808
  580MOL0     C78203   7.869   4.879   3.169  0.2373  0.0495  0.0175
  580MOL0     C78204   8.000   4.945   3.217 -0.3961 -0.2141  0.2559
  580MOL0     C78205   8.008   5.088   3.165 -0.1591 -0.4185 -0.2793
  580MOL0     C78206   8.053   5.195   3.259  0.3430 -0.5889  0.8292
  580MOL0     C78207   8.065   5.334   3.190  0.6291  0.7991 -0.5186
  580MOL0     C78208   8.106   5.441   3.294 -0.1425  1.2682 -1.0708
  580MOL0    Cl78209   8.283   5.453   3.316  0.1308 -0.0639 -0.2504
  580MOL0     C78210   7.461   4.718   2.907 -0.2128  0.2735  0.3842
  580MOL0     C78211   7.339   4.661   2.870  0.3154 -0.3260 -0.3399
  580MOL0     O78212   7.185   4.292   2.870  0.0385 -0.3578 -0.2450
  580MOL0     C78213   6.974   4.473   2.660 -0.0291 -0.3339  0.5197
  580MOL0     C78214   6.845   4.465   2.603 -1.0267 -0.2666 -0.0241
  580MOL0     N78215   6.119   4.303   2.945 -0.0171  0.1188  0.0748
  580MOL0     N78216   6.004   4.334   2.982  0.3947  0.3013 -0.5698
  580MOL0     C78217   4.984   4.804   2.304 -0.6451 -0.5847  0.3965
  580MOL0     C78218   4.928   4.828   2.174  0.1502 -0.2994 -0.0756
  580MOL0     C78219   4.830   4.830   1.746 -0.3533  0.2678 -0.1647
  580MOL0     C78220   4.745   4.726   1.702 -0.0300 -0.1715  0.2005
  580MOL0     C78221   4.692   4.712   1.575  0.7383  0.2185  1.0109
  580MOL0     C78222   4.722   4.809   1.477  0.6823  0.3217 -0.5747
  580MOL0     O78223   4.670   4.807   1.354  0.0112  0.2068  0.1644
  580MOL0     C78224   4.578   4.911   1.321 -0.0797  0.5344 -0.2208
  580MOL0     C78225   4.545   4.916   1.165 -1.4799  0.9167 -0.4711
  580MOL0     C78226   4.471   4.792   1.122  0.2838 -0.0921 -0.9452
  580MOL0     C78227   4.414   4.812   0.977 -0.8297  0.1558 -0.0543
  580MOL0     C78228   4.429   4.683   0.906  0.4788 -0.4197 -0.0070
  580MOL0     C78229   4.446   4.583   0.841  0.2601  0.2255  0.5932
  580MOL0     C78230   4.817   4.907   1.516 -0.2335 -0.0500  0.1307
  580MOL0     C78231   4.877   4.915   1.646  1.0840 -0.1644  0.2702
  580MOL0     C78232   4.979   5.022   1.658  0.2594  0.2113  0.0270
  580MOL0     H78233   4.944   4.530   2.041  2.1282  1.6856 -2.0841
  580MOL0     H78234   5.059   4.473   2.257  1.0589  0.0899 -0.1667
  580MOL0     H78235   5.200   4.810   2.522  0.3543  0.4664  0.6112
  580MOL0     H78236   5.022   4.790   2.546 -1.3040 -1.7380 -4.7205
  580MOL0     H78237   5.102   4.598   2.712  0.7158  0.1240  0.7842
  580MOL0     H78238   5.131   4.765   2.754  0.9077  4.3096 -3.3253
  580MOL0     H78239   5.350   4.681   2.789  2.3297 -0.0453 -0.6321
  580MOL0     H78240   5.366   4.689   2.611 -2.5025 -0.7905 -2.5833
  580MOL0     H78241   5.284   4.433   2.750  0.3657 -0.3526  0.5065
  580MOL0     H78242   5.297   4.465   2.582 -0.4046 -2.1876  1.0672
  580MOL0     H78243   5.498   4.367   2.638 -3.5060 -0.7877 -2.4255
  580MOL0     H78244   5.545   4.539   2.626 -2.3985  0.7958  1.3393
  580MOL0     H78245   5.561   4.562   2.858  3.1042 -0.5516 -0.3597
  580MOL0     H78246   5.498   4.398   2.885  2.2218 -3.2220 -0.1558
  580MOL0     H78247   5.747   4.458   2.709 -0.2810  1.8733  0.3413
  580MOL0     H78248   5.712   4.301   2.800 -3.1633 -0.4915 -2.5510
  580MOL0     H78249   5.780   4.560   2.938  1.4495  0.0766 -0.1138
  580MOL0     H78250   5.755   4.393   3.005  3.1331 -0.6674  1.8395
  580MOL0     H78251   5.981   4.497   2.709  3.3812  1.0460 -1.2816
  580MOL0     H78252   6.297   4.238   2.735 -1.8474 -1.1645 -3.1814
  580MOL0     H78253   6.192   4.305   2.623 -0.2610  2.3167 -0.3001
  580MOL0     H78254   6.275   4.534   2.689  1.4131 -0.8065 -3.0419
  580MOL0     H78255   6.377   4.453   2.818  0.7912 -1.2246  0.7225
  580MOL0     H78256   6.448   4.517   2.547  1.1120  1.1958  1.4113
  580MOL0     H78257   6.379   4.362   2.520 -1.2868  1.4596 -0.4485
  580MOL0     H78258   6.516   4.253   2.669 -0.1925 -0.2116 -0.6886
  580MOL0     H78259   6.590   4.400   2.737  1.6229 -1.0862  1.0773
  580MOL0     H78260   6.787   4.126   2.647  2.7683 -1.8041 -1.9096
  580MOL0     H78261   7.011   4.148   2.745 -2.6074 -1.0379 -0.0122
  580MOL0     H78262   7.418   4.333   2.904 -1.5125 -0.4039  0.5200
  580MOL0     H78263   7.622   4.420   2.953 -0.1320 -0.0229 -2.1404
  580MOL0     H78264   7.745   4.809   2.854  2.8590  0.5324  0.6966
  580MOL0     H78265   7.664   4.889   2.998 -0.2378 -0.0848 -0.6929
  580MOL0     H78266   7.940   4.768   2.991 -0.3753  0.5472 -1.9822
  580MOL0     H78267   7.893   4.935   2.973  0.2847 -1.1229  0.2813
  580MOL0     H78268   7.780   4.937   3.194  0.0700  0.1767 -0.8186
  580MOL0     H78269   7.861   4.784   3.222  2.8081 -0.0920  0.3107
  580MOL0     H78270   8.076   4.876   3.180 -1.8524 -0.9647 -1.4810
  580MOL0     H78271   8.006   4.935   3.326  4.1491  0.9960  0.3142
  580MOL0     H78272   7.920   5.118   3.108 -1.6390  1.7210  2.8413
  580MOL0     H78273   8.094   5.086   3.096  0.6861  0.3263  0.7061
  580MOL0     H78274   7.962   5.188   3.319  0.0842 -4.8737  0.2957
  580MOL0     H78275   8.144   5.183   3.318  3.4209  2.4534 -2.7906
  580MOL0     H78276   7.967   5.357   3.147  0.5138  1.2725 -0.0234
  580MOL0     H78277   8.125   5.324   3.099 -2.3038  0.8356 -2.6289
  580MOL0     H78278   8.079   5.542   3.261  0.7540  2.2494  1.0546
  580MOL0     H78279   8.067   5.413   3.392  2.0906 -0.0146 -0.4872
  580MOL0     H78280   7.477   4.825   2.899  2.3224 -0.0311  0.6193
  580MOL0     H78281   7.258   4.730   2.852 -0.3855 -0.4676  1.8849
  580MOL0     H78282   7.009   4.573   2.641  0.2936 -0.4299  0.5952
  580MOL0     H78283   6.800   4.563   2.589 -3.3684 -1.1964  0.4774
  580MOL0     H78284   5.005   4.894   2.362  0.2340 -0.3202 -0.3048
  580MOL0     H78285   4.895   4.927   2.143 -3.5699 -1.3527  0.0021
  580MOL0     H78286   4.718   4.654   1.779 -1.1542  0.0785  0.0620
  580MOL0     H78287   4.618   4.635   1.556  1.5080 -0.7517  1.8432
  580MOL0     H78288   4.626   5.009   1.330 -1.2175  1.4530 -2.9447
  580MOL0     H78289   4.484   4.906   1.377 -0.0922 -1.9609 -0.3563
  580MOL0     H78290   4.646   4.918   1.122 -0.6774  1.6472  1.3235
  580MOL0     H78291   4.483   5.005   1.153 -2.9271 -0.0911 -0.6241
  580MOL0     H78292   4.394   4.779   1.198 -0.0593 -1.9682 -1.5658
  580MOL0     H78293   4.530   4.701   1.137 -4.4536 -3.0737  1.9897
  580MOL0     H78294   4.308   4.838   0.985 -0.2451  2.4838  0.9918
  580MOL0     H78295   4.465   4.889   0.918  4.7870 -3.3564 -0.5174
  580MOL0     H78296   4.440   4.494   0.782 -0.7411  1.5472 -1.4591
  580MOL0     H78297   4.856   4.980   1.446 -0.0048  1.3026  1.6177
  580MOL0     H78298   5.001   5.066   1.560  0.6418  0.4045  0.2011
  580MOL0     H78299   4.958   5.105   1.726  2.0200  2.0835 -1.5605
  580MOL0     H78300   5.072   4.984   1.701 -0.1612  2.6492  3.4971
  581MOL0     O78301   1.792   9.487  11.105 -0.3955  0.1137 -0.0683
  581MOL0     C78302   1.795   9.381  11.042 -0.3845 -0.9048 -0.0777
  581MOL0     O78303   1.730   9.265  11.075 -0.1392 -0.1861  0.5790
  581MOL0     C78304   1.637   9.289  11.169 -0.0590 -0.2336  0.3622
  581MOL0     C78305   1.522   9.362  11.144 -0.0899 -1.5235 -0.2526
  581MOL0     C78306   1.435   9.389  11.247  0.1660  0.5781  1.4865
  581MOL0     C78307   1.455   9.349  11.377 -0.2163 -0.0168 -0.2559
  581MOL0     O78308   1.350   9.367  11.463  0.4896  0.4008 -0.9621
  581MOL0     C78309   1.325   9.252  11.552  0.9489 -0.5589  0.3713
  581MOL0     C78310   1.292   9.124  11.477  0.4646 -0.1885  0.7081
  581MOL0     C78311   1.256   8.996  11.565 -0.6634  0.6530 -0.9243
  581MOL0     C78312   1.192   8.882  11.479 -0.5558  0.0363  0.0935
  581MOL0     C78313   1.148   8.765  11.567 -0.1714 -0.7478  0.3612
  581MOL0     C78314   0.995   8.781  11.589 -0.5893  0.2137  0.4811
  581MOL0     C78315   0.927   8.637  11.638  0.1550 -1.6082 -0.4947
  581MOL0     C78316   0.785   8.648  11.683 -0.1115  0.1133 -0.0014
  581MOL0     N78317   0.690   8.637  11.582  1.5491 -0.4306 -0.3032
  581MOL0     C78318   0.596   8.533  11.575 -0.4399 -0.2482 -0.4855
  581MOL0     C78319   0.528   8.546  11.456 -0.2358  0.3396 -0.3420
  581MOL0     C78320   0.432   8.452  11.401  0.3825  0.2061 -0.0669
  581MOL0     C78321   0.409   8.458  11.246 -0.5080 -0.4470  0.6257
  581MOL0     C78322   0.344   8.324  11.202 -0.2135  0.0429  0.2299
  581MOL0     C78323   0.376   8.310  11.045  0.0618  0.1952 -0.3574
  581MOL0     O78324   0.503   8.256  11.008 -0.5453 -0.6179 -0.4756
  581MOL0     C78325   0.515   8.189  10.885 -0.6890  0.6034 -0.3785
  581MOL0     C78326   0.423   8.204  10.779 -0.6389 -0.3128 -0.1502
  581MOL0     C78327   0.450   8.136  10.659 -0.0585 -0.6664  0.6199
  581MOL0     C78328   0.557   8.050  10.648  0.1188 -0.3308 -0.0736
  581MOL0     C78329   0.576   7.977  10.527  0.4701 -0.1181  0.0833
  581MOL0     O78330   0.457   7.949  10.463 -0.3968  0.1622  0.1171
  581MOL0     C78331   0.435   7.864  10.357  0.2919 -0.2598  0.3100
  581MOL0     C78332   0.304   7.856  10.301  0.3580  0.5138  0.5923
  581MOL0     C78333   0.280   7.768  10.194 -0.2728 -0.5928  0.3424
  581MOL0     C78334   0.375   7.685  10.148 -0.1926 -0.6308  1.7242
  581MOL0     O78335   0.339   7.607  10.045  0.3144  0.2709 -0.2330
  581MOL0     C78336   0.441   7.566   9.952 -0.7424 -0.9587  0.3987
  581MOL0     C78337   0.396   7.606   9.811 -0.3551  0.3272 -1.1144
  581MOL0     C78338   0.393   7.764   9.780 -0.2843  0.3567 -0.5376
  581MOL0     C78339   0.281   7.790   9.668  0.3502 -0.8872  0.2428
  581MOL0     C78340   0.299   7.732   9.529 -0.0837  0.0690  0.2098
  581MOL0     C78341   0.170   7.711   9.455  0.8778 -0.3713  0.5122
  581MOL0     C78342   0.154   7.824   9.356 -1.1008 -0.1915  0.4589
  581MOL0     C78343   0.051   7.800   9.245  0.8008 -0.0032  0.7647
  581MOL0    Cl78344  -0.102   7.745   9.329 -0.2960  0.1566 -0.1044
  581MOL0     C78345   0.500   7.678  10.208  0.7641  0.3622  0.4653
  581MOL0     C78346   0.526   7.771  10.314  0.0611  0.1300 -0.1013
  581MOL0     O78347   0.690   7.949  10.494 -0.2225 -0.3258 -0.4028
  581MOL0     C78348   0.642   8.028  10.755  0.8867  0.2585 -0.3769
  581MOL0     C78349   0.626   8.100  10.873  0.5529 -0.7304 -0.1125
  581MOL0     N78350   0.574   8.660  11.390  0.5666  0.1905 -0.0112
  581MOL0     N78351   0.669   8.716  11.466  0.7016  0.4011 -0.7128
  581MOL0     C78352   1.572   9.276  11.408 -0.6485  0.2864 -0.1482
  581MOL0     C78353   1.659   9.243  11.306  0.1469 -0.4262 -0.1453
  581MOL0     C78354   1.893   9.368  10.939 -0.6469  0.1726  0.2741
  581MOL0     C78355   1.870   9.256  10.851 -0.1074 -0.0085 -0.1567
  581MOL0     C78356   1.946   9.230  10.744  0.8671 -0.4145  0.2015
  581MOL0     C78357   2.061   9.308  10.718  1.0680  0.0462  0.7130
  581MOL0     O78358   2.128   9.280  10.604 -0.1448 -0.0407  0.2416
  581MOL0     C78359   2.261   9.234  10.613  0.5541  0.3525 -0.5743
  581MOL0     C78360   2.264   9.084  10.585  0.6052  0.4613  0.5856
  581MOL0     C78361   2.396   9.017  10.633 -0.1836 -0.0758 -0.1400
  581MOL0     C78362   2.490   8.985  10.523 -0.2186  0.0896 -0.0311
  581MOL0     C78363   2.546   9.099  10.451  0.2144  0.3071 -1.2028
  581MOL0     C78364   2.589   9.188  10.382 -0.3435  0.3119 -0.0827
  581MOL0     C78365   2.077   9.424  10.790 -0.7541 -0.6160  0.2122
  581MOL0     C78366   2.007   9.445  10.908 -0.2114 -0.8390  0.6297
  581MOL0     C78367   2.041   9.570  10.985  0.8413 -0.9452 -0.0330
  581MOL0     H78368   1.507   9.412  11.049 -1.7656  0.2340  0.8745
  581MOL0     H78369   1.346   9.444  11.217 -1.5016 -1.7848  1.8346
  581MOL0     H78370   1.396   9.234  11.633  1.3587 -1.8713 -0.2663
  581MOL0     H78371   1.236   9.280  11.610  0.7329 -0.7830  0.1493
  581MOL0     H78372   1.386   9.106  11.422 -0.0010  1.2656 -0.6446
  581MOL0     H78373   1.212   9.154  11.409  1.7242  0.4163 -0.5775
  581MOL0     H78374   1.186   9.021  11.645  0.0893  2.3509 -0.7381
  581MOL0     H78375   1.345   8.946  11.605 -0.8001 -0.7448 -2.2996
  581MOL0     H78376   1.107   8.912  11.417 -0.5637 -1.7089 -0.8240
  581MOL0     H78377   1.265   8.854  11.402 -2.2560  3.1119 -2.9388
  581MOL0     H78378   1.166   8.670  11.515  2.8480 -0.2356  0.3226
  581MOL0     H78379   1.207   8.761  11.659  3.2444 -0.5459 -1.6431
  581MOL0     H78380   0.972   8.861  11.661  0.7860  0.5272  0.5954
  581MOL0     H78381   0.943   8.804  11.496 -0.6542  0.5817  0.6063
  581MOL0     H78382   0.990   8.587  11.713 -2.4287 -0.5821  2.5733
  581MOL0     H78383   0.927   8.573  11.549  1.5068 -0.4169 -1.4018
  581MOL0     H78384   0.769   8.560  11.745 -1.6580  2.7605  3.7611
  581MOL0     H78385   0.755   8.736  11.742  1.2569  0.7808 -0.2728
  581MOL0     H78386   0.579   8.461  11.654 -1.2723  0.4347 -0.0257
  581MOL0     H78387   0.477   8.353  11.417 -0.6188 -0.4454 -1.1375
  581MOL0     H78388   0.333   8.446  11.446  1.4232 -1.4277  2.2204
  581MOL0     H78389   0.355   8.549  11.221 -1.2631 -1.0978 -0.1775
  581MOL0     H78390   0.507   8.474  11.200 -1.4787  2.7672 -0.5454
  581MOL0     H78391   0.238   8.322  11.229  0.3750  1.4800  2.9528
  581MOL0     H78392   0.383   8.235  11.253  0.7537  0.0048 -0.5532
  581MOL0     H78393   0.372   8.409  10.997  1.1120 -1.2647 -3.8034
  581MOL0     H78394   0.297   8.243  11.010  2.5446 -2.9216 -0.4547
  581MOL0     H78395   0.336   8.268  10.787 -0.3589 -0.1039  1.3376
  581MOL0     H78396   0.380   8.148  10.577  1.0850  2.9585 -0.0176
  581MOL0     H78397   0.232   7.924  10.344 -2.3544 -1.9586  0.2885
  581MOL0     H78398   0.192   7.767  10.130  1.4363 -3.2328 -2.2491
  581MOL0     H78399   0.535   7.619   9.968 -2.5719  2.6157  0.3470
  581MOL0     H78400   0.469   7.462   9.972  3.7047  0.4061  2.5661
  581MOL0     H78401   0.469   7.565   9.741  2.1015  1.9903  0.3106
  581MOL0     H78402   0.298   7.558   9.797 -0.1916  0.2490 -2.0592
  581MOL0     H78403   0.368   7.831   9.863 -3.0979 -1.8342  0.5635
  581MOL0     H78404   0.491   7.803   9.752  0.0710 -1.3412 -1.7859
  581MOL0     H78405   0.271   7.899   9.664 -4.7211 -1.0581  1.3795
  581MOL0     H78406   0.192   7.750   9.718  0.0802  0.1763  0.6401
  581MOL0     H78407   0.342   7.633   9.549 -0.5573  0.0205  1.0743
  581MOL0     H78408   0.381   7.780   9.476  0.4049 -1.6995 -0.7102
  581MOL0     H78409   0.177   7.633   9.378 -0.0774 -1.0913  1.1336
  581MOL0     H78410   0.093   7.692   9.531  2.3778 -2.0821  1.6815
  581MOL0     H78411   0.248   7.847   9.305 -0.7301  5.4870  2.9292
  581MOL0     H78412   0.126   7.915   9.410 -1.3980  0.0539 -0.0998
  581MOL0     H78413   0.029   7.897   9.198 -0.2108 -0.1951  0.8190
  581MOL0     H78414   0.093   7.741   9.163 -2.2471 -0.9367 -0.2544
  581MOL0     H78415   0.568   7.599  10.178 -1.8985 -1.5107 -1.1335
  581MOL0     H78416   0.615   7.756  10.376 -1.0787  0.2384  1.6232
  581MOL0     H78417   0.719   7.952  10.743  0.4339  0.1549 -3.3902
  581MOL0     H78418   0.706   8.089  10.946 -0.3785 -2.6918  0.6816
  581MOL0     H78419   1.593   9.233  11.506  1.2939  1.9698  0.2452
  581MOL0     H78420   1.742   9.181  11.339  1.2117 -0.0280 -1.9454
  581MOL0     H78421   1.787   9.186  10.855  0.7821 -1.2205 -1.6628
  581MOL0     H78422   1.901   9.156  10.677 -0.5323  1.1458 -0.6593
  581MOL0     H78423   2.302   9.250  10.714  2.7737 -0.6500 -1.2589
  581MOL0     H78424   2.328   9.298  10.554 -1.0876  4.1092  1.2509
  581MOL0     H78425   2.243   9.074  10.478 -0.8336 -0.0770  0.8928
  581MOL0     H78426   2.182   9.031  10.635 -1.9088  2.2562 -1.3724
  581MOL0     H78427   2.371   8.930  10.695  0.9415  1.0230  1.9526
  581MOL0     H78428   2.452   9.086  10.696 -2.2448  0.9959  0.6031
  581MOL0     H78429   2.568   8.934  10.579  0.1963  0.4705 -0.2568
  581MOL0     H78430   2.445   8.912  10.455 -1.9491 -0.4959  1.6534
  581MOL0     H78431   2.624   9.258  10.309  2.8150  0.2815  1.2416
  581MOL0     H78432   2.159   9.490  10.761 -1.1191  0.9755  2.5468
  581MOL0     H78433   2.093   9.641  10.920 -3.3632  5.7144  2.7732
  581MOL0     H78434   1.953   9.631  11.009  2.7373  2.1144 -0.1897
  581MOL0     H78435   2.089   9.562  11.083 -2.8936  0.5788  2.1416
  582MOL0     O78436  11.238   2.639   2.650 -0.1517 -0.3985  0.2426
  582MOL0     C78437  11.287   2.553   2.721 -0.1226  0.5916 -0.1082
  582MOL0     O78438  11.334   2.572   2.838 -0.2241 -0.4520 -0.2082
  582MOL0     C78439  11.368   2.697   2.885 -0.8035 -0.6827  0.3968
  582MOL0     C78440  11.283   2.772   2.969 -0.3170 -0.0730 -0.7419
  582MOL0     C78441  11.321   2.897   3.017 -0.4615 -0.0476 -0.6364
  582MOL0     C78442  11.445   2.953   2.977 -0.6299 -0.0979 -0.2890
  582MOL0     O78443  11.505   3.067   3.021  0.8079 -0.5482  0.9704
  582MOL0     C78444  11.439   3.140   3.126  0.2989 -0.2146  0.3346
  582MOL0     C78445  11.525   3.257   3.170  0.2249  0.5090 -0.3447
  582MOL0     C78446  11.455   3.335   3.276 -0.4379  0.7905  0.0143
  582MOL0     C78447  11.543   3.444   3.331 -0.1391  0.0980 -0.2883
  582MOL0     C78448  11.473   3.521   3.449  0.3883 -0.0259  0.2750
  582MOL0     C78449  11.339   3.576   3.419 -0.0941 -0.2200 -0.5720
  582MOL0     C78450  11.289   3.691   3.518  0.1466  0.2094 -0.3109
  582MOL0     C78451  11.156   3.751   3.476  0.0629  0.5249 -0.3683
  582MOL0     N78452  11.178   3.844   3.367  0.5919  0.2614  0.7318
  582MOL0     C78453  11.251   3.958   3.362 -0.2668  0.0078  0.1879
  582MOL0     C78454  11.216   4.035   3.257  0.2525  0.5349 -0.6313
  582MOL0     C78455  11.299   4.150   3.201  1.0838  0.6965 -0.9642
  582MOL0     C78456  11.411   4.109   3.107 -1.4687 -0.1739 -0.1632
  582MOL0     C78457  11.499   3.993   3.164 -0.3477  0.4336 -0.1004
  582MOL0     C78458  11.592   4.047   3.280 -0.0023 -0.3829  0.7189
  582MOL0     O78459  11.669   4.159   3.232 -0.1998 -0.6083  0.3502
  582MOL0     C78460  11.757   4.221   3.321  0.2407  0.9171  0.4904
  582MOL0     C78461  11.890   4.177   3.318  0.4072  0.1356  0.8017
  582MOL0     C78462  11.991   4.238   3.395 -0.2866  0.2776  0.6590
  582MOL0     C78463  11.955   4.322   3.506 -0.4884 -1.0111 -0.1514
  582MOL0     C78464  12.074   4.360   3.595  0.2966  0.5760  0.3182
  582MOL0     O78465  12.191   4.374   3.533  0.7061  0.5937 -0.0645
  582MOL0     C78466  12.302   4.368   3.611  0.4137  0.0054  0.0031
  582MOL0     C78467  12.342   4.472   3.683  0.0862 -0.0039 -0.0248
  582MOL0     C78468  12.452   4.471   3.769  0.5672  0.8248 -0.1089
  582MOL0     C78469  12.530   4.351   3.780 -0.0706  0.1186 -0.2133
  582MOL0     O78470  12.631   4.324   3.868 -1.1137  0.7417 -0.2194
  582MOL0     C78471  12.665   4.432   3.962 -0.1211 -0.3719  0.4270
  582MOL0     C78472  12.777   4.386   4.051  0.4212  0.0904  0.3165
  582MOL0     C78473  12.899   4.302   4.009 -0.6593 -0.3019 -0.0533
  582MOL0     C78474  12.995   4.271   4.125  0.0730 -1.5329 -0.4886
  582MOL0     C78475  13.128   4.210   4.089  0.4695 -0.0521 -0.2237
  582MOL0     C78476  13.227   4.229   4.206  0.7256  0.3124 -0.4399
  582MOL0     C78477  13.342   4.126   4.169  0.6945 -1.0848  0.8666
  582MOL0     C78478  13.405   4.158   4.032  0.1514 -0.6781 -0.1728
  582MOL0    Cl78479  13.574   4.101   4.036  0.3997  0.1800 -0.1323
  582MOL0     C78480  12.491   4.241   3.705  0.0200 -0.0459  0.4342
  582MOL0     C78481  12.376   4.255   3.627  1.1975 -0.0391 -0.5632
  582MOL0     O78482  12.052   4.378   3.717 -0.4916  0.5953  0.0770
  582MOL0     C78483  11.822   4.362   3.510 -0.3457  0.2745 -0.4642
  582MOL0     C78484  11.721   4.312   3.425  0.3009 -0.3897 -0.0438
  582MOL0     N78485  11.107   3.962   3.202  0.3035 -1.1151 -0.4094
  582MOL0     N78486  11.084   3.854   3.275  0.0670 -0.6457  0.2094
  582MOL0     C78487  11.530   2.876   2.891  0.4321  0.0278 -0.3421
  582MOL0     C78488  11.497   2.742   2.858  0.3302  0.2775  0.1512
  582MOL0     C78489  11.281   2.413   2.677  0.0463 -0.5045  0.0760
  582MOL0     C78490  11.282   2.398   2.543 -0.2159  0.5318 -0.0066
  582MOL0     C78491  11.298   2.271   2.485  0.0142 -0.4153  0.2333
  582MOL0     C78492  11.309   2.157   2.563 -0.6576  0.1629  0.2132
  582MOL0     O78493  11.321   2.026   2.521 -0.5861 -0.1314  0.0460
  582MOL0     C78494  11.306   1.985   2.384 -0.1079 -0.5609  0.2965
  582MOL0     C78495  11.275   1.835   2.366 -0.5766  0.2923  0.1099
  582MOL0     C78496  11.261   1.811   2.219 -0.0387  0.5135  0.9830
  582MOL0     C78497  11.133   1.854   2.143  0.2787 -1.0516 -0.3555
  582MOL0     C78498  11.011   1.811   2.222 -0.1544  0.4508 -0.0037
  582MOL0     C78499  10.898   1.799   2.283 -0.1501  0.2078  0.9231
  582MOL0     C78500  11.313   2.171   2.702  0.6536  0.7460 -0.1716
  582MOL0     C78501  11.306   2.300   2.767  0.6179 -1.1145  0.3669
  582MOL0     C78502  11.296   2.292   2.919 -0.1103  0.4748 -0.0648
  582MOL0     H78503  11.187   2.722   2.979 -1.1141  1.2437 -1.5265
  582MOL0     H78504  11.254   2.957   3.077 -0.3682 -2.3829  1.9894
  582MOL0     H78505  11.343   3.180   3.093 -1.1303 -1.0237  3.2034
  582MOL0     H78506  11.412   3.076   3.210  0.5668 -3.5499 -1.9339
  582MOL0     H78507  11.537   3.318   3.080 -0.8498 -1.2280 -1.7492
  582MOL0     H78508  11.623   3.224   3.205  0.1073 -0.5624 -0.9889
  582MOL0     H78509  11.433   3.267   3.359  0.6074 -0.5069 -0.7246
  582MOL0     H78510  11.363   3.381   3.238 -1.4237  2.9353  4.4305
  582MOL0     H78511  11.638   3.398   3.361 -0.2270 -0.1382 -0.3686
  582MOL0     H78512  11.568   3.510   3.248  0.8335 -0.3689 -0.3866
  582MOL0     H78513  11.468   3.456   3.536  1.3205  1.2962  1.3671
  582MOL0     H78514  11.538   3.603   3.481 -1.3854  0.7910  1.9506
  582MOL0     H78515  11.350   3.607   3.314  0.1382 -0.8494 -0.7365
  582MOL0     H78516  11.259   3.502   3.419 -1.3431  1.0793 -0.5807
  582MOL0     H78517  11.362   3.771   3.535  3.8576 -2.3731 -2.3931
  582MOL0     H78518  11.277   3.646   3.617  1.5663  1.2912  0.3937
  582MOL0     H78519  11.078   3.678   3.450 -0.2307  0.9326 -0.6372
  582MOL0     H78520  11.118   3.808   3.561 -1.6401  1.9301 -1.9788
  582MOL0     H78521  11.331   3.970   3.434 -1.6524 -0.4418  1.8725
  582MOL0     H78522  11.238   4.232   3.161 -2.2679 -0.5034  1.2314
  582MOL0     H78523  11.350   4.202   3.282  1.9968  0.2611 -1.2552
  582MOL0     H78524  11.370   4.085   3.009 -0.9860 -0.1418 -0.3776
  582MOL0     H78525  11.465   4.201   3.086 -1.4925  0.4590  2.2708
  582MOL0     H78526  11.555   3.948   3.082  0.8516  2.5662 -0.5046
  582MOL0     H78527  11.444   3.904   3.199 -0.7979  1.3864  1.7794
  582MOL0     H78528  11.648   3.961   3.319 -0.2377 -0.8635  0.0284
  582MOL0     H78529  11.528   4.075   3.364  0.2241  1.4282  0.3167
  582MOL0     H78530  11.915   4.102   3.243 -1.2384 -0.7878  1.1267
  582MOL0     H78531  12.096   4.212   3.383 -0.5714 -0.1161 -1.4465
  582MOL0     H78532  12.279   4.560   3.678 -0.0059 -0.1168 -1.0441
  582MOL0     H78533  12.466   4.554   3.839 -0.6424 -0.8157  2.2128
  582MOL0     H78534  12.703   4.527   3.922  0.1806  0.6351  2.9307
  582MOL0     H78535  12.575   4.446   4.023 -3.5290 -0.2432 -4.0226
  582MOL0     H78536  12.813   4.482   4.088 -1.5592  0.9630  0.0975
  582MOL0     H78537  12.745   4.343   4.147  1.3883  4.9022  3.1086
  582MOL0     H78538  12.869   4.210   3.957  0.3531 -0.0571 -1.1077
  582MOL0     H78539  12.954   4.363   3.937 -0.7202  1.3029  1.2158
  582MOL0     H78540  12.940   4.213   4.200 -0.4080  1.5488  1.7135
  582MOL0     H78541  13.013   4.364   4.179 -0.8703 -1.1035 -0.8785
  582MOL0     H78542  13.174   4.258   4.002 -0.9130  0.6640 -0.5771
  582MOL0     H78543  13.117   4.102   4.073 -1.5348 -0.1333  1.3503
  582MOL0     H78544  13.266   4.330   4.206  1.2647  0.1103 -0.9942
  582MOL0     H78545  13.180   4.207   4.302 -0.6506  1.3353 -0.8478
  582MOL0     H78546  13.312   4.021   4.181 -2.7675 -0.3271 -0.0311
  582MOL0     H78547  13.413   4.137   4.251  0.8396 -4.6410  1.3777
  582MOL0     H78548  13.353   4.122   3.943 -1.1450  0.7509 -0.0412
  582MOL0     H78549  13.408   4.267   4.038 -1.8117 -0.5891 -0.1656
  582MOL0     H78550  12.534   4.143   3.723 -0.1546 -0.2733 -0.3460
  582MOL0     H78551  12.341   4.165   3.577  2.7401 -2.2687  2.1379
  582MOL0     H78552  11.785   4.432   3.584  2.0865  2.2639 -0.9979
  582MOL0     H78553  11.624   4.361   3.429  1.2529  1.5033  2.3366
  582MOL0     H78554  11.618   2.925   2.849 -0.9242  2.4227 -0.5517
  582MOL0     H78555  11.552   2.683   2.786  0.3646  1.6474 -0.9847
  582MOL0     H78556  11.266   2.482   2.476 -3.5111  2.5183  2.9841
  582MOL0     H78557  11.316   2.253   2.379  1.2291  0.4048  0.2836
  582MOL0     H78558  11.401   2.007   2.334 -1.4354  2.4433 -1.1622
  582MOL0     H78559  11.233   2.049   2.334  0.7075  1.5309  1.6140
  582MOL0     H78560  11.180   1.815   2.416 -0.4220 -1.2829 -0.1895
  582MOL0     H78561  11.348   1.764   2.405  0.1239 -0.0407 -1.7133
  582MOL0     H78562  11.275   1.703   2.218 -3.4571 -0.0622 -0.4209
  582MOL0     H78563  11.343   1.860   2.165 -0.3747  0.1034  0.0903
  582MOL0     H78564  11.125   1.962   2.127 -3.2066 -1.2799 -0.9283
  582MOL0     H78565  11.117   1.800   2.050  0.8854  0.7828 -1.5667
  582MOL0     H78566  10.807   1.802   2.338 -0.0113 -2.4232  1.4409
  582MOL0     H78567  11.314   2.087   2.771 -0.0579  2.6198  2.2609
  582MOL0     H78568  11.274   2.385   2.973  0.2552  0.7126 -0.3172
  582MOL0     H78569  11.220   2.220   2.950 -1.5305  2.0044  0.1695
  582MOL0     H78570  11.392   2.261   2.961 -0.0076  1.4148  0.4335
  583MOL0     O78571   2.842   5.263   4.359 -0.4367  0.5947 -0.5591
  583MOL0     C78572   2.860   5.147   4.393 -0.0367  0.3715  1.0478
  583MOL0     O78573   2.766   5.040   4.378 -1.2347 -0.4779 -0.4115
  583MOL0     C78574   2.643   5.087   4.356  0.5577 -0.1006  0.4028
  583MOL0     C78575   2.587   5.086   4.221 -0.1631  1.6727 -0.3134
  583MOL0     C78576   2.453   5.117   4.201  0.2308  0.4408 -0.0631
  583MOL0     C78577   2.371   5.149   4.311 -0.6690 -0.7657 -0.3835
  583MOL0     O78578   2.238   5.183   4.297  0.0429  0.1146 -0.2759
  583MOL0     C78579   2.192   5.256   4.180  0.1586  0.2196  0.0255
  583MOL0     C78580   2.121   5.388   4.218 -0.4881  0.2425 -0.2025
  583MOL0     C78581   2.034   5.371   4.335 -0.0448  0.2454 -0.4854
  583MOL0     C78582   1.979   5.509   4.362  0.0609  0.4346  0.4107
  583MOL0     C78583   1.881   5.514   4.487  0.0240  0.0809 -0.0604
  583MOL0     C78584   1.970   5.508   4.607 -0.2364  0.0550  0.1349
  583MOL0     C78585   1.891   5.502   4.739 -0.1769 -0.0848  0.1397
  583MOL0     C78586   1.822   5.633   4.773  0.0413  0.1170  0.4163
  583MOL0     N78587   1.690   5.657   4.720  0.0129  0.2044 -0.2834
  583MOL0     C78588   1.583   5.571   4.741 -0.4203 -0.6573 -0.3449
  583MOL0     C78589   1.479   5.637   4.679 -0.2936  0.5025 -0.2278
  583MOL0     C78590   1.332   5.624   4.659  0.4206  0.2237 -0.3223
  583MOL0     C78591   1.284   5.526   4.557  0.3336  0.6969  0.5464
  583MOL0     C78592   1.164   5.438   4.585 -0.2161  0.0249  0.6480
  583MOL0     C78593   1.046   5.521   4.546 -0.3496  0.0129 -1.0367
  583MOL0     O78594   1.006   5.611   4.650 -0.4393  0.0303  0.2322
  583MOL0     C78595   0.906   5.699   4.607  0.2284  0.2881  0.2788
  583MOL0     C78596   0.898   5.808   4.694  0.5887 -0.2128  0.5857
  583MOL0     C78597   0.802   5.905   4.661 -0.3500  0.1285  0.0644
  583MOL0     C78598   0.714   5.895   4.549 -0.1908  0.6191  1.1872
  583MOL0     C78599   0.620   6.006   4.513 -0.7042 -0.3404  0.3193
  583MOL0     O78600   0.552   6.002   4.388 -0.2148  0.2155 -0.1838
  583MOL0     C78601   0.437   6.061   4.357  0.0277 -0.3193 -0.6868
  583MOL0     C78602   0.433   6.165   4.259  0.3538 -0.0752 -0.6582
  583MOL0     C78603   0.314   6.232   4.230 -0.4165  0.5371  0.1650
  583MOL0     C78604   0.196   6.201   4.305 -0.5161  0.8502 -0.2987
  583MOL0     O78605   0.070   6.244   4.296 -0.0266  0.1328  0.4867
  583MOL0     C78606   0.044   6.304   4.165 -0.0689 -0.8504  0.2224
  583MOL0     C78607  -0.084   6.380   4.162 -0.7480 -1.1791 -0.4071
  583MOL0     C78608  -0.122   6.411   4.015 -0.2351 -0.0219 -0.1075
  583MOL0     C78609  -0.197   6.301   3.947 -0.4406 -0.2191  0.9275
  583MOL0     C78610  -0.208   6.325   3.793  0.1007 -0.7233  0.3090
  583MOL0     C78611  -0.296   6.449   3.752 -0.6431  0.0493 -0.6799
  583MOL0     C78612  -0.308   6.461   3.600  0.2591  0.2943  0.0831
  583MOL0     C78613  -0.332   6.600   3.542  0.1929  0.3589 -0.2817
  583MOL0    Cl78614  -0.211   6.711   3.612 -0.5606  0.4076  0.5250
  583MOL0     C78615   0.206   6.096   4.401 -0.7092 -0.1839  0.3123
  583MOL0     C78616   0.324   6.028   4.424  0.0576  0.6430 -0.3276
  583MOL0     O78617   0.600   6.088   4.599  0.2697 -0.1381  0.3099
  583MOL0     C78618   0.731   5.789   4.458  0.2731  1.1054 -1.0453
  583MOL0     C78619   0.826   5.687   4.491 -0.1325 -0.2765  0.3955
  583MOL0     N78620   1.527   5.755   4.623 -0.0820  0.2188  0.3393
  583MOL0     N78621   1.645   5.776   4.671  0.5159  0.2575 -0.1812
  583MOL0     C78622   2.422   5.138   4.442 -0.8702  0.5428 -0.2580
  583MOL0     C78623   2.553   5.097   4.461  0.4498 -0.6165 -0.2038
  583MOL0     C78624   2.999   5.113   4.442  0.4322  0.1341  0.4313
  583MOL0     C78625   3.101   5.185   4.389 -1.1431 -0.4192  0.2000
  583MOL0     C78626   3.238   5.164   4.428 -0.3457  0.1243  0.3947
  583MOL0     C78627   3.269   5.057   4.516 -0.3767 -0.5530 -0.2093
  583MOL0     O78628   3.401   5.028   4.548 -0.2203  0.0912  0.3120
  583MOL0     C78629   3.513   5.063   4.466 -0.4301  0.3411 -0.2641
  583MOL0     C78630   3.573   5.195   4.510 -0.5040 -0.1968  0.6316
  583MOL0     C78631   3.663   5.185   4.636  0.4244  0.6054  0.0892
  583MOL0     C78632   3.797   5.267   4.622  0.3572 -1.0687  0.7815
  583MOL0     C78633   3.863   5.266   4.756  0.0501 -0.2804  0.0609
  583MOL0     C78634   3.910   5.277   4.866 -0.6256 -0.4307 -1.1711
  583MOL0     C78635   3.165   4.971   4.557  1.1659 -0.4522  0.0004
  583MOL0     C78636   3.031   5.005   4.521  0.0827  0.3211 -0.7083
  583MOL0     C78637   2.925   4.908   4.576 -0.3738 -0.2227  0.1274
  583MOL0     H78638   2.658   5.073   4.140 -0.0208  1.5569 -0.1712
  583MOL0     H78639   2.412   5.110   4.101  0.2020  3.2127 -0.3216
  583MOL0     H78640   2.271   5.290   4.112 -1.3709  0.9101 -1.4858
  583MOL0     H78641   2.126   5.194   4.119 -1.0090 -0.0713  1.5371
  583MOL0     H78642   2.057   5.401   4.130  0.9768 -1.4240 -1.6034
  583MOL0     H78643   2.194   5.468   4.230 -1.2221  0.6992  1.5683
  583MOL0     H78644   2.078   5.327   4.425 -1.8422 -2.8664 -0.9663
  583MOL0     H78645   1.948   5.308   4.311  0.0824 -0.0439 -0.1966
  583MOL0     H78646   2.054   5.586   4.380 -2.2101  2.5604  1.3893
  583MOL0     H78647   1.922   5.543   4.275 -0.5923 -1.0941  0.2081
  583MOL0     H78648   1.820   5.605   4.487 -0.7457 -0.2907 -3.6750
  583MOL0     H78649   1.813   5.429   4.485 -0.3967  0.4200 -1.1457
  583MOL0     H78650   2.025   5.413   4.604 -1.4132 -0.6593  0.4153
  583MOL0     H78651   2.036   5.595   4.601 -0.8161  0.4320 -1.3450
  583MOL0     H78652   1.956   5.476   4.823 -2.7977  1.6607  2.8995
  583MOL0     H78653   1.816   5.422   4.734  1.1434 -1.3352 -0.4251
  583MOL0     H78654   1.811   5.650   4.880 -2.5941 -2.8394  0.7406
  583MOL0     H78655   1.886   5.714   4.737 -1.5981  1.9686  1.4400
  583MOL0     H78656   1.567   5.484   4.804 -0.4351  1.0138  2.1381
  583MOL0     H78657   1.278   5.608   4.752 -0.4355  1.0930 -0.6507
  583MOL0     H78658   1.302   5.718   4.612 -0.6793 -1.7554 -3.9248
  583MOL0     H78659   1.271   5.573   4.459 -1.5262  2.2565  1.4790
  583MOL0     H78660   1.367   5.454   4.559  0.1012  0.3406  4.4660
  583MOL0     H78661   1.158   5.402   4.688 -0.3231  1.4854  1.1730
  583MOL0     H78662   1.174   5.350   4.521 -1.4540  1.0470 -1.0220
  583MOL0     H78663   0.968   5.448   4.525 -0.5633 -0.0729 -0.0075
  583MOL0     H78664   1.070   5.584   4.460  0.7745 -1.3203 -1.7475
  583MOL0     H78665   0.963   5.825   4.779  2.2762  2.1777 -1.0471
  583MOL0     H78666   0.798   5.994   4.724  1.9503  1.3033 -1.2999
  583MOL0     H78667   0.521   6.190   4.200  0.3942  1.0093 -0.1627
  583MOL0     H78668   0.317   6.316   4.161  3.6091  1.6578  1.4396
  583MOL0     H78669   0.122   6.373   4.130 -0.6016  0.2254  1.0875
  583MOL0     H78670   0.051   6.222   4.094 -2.3880 -0.6596 -0.3027
  583MOL0     H78671  -0.162   6.325   4.216 -0.4853 -0.1020  1.1255
  583MOL0     H78672  -0.074   6.477   4.211  1.2109  0.0764 -3.0421
  583MOL0     H78673  -0.194   6.493   4.013  0.1716  0.3293 -0.3997
  583MOL0     H78674  -0.034   6.432   3.954  0.1936  0.7600  0.7737
  583MOL0     H78675  -0.296   6.298   3.993 -0.3487 -0.4437  1.1133
  583MOL0     H78676  -0.135   6.212   3.959  2.3181  0.9919 -2.5146
  583MOL0     H78677  -0.250   6.236   3.745  0.9681 -1.4602  0.9008
  583MOL0     H78678  -0.107   6.337   3.752  0.6878 -3.5168  0.7529
  583MOL0     H78679  -0.389   6.445   3.809  0.7171  0.2867  1.6946
  583MOL0     H78680  -0.236   6.534   3.786  1.7303 -2.2399  1.3039
  583MOL0     H78681  -0.394   6.399   3.574  0.1357  0.9577 -1.1764
  583MOL0     H78682  -0.214   6.423   3.558  0.7698 -1.0039  2.2690
  583MOL0     H78683  -0.337   6.603   3.433 -0.0487 -3.1906 -0.4978
  583MOL0     H78684  -0.436   6.630   3.557 -0.5696  0.9293 -5.1374
  583MOL0     H78685   0.119   6.081   4.465  0.6064  0.1625  2.2734
  583MOL0     H78686   0.321   5.944   4.493  0.8865 -2.1478 -3.4267
  583MOL0     H78687   0.659   5.772   4.379 -2.9175 -3.1353  2.2932
  583MOL0     H78688   0.836   5.599   4.428 -0.5974 -0.3127  0.3685
  583MOL0     H78689   2.355   5.136   4.527 -1.8004 -1.4514 -0.9696
  583MOL0     H78690   2.592   5.091   4.562  0.5095  2.2470  0.0294
  583MOL0     H78691   3.091   5.266   4.317  2.3847 -0.3200 -0.3939
  583MOL0     H78692   3.311   5.230   4.383  0.6081 -2.4913 -2.2094
  583MOL0     H78693   3.474   5.073   4.365  1.4973  0.5761 -1.0136
  583MOL0     H78694   3.582   4.978   4.460 -2.0932 -1.1767  0.8252
  583MOL0     H78695   3.483   5.255   4.528  0.0027  0.4999  0.8659
  583MOL0     H78696   3.627   5.244   4.429 -2.7361  0.5828 -0.4870
  583MOL0     H78697   3.685   5.082   4.666  1.4484 -0.5692 -4.0840
  583MOL0     H78698   3.610   5.236   4.718  2.6723  3.6283 -0.1693
  583MOL0     H78699   3.866   5.227   4.547 -1.0111 -2.2089  0.0673
  583MOL0     H78700   3.761   5.364   4.588 -0.0646 -1.4881 -0.0002
  583MOL0     H78701   3.954   5.290   4.962 -1.0786  1.3237 -1.1794
  583MOL0     H78702   3.192   4.887   4.619  1.3801  1.0246  1.9968
  583MOL0     H78703   2.833   4.965   4.596  0.8934  1.2011  2.2185
  583MOL0     H78704   2.890   4.832   4.505 -1.3121  0.7581 -0.4979
  583MOL0     H78705   2.964   4.867   4.669 -0.9055  3.1756  2.0086
  584MOL0     O78706   5.008   0.447   0.809 -0.1812 -0.2279 -0.1977
  584MOL0     C78707   5.080   0.544   0.831 -0.2208  0.6172  0.0297
  584MOL0     O78708   5.078   0.661   0.757  0.4721  0.3537 -0.0415
  584MOL0     C78709   5.009   0.669   0.641  0.4884 -0.3809 -0.4540
  584MOL0     C78710   4.899   0.593   0.607  0.5162  0.0753  0.3899
  584MOL0     C78711   4.841   0.603   0.479 -0.4620 -0.2534  0.6561
  584MOL0     C78712   4.899   0.675   0.372 -0.0576  0.6281  0.2350
  584MOL0     O78713   4.832   0.668   0.253  0.2450  0.3169  0.3838
  584MOL0     C78714   4.905   0.701   0.136 -0.0444  0.0584  0.4710
  584MOL0     C78715   4.805   0.705   0.015  0.1449  0.0183 -0.8329
  584MOL0     C78716   4.777   0.573  -0.035  0.6182  0.6453  0.6291
  584MOL0     C78717   4.684   0.598  -0.156 -0.0529 -0.2478  0.9806
  584MOL0     C78718   4.669   0.477  -0.239 -0.4166  0.3444 -0.5004
  584MOL0     C78719   4.576   0.369  -0.178 -0.4116  0.4153 -0.4631
  584MOL0     C78720   4.584   0.238  -0.261  0.3211  0.8620  0.1370
  584MOL0     C78721   4.476   0.136  -0.202 -0.6071  0.6319  0.5479
  584MOL0     N78722   4.346   0.160  -0.261  0.6778 -0.6583 -0.2909
  584MOL0     C78723   4.252   0.239  -0.201 -0.0724 -0.6113  0.8562
  584MOL0     C78724   4.147   0.236  -0.287  0.0063  0.0688  0.6403
  584MOL0     C78725   4.017   0.310  -0.281  0.2570 -0.2154  0.6708
  584MOL0     C78726   3.967   0.347  -0.418  0.0473  0.3173 -0.3023
  584MOL0     C78727   3.833   0.441  -0.419  0.3636 -0.3205 -0.2397
  584MOL0     C78728   3.717   0.380  -0.344  0.4131  0.4341  0.0064
  584MOL0     O78729   3.682   0.246  -0.381 -0.3082 -0.5523  0.0930
  584MOL0     C78730   3.657   0.233  -0.516 -0.1134 -1.0337  0.5731
  584MOL0     C78731   3.556   0.307  -0.572  0.8446 -0.3176  0.0533
  584MOL0     C78732   3.522   0.306  -0.707  0.3146 -0.6675  0.0951
  584MOL0     C78733   3.599   0.223  -0.792  0.5954  0.3664 -0.2289
  584MOL0     C78734   3.555   0.233  -0.932  0.7092  0.1912  1.5755
  584MOL0     O78735   3.437   0.293  -0.982 -0.3410  0.0854  0.2686
  584MOL0     C78736   3.397   0.283  -1.112  0.6058 -0.3506  0.1458
  584MOL0     C78737   3.412   0.166  -1.189  0.8160 -0.0487 -0.0857
  584MOL0     C78738   3.361   0.171  -1.320 -0.4095 -1.1036  0.3104
  584MOL0     C78739   3.305   0.290  -1.379  0.5341 -0.1961 -0.5401
  584MOL0     O78740   3.278   0.300  -1.512  0.5969  0.0015  0.2049
  584MOL0     C78741   3.318   0.192  -1.599  0.1947 -1.4706  0.1434
  584MOL0     C78742   3.259   0.221  -1.732 -0.2912 -0.1376  0.9983
  584MOL0     C78743   3.313   0.109  -1.825 -0.0115 -0.5874  0.2686
  584MOL0     C78744   3.329   0.161  -1.974  0.1347  1.2072 -0.8639
  584MOL0     C78745   3.433   0.265  -1.997 -0.1840  0.9907  0.8890
  584MOL0     C78746   3.461   0.262  -2.144 -0.3138  0.5339  0.1027
  584MOL0     C78747   3.520   0.388  -2.212  1.1307 -0.1075  0.3943
  584MOL0     C78748   3.677   0.363  -2.229  0.3552 -0.3450 -0.0870
  584MOL0    Cl78749   3.770   0.340  -2.072 -0.1025  0.7315 -0.2275
  584MOL0     C78750   3.295   0.404  -1.298 -1.2268  0.5116 -0.2027
  584MOL0     C78751   3.335   0.398  -1.162 -0.2637  0.1568  0.5479
  584MOL0     O78752   3.646   0.208  -1.005 -0.6616  0.3364  0.5143
  584MOL0     C78753   3.705   0.145  -0.735  0.9888  0.3544  0.2710
  584MOL0     C78754   3.738   0.162  -0.600 -0.3240 -0.6928  0.0985
  584MOL0     N78755   4.182   0.157  -0.395  0.6294  0.1341 -0.2358
  584MOL0     N78756   4.298   0.110  -0.376  0.1172  0.5090  0.4804
  584MOL0     C78757   5.010   0.749   0.402  0.3967 -0.1246 -0.1017
  584MOL0     C78758   5.061   0.751   0.537  0.3433  0.1809  0.0994
  584MOL0     C78759   5.192   0.534   0.934  0.5444 -0.1450 -0.7840
  584MOL0     C78760   5.237   0.661   0.989  0.1776  0.3441 -0.1422
  584MOL0     C78761   5.345   0.663   1.079 -0.4845 -0.5287 -0.6785
  584MOL0     C78762   5.408   0.551   1.122 -0.1371  0.8434  0.2388
  584MOL0     O78763   5.510   0.555   1.210  0.0051  1.3967  0.7800
  584MOL0     C78764   5.613   0.656   1.207  0.4761 -0.1898 -0.9692
  584MOL0     C78765   5.713   0.612   1.101  0.2820  0.5721  0.1656
  584MOL0     C78766   5.687   0.670   0.959 -1.2425  0.4062  0.5340
  584MOL0     C78767   5.811   0.624   0.876 -0.2570 -0.0486 -0.8525
  584MOL0     C78768   5.773   0.511   0.784  0.2475 -0.6542 -0.5216
  584MOL0     C78769   5.744   0.412   0.724  0.8853 -0.2915 -0.8952
  584MOL0     C78770   5.371   0.424   1.066 -0.5462  0.6139 -0.3243
  584MOL0     C78771   5.264   0.416   0.973 -0.1487 -0.4580 -0.4682
  584MOL0     C78772   5.246   0.283   0.908 -0.1336 -0.4657 -0.0404
  584MOL0     H78773   4.837   0.539   0.679  0.5121  0.8188  0.9572
  584MOL0     H78774   4.749   0.553   0.453 -0.6071  1.3413 -2.4787
  584MOL0     H78775   4.947   0.802   0.142  0.8655 -0.2312 -0.7184
  584MOL0     H78776   4.985   0.627   0.126 -0.8974 -1.2051  2.4677
  584MOL0     H78777   4.861   0.768  -0.055  1.8685  0.0898  0.5397
  584MOL0     H78778   4.710   0.756   0.034 -0.1331 -1.4170  2.0649
  584MOL0     H78779   4.728   0.505   0.034 -1.1269 -1.4611 -2.4287
  584MOL0     H78780   4.867   0.521  -0.070  2.6582  0.6697  5.1646
  584MOL0     H78781   4.591   0.641  -0.118  1.3751  1.3822  2.8378
  584MOL0     H78782   4.726   0.680  -0.216 -1.9303  1.3531  1.7597
  584MOL0     H78783   4.621   0.512  -0.331 -4.7028 -0.3683  1.2269
  584MOL0     H78784   4.771   0.447  -0.266 -0.0153  2.4429 -1.5263
  584MOL0     H78785   4.601   0.357  -0.072 -0.4685  1.5886 -0.3091
  584MOL0     H78786   4.472   0.397  -0.195 -0.2402  2.1182  1.0629
  584MOL0     H78787   4.684   0.192  -0.258  0.3513  0.8047 -1.2229
  584MOL0     H78788   4.563   0.261  -0.366 -0.5438  0.6062  0.2505
  584MOL0     H78789   4.497   0.031  -0.220  5.2500  1.6677 -0.6646
  584MOL0     H78790   4.476   0.151  -0.094  2.2415 -1.9593  1.0381
  584MOL0     H78791   4.250   0.287  -0.104 -1.7646 -1.5009  1.3124
  584MOL0     H78792   3.947   0.242  -0.232 -0.5711 -0.5556 -0.8996
  584MOL0     H78793   4.024   0.401  -0.222 -2.9373 -1.1695  2.7721
  584MOL0     H78794   4.052   0.390  -0.473  1.5028 -2.9016 -0.7727
  584MOL0     H78795   3.944   0.262  -0.482  0.9970  1.6723 -2.5931
  584MOL0     H78796   3.795   0.459  -0.520 -0.0880 -0.6133 -0.1228
  584MOL0     H78797   3.866   0.536  -0.376  1.1632 -0.5155 -0.4122
  584MOL0     H78798   3.632   0.449  -0.336 -0.6476 -0.6631 -1.2625
  584MOL0     H78799   3.745   0.358  -0.241  0.7227 -1.6374 -0.4762
  584MOL0     H78800   3.487   0.362  -0.508 -1.2456 -0.9134 -1.5722
  584MOL0     H78801   3.437   0.359  -0.747  1.9146  1.1409 -1.0438
  584MOL0     H78802   3.463   0.073  -1.165 -0.6321 -1.0791 -0.8808
  584MOL0     H78803   3.378   0.079  -1.376 -1.1460  0.0162 -1.8657
  584MOL0     H78804   3.426   0.184  -1.616 -0.3891 -1.9801 -5.3810
  584MOL0     H78805   3.280   0.094  -1.570 -2.0599 -0.2669  1.4947
  584MOL0     H78806   3.150   0.211  -1.734 -0.4881 -0.2039 -4.9033
  584MOL0     H78807   3.282   0.324  -1.763  2.2687 -1.4232 -2.0034
  584MOL0     H78808   3.407   0.059  -1.799  0.8946  0.3728 -1.0595
  584MOL0     H78809   3.244   0.025  -1.812  0.9000 -1.3726  0.1431
  584MOL0     H78810   3.233   0.193  -2.016 -1.6437  0.0494  1.9695
  584MOL0     H78811   3.334   0.069  -2.033  3.2307  0.8560 -0.2365
  584MOL0     H78812   3.525   0.238  -1.946  0.1808 -2.5397 -1.2645
  584MOL0     H78813   3.390   0.361  -1.968  1.6548  2.0939  0.1058
  584MOL0     H78814   3.515   0.172  -2.173 -1.5390 -0.9799  2.2122
  584MOL0     H78815   3.362   0.266  -2.190  0.2979 -1.4761 -1.5190
  584MOL0     H78816   3.501   0.485  -2.167  2.3716  0.8226 -0.9750
  584MOL0     H78817   3.473   0.388  -2.311  0.5465 -1.1280  0.6494
  584MOL0     H78818   3.691   0.279  -2.298 -3.5555  0.9381 -2.7580
  584MOL0     H78819   3.716   0.460  -2.262 -1.3962  0.9400  1.4628
  584MOL0     H78820   3.264   0.499  -1.342 -0.4931  0.1940 -1.4423
  584MOL0     H78821   3.314   0.472  -1.086 -1.2298 -0.1113  0.5537
  584MOL0     H78822   3.754   0.078  -0.805 -1.7500  1.8564 -3.4151
  584MOL0     H78823   3.820   0.101  -0.562  1.4003  1.3028 -0.2799
  584MOL0     H78824   5.055   0.825   0.338 -1.2474  1.8676  0.9909
  584MOL0     H78825   5.144   0.815   0.563  0.5504 -0.1283  0.2104
  584MOL0     H78826   5.189   0.752   0.957 -0.0338 -0.3672 -1.9716
  584MOL0     H78827   5.373   0.760   1.119  1.8056 -1.3090 -0.2620
  584MOL0     H78828   5.655   0.662   1.307  0.2634  4.0052 -0.9747
  584MOL0     H78829   5.579   0.758   1.187  1.8368  1.1395  2.6380
  584MOL0     H78830   5.706   0.503   1.095 -2.4923  0.7411 -2.1127
  584MOL0     H78831   5.813   0.642   1.130  0.5434  1.9141 -1.8845
  584MOL0     H78832   5.677   0.778   0.967 -0.9038  0.4389  0.5197
  584MOL0     H78833   5.594   0.622   0.926 -0.0038 -0.7566 -1.4544
  584MOL0     H78834   5.846   0.700   0.806  2.0135  0.5969  0.8518
  584MOL0     H78835   5.894   0.584   0.934 -1.4320 -1.3559  0.0199
  584MOL0     H78836   5.724   0.323   0.668 -2.1500 -0.9511  1.0062
  584MOL0     H78837   5.436   0.347   1.107 -0.7587 -0.0171 -1.1380
  584MOL0     H78838   5.334   0.223   0.935  0.1853  0.3377  0.7345
  584MOL0     H78839   5.156   0.226   0.930  1.1783 -1.7864  2.3141
  584MOL0     H78840   5.253   0.297   0.799  0.9581 -1.7347 -0.1637
  585MOL0     O78841   6.135   6.337   1.446  0.3371  0.4340  0.2487
  585MOL0     C78842   6.213   6.284   1.523  0.6975 -0.0636  0.0309
  585MOL0     O78843   6.333   6.238   1.490  0.2832 -0.2423  0.0818
  585MOL0     C78844   6.370   6.256   1.355 -0.4025 -0.8363  0.0532
  585MOL0     C78845   6.437   6.367   1.308 -0.2802  0.0332 -0.7007
  585MOL0     C78846   6.487   6.359   1.177  0.5474  0.0024 -0.4950
  585MOL0     C78847   6.458   6.262   1.083  0.4007 -1.1963  0.3998
  585MOL0     O78848   6.504   6.269   0.952  0.8483 -0.4338  0.3537
  585MOL0     C78849   6.536   6.400   0.900  0.3867  0.6066  0.0020
  585MOL0     C78850   6.553   6.387   0.754  0.1680 -0.6568  0.0663
  585MOL0     C78851   6.421   6.350   0.686  0.0207 -0.1255 -0.3081
  585MOL0     C78852   6.426   6.372   0.539 -0.9238  0.4678  0.9569
  585MOL0     C78853   6.480   6.250   0.467  0.3664 -0.6280 -0.8780
  585MOL0     C78854   6.483   6.262   0.321  0.1189  0.3348  0.3378
  585MOL0     C78855   6.557   6.141   0.249  0.1317  0.1450 -0.6630
  585MOL0     C78856   6.536   6.156   0.098  0.2289 -0.6925  0.0420
  585MOL0     N78857   6.537   6.020   0.049 -0.4997  0.1878  0.4228
  585MOL0     C78858   6.622   5.922   0.097  0.4412  0.0174 -0.3017
  585MOL0     C78859   6.570   5.807   0.048 -0.8301  0.0196 -0.1374
  585MOL0     C78860   6.624   5.674   0.084  0.4833 -0.5236 -0.3435
  585MOL0     C78861   6.540   5.613   0.199  0.0291 -0.5063  0.2451
  585MOL0     C78862   6.399   5.564   0.154  0.6812 -0.8289 -0.5932
  585MOL0     C78863   6.318   5.525   0.281 -0.1711 -0.0482  0.1708
  585MOL0     O78864   6.303   5.624   0.382 -0.2258  0.1277 -0.3990
  585MOL0     C78865   6.181   5.627   0.456 -1.0461 -0.7781  0.3608
  585MOL0     C78866   6.099   5.518   0.483 -0.4685  0.6966 -0.4590
  585MOL0     C78867   5.976   5.522   0.557  0.8805 -0.0306  0.7223
  585MOL0     C78868   5.925   5.647   0.592  0.0647 -0.0989  0.2801
  585MOL0     C78869   5.793   5.661   0.663  0.4122 -1.1559  0.4186
  585MOL0     O78870   5.689   5.582   0.633 -0.3476  0.7405 -0.1367
  585MOL0     C78871   5.560   5.619   0.641 -1.1032 -0.4861 -0.4133
  585MOL0     C78872   5.493   5.618   0.525  0.1026  0.5851  0.4047
  585MOL0     C78873   5.352   5.648   0.524 -0.1979 -0.2204 -0.0107
  585MOL0     C78874   5.283   5.675   0.648 -0.3318  0.3285  0.2843
  585MOL0     O78875   5.152   5.699   0.667  0.4430 -0.1247 -0.1292
  585MOL0     C78876   5.063   5.679   0.558  0.1740 -0.8793 -0.1186
  585MOL0     C78877   4.921   5.663   0.616  0.1891  0.2041 -0.4825
  585MOL0     C78878   4.805   5.689   0.522  0.1428  0.6781  0.5122
  585MOL0     C78879   4.677   5.728   0.603 -0.7657  0.1277 -0.7931
  585MOL0     C78880   4.544   5.689   0.528 -0.2386 -0.1674  0.4476
  585MOL0     C78881   4.530   5.775   0.400  0.2058 -0.7634 -0.1201
  585MOL0     C78882   4.387   5.780   0.337  0.0822  0.1663 -0.2079
  585MOL0     C78883   4.400   5.852   0.210 -0.2142 -0.1783 -0.2754
  585MOL0    Cl78884   4.456   5.742   0.081  0.2142 -0.2262 -0.1550
  585MOL0     C78885   5.367   5.681   0.759 -0.1845  0.8828  0.2752
  585MOL0     C78886   5.503   5.656   0.758  0.1551  0.7433  0.9176
  585MOL0     O78887   5.772   5.773   0.720  0.4572 -1.0644 -0.3719
  585MOL0     C78888   6.006   5.758   0.568  0.2052 -0.1728  0.0304
  585MOL0     C78889   6.132   5.751   0.500  0.0852  0.2960 -0.0621
  585MOL0     N78890   6.470   5.843  -0.042  0.0363  0.2571 -0.0912
  585MOL0     N78891   6.447   5.975  -0.038 -1.1200  0.1536  0.3339
  585MOL0     C78892   6.385   6.153   1.133  0.2994 -0.4943  0.1033
  585MOL0     C78893   6.344   6.156   1.265  0.1592 -0.0900 -0.4946
  585MOL0     C78894   6.157   6.241   1.660 -0.1410 -0.6468 -0.3723
  585MOL0     C78895   6.220   6.137   1.728 -0.0845  0.2526 -1.3247
  585MOL0     C78896   6.170   6.084   1.849 -0.3522  0.2119  0.7340
  585MOL0     C78897   6.051   6.131   1.902  0.3424  0.8558 -0.1803
  585MOL0     O78898   5.982   6.084   2.007 -0.0367  0.0850 -0.2554
  585MOL0     C78899   6.009   5.957   2.074  0.3152  0.2109 -0.5850
  585MOL0     C78900   5.893   5.935   2.171 -0.0052 -0.4257 -0.2834
  585MOL0     C78901   5.915   5.794   2.246  0.9676 -0.8709  0.0612
  585MOL0     C78902   5.849   5.668   2.185  0.1079 -0.4026 -0.7978
  585MOL0     C78903   5.888   5.557   2.265 -0.5083 -0.3586  0.2715
  585MOL0     C78904   5.924   5.453   2.316 -0.1055 -0.2459 -0.0352
  585MOL0     C78905   5.984   6.235   1.840  0.1688  0.4531 -0.4844
  585MOL0     C78906   6.035   6.297   1.721 -0.3701  0.4815  0.1456
  585MOL0     C78907   5.959   6.419   1.664 -0.6965 -0.4628 -0.0964
  585MOL0     H78908   6.463   6.448   1.375 -1.1778 -0.6066  0.4565
  585MOL0     H78909   6.557   6.432   1.137  0.9054  0.4593  0.9171
  585MOL0     H78910   6.449   6.461   0.925  0.7013  0.0507  2.8537
  585MOL0     H78911   6.629   6.437   0.943 -0.5028  2.9931  0.0379
  585MOL0     H78912   6.637   6.316   0.745 -0.4191 -1.4665  0.7675
  585MOL0     H78913   6.579   6.487   0.719  0.2521 -0.2530  1.2219
  585MOL0     H78914   6.343   6.408   0.736  0.7285  1.7997 -1.3417
  585MOL0     H78915   6.397   6.244   0.704  0.8666 -0.2045  0.4769
  585MOL0     H78916   6.332   6.402   0.492 -0.9124 -0.6722  0.1727
  585MOL0     H78917   6.499   6.446   0.506  0.9432 -1.3592  0.7563
  585MOL0     H78918   6.575   6.214   0.507 -1.0159 -2.4632  0.9935
  585MOL0     H78919   6.414   6.166   0.492  3.6258 -3.3741 -0.8568
  585MOL0     H78920   6.381   6.280   0.286  0.4808  0.0714 -0.9154
  585MOL0     H78921   6.539   6.355   0.307  1.9681 -0.6484  0.9850
  585MOL0     H78922   6.515   6.045   0.279  1.5232 -0.8266 -1.6612
  585MOL0     H78923   6.662   6.128   0.278 -0.0448 -1.7966 -0.7680
  585MOL0     H78924   6.449   6.219   0.073  1.9897  2.6680  1.7224
  585MOL0     H78925   6.618   6.214   0.055 -0.3203  0.9324  1.0981
  585MOL0     H78926   6.701   5.938   0.170 -0.2848 -1.4850  0.8748
  585MOL0     H78927   6.627   5.604   0.000 -0.2990 -1.3994  0.3383
  585MOL0     H78928   6.719   5.682   0.137  0.0532 -1.7552  0.6877
  585MOL0     H78929   6.594   5.525   0.235 -2.4370 -3.2004 -2.2167
  585MOL0     H78930   6.542   5.699   0.267  0.3133 -0.8298  0.6527
  585MOL0     H78931   6.404   5.486   0.078  0.0211  0.5755 -2.1429
  585MOL0     H78932   6.355   5.653   0.108  3.2623  0.6360 -0.4838
  585MOL0     H78933   6.377   5.445   0.327  0.6543  1.4062  1.8026
  585MOL0     H78934   6.219   5.493   0.250  0.2107 -0.3330 -0.7911
  585MOL0     H78935   6.132   5.422   0.444  4.1608  0.7292  2.6242
  585MOL0     H78936   5.923   5.431   0.581  0.9117  0.2010  1.7286
  585MOL0     H78937   5.535   5.591   0.429  1.0140 -3.1572  1.6802
  585MOL0     H78938   5.288   5.639   0.436  0.2755  2.8581 -0.8107
  585MOL0     H78939   5.067   5.762   0.486 -1.1912 -3.0154 -2.8885
  585MOL0     H78940   5.083   5.586   0.503 -0.1511 -2.1302  1.7660
  585MOL0     H78941   4.913   5.568   0.671 -0.7418  0.4840 -0.1221
  585MOL0     H78942   4.919   5.722   0.708  0.1931  0.5732 -0.7166
  585MOL0     H78943   4.837   5.760   0.445  2.2917 -0.5569  0.1690
  585MOL0     H78944   4.798   5.592   0.473 -0.3205 -0.9535  3.5564
  585MOL0     H78945   4.685   5.836   0.619  0.9463  0.1685 -1.6805
  585MOL0     H78946   4.674   5.670   0.696  0.1702  2.0420  0.5126
  585MOL0     H78947   4.458   5.698   0.595 -0.4860 -1.9468  0.4056
  585MOL0     H78948   4.546   5.582   0.509 -1.0659 -0.3415  1.2783
  585MOL0     H78949   4.579   5.872   0.418  1.5770 -1.2032 -1.3111
  585MOL0     H78950   4.591   5.726   0.324 -0.5531 -0.6075 -0.8457
  585MOL0     H78951   4.319   5.838   0.401  0.2921 -0.5693  0.7062
  585MOL0     H78952   4.345   5.680   0.319 -1.2738  0.9390 -1.6104
  585MOL0     H78953   4.309   5.896   0.169  0.4001 -0.6756 -2.2816
  585MOL0     H78954   4.463   5.940   0.227 -1.9594  0.6269  2.7230
  585MOL0     H78955   5.320   5.685   0.856 -0.4818 -1.2766  0.2722
  585MOL0     H78956   5.554   5.672   0.853  3.3610  0.6449 -0.6306
  585MOL0     H78957   5.955   5.851   0.594 -2.9897 -1.7984  0.0471
  585MOL0     H78958   6.187   5.844   0.492 -0.2819  0.7620  2.0881
  585MOL0     H78959   6.356   6.070   1.070 -1.8398 -1.0242  1.6797
  585MOL0     H78960   6.296   6.071   1.314 -1.7021  0.8681 -0.5574
  585MOL0     H78961   6.315   6.091   1.705 -0.0850  0.0374 -0.9062
  585MOL0     H78962   6.221   5.992   1.875  0.1531  0.6018  1.1459
  585MOL0     H78963   6.102   5.955   2.131 -0.9380  2.4526  1.7616
  585MOL0     H78964   6.009   5.881   1.996  3.6189 -1.0496  0.4796
  585MOL0     H78965   5.797   5.940   2.119 -0.1081  1.6236  0.0331
  585MOL0     H78966   5.899   6.019   2.240  3.7330 -0.0507 -0.8672
  585MOL0     H78967   5.870   5.808   2.345  2.8082  0.3041  0.7659
  585MOL0     H78968   6.021   5.780   2.264  0.8496 -2.4891 -0.3134
  585MOL0     H78969   5.743   5.691   2.182 -0.0079 -1.0119 -1.5817
  585MOL0     H78970   5.887   5.641   2.086  1.4482 -2.4167  0.1825
  585MOL0     H78971   5.947   5.361   2.366  0.3988 -0.1238 -0.0389
  585MOL0     H78972   5.898   6.276   1.893  0.4621 -1.7406  1.8690
  585MOL0     H78973   6.018   6.512   1.665 -1.7235  0.2035  1.1577
  585MOL0     H78974   5.924   6.399   1.563  1.7094  0.8343 -1.2804
  585MOL0     H78975   5.870   6.444   1.722  0.2380  0.8207  0.8539
  586MOL0     O78976   6.080   7.251   0.040  0.1228 -0.7016 -0.6876
  586MOL0     C78977   6.110   7.294   0.151  0.5742  0.5953  0.1262
  586MOL0     O78978   6.215   7.257   0.217 -0.0587  0.2082 -0.0932
  586MOL0     C78979   6.334   7.216   0.161 -0.7618 -0.2327  0.6681
  586MOL0     C78980   6.387   7.274   0.053 -0.4016  0.2398  0.3305
  586MOL0     C78981   6.508   7.226  -0.001  0.7189 -0.7126 -0.1826
  586MOL0     C78982   6.576   7.120   0.061  0.0013 -1.2662 -0.6609
  586MOL0     O78983   6.690   7.057   0.016  0.2867  0.4903  0.6353
  586MOL0     C78984   6.727   7.068  -0.118 -0.3929  0.6021  0.3993
  586MOL0     C78985   6.861   6.999  -0.140  0.4536  0.8820  0.3198
  586MOL0     C78986   6.979   7.086  -0.097  0.2073 -0.3193  0.6184
  586MOL0     C78987   7.108   7.027  -0.140 -0.5946 -0.9619  0.1000
  586MOL0     C78988   7.232   7.102  -0.093 -0.2162 -0.8418 -0.2187
  586MOL0     C78989   7.239   7.116   0.060 -0.4814  0.1898 -0.3822
  586MOL0     C78990   7.200   6.997   0.146 -0.4765  0.1087 -0.6094
  586MOL0     C78991   7.243   7.018   0.297  0.0135  0.9720 -0.7262
  586MOL0     N78992   7.247   6.897   0.382 -0.0543 -0.3124  0.0796
  586MOL0     C78993   7.140   6.831   0.439 -0.1373  0.5154  0.1584
  586MOL0     C78994   7.192   6.745   0.524 -1.3366 -0.7888 -0.0201
  586MOL0     C78995   7.121   6.634   0.602  0.3309  0.5792  0.0943
  586MOL0     C78996   7.014   6.558   0.514 -0.0361 -0.6166 -0.1219
  586MOL0     C78997   6.967   6.428   0.589 -0.8131 -1.1614  0.7224
  586MOL0     C78998   6.854   6.364   0.512  0.0877 -0.7924  0.4328
  586MOL0     O78999   6.912   6.278   0.404  1.1856 -0.4490 -0.1502
  586MOL0     C79000   6.890   6.311   0.265  0.4345 -0.8795 -0.8896
  586MOL0     C79001   6.923   6.218   0.164 -0.8578  0.1142 -0.2202
  586MOL0     C79002   6.929   6.261   0.031 -0.3235 -0.2411 -0.0011
  586MOL0     C79003   6.887   6.396  -0.008 -0.3126 -0.1626  0.5351
  586MOL0     C79004   6.885   6.437  -0.154  0.2653 -0.0909  0.3987
  586MOL0     O79005   6.917   6.346  -0.242 -0.7633  0.3060 -0.1302
  586MOL0     C79006   6.930   6.359  -0.382 -0.4040  0.5453 -0.8764
  586MOL0     C79007   6.842   6.430  -0.457 -0.1866 -0.3470 -0.3396
  586MOL0     C79008   6.863   6.449  -0.591  0.5858  0.4072  0.7058
  586MOL0     C79009   6.964   6.382  -0.661  0.5358  0.6731 -0.1450
  586MOL0     O79010   6.978   6.392  -0.801 -0.5831 -0.8026 -0.1636
  586MOL0     C79011   6.991   6.519  -0.862 -0.2279 -0.2876  0.0173
  586MOL0     C79012   7.040   6.505  -1.010  0.4665  0.1917  0.4988
  586MOL0     C79013   7.190   6.478  -1.022  0.1059 -0.2767  0.1807
  586MOL0     C79014   7.225   6.341  -0.959 -1.0878 -0.2307  0.3185
  586MOL0     C79015   7.372   6.309  -0.998 -0.1145  0.5469  0.6858
  586MOL0     C79016   7.395   6.275  -1.141  0.8255 -0.1643  0.2778
  586MOL0     C79017   7.541   6.262  -1.160 -0.9979 -0.8406  0.4840
  586MOL0     C79018   7.576   6.218  -1.298  0.1934  0.1094  0.0967
  586MOL0    Cl79019   7.744   6.191  -1.301 -0.2832  0.1021  0.4045
  586MOL0     C79020   7.053   6.289  -0.592 -0.1963  0.2013 -0.3984
  586MOL0     C79021   7.025   6.286  -0.454 -1.0710 -0.3019  0.3269
  586MOL0     O79022   6.880   6.560  -0.174  0.0078 -0.2383 -0.4767
  586MOL0     C79023   6.830   6.473   0.090 -0.0467 -0.1569 -0.2379
  586MOL0     C79024   6.839   6.433   0.217 -0.0640 -0.4520  0.3091
  586MOL0     N79025   7.330   6.755   0.522  0.4591 -0.0906  0.3599
  586MOL0     N79026   7.361   6.845   0.429 -1.1534 -0.1082  0.1185
  586MOL0     C79027   6.522   7.066   0.176  0.4502 -0.5250  0.0753
  586MOL0     C79028   6.407   7.109   0.228  0.4143  0.1874  0.6526
  586MOL0     C79029   6.000   7.381   0.201  0.0617 -1.1513 -0.3708
  586MOL0     C79030   5.909   7.311   0.283  0.4725 -0.7004  1.0080
  586MOL0     C79031   5.794   7.376   0.329  0.4643  0.1745  0.2030
  586MOL0     C79032   5.779   7.509   0.311  0.1390 -0.0848  0.2439
  586MOL0     O79033   5.661   7.558   0.363 -0.3693  0.1683 -0.6130
  586MOL0     C79034   5.629   7.691   0.350 -0.0935 -0.7607  0.4367
  586MOL0     C79035   5.558   7.712   0.221  0.5806 -0.1295 -0.5044
  586MOL0     C79036   5.504   7.859   0.208 -0.4910  0.7769  1.2217
  586MOL0     C79037   5.412   7.880   0.083 -0.3948 -0.2285 -0.4179
  586MOL0     C79038   5.408   8.025   0.061 -0.8584  0.2318  0.9036
  586MOL0     C79039   5.391   8.145   0.045  0.0789 -0.2004 -0.4574
  586MOL0     C79040   5.879   7.581   0.237  0.2952 -1.0660 -0.3611
  586MOL0     C79041   5.987   7.520   0.178  0.9596  0.1025  1.3957
  586MOL0     C79042   6.099   7.603   0.102 -0.5691  1.1424 -0.5861
  586MOL0     H79043   6.344   7.357  -0.002 -2.2036 -1.5425 -1.1270
  586MOL0     H79044   6.534   7.255  -0.102  0.0649 -1.4278 -0.5598
  586MOL0     H79045   6.655   7.019  -0.185 -1.2098  2.7721 -0.4118
  586MOL0     H79046   6.750   7.172  -0.141  2.9856 -0.5642 -2.2550
  586MOL0     H79047   6.866   6.983  -0.248 -0.2155 -1.4600  0.5684
  586MOL0     H79048   6.849   6.905  -0.085  0.0101  1.0286  0.4808
  586MOL0     H79049   6.978   7.108   0.010 -1.4538  1.0678  0.3730
  586MOL0     H79050   6.959   7.180  -0.150 -2.0719 -0.1310  1.6567
  586MOL0     H79051   7.122   6.926  -0.102  2.3389  0.2771  2.7980
  586MOL0     H79052   7.107   7.022  -0.249 -1.0563  0.5247  0.0012
  586MOL0     H79053   7.318   7.040  -0.119 -0.3045 -0.7230 -0.8218
  586MOL0     H79054   7.237   7.200  -0.140 -3.1180  0.1570  1.3062
  586MOL0     H79055   7.339   7.152   0.087 -0.7111 -2.2665  4.9736
  586MOL0     H79056   7.176   7.199   0.092  4.3381  3.5203  1.7480
  586MOL0     H79057   7.245   6.911   0.095  0.0410  1.2122 -2.0917
  586MOL0     H79058   7.092   6.979   0.146 -0.0975 -2.7828  0.6548
  586MOL0     H79059   7.345   7.058   0.302  0.2934  0.7366 -3.2210
  586MOL0     H79060   7.183   7.088   0.355  0.3204 -0.3787  1.3366
  586MOL0     H79061   7.036   6.859   0.425  0.0814  2.1150  1.4001
  586MOL0     H79062   7.198   6.557   0.615  1.3594  1.8915  2.2225
  586MOL0     H79063   7.083   6.661   0.701  2.0126  1.9869  0.4005
  586MOL0     H79064   6.939   6.638   0.506  3.2318  2.5622 -1.8459
  586MOL0     H79065   7.050   6.522   0.417  0.7917 -1.9936  0.6614
  586MOL0     H79066   6.921   6.452   0.685  0.0289 -0.4028  0.9450
  586MOL0     H79067   7.047   6.354   0.586  1.3827  1.1022  0.4818
  586MOL0     H79068   6.772   6.432   0.485  0.1012  0.4642  3.1604
  586MOL0     H79069   6.796   6.304   0.583 -1.5534  0.6623  0.4002
  586MOL0     H79070   6.953   6.119   0.197 -1.2262  0.5652  1.5821
  586MOL0     H79071   6.976   6.197  -0.043 -2.0769  0.5246 -1.8726
  586MOL0     H79072   6.779   6.501  -0.404 -1.4874 -1.1923 -0.6948
  586MOL0     H79073   6.792   6.510  -0.647 -1.2287 -1.1597  1.1902
  586MOL0     H79074   6.895   6.571  -0.864  0.4892  1.2550  2.5465
  586MOL0     H79075   7.055   6.588  -0.807 -3.8078  1.4568  2.4188
  586MOL0     H79076   6.981   6.425  -1.055 -0.0692  0.1275  1.2991
  586MOL0     H79077   7.022   6.598  -1.064  1.4067 -0.2713 -0.6498
  586MOL0     H79078   7.199   6.484  -1.131 -0.4624 -1.5338  0.0463
  586MOL0     H79079   7.239   6.562  -0.971 -1.2352  0.7124 -0.0875
  586MOL0     H79080   7.151   6.264  -0.983  1.2024 -2.2139 -0.8038
  586MOL0     H79081   7.225   6.346  -0.850  1.8227 -2.4899  0.5706
  586MOL0     H79082   7.404   6.217  -0.947 -3.3767 -1.5172 -0.6525
  586MOL0     H79083   7.431   6.398  -0.976  0.5349  0.3115 -0.0709
  586MOL0     H79084   7.345   6.180  -1.162  0.6994  0.0156 -0.2467
  586MOL0     H79085   7.361   6.354  -1.209  1.1830 -0.2527 -0.0077
  586MOL0     H79086   7.585   6.187  -1.094 -1.1263 -1.4342 -0.0968
  586MOL0     H79087   7.598   6.356  -1.158 -0.3988 -0.9767 -2.8801
  586MOL0     H79088   7.522   6.124  -1.316 -1.2909  0.9225  0.1269
  586MOL0     H79089   7.561   6.289  -1.380  1.5790  1.1182  0.6896
  586MOL0     H79090   7.139   6.242  -0.638  0.5299 -4.1781  4.6221
  586MOL0     H79091   7.101   6.223  -0.408 -1.5980 -2.2351 -1.3008
  586MOL0     H79092   6.799   6.575   0.069 -0.6900 -0.5120 -1.1400
  586MOL0     H79093   6.800   6.505   0.288  1.6439 -0.4826  1.3168
  586MOL0     H79094   6.587   6.988   0.216 -1.9536 -2.1451  1.0232
  586MOL0     H79095   6.358   7.058   0.310 -0.8484 -0.0063 -0.1969
  586MOL0     H79096   5.930   7.207   0.302 -0.4172 -0.9945  0.4615
  586MOL0     H79097   5.734   7.319   0.400 -0.0002  0.9704  0.4613
  586MOL0     H79098   5.710   7.763   0.366 -0.9198  0.1506  0.5492
  586MOL0     H79099   5.560   7.709   0.432  0.4798 -1.1947  1.0286
  586MOL0     H79100   5.477   7.639   0.227  1.7284 -1.7329 -3.0414
  586MOL0     H79101   5.615   7.693   0.130  0.8029 -2.5038  0.0493
  586MOL0     H79102   5.595   7.916   0.188  0.3628 -1.0851 -0.5782
  586MOL0     H79103   5.453   7.905   0.294 -1.4381  0.1740  1.0074
  586MOL0     H79104   5.457   7.834  -0.005 -0.4364 -0.6532 -0.2197
  586MOL0     H79105   5.311   7.840   0.090 -0.9035  1.1805  1.2503
  586MOL0     H79106   5.352   8.244   0.040  1.6237  0.8790  4.0433
  586MOL0     H79107   5.869   7.688   0.224  3.0800 -0.5869  0.6907
  586MOL0     H79108   6.133   7.549   0.013  3.4647  1.6391  0.4636
  586MOL0     H79109   6.061   7.700   0.069 -2.0987  1.6120  2.2491
  586MOL0     H79110   6.182   7.627   0.170  2.1592 -0.6503 -3.0412
  587MOL0     O79111   9.354   2.838   2.829 -0.6466  0.7445 -0.0373
  587MOL0     C79112   9.305   2.948   2.830 -0.3676 -0.4152 -0.1321
  587MOL0     O79113   9.360   3.062   2.771 -0.6437 -0.1413  0.6681
  587MOL0     C79114   9.472   3.030   2.693 -0.6209  0.1350  0.3081
  587MOL0     C79115   9.472   2.990   2.561 -0.4099 -0.8981  0.5498
  587MOL0     C79116   9.595   2.977   2.483  0.8288  0.4944 -0.7812
  587MOL0     C79117   9.716   2.978   2.538 -0.1767 -0.5468 -0.1213
  587MOL0     O79118   9.823   2.950   2.454 -0.6212 -0.7325 -0.5815
  587MOL0     C79119   9.951   2.946   2.519 -0.5230  0.2029  0.5702
  587MOL0     C79120  10.064   2.927   2.418 -1.0031  0.3946  0.7333
  587MOL0     C79121  10.037   2.815   2.331 -0.7991  1.1166  0.4630
  587MOL0     C79122  10.062   2.684   2.399  0.0410  1.3496 -0.0332
  587MOL0     C79123  10.031   2.562   2.317 -0.4172  0.8432 -0.2632
  587MOL0     C79124  10.131   2.557   2.190  0.3731 -0.4406 -0.9874
  587MOL0     C79125  10.135   2.425   2.115  0.8008  0.2749  0.2428
  587MOL0     C79126  10.192   2.440   1.972  0.2045 -0.3141  0.1075
  587MOL0     N79127  10.338   2.469   1.963 -0.0312  0.0321  0.1451
  587MOL0     C79128  10.434   2.427   2.054  0.4714 -1.0796  0.5512
  587MOL0     C79129  10.548   2.479   2.016  0.2019 -0.0727 -0.5222
  587MOL0     C79130  10.684   2.470   2.087 -0.0567 -0.4751  0.2350
  587MOL0     C79131  10.686   2.550   2.225 -0.3050  0.3058  0.4484
  587MOL0     C79132  10.717   2.698   2.202 -0.5997  0.1865 -0.1550
  587MOL0     C79133  10.669   2.768   2.326  0.8051 -0.4388 -0.3049
  587MOL0     O79134  10.731   2.706   2.444  0.5301  0.3866  0.7518
  587MOL0     C79135  10.752   2.764   2.567  0.3419 -0.7404  0.4952
  587MOL0     C79136  10.667   2.864   2.616  0.3253 -1.2212 -0.6274
  587MOL0     C79137  10.695   2.935   2.742  0.6935  0.1923  1.4709
  587MOL0     C79138  10.804   2.890   2.820 -0.1485  0.7973 -0.7690
  587MOL0     C79139  10.838   2.961   2.948  0.3059 -0.9894 -0.8928
  587MOL0     O79140  10.960   2.934   3.008 -0.9780 -0.6576 -0.5895
  587MOL0     C79141  10.995   3.002   3.115 -0.1282 -1.1495  0.0189
  587MOL0     C79142  11.040   2.941   3.228  0.2369 -0.4093  0.1742
  587MOL0     C79143  11.078   3.014   3.344  0.7262 -0.0145 -0.4714
  587MOL0     C79144  11.095   3.157   3.344  0.2493 -0.7079 -0.7569
  587MOL0     O79145  11.127   3.242   3.446  0.4624 -0.5002  0.4626
  587MOL0     C79146  11.168   3.179   3.570 -0.0857 -0.1191 -0.1992
  587MOL0     C79147  11.199   3.301   3.665  0.1740 -0.3761  0.1022
  587MOL0     C79148  11.242   3.249   3.809  0.3728  0.2927  0.5380
  587MOL0     C79149  11.134   3.204   3.899  0.5027 -0.5278 -0.4069
  587MOL0     C79150  11.070   3.300   3.989  0.4084 -0.1334 -0.1032
  587MOL0     C79151  11.026   3.447   3.944 -0.0896 -0.0099 -0.1685
  587MOL0     C79152  10.964   3.529   4.062  0.4771  0.2690  0.2064
  587MOL0     C79153  10.840   3.469   4.106  0.5833 -0.2536  0.1322
  587MOL0    Cl79154  10.733   3.476   3.967  0.5194 -0.1696  0.1038
  587MOL0     C79155  11.057   3.214   3.225 -0.0032 -0.0963  0.5462
  587MOL0     C79156  10.994   3.146   3.111  0.0355  0.1178 -0.0688
  587MOL0     O79157  10.757   3.044   2.987  0.7193 -0.2609 -0.2269
  587MOL0     C79158  10.889   2.789   2.771  0.2738 -0.4311  1.2278
  587MOL0     C79159  10.860   2.719   2.649  0.3632 -0.3315  0.0847
  587MOL0     N79160  10.523   2.561   1.911 -0.7002 -0.4415  0.7168
  587MOL0     N79161  10.404   2.543   1.871  0.0416 -0.1557 -0.3699
  587MOL0     C79162   9.723   3.005   2.675 -1.0495 -0.1564  0.3453
  587MOL0     C79163   9.602   3.029   2.750 -0.6553  0.6765 -0.3752
  587MOL0     C79164   9.188   2.971   2.916 -0.1050 -0.2697 -0.2445
  587MOL0     C79165   9.191   3.090   2.999  0.1986 -0.8141  0.3927
  587MOL0     C79166   9.084   3.114   3.088  0.3346 -0.3065  1.2715
  587MOL0     C79167   8.978   3.017   3.087 -0.3967  0.2273 -0.0227
  587MOL0     O79168   8.860   3.025   3.164 -0.1291  0.1036 -0.0125
  587MOL0     C79169   8.832   3.152   3.222 -0.0339  0.7581 -0.4819
  587MOL0     C79170   8.676   3.146   3.250  0.2012  0.1916  0.2114
  587MOL0     C79171   8.585   3.109   3.127 -0.0643  0.2486 -0.1898
  587MOL0     C79172   8.576   3.212   3.011  0.6658  0.4508 -0.4364
  587MOL0     C79173   8.507   3.333   3.060 -0.4125  0.8310  0.2423
  587MOL0     C79174   8.440   3.427   3.101 -0.5724 -0.5863 -0.3644
  587MOL0     C79175   8.991   2.894   3.032 -0.2012 -0.0163  0.6528
  587MOL0     C79176   9.097   2.866   2.947  0.1514  0.3104  0.1511
  587MOL0     C79177   9.086   2.723   2.886 -0.2311  0.1385  0.3558
  587MOL0     H79178   9.382   2.988   2.501  1.0341  2.0161 -2.0226
  587MOL0     H79179   9.585   2.969   2.375 -3.7463  4.6303 -1.0356
  587MOL0     H79180   9.970   3.047   2.558 -3.6559  1.9055 -1.8307
  587MOL0     H79181   9.957   2.859   2.586  0.2222 -0.9379 -0.9273
  587MOL0     H79182  10.158   2.920   2.474  0.3989  0.9844 -1.3776
  587MOL0     H79183  10.081   3.021   2.363 -2.0065 -1.6355 -3.5143
  587MOL0     H79184  10.095   2.822   2.238 -0.6759 -0.5026  0.3975
  587MOL0     H79185   9.933   2.816   2.299 -0.8811  0.1328  0.6833
  587MOL0     H79186  10.167   2.676   2.429 -0.3194  2.2178  1.5376
  587MOL0     H79187  10.009   2.685   2.494  0.5612  1.8204  0.2540
  587MOL0     H79188  10.045   2.470   2.374 -0.0803  0.3388 -1.1391
  587MOL0     H79189   9.925   2.569   2.292 -0.1171 -1.7167 -2.8787
  587MOL0     H79190  10.110   2.640   2.121 -1.1334 -0.3458 -0.4533
  587MOL0     H79191  10.229   2.583   2.230 -0.5609  2.8537 -0.5035
  587MOL0     H79192  10.032   2.395   2.090  1.7079 -2.4639 -0.5375
  587MOL0     H79193  10.196   2.347   2.161  0.3656 -0.2084  0.0077
  587MOL0     H79194  10.178   2.344   1.921  1.4361  0.8503 -2.6473
  587MOL0     H79195  10.141   2.514   1.910 -0.2664 -1.9964 -1.6216
  587MOL0     H79196  10.425   2.362   2.140 -0.2711 -0.4367  0.9806
  587MOL0     H79197  10.711   2.366   2.105 -2.8479 -1.1371  0.9481
  587MOL0     H79198  10.754   2.518   2.017  0.0259 -2.5631 -1.1871
  587MOL0     H79199  10.594   2.531   2.280 -0.2909 -2.4137 -0.3634
  587MOL0     H79200  10.772   2.507   2.277 -1.1205 -1.3633  0.4487
  587MOL0     H79201  10.658   2.744   2.122 -0.8596  0.8708  0.4076
  587MOL0     H79202  10.823   2.723   2.193 -0.2975  0.7386  3.3289
  587MOL0     H79203  10.561   2.772   2.344  1.4001  1.3462  4.3276
  587MOL0     H79204  10.705   2.871   2.315  1.7635 -0.7335  0.0298
  587MOL0     H79205  10.582   2.901   2.560  1.5620  1.2943 -0.9960
  587MOL0     H79206  10.636   3.020   2.776 -1.3291 -0.9491  1.0224
  587MOL0     H79207  11.028   2.834   3.216  1.4586 -0.5245 -0.1252
  587MOL0     H79208  11.104   2.962   3.435 -1.4985  0.3500  0.4637
  587MOL0     H79209  11.087   3.113   3.603  0.7371 -0.5150  1.1239
  587MOL0     H79210  11.262   3.125   3.556  0.9276  1.4191  0.4039
  587MOL0     H79211  11.272   3.367   3.616 -2.2249  1.1845 -1.6180
  587MOL0     H79212  11.105   3.354   3.681 -0.5550 -1.2406 -1.1525
  587MOL0     H79213  11.311   3.164   3.802 -0.2406 -0.3103  1.5881
  587MOL0     H79214  11.306   3.332   3.842  0.7380  1.9940 -3.7836
  587MOL0     H79215  11.173   3.128   3.968  1.1792  0.6616  0.5585
  587MOL0     H79216  11.053   3.164   3.839 -1.5313  3.0075 -0.2805
  587MOL0     H79217  11.148   3.314   4.064 -0.3108  0.5743  0.5203
  587MOL0     H79218  10.992   3.246   4.043  0.1136  1.2166  0.8608
  587MOL0     H79219  11.104   3.511   3.903 -2.5439  3.5244  0.2728
  587MOL0     H79220  10.950   3.441   3.864 -1.3982 -1.2300  1.0984
  587MOL0     H79221  10.936   3.631   4.032  0.5817  0.3887  0.5136
  587MOL0     H79222  11.036   3.539   4.143 -0.3563  1.6494  0.8207
  587MOL0     H79223  10.847   3.361   4.123  1.9118 -0.1286  0.5404
  587MOL0     H79224  10.800   3.519   4.195 -2.5663 -2.0051 -0.1719
  587MOL0     H79225  11.083   3.316   3.198  1.9224 -1.0598 -1.5770
  587MOL0     H79226  10.965   3.210   3.028  4.0900  0.8296 -1.1742
  587MOL0     H79227  10.985   2.760   2.814  0.5585 -2.0008 -0.3472
  587MOL0     H79228  10.915   2.633   2.610 -2.0259 -0.7429 -2.7097
  587MOL0     H79229   9.812   3.020   2.736 -1.7690  0.8564  1.1945
  587MOL0     H79230   9.618   3.044   2.856 -1.4099 -0.1232 -0.1371
  587MOL0     H79231   9.275   3.154   2.975 -0.5992 -0.9675 -3.4605
  587MOL0     H79232   9.086   3.200   3.154 -2.1145  0.3838  0.5622
  587MOL0     H79233   8.856   3.245   3.170 -2.5153  2.8100  1.7581
  587MOL0     H79234   8.893   3.159   3.312  1.4588 -2.2630 -1.1379
  587MOL0     H79235   8.652   3.239   3.302  0.5088 -0.1742  1.0312
  587MOL0     H79236   8.651   3.072   3.327  1.1369 -1.1142 -0.6783
  587MOL0     H79237   8.481   3.095   3.157  0.9652 -1.4084  3.0992
  587MOL0     H79238   8.615   3.014   3.082 -0.4812  1.4513 -3.2749
  587MOL0     H79239   8.667   3.233   2.954  0.9796  0.9814  0.2405
  587MOL0     H79240   8.512   3.157   2.940 -0.7595  0.3582  0.8645
  587MOL0     H79241   8.372   3.501   3.138  0.1695 -0.5376  0.9434
  587MOL0     H79242   8.909   2.824   3.040 -0.9848  0.7677 -0.3033
  587MOL0     H79243   9.073   2.730   2.778 -0.7725  1.4345  0.4931
  587MOL0     H79244   9.174   2.663   2.912 -1.3556 -1.7220  0.0867
  587MOL0     H79245   9.003   2.668   2.930 -1.9100  1.6405 -0.8042
  588MOL0     O79246   7.450   6.103   1.713 -0.4138 -0.0854  0.8452
  588MOL0     C79247   7.334   6.126   1.666 -0.4779 -0.3844  0.9045
  588MOL0     O79248   7.307   6.122   1.529  0.0368  0.0539 -0.1283
  588MOL0     C79249   7.416   6.126   1.446  0.3639  1.1093  0.4911
  588MOL0     C79250   7.432   6.227   1.357 -0.6212 -0.4021  0.3574
  588MOL0     C79251   7.557   6.242   1.282 -1.2354 -0.1879 -0.0323
  588MOL0     C79252   7.650   6.135   1.292  0.4596  0.3007  0.3656
  588MOL0     O79253   7.766   6.139   1.220  0.2417 -0.5228 -0.0107
  588MOL0     C79254   7.884   6.091   1.286  1.0407  0.2628  0.8234
  588MOL0     C79255   8.003   6.144   1.216  0.4831  0.1065 -0.0280
  588MOL0     C79256   8.128   6.139   1.299 -0.4713 -0.1765  0.3405
  588MOL0     C79257   8.252   6.134   1.216 -0.0591 -0.4764 -0.1339
  588MOL0     C79258   8.300   6.275   1.201 -0.2208 -0.0541 -0.2773
  588MOL0     C79259   8.432   6.291   1.124  0.2746 -0.2322  1.4327
  588MOL0     C79260   8.488   6.434   1.127 -0.4450 -0.2808 -0.2820
  588MOL0     C79261   8.417   6.541   1.036 -0.3963  0.7409 -0.5699
  588MOL0     N79262   8.514   6.654   1.019 -0.0088 -0.0989 -0.1462
  588MOL0     C79263   8.581   6.727   1.114  0.2193  0.0068 -0.9371
  588MOL0     C79264   8.662   6.808   1.041 -0.3598  0.3183  0.2066
  588MOL0     C79265   8.770   6.905   1.082  0.2964  0.3985 -0.1353
  588MOL0     C79266   8.907   6.852   1.027 -0.0402 -0.8869  0.3533
  588MOL0     C79267   9.016   6.916   1.106 -0.7049  0.2234 -0.9007
  588MOL0     C79268   9.025   7.066   1.067  0.1683  0.6958 -0.5548
  588MOL0     O79269   9.150   7.115   1.107  0.5217  0.5067 -0.4322
  588MOL0     C79270   9.244   7.112   1.015 -0.0802 -0.1157 -0.1508
  588MOL0     C79271   9.351   7.198   1.039 -0.3499 -0.2027 -0.7744
  588MOL0     C79272   9.462   7.222   0.954  0.1608  0.1812  0.2711
  588MOL0     C79273   9.465   7.142   0.837  0.9018  0.0966  0.2293
  588MOL0     C79274   9.577   7.152   0.743 -0.1930 -0.3958 -0.0534
  588MOL0     O79275   9.672   7.245   0.766  0.1794 -0.1948 -0.3872
  588MOL0     C79276   9.764   7.286   0.673  1.2819 -0.1418 -0.5640
  588MOL0     C79277   9.840   7.191   0.607 -0.8131  0.3530 -0.1640
  588MOL0     C79278   9.942   7.239   0.532  0.2773  0.0844  0.1830
  588MOL0     C79279   9.941   7.377   0.489 -1.0050 -0.2693 -0.6841
  588MOL0     O79280  10.034   7.429   0.396 -0.5734  0.2419  0.4289
  588MOL0     C79281  10.118   7.335   0.321  0.4592  0.1497  0.9334
  588MOL0     C79282  10.184   7.395   0.201  0.3522 -0.0931 -0.1290
  588MOL0     C79283  10.295   7.304   0.161  0.1584  0.3535 -0.4143
  588MOL0     C79284  10.251   7.233   0.036  0.2888  0.0006  0.4910
  588MOL0     C79285  10.347   7.121  -0.008  0.6846  0.8077  0.3715
  588MOL0     C79286  10.480   7.179  -0.066 -1.3427 -0.9191  0.3493
  588MOL0     C79287  10.566   7.074  -0.135 -0.1981  0.1119 -0.2631
  588MOL0     C79288  10.714   7.123  -0.131  0.6270 -0.1720  0.1227
  588MOL0    Cl79289  10.820   7.021  -0.236  0.0638 -0.0114 -0.3347
  588MOL0     C79290   9.841   7.460   0.540  0.7331 -1.0456 -0.6383
  588MOL0     C79291   9.760   7.416   0.638  0.8558  0.0082 -0.2091
  588MOL0     O79292   9.575   7.076   0.645 -0.3796 -0.0568  0.0798
  588MOL0     C79293   9.354   7.056   0.807 -0.2671  0.8660 -0.7184
  588MOL0     C79294   9.247   7.038   0.895  0.1953 -0.0160  0.1535
  588MOL0     N79295   8.628   6.797   0.905 -0.0661 -0.4693 -0.6428
  588MOL0     N79296   8.542   6.707   0.898  0.8440 -0.0945 -0.4116
  588MOL0     C79297   7.617   6.025   1.378  0.3359 -0.8507 -0.1153
  588MOL0     C79298   7.503   6.020   1.453 -0.3150  0.2524 -0.4364
  588MOL0     C79299   7.214   6.114   1.753  0.8662 -0.6374 -0.9076
  588MOL0     C79300   7.093   6.057   1.703  0.0334 -0.3270  0.5056
  588MOL0     C79301   6.980   6.043   1.789  0.7292 -0.2916 -0.4935
  588MOL0     C79302   6.973   6.077   1.919 -0.4267 -0.1871  1.1296
  588MOL0     O79303   6.857   6.067   1.994 -0.7563 -0.2847 -0.5393
  588MOL0     C79304   6.860   6.090   2.142 -0.2346 -0.7929 -0.3268
  588MOL0     C79305   6.752   6.014   2.206  0.4312 -0.8751  0.3772
  588MOL0     C79306   6.602   6.044   2.159  0.2028 -0.7422 -0.5510
  588MOL0     C79307   6.553   6.191   2.193  0.0902 -0.0993  0.5313
  588MOL0     C79308   6.407   6.191   2.201  0.3690  0.0657  0.6698
  588MOL0     C79309   6.292   6.189   2.211 -0.2668 -0.6635 -1.7784
  588MOL0     C79310   7.093   6.125   1.969  0.2193  0.1953  0.3782
  588MOL0     C79311   7.208   6.157   1.891  0.6550  0.9715  0.0496
  588MOL0     C79312   7.322   6.207   1.965 -0.3395  0.2794 -0.3057
  588MOL0     H79313   7.353   6.302   1.359  2.0747  2.5933  1.1184
  588MOL0     H79314   7.573   6.328   1.218 -0.3645  0.6068  1.2055
  588MOL0     H79315   7.884   6.125   1.390  0.3828 -1.7042  1.5172
  588MOL0     H79316   7.881   5.982   1.289 -1.2436  0.2967  2.9894
  588MOL0     H79317   7.994   6.248   1.183  1.6254  0.1637 -0.1926
  588MOL0     H79318   8.016   6.076   1.131  2.2683 -2.4242  2.0919
  588MOL0     H79319   8.135   6.060   1.374 -2.1363  1.3654  2.2336
  588MOL0     H79320   8.129   6.235   1.352 -1.8511  1.1660 -1.8695
  588MOL0     H79321   8.329   6.073   1.263 -0.0180  0.0320  0.4706
  588MOL0     H79322   8.225   6.093   1.118 -1.3173 -0.5296  0.2061
  588MOL0     H79323   8.231   6.346   1.154 -0.0813 -0.2844 -0.8456
  588MOL0     H79324   8.322   6.324   1.296  3.9866  0.2533 -1.1874
  588MOL0     H79325   8.503   6.228   1.177 -1.1019 -3.3127 -0.1528
  588MOL0     H79326   8.422   6.243   1.026  3.1376 -2.4304  2.1025
  588MOL0     H79327   8.598   6.437   1.130 -0.4298 -1.3053  1.3044
  588MOL0     H79328   8.474   6.470   1.229  1.6156 -0.2505  0.0414
  588MOL0     H79329   8.395   6.491   0.942  2.8298 -1.3866 -0.3524
  588MOL0     H79330   8.323   6.574   1.082 -0.1080 -0.4190  0.9232
  588MOL0     H79331   8.583   6.716   1.222 -1.4060  0.5811 -0.8266
  588MOL0     H79332   8.748   7.005   1.044  0.2994  1.1296  1.6504
  588MOL0     H79333   8.775   6.913   1.191  1.2045 -4.8820  0.4344
  588MOL0     H79334   8.917   6.745   1.049 -0.8037 -1.0734 -0.1773
  588MOL0     H79335   8.909   6.871   0.919 -0.9458 -1.5179  0.2142
  588MOL0     H79336   9.111   6.870   1.078 -0.7788  0.2775 -1.2455
  588MOL0     H79337   9.001   6.914   1.215  0.4382 -0.5551 -0.7479
  588MOL0     H79338   8.940   7.116   1.113  0.4437 -0.3757  1.2118
  588MOL0     H79339   9.005   7.074   0.959 -0.0825  2.9860 -0.3955
  588MOL0     H79340   9.334   7.267   1.120 -2.6584 -0.8689 -0.6184
  588MOL0     H79341   9.532   7.298   0.988  0.4052 -0.1841  0.5936
  588MOL0     H79342   9.842   7.087   0.636  0.7379  0.1828 -0.8074
  588MOL0     H79343  10.006   7.158   0.496 -0.4323  1.0250 -3.6035
  588MOL0     H79344  10.194   7.307   0.394 -1.5367 -0.5063  2.8668
  588MOL0     H79345  10.056   7.253   0.285  1.1271  0.3284 -0.6835
  588MOL0     H79346  10.103   7.419   0.132  0.2866  2.1187  0.6222
  588MOL0     H79347  10.234   7.482   0.245  5.1993 -2.4876 -0.2547
  588MOL0     H79348  10.383   7.367   0.144 -0.1965  0.4448 -2.1156
  588MOL0     H79349  10.323   7.223   0.229 -1.0292 -0.8489 -1.3027
  588MOL0     H79350  10.226   7.297  -0.049 -0.4986  1.5033  1.7803
  588MOL0     H79351  10.161   7.180   0.069 -1.2115  1.9915 -0.2383
  588MOL0     H79352  10.290   7.053  -0.072 -0.0684 -1.5619  3.2894
  588MOL0     H79353  10.374   7.062   0.081 -0.1751  0.9180  0.7136
  588MOL0     H79354  10.450   7.251  -0.143  0.4660  0.1342  0.5636
  588MOL0     H79355  10.538   7.230   0.012  0.9857  0.9226 -2.3573
  588MOL0     H79356  10.535   7.061  -0.239  0.6368 -0.6618 -0.4249
  588MOL0     H79357  10.557   6.977  -0.086  0.9645  0.6607  1.0919
  588MOL0     H79358  10.722   7.226  -0.168 -1.2086  0.4296  1.2375
  588MOL0     H79359  10.746   7.117  -0.027 -2.1466 -1.1048  1.0101
  588MOL0     H79360   9.829   7.560   0.501  4.3311 -0.1290  0.1466
  588MOL0     H79361   9.683   7.479   0.681  2.0585  1.3903  0.0092
  588MOL0     H79362   9.347   6.999   0.715 -1.1933 -1.6612  0.7962
  588MOL0     H79363   9.162   6.973   0.875  2.2891 -2.1437 -2.4305
  588MOL0     H79364   7.691   5.947   1.391 -0.1555 -1.1700  0.8967
  588MOL0     H79365   7.488   5.931   1.515 -1.0770  0.4256 -0.3564
  588MOL0     H79366   7.089   6.054   1.594  0.7053  1.3133  0.3960
  588MOL0     H79367   6.880   6.016   1.757  0.1443  1.9895 -0.7675
  588MOL0     H79368   6.860   6.196   2.169  2.1274  0.2106 -3.6441
  588MOL0     H79369   6.955   6.058   2.185 -0.1128  0.6854  0.5938
  588MOL0     H79370   6.765   6.049   2.308  1.7388 -1.5289  0.4431
  588MOL0     H79371   6.775   5.907   2.204 -0.5923 -1.1670 -3.0969
  588MOL0     H79372   6.528   5.976   2.200 -0.9523  1.2196  0.7987
  588MOL0     H79373   6.596   6.020   2.052 -0.9076  1.1456 -0.9576
  588MOL0     H79374   6.595   6.216   2.291  1.3875  1.4752 -0.3867
  588MOL0     H79375   6.573   6.268   2.118 -3.3363  0.8247  0.4070
  588MOL0     H79376   6.191   6.176   2.242 -0.6191  1.0636 -2.0695
  588MOL0     H79377   7.090   6.168   2.069 -0.6619  1.4363 -0.1622
  588MOL0     H79378   7.388   6.130   2.005 -2.0634 -0.9014  0.4013
  588MOL0     H79379   7.379   6.270   1.896 -1.4240  0.8104 -0.7457
  588MOL0     H79380   7.291   6.280   2.040  2.6455  1.6678 -0.3060
  589MOL0     O79381   3.806   4.093   2.317 -0.4765 -0.2544 -0.6570
  589MOL0     C79382   3.720   4.147   2.255  0.2522  0.7723 -0.1640
  589MOL0     O79383   3.733   4.202   2.130  0.0249 -0.5510 -0.0266
  589MOL0     C79384   3.851   4.184   2.051 -0.5700  0.0624 -0.2443
  589MOL0     C79385   3.965   4.112   2.092 -0.0833 -0.7686 -0.4518
  589MOL0     C79386   4.077   4.120   2.004  0.3034  0.2605  0.3852
  589MOL0     C79387   4.080   4.187   1.880 -0.4084  0.3331 -0.0059
  589MOL0     O79388   4.190   4.202   1.800  0.5063  0.2841 -0.0705
  589MOL0     C79389   4.197   4.313   1.705 -0.5507  0.2498  0.1031
  589MOL0     C79390   4.341   4.330   1.651  0.3151  0.4782 -0.7010
  589MOL0     C79391   4.456   4.360   1.760 -0.5786  0.7059 -0.1715
  589MOL0     C79392   4.405   4.428   1.893 -0.3193  0.2605 -0.1254
  589MOL0     C79393   4.527   4.472   1.981  1.3304  0.1964  0.7865
  589MOL0     C79394   4.477   4.531   2.116 -0.1467  0.1807 -0.1202
  589MOL0     C79395   4.601   4.589   2.191  0.3131  0.3833  0.0695
  589MOL0     C79396   4.573   4.604   2.347 -0.1053 -0.7349  0.4982
  589MOL0     N79397   4.696   4.612   2.416 -0.4214  0.3858 -0.5002
  589MOL0     C79398   4.748   4.495   2.452 -0.1908 -0.4045 -0.2739
  589MOL0     C79399   4.823   4.512   2.566 -0.8444  0.5224  0.1237
  589MOL0     C79400   4.882   4.400   2.640  0.3210 -0.5549 -0.1384
  589MOL0     C79401   4.992   4.326   2.566  0.1449 -0.1856  0.2308
  589MOL0     C79402   5.033   4.191   2.631 -0.3442 -0.0148  0.4358
  589MOL0     C79403   5.162   4.141   2.564 -0.0064 -0.2355 -0.3222
  589MOL0     O79404   5.204   4.016   2.630  0.5487 -0.0668 -0.1895
  589MOL0     C79405   5.290   4.004   2.741  0.3351 -0.0374  0.8425
  589MOL0     C79406   5.325   3.879   2.787  0.6996  0.0838  0.6502
  589MOL0     C79407   5.417   3.860   2.892  0.5461  0.7127 -0.8668
  589MOL0     C79408   5.472   3.978   2.956  0.2729 -0.2716 -0.5925
  589MOL0     C79409   5.577   3.961   3.062  0.4241 -0.5506  0.0955
  589MOL0     O79410   5.641   4.069   3.113 -0.0008 -0.4596  0.2371
  589MOL0     C79411   5.739   4.056   3.213 -0.1483  0.0825 -0.6365
  589MOL0     C79412   5.878   4.092   3.195 -0.2805 -0.2979  0.0128
  589MOL0     C79413   5.968   4.107   3.297  0.8458  0.4001 -0.5827
  589MOL0     C79414   5.927   4.066   3.425 -0.1963  0.2844  0.1984
  589MOL0     O79415   6.006   4.071   3.532  0.5678  0.3089  0.3416
  589MOL0     C79416   6.140   4.114   3.517 -0.4343 -0.8106 -0.2186
  589MOL0     C79417   6.234   4.028   3.600  0.4729 -0.6969  0.2666
  589MOL0     C79418   6.343   4.108   3.659  0.5732 -1.0396 -0.2958
  589MOL0     C79419   6.390   4.049   3.795  0.1851  0.7531 -0.0276
  589MOL0     C79420   6.513   4.111   3.854  0.1314 -0.5055  0.0521
  589MOL0     C79421   6.653   4.060   3.802 -0.2805 -0.0251 -0.4616
  589MOL0     C79422   6.772   4.150   3.850 -1.3804  0.8283  0.4001
  589MOL0     C79423   6.904   4.081   3.815  0.1346 -0.2064  0.7139
  589MOL0    Cl79424   6.950   4.137   3.652 -0.1223  0.0805 -0.5016
  589MOL0     C79425   5.792   4.042   3.453  0.0583 -0.3948 -0.0930
  589MOL0     C79426   5.697   4.043   3.345 -0.2062  0.3336 -0.5861
  589MOL0     O79427   5.610   3.851   3.097  0.5229  0.4847  1.1950
  589MOL0     C79428   5.423   4.101   2.916  0.0619 -1.0172 -0.1460
  589MOL0     C79429   5.338   4.114   2.809  0.2287  0.1761  0.8964
  589MOL0     N79430   4.813   4.644   2.599 -0.1901 -0.0717 -0.6361
  589MOL0     N79431   4.729   4.705   2.513 -0.3147  0.6477  0.6240
  589MOL0     C79432   3.960   4.249   1.845  0.2303 -0.2800  0.3654
  589MOL0     C79433   3.850   4.247   1.929  0.0808 -0.5477 -0.2615
  589MOL0     C79434   3.591   4.162   2.324 -0.1513 -0.1815 -0.3627
  589MOL0     C79435   3.526   4.286   2.307 -0.0279 -0.2458  0.3733
  589MOL0     C79436   3.399   4.314   2.369  0.5911 -0.4868  0.7756
  589MOL0     C79437   3.332   4.209   2.435 -0.0368 -1.3163  0.1095
  589MOL0     O79438   3.208   4.235   2.476  0.2819  0.0856 -0.4198
  589MOL0     C79439   3.126   4.133   2.531 -0.0454  0.5151 -0.0268
  589MOL0     C79440   3.029   4.189   2.631  1.0224  0.2423  0.2761
  589MOL0     C79441   3.091   4.270   2.743 -0.1337  0.1514 -0.7054
  589MOL0     C79442   3.009   4.369   2.823  0.1214 -0.1435  0.5185
  589MOL0     C79443   2.916   4.308   2.923 -1.0657  0.0965 -0.7659
  589MOL0     C79444   2.829   4.270   2.997 -0.5089 -0.6260  1.2298
  589MOL0     C79445   3.405   4.087   2.450  0.3241  0.2544  0.7951
  589MOL0     C79446   3.529   4.066   2.389  0.6676  0.1979 -0.8475
  589MOL0     C79447   3.590   3.923   2.419  0.1847  0.0459 -0.5183
  589MOL0     H79448   3.973   4.059   2.186  2.8094 -0.5799 -0.4934
  589MOL0     H79449   4.161   4.075   2.057 -0.4276 -1.9735 -0.2232
  589MOL0     H79450   4.130   4.299   1.619  0.2917  1.7981 -0.8570
  589MOL0     H79451   4.177   4.409   1.753  1.9124  1.1055 -0.4662
  589MOL0     H79452   4.325   4.421   1.593 -0.3007  2.8107  2.8257
  589MOL0     H79453   4.383   4.255   1.583 -0.4146  0.5447 -1.2298
  589MOL0     H79454   4.532   4.417   1.706  0.3280 -2.4107 -2.4743
  589MOL0     H79455   4.503   4.264   1.784  0.1956  1.2923  0.7318
  589MOL0     H79456   4.342   4.513   1.865  0.5316  0.7605 -0.5560
  589MOL0     H79457   4.332   4.366   1.947 -1.4864  0.2515 -1.6531
  589MOL0     H79458   4.589   4.387   2.011 -1.9823 -2.0207  1.8431
  589MOL0     H79459   4.577   4.548   1.921 -2.9675  0.0237 -3.6639
  589MOL0     H79460   4.406   4.609   2.087  1.0720  2.2846  2.1484
  589MOL0     H79461   4.438   4.449   2.176  1.0572  0.5537  1.2036
  589MOL0     H79462   4.623   4.693   2.163  4.2173 -0.4472 -0.5677
  589MOL0     H79463   4.693   4.531   2.179 -0.3571 -1.9910  4.3070
  589MOL0     H79464   4.505   4.687   2.368 -2.4405 -3.0043  2.6499
  589MOL0     H79465   4.517   4.517   2.380  0.8458 -0.9533  1.5931
  589MOL0     H79466   4.729   4.406   2.393  0.8009 -0.7864 -0.0369
  589MOL0     H79467   4.914   4.420   2.742  0.6774  0.4559 -0.4328
  589MOL0     H79468   4.807   4.322   2.653 -0.0922  0.0552  1.2406
  589MOL0     H79469   4.962   4.314   2.462 -1.9787 -1.0715  0.8915
  589MOL0     H79470   5.071   4.401   2.574 -0.1404  0.0894  0.5085
  589MOL0     H79471   4.967   4.108   2.605  0.3282 -1.3102  2.6692
  589MOL0     H79472   5.040   4.202   2.739  0.2391  1.6963  0.2542
  589MOL0     H79473   5.254   4.200   2.570  0.7699 -1.1017 -2.7014
  589MOL0     H79474   5.147   4.122   2.458 -4.6181 -0.8744  0.2688
  589MOL0     H79475   5.290   3.794   2.730  2.0307  2.0665 -3.4779
  589MOL0     H79476   5.446   3.762   2.927  0.2151 -0.1719 -2.9139
  589MOL0     H79477   5.913   4.124   3.097  0.4423 -4.5258 -1.3435
  589MOL0     H79478   6.062   4.154   3.272  0.7651  1.8721  1.6424
  589MOL0     H79479   6.176   4.107   3.414  1.7560 -3.6745  0.6213
  589MOL0     H79480   6.151   4.221   3.538 -0.8914 -0.6329 -0.8596
  589MOL0     H79481   6.180   4.008   3.693 -0.2700  1.1485  0.2823
  589MOL0     H79482   6.274   3.940   3.548  0.8034 -1.9328  2.4980
  589MOL0     H79483   6.432   4.089   3.599  1.9557 -3.7753  2.3773
  589MOL0     H79484   6.312   4.213   3.666 -3.0333 -1.6611 -3.2637
  589MOL0     H79485   6.409   3.943   3.780  3.4199  0.6869  3.1980
  589MOL0     H79486   6.303   4.062   3.860 -1.4442 -0.6427 -1.7830
  589MOL0     H79487   6.499   4.111   3.963 -1.1763  1.1426 -0.0719
  589MOL0     H79488   6.507   4.217   3.825 -2.6911 -0.3410  0.8867
  589MOL0     H79489   6.669   3.964   3.852 -0.4977  0.2106  0.0720
  589MOL0     H79490   6.654   4.049   3.693  0.1216 -0.4433 -0.4233
  589MOL0     H79491   6.757   4.164   3.957 -1.4716  0.2678  0.4643
  589MOL0     H79492   6.764   4.244   3.795  2.4946 -0.0204 -1.9998
  589MOL0     H79493   6.985   4.127   3.873  1.3375  1.4465 -2.0437
  589MOL0     H79494   6.904   3.972   3.820 -0.4576 -0.1686  1.6890
  589MOL0     H79495   5.755   4.019   3.552  0.6285 -0.7262  0.0435
  589MOL0     H79496   5.592   4.020   3.361 -0.3267  0.3561 -1.3139
  589MOL0     H79497   5.463   4.185   2.972 -0.5943 -0.0489 -1.0964
  589MOL0     H79498   5.298   4.211   2.783 -2.1815 -0.6779  1.0705
  589MOL0     H79499   3.940   4.304   1.753 -1.0566  1.3819  1.5907
  589MOL0     H79500   3.763   4.302   1.892 -1.9987 -3.8530 -0.7109
  589MOL0     H79501   3.581   4.366   2.259 -0.2334  0.4495  1.2623
  589MOL0     H79502   3.353   4.412   2.359 -0.4250 -1.0121  0.0603
  589MOL0     H79503   3.183   4.061   2.590 -0.0055  0.1020 -0.5658
  589MOL0     H79504   3.075   4.078   2.452 -1.9295  0.4390  1.1739
  589MOL0     H79505   2.986   4.096   2.669 -2.1037  2.2579  2.1572
  589MOL0     H79506   2.952   4.250   2.583  0.9466  0.4233  0.6247
  589MOL0     H79507   3.182   4.317   2.704  0.7388 -0.8393  0.0515
  589MOL0     H79508   3.130   4.200   2.818 -0.9822  0.9614  0.5251
  589MOL0     H79509   3.077   4.432   2.881  0.3337 -0.7961  0.9894
  589MOL0     H79510   2.951   4.433   2.756  2.2504  0.8381 -0.5056
  589MOL0     H79511   2.745   4.238   3.055 -0.9430 -1.3370  0.2339
  589MOL0     H79512   3.356   3.998   2.490 -0.6366  1.5971  2.7115
  589MOL0     H79513   3.673   3.940   2.489  1.1611  0.0675 -1.6325
  589MOL0     H79514   3.519   3.847   2.450  0.2110 -0.6616 -2.0876
  589MOL0     H79515   3.637   3.877   2.331  0.1504 -4.1033  1.4156
  590MOL0     O79516   5.159   9.551   6.539 -1.0163 -0.5431  0.3365
  590MOL0     C79517   5.141   9.459   6.450  0.0300 -0.4747  0.1247
  590MOL0     O79518   5.228   9.357   6.421 -1.2498  0.2927  0.5997
  590MOL0     C79519   5.330   9.353   6.515 -0.3515  0.0473 -0.1350
  590MOL0     C79520   5.309   9.311   6.646  0.7084 -0.2054 -0.2234
  590MOL0     C79521   5.411   9.299   6.744 -0.6465  0.2206  0.1264
  590MOL0     C79522   5.547   9.339   6.712  0.6895  0.0947  0.4426
  590MOL0     O79523   5.626   9.347   6.819  0.4879  0.5575  0.0236
  590MOL0     C79524   5.735   9.264   6.795  0.3606  0.1281  0.2195
  590MOL0     C79525   5.817   9.277   6.918 -0.1438  0.7810 -0.7819
  590MOL0     C79526   5.738   9.212   7.046  0.0512 -0.5571 -0.0462
  590MOL0     C79527   5.840   9.153   7.140 -0.7674 -0.0690  0.1357
  590MOL0     C79528   5.781   9.087   7.266 -0.5481 -0.3839 -0.1499
  590MOL0     C79529   5.716   8.941   7.244  0.8278  0.3340  0.2237
  590MOL0     C79530   5.799   8.821   7.189 -0.1453  0.1040  0.2539
  590MOL0     C79531   5.902   8.775   7.292 -0.0505  0.4593  0.1576
  590MOL0     N79532   6.040   8.830   7.257 -0.4933 -1.0835  0.8952
  590MOL0     C79533   6.148   8.772   7.187 -0.1898  0.3798  0.2064
  590MOL0     C79534   6.248   8.862   7.194 -0.2183 -0.1717  0.4549
  590MOL0     C79535   6.385   8.851   7.115  0.5492 -0.2955 -0.0470
  590MOL0     C79536   6.368   8.842   6.965  0.9840  0.5347  0.9365
  590MOL0     C79537   6.484   8.765   6.901  0.3215  0.3898  0.3185
  590MOL0     C79538   6.473   8.742   6.747  0.4476 -0.5201  0.0198
  590MOL0     O79539   6.534   8.622   6.706 -0.3194 -0.1961  0.0689
  590MOL0     C79540   6.665   8.627   6.666  0.2402 -0.9928 -0.1224
  590MOL0     C79541   6.757   8.733   6.697 -0.4872  0.5884 -0.2062
  590MOL0     C79542   6.887   8.732   6.636 -0.3516  0.2923 -0.4456
  590MOL0     C79543   6.930   8.625   6.554  1.3511  0.2313  0.6495
  590MOL0     C79544   7.057   8.619   6.481 -0.8451 -0.0544 -0.0335
  590MOL0     O79545   7.082   8.502   6.409  0.0713 -0.6709  0.2387
  590MOL0     C79546   7.209   8.496   6.370 -0.4794  0.8800 -0.1034
  590MOL0     C79547   7.243   8.568   6.248 -0.5278 -0.0582  0.3276
  590MOL0     C79548   7.373   8.555   6.185 -0.1671 -0.1838  1.0465
  590MOL0     C79549   7.464   8.466   6.237  0.7894  1.0109  0.5458
  590MOL0     O79550   7.578   8.454   6.163 -0.6032  0.0122 -0.3186
  590MOL0     C79551   7.637   8.319   6.152 -0.0722 -0.2888  0.2588
  590MOL0     C79552   7.795   8.324   6.116 -0.2131  0.6309 -0.9530
  590MOL0     C79553   7.847   8.183   6.114 -0.6470  0.4520 -0.3512
  590MOL0     C79554   7.975   8.168   6.030 -0.3603 -0.2339 -0.2537
  590MOL0     C79555   8.020   8.020   6.048  0.5938 -0.0023  0.0413
  590MOL0     C79556   8.160   8.007   5.978  0.4508 -0.2502  0.2375
  590MOL0     C79557   8.206   7.864   5.999  0.1670  0.4719  0.7958
  590MOL0     C79558   8.249   7.826   6.140 -0.5293 -0.7469 -0.0277
  590MOL0    Cl79559   8.351   7.675   6.114 -0.1150 -0.0702 -0.0064
  590MOL0     C79560   7.422   8.399   6.361 -0.0681  0.0520 -0.4405
  590MOL0     C79561   7.302   8.408   6.426 -0.3989 -0.3597 -0.2448
  590MOL0     O79562   7.130   8.715   6.490 -0.3560 -0.1098 -0.1148
  590MOL0     C79563   6.836   8.530   6.521 -0.1437 -0.4147  0.3281
  590MOL0     C79564   6.707   8.533   6.572  0.5651  0.5814  0.3712
  590MOL0     N79565   6.202   8.969   7.274 -0.4887  0.1919 -0.4881
  590MOL0     N79566   6.076   8.953   7.302  0.1441 -0.0999  1.9189
  590MOL0     C79567   5.576   9.400   6.582  0.5144  0.8317  0.4526
  590MOL0     C79568   5.470   9.388   6.477 -0.5106 -0.6360 -0.9483
  590MOL0     C79569   5.010   9.450   6.395 -0.3149  0.0539  0.1401
  590MOL0     C79570   4.921   9.559   6.433 -0.1429  0.4030 -0.8104
  590MOL0     C79571   4.800   9.569   6.379  0.0927  0.0615  0.4758
  590MOL0     C79572   4.743   9.460   6.306 -0.0815 -0.3012  0.8760
  590MOL0     O79573   4.614   9.444   6.250  0.3722  0.3417  0.3282
  590MOL0     C79574   4.509   9.520   6.308  0.1345  0.2586 -0.7365
  590MOL0     C79575   4.478   9.640   6.221  0.0168 -0.1344 -0.4278
  590MOL0     C79576   4.443   9.611   6.078 -0.0418 -0.2539 -0.0927
  590MOL0     C79577   4.555   9.622   5.975  0.0437  0.4735 -0.8898
  590MOL0     C79578   4.618   9.755   5.966 -0.3940 -0.0133 -0.5876
  590MOL0     C79579   4.659   9.868   5.968 -0.3727 -0.3372 -0.2590
  590MOL0     C79580   4.823   9.348   6.272  0.3855 -0.6749  0.0209
  590MOL0     C79581   4.962   9.343   6.317  0.1844  0.5127 -0.0194
  590MOL0     C79582   5.033   9.216   6.292  1.2890  0.1989  0.3493
  590MOL0     H79583   5.206   9.286   6.666  0.8056 -1.8453 -1.5473
  590MOL0     H79584   5.399   9.254   6.843  3.7515 -0.3363  0.5988
  590MOL0     H79585   5.706   9.161   6.772  4.2661 -2.0366  3.5429
  590MOL0     H79586   5.801   9.299   6.715 -1.2934  1.2153 -0.7264
  590MOL0     H79587   5.843   9.383   6.930  0.5714  0.5408 -0.1307
  590MOL0     H79588   5.912   9.225   6.906 -0.6141 -0.2483 -0.1844
  590MOL0     H79589   5.666   9.137   7.013  0.1578 -0.7993  0.2773
  590MOL0     H79590   5.671   9.286   7.091  1.4555 -0.5515  2.1573
  590MOL0     H79591   5.909   9.089   7.085  2.5768  2.0883  1.4975
  590MOL0     H79592   5.907   9.229   7.181  0.5156 -0.6860 -0.7586
  590MOL0     H79593   5.860   9.067   7.339  2.1532  1.3414 -2.3639
  590MOL0     H79594   5.710   9.160   7.307 -0.8708 -0.0389 -1.2797
  590MOL0     H79595   5.673   8.917   7.342 -0.6679 -1.2784 -0.7786
  590MOL0     H79596   5.628   8.944   7.180 -0.1793  0.9044  1.5930
  590MOL0     H79597   5.852   8.847   7.097  1.8637  1.0419  1.5912
  590MOL0     H79598   5.729   8.739   7.174  0.5753 -0.4250 -0.2729
  590MOL0     H79599   5.879   8.810   7.393 -0.2575  3.2498 -0.7719
  590MOL0     H79600   5.905   8.666   7.290 -0.2101  0.4535 -1.5865
  590MOL0     H79601   6.149   8.671   7.147  0.3151  1.2747 -2.2466
  590MOL0     H79602   6.458   8.931   7.133 -0.6868  0.6629  0.9030
  590MOL0     H79603   6.431   8.758   7.149 -0.1713 -0.5393  0.2752
  590MOL0     H79604   6.274   8.787   6.955  1.3177  0.1466 -0.1130
  590MOL0     H79605   6.345   8.938   6.918 -1.5387 -1.5407 -2.5064
  590MOL0     H79606   6.496   8.668   6.950  1.5661  2.4325  4.5522
  590MOL0     H79607   6.581   8.814   6.912  0.2327  1.9891 -3.9922
  590MOL0     H79608   6.498   8.835   6.695  0.9339  0.1439  1.3889
  590MOL0     H79609   6.367   8.720   6.732  0.3338 -0.2512  0.4166
  590MOL0     H79610   6.730   8.812   6.767  0.5810  0.0350  0.8754
  590MOL0     H79611   6.955   8.802   6.684  1.6200 -2.4960  1.1053
  590MOL0     H79612   7.182   8.646   6.204  2.5492  2.7341  0.6450
  590MOL0     H79613   7.395   8.605   6.091 -1.5324 -1.6387 -0.1111
  590MOL0     H79614   7.618   8.262   6.243  0.9236  0.1744  0.7641
  590MOL0     H79615   7.589   8.256   6.076  0.1436 -0.3331  0.1587
  590MOL0     H79616   7.822   8.361   6.017  1.5094 -0.1469 -0.8153
  590MOL0     H79617   7.857   8.375   6.190 -0.3736 -2.6307  1.6800
  590MOL0     H79618   7.876   8.148   6.214 -0.7749 -3.1686 -1.4195
  590MOL0     H79619   7.773   8.117   6.068 -0.6443 -0.9789  1.5846
  590MOL0     H79620   8.050   8.238   6.067  0.3260 -1.1860  0.2110
  590MOL0     H79621   7.955   8.197   5.926 -0.8671  1.4710  0.2952
  590MOL0     H79622   7.952   7.943   6.012 -0.3113  1.3276 -1.2020
  590MOL0     H79623   8.038   7.998   6.154 -1.6853 -0.3694  0.4020
  590MOL0     H79624   8.146   8.019   5.870  1.1610 -2.3040 -0.1251
  590MOL0     H79625   8.234   8.080   6.013 -1.9029  1.6793  1.5122
  590MOL0     H79626   8.287   7.839   5.929 -1.5011  3.2000 -2.4493
  590MOL0     H79627   8.123   7.800   5.968  0.5864 -0.4759  1.6166
  590MOL0     H79628   8.305   7.906   6.190 -0.6534 -1.5464  1.4615
  590MOL0     H79629   8.160   7.811   6.202 -0.1946 -0.1020  0.6252
  590MOL0     H79630   7.485   8.336   6.422 -2.9338 -1.4139  1.2088
  590MOL0     H79631   7.279   8.360   6.520  1.5415  1.0001  0.9787
  590MOL0     H79632   6.862   8.449   6.453  2.1985  0.9006 -0.4836
  590MOL0     H79633   6.632   8.461   6.542 -0.5452  0.9094  2.2431
  590MOL0     H79634   5.672   9.448   6.565  0.8362  0.2678  0.6617
  590MOL0     H79635   5.495   9.423   6.378 -2.5061  0.6743 -1.0465
  590MOL0     H79636   4.945   9.629   6.512 -0.6531 -3.0484  2.6775
  590MOL0     H79637   4.742   9.659   6.394  1.3383  0.9742 -0.0859
  590MOL0     H79638   4.546   9.544   6.408  0.1540 -0.9432 -0.4438
  590MOL0     H79639   4.419   9.458   6.317 -1.2861  2.4404  1.1961
  590MOL0     H79640   4.560   9.713   6.217  1.0933 -1.3590 -3.6752
  590MOL0     H79641   4.384   9.680   6.258 -0.3773 -0.4385 -1.1003
  590MOL0     H79642   4.354   9.668   6.048 -1.8829 -2.8029  0.2603
  590MOL0     H79643   4.404   9.509   6.086 -0.4042  0.0128  2.4929
  590MOL0     H79644   4.639   9.559   6.005  0.1191  0.9134 -0.1367
  590MOL0     H79645   4.509   9.602   5.878  0.4153  0.0721 -0.9865
  590MOL0     H79646   4.701   9.967   5.965 -0.8619 -0.1354 -0.5875
  590MOL0     H79647   4.762   9.266   6.235  0.1842 -0.7158  0.4348
  590MOL0     H79648   5.037   9.158   6.384  1.7082  0.8004  0.7237
  590MOL0     H79649   4.975   9.161   6.217  2.1128 -0.2379  0.0254
  590MOL0     H79650   5.130   9.224   6.243  0.9842  3.1340  0.0060
  591MOL0     O79651   6.839   9.025   3.515  0.7845 -0.1601 -0.0888
  591MOL0     C79652   6.886   9.006   3.400  0.2820 -0.5887  0.2559
  591MOL0     O79653   6.807   8.962   3.297  0.4693  0.0731 -0.1602
  591MOL0     C79654   6.859   8.874   3.205 -0.6522 -0.9480 -0.2014
  591MOL0     C79655   6.819   8.884   3.075  0.4624  0.2946  0.1603
  591MOL0     C79656   6.862   8.795   2.977  0.5959 -0.2114  0.7802
  591MOL0     C79657   6.957   8.698   3.007 -1.6161  0.0120 -0.3989
  591MOL0     O79658   7.021   8.623   2.913 -0.7077 -0.2411  0.0452
  591MOL0     C79659   6.952   8.603   2.790  0.6138 -0.6954  0.5410
  591MOL0     C79660   6.993   8.465   2.733  0.0092 -0.8910 -0.1614
  591MOL0     C79661   6.965   8.348   2.833 -0.4892  0.0872  0.1872
  591MOL0     C79662   7.047   8.215   2.798  0.1383 -0.5313 -0.8264
  591MOL0     C79663   7.033   8.098   2.891 -0.0521  1.1738  0.2317
  591MOL0     C79664   7.109   7.983   2.833  0.0938  1.3354  0.5630
  591MOL0     C79665   7.085   7.855   2.917  1.1828 -0.3484  0.8158
  591MOL0     C79666   7.106   7.724   2.834  0.2956  0.0650 -0.8854
  591MOL0     N79667   7.238   7.719   2.766  0.2970  0.0853 -0.0568
  591MOL0     C79668   7.362   7.730   2.815 -0.0817  1.2888  0.4326
  591MOL0     C79669   7.443   7.760   2.706 -0.0039 -0.5023 -1.0952
  591MOL0     C79670   7.589   7.791   2.708 -0.3483 -0.8835 -0.8389
  591MOL0     C79671   7.675   7.667   2.737 -0.3152  0.2878  0.3613
  591MOL0     C79672   7.659   7.605   2.874  0.5984  0.0902  0.4902
  591MOL0     C79673   7.767   7.497   2.901  0.5888 -0.3282 -0.2698
  591MOL0     O79674   7.765   7.382   2.818  0.3177  0.7826  0.0597
  591MOL0     C79675   7.838   7.271   2.846  0.0484  1.0454  0.2953
  591MOL0     C79676   7.843   7.166   2.746 -0.0022 -0.3840 -1.4640
  591MOL0     C79677   7.910   7.047   2.772  0.4112  0.6282  0.3290
  591MOL0     C79678   7.979   7.039   2.892 -0.3463  1.7280 -0.2770
  591MOL0     C79679   8.073   6.923   2.904  0.2234  0.6857 -0.4708
  591MOL0     O79680   8.138   6.906   3.029 -0.1611 -1.2640 -0.0605
  591MOL0     C79681   8.215   6.795   3.043  0.3971 -0.3246  0.4646
  591MOL0     C79682   8.172   6.663   3.043 -0.5575  0.7197 -0.5727
  591MOL0     C79683   8.269   6.561   3.059 -0.8146 -0.2988 -0.9428
  591MOL0     C79684   8.400   6.579   3.090  0.6841  0.2761  0.3933
  591MOL0     O79685   8.489   6.472   3.100 -0.1458 -0.2171  0.1817
  591MOL0     C79686   8.460   6.362   3.004 -0.4578  0.1242 -0.1755
  591MOL0     C79687   8.589   6.300   2.946 -0.3739 -0.5906  0.4893
  591MOL0     C79688   8.661   6.206   3.038 -0.2472  0.0131 -0.2591
  591MOL0     C79689   8.803   6.153   2.991  0.4539  0.1843  0.7146
  591MOL0     C79690   8.871   6.033   3.066  0.8183 -0.6599  0.4531
  591MOL0     C79691   9.014   6.012   3.007 -0.4045 -0.3952 -1.5714
  591MOL0     C79692   9.023   6.001   2.847 -0.2314  0.7853 -0.2884
  591MOL0     C79693   9.090   5.869   2.810  0.8582  0.2750  0.2543
  591MOL0    Cl79694   8.957   5.745   2.822  0.3067 -0.1456 -0.3852
  591MOL0     C79695   8.440   6.710   3.088  0.3072 -0.4037  0.3398
  591MOL0     C79696   8.351   6.812   3.067  0.7157 -0.1012  0.1237
  591MOL0     O79697   8.084   6.846   2.805 -0.1275 -0.2646  0.1022
  591MOL0     C79698   7.963   7.127   2.997 -0.2144 -0.5889  0.6384
  591MOL0     C79699   7.893   7.242   2.975 -0.0367  0.0385 -0.6729
  591MOL0     N79700   7.357   7.749   2.589 -0.1905  0.2263  0.0414
  591MOL0     N79701   7.243   7.732   2.634  0.6152 -0.4546  0.1267
  591MOL0     C79702   7.002   8.684   3.136 -0.0195 -0.1735 -0.7206
  591MOL0     C79703   6.957   8.776   3.233  1.3636 -0.1820  0.3358
  591MOL0     C79704   7.033   9.035   3.378  0.6739  0.7369 -0.3827
  591MOL0     C79705   7.073   9.088   3.260 -0.5529 -0.1664  0.4366
  591MOL0     C79706   7.206   9.136   3.235  0.1931 -0.2555  0.4289
  591MOL0     C79707   7.295   9.124   3.340 -0.5164 -0.1906  0.7653
  591MOL0     O79708   7.425   9.167   3.338  0.1599 -0.4927 -0.5147
  591MOL0     C79709   7.491   9.173   3.215  0.3690 -0.1439 -0.7814
  591MOL0     C79710   7.630   9.224   3.220  0.2279  0.8581 -0.8298
  591MOL0     C79711   7.725   9.105   3.266 -0.0483 -0.4871 -0.3084
  591MOL0     C79712   7.878   9.149   3.234  0.0314  0.1277 -0.3261
  591MOL0     C79713   7.964   9.029   3.234  0.3075  0.6420  0.4602
  591MOL0     C79714   8.029   8.926   3.220 -0.0969  0.2448  0.2363
  591MOL0     C79715   7.261   9.054   3.453 -0.0644 -0.4565 -0.5475
  591MOL0     C79716   7.128   9.014   3.480  0.8752  0.3314  0.1976
  591MOL0     C79717   7.096   8.959   3.619 -0.4526  0.0159 -0.2599
  591MOL0     H79718   6.729   8.942   3.059 -0.2759 -0.6250  0.8910
  591MOL0     H79719   6.817   8.804   2.878  0.6693 -4.3392  0.1882
  591MOL0     H79720   6.843   8.594   2.800  0.6103 -3.1608 -1.0380
  591MOL0     H79721   6.982   8.688   2.728  1.9292 -1.0385  0.6677
  591MOL0     H79722   7.098   8.466   2.702  1.0891  0.9028  3.1228
  591MOL0     H79723   6.932   8.439   2.646 -3.3018  1.6748  1.1703
  591MOL0     H79724   6.862   8.315   2.819  0.5335 -2.2196 -3.2588
  591MOL0     H79725   6.996   8.386   2.931 -0.4679  1.1419 -0.2148
  591MOL0     H79726   7.034   8.184   2.694  1.3978 -0.8762 -0.8942
  591MOL0     H79727   7.151   8.249   2.803 -0.4743  1.3617 -0.4569
  591MOL0     H79728   7.061   8.116   2.995 -0.3846  0.4351  0.4561
  591MOL0     H79729   6.925   8.079   2.895  0.2057 -0.3781  0.6433
  591MOL0     H79730   7.082   7.977   2.727 -1.9026  2.4162  0.9585
  591MOL0     H79731   7.215   8.006   2.840 -0.3753  3.2670  2.3007
  591MOL0     H79732   6.986   7.864   2.962  0.1709  2.0643 -1.5707
  591MOL0     H79733   7.155   7.853   3.000  1.3174 -0.6880  0.6952
  591MOL0     H79734   7.099   7.639   2.902 -0.5598 -0.1137 -1.1871
  591MOL0     H79735   7.025   7.706   2.763 -1.5217 -0.2770  1.1562
  591MOL0     H79736   7.393   7.738   2.919 -0.5533  1.1508  0.5851
  591MOL0     H79737   7.619   7.810   2.605 -0.8964 -2.6950 -1.3820
  591MOL0     H79738   7.612   7.868   2.782 -1.1908 -1.8484  0.4729
  591MOL0     H79739   7.630   7.597   2.666 -4.0708  2.2648  0.5397
  591MOL0     H79740   7.780   7.687   2.715 -0.0079 -2.6878 -1.4208
  591MOL0     H79741   7.562   7.554   2.875 -1.0838  2.9337 -1.5889
  591MOL0     H79742   7.672   7.684   2.948  1.9188  0.2869  0.0788
  591MOL0     H79743   7.744   7.474   3.006 -0.0617 -1.5237 -0.6668
  591MOL0     H79744   7.863   7.547   2.888 -0.6732  2.6892  0.9746
  591MOL0     H79745   7.803   7.181   2.646  2.3281 -1.4302 -2.6357
  591MOL0     H79746   7.918   6.972   2.695 -0.1774 -0.9845  1.7870
  591MOL0     H79747   8.066   6.647   3.031 -0.6744 -1.0039  1.9225
  591MOL0     H79748   8.237   6.458   3.056  0.1174 -0.5939 -0.9900
  591MOL0     H79749   8.397   6.285   3.049  0.6333  0.0263  1.2625
  591MOL0     H79750   8.405   6.395   2.916  0.7244  1.4435 -0.4651
  591MOL0     H79751   8.556   6.239   2.862 -1.2836 -0.6784  0.8940
  591MOL0     H79752   8.645   6.380   2.897 -3.1314  2.7038  2.1984
  591MOL0     H79753   8.672   6.251   3.137 -0.2166  0.0031 -0.2583
  591MOL0     H79754   8.594   6.119   3.041 -2.6289  1.6634 -2.0086
  591MOL0     H79755   8.873   6.236   3.004  1.4594 -0.6273  0.5627
  591MOL0     H79756   8.787   6.126   2.886 -0.4970  0.8321  0.6748
  591MOL0     H79757   8.804   5.947   3.066 -1.0145  0.7041  0.4971
  591MOL0     H79758   8.880   6.049   3.174 -1.3819 -0.1270  0.5942
  591MOL0     H79759   9.085   6.080   3.055 -0.4961 -1.2368 -0.1881
  591MOL0     H79760   9.039   5.916   3.054 -0.8122  1.1219  2.0408
  591MOL0     H79761   9.095   6.079   2.824  3.1825 -1.8503  0.6746
  591MOL0     H79762   8.937   6.020   2.782 -0.3988  1.1863  0.0496
  591MOL0     H79763   9.124   5.867   2.706 -3.3658  1.7066 -1.3543
  591MOL0     H79764   9.164   5.833   2.882  0.2130 -1.4527  0.0934
  591MOL0     H79765   8.548   6.718   3.086  0.2757 -0.0543 -0.2892
  591MOL0     H79766   8.386   6.915   3.059 -1.9630  1.0598  1.9519
  591MOL0     H79767   8.021   7.115   3.088  0.5027  0.7575  0.3869
  591MOL0     H79768   7.896   7.304   3.064 -3.4475 -0.8391  0.1922
  591MOL0     H79769   7.071   8.602   3.153  2.6742  1.6239 -2.1554
  591MOL0     H79770   6.998   8.773   3.334  1.9329 -2.9958  0.1014
  591MOL0     H79771   6.998   9.098   3.182 -0.2577 -1.8245 -0.0835
  591MOL0     H79772   7.234   9.161   3.134 -2.1435  0.1555 -0.1877
  591MOL0     H79773   7.451   9.251   3.150 -0.5071 -2.2136 -2.8642
  591MOL0     H79774   7.496   9.075   3.166 -2.3234  0.2756 -2.0746
  591MOL0     H79775   7.636   9.312   3.284 -1.3191  1.4807 -1.4983
  591MOL0     H79776   7.663   9.248   3.119  1.8834 -0.3868 -0.6371
  591MOL0     H79777   7.695   9.023   3.200 -3.4042  0.5657 -0.2653
  591MOL0     H79778   7.716   9.085   3.374 -0.7978  0.6211 -0.1560
  591MOL0     H79779   7.891   9.206   3.141  3.1502 -1.9935 -1.3355
  591MOL0     H79780   7.918   9.191   3.327  0.8185  0.9043 -0.9983
  591MOL0     H79781   8.080   8.832   3.212 -1.0781 -0.6154  2.9984
  591MOL0     H79782   7.337   9.041   3.529 -0.4654  1.6056  0.2861
  591MOL0     H79783   7.034   9.027   3.678  0.5533  1.0024 -0.2968
  591MOL0     H79784   7.045   8.864   3.606  1.4693 -1.1201  0.0815
  591MOL0     H79785   7.184   8.934   3.679 -0.8811 -1.3205 -0.1625
  592MOL0     O79786   8.202   8.373   7.592 -0.2907  0.2293  0.0879
  592MOL0     C79787   8.149   8.475   7.638  0.2284  0.1972 -0.0020
  592MOL0     O79788   8.166   8.512   7.771  0.0812  0.3614 -0.1949
  592MOL0     C79789   8.272   8.454   7.838 -0.4253 -0.1134 -0.6084
  592MOL0     C79790   8.395   8.528   7.834  0.2263 -0.4803  0.3096
  592MOL0     C79791   8.506   8.490   7.904  0.0783  0.4299  0.0480
  592MOL0     C79792   8.498   8.379   7.992 -0.0819  0.2586  0.4426
  592MOL0     O79793   8.607   8.350   8.067 -0.2347  1.1510  0.4675
  592MOL0     C79794   8.611   8.390   8.204  0.2196  1.2573 -0.4773
  592MOL0     C79795   8.718   8.308   8.269  0.0424 -0.2228  1.7491
  592MOL0     C79796   8.698   8.285   8.419  0.7658 -0.4548  0.5402
  592MOL0     C79797   8.823   8.262   8.495  0.0639  0.2062  1.0326
  592MOL0     C79798   8.812   8.255   8.648  0.1542 -0.6821  1.0058
  592MOL0     C79799   8.753   8.129   8.697 -0.0180 -0.0385  0.0734
  592MOL0     C79800   8.726   8.135   8.843 -1.2234 -0.2683  0.2562
  592MOL0     C79801   8.762   8.014   8.927 -0.1296 -1.0168 -0.7325
  592MOL0     N79802   8.771   8.048   9.068  0.3713 -0.7744  0.1698
  592MOL0     C79803   8.835   7.970   9.169  1.1724  0.1346  0.3772
  592MOL0     C79804   8.825   8.062   9.271  0.4428  0.2802 -0.3907
  592MOL0     C79805   8.877   8.040   9.406  0.2330  0.2989 -0.4424
  592MOL0     C79806   8.968   8.146   9.455 -0.7373 -1.1133  0.6716
  592MOL0     C79807   9.032   8.134   9.603 -0.1984  0.5067  0.4739
  592MOL0     C79808   9.149   8.233   9.636 -0.6468 -0.1922 -0.8031
  592MOL0     O79809   9.097   8.363   9.691 -0.0499  0.4964 -0.2894
  592MOL0     C79810   9.179   8.464   9.736 -0.3956 -0.4551 -1.0119
  592MOL0     C79811   9.318   8.464   9.709  0.4507  0.2073 -0.1333
  592MOL0     C79812   9.391   8.561   9.750 -0.0609 -0.2077  0.2513
  592MOL0     C79813   9.345   8.658   9.835  0.4147 -0.1555 -0.5183
  592MOL0     C79814   9.436   8.760   9.876 -0.4947  0.1344  1.0123
  592MOL0     O79815   9.549   8.774   9.809 -0.0924 -0.0064 -0.1360
  592MOL0     C79816   9.638   8.878   9.837  0.2639 -0.6609 -0.4493
  592MOL0     C79817   9.774   8.847   9.840 -0.0802  0.4640  0.8958
  592MOL0     C79818   9.870   8.957   9.835  0.6568  0.0019 -0.0907
  592MOL0     C79819   9.818   9.083   9.830 -0.0362  0.0336 -0.3778
  592MOL0     O79820   9.922   9.169   9.816 -0.0701  0.1744 -0.7405
  592MOL0     C79821   9.895   9.300   9.761 -0.4743 -0.4895 -0.5720
  592MOL0     C79822   9.844   9.302   9.616  0.8144 -0.1077  0.6482
  592MOL0     C79823   9.866   9.431   9.537 -0.9089 -0.5096 -0.0959
  592MOL0     C79824   9.896   9.573   9.598  0.5142 -0.3104  0.4658
  592MOL0     C79825   9.842   9.687   9.514  0.0349  0.7972 -0.4207
  592MOL0     C79826   9.880   9.822   9.571 -0.0646 -0.1105 -0.5481
  592MOL0     C79827  10.021   9.866   9.560  0.0368 -0.0021 -0.1781
  592MOL0     C79828  10.080   9.849   9.422 -0.0525 -1.0283 -0.6453
  592MOL0    Cl79829  10.003   9.938   9.296  0.0169  0.1195 -0.0343
  592MOL0     C79830   9.687   9.112   9.835  0.5130 -0.3037 -0.5580
  592MOL0     C79831   9.591   9.008   9.837 -0.1674  0.7522 -0.0238
  592MOL0     O79832   9.398   8.814   9.977 -0.4786 -0.3470  0.1158
  592MOL0     C79833   9.206   8.668   9.862 -0.6372 -0.5338  0.5660
  592MOL0     C79834   9.125   8.563   9.817  0.1832  0.4006 -0.1113
  592MOL0     N79835   8.746   8.171   9.238 -0.0848 -0.4325 -0.0861
  592MOL0     N79836   8.724   8.166   9.112  0.0430  0.5127 -0.9470
  592MOL0     C79837   8.379   8.296   8.000  0.1260 -0.5154 -0.2424
  592MOL0     C79838   8.265   8.336   7.919 -0.3959 -0.3047 -0.2316
  592MOL0     C79839   8.061   8.555   7.556 -0.7624  0.4267 -0.6679
  592MOL0     C79840   8.075   8.691   7.565  0.4560  0.3144 -0.0954
  592MOL0     C79841   7.989   8.778   7.504 -0.2694 -0.1758  1.3332
  592MOL0     C79842   7.885   8.729   7.426 -0.6331 -0.3022  0.7234
  592MOL0     O79843   7.805   8.828   7.369 -0.0367  0.2960  0.3918
  592MOL0     C79844   7.795   8.838   7.228  0.1759 -0.5143 -0.4104
  592MOL0     C79845   7.930   8.863   7.171  0.1207 -0.9812  0.7186
  592MOL0     C79846   7.930   8.903   7.019 -0.5781  0.1149  0.3075
  592MOL0     C79847   7.884   8.800   6.917 -0.0666  0.2286  0.3074
  592MOL0     C79848   7.937   8.664   6.948 -0.3632 -0.1518 -0.0312
  592MOL0     C79849   7.998   8.569   6.988  0.0652 -0.0673 -0.0981
  592MOL0     C79850   7.871   8.589   7.404  0.0920 -0.0718 -0.3208
  592MOL0     C79851   7.959   8.501   7.466  0.0169 -0.1901  0.5655
  592MOL0     C79852   7.922   8.352   7.464 -0.3393  0.3814  0.5847
  592MOL0     H79853   8.394   8.595   7.748  1.2520  1.3369  1.6400
  592MOL0     H79854   8.598   8.547   7.906 -0.0180  0.5637  1.3386
  592MOL0     H79855   8.652   8.491   8.203  1.9229  0.5947 -0.2072
  592MOL0     H79856   8.514   8.383   8.255  0.9414  2.0202  1.0562
  592MOL0     H79857   8.809   8.368   8.262  0.8567 -1.5925 -1.2664
  592MOL0     H79858   8.733   8.210   8.223  2.1843  0.2349  1.3755
  592MOL0     H79859   8.638   8.194   8.431 -0.4736  0.0826 -1.1703
  592MOL0     H79860   8.640   8.367   8.462  1.8028  2.9026 -3.7155
  592MOL0     H79861   8.868   8.166   8.470 -3.1084 -2.0585  3.3178
  592MOL0     H79862   8.889   8.346   8.468  1.4143 -0.5534  1.8317
  592MOL0     H79863   8.913   8.268   8.688 -0.2905  1.6765  1.5247
  592MOL0     H79864   8.748   8.340   8.674 -1.9476 -1.7319 -0.4537
  592MOL0     H79865   8.660   8.106   8.643  1.3669 -1.3811 -1.8949
  592MOL0     H79866   8.820   8.045   8.674  2.2813  0.9320  2.7500
  592MOL0     H79867   8.624   8.172   8.859 -1.7644 -1.3683 -0.5675
  592MOL0     H79868   8.792   8.214   8.880  1.4976 -1.4058 -1.8500
  592MOL0     H79869   8.694   7.929   8.912 -2.4238  0.8004 -1.3533
  592MOL0     H79870   8.863   7.990   8.895 -0.6233 -2.5075 -1.3017
  592MOL0     H79871   8.897   7.882   9.153  2.8841  1.2627  0.4925
  592MOL0     H79872   8.784   8.058   9.460 -0.5061  0.0507 -1.6076
  592MOL0     H79873   8.923   7.942   9.419  1.6579  0.3281 -4.0915
  592MOL0     H79874   9.049   8.154   9.382  0.0036  0.9385  1.6347
  592MOL0     H79875   8.912   8.240   9.454  0.9617 -0.0085  2.6267
  592MOL0     H79876   9.074   8.033   9.604 -2.0709 -0.5048 -3.3716
  592MOL0     H79877   8.960   8.128   9.685  0.7256 -2.1067  1.2004
  592MOL0     H79878   9.202   8.265   9.545 -1.7256  2.9413 -0.4642
  592MOL0     H79879   9.223   8.186   9.701 -0.2354 -1.3021 -2.0351
  592MOL0     H79880   9.366   8.384   9.653 -1.9020  0.4905 -2.7294
  592MOL0     H79881   9.494   8.562   9.717  1.3262 -1.2015  4.0077
  592MOL0     H79882   9.808   8.744   9.838  0.3513  0.5993  1.0963
  592MOL0     H79883   9.979   8.951   9.842  0.5611 -0.8127  0.9788
  592MOL0     H79884   9.816   9.345   9.822 -0.0707 -3.2521  2.2754
  592MOL0     H79885   9.988   9.354   9.780 -0.1616 -1.5591  1.1723
  592MOL0     H79886   9.889   9.215   9.567  0.0970 -0.9936  1.5343
  592MOL0     H79887   9.735   9.294   9.614 -0.0615  6.4314  0.9494
  592MOL0     H79888   9.941   9.410   9.460 -2.4064  0.9756 -2.0876
  592MOL0     H79889   9.773   9.445   9.480 -0.8619 -2.5449 -0.7364
  592MOL0     H79890  10.002   9.594   9.613 -0.0345  2.2768  1.1573
  592MOL0     H79891   9.861   9.580   9.701  2.2359  1.8544  0.9827
  592MOL0     H79892   9.733   9.687   9.516 -0.1282  4.9989 -0.2476
  592MOL0     H79893   9.882   9.669   9.414 -0.4691 -1.5294 -0.2769
  592MOL0     H79894   9.821   9.899   9.521 -0.1676 -0.1523 -0.4904
  592MOL0     H79895   9.864   9.837   9.679  1.1915  1.0818 -0.5002
  592MOL0     H79896  10.078   9.808   9.633 -2.4517 -0.7466  1.2830
  592MOL0     H79897  10.037   9.967   9.599  1.7029 -0.5900  0.7283
  592MOL0     H79898  10.180   9.891   9.438 -0.9513  1.5909 -1.4645
  592MOL0     H79899  10.094   9.742   9.405  0.2425 -2.0970  4.5923
  592MOL0     H79900   9.647   9.213   9.834  1.8629  0.2484 -0.9566
  592MOL0     H79901   9.483   9.019   9.829 -0.2136  2.3412  2.0459
  592MOL0     H79902   9.173   8.749   9.926  0.1332  0.2188  0.0426
  592MOL0     H79903   9.022   8.547   9.849  0.7661 -0.6081  1.3564
  592MOL0     H79904   8.374   8.213   8.069  1.0018 -2.6611 -2.5924
  592MOL0     H79905   8.172   8.280   7.928 -0.0566 -0.7189  0.7906
  592MOL0     H79906   8.144   8.727   7.640 -0.7082 -2.2976  2.4116
  592MOL0     H79907   8.012   8.883   7.519  0.6632 -0.0806 -0.5901
  592MOL0     H79908   7.728   8.925   7.226  0.2249 -0.1925  3.7724
  592MOL0     H79909   7.745   8.756   7.175  0.9105 -0.2819 -1.5041
  592MOL0     H79910   7.993   8.774   7.174  0.1347 -0.9452  2.0420
  592MOL0     H79911   7.973   8.945   7.230  0.9095 -1.9050  1.4770
  592MOL0     H79912   8.029   8.933   6.985 -0.2080 -3.2009 -1.9759
  592MOL0     H79913   7.863   8.990   7.011 -3.3785 -1.9892 -1.0645
  592MOL0     H79914   7.776   8.783   6.916  0.1690 -1.3677  0.3218
  592MOL0     H79915   7.902   8.833   6.815  1.6820 -1.5006  0.0012
  592MOL0     H79916   8.055   8.489   7.031 -0.2985 -0.5680 -0.5582
  592MOL0     H79917   7.793   8.537   7.349 -0.0272  1.4106 -1.6246
  592MOL0     H79918   7.821   8.349   7.506 -1.3201 -2.9029 -1.6517
  592MOL0     H79919   7.924   8.329   7.357 -0.0074 -1.6382  0.9846
  592MOL0     H79920   7.993   8.288   7.517 -1.5256 -1.6272 -0.1785
  593MOL0     O79921   9.829   4.268   1.220 -0.0218  0.4281  0.4947
  593MOL0     C79922   9.917   4.346   1.187 -0.3548 -0.3719 -0.7331
  593MOL0     O79923  10.007   4.400   1.284 -0.3730  0.8251  0.8129
  593MOL0     C79924  10.024   4.330   1.402  0.2568 -0.0119  0.2122
  593MOL0     C79925  10.112   4.217   1.412  0.3856 -0.5502  0.5405
  593MOL0     C79926  10.147   4.161   1.543  0.9517  0.0423  0.2190
  593MOL0     C79927  10.081   4.208   1.659  1.6422 -0.5555  0.4369
  593MOL0     O79928  10.112   4.152   1.787 -0.9502  0.3324 -0.3901
  593MOL0     C79929  10.246   4.136   1.812 -0.8435 -0.1276  0.3599
  593MOL0     C79930  10.277   4.136   1.965 -0.4277  0.0211  0.3562
  593MOL0     C79931  10.412   4.078   1.982 -0.3096  0.6868 -0.0917
  593MOL0     C79932  10.458   4.074   2.130 -0.2009 -0.5904  0.0360
  593MOL0     C79933  10.394   3.960   2.224  0.2458 -0.4872 -1.0796
  593MOL0     C79934  10.510   3.866   2.245  0.1069 -0.5316  0.4033
  593MOL0     C79935  10.466   3.769   2.350 -0.3608  0.3027 -0.9145
  593MOL0     C79936  10.578   3.665   2.370  0.2247  0.8142 -0.5278
  593MOL0     N79937  10.577   3.585   2.242  0.1366  0.0290  0.7856
  593MOL0     C79938  10.684   3.583   2.148 -0.9476 -0.0721 -0.3978
  593MOL0     C79939  10.659   3.471   2.077  0.1720  0.0863  0.5948
  593MOL0     C79940  10.727   3.419   1.943  0.0518 -0.1472 -1.1582
  593MOL0     C79941  10.874   3.364   1.973  0.2431 -0.1465  0.6605
  593MOL0     C79942  10.975   3.467   1.916  0.3458  0.1994 -0.8340
  593MOL0     C79943  11.115   3.406   1.939  0.4016  0.2082 -0.1078
  593MOL0     O79944  11.199   3.487   1.871  0.2473 -0.7912 -0.4372
  593MOL0     C79945  11.336   3.457   1.857  1.3572 -0.2799  0.6936
  593MOL0     C79946  11.403   3.506   1.748 -0.3564  0.5201  0.2574
  593MOL0     C79947  11.539   3.492   1.730 -0.7459  0.6901 -0.5568
  593MOL0     C79948  11.609   3.403   1.816  0.6479 -0.4488  1.3328
  593MOL0     C79949  11.757   3.386   1.795 -0.1067 -0.0732  1.8183
  593MOL0     O79950  11.822   3.306   1.880  0.3987 -0.2474 -0.4621
  593MOL0     C79951  11.957   3.301   1.867 -0.9397 -0.0808 -0.2174
  593MOL0     C79952  12.046   3.415   1.851 -0.1589  0.1964 -0.6388
  593MOL0     C79953  12.182   3.380   1.828 -0.1020 -0.3356  1.2849
  593MOL0     C79954  12.243   3.250   1.835 -1.0793  0.5642  0.8177
  593MOL0     O79955  12.383   3.226   1.838  0.6528  0.3361  0.5347
  593MOL0     C79956  12.474   3.335   1.849  0.2934 -0.3599 -0.6435
  593MOL0     C79957  12.605   3.267   1.867  0.5447  0.0318 -0.1957
  593MOL0     C79958  12.660   3.198   1.739 -0.1954 -0.1412 -0.1013
  593MOL0     C79959  12.789   3.117   1.770 -0.2289 -0.3789 -0.0709
  593MOL0     C79960  12.768   2.968   1.759  0.8558 -0.2207 -0.6354
  593MOL0     C79961  12.905   2.909   1.806 -0.4580  0.3384 -0.3524
  593MOL0     C79962  12.925   2.758   1.760  0.0309  0.1228 -0.0207
  593MOL0     C79963  12.816   2.672   1.823  0.6089  0.2103 -0.5572
  593MOL0    Cl79964  12.841   2.635   2.009 -0.0226  0.3554  0.1466
  593MOL0     C79965  12.149   3.148   1.849 -0.3153  0.1919 -0.0204
  593MOL0     C79966  12.008   3.169   1.870 -0.1231 -0.7923 -0.3047
  593MOL0     O79967  11.808   3.447   1.700  0.1291  0.3426 -0.2356
  593MOL0     C79968  11.537   3.352   1.934 -0.2934  0.0753  0.2437
  593MOL0     C79969  11.407   3.387   1.951 -0.2667  0.3972  0.1133
  593MOL0     N79970  10.547   3.416   2.121 -0.6669  0.5310  0.0382
  593MOL0     N79971  10.510   3.471   2.225  0.4308  0.0360  0.4900
  593MOL0     C79972   9.981   4.302   1.644  0.2880 -0.4117 -0.4262
  593MOL0     C79973   9.951   4.363   1.518 -0.4107 -0.4490  0.1915
  593MOL0     C79974   9.933   4.390   1.038  0.3065  0.6757 -0.4423
  593MOL0     C79975   9.843   4.336   0.939 -0.0825 -0.4371 -0.5169
  593MOL0     C79976   9.846   4.376   0.808 -0.3443  0.9001  0.5266
  593MOL0     C79977   9.940   4.471   0.759  0.0157 -0.6807 -0.4519
  593MOL0     O79978   9.924   4.516   0.631 -0.2251 -0.3700  1.0248
  593MOL0     C79979  10.024   4.595   0.571  0.0430  0.2241  0.4390
  593MOL0     C79980  10.044   4.560   0.425  0.6449 -0.4187 -0.0105
  593MOL0     C79981  10.149   4.647   0.346  0.8846 -0.0758 -0.5361
  593MOL0     C79982  10.157   4.586   0.204 -0.2543  0.5089 -0.1204
  593MOL0     C79983  10.221   4.680   0.124  0.3464  0.2057 -0.2015
  593MOL0     C79984  10.284   4.749   0.048 -0.4361  0.3682 -0.6531
  593MOL0     C79985  10.033   4.523   0.852  0.1300  0.2799 -1.0145
  593MOL0     C79986  10.033   4.483   0.986 -1.1099 -0.2699 -0.1037
  593MOL0     C79987  10.152   4.536   1.063  0.6154  0.3062 -1.9192
  593MOL0     H79988  10.166   4.203   1.319  4.2669  1.2374  2.3262
  593MOL0     H79989  10.230   4.091   1.551 -0.2152 -1.2343  1.6855
  593MOL0     H79990  10.286   4.044   1.767  1.6093  2.3134 -2.8835
  593MOL0     H79991  10.306   4.214   1.765  0.5409 -2.2531 -1.6211
  593MOL0     H79992  10.206   4.070   2.015  0.1821 -2.6404 -2.0194
  593MOL0     H79993  10.273   4.235   2.011 -1.4871 -0.1351  0.6188
  593MOL0     H79994  10.490   4.133   1.928  1.4897 -2.3758 -0.8489
  593MOL0     H79995  10.421   3.978   1.940 -0.9205  1.3847 -1.9669
  593MOL0     H79996  10.561   4.041   2.116 -0.7465 -1.3143 -3.0746
  593MOL0     H79997  10.462   4.173   2.176  0.2942 -0.9292  0.7294
  593MOL0     H79998  10.349   3.999   2.316  2.3971  0.5885 -0.4148
  593MOL0     H79999  10.307   3.906   2.185 -0.2699 -1.4231  1.2022
  593MOL0     H80000  10.526   3.823   2.146  0.8334  2.5214 -0.9104
  593MOL0     H80001  10.591   3.928   2.285 -0.4073  0.4253  0.0074
  593MOL0     H80002  10.383   3.713   2.306  0.9109 -4.0769  1.6569
  593MOL0     H80003  10.434   3.812   2.446 -1.6719 -0.9419 -0.7568
  593MOL0     H80004  10.682   3.698   2.378  0.6419  0.2316 -2.8107
  593MOL0     H80005  10.535   3.604   2.450 -3.1549  2.3097 -1.0057
  593MOL0     H80006  10.758   3.659   2.124 -2.8390  1.9774 -0.0604
  593MOL0     H80007  10.679   3.331   1.900  0.8131 -0.5569 -1.1835
  593MOL0     H80008  10.743   3.505   1.878 -0.1611  2.2383  1.7304
  593MOL0     H80009  10.879   3.352   2.082 -2.7371 -2.1456  0.7089
  593MOL0     H80010  10.888   3.273   1.914 -0.6389  1.0884 -1.5523
  593MOL0     H80011  10.958   3.563   1.965  3.0312  0.5085 -0.3387
  593MOL0     H80012  10.949   3.489   1.812  0.9665  2.2443 -0.6042
  593MOL0     H80013  11.105   3.307   1.895  1.6539 -1.1692  2.4684
  593MOL0     H80014  11.148   3.393   2.043  2.3545 -1.2076 -0.8602
  593MOL0     H80015  11.361   3.575   1.676  0.5728 -1.4328 -2.2885
  593MOL0     H80016  11.583   3.535   1.641  0.5602 -1.2145 -0.8847
  593MOL0     H80017  12.008   3.517   1.851 -2.0451 -0.4467  0.4729
  593MOL0     H80018  12.247   3.465   1.814 -1.6111  0.3747 -2.5675
  593MOL0     H80019  12.475   3.395   1.758 -0.9411  1.2904  0.3726
  593MOL0     H80020  12.445   3.401   1.932  0.3393 -0.8523 -0.2271
  593MOL0     H80021  12.670   3.351   1.892 -0.9939  0.7442  1.7540
  593MOL0     H80022  12.600   3.195   1.949 -0.7141 -0.1478 -0.4032
  593MOL0     H80023  12.587   3.135   1.687 -1.4055  2.3530 -1.5848
  593MOL0     H80024  12.685   3.282   1.674  1.3457  0.3360  1.0475
  593MOL0     H80025  12.833   3.141   1.867  0.8329 -2.0794 -0.0856
  593MOL0     H80026  12.863   3.140   1.693 -2.2774  0.2588 -1.9216
  593MOL0     H80027  12.736   2.933   1.660 -0.7418  0.4685 -0.4011
  593MOL0     H80028  12.680   2.929   1.811 -0.1784 -1.3802 -3.0736
  593MOL0     H80029  12.988   2.965   1.761 -0.6003  1.0739  0.2958
  593MOL0     H80030  12.916   2.904   1.915 -2.0284 -2.7591 -0.2148
  593MOL0     H80031  13.023   2.714   1.779 -1.3095 -2.6133  0.9989
  593MOL0     H80032  12.910   2.755   1.651 -3.4796 -1.6037  0.3584
  593MOL0     H80033  12.718   2.721   1.816  0.6185  0.9589  2.8857
  593MOL0     H80034  12.812   2.571   1.782 -2.8351  0.5332 -1.3546
  593MOL0     H80035  12.188   3.047   1.859  1.1985  0.2471 -3.6697
  593MOL0     H80036  11.948   3.079   1.863 -4.6071  1.8600  0.3210
  593MOL0     H80037  11.600   3.301   2.006  1.1648  0.6962 -0.5487
  593MOL0     H80038  11.366   3.340   2.040 -0.3742 -0.3947 -0.3472
  593MOL0     H80039   9.924   4.332   1.731 -1.4350  0.8602 -1.9360
  593MOL0     H80040   9.879   4.444   1.507 -0.8968 -1.1575 -2.4266
  593MOL0     H80041   9.777   4.257   0.973  0.5681 -2.1091 -2.9129
  593MOL0     H80042   9.780   4.323   0.740  0.4881 -0.2296  0.5738
  593MOL0     H80043  10.115   4.563   0.622 -0.6800 -1.4174  0.7817
  593MOL0     H80044  10.012   4.703   0.585 -1.7802  0.1017  0.0802
  593MOL0     H80045   9.949   4.563   0.372  0.1631  1.3176  0.8902
  593MOL0     H80046  10.082   4.457   0.426 -1.4988 -1.3167 -1.6697
  593MOL0     H80047  10.252   4.645   0.383  0.5066 -0.5225  0.5324
  593MOL0     H80048  10.112   4.750   0.336  1.4705 -0.0048 -2.2410
  593MOL0     H80049  10.221   4.497   0.211  0.9044  1.3160 -0.2051
  593MOL0     H80050  10.059   4.568   0.158 -1.5028  1.4713  2.0073
  593MOL0     H80051  10.340   4.800  -0.027 -1.2688  4.0480  0.9736
  593MOL0     H80052  10.106   4.597   0.820 -2.3439  3.2103 -0.3702
  593MOL0     H80053  10.191   4.615   0.998 -1.0851  1.6648 -1.3626
  593MOL0     H80054  10.123   4.574   1.162 -1.4520 -2.6739 -1.2525
  593MOL0     H80055  10.224   4.457   1.084 -0.6489 -0.4421 -0.1214
  594MOL0     O80056   9.999   6.663   3.955 -0.3236 -0.0303 -0.2817
  594MOL0     C80057  10.066   6.643   4.058  0.1099  0.1357  0.8668
  594MOL0     O80058  10.182   6.572   4.061 -0.2722 -0.8679  0.5991
  594MOL0     C80059  10.249   6.555   3.945  0.0762  0.7355  0.6378
  594MOL0     C80060  10.368   6.615   3.916  0.6215  0.2960 -0.5721
  594MOL0     C80061  10.438   6.609   3.792  0.4849 -0.2617  0.4008
  594MOL0     C80062  10.380   6.542   3.692 -0.2232  0.7890 -0.0842
  594MOL0     O80063  10.413   6.517   3.555  0.0535 -0.0369 -0.2568
  594MOL0     C80064  10.503   6.618   3.512  0.1925  1.2417  0.1877
  594MOL0     C80065  10.529   6.604   3.358  0.3498  0.0828  0.4657
  594MOL0     C80066  10.644   6.708   3.331 -1.0118  0.2701 -0.0858
  594MOL0     C80067  10.653   6.740   3.178 -0.6049  0.2122 -1.0904
  594MOL0     C80068  10.790   6.810   3.171 -0.1878 -0.3099  0.1677
  594MOL0     C80069  10.786   6.958   3.203 -0.1506  0.1942 -0.2741
  594MOL0     C80070  10.704   7.042   3.109  0.2308 -0.6046 -0.5536
  594MOL0     C80071  10.734   7.033   2.964 -0.0404  0.0894 -0.5013
  594MOL0     N80072  10.878   7.067   2.937  0.2065  0.0462  0.5350
  594MOL0     C80073  10.942   7.185   2.966 -0.3226 -0.0893  0.6095
  594MOL0     C80074  11.072   7.164   2.952 -0.4250 -0.0539  0.3128
  594MOL0     C80075  11.179   7.266   2.976 -0.3508  0.3150  0.0818
  594MOL0     C80076  11.305   7.216   3.053  0.5433  0.6061 -0.1086
  594MOL0     C80077  11.416   7.134   2.984 -1.0117 -0.0412  0.0425
  594MOL0     C80078  11.424   6.991   3.044  0.5633 -0.3125  0.1281
  594MOL0     O80079  11.465   6.994   3.180  0.7901 -0.0186 -1.2553
  594MOL0     C80080  11.472   6.871   3.237 -0.6070  0.1367 -0.0753
  594MOL0     C80081  11.379   6.766   3.218  0.7120 -0.1508  0.1525
  594MOL0     C80082  11.402   6.640   3.275  0.4585 -0.1235  0.5194
  594MOL0     C80083  11.518   6.617   3.345  0.4267  0.2029 -0.5211
  594MOL0     C80084  11.528   6.481   3.415  0.5513  0.8805 -0.0263
  594MOL0     O80085  11.599   6.469   3.526 -0.0162  0.1315 -0.7500
  594MOL0     C80086  11.597   6.355   3.606 -0.4703  0.1346  0.6694
  594MOL0     C80087  11.550   6.227   3.581 -0.1841  0.9324  0.5826
  594MOL0     C80088  11.564   6.123   3.668  0.0914  1.7759  0.1665
  594MOL0     C80089  11.621   6.137   3.793  0.1631 -1.3527 -0.1015
  594MOL0     O80090  11.661   6.027   3.868  0.2303  0.4378 -0.1311
  594MOL0     C80091  11.800   6.007   3.859 -1.0413  0.1985 -0.0259
  594MOL0     C80092  11.842   5.917   3.975 -0.7780  1.5311  0.8700
  594MOL0     C80093  11.995   5.896   3.985  0.2673 -0.3233  0.3555
  594MOL0     C80094  12.047   5.795   3.893 -0.2875  0.3044  0.6927
  594MOL0     C80095  12.192   5.750   3.930 -0.8014 -0.5330  0.1931
  594MOL0     C80096  12.227   5.612   3.876  0.9107  0.8449  0.9733
  594MOL0     C80097  12.243   5.598   3.720  0.5310 -0.6496 -0.7828
  594MOL0     C80098  12.181   5.460   3.679  0.5714 -0.1462  0.2258
  594MOL0    Cl80099  12.263   5.331   3.755 -0.2015  0.2062  0.1932
  594MOL0     C80100  11.667   6.269   3.827 -0.9209 -0.7537 -0.1415
  594MOL0     C80101  11.658   6.371   3.733  0.2368 -1.1898  0.3081
  594MOL0     O80102  11.444   6.396   3.374 -0.3479  0.3910 -0.3466
  594MOL0     C80103  11.612   6.710   3.357 -0.5031 -0.7827 -0.2014
  594MOL0     C80104  11.585   6.848   3.313  0.7557  0.7620 -0.3380
  594MOL0     N80105  11.089   7.029   2.926 -0.5096  0.1920 -0.2734
  594MOL0     N80106  10.971   6.970   2.912 -0.5055 -0.2959 -0.6937
  594MOL0     C80107  10.261   6.466   3.721  0.8020  0.8358 -0.2858
  594MOL0     C80108  10.188   6.478   3.841 -0.6198  0.1846  0.8583
  594MOL0     C80109  10.007   6.680   4.198  0.2062 -0.0956  0.0142
  594MOL0     C80110  10.095   6.665   4.308  0.4857  0.3449 -0.3647
  594MOL0     C80111  10.053   6.710   4.430 -1.1963  0.1847 -0.4950
  594MOL0     C80112   9.929   6.768   4.450 -0.6610 -0.8451 -0.0943
  594MOL0     O80113   9.877   6.802   4.573  0.0461  0.2804 -0.8184
  594MOL0     C80114   9.946   6.762   4.688  0.3118 -0.2579 -0.0695
  594MOL0     C80115   9.872   6.797   4.825 -0.1097  0.2191 -0.5876
  594MOL0     C80116   9.751   6.702   4.855 -1.0895  0.2378  0.9156
  594MOL0     C80117   9.693   6.740   4.990  0.1237  0.7494  0.4419
  594MOL0     C80118   9.581   6.836   4.974 -0.5383  0.7774 -0.3918
  594MOL0     C80119   9.512   6.930   4.980  0.0039 -0.3819  0.4590
  594MOL0     C80120   9.846   6.783   4.342  0.8579  0.7200  0.2734
  594MOL0     C80121   9.885   6.746   4.209  0.1379 -0.2907  0.1161
  594MOL0     C80122   9.781   6.788   4.101  0.5180 -0.8173  0.3555
  594MOL0     H80123  10.408   6.681   3.993 -0.5327  0.4348 -0.0690
  594MOL0     H80124  10.530   6.665   3.777 -0.2259  0.7305 -0.4358
  594MOL0     H80125  10.457   6.716   3.524  0.6687  1.3890  0.8142
  594MOL0     H80126  10.596   6.599   3.565  0.8373 -1.7294 -1.7631
  594MOL0     H80127  10.445   6.628   3.293  0.9744  3.4761  0.7144
  594MOL0     H80128  10.550   6.499   3.336 -0.2881  0.0927 -0.2247
  594MOL0     H80129  10.743   6.670   3.360  1.0293  2.0162 -3.9955
  594MOL0     H80130  10.626   6.804   3.381 -1.9888  1.1784 -2.0901
  594MOL0     H80131  10.651   6.644   3.125 -0.2995  0.3303 -1.3119
  594MOL0     H80132  10.572   6.803   3.140  0.6763  2.5522 -0.1746
  594MOL0     H80133  10.873   6.765   3.226  1.5731 -1.1187 -2.8986
  594MOL0     H80134  10.835   6.814   3.071 -0.6999 -0.4205 -0.0705
  594MOL0     H80135  10.751   6.960   3.307  1.3840 -3.4638  0.5129
  594MOL0     H80136  10.886   7.003   3.204 -0.4777  0.9223 -0.2894
  594MOL0     H80137  10.729   7.146   3.133 -1.8609 -0.2258  0.2792
  594MOL0     H80138  10.596   7.032   3.126 -0.6026  4.7337 -0.7942
  594MOL0     H80139  10.711   6.930   2.934 -1.6489 -1.4517  4.7839
  594MOL0     H80140  10.669   7.105   2.914 -0.1822  1.8248  2.0017
  594MOL0     H80141  10.898   7.277   3.003 -4.3124 -1.6871  0.2434
  594MOL0     H80142  11.213   7.310   2.882  2.2932  1.6793  1.5449
  594MOL0     H80143  11.130   7.347   3.032 -1.2531  1.8269 -2.6908
  594MOL0     H80144  11.346   7.309   3.093 -0.5259  0.1147  2.2686
  594MOL0     H80145  11.261   7.153   3.131 -0.6522  2.2194  0.5637
  594MOL0     H80146  11.510   7.190   2.990 -2.3902  2.4423 -0.2287
  594MOL0     H80147  11.407   7.130   2.875  0.2010 -0.3261 -0.0635
  594MOL0     H80148  11.504   6.939   2.991  0.4459 -0.0972 -0.2570
  594MOL0     H80149  11.329   6.940   3.026  1.7253 -2.1983 -0.9883
  594MOL0     H80150  11.289   6.779   3.159 -0.1701  0.2339  1.5326
  594MOL0     H80151  11.320   6.569   3.269  0.6149 -0.4590  1.9360
  594MOL0     H80152  11.513   6.205   3.481  1.1294 -3.0200  0.7861
  594MOL0     H80153  11.551   6.021   3.633 -0.7767  1.4090  1.5048
  594MOL0     H80154  11.812   5.954   3.764 -1.7902  0.0078 -0.0241
  594MOL0     H80155  11.852   6.103   3.853  0.0379 -0.2231  1.7774
  594MOL0     H80156  11.812   5.968   4.067  1.7772  2.7361  1.0960
  594MOL0     H80157  11.785   5.824   3.965  0.0136  1.0740  0.4842
  594MOL0     H80158  12.040   5.994   3.968 -0.0192 -0.3485 -0.6019
  594MOL0     H80159  12.013   5.861   4.087  2.1751  0.2049  0.2421
  594MOL0     H80160  12.041   5.839   3.793  0.5331  1.2827  1.0638
  594MOL0     H80161  11.988   5.703   3.891  0.6922 -0.4125 -3.0308
  594MOL0     H80162  12.200   5.753   4.039 -0.7448  1.4445  0.1726
  594MOL0     H80163  12.263   5.825   3.895 -1.2259  1.4933  3.2758
  594MOL0     H80164  12.326   5.582   3.912 -0.0987 -0.3944  2.8581
  594MOL0     H80165  12.152   5.536   3.898 -0.2619  1.3747 -0.9300
  594MOL0     H80166  12.348   5.611   3.694  0.3853  1.7222 -0.3721
  594MOL0     H80167  12.183   5.674   3.670 -0.1556 -0.2000  0.6632
  594MOL0     H80168  12.074   5.455   3.700  0.4530 -3.0591 -0.5137
  594MOL0     H80169  12.189   5.452   3.570 -0.6348  1.5015 -0.0171
  594MOL0     H80170  11.728   6.289   3.915  0.7183 -1.2404 -1.1123
  594MOL0     H80171  11.703   6.459   3.779  3.6305 -1.4348 -2.1616
  594MOL0     H80172  11.692   6.669   3.418 -2.5904  0.9780  4.1503
  594MOL0     H80173  11.646   6.936   3.325 -3.2979  3.8556 -0.0521
  594MOL0     H80174  10.219   6.402   3.644 -1.5548 -0.3861  1.8700
  594MOL0     H80175  10.096   6.420   3.851 -0.5710  0.2990  2.0778
  594MOL0     H80176  10.194   6.621   4.298  0.5702  0.0811  1.3534
  594MOL0     H80177  10.126   6.706   4.510 -1.2495 -2.5017 -0.4973
  594MOL0     H80178  10.043   6.810   4.678 -0.8481  2.0330 -1.0812
  594MOL0     H80179   9.953   6.653   4.680 -1.2589 -0.5074  1.2383
  594MOL0     H80180   9.837   6.900   4.830  0.5518  0.4423 -0.4302
  594MOL0     H80181   9.945   6.785   4.906 -0.8727  1.3570  0.3012
  594MOL0     H80182   9.805   6.609   4.875 -0.9422 -0.0304 -0.6015
  594MOL0     H80183   9.679   6.688   4.774 -0.1835  3.0823 -0.5262
  594MOL0     H80184   9.650   6.658   5.048 -1.6604  0.2339 -1.4663
  594MOL0     H80185   9.767   6.789   5.053 -1.3734  1.2889  1.8475
  594MOL0     H80186   9.453   7.019   4.974  0.3794 -0.1756 -0.2939
  594MOL0     H80187   9.751   6.829   4.366  1.7049  1.0862  3.4728
  594MOL0     H80188   9.734   6.708   4.043  1.6523  0.3930 -2.4128
  594MOL0     H80189   9.698   6.832   4.157 -0.3654 -2.5895  0.5045
  594MOL0     H80190   9.820   6.861   4.029  0.9400 -0.7480  0.6497
  595MOL0     O80191   4.290   6.026   1.763  0.1243 -0.4459  0.0289
  595MOL0     C80192   4.401   6.078   1.780 -0.5745 -0.7694 -0.4977
  595MOL0     O80193   4.432   6.213   1.776  0.0071  0.7804 -0.1616
  595MOL0     C80194   4.338   6.311   1.790  0.8009  0.1569 -1.1976
  595MOL0     C80195   4.197   6.304   1.772 -0.1855  0.7462  0.3352
  595MOL0     C80196   4.116   6.413   1.806 -0.1251 -0.2842  0.4132
  595MOL0     C80197   4.162   6.537   1.854 -0.3931  0.1037  0.6502
  595MOL0     O80198   4.097   6.661   1.867 -0.0528  0.1936 -0.2136
  595MOL0     C80199   3.997   6.680   1.767  0.8879  1.1996  0.0997
  595MOL0     C80200   3.949   6.815   1.737  0.0103  0.0900 -0.1344
  595MOL0     C80201   3.907   6.898   1.859  0.3534  0.0499 -0.1127
  595MOL0     C80202   3.777   6.855   1.928  0.9171  0.2157  1.0161
  595MOL0     C80203   3.766   6.913   2.072  0.0232 -0.5844 -0.0092
  595MOL0     C80204   3.866   6.857   2.177  0.0391  0.2689  0.3506
  595MOL0     C80205   3.835   6.920   2.309 -0.4882  0.0176 -0.4543
  595MOL0     C80206   3.952   6.899   2.410  0.4071 -0.6584 -0.4321
  595MOL0     N80207   3.922   6.966   2.541 -0.1890  0.5741 -0.3688
  595MOL0     C80208   3.873   6.899   2.648 -0.2791  0.0997  0.1000
  595MOL0     C80209   3.840   6.991   2.737  0.2225 -0.0586 -0.3697
  595MOL0     C80210   3.792   6.964   2.876 -0.7500 -0.1920  0.7670
  595MOL0     C80211   3.706   6.836   2.895 -1.1951 -0.3757 -0.3152
  595MOL0     C80212   3.575   6.838   2.807 -0.4815 -0.8181  0.0608
  595MOL0     C80213   3.492   6.715   2.830  0.2734 -0.0025  0.5739
  595MOL0     O80214   3.453   6.727   2.965 -0.0539 -0.4942  0.2815
  595MOL0     C80215   3.349   6.648   3.023 -0.3243 -0.8424  1.1711
  595MOL0     C80216   3.300   6.533   2.963  0.2848  0.6517 -0.8200
  595MOL0     C80217   3.181   6.470   3.016 -1.5511 -0.1336 -0.7847
  595MOL0     C80218   3.107   6.541   3.116  0.3121 -0.2712 -0.1607
  595MOL0     C80219   2.980   6.481   3.172  0.3759  0.7077  0.4775
  595MOL0     O80220   2.909   6.556   3.249  0.3491 -0.6377  0.1460
  595MOL0     C80221   2.784   6.521   3.278 -0.0980 -0.2726  0.6565
  595MOL0     C80222   2.687   6.490   3.180 -0.2370  0.0707 -0.4596
  595MOL0     C80223   2.560   6.448   3.217  0.3464 -0.4596 -0.4494
  595MOL0     C80224   2.522   6.428   3.353 -0.6773 -0.8528 -1.0848
  595MOL0     O80225   2.395   6.397   3.392  0.5834  0.0370 -0.0370
  595MOL0     C80226   2.372   6.259   3.410 -0.0427  0.7594  0.4947
  595MOL0     C80227   2.226   6.251   3.449  0.1900 -0.3908 -0.5675
  595MOL0     C80228   2.183   6.129   3.523  0.0912  0.1611  0.8284
  595MOL0     C80229   2.233   6.112   3.670  0.2118 -0.0418  0.0130
  595MOL0     C80230   2.212   5.972   3.730 -0.1552  0.6758 -0.6061
  595MOL0     C80231   2.083   5.897   3.682  0.3642  0.2506 -0.1646
  595MOL0     C80232   2.059   5.762   3.755  0.4625 -0.2154  0.6693
  595MOL0     C80233   1.940   5.681   3.693 -0.3230  0.2934  0.7316
  595MOL0    Cl80234   2.023   5.616   3.545  0.1624 -0.2222 -0.0983
  595MOL0     C80235   2.622   6.459   3.449  0.6619  0.4043  0.2470
  595MOL0     C80236   2.752   6.500   3.408  0.9448 -0.4108  0.1220
  595MOL0     O80237   2.953   6.373   3.121  0.3956  0.6548 -0.1473
  595MOL0     C80238   3.159   6.662   3.173 -0.3527 -0.4957  0.0009
  595MOL0     C80239   3.282   6.716   3.120 -0.0394 -0.0580  0.0545
  595MOL0     N80240   3.849   7.113   2.677 -0.2773  0.3122  0.6290
  595MOL0     N80241   3.907   7.097   2.561 -0.4889 -0.2208  0.9619
  595MOL0     C80242   4.299   6.549   1.856 -0.2812  1.0355 -0.1325
  595MOL0     C80243   4.381   6.436   1.835  0.2262  0.2040  0.3713
  595MOL0     C80244   4.508   5.989   1.801 -0.2445  0.3871  0.3202
  595MOL0     C80245   4.521   5.938   1.925  0.2348  0.0740 -0.0449
  595MOL0     C80246   4.622   5.851   1.960  0.6411 -0.2052 -0.3366
  595MOL0     C80247   4.738   5.839   1.882 -0.3284  0.1892 -0.6236
  595MOL0     O80248   4.857   5.775   1.912  0.4594  0.0909  0.0801
  595MOL0     C80249   4.896   5.765   2.047  0.7145  0.2030  0.6011
  595MOL0     C80250   4.898   5.902   2.108  0.2177  0.2686  0.2167
  595MOL0     C80251   4.998   5.899   2.225 -0.1001  0.3352 -0.4732
  595MOL0     C80252   4.980   6.018   2.330  0.5020 -0.0290 -0.3189
  595MOL0     C80253   4.834   6.059   2.347  1.1626 -0.3909 -0.2793
  595MOL0     C80254   4.718   6.090   2.353 -0.2598 -0.1458 -0.4431
  595MOL0     C80255   4.730   5.891   1.756 -0.4055 -0.0306 -0.1741
  595MOL0     C80256   4.620   5.970   1.715  0.5412  0.0934 -0.0496
  595MOL0     C80257   4.617   6.037   1.583  0.2427  0.0460 -0.8884
  595MOL0     H80258   4.146   6.223   1.722  1.8248  0.4475 -1.3926
  595MOL0     H80259   4.009   6.413   1.791  0.0952  0.9163 -1.4780
  595MOL0     H80260   4.025   6.636   1.670 -1.6121  1.0057 -0.5962
  595MOL0     H80261   3.908   6.629   1.804  0.9423  1.5287  0.6926
  595MOL0     H80262   3.859   6.811   1.674 -1.5285 -2.0365  2.0146
  595MOL0     H80263   4.015   6.875   1.674 -0.2637  0.0019 -0.5124
  595MOL0     H80264   3.901   7.006   1.845  2.1126  0.3050  0.7723
  595MOL0     H80265   3.989   6.885   1.930 -0.5321  0.6160  1.0501
  595MOL0     H80266   3.699   6.900   1.866 -2.2860 -0.8865  4.0010
  595MOL0     H80267   3.768   6.747   1.934  1.8682 -0.4055 -3.9576
  595MOL0     H80268   3.774   7.022   2.070 -1.1509 -0.4888 -0.0680
  595MOL0     H80269   3.667   6.891   2.112  0.6663 -2.3399  0.7127
  595MOL0     H80270   3.848   6.749   2.174  4.0333 -0.5147 -1.4192
  595MOL0     H80271   3.966   6.877   2.138 -1.2692  0.2835 -3.3677
  595MOL0     H80272   3.735   6.891   2.342 -0.4774 -2.1891 -2.1250
  595MOL0     H80273   3.854   7.026   2.289  0.4880 -0.4241 -2.1221
  595MOL0     H80274   3.957   6.791   2.425  1.3216 -0.2417  3.1901
  595MOL0     H80275   4.050   6.930   2.372  0.8001 -0.3369  0.8049
  595MOL0     H80276   3.854   6.792   2.656 -0.8554  0.2206  0.3583
  595MOL0     H80277   3.879   6.965   2.943 -0.4146  1.1584  0.3312
  595MOL0     H80278   3.736   7.054   2.901 -0.0937  0.9308 -1.5579
  595MOL0     H80279   3.769   6.751   2.868 -2.2091 -1.0570 -0.5977
  595MOL0     H80280   3.685   6.813   2.999 -0.0560 -0.0484  0.0039
  595MOL0     H80281   3.607   6.836   2.702  2.1798 -1.6148  0.8124
  595MOL0     H80282   3.514   6.927   2.821 -2.5991 -2.0263 -1.0568
  595MOL0     H80283   3.565   6.635   2.810  0.3417  0.9389 -3.8824
  595MOL0     H80284   3.407   6.717   2.762  1.0869  4.3113 -0.6036
  595MOL0     H80285   3.342   6.492   2.872 -3.1818 -0.1995 -2.1574
  595MOL0     H80286   3.149   6.380   2.965 -1.6799  0.1478 -1.2092
  595MOL0     H80287   2.712   6.506   3.076 -0.8940 -0.0405 -0.6365
  595MOL0     H80288   2.483   6.439   3.142  1.0343 -1.9237 -1.0187
  595MOL0     H80289   2.395   6.192   3.327 -1.0341  0.8812  0.1032
  595MOL0     H80290   2.430   6.234   3.500  0.3166 -0.2411  0.0003
  595MOL0     H80291   2.188   6.336   3.506 -0.6358 -0.1651 -1.4194
  595MOL0     H80292   2.177   6.264   3.352  0.1972 -0.9946 -0.6512
  595MOL0     H80293   2.074   6.142   3.524 -0.2312 -1.5560 -1.7983
  595MOL0     H80294   2.203   6.042   3.460  1.3475  1.3963 -0.5365
  595MOL0     H80295   2.176   6.182   3.732 -0.6871 -1.7588  1.2254
  595MOL0     H80296   2.341   6.126   3.683 -0.2306  3.4424  0.9923
  595MOL0     H80297   2.212   5.972   3.839  0.5619 -1.6012 -0.5598
  595MOL0     H80298   2.299   5.913   3.702 -0.8034 -2.9867  3.9606
  595MOL0     H80299   2.001   5.966   3.704  0.7412  0.3337  1.0434
  595MOL0     H80300   2.090   5.875   3.575 -0.6352 -1.2776  0.0408
  595MOL0     H80301   2.048   5.788   3.861 -0.7417  1.0784  0.2433
  595MOL0     H80302   2.150   5.701   3.746 -0.1698 -1.1204  0.2908
  595MOL0     H80303   1.916   5.596   3.757  3.1024  0.6493  2.6927
  595MOL0     H80304   1.860   5.747   3.659  2.1040  2.6816 -0.7146
  595MOL0     H80305   2.605   6.460   3.556 -0.7292 -0.8143  0.0584
  595MOL0     H80306   2.835   6.503   3.478  1.6204 -0.8568 -0.6581
  595MOL0     H80307   3.103   6.704   3.255  1.1354  0.4071  0.5826
  595MOL0     H80308   3.318   6.812   3.158 -0.8704  0.3303 -0.1241
  595MOL0     H80309   4.349   6.640   1.884 -0.9735  1.1171  0.8842
  595MOL0     H80310   4.488   6.449   1.842  1.0685 -2.6140 -3.8119
  595MOL0     H80311   4.437   5.970   1.987  0.0131 -2.0509  0.8698
  595MOL0     H80312   4.615   5.805   2.058 -2.2613  0.3465 -0.1829
  595MOL0     H80313   4.994   5.717   2.046  0.7776  0.1996 -2.5269
  595MOL0     H80314   4.831   5.686   2.087 -1.5430 -0.1836 -3.3063
  595MOL0     H80315   4.794   5.913   2.141 -0.2334 -0.6673 -0.8231
  595MOL0     H80316   4.939   5.976   2.038 -1.2695  1.4320  0.5180
  595MOL0     H80317   5.101   5.897   2.190 -0.0453 -3.3746 -0.4629
  595MOL0     H80318   4.991   5.807   2.283  0.9079  1.3638  1.3755
  595MOL0     H80319   5.017   5.984   2.427  0.9873  0.9066 -0.1708
  595MOL0     H80320   5.040   6.106   2.305  0.9057 -0.4474 -0.8466
  595MOL0     H80321   4.613   6.073   2.361  0.0200 -1.8461  0.0299
  595MOL0     H80322   4.816   5.886   1.690 -1.4046 -0.0260 -1.5070
  595MOL0     H80323   4.591   6.143   1.587 -2.8778 -0.6604  1.5525
  595MOL0     H80324   4.713   6.035   1.531  2.0252 -0.8567  2.1938
  595MOL0     H80325   4.541   5.987   1.522  1.2289 -0.2300 -1.9305
  596MOL0     O80326   0.161   9.950   5.972  0.4507  0.4289  0.0119
  596MOL0     C80327   0.223   9.937   6.082  0.6531 -0.2143  0.0670
  596MOL0     O80328   0.359   9.918   6.090  0.5016  0.6915  0.3767
  596MOL0     C80329   0.446   9.917   5.985 -0.6160 -0.4144  0.2405
  596MOL0     C80330   0.418   9.903   5.845 -0.5726 -0.2486 -0.2543
  596MOL0     C80331   0.519   9.921   5.748  0.5135  0.5785 -0.6479
  596MOL0     C80332   0.648   9.944   5.785  0.8441 -0.9269 -0.3366
  596MOL0     O80333   0.747   9.982   5.700  0.5482  0.3528  0.7726
  596MOL0     C80334   0.845   9.878   5.677 -0.5003  0.7648  0.0898
  596MOL0     C80335   0.991   9.931   5.695  0.2117  0.0978  0.2059
  596MOL0     C80336   1.081   9.818   5.641  0.3144 -0.1996 -0.2783
  596MOL0     C80337   1.207   9.876   5.565  0.9666 -0.0749 -0.1823
  596MOL0     C80338   1.283   9.760   5.512 -0.0859  0.4320  0.3676
  596MOL0     C80339   1.389   9.810   5.422  0.2012  0.1556  0.3473
  596MOL0     C80340   1.466   9.688   5.359 -0.6711  0.2331 -0.0183
  596MOL0     C80341   1.556   9.727   5.247  0.0193 -0.1694  0.3706
  596MOL0     N80342   1.614   9.617   5.168 -0.2803  0.9543 -0.6711
  596MOL0     C80343   1.690   9.633   5.052  0.1770  0.6707 -0.1281
  596MOL0     C80344   1.718   9.502   5.022 -0.4682  1.1070  0.2408
  596MOL0     C80345   1.792   9.453   4.900  0.2722 -0.5284 -0.3028
  596MOL0     C80346   1.739   9.510   4.772  0.1448  0.1983 -0.0157
  596MOL0     C80347   1.603   9.459   4.720  0.5192 -0.5340 -0.1778
  596MOL0     C80348   1.606   9.324   4.648  0.6566 -0.3783 -0.3125
  596MOL0     O80349   1.638   9.342   4.513 -0.0845  0.6408  0.9168
  596MOL0     C80350   1.770   9.309   4.483 -0.0715 -0.3404  0.6829
  596MOL0     C80351   1.824   9.184   4.496 -0.4297  0.3069 -0.1411
  596MOL0     C80352   1.954   9.164   4.455 -0.1037 -0.2179 -0.6156
  596MOL0     C80353   2.037   9.261   4.395 -0.1921  0.7004  0.0852
  596MOL0     C80354   2.181   9.248   4.362  0.1940 -0.2241  0.6109
  596MOL0     O80355   2.258   9.365   4.371  0.5369 -1.1271 -1.1565
  596MOL0     C80356   2.393   9.374   4.344  0.4753 -0.0102 -0.5818
  596MOL0     C80357   2.438   9.503   4.324 -0.2390  1.3804  0.0822
  596MOL0     C80358   2.573   9.523   4.290 -0.0184 -1.0923  0.4141
  596MOL0     C80359   2.661   9.419   4.273  0.7924  0.9087  0.0246
  596MOL0     O80360   2.790   9.458   4.240  0.2337 -0.1196 -0.2318
  596MOL0     C80361   2.900   9.357   4.227 -0.4730  0.6789 -0.4738
  596MOL0     C80362   3.033   9.416   4.177  0.4771  0.0807  0.5059
  596MOL0     C80363   3.135   9.303   4.146  1.1955  0.2448  1.0379
  596MOL0     C80364   3.272   9.361   4.094 -0.7069  0.4919  0.6823
  596MOL0     C80365   3.387   9.263   4.085 -0.1584 -0.8715 -0.8133
  596MOL0     C80366   3.365   9.128   4.013  1.1849 -0.3545 -0.0743
  596MOL0     C80367   3.488   9.082   3.934  0.0423 -0.3709  1.1157
  596MOL0     C80368   3.465   8.998   3.807  0.7066 -0.8324  0.1523
  596MOL0    Cl80369   3.621   8.969   3.721  0.2460  0.1869  0.5597
  596MOL0     C80370   2.619   9.291   4.311 -0.3687 -1.1121 -0.1747
  596MOL0     C80371   2.485   9.267   4.356  0.1350 -0.2806  1.2675
  596MOL0     O80372   2.225   9.142   4.329  0.7965 -0.4771 -0.0574
  596MOL0     C80373   1.977   9.388   4.386 -0.3318 -0.3299  0.4498
  596MOL0     C80374   1.849   9.412   4.427 -0.0565  0.0206 -0.0575
  596MOL0     N80375   1.668   9.417   5.117 -0.5040  0.5697 -0.6622
  596MOL0     N80376   1.607   9.490   5.207 -0.0997  0.9113  0.3603
  596MOL0     C80377   0.677   9.958   5.922 -0.2172 -0.8009  0.3600
  596MOL0     C80378   0.573   9.937   6.019 -0.5262  0.2138  0.2792
  596MOL0     C80379   0.149   9.951   6.219  1.2217  0.2643  0.5911
  596MOL0     C80380   0.227   9.973   6.334 -0.7383 -0.0594 -0.3757
  596MOL0     C80381   0.165   9.971   6.459 -0.9760 -0.8794 -0.1005
  596MOL0     C80382   0.019   9.977   6.468 -0.9478  0.4057 -0.6193
  596MOL0     O80383  -0.053   9.990   6.584 -0.8711  0.7047 -0.3602
  596MOL0     C80384   0.014   9.993   6.711 -0.1317 -0.5261  0.1204
  596MOL0     C80385  -0.084   9.983   6.834  0.5465 -0.0651 -0.0395
  596MOL0     C80386  -0.009   9.963   6.970 -0.2464 -0.3161 -0.4919
  596MOL0     C80387  -0.103   9.942   7.090 -0.3863  0.8488  0.8796
  596MOL0     C80388  -0.201   9.830   7.072 -0.4802 -0.5731 -0.4183
  596MOL0     C80389  -0.271   9.741   7.050  0.5242 -0.3749 -0.1283
  596MOL0     C80390  -0.057   9.962   6.354 -0.1425 -1.1973  1.4115
  596MOL0     C80391   0.000   9.956   6.224 -0.0643 -0.3893  0.2293
  596MOL0     C80392  -0.095   9.951   6.098 -0.6288 -0.0356 -0.4894
  596MOL0     H80393   0.319   9.878   5.807 -1.2429 -0.5443  1.5765
  596MOL0     H80394   0.488   9.905   5.645 -1.8083 -3.5702  0.4580
  596MOL0     H80395   0.835   9.797   5.750 -0.3408  1.6203  1.0975
  596MOL0     H80396   0.829   9.857   5.571  0.0866 -0.4273  0.2315
  596MOL0     H80397   1.011   9.949   5.801  0.4893 -2.5386  0.6676
  596MOL0     H80398   1.011  10.022   5.639 -1.3321 -1.4824 -3.1943
  596MOL0     H80399   1.030   9.749   5.572  0.8019 -1.0548  0.1897
  596MOL0     H80400   1.124   9.756   5.720  3.1181  2.1356  0.1903
  596MOL0     H80401   1.167   9.940   5.486 -2.0227 -0.6342  0.7601
  596MOL0     H80402   1.260   9.945   5.631 -1.8689  2.3236 -0.2026
  596MOL0     H80403   1.340   9.714   5.592 -0.1763  1.6538  1.1593
  596MOL0     H80404   1.214   9.685   5.473  0.2963 -0.4825  1.4139
  596MOL0     H80405   1.351   9.877   5.344 -0.9399 -1.8949 -0.9336
  596MOL0     H80406   1.468   9.860   5.480  0.3517 -1.4113  1.5502
  596MOL0     H80407   1.388   9.620   5.322 -1.4577 -0.5307  2.7581
  596MOL0     H80408   1.531   9.646   5.437 -1.2720  0.3515  0.5491
  596MOL0     H80409   1.491   9.784   5.180 -4.6401 -3.5675  1.4638
  596MOL0     H80410   1.638   9.778   5.298  1.6470 -0.5830 -1.7372
  596MOL0     H80411   1.728   9.725   5.009 -1.4102  0.1545 -2.8882
  596MOL0     H80412   1.896   9.478   4.919  0.3267 -1.3434  0.5421
  596MOL0     H80413   1.787   9.344   4.905 -0.3887 -0.4526  1.4450
  596MOL0     H80414   1.743   9.619   4.781 -1.8676  0.2793  0.3009
  596MOL0     H80415   1.814   9.492   4.694 -3.5147 -0.0759 -3.7937
  596MOL0     H80416   1.549   9.534   4.662 -1.3928 -1.1063  0.7838
  596MOL0     H80417   1.555   9.441   4.816 -1.8130  1.0788 -0.9327
  596MOL0     H80418   1.505   9.283   4.655  0.8646 -0.6965  1.3048
  596MOL0     H80419   1.673   9.258   4.703  1.1939 -1.6460 -2.4120
  596MOL0     H80420   1.756   9.113   4.543 -1.7661  1.5031 -0.1907
  596MOL0     H80421   1.989   9.062   4.472  1.1276  0.1497 -0.8746
  596MOL0     H80422   2.390   9.600   4.326  4.5978  4.0951  0.2862
  596MOL0     H80423   2.610   9.623   4.274  1.7047 -1.6703  0.5735
  596MOL0     H80424   2.926   9.333   4.331 -0.3768  3.0518  0.1033
  596MOL0     H80425   2.875   9.269   4.166 -1.8785 -1.2529  2.6175
  596MOL0     H80426   3.014   9.473   4.086  0.2236 -2.2385 -0.9666
  596MOL0     H80427   3.068   9.477   4.261  0.9910  2.3510 -1.2755
  596MOL0     H80428   3.154   9.238   4.232  0.5307 -1.3137  0.0292
  596MOL0     H80429   3.095   9.227   4.080  0.5470  0.4597  1.1776
  596MOL0     H80430   3.306   9.436   4.166 -0.2611  1.9168 -0.9607
  596MOL0     H80431   3.248   9.410   4.000  0.3273  0.7814  0.5585
  596MOL0     H80432   3.432   9.242   4.183 -1.0931 -0.2438 -0.2365
  596MOL0     H80433   3.456   9.317   4.021  1.8186 -2.8301 -0.4755
  596MOL0     H80434   3.356   9.046   4.085  3.1260  0.4126  1.1086
  596MOL0     H80435   3.274   9.142   3.953  1.9467 -2.9757 -2.0042
  596MOL0     H80436   3.547   9.022   4.004  0.9696  1.2875  1.8187
  596MOL0     H80437   3.536   9.175   3.903 -1.1838 -0.4183 -1.1313
  596MOL0     H80438   3.430   8.900   3.842  0.3330 -0.2980  1.3316
  596MOL0     H80439   3.386   9.044   3.746 -1.0058 -2.2191  1.2077
  596MOL0     H80440   2.680   9.201   4.304 -0.0808 -0.9877  0.6936
  596MOL0     H80441   2.459   9.165   4.386 -4.0536  0.3422  0.2871
  596MOL0     H80442   2.042   9.470   4.358  0.9153 -0.5835  2.4098
  596MOL0     H80443   1.807   9.512   4.432 -0.2433  0.0186 -1.3635
  596MOL0     H80444   0.779   9.984   5.948 -1.0000 -0.3934  3.3722
  596MOL0     H80445   0.600   9.937   6.124  2.3272 -3.4569 -0.2114
  596MOL0     H80446   0.334   9.992   6.334 -0.8379  0.5658 -1.3071
  596MOL0     H80447   0.218   9.997   6.551  0.2103  0.8354 -1.2058
  596MOL0     H80448   0.084  10.077   6.717  0.3323 -0.7899 -1.1943
  596MOL0     H80449   0.088   9.912   6.721  2.6065  1.8823  0.7663
  596MOL0     H80450  -0.159   9.909   6.803  1.4604 -0.0963 -2.4039
  596MOL0     H80451  -0.140  10.077   6.841 -0.5892 -0.7806  0.9072
  596MOL0     H80452   0.050  10.054   6.980 -0.9834  0.1036  0.0830
  596MOL0     H80453   0.057   9.877   6.956 -2.5682 -2.3935  0.5190
  596MOL0     H80454  -0.040   9.932   7.178 -1.5172 -4.3351  1.4407
  596MOL0     H80455  -0.166  10.031   7.099 -0.6296  0.7113  0.5465
  596MOL0     H80456  -0.347   9.668   7.030  0.5795 -0.6454  0.6207
  596MOL0     H80457  -0.166   9.957   6.358 -0.0882 -1.9436  2.1591
  596MOL0     H80458  -0.100   9.846   6.068 -0.1149 -0.3880  0.6206
  596MOL0     H80459  -0.195   9.984   6.130 -0.5448 -0.0938 -0.1613
  596MOL0     H80460  -0.067  10.024   6.022  1.0405  1.2285  1.2370
  597MOL0     O80461   8.938   3.498   4.757 -0.0278 -0.6916 -0.4340
  597MOL0     C80462   8.817   3.494   4.766  0.0304 -0.2593 -0.3509
  597MOL0     O80463   8.748   3.476   4.881  0.2642 -0.3722  0.6667
  597MOL0     C80464   8.815   3.471   4.994  0.3269 -0.3994 -0.3545
  597MOL0     C80465   8.829   3.592   5.065 -0.0469  0.2780 -0.2197
  597MOL0     C80466   8.932   3.591   5.159 -0.5229 -0.2373 -0.3177
  597MOL0     C80467   8.999   3.478   5.204  0.3701 -0.3395  0.2352
  597MOL0     O80468   9.100   3.471   5.289  0.6180 -0.5775  0.2132
  597MOL0     C80469   9.072   3.533   5.414 -0.0539  0.7435  0.0540
  597MOL0     C80470   9.098   3.432   5.530  0.1767 -0.0486  0.0424
  597MOL0     C80471   9.235   3.364   5.516 -0.2549 -0.3588 -0.1138
  597MOL0     C80472   9.262   3.285   5.643 -0.1645 -1.1781 -0.0510
  597MOL0     C80473   9.414   3.295   5.677 -0.1178  0.5839 -0.1175
  597MOL0     C80474   9.450   3.213   5.807  0.1500 -0.8008  0.0583
  597MOL0     C80475   9.590   3.165   5.794  0.4045 -0.1610 -0.3122
  597MOL0     C80476   9.645   3.107   5.925 -0.0952 -0.7980 -0.6090
  597MOL0     N80477   9.793   3.096   5.906  1.0938  0.0086 -0.1895
  597MOL0     C80478   9.897   3.192   5.918 -0.2217 -1.0758  0.0173
  597MOL0     C80479  10.005   3.144   5.867 -0.1494  0.6969  0.0567
  597MOL0     C80480  10.132   3.222   5.861  0.3497 -0.6665  0.5653
  597MOL0     C80481  10.225   3.199   5.973 -0.9735  0.4885  0.7666
  597MOL0     C80482  10.285   3.056   5.979  0.7095  0.5397  0.3242
  597MOL0     C80483  10.406   3.031   6.064  0.6973 -0.1437 -0.8005
  597MOL0     O80484  10.512   3.117   6.021  0.2159 -0.3339  0.6765
  597MOL0     C80485  10.612   3.139   6.108  0.0006 -0.9389  0.5819
  597MOL0     C80486  10.730   3.161   6.049 -0.3923  0.3571  0.0110
  597MOL0     C80487  10.848   3.174   6.119  0.0090 -0.5710  0.1375
  597MOL0     C80488  10.851   3.173   6.257 -0.1642  0.0215 -1.2233
  597MOL0     C80489  10.973   3.183   6.335  0.2674  0.0976 -0.1204
  597MOL0     O80490  10.964   3.140   6.472 -0.5025  0.2324  0.3237
  597MOL0     C80491  11.085   3.145   6.539  1.1700 -0.8242  0.4442
  597MOL0     C80492  11.149   3.264   6.561 -0.4079  0.0536 -0.6672
  597MOL0     C80493  11.275   3.257   6.626  0.2340 -0.4717  0.8490
  597MOL0     C80494  11.339   3.135   6.666  0.0746 -0.3074  0.4298
  597MOL0     O80495  11.469   3.103   6.703  0.1059 -0.1621 -0.6374
  597MOL0     C80496  11.562   3.208   6.735 -0.2937  0.0264  0.3168
  597MOL0     C80497  11.622   3.276   6.612 -0.1617 -0.1549 -0.1146
  597MOL0     C80498  11.730   3.186   6.542  0.2069  0.6645 -0.4613
  597MOL0     C80499  11.684   3.044   6.488 -0.0424 -0.5332  0.9742
  597MOL0     C80500  11.789   2.958   6.418 -0.1006 -1.1125 -0.1685
  597MOL0     C80501  11.870   2.869   6.510  0.6064  0.6262 -0.9226
  597MOL0     C80502  11.978   2.793   6.428 -0.7119 -0.0707 -0.1457
  597MOL0     C80503  12.032   2.671   6.501  0.5707  0.2012  0.5582
  597MOL0    Cl80504  12.095   2.711   6.660 -0.4128  0.5908  0.1089
  597MOL0     C80505  11.265   3.021   6.636  0.1583  0.1879 -0.1744
  597MOL0     C80506  11.142   3.026   6.572  0.7041  0.2757 -0.5189
  597MOL0     O80507  11.079   3.224   6.273  1.0712 -0.0042 -0.2440
  597MOL0     C80508  10.726   3.164   6.322 -0.2804  0.5361  0.1075
  597MOL0     C80509  10.610   3.151   6.249  0.2809  0.3247 -0.5614
  597MOL0     N80510   9.981   3.015   5.832 -0.0164 -0.1478  0.3024
  597MOL0     N80511   9.852   2.990   5.844  0.2994  0.0308 -0.7381
  597MOL0     C80512   8.980   3.358   5.133 -0.6573  0.1128 -0.7551
  597MOL0     C80513   8.883   3.353   5.029 -0.0282 -0.7461 -0.7021
  597MOL0     C80514   8.756   3.483   4.636 -1.6592  0.5232 -0.0264
  597MOL0     C80515   8.791   3.586   4.549 -0.1469  0.0274 -0.4406
  597MOL0     C80516   8.715   3.594   4.425  0.6178  0.7437 -0.0626
  597MOL0     C80517   8.613   3.506   4.384 -0.1119 -0.8097 -0.8127
  597MOL0     O80518   8.551   3.526   4.262 -0.6323  0.0547 -0.6620
  597MOL0     C80519   8.434   3.445   4.248  0.2781  0.6507  1.0684
  597MOL0     C80520   8.466   3.321   4.174  0.3311  0.2500  0.1830
  597MOL0     C80521   8.354   3.218   4.164  0.4248  0.4500 -0.1067
  597MOL0     C80522   8.326   3.132   4.289 -0.6279  0.1987 -0.1005
  597MOL0     C80523   8.441   3.037   4.327 -0.2058  0.3200  0.3494
  597MOL0     C80524   8.515   2.960   4.374  0.1154  0.8674  0.4039
  597MOL0     C80525   8.593   3.398   4.483  0.5918  0.2728 -0.8801
  597MOL0     C80526   8.653   3.398   4.608  0.2585 -0.1608 -0.4323
  597MOL0     C80527   8.590   3.297   4.702  0.8415  0.7054 -0.5772
  597MOL0     H80528   8.784   3.681   5.023 -0.1762  1.3421  2.0746
  597MOL0     H80529   8.960   3.685   5.204 -1.2769  1.2007 -2.6903
  597MOL0     H80530   9.132   3.624   5.425  0.2067  0.3861  1.7707
  597MOL0     H80531   8.968   3.566   5.424  0.5191  2.3857  0.9714
  597MOL0     H80532   9.027   3.348   5.532  0.9502 -0.8615 -2.7464
  597MOL0     H80533   9.096   3.480   5.628 -0.8448 -1.8494  0.9657
  597MOL0     H80534   9.314   3.435   5.492  0.8413 -1.4906  0.0072
  597MOL0     H80535   9.223   3.292   5.434 -1.1540 -1.2778  0.8020
  597MOL0     H80536   9.202   3.311   5.730 -0.4884 -1.2513 -0.2505
  597MOL0     H80537   9.243   3.178   5.627 -1.6547 -0.6827 -2.0051
  597MOL0     H80538   9.478   3.258   5.597  0.0835  0.7366 -0.0283
  597MOL0     H80539   9.428   3.399   5.708  1.1967  0.5977 -0.6765
  597MOL0     H80540   9.427   3.270   5.898  2.0271  0.3347 -0.1143
  597MOL0     H80541   9.390   3.122   5.812  0.5465 -1.0348  0.6757
  597MOL0     H80542   9.652   3.248   5.755 -0.3804  0.3302 -0.5337
  597MOL0     H80543   9.595   3.081   5.724  0.4479 -0.8073  0.4523
  597MOL0     H80544   9.620   3.173   6.009  2.2579 -2.1346  1.2452
  597MOL0     H80545   9.595   3.013   5.951 -1.1946 -0.1559 -0.2927
  597MOL0     H80546   9.890   3.295   5.951  0.4065 -0.9187 -0.3098
  597MOL0     H80547  10.181   3.188   5.770  2.6134  1.4257  0.9075
  597MOL0     H80548  10.112   3.330   5.860  1.0628 -0.4727 -2.7389
  597MOL0     H80549  10.313   3.261   5.951  0.3914 -0.4609  3.1170
  597MOL0     H80550  10.192   3.229   6.072 -2.0792  1.7055  0.0515
  597MOL0     H80551  10.313   3.019   5.880  1.3641 -0.9245  1.0316
  597MOL0     H80552  10.200   3.001   6.020 -1.0872  1.2977 -2.1479
  597MOL0     H80553  10.418   2.923   6.079 -3.6332 -0.2907  5.3173
  597MOL0     H80554  10.369   3.068   6.160 -3.1062  2.1383 -2.9210
  597MOL0     H80555  10.737   3.152   5.941  0.7397 -3.5162  0.2623
  597MOL0     H80556  10.940   3.192   6.065 -0.7775  1.5311 -0.6338
  597MOL0     H80557  11.102   3.360   6.544  3.5126  2.2786  0.0142
  597MOL0     H80558  11.329   3.345   6.661 -0.4207 -0.3171  1.4909
  597MOL0     H80559  11.517   3.288   6.795 -1.2813 -0.5766  0.4140
  597MOL0     H80560  11.644   3.176   6.800 -1.7421 -3.5787  0.6072
  597MOL0     H80561  11.542   3.307   6.545 -0.8644  2.4929  1.7775
  597MOL0     H80562  11.669   3.372   6.633  0.6133 -0.9430  2.0433
  597MOL0     H80563  11.775   3.242   6.460 -1.6450  1.0005 -1.3001
  597MOL0     H80564  11.809   3.158   6.613 -1.4457 -2.8300  0.2005
  597MOL0     H80565  11.599   3.065   6.422  0.5464 -1.6341 -0.1663
  597MOL0     H80566  11.641   2.978   6.564  0.2471 -0.9697  0.7605
  597MOL0     H80567  11.854   3.015   6.351  3.0616 -2.5160  1.4619
  597MOL0     H80568  11.728   2.898   6.351 -0.6624 -1.6117  0.7581
  597MOL0     H80569  11.914   2.928   6.591 -1.9163  1.0821  0.2222
  597MOL0     H80570  11.803   2.795   6.556  1.0962  1.4735  1.2832
  597MOL0     H80571  12.066   2.857   6.418 -0.5635 -0.5885 -3.2651
  597MOL0     H80572  11.950   2.768   6.325  2.2641 -0.1898 -1.0181
  597MOL0     H80573  11.942   2.616   6.529 -0.4038  2.5770  2.4745
  597MOL0     H80574  12.107   2.622   6.437 -1.6224 -1.3088 -1.0250
  597MOL0     H80575  11.304   2.921   6.649 -0.3770  0.2571  2.4728
  597MOL0     H80576  11.089   2.936   6.543 -1.0393  0.8896  0.5608
  597MOL0     H80577  10.716   3.169   6.430  0.3309 -0.4489  0.2191
  597MOL0     H80578  10.521   3.144   6.310  0.7512  0.4066  0.1500
  597MOL0     H80579   9.037   3.273   5.170  0.8271  0.9412 -1.0474
  597MOL0     H80580   8.860   3.262   4.975 -4.5776 -0.3571  0.1679
  597MOL0     H80581   8.868   3.662   4.562 -0.3368  0.3598 -1.2274
  597MOL0     H80582   8.732   3.676   4.356 -1.4248  1.5113  0.2846
  597MOL0     H80583   8.352   3.505   4.207 -0.8830 -1.2799  0.4525
  597MOL0     H80584   8.386   3.403   4.338  1.3147 -1.9405  0.4979
  597MOL0     H80585   8.556   3.264   4.198  0.1853 -0.6920 -1.3975
  597MOL0     H80586   8.490   3.360   4.074 -1.2325  1.5179  0.2561
  597MOL0     H80587   8.368   3.153   4.078  2.5084  0.7757 -0.0460
  597MOL0     H80588   8.255   3.266   4.166  1.1330  2.1000 -1.7814
  597MOL0     H80589   8.306   3.199   4.374  1.3577 -0.5848  1.0583
  597MOL0     H80590   8.246   3.060   4.271  0.1009 -0.7146  0.2318
  597MOL0     H80591   8.588   2.898   4.423  1.0396  0.5000 -1.3663
  597MOL0     H80592   8.511   3.330   4.461  1.0260 -0.8565  0.7407
  597MOL0     H80593   8.511   3.334   4.768  2.0382 -0.8806  1.8944
  597MOL0     H80594   8.563   3.208   4.644  2.4795  1.5536 -2.7888
  597MOL0     H80595   8.659   3.268   4.781 -1.1029 -0.4342  0.8093
  598MOL0     O80596   6.875   4.261   0.514  1.0548 -0.2702  0.0428
  598MOL0     C80597   6.970   4.187   0.533  0.4972  0.4468  0.0024
  598MOL0     O80598   7.082   4.175   0.456  1.2623  0.3396  0.3232
  598MOL0     C80599   7.130   4.274   0.378 -0.3219  1.0934  0.1902
  598MOL0     C80600   7.237   4.242   0.296 -0.6211  0.6313  0.1140
  598MOL0     C80601   7.303   4.332   0.220 -0.2751  0.9916 -0.3626
  598MOL0     C80602   7.273   4.470   0.241  0.0494 -0.3126  0.0981
  598MOL0     O80603   7.344   4.566   0.188 -0.2938  0.2348 -0.3160
  598MOL0     C80604   7.415   4.571   0.063 -0.5889  0.6280  0.3328
  598MOL0     C80605   7.428   4.720   0.030 -0.9926 -0.8619  0.4446
  598MOL0     C80606   7.294   4.796   0.039  0.6613 -0.0297 -0.7880
  598MOL0     C80607   7.270   4.871   0.166 -0.4727  0.3754 -0.1518
  598MOL0     C80608   7.169   4.989   0.152  0.8328  0.6883  1.3147
  598MOL0     C80609   7.160   5.092   0.269  0.5667  0.3584 -0.7755
  598MOL0     C80610   7.112   5.013   0.392 -0.6843  0.4797 -0.6996
  598MOL0     C80611   7.101   5.103   0.518 -1.1847  0.1658 -0.6439
  598MOL0     N80612   7.110   5.029   0.640 -0.3197 -0.2838 -0.7142
  598MOL0     C80613   7.010   4.953   0.698  0.6523 -0.6898  0.1444
  598MOL0     C80614   7.061   4.908   0.816  0.1817  0.0826  0.3917
  598MOL0     C80615   7.003   4.802   0.903  0.0877  0.7039 -0.4612
  598MOL0     C80616   7.105   4.686   0.923  0.4497  0.1861 -0.0640
  598MOL0     C80617   7.142   4.598   0.804  0.4908  0.3655  0.0305
  598MOL0     C80618   7.220   4.665   0.687 -0.7006  0.0464 -0.0131
  598MOL0     O80619   7.307   4.570   0.627 -0.2634 -0.5425  0.1561
  598MOL0     C80620   7.418   4.623   0.561 -0.1878  0.7634 -0.6973
  598MOL0     C80621   7.533   4.543   0.562  0.1385 -0.6045 -0.4344
  598MOL0     C80622   7.654   4.586   0.502  0.4772  1.0970  0.3310
  598MOL0     C80623   7.648   4.706   0.431 -0.5203  0.2248  0.6197
  598MOL0     C80624   7.755   4.768   0.349 -0.9107  0.6331  0.2304
  598MOL0     O80625   7.885   4.723   0.384 -0.5824 -0.3592  0.5159
  598MOL0     C80626   7.989   4.761   0.306 -0.9308  0.4994 -0.6279
  598MOL0     C80627   8.033   4.892   0.304 -0.3135  0.0812 -0.4476
  598MOL0     C80628   8.154   4.927   0.247  0.3098  1.2095 -0.9251
  598MOL0     C80629   8.241   4.832   0.180  0.7271 -0.0364  0.2178
  598MOL0     O80630   8.350   4.853   0.114 -0.4681 -0.1328 -0.2963
  598MOL0     C80631   8.358   4.983   0.052 -0.0656 -1.0706 -0.4531
  598MOL0     C80632   8.499   4.998  -0.004 -0.2881 -0.4895 -0.1721
  598MOL0     C80633   8.535   5.133  -0.057 -0.1440 -0.1741  0.4805
  598MOL0     C80634   8.462   5.192  -0.165 -0.1416  0.5267  0.4036
  598MOL0     C80635   8.546   5.306  -0.230  0.2220 -0.3067  0.1574
  598MOL0     C80636   8.653   5.248  -0.331 -0.1757  0.6744  0.1835
  598MOL0     C80637   8.756   5.353  -0.378 -0.2587  0.1457 -0.1094
  598MOL0     C80638   8.857   5.295  -0.471  0.1243 -0.2266  0.1224
  598MOL0    Cl80639   8.967   5.164  -0.387  0.5666  0.0244 -0.0542
  598MOL0     C80640   8.202   4.696   0.198  0.4348 -0.9184 -0.3339
  598MOL0     C80641   8.079   4.663   0.260  0.5626 -0.4171 -0.3716
  598MOL0     O80642   7.728   4.821   0.241  0.5673  0.2078 -0.0133
  598MOL0     C80643   7.529   4.782   0.431  0.0068  0.0514  0.6278
  598MOL0     C80644   7.414   4.746   0.495 -0.0270  0.9221  0.1861
  598MOL0     N80645   7.183   4.971   0.842 -0.1356 -0.4641 -0.3053
  598MOL0     N80646   7.210   5.044   0.735 -0.2829  0.4641  0.5610
  598MOL0     C80647   7.166   4.512   0.324 -0.7506  0.0451 -0.1016
  598MOL0     C80648   7.102   4.413   0.397  0.2761 -0.1088 -0.5973
  598MOL0     C80649   6.957   4.107   0.660  0.9143  0.6758 -0.8031
  598MOL0     C80650   6.970   3.972   0.643  0.0150  0.0251 -0.3824
  598MOL0     C80651   6.935   3.888   0.750 -0.8174 -0.5307  0.4772
  598MOL0     C80652   6.920   3.935   0.884  0.5496  0.8159  0.9471
  598MOL0     O80653   6.905   3.857   0.993 -0.8093  0.0419 -0.2799
  598MOL0     C80654   7.002   3.752   1.006  0.2068 -0.5455 -0.0650
  598MOL0     C80655   6.997   3.682   1.137  0.2974  0.9279 -0.0195
  598MOL0     C80656   6.859   3.612   1.154  0.4328 -0.7605 -0.6452
  598MOL0     C80657   6.863   3.537   1.293 -0.2163 -0.3093  0.8363
  598MOL0     C80658   6.743   3.572   1.367 -0.4443  0.0007 -0.3840
  598MOL0     C80659   6.637   3.597   1.424  0.6910  0.7333  0.5247
  598MOL0     C80660   6.908   4.067   0.895  0.3200 -0.2848  0.2879
  598MOL0     C80661   6.931   4.156   0.785 -0.0967  0.1397 -0.7179
  598MOL0     C80662   6.924   4.301   0.810 -0.0203 -0.5997 -0.1186
  598MOL0     H80663   7.275   4.141   0.284  1.0504  1.1587  0.8001
  598MOL0     H80664   7.386   4.304   0.156 -0.6287  0.5669 -0.6345
  598MOL0     H80665   7.509   4.517   0.076 -3.2184 -4.9173 -0.8820
  598MOL0     H80666   7.354   4.525  -0.015  0.5740 -1.3431  0.5408
  598MOL0     H80667   7.476   4.739  -0.066 -2.1800  2.4163  0.3619
  598MOL0     H80668   7.495   4.762   0.105 -0.8213  2.0659 -1.2097
  598MOL0     H80669   7.212   4.727   0.014 -1.7597  1.5962  2.0203
  598MOL0     H80670   7.303   4.869  -0.042 -0.5604 -0.4930 -1.3786
  598MOL0     H80671   7.236   4.796   0.239 -0.7887  0.2205 -0.4594
  598MOL0     H80672   7.368   4.909   0.195 -0.6723 -1.7132  4.0819
  598MOL0     H80673   7.200   5.045   0.063  1.9121 -4.4582 -1.9844
  598MOL0     H80674   7.069   4.950   0.129  1.8932 -2.3254  1.3808
  598MOL0     H80675   7.266   5.111   0.288  0.8885 -2.2397  0.4747
  598MOL0     H80676   7.100   5.182   0.258  0.0142  0.4035  1.8451
  598MOL0     H80677   7.188   4.937   0.411 -2.5774 -1.2467  0.3933
  598MOL0     H80678   7.019   4.962   0.365 -1.0494  2.0995 -2.7501
  598MOL0     H80679   7.187   5.171   0.520 -1.8182  0.9815  0.7132
  598MOL0     H80680   7.014   5.169   0.518  0.1878  2.1061  1.2899
  598MOL0     H80681   6.916   4.917   0.657  2.5530 -2.4665 -2.9700
  598MOL0     H80682   6.978   4.856   0.995  1.6362  0.3609  0.1880
  598MOL0     H80683   6.908   4.760   0.869 -1.5202  1.2275  3.0070
  598MOL0     H80684   7.197   4.727   0.966 -0.3891  4.3128 -1.7894
  598MOL0     H80685   7.058   4.614   0.991  0.4746 -1.3126 -1.5528
  598MOL0     H80686   7.063   4.544   0.750  1.3521 -1.0711  0.1417
  598MOL0     H80687   7.203   4.512   0.834 -0.0091 -2.4182 -5.6482
  598MOL0     H80688   7.279   4.744   0.735 -0.7118  1.4705 -2.1603
  598MOL0     H80689   7.144   4.709   0.621  0.5355 -0.6472 -1.9783
  598MOL0     H80690   7.550   4.444   0.603 -0.6266 -0.8238 -0.6246
  598MOL0     H80691   7.739   4.518   0.501 -1.0428 -0.9591  1.8943
  598MOL0     H80692   7.969   4.965   0.354  0.7005  0.1838  0.7594
  598MOL0     H80693   8.176   5.033   0.249  0.0804  1.2559  0.6908
  598MOL0     H80694   8.290   4.992  -0.033 -0.3749 -0.4076 -0.1404
  598MOL0     H80695   8.358   5.066   0.122 -5.0532 -1.8038  0.7637
  598MOL0     H80696   8.568   4.960   0.073 -0.3468 -2.7320 -1.1545
  598MOL0     H80697   8.507   4.927  -0.087 -4.0753  0.1885 -1.2717
  598MOL0     H80698   8.524   5.205   0.025 -0.0285 -1.2207  1.4457
  598MOL0     H80699   8.642   5.125  -0.079 -0.4266 -1.6301 -0.5007
  598MOL0     H80700   8.360   5.218  -0.134 -0.2031 -0.7939  1.4214
  598MOL0     H80701   8.442   5.109  -0.233 -1.8436 -0.5669  2.1282
  598MOL0     H80702   8.599   5.365  -0.154 -1.6925  0.8968  0.6373
  598MOL0     H80703   8.479   5.378  -0.279 -0.7654 -0.7671  0.8062
  598MOL0     H80704   8.706   5.167  -0.281  0.4430 -0.9259 -2.8248
  598MOL0     H80705   8.601   5.210  -0.419  1.6865 -2.0277  0.1337
  598MOL0     H80706   8.811   5.387  -0.290 -0.4709 -1.8342  0.8346
  598MOL0     H80707   8.710   5.441  -0.424 -0.2334  1.0565  1.5372
  598MOL0     H80708   8.798   5.249  -0.551 -0.7912  0.5233  0.3512
  598MOL0     H80709   8.922   5.371  -0.515  2.3924 -1.0228  1.9339
  598MOL0     H80710   8.263   4.615   0.158  0.7970  0.4756 -2.8204
  598MOL0     H80711   8.062   4.555   0.262 -0.2362 -0.2950 -0.3771
  598MOL0     H80712   7.520   4.877   0.381  1.4757  0.4533  1.0713
  598MOL0     H80713   7.320   4.800   0.491  0.1175  1.2098  0.6316
  598MOL0     H80714   7.154   4.619   0.336  0.2643  0.2138 -0.4560
  598MOL0     H80715   7.033   4.452   0.471  2.2847  0.8335  0.8640
  598MOL0     H80716   6.987   3.929   0.544  1.6820 -0.4902  0.1058
  598MOL0     H80717   6.939   3.782   0.726 -1.9430 -0.5870  0.4832
  598MOL0     H80718   7.104   3.791   1.012  0.1547 -0.6156  2.5506
  598MOL0     H80719   6.991   3.684   0.921 -2.8826  2.2949 -2.2643
  598MOL0     H80720   7.022   3.758   1.212 -1.3108  1.6141 -0.1258
  598MOL0     H80721   7.083   3.617   1.123  0.9632  2.0951 -1.7274
  598MOL0     H80722   6.825   3.548   1.072  0.2181 -1.8884  0.2934
  598MOL0     H80723   6.787   3.694   1.161  2.7009  1.1662  2.8719
  598MOL0     H80724   6.877   3.430   1.277  2.9288  0.0605  0.4591
  598MOL0     H80725   6.954   3.565   1.347 -1.3427 -0.3042  2.8245
  598MOL0     H80726   6.533   3.597   1.448 -0.2351 -5.8379 -1.3342
  598MOL0     H80727   6.899   4.115   0.992  0.0535  2.4580 -0.9707
  598MOL0     H80728   6.954   4.327   0.912 -0.9772 -0.7300  0.2060
  598MOL0     H80729   6.992   4.351   0.741 -2.6199  0.4525 -2.0920
  598MOL0     H80730   6.822   4.337   0.795 -0.2071 -0.3491  1.5787
  599MOL0     O80731  10.416   6.319   2.688 -0.5691 -0.4025 -0.3857
  599MOL0     C80732  10.464   6.421   2.739  0.4018  0.0041 -1.2072
  599MOL0     O80733  10.444   6.456   2.871  1.2452 -0.1378 -0.4322
  599MOL0     C80734  10.347   6.399   2.953  1.1032  0.2786 -0.1929
  599MOL0     C80735  10.225   6.339   2.911 -0.1712  0.0090 -0.5718
  599MOL0     C80736  10.129   6.306   3.018 -0.4966 -0.2007 -0.6387
  599MOL0     C80737  10.158   6.305   3.154 -0.9279  0.3513 -0.1831
  599MOL0     O80738  10.061   6.260   3.245  0.0874  0.0953 -0.2000
  599MOL0     C80739  10.059   6.300   3.388 -0.8531 -0.7714  0.2061
  599MOL0     C80740   9.930   6.278   3.459  0.3420  0.1386 -0.1733
  599MOL0     C80741   9.871   6.136   3.433  0.8170  0.1835 -0.4780
  599MOL0     C80742   9.935   6.014   3.510  0.0802 -0.4997 -0.1834
  599MOL0     C80743   9.860   5.982   3.641  0.1869  0.1551 -1.1631
  599MOL0     C80744   9.738   5.893   3.616  0.1996  0.0087  0.3293
  599MOL0     C80745   9.677   5.834   3.744  0.2745  0.3234  0.3708
  599MOL0     C80746   9.550   5.754   3.707 -0.4897  0.0796  0.3808
  599MOL0     N80747   9.430   5.841   3.702 -0.1146  0.0177  0.2038
  599MOL0     C80748   9.386   5.894   3.580  0.1994 -0.8607 -1.7279
  599MOL0     C80749   9.254   5.931   3.601  0.1242 -0.0872 -0.8668
  599MOL0     C80750   9.168   6.009   3.501 -0.3797  0.8304 -0.0595
  599MOL0     C80751   9.218   6.149   3.466  1.0421  0.5633 -0.4499
  599MOL0     C80752   9.140   6.196   3.341  0.1470 -0.6362  0.5586
  599MOL0     C80753   9.163   6.347   3.323  0.4398  0.0821 -0.3424
  599MOL0     O80754   9.299   6.395   3.330 -0.3088 -0.2002 -0.9274
  599MOL0     C80755   9.362   6.429   3.210  0.5301 -0.5693 -0.6149
  599MOL0     C80756   9.503   6.438   3.206 -0.4400  0.3613 -0.5142
  599MOL0     C80757   9.581   6.449   3.099  0.3961  1.3123  0.0967
  599MOL0     C80758   9.519   6.481   2.972  1.0929  1.2442  0.2413
  599MOL0     C80759   9.596   6.492   2.852 -1.2622  0.0473 -1.0318
  599MOL0     O80760   9.543   6.467   2.731  0.2674 -0.4770  0.6665
  599MOL0     C80761   9.620   6.506   2.628  0.7689 -0.3898 -0.0393
  599MOL0     C80762   9.631   6.645   2.597  0.8350 -0.0810  0.3152
  599MOL0     C80763   9.694   6.674   2.478 -0.2902  0.2715  0.0536
  599MOL0     C80764   9.739   6.575   2.389  0.4528 -0.6885  0.5863
  599MOL0     O80765   9.804   6.608   2.264  0.5174  0.4992  0.1357
  599MOL0     C80766   9.771   6.734   2.205  0.4262 -0.1278 -0.8460
  599MOL0     C80767   9.828   6.752   2.063 -0.2345  0.4689  0.4724
  599MOL0     C80768   9.749   6.854   1.971 -0.4963 -0.9658 -1.7373
  599MOL0     C80769   9.823   6.876   1.845 -0.4958  0.3964 -1.2642
  599MOL0     C80770   9.732   6.957   1.751 -0.4616 -0.5109  0.3771
  599MOL0     C80771   9.625   6.881   1.677  0.5606  0.6043  1.0321
  599MOL0     C80772   9.574   6.960   1.555  0.4758 -0.7644 -0.0664
  599MOL0     C80773   9.494   7.091   1.600  0.6728  0.9394 -0.1152
  599MOL0    Cl80774   9.357   7.057   1.702 -0.3263 -0.0003 -0.3125
  599MOL0     C80775   9.725   6.439   2.424  0.1859 -0.7067  0.5083
  599MOL0     C80776   9.660   6.403   2.546  0.0998  0.4144 -0.1354
  599MOL0     O80777   9.712   6.528   2.871 -0.1063  0.4030  0.4502
  599MOL0     C80778   9.380   6.491   2.977  0.8605  0.4136 -1.3796
  599MOL0     C80779   9.297   6.467   3.091 -0.7538 -0.1868  0.4823
  599MOL0     N80780   9.215   5.885   3.725 -0.4653 -0.5502 -0.5202
  599MOL0     N80781   9.324   5.828   3.784  0.3224 -0.1052  0.2606
  599MOL0     C80782  10.288   6.354   3.193 -0.3865  0.8125 -0.1814
  599MOL0     C80783  10.380   6.408   3.090  0.2506  1.0096  0.5184
  599MOL0     C80784  10.567   6.508   2.671  0.6882  0.0346 -0.2042
  599MOL0     C80785  10.614   6.614   2.746  0.6402 -0.3109 -0.6272
  599MOL0     C80786  10.715   6.698   2.695 -0.4719 -0.4660 -0.3476
  599MOL0     C80787  10.761   6.682   2.563 -0.2158  0.7489  0.6698
  599MOL0     O80788  10.863   6.749   2.500 -0.2021  0.6852 -1.0361
  599MOL0     C80789  10.933   6.850   2.567  0.2083  0.4991  0.0925
  599MOL0     C80790  11.017   6.923   2.471 -0.0326 -0.4913 -0.6066
  599MOL0     C80791  11.063   7.048   2.547 -0.0177 -0.1941  0.2222
  599MOL0     C80792  11.213   7.055   2.581 -0.1554  0.1038 -0.6019
  599MOL0     C80793  11.271   7.190   2.590 -0.2040 -0.2888 -0.1581
  599MOL0     C80794  11.311   7.305   2.601  0.0856  0.0311  1.0907
  599MOL0     C80795  10.697   6.583   2.488  0.4338 -0.0600  0.1546
  599MOL0     C80796  10.599   6.500   2.536 -0.8420  0.7485  0.7420
  599MOL0     C80797  10.546   6.400   2.438  0.1961 -1.0527 -0.9077
  599MOL0     H80798  10.188   6.338   2.809  0.1102 -2.7538 -0.7075
  599MOL0     H80799  10.028   6.270   2.999 -1.5469  1.6722  0.9396
  599MOL0     H80800  10.140   6.252   3.445 -0.5747  0.3259  0.7689
  599MOL0     H80801  10.080   6.407   3.385 -0.2328 -0.8883  0.2080
  599MOL0     H80802   9.872   6.350   3.400  0.8414  0.0254 -0.8185
  599MOL0     H80803   9.941   6.313   3.562  1.9956 -2.2091  0.5234
  599MOL0     H80804   9.880   6.111   3.327  0.8733  1.8624 -0.8926
  599MOL0     H80805   9.763   6.139   3.452  0.9026  2.0976 -0.1443
  599MOL0     H80806   9.947   5.925   3.447  1.1773 -0.4133 -0.1166
  599MOL0     H80807  10.033   6.054   3.536 -0.9389  1.3213  1.1424
  599MOL0     H80808   9.922   5.927   3.711 -1.0987  0.7149  0.4646
  599MOL0     H80809   9.825   6.072   3.693  1.1596  0.5599 -1.1801
  599MOL0     H80810   9.667   5.963   3.571  0.7500 -0.3382 -1.1123
  599MOL0     H80811   9.774   5.804   3.563  1.2158 -0.2747  1.4555
  599MOL0     H80812   9.663   5.916   3.815  1.6727  1.3664 -0.5060
  599MOL0     H80813   9.759   5.769   3.775  0.4044  1.7025  3.2472
  599MOL0     H80814   9.564   5.715   3.605  0.7453  0.5083  0.3709
  599MOL0     H80815   9.527   5.669   3.771  1.1170 -0.5971  0.1120
  599MOL0     H80816   9.437   5.906   3.485 -0.9526  0.3068 -2.2445
  599MOL0     H80817   9.153   5.948   3.411 -1.3086  0.3593  0.3901
  599MOL0     H80818   9.067   6.009   3.543 -1.7162 -3.3914 -2.6430
  599MOL0     H80819   9.190   6.206   3.556 -1.2802 -1.3586  0.1427
  599MOL0     H80820   9.323   6.142   3.436  1.7337  0.6445  1.7522
  599MOL0     H80821   9.032   6.179   3.348 -0.3518  2.1936  1.0462
  599MOL0     H80822   9.182   6.137   3.259  1.1050  1.2584 -0.3801
  599MOL0     H80823   9.108   6.405   3.397  0.9962 -1.0388  1.0092
  599MOL0     H80824   9.115   6.374   3.229 -0.7283  1.1832  0.5381
  599MOL0     H80825   9.544   6.423   3.305  0.1028  0.2348 -0.7547
  599MOL0     H80826   9.687   6.427   3.107 -0.2129 -3.3714 -1.7862
  599MOL0     H80827   9.615   6.722   2.672  0.7838  0.1260  0.0936
  599MOL0     H80828   9.707   6.779   2.453 -0.7834 -0.1324 -2.1051
  599MOL0     H80829   9.662   6.737   2.210  0.3028 -3.0479  0.1718
  599MOL0     H80830   9.813   6.810   2.271  0.9107 -1.6228  0.6540
  599MOL0     H80831   9.935   6.772   2.066  0.4786 -2.0959 -2.4965
  599MOL0     H80832   9.820   6.656   2.011 -1.0483 -0.7837  2.7679
  599MOL0     H80833   9.650   6.812   1.955 -1.1486 -0.9352  1.5355
  599MOL0     H80834   9.742   6.941   2.036  0.3067 -1.7270 -0.5747
  599MOL0     H80835   9.841   6.779   1.796  2.1918  1.4612 -2.5772
  599MOL0     H80836   9.924   6.918   1.850 -0.6349  0.6367  2.2351
  599MOL0     H80837   9.788   7.004   1.670 -0.4064  0.6111  1.0395
  599MOL0     H80838   9.678   7.025   1.816  0.0152 -1.5137  1.8835
  599MOL0     H80839   9.672   6.796   1.625  1.1658 -0.0931  2.6682
  599MOL0     H80840   9.545   6.841   1.738  1.9737 -0.1346  2.4713
  599MOL0     H80841   9.513   6.894   1.493 -0.3369 -0.6032  0.5405
  599MOL0     H80842   9.657   6.999   1.496  0.1527  4.1647  2.2059
  599MOL0     H80843   9.568   7.152   1.654  1.0590  0.7469 -0.4265
  599MOL0     H80844   9.463   7.157   1.518 -1.4696 -0.0045 -0.1014
  599MOL0     H80845   9.770   6.368   2.356  0.8829  2.5028 -2.7079
  599MOL0     H80846   9.642   6.308   2.595  2.7507 -0.1842 -0.1756
  599MOL0     H80847   9.322   6.522   2.890 -2.5780 -0.9888  0.2230
  599MOL0     H80848   9.194   6.500   3.097 -0.6285 -0.0327  2.2487
  599MOL0     H80849  10.299   6.371   3.300 -0.2254  0.6270 -0.1688
  599MOL0     H80850  10.477   6.454   3.111  1.8828 -0.3929 -3.1813
  599MOL0     H80851  10.590   6.638   2.849  2.5191  1.4975 -0.5264
  599MOL0     H80852  10.741   6.776   2.766  0.2163 -2.1546  1.3410
  599MOL0     H80853  10.993   6.809   2.649 -0.0625  2.0316  1.1046
  599MOL0     H80854  10.859   6.920   2.607 -1.6981 -0.2820 -1.9118
  599MOL0     H80855  10.962   6.950   2.380  2.1939  0.5645 -1.7303
  599MOL0     H80856  11.099   6.854   2.447 -1.6190 -3.1540  1.1047
  599MOL0     H80857  11.012   7.067   2.642  0.5112 -1.4559  0.7785
  599MOL0     H80858  11.037   7.132   2.482  1.5609 -1.2077 -1.8631
  599MOL0     H80859  11.219   7.019   2.684 -0.6081  0.1039 -0.5728
  599MOL0     H80860  11.280   6.992   2.522 -0.0509 -1.2288  0.8736
  599MOL0     H80861  11.352   7.404   2.611  1.1338 -0.2940  0.2264
  599MOL0     H80862  10.737   6.566   2.388  0.8231  2.3612 -0.1753
  599MOL0     H80863  10.604   6.377   2.348 -0.0274 -0.5672 -1.1833
  599MOL0     H80864  10.534   6.304   2.488  0.4008  0.1337  1.5450
  599MOL0     H80865  10.446   6.428   2.401 -0.7471 -4.7985 -1.6411
  600MOL0     O80866   1.914  10.404   2.904  1.2751 -0.6132  0.3135
  600MOL0     C80867   1.801  10.391   2.853  0.6374  0.4255 -0.8701
  600MOL0     O80868   1.728  10.480   2.784 -0.5019 -0.7526  0.3813
  600MOL0     C80869   1.794  10.602   2.768  0.1529  0.7099 -0.7462
  600MOL0     C80870   1.800  10.700   2.865  0.7718  0.2482  1.1057
  600MOL0     C80871   1.895  10.806   2.854 -0.0030 -0.1460 -0.0929
  600MOL0     C80872   1.972  10.814   2.742 -0.2929 -0.2765  0.0676
  600MOL0     O80873   2.061  10.916   2.725 -0.4933 -0.1260  0.1272
  600MOL0     C80874   2.150  10.940   2.836  0.3098  0.3997  0.3265
  600MOL0     C80875   2.250  11.035   2.786 -0.6211  0.1009  0.7347
  600MOL0     C80876   2.344  11.098   2.897  0.2351  1.3046  0.7430
  600MOL0     C80877   2.457  11.000   2.935  0.5571  0.0030 -0.5864
  600MOL0     C80878   2.558  11.046   3.043 -0.0817  0.5720  0.0087
  600MOL0     C80879   2.652  11.162   2.989 -0.5718 -0.6568 -0.0324
  600MOL0     C80880   2.756  11.204   3.098 -0.5489  0.7578 -0.5940
  600MOL0     C80881   2.867  11.286   3.040  1.4936 -0.0143  0.5107
  600MOL0     N80882   2.968  11.207   2.967  0.4508 -0.3632  0.0099
  600MOL0     C80883   3.083  11.263   2.937 -0.0340 -0.8894  0.0496
  600MOL0     C80884   3.143  11.174   2.857  0.4983 -0.0897 -0.4834
  600MOL0     C80885   3.278  11.199   2.781  0.1997 -0.1874  1.1124
  600MOL0     C80886   3.340  11.071   2.714 -0.0795 -0.7048 -0.3990
  600MOL0     C80887   3.462  11.078   2.627 -0.1011 -0.4204  0.1537
  600MOL0     C80888   3.591  11.144   2.688  0.3131 -0.5868 -0.3046
  600MOL0     O80889   3.690  11.188   2.587 -0.4800  0.1726 -0.1590
  600MOL0     C80890   3.806  11.118   2.567  0.7881  0.1435  1.3667
  600MOL0     C80891   3.851  10.997   2.624 -0.3882 -1.5925  0.2199
  600MOL0     C80892   3.977  10.943   2.604 -0.1341  0.1790 -0.5406
  600MOL0     C80893   4.059  10.991   2.508  0.6622 -1.1544  0.4638
  600MOL0     C80894   4.183  10.924   2.477  0.5580  0.1224  0.2278
  600MOL0     O80895   4.179  10.793   2.533 -0.7070 -0.9377 -0.2010
  600MOL0     C80896   4.291  10.724   2.516 -0.2777  0.0846  0.8490
  600MOL0     C80897   4.414  10.761   2.582  0.4957 -0.2734  0.2196
  600MOL0     C80898   4.516  10.672   2.577 -0.4630  0.0901 -0.4022
  600MOL0     C80899   4.506  10.552   2.509 -0.0275  0.1432 -0.1412
  600MOL0     O80900   4.619  10.459   2.512 -0.4795 -0.0618  0.5806
  600MOL0     C80901   4.615  10.340   2.435  0.5216 -0.8988 -0.8852
  600MOL0     C80902   4.754  10.281   2.425  0.1602 -0.1769 -0.1725
  600MOL0     C80903   4.827  10.328   2.304 -0.0591  0.0104  0.6103
  600MOL0     C80904   4.753  10.290   2.169 -0.1333  0.6087 -0.7222
  600MOL0     C80905   4.841  10.270   2.044 -0.5448 -0.8093 -0.5737
  600MOL0     C80906   4.760  10.245   1.917  0.4417 -0.0346 -0.7274
  600MOL0     C80907   4.725  10.092   1.900  0.5619  0.1463  0.5620
  600MOL0     C80908   4.631  10.072   1.789 -0.1763 -0.9012 -0.5092
  600MOL0    Cl80909   4.526   9.946   1.849 -0.0190  0.0457  0.3059
  600MOL0     C80910   4.387  10.523   2.437 -1.0795  0.1634  0.1009
  600MOL0     C80911   4.276  10.604   2.450  0.1324 -0.8194 -0.5516
  600MOL0     O80912   4.270  10.977   2.409  0.7391 -1.1357  0.0528
  600MOL0     C80913   4.007  11.107   2.431 -0.4897 -0.6427 -0.3496
  600MOL0     C80914   3.890  11.169   2.465 -0.1148  0.8328 -0.3690
  600MOL0     N80915   3.066  11.060   2.849  0.2673 -0.0170 -0.0735
  600MOL0     N80916   2.966  11.080   2.926 -0.7115 -0.0497 -0.1750
  600MOL0     C80917   1.958  10.730   2.631  0.5856 -0.0878 -0.3672
  600MOL0     C80918   1.868  10.624   2.651  0.9099 -0.0775  0.4448
  600MOL0     C80919   1.742  10.254   2.872  0.6971 -0.3049  0.2247
  600MOL0     C80920   1.600  10.235   2.895 -0.0658 -0.4506 -0.3295
  600MOL0     C80921   1.550  10.113   2.907  1.5590  0.0549  0.5519
  600MOL0     C80922   1.621   9.995   2.896  0.1524  0.4970 -0.9978
  600MOL0     O80923   1.547   9.875   2.908  0.4166 -0.5448 -0.6841
  600MOL0     C80924   1.621   9.752   2.929  0.4328  0.3413  0.0305
  600MOL0     C80925   1.537   9.638   2.974  0.6205  0.0854  0.6407
  600MOL0     C80926   1.441   9.594   2.865  0.3476 -0.1429  0.3487
  600MOL0     C80927   1.395   9.454   2.891  0.1008  0.3975 -0.0093
  600MOL0     C80928   1.338   9.443   3.033 -1.0291  0.1995  0.5183
  600MOL0     C80929   1.304   9.427   3.145  1.0518 -0.7208  0.4772
  600MOL0     C80930   1.757  10.010   2.871 -0.0657  0.2371 -0.2984
  600MOL0     C80931   1.816  10.132   2.856  0.2322  0.1382 -0.5243
  600MOL0     C80932   1.966  10.128   2.834  0.3931 -0.0830 -0.8759
  600MOL0     H80933   1.753  10.681   2.961 -3.1981  1.2115 -0.4447
  600MOL0     H80934   1.908  10.883   2.929  1.4788 -0.8656  0.4309
  600MOL0     H80935   2.094  10.985   2.918  0.0323  1.2475 -0.3148
  600MOL0     H80936   2.205  10.851   2.870  1.5000  1.0582  0.1634
  600MOL0     H80937   2.190  11.119   2.748 -1.4933 -2.3451 -4.0543
  600MOL0     H80938   2.318  10.991   2.712 -1.5295 -1.0223  0.5441
  600MOL0     H80939   2.292  11.127   2.989  0.4713  3.0504  0.3577
  600MOL0     H80940   2.371  11.196   2.855  1.9671  0.1921 -0.9210
  600MOL0     H80941   2.406  10.913   2.977  1.7669 -1.3301 -1.7685
  600MOL0     H80942   2.511  10.972   2.844 -1.8896  1.2782 -2.5720
  600MOL0     H80943   2.504  11.062   3.137  2.0105  1.1543  1.1658
  600MOL0     H80944   2.625  10.961   3.058  1.2352  1.6776  0.5561
  600MOL0     H80945   2.703  11.116   2.904 -0.2483 -0.9974  0.3356
  600MOL0     H80946   2.591  11.243   2.948  1.0571 -0.1605 -1.5801
  600MOL0     H80947   2.799  11.123   3.157  0.9569  1.7284 -0.3046
  600MOL0     H80948   2.696  11.272   3.160 -0.7487 -0.5239  0.6582
  600MOL0     H80949   2.813  11.355   2.974  0.4291 -1.9980 -0.8181
  600MOL0     H80950   2.926  11.340   3.115  1.4829 -0.0216  0.5244
  600MOL0     H80951   3.111  11.363   2.966 -2.2708  0.4484 -2.0127
  600MOL0     H80952   3.265  11.280   2.708  2.2198 -1.0516 -0.2946
  600MOL0     H80953   3.336  11.247   2.861 -2.2545  4.3484  0.5487
  600MOL0     H80954   3.376  11.002   2.791  1.5630  0.1413 -0.3521
  600MOL0     H80955   3.257  11.026   2.658  0.8009 -3.4920  0.3671
  600MOL0     H80956   3.439  11.142   2.540  1.9258 -0.6333 -0.5925
  600MOL0     H80957   3.497  10.977   2.605  0.7138 -0.1550  0.2019
  600MOL0     H80958   3.630  11.075   2.763 -0.5530 -0.9369 -0.1690
  600MOL0     H80959   3.559  11.240   2.730  1.1245  0.7616 -2.5762
  600MOL0     H80960   3.788  10.944   2.695  0.8459 -2.6534  0.5596
  600MOL0     H80961   4.016  10.863   2.665  2.0036  1.4471 -0.1412
  600MOL0     H80962   4.419  10.853   2.639 -0.6553  1.6493 -2.5331
  600MOL0     H80963   4.607  10.691   2.633  0.3391 -0.7571 -1.4123
  600MOL0     H80964   4.560  10.264   2.493  1.7984  0.9386  3.1049
  600MOL0     H80965   4.574  10.357   2.335 -0.2061 -1.5114 -0.7078
  600MOL0     H80966   4.811  10.307   2.514  0.1306 -1.3054  0.1832
  600MOL0     H80967   4.747  10.172   2.421  1.0046 -0.2174 -0.6882
  600MOL0     H80968   4.836  10.437   2.304  1.4916 -0.0680 -0.8169
  600MOL0     H80969   4.928  10.289   2.293 -1.2240 -2.6555 -1.7682
  600MOL0     H80970   4.683  10.373   2.155 -1.4725 -0.5682 -1.2434
  600MOL0     H80971   4.682  10.207   2.175  3.3695 -2.7667 -1.9497
  600MOL0     H80972   4.901  10.183   2.070  0.7884  0.3763  0.4981
  600MOL0     H80973   4.920  10.345   2.032  0.0992 -1.8027 -3.3069
  600MOL0     H80974   4.670  10.307   1.914 -1.0537 -2.1056 -1.5243
  600MOL0     H80975   4.827  10.272   1.835  2.3577 -4.1498 -0.7751
  600MOL0     H80976   4.676  10.072   1.996  2.5610  2.6821  2.2263
  600MOL0     H80977   4.805  10.020   1.879 -0.8349 -0.2230 -5.0619
  600MOL0     H80978   4.579  10.164   1.761 -2.3256 -2.4775 -2.0381
  600MOL0     H80979   4.689  10.041   1.701 -1.4443  0.2603 -1.7972
  600MOL0     H80980   4.380  10.428   2.385  1.7709  0.2996 -0.7260
  600MOL0     H80981   4.180  10.572   2.409 -0.0621 -3.7182  1.8073
  600MOL0     H80982   4.065  11.143   2.347 -0.6206 -1.0263 -0.6069
  600MOL0     H80983   3.857  11.264   2.424 -0.3351  1.1961  0.6075
  600MOL0     H80984   2.012  10.739   2.537 -1.9549 -1.8433 -2.1463
  600MOL0     H80985   1.846  10.548   2.576  1.5877 -1.9606  2.0823
  600MOL0     H80986   1.529  10.316   2.903 -2.2793 -2.2397 -0.8697
  600MOL0     H80987   1.444  10.094   2.914  1.2196  1.9420  1.1680
  600MOL0     H80988   1.695   9.774   3.007  0.9316 -1.7653  0.2080
  600MOL0     H80989   1.673   9.726   2.836 -0.3516  1.1017 -0.6470
  600MOL0     H80990   1.476   9.685   3.051  0.8002 -0.3688  1.0709
  600MOL0     H80991   1.596   9.556   3.018 -0.0594 -2.1954 -2.3134
  600MOL0     H80992   1.495   9.589   2.770  0.7087  0.6397  0.5095
  600MOL0     H80993   1.351   9.654   2.853 -0.6293 -1.8807 -1.6909
  600MOL0     H80994   1.304   9.430   2.835 -0.2032 -0.8176  0.9492
  600MOL0     H80995   1.462   9.370   2.870 -0.8493 -0.4409  0.1994
  600MOL0     H80996   1.281   9.408   3.248 -1.1171 -0.6453  0.0603
  600MOL0     H80997   1.817   9.920   2.860 -0.2620 -0.2921  2.3996
  600MOL0     H80998   2.001  10.208   2.769 -1.2307  1.3927 -0.0039
  600MOL0     H80999   2.023  10.138   2.927 -2.5441 -2.5098  1.4103
  600MOL0     H81000   1.989  10.032   2.787 -2.5075 -0.5189 -1.6072
  601MOL0     O81001   2.102   7.811   4.330  0.7196  0.7900 -0.4549
  601MOL0     C81002   2.073   7.749   4.427  0.1087 -0.3916 -0.1645
  601MOL0     O81003   2.094   7.607   4.440 -0.0972 -0.2946  0.3696
  601MOL0     C81004   2.133   7.534   4.330  0.0357  0.2285 -0.2301
  601MOL0     C81005   2.227   7.566   4.230  0.0590 -0.4964 -0.0636
  601MOL0     C81006   2.251   7.476   4.123 -0.2798  0.1610 -0.8910
  601MOL0     C81007   2.218   7.348   4.145 -0.4271  0.1666  0.2942
  601MOL0     O81008   2.264   7.258   4.055  0.3915  0.5585  0.4308
  601MOL0     C81009   2.175   7.216   3.950 -0.2442  0.2939  0.0808
  601MOL0     C81010   2.264   7.171   3.837 -0.8985 -0.6930  0.4824
  601MOL0     C81011   2.348   7.051   3.878 -0.0465 -0.1392 -0.6494
  601MOL0     C81012   2.416   7.003   3.747  0.3735  1.2341  0.1143
  601MOL0     C81013   2.512   6.878   3.773 -0.7065 -1.1006 -0.3813
  601MOL0     C81014   2.598   6.833   3.657  0.0397  0.4367 -0.4676
  601MOL0     C81015   2.726   6.754   3.702 -0.1103  0.5474  0.0513
  601MOL0     C81016   2.841   6.843   3.764 -0.7319 -0.4134 -0.4699
  601MOL0     N81017   2.967   6.775   3.738  0.3476 -0.1383  0.0295
  601MOL0     C81018   3.012   6.735   3.617  0.2314 -0.4733 -0.7043
  601MOL0     C81019   3.107   6.646   3.648 -0.1134  0.2115  0.5293
  601MOL0     C81020   3.149   6.559   3.529  0.6216  0.2952  0.1376
  601MOL0     C81021   3.284   6.603   3.476 -0.5526  0.7094 -0.0241
  601MOL0     C81022   3.353   6.491   3.393  0.6429 -0.1838  0.3886
  601MOL0     C81023   3.492   6.537   3.339  0.4736  0.4823  0.0144
  601MOL0     O81024   3.532   6.466   3.221  0.7505  0.3044  0.0472
  601MOL0     C81025   3.651   6.506   3.158 -0.4221 -0.5664  0.5602
  601MOL0     C81026   3.732   6.601   3.216  0.5969  0.1785 -0.6031
  601MOL0     C81027   3.845   6.643   3.157  0.3304 -0.8496 -0.2513
  601MOL0     C81028   3.885   6.597   3.029  0.5641  0.7320  0.1846
  601MOL0     C81029   4.002   6.651   2.968 -0.4521 -0.0975 -0.1753
  601MOL0     O81030   4.083   6.726   3.042  0.2362  0.8614  0.1983
  601MOL0     C81031   4.189   6.775   2.969  0.0875  0.3002  0.6073
  601MOL0     C81032   4.213   6.913   2.962  0.3331 -0.5670  0.2399
  601MOL0     C81033   4.331   6.951   2.898  0.3171 -1.1496 -0.6189
  601MOL0     C81034   4.429   6.871   2.850 -0.5266 -0.8060 -0.5078
  601MOL0     O81035   4.536   6.943   2.800 -0.3726  0.7243 -0.3482
  601MOL0     C81036   4.649   6.873   2.746 -0.5891 -0.3533 -0.0904
  601MOL0     C81037   4.766   6.966   2.726 -0.9392 -0.6686  0.2137
  601MOL0     C81038   4.721   7.075   2.636  0.3007  0.1961 -1.7063
  601MOL0     C81039   4.826   7.175   2.591  0.5183  0.0314 -0.5644
  601MOL0     C81040   4.947   7.119   2.523 -0.2906  0.3475  0.3826
  601MOL0     C81041   5.051   7.229   2.481  0.0271  0.1678  0.3149
  601MOL0     C81042   5.192   7.194   2.429  0.3351 -0.2889  0.1704
  601MOL0     C81043   5.283   7.134   2.540 -0.9866  0.0182  0.8415
  601MOL0    Cl81044   5.289   7.256   2.669  0.5268 -0.0225  0.0426
  601MOL0     C81045   4.407   6.736   2.862  0.1972  0.2391 -0.3475
  601MOL0     C81046   4.280   6.691   2.915 -0.1506  0.7517  0.3967
  601MOL0     O81047   4.007   6.629   2.850 -0.3719 -0.6531 -0.2131
  601MOL0     C81048   3.818   6.482   2.975  0.4088  0.2894  0.4977
  601MOL0     C81049   3.699   6.443   3.032 -0.4828 -0.1238 -0.6486
  601MOL0     N81050   3.137   6.644   3.775 -0.3878 -1.1599  0.5462
  601MOL0     N81051   3.051   6.720   3.833 -0.0114 -0.4100  0.2939
  601MOL0     C81052   2.127   7.309   4.248 -0.1863  0.0750  1.0577
  601MOL0     C81053   2.083   7.408   4.338 -0.4338  0.2137  0.5520
  601MOL0     C81054   1.978   7.809   4.526  0.8859  0.8779 -0.0748
  601MOL0     C81055   1.872   7.891   4.472 -0.0684  0.8307  0.1627
  601MOL0     C81056   1.766   7.931   4.542 -0.3355  0.2819 -0.4092
  601MOL0     C81057   1.756   7.903   4.680 -1.0888  0.1927  0.2151
  601MOL0     O81058   1.652   7.952   4.756  1.0462 -0.0466  0.6093
  601MOL0     C81059   1.560   7.845   4.798  0.3497  0.2819  0.2165
  601MOL0     C81060   1.432   7.868   4.718  0.0225 -0.0445 -0.1694
  601MOL0     C81061   1.318   7.788   4.777  0.9764  0.0501 -0.1285
  601MOL0     C81062   1.198   7.780   4.674 -0.0255 -0.6488 -0.6494
  601MOL0     C81063   1.074   7.779   4.743  0.0276 -0.2891  0.4261
  601MOL0     C81064   0.979   7.772   4.823  1.0088  1.1856  0.5889
  601MOL0     C81065   1.859   7.826   4.740 -0.1380  0.1735 -0.2291
  601MOL0     C81066   1.967   7.763   4.661 -0.2430 -0.0025 -0.4475
  601MOL0     C81067   2.068   7.673   4.716  0.9829 -0.7468  0.4913
  601MOL0     H81068   2.275   7.663   4.235 -0.8948 -0.0929  3.3637
  601MOL0     H81069   2.314   7.497   4.037  0.9908 -0.6925 -0.2002
  601MOL0     H81070   2.096   7.147   3.982 -1.2974  1.2991 -0.2811
  601MOL0     H81071   2.119   7.301   3.910  1.1152  1.1286 -0.1206
  601MOL0     H81072   2.341   7.244   3.813  0.2860 -1.3600  2.1000
  601MOL0     H81073   2.215   7.139   3.745 -0.4714 -0.2287  0.0889
  601MOL0     H81074   2.292   6.966   3.918 -3.4133  1.2720 -1.9510
  601MOL0     H81075   2.423   7.071   3.956 -1.7685 -0.5672  1.2079
  601MOL0     H81076   2.351   6.961   3.670 -1.5344  0.5204  2.0208
  601MOL0     H81077   2.469   7.082   3.692 -1.5681  1.4880 -1.5179
  601MOL0     H81078   2.578   6.912   3.853  0.2749  1.6741 -2.2060
  601MOL0     H81079   2.453   6.792   3.807  0.6816 -1.2016  1.9921
  601MOL0     H81080   2.533   6.767   3.599  0.0854 -0.3070  0.3063
  601MOL0     H81081   2.619   6.921   3.595 -1.9629 -1.8205 -4.8389
  601MOL0     H81082   2.756   6.713   3.605 -1.1362 -1.5705  0.5574
  601MOL0     H81083   2.712   6.668   3.768  3.1587  0.2933  0.5455
  601MOL0     H81084   2.824   6.945   3.727 -2.1367 -0.3371  0.2968
  601MOL0     H81085   2.816   6.836   3.870  0.2634 -1.4917 -0.2897
  601MOL0     H81086   2.979   6.758   3.516  2.4746  2.2336 -0.9447
  601MOL0     H81087   3.155   6.454   3.560  0.2606  0.2636  0.1064
  601MOL0     H81088   3.079   6.559   3.445  1.9818  1.7389 -1.0568
  601MOL0     H81089   3.272   6.684   3.403 -1.7817  1.7407  1.2766
  601MOL0     H81090   3.353   6.645   3.550  1.8690  0.1163 -1.7979
  601MOL0     H81091   3.290   6.461   3.309  1.5535  2.9622 -1.6032
  601MOL0     H81092   3.368   6.410   3.465  0.8538  1.1146  1.8530
  601MOL0     H81093   3.561   6.520   3.423 -1.8536 -0.8384  1.7716
  601MOL0     H81094   3.486   6.645   3.320 -2.0217  0.7642  1.9279
  601MOL0     H81095   3.709   6.654   3.309 -5.1205 -3.5533  0.6375
  601MOL0     H81096   3.902   6.722   3.203 -2.2080  0.7515  0.3136
  601MOL0     H81097   4.147   6.990   3.001  1.0271 -1.0832  2.6142
  601MOL0     H81098   4.334   7.059   2.882  0.6798 -1.3195 -1.8705
  601MOL0     H81099   4.685   6.796   2.815  3.7348  0.1228 -1.4626
  601MOL0     H81100   4.618   6.827   2.652 -1.1071  0.4399 -0.3190
  601MOL0     H81101   4.806   6.996   2.823 -4.9359  2.1267  1.2391
  601MOL0     H81102   4.849   6.916   2.675  1.1326  4.2421 -1.8083
  601MOL0     H81103   4.666   7.039   2.549 -1.9267  1.5190 -0.9217
  601MOL0     H81104   4.647   7.124   2.700  2.5967 -1.6592  2.7994
  601MOL0     H81105   4.850   7.236   2.679 -3.6333  1.6707 -0.3366
  601MOL0     H81106   4.778   7.244   2.521 -1.7718 -2.6029 -1.7625
  601MOL0     H81107   4.930   7.055   2.436  0.2993 -2.3865  2.1564
  601MOL0     H81108   5.013   7.061   2.588  1.8681  1.7611 -0.4317
  601MOL0     H81109   5.015   7.274   2.388  3.0593 -0.6792 -1.4085
  601MOL0     H81110   5.060   7.308   2.557  0.0847 -1.9887  2.6784
  601MOL0     H81111   5.222   7.289   2.385  1.1764 -0.9164 -0.6448
  601MOL0     H81112   5.187   7.133   2.338 -1.7636 -0.5456  0.3956
  601MOL0     H81113   5.246   7.035   2.570 -4.3426  1.0176  0.4861
  601MOL0     H81114   5.381   7.119   2.495 -1.7846 -3.4424 -0.0561
  601MOL0     H81115   4.485   6.669   2.827  1.2515  2.0635 -1.6859
  601MOL0     H81116   4.259   6.585   2.918  0.2811  0.5665 -1.5408
  601MOL0     H81117   3.840   6.421   2.888  0.5686  0.8823  0.1160
  601MOL0     H81118   3.641   6.361   2.991 -0.1860 -0.4294 -0.4630
  601MOL0     H81119   2.108   7.203   4.254  1.4743 -0.5502 -2.2527
  601MOL0     H81120   2.016   7.374   4.416 -2.6127 -0.4987 -1.5092
  601MOL0     H81121   1.865   7.918   4.367 -1.5304  0.9251  0.2624
  601MOL0     H81122   1.696   8.002   4.498 -0.2394  1.4774  1.3036
  601MOL0     H81123   1.557   7.848   4.907  0.6291  0.3217  0.2245
  601MOL0     H81124   1.591   7.744   4.769  0.0049  0.5627 -1.2100
  601MOL0     H81125   1.457   7.842   4.615 -1.7297 -0.5103 -0.5162
  601MOL0     H81126   1.411   7.976   4.720 -1.3805 -0.2872 -0.5636
  601MOL0     H81127   1.274   7.847   4.858 -2.1039 -0.6847 -1.1252
  601MOL0     H81128   1.342   7.690   4.819  0.9978 -0.4944 -1.3632
  601MOL0     H81129   1.203   7.863   4.602 -1.5915 -1.2656 -1.5142
  601MOL0     H81130   1.221   7.685   4.626  1.7508 -0.3647 -0.4543
  601MOL0     H81131   0.893   7.771   4.888 -0.9338 -1.1889 -1.7919
  601MOL0     H81132   1.853   7.790   4.842  1.1584 -0.7234 -0.4420
  601MOL0     H81133   2.164   7.678   4.663  0.5949  1.1750 -0.1482
  601MOL0     H81134   2.080   7.696   4.822  1.6473 -0.4843  0.3680
  601MOL0     H81135   2.023   7.574   4.715 -0.2739 -0.2011  1.2775
  602MOL0     O81136  11.316   0.625   6.962  0.4059  0.6165  0.0736
  602MOL0     C81137  11.272   0.515   6.945 -0.3839  0.1681 -0.0624
  602MOL0     O81138  11.308   0.414   6.847 -0.4103  0.4225  0.3943
  602MOL0     C81139  11.432   0.389   6.804 -0.2434 -0.0855 -0.4853
  602MOL0     C81140  11.438   0.269   6.740  0.1648  0.4442  0.1022
  602MOL0     C81141  11.563   0.206   6.712  0.2874 -0.3325 -0.0674
  602MOL0     C81142  11.680   0.268   6.753  0.1614  0.5373 -0.0680
  602MOL0     O81143  11.804   0.214   6.738  0.1006 -0.0425  0.5929
  602MOL0     C81144  11.886   0.284   6.632 -0.4011 -0.2984  0.2719
  602MOL0     C81145  12.024   0.216   6.624 -0.2912 -0.2016 -0.6177
  602MOL0     C81146  12.112   0.231   6.759 -1.3408  0.2234 -0.3872
  602MOL0     C81147  12.269   0.203   6.722 -0.0051  0.4426 -0.1238
  602MOL0     C81148  12.277   0.069   6.644  0.2219  0.8162  0.7573
  602MOL0     C81149  12.421   0.025   6.631  0.5364  0.1974 -0.6994
  602MOL0     C81150  12.429  -0.119   6.580  0.9056 -0.0662 -0.5507
  602MOL0     C81151  12.403  -0.229   6.689  0.8468  0.8022  0.5211
  602MOL0     N81152  12.461  -0.211   6.826 -0.3945  0.6096  1.0555
  602MOL0     C81153  12.592  -0.212   6.852 -1.0945 -0.6382 -0.1575
  602MOL0     C81154  12.601  -0.164   6.984 -0.4630  0.8287  0.0204
  602MOL0     C81155  12.724  -0.140   7.053 -0.1903  0.5609  0.3830
  602MOL0     C81156  12.734  -0.175   7.202 -1.0533 -1.2541  0.2664
  602MOL0     C81157  12.688  -0.316   7.232 -1.4426  0.8654 -0.5727
  602MOL0     C81158  12.749  -0.361   7.363  0.1300 -0.6103  0.5865
  602MOL0     O81159  12.689  -0.488   7.397  0.6500 -0.4998 -0.2579
  602MOL0     C81160  12.740  -0.553   7.504 -0.7208  0.4953  0.2810
  602MOL0     C81161  12.656  -0.658   7.552 -0.4393 -0.1640 -0.3948
  602MOL0     C81162  12.700  -0.752   7.646  0.0179 -0.7439 -0.2229
  602MOL0     C81163  12.833  -0.760   7.690  0.5538 -0.5226 -0.3290
  602MOL0     C81164  12.882  -0.873   7.767 -0.4023 -0.0759 -0.4655
  602MOL0     O81165  13.018  -0.866   7.787 -0.0501 -0.0974  0.0311
  602MOL0     C81166  13.086  -0.975   7.826 -0.1833 -0.2172  0.6656
  602MOL0     C81167  13.196  -0.961   7.908  0.7968 -1.0999 -0.1058
  602MOL0     C81168  13.273  -1.077   7.936  0.0237 -1.6242 -0.4906
  602MOL0     C81169  13.259  -1.197   7.857  0.5982  0.1186 -0.0917
  602MOL0     O81170  13.353  -1.297   7.885  0.5397 -0.4387  0.1615
  602MOL0     C81171  13.336  -1.408   7.802  0.6849 -0.5636 -0.1258
  602MOL0     C81172  13.443  -1.506   7.843  0.2555 -0.3256 -0.1932
  602MOL0     C81173  13.586  -1.485   7.780 -0.1867  0.3849  0.9975
  602MOL0     C81174  13.694  -1.569   7.844  0.8905 -0.7488  0.4693
  602MOL0     C81175  13.811  -1.574   7.743  0.1536 -0.4713  0.6248
  602MOL0     C81176  13.922  -1.646   7.814  0.5398  0.1478  0.6329
  602MOL0     C81177  14.061  -1.631   7.737 -0.2984  0.2113  0.5627
  602MOL0     C81178  14.054  -1.710   7.596  0.1405  1.2526  0.3414
  602MOL0    Cl81179  14.233  -1.733   7.530 -0.5550 -0.2545  0.3345
  602MOL0     C81180  13.138  -1.207   7.791 -0.0497 -0.4932 -0.2034
  602MOL0     C81181  13.051  -1.102   7.771 -0.3360  0.3946  0.4484
  602MOL0     O81182  12.797  -0.946   7.819  0.0406  0.3188  0.1977
  602MOL0     C81183  12.920  -0.660   7.635  0.7634  0.7038  0.1681
  602MOL0     C81184  12.871  -0.555   7.548 -0.4673 -0.1554 -0.5037
  602MOL0     N81185  12.473  -0.140   7.041 -0.1998  0.4338  0.3063
  602MOL0     N81186  12.391  -0.169   6.937  1.1414  0.0367  0.5541
  602MOL0     C81187  11.672   0.399   6.808  0.1552 -0.0928  0.2581
  602MOL0     C81188  11.550   0.459   6.819  0.1834 -0.3580 -0.3957
  602MOL0     C81189  11.152   0.501   7.035 -0.5518 -0.0528  0.3030
  602MOL0     C81190  11.123   0.363   7.069 -0.4512 -0.2675 -0.5058
  602MOL0     C81191  11.008   0.329   7.148  0.4186  0.3896 -0.2345
  602MOL0     C81192  10.927   0.431   7.201  0.8516  0.8336 -0.3211
  602MOL0     O81193  10.814   0.385   7.265  0.3296  0.3866 -0.1156
  602MOL0     C81194  10.695   0.444   7.210 -0.8574  0.6364 -0.7226
  602MOL0     C81195  10.620   0.527   7.315 -0.0565  0.0074 -0.1436
  602MOL0     C81196  10.569   0.459   7.440  0.3745 -0.5532  0.5224
  602MOL0     C81197  10.491   0.546   7.539  0.9007  0.3214 -0.1316
  602MOL0     C81198  10.380   0.614   7.470 -0.1622  0.7790  0.1297
  602MOL0     C81199  10.296   0.673   7.407 -0.6172 -0.3363  0.0470
  602MOL0     C81200  10.945   0.566   7.159 -0.5967 -0.4609  0.2945
  602MOL0     C81201  11.059   0.603   7.078  0.6767  0.3687 -1.1792
  602MOL0     C81202  11.078   0.744   7.030  0.5349 -0.2610  0.2105
  602MOL0     H81203  11.345   0.215   6.722 -0.0113  0.5450  0.7071
  602MOL0     H81204  11.585   0.125   6.644  3.0101 -0.4372  0.8326
  602MOL0     H81205  11.836   0.278   6.535 -3.0179 -0.6776  1.5345
  602MOL0     H81206  11.885   0.391   6.654  0.2068 -0.2406  0.0169
  602MOL0     H81207  12.075   0.277   6.549 -0.4697 -0.8566 -1.2716
  602MOL0     H81208  12.005   0.111   6.602  0.2005 -0.3232 -0.4685
  602MOL0     H81209  12.079   0.154   6.828  1.7863  0.2341  1.2899
  602MOL0     H81210  12.105   0.330   6.806  0.0556  1.8790 -3.3461
  602MOL0     H81211  12.317   0.285   6.668  2.0448 -2.4989 -3.2446
  602MOL0     H81212  12.321   0.185   6.817  1.5871 -0.8936 -1.1865
  602MOL0     H81213  12.224  -0.010   6.696  4.3398 -2.2624  0.7870
  602MOL0     H81214  12.233   0.088   6.546 -0.8786 -0.4784  0.9774
  602MOL0     H81215  12.488   0.089   6.573  0.7864  0.9460  0.3913
  602MOL0     H81216  12.452   0.029   6.736  1.1228  2.9512 -0.8954
  602MOL0     H81217  12.532  -0.135   6.547  0.2934  2.0492 -4.1170
  602MOL0     H81218  12.362  -0.141   6.496  1.5250 -0.8702 -0.8489
  602MOL0     H81219  12.298  -0.232   6.721  0.6934  2.6037  0.2871
  602MOL0     H81220  12.436  -0.324   6.646 -2.0547 -0.6917  1.3252
  602MOL0     H81221  12.673  -0.226   6.781 -0.9685  1.9670 -0.6477
  602MOL0     H81222  12.798  -0.207   7.007  0.2939 -0.5562  2.6600
  602MOL0     H81223  12.740  -0.033   7.038  0.7848  0.3018 -0.4898
  602MOL0     H81224  12.841  -0.170   7.226 -0.9919 -3.2831  0.6289
  602MOL0     H81225  12.682  -0.096   7.257 -1.3767 -1.4766  0.2843
  602MOL0     H81226  12.709  -0.386   7.151  0.1017  0.4924  0.1197
  602MOL0     H81227  12.579  -0.312   7.241 -1.5578 -2.5566  0.8060
  602MOL0     H81228  12.740  -0.289   7.444 -1.7409  0.8423 -0.8035
  602MOL0     H81229  12.856  -0.375   7.348  0.2829  0.7510  0.3325
  602MOL0     H81230  12.553  -0.660   7.518 -0.4905 -0.1930 -0.2392
  602MOL0     H81231  12.625  -0.818   7.688 -2.0457  1.7408  0.2255
  602MOL0     H81232  13.201  -0.862   7.953 -3.6950 -1.9645  2.9942
  602MOL0     H81233  13.365  -1.084   7.992  0.7159 -2.4433 -1.6660
  602MOL0     H81234  13.246  -1.463   7.833 -1.2723  0.8287 -2.8456
  602MOL0     H81235  13.347  -1.387   7.695  1.3542  1.4657  0.3018
  602MOL0     H81236  13.449  -1.518   7.952 -1.0191 -4.0669 -0.3902
  602MOL0     H81237  13.420  -1.610   7.815  3.9179 -1.2642 -0.3563
  602MOL0     H81238  13.579  -1.504   7.672 -1.1190  2.1073  0.7183
  602MOL0     H81239  13.616  -1.380   7.787 -1.1005  0.6529  1.0702
  602MOL0     H81240  13.653  -1.670   7.850  1.2538 -0.9388 -0.0919
  602MOL0     H81241  13.723  -1.534   7.943 -2.1049 -2.1278  1.9862
  602MOL0     H81242  13.838  -1.469   7.726 -2.3767  0.6798  2.9131
  602MOL0     H81243  13.789  -1.625   7.649  1.1469 -2.5771  1.4750
  602MOL0     H81244  13.927  -1.588   7.906 -4.3717 -1.3004  2.0887
  602MOL0     H81245  13.906  -1.751   7.839  1.0539 -0.2460 -0.5789
  602MOL0     H81246  14.151  -1.654   7.795 -1.3751  0.7569  2.5272
  602MOL0     H81247  14.081  -1.524   7.730  0.5998  0.0754  0.9170
  602MOL0     H81248  14.007  -1.807   7.608 -0.9507  1.7688  0.3157
  602MOL0     H81249  14.006  -1.669   7.506  3.3518 -0.2072 -2.2788
  602MOL0     H81250  13.119  -1.299   7.736 -0.0241  0.6133 -2.1370
  602MOL0     H81251  12.972  -1.108   7.698 -1.1122  1.5705  1.1501
  602MOL0     H81252  13.021  -0.670   7.672  1.2532  1.5343 -0.8748
  602MOL0     H81253  12.948  -0.499   7.495 -0.7599 -1.5796 -2.5512
  602MOL0     H81254  11.770   0.435   6.837  2.3505 -4.9099 -0.2183
  602MOL0     H81255  11.551   0.563   6.848  0.9317 -0.7580  1.1065
  602MOL0     H81256  11.188   0.281   7.038  1.4407  1.9092 -2.7201
  602MOL0     H81257  10.977   0.227   7.167 -2.1062  1.1280  0.0679
  602MOL0     H81258  10.633   0.360   7.177  0.3553 -0.8515  0.6189
  602MOL0     H81259  10.711   0.506   7.121  0.8930  0.6726 -0.4092
  602MOL0     H81260  10.538   0.570   7.257 -0.4372  1.3893  1.3620
  602MOL0     H81261  10.683   0.610   7.346  0.2811 -0.6998  1.1418
  602MOL0     H81262  10.656   0.415   7.490  1.2505  1.2271  0.6775
  602MOL0     H81263  10.511   0.375   7.401 -3.1939  2.1297 -0.4467
  602MOL0     H81264  10.461   0.468   7.610 -0.6628 -0.1842 -1.2809
  602MOL0     H81265  10.550   0.624   7.588  1.2731 -0.0706  0.0480
  602MOL0     H81266  10.222   0.717   7.343  0.3368  1.4482  0.1091
  602MOL0     H81267  10.882   0.643   7.202 -1.3351 -0.9017  0.0207
  602MOL0     H81268  11.097   0.750   6.923 -2.9564  0.5295 -0.5004
  602MOL0     H81269  10.986   0.798   7.053  0.1145  1.2861 -4.0932
  602MOL0     H81270  11.166   0.786   7.080  2.2431  1.5851 -3.8942
  603MOL0     O81271   3.561   1.691   8.067 -0.3231  0.2059  0.5466
  603MOL0     C81272   3.575   1.620   7.966  0.4696 -0.2411  0.1440
  603MOL0     O81273   3.690   1.563   7.939  0.2670  0.5778 -0.6135
  603MOL0     C81274   3.809   1.595   8.003  0.6004  0.0442  0.1168
  603MOL0     C81275   3.854   1.726   8.033  0.1837  0.4324  0.3468
  603MOL0     C81276   3.980   1.734   8.100 -0.1091 -0.6708 -0.8371
  603MOL0     C81277   4.074   1.634   8.110  0.5600 -1.1807  0.1391
  603MOL0     O81278   4.195   1.667   8.164  0.3339  0.9483 -0.5003
  603MOL0     C81279   4.300   1.570   8.169  1.0051  0.2746  0.2731
  603MOL0     C81280   4.420   1.633   8.231  1.1988 -0.0861  0.6227
  603MOL0     C81281   4.544   1.540   8.230 -0.7092 -1.2805  0.3890
  603MOL0     C81282   4.637   1.568   8.352  0.5906 -0.0846  0.3495
  603MOL0     C81283   4.770   1.488   8.345  0.5557  0.5932 -0.0435
  603MOL0     C81284   4.861   1.552   8.245  0.0219 -0.0219 -0.2212
  603MOL0     C81285   5.004   1.496   8.243 -0.4370  0.1496  0.1747
  603MOL0     C81286   5.095   1.561   8.354 -0.5984 -0.5148 -0.7985
  603MOL0     N81287   5.227   1.545   8.325 -0.5248 -0.0709  0.4271
  603MOL0     C81288   5.309   1.435   8.328 -0.1632 -0.0500  0.7047
  603MOL0     C81289   5.426   1.473   8.270 -0.5296  1.0363  0.2087
  603MOL0     C81290   5.544   1.383   8.257 -0.4230 -0.0521 -0.2093
  603MOL0     C81291   5.613   1.378   8.394 -0.3608  0.1486 -0.4046
  603MOL0     C81292   5.737   1.291   8.399 -0.0639 -0.6858 -0.0972
  603MOL0     C81293   5.820   1.302   8.535  0.3146  0.2744 -0.1230
  603MOL0     O81294   5.893   1.429   8.547  0.4925 -0.5655 -0.5618
  603MOL0     C81295   6.014   1.441   8.491 -0.4484  0.0367  0.0476
  603MOL0     C81296   6.069   1.341   8.398 -0.6009  0.2353 -0.5159
  603MOL0     C81297   6.203   1.347   8.361  0.2349 -1.4834 -0.1679
  603MOL0     C81298   6.290   1.443   8.405  0.4948  0.2947  0.2925
  603MOL0     C81299   6.431   1.430   8.371  0.0044 -0.0560 -0.2690
  603MOL0     O81300   6.479   1.299   8.351 -0.5370 -0.2854 -0.0369
  603MOL0     C81301   6.604   1.249   8.383 -0.1996  0.0495  0.6979
  603MOL0     C81302   6.697   1.320   8.456 -0.3909 -0.3885  0.4364
  603MOL0     C81303   6.829   1.266   8.478 -0.0066  0.6096  0.2967
  603MOL0     C81304   6.865   1.146   8.430  0.1025  0.7436 -0.7918
  603MOL0     O81305   6.998   1.114   8.463 -0.0047 -0.2932 -0.5663
  603MOL0     C81306   7.074   1.041   8.363 -1.0228 -0.1636 -0.6311
  603MOL0     C81307   7.219   1.035   8.421 -0.0109 -0.1112  1.1672
  603MOL0     C81308   7.270   1.172   8.467 -0.5924 -0.1069  0.1640
  603MOL0     C81309   7.420   1.178   8.490  0.2827  0.3069 -0.0207
  603MOL0     C81310   7.469   1.062   8.594 -0.1616 -0.1820  0.5221
  603MOL0     C81311   7.601   1.098   8.646 -0.0688  0.5130 -0.3100
  603MOL0     C81312   7.643   1.016   8.775 -0.7557 -0.1181  0.8551
  603MOL0     C81313   7.789   1.052   8.809 -0.3595  0.4701 -0.1311
  603MOL0    Cl81314   7.906   0.988   8.684 -0.4037  0.3286  0.4006
  603MOL0     C81315   6.777   1.066   8.361 -0.4892 -0.3410 -0.0742
  603MOL0     C81316   6.649   1.120   8.328 -0.2979  0.1670 -0.4754
  603MOL0     O81317   6.503   1.527   8.375 -0.4548  0.0571  0.0749
  603MOL0     C81318   6.241   1.543   8.491  0.2134  0.9956 -0.1254
  603MOL0     C81319   6.101   1.540   8.537 -0.5661 -0.1448 -0.1245
  603MOL0     N81320   5.421   1.607   8.233 -0.2646  0.3066  0.5377
  603MOL0     N81321   5.296   1.640   8.266  0.0022  1.0921 -0.1014
  603MOL0     C81322   4.029   1.508   8.066 -0.9494 -0.2153 -0.3350
  603MOL0     C81323   3.899   1.488   8.017 -0.2706 -0.5332  0.9136
  603MOL0     C81324   3.450   1.581   7.899  0.2339  0.8405  0.0761
  603MOL0     C81325   3.325   1.622   7.952 -0.2668  1.6176 -0.4469
  603MOL0     C81326   3.205   1.573   7.900  0.2794  0.4393 -0.2279
  603MOL0     C81327   3.205   1.471   7.804 -0.1230 -1.4469  0.4500
  603MOL0     O81328   3.084   1.425   7.761 -0.3494 -0.3932 -0.3658
  603MOL0     C81329   3.071   1.312   7.673  0.4992  0.4127  0.6274
  603MOL0     C81330   2.959   1.221   7.730 -0.2530  1.1862  0.1479
  603MOL0     C81331   2.825   1.294   7.738  0.3418 -1.3854  0.4393
  603MOL0     C81332   2.764   1.353   7.607  0.2599 -0.2678  0.0666
  603MOL0     C81333   2.656   1.445   7.637  0.0124  0.0242 -0.5671
  603MOL0     C81334   2.569   1.507   7.682  1.1991  0.7864  0.9077
  603MOL0     C81335   3.327   1.440   7.749  0.0008  0.2082  0.9374
  603MOL0     C81336   3.447   1.489   7.791  0.0076  0.7821 -0.1963
  603MOL0     C81337   3.572   1.421   7.733  0.0041 -0.6010  1.4285
  603MOL0     H81338   3.783   1.805   8.010 -1.4517 -1.4282 -1.3664
  603MOL0     H81339   4.015   1.832   8.131  2.4424 -1.2617 -1.6013
  603MOL0     H81340   4.265   1.485   8.227  1.2443  1.4067  2.1458
  603MOL0     H81341   4.328   1.529   8.071 -1.5961 -3.6507  0.9394
  603MOL0     H81342   4.400   1.674   8.331  0.0000 -1.1928  0.8622
  603MOL0     H81343   4.445   1.721   8.171  0.8675  2.3318  3.7909
  603MOL0     H81344   4.596   1.565   8.137 -3.3469  0.2646 -0.7945
  603MOL0     H81345   4.524   1.433   8.236  0.9451 -1.5873  0.6627
  603MOL0     H81346   4.658   1.675   8.354  4.6572 -0.7126  0.6082
  603MOL0     H81347   4.590   1.559   8.451 -2.2011 -0.5019 -0.9210
  603MOL0     H81348   4.826   1.497   8.438  0.0874 -1.3750  0.4860
  603MOL0     H81349   4.748   1.381   8.334  0.7945  0.3088  1.9142
  603MOL0     H81350   4.813   1.525   8.151  1.7905 -0.7239 -0.9648
  603MOL0     H81351   4.854   1.660   8.259 -2.0586 -0.4816  4.0134
  603MOL0     H81352   5.054   1.513   8.147  1.1911 -0.3738  0.8895
  603MOL0     H81353   4.999   1.387   8.257  0.9624  0.0597  0.1829
  603MOL0     H81354   5.065   1.666   8.356  0.1480 -0.2911 -0.9419
  603MOL0     H81355   5.073   1.515   8.451 -4.0426  2.2216 -0.1067
  603MOL0     H81356   5.279   1.336   8.362  1.2768 -0.5052  0.7411
  603MOL0     H81357   5.511   1.284   8.222 -3.3636  1.4776 -2.1923
  603MOL0     H81358   5.618   1.421   8.186 -1.3152  0.2941 -0.9723
  603MOL0     H81359   5.640   1.480   8.423  0.0053  1.1825 -3.8382
  603MOL0     H81360   5.558   1.338   8.480  1.1998  0.4593  0.7783
  603MOL0     H81361   5.797   1.319   8.312  1.3029 -0.1700  0.9712
  603MOL0     H81362   5.709   1.186   8.389 -1.9365 -0.1771 -0.7034
  603MOL0     H81363   5.883   1.213   8.539 -0.2598 -0.1909 -1.2136
  603MOL0     H81364   5.754   1.302   8.623  3.4261  2.3182  2.4292
  603MOL0     H81365   6.025   1.249   8.362  1.6850 -0.5196 -1.5651
  603MOL0     H81366   6.236   1.266   8.296 -0.6569 -0.5798 -1.8350
  603MOL0     H81367   6.673   1.412   8.508  1.6508  0.6566 -0.3512
  603MOL0     H81368   6.897   1.327   8.538 -0.9954  0.2280  1.8736
  603MOL0     H81369   7.034   0.943   8.335 -0.6770 -1.1062  1.8706
  603MOL0     H81370   7.068   1.102   8.272 -4.6562 -0.3673 -0.6587
  603MOL0     H81371   7.223   0.959   8.499 -1.0395 -0.1785  1.1608
  603MOL0     H81372   7.281   1.008   8.335 -0.4288  0.5916  0.6396
  603MOL0     H81373   7.237   1.245   8.393 -0.7994  0.7922  1.1255
  603MOL0     H81374   7.217   1.211   8.555 -0.0356  1.6816 -0.2564
  603MOL0     H81375   7.435   1.284   8.515  1.0451  0.6489 -1.7966
  603MOL0     H81376   7.453   1.171   8.386 -0.5048  0.8237 -0.3170
  603MOL0     H81377   7.486   0.970   8.536  1.3064  2.6935 -4.2396
  603MOL0     H81378   7.391   1.056   8.670 -0.6270  1.9608  0.2809
  603MOL0     H81379   7.677   1.083   8.568 -0.1094  1.1129 -0.4675
  603MOL0     H81380   7.593   1.198   8.691 -1.1186  0.1726  0.2960
  603MOL0     H81381   7.621   0.910   8.765  3.7061 -1.1135 -1.1438
  603MOL0     H81382   7.597   1.059   8.865  0.0915 -0.3794  1.4287
  603MOL0     H81383   7.799   1.161   8.821 -6.1563  1.2237  1.1914
  603MOL0     H81384   7.807   1.011   8.908  2.3541  0.0529 -0.7328
  603MOL0     H81385   6.814   0.966   8.340  0.7009 -0.9237  3.9353
  603MOL0     H81386   6.579   1.064   8.267 -2.9947 -1.3282  3.5686
  603MOL0     H81387   6.309   1.620   8.528 -2.0304  2.2592  1.6834
  603MOL0     H81388   6.073   1.607   8.618 -0.8906 -1.4301  0.8628
  603MOL0     H81389   4.097   1.425   8.076 -2.2883 -1.2146  0.7215
  603MOL0     H81390   3.868   1.395   7.970  0.2419  1.2147 -3.2882
  603MOL0     H81391   3.307   1.701   8.024 -2.0760 -1.1583  2.3952
  603MOL0     H81392   3.112   1.611   7.941  0.0030 -0.5778  0.1303
  603MOL0     H81393   3.155   1.242   7.677 -0.1872 -0.3694  2.3027
  603MOL0     H81394   3.052   1.352   7.573  2.3728  1.2680  0.5661
  603MOL0     H81395   2.995   1.185   7.828 -0.1337  1.3796  0.1751
  603MOL0     H81396   2.949   1.135   7.663 -4.2079  0.6704  1.1632
  603MOL0     H81397   2.854   1.383   7.796  3.6998  0.8014 -4.0154
  603MOL0     H81398   2.747   1.239   7.792 -2.3043  1.5024 -0.1781
  603MOL0     H81399   2.836   1.396   7.536  0.2668 -2.4796 -1.3834
  603MOL0     H81400   2.731   1.266   7.550  0.4445 -0.1580 -0.2128
  603MOL0     H81401   2.495   1.579   7.713 -1.4265 -0.4130 -2.0182
  603MOL0     H81402   3.323   1.361   7.675 -0.8532 -0.1899  1.3910
  603MOL0     H81403   3.642   1.500   7.703 -1.3298  0.7879  1.8521
  603MOL0     H81404   3.617   1.357   7.809 -2.0170 -1.5305  1.8967
  603MOL0     H81405   3.543   1.358   7.648 -1.8771  0.0302  1.5475
  604MOL0     O81406   2.293   4.209   2.825  0.2495 -0.3316  0.7646
  604MOL0     C81407   2.354   4.257   2.919 -0.0204 -1.0590  0.2862
  604MOL0     O81408   2.487   4.239   2.935 -0.3234  0.0826  0.5940
  604MOL0     C81409   2.548   4.151   2.850 -0.2038  1.3359 -0.1201
  604MOL0     C81410   2.613   4.047   2.921 -0.8571  0.4111 -0.3602
  604MOL0     C81411   2.680   3.944   2.846  0.2166  0.7138  0.0619
  604MOL0     C81412   2.667   3.940   2.704 -0.4791  0.5245  0.5384
  604MOL0     O81413   2.712   3.829   2.648  0.2369 -0.4757  0.0560
  604MOL0     C81414   2.737   3.824   2.509 -0.0807 -0.1273 -0.2511
  604MOL0     C81415   2.820   3.708   2.488 -0.5069 -0.1257 -0.3949
  604MOL0     C81416   2.966   3.749   2.487  0.1750 -0.1364  0.9603
  604MOL0     C81417   3.043   3.616   2.455 -0.1821 -0.2913 -0.1914
  604MOL0     C81418   3.195   3.647   2.443 -0.1135  0.6099 -0.7988
  604MOL0     C81419   3.270   3.552   2.338 -0.3429 -0.1357 -1.0199
  604MOL0     C81420   3.423   3.570   2.340 -0.6887 -0.8626 -0.5059
  604MOL0     C81421   3.488   3.515   2.471 -0.0878 -1.1129 -1.0024
  604MOL0     N81422   3.626   3.567   2.478 -0.0334 -0.8188 -0.2683
  604MOL0     C81423   3.718   3.558   2.379  0.5419  0.2099 -0.4018
  604MOL0     C81424   3.834   3.602   2.434  0.3804 -0.6683 -0.8615
  604MOL0     C81425   3.961   3.628   2.354 -0.0941 -0.5715 -0.0893
  604MOL0     C81426   4.068   3.719   2.413  0.6178 -0.2749  0.2257
  604MOL0     C81427   4.177   3.737   2.309  0.7270 -0.0092  0.0891
  604MOL0     C81428   4.293   3.815   2.355 -0.2116 -0.5545  0.5707
  604MOL0     O81429   4.399   3.785   2.258  0.1530  0.4511  0.2399
  604MOL0     C81430   4.501   3.876   2.240 -1.3652 -0.0190  0.1558
  604MOL0     C81431   4.628   3.833   2.260  0.2566 -0.0002 -0.9120
  604MOL0     C81432   4.739   3.901   2.227 -0.9221 -0.0323 -0.2849
  604MOL0     C81433   4.726   4.029   2.179 -0.0013  1.1872 -0.2172
  604MOL0     C81434   4.845   4.102   2.138 -0.1531 -1.0952 -0.2917
  604MOL0     O81435   4.823   4.219   2.061  0.4673  0.4982  0.0260
  604MOL0     C81436   4.927   4.281   1.995 -0.5885  0.4751 -0.1625
  604MOL0     C81437   5.056   4.307   2.033  0.0335 -0.2521 -0.0745
  604MOL0     C81438   5.152   4.364   1.948  0.4520 -0.0248 -0.1670
  604MOL0     C81439   5.109   4.391   1.811  0.1962 -0.0369 -0.3641
  604MOL0     O81440   5.206   4.444   1.732  1.0441  0.3840 -0.2082
  604MOL0     C81441   5.188   4.589   1.699 -0.0160 -0.3779 -0.6528
  604MOL0     C81442   5.296   4.642   1.603 -0.5646 -0.1176 -0.7252
  604MOL0     C81443   5.436   4.653   1.666 -0.4495 -0.9166 -0.2741
  604MOL0     C81444   5.525   4.740   1.584 -0.1008 -0.2004 -0.7133
  604MOL0     C81445   5.511   4.888   1.625  0.3769 -0.2396 -0.0658
  604MOL0     C81446   5.602   4.972   1.538 -0.1436  0.9894 -0.3602
  604MOL0     C81447   5.749   4.960   1.570  0.0300  0.2141 -0.3181
  604MOL0     C81448   5.835   5.052   1.468 -0.3511 -0.1986  0.3133
  604MOL0    Cl81449   5.815   5.008   1.296 -0.3615  0.1446  0.4892
  604MOL0     C81450   4.971   4.389   1.782 -0.1036 -0.2236 -0.2417
  604MOL0     C81451   4.888   4.326   1.874 -0.0555 -0.3542 -0.4441
  604MOL0     O81452   4.953   4.052   2.162 -0.3100 -0.0271  0.6682
  604MOL0     C81453   4.593   4.079   2.157 -0.1450  0.1277  0.4047
  604MOL0     C81454   4.478   4.001   2.192 -0.2015 -0.3182  0.3609
  604MOL0     N81455   3.808   3.623   2.573 -0.3056  0.3033  0.9889
  604MOL0     N81456   3.690   3.608   2.593  0.7893 -0.3030 -0.3316
  604MOL0     C81457   2.612   4.047   2.637  1.0333 -0.0462 -0.0521
  604MOL0     C81458   2.551   4.149   2.713  0.6211 -0.1197  0.5638
  604MOL0     C81459   2.284   4.348   3.009  0.3072 -0.4814  0.9741
  604MOL0     C81460   2.332   4.353   3.143 -0.8604  0.2749  0.4653
  604MOL0     C81461   2.280   4.445   3.235 -0.1820 -0.4313 -1.0000
  604MOL0     C81462   2.187   4.542   3.204 -0.4554 -0.3634 -0.1770
  604MOL0     O81463   2.139   4.640   3.291  0.9607  0.4937 -0.2558
  604MOL0     C81464   2.153   4.617   3.431 -0.2002 -0.3133  0.0217
  604MOL0     C81465   2.060   4.711   3.520 -0.6927 -0.2064 -0.4484
  604MOL0     C81466   2.094   4.697   3.667 -0.0303 -0.3020  0.1849
  604MOL0     C81467   2.232   4.743   3.707 -0.3765  0.4167 -0.1152
  604MOL0     C81468   2.342   4.647   3.712 -0.2761  1.2832  0.7083
  604MOL0     C81469   2.448   4.577   3.724  0.4098  0.3596 -0.0433
  604MOL0     C81470   2.136   4.538   3.071  0.3289 -0.9782 -0.1593
  604MOL0     C81471   2.179   4.440   2.978  0.6934 -1.1261 -0.0938
  604MOL0     C81472   2.113   4.446   2.843 -0.3730  0.6669  0.7348
  604MOL0     H81473   2.607   4.037   3.029 -0.2650 -0.5201 -0.3997
  604MOL0     H81474   2.729   3.861   2.895 -3.1937 -1.5647  0.0068
  604MOL0     H81475   2.650   3.810   2.444 -0.2578  1.5022 -0.4106
  604MOL0     H81476   2.782   3.914   2.466  2.6177 -0.6406  1.2655
  604MOL0     H81477   2.794   3.670   2.389 -0.5695  2.9226 -1.6336
  604MOL0     H81478   2.810   3.623   2.557  1.9270 -0.7692 -0.7160
  604MOL0     H81479   2.996   3.791   2.583  2.1610 -0.9481  0.7380
  604MOL0     H81480   2.977   3.821   2.405 -1.3925  1.4554  2.0817
  604MOL0     H81481   3.020   3.541   2.531  0.4095  1.0110  1.3378
  604MOL0     H81482   3.009   3.585   2.355  4.1344  1.6922 -2.5302
  604MOL0     H81483   3.209   3.749   2.407  2.4261 -0.0048 -1.8011
  604MOL0     H81484   3.247   3.653   2.539  0.4908  0.7573 -1.1292
  604MOL0     H81485   3.241   3.448   2.356  1.2096 -0.3418  0.6031
  604MOL0     H81486   3.235   3.596   2.244 -3.2873  0.4468  0.2152
  604MOL0     H81487   3.443   3.677   2.331 -1.7572 -0.6692 -0.6405
  604MOL0     H81488   3.454   3.519   2.248 -1.7896  0.2251 -1.5149
  604MOL0     H81489   3.426   3.540   2.557  1.6877 -4.4404  1.4903
  604MOL0     H81490   3.495   3.406   2.458  1.2522 -1.0428 -1.0534
  604MOL0     H81491   3.700   3.543   2.273  2.2333  3.8171 -1.3828
  604MOL0     H81492   4.000   3.535   2.311 -2.1171 -0.7102 -1.7713
  604MOL0     H81493   3.927   3.677   2.263  2.1263  0.2113 -0.5659
  604MOL0     H81494   4.018   3.813   2.439 -2.2110 -2.0809  1.8348
  604MOL0     H81495   4.111   3.678   2.505 -2.1199 -0.2876  1.5971
  604MOL0     H81496   4.144   3.784   2.216  0.4593 -0.7087 -0.1729
  604MOL0     H81497   4.210   3.639   2.273 -0.9361  0.5991 -3.5180
  604MOL0     H81498   4.327   3.781   2.453  0.4447 -3.5954 -0.5778
  604MOL0     H81499   4.268   3.920   2.368 -1.7642 -0.8757  0.4449
  604MOL0     H81500   4.650   3.729   2.285 -2.3166 -0.5464 -0.5593
  604MOL0     H81501   4.841   3.872   2.250 -0.3394  0.7767 -1.7176
  604MOL0     H81502   5.104   4.280   2.126 -0.1614 -0.2738  0.0193
  604MOL0     H81503   5.255   4.378   1.979  0.8612 -2.3472 -0.3495
  604MOL0     H81504   5.096   4.600   1.641 -1.5743 -1.1555  1.5399
  604MOL0     H81505   5.190   4.659   1.783  4.8014 -1.0328  0.0427
  604MOL0     H81506   5.296   4.574   1.517 -2.4721 -1.6001  0.3804
  604MOL0     H81507   5.263   4.745   1.584 -5.7824 -0.3120  4.5959
  604MOL0     H81508   5.430   4.685   1.770  1.7401 -0.4585 -0.2364
  604MOL0     H81509   5.486   4.555   1.664  1.8845  0.1639  0.8126
  604MOL0     H81510   5.501   4.720   1.479 -2.2643 -3.6998  0.2905
  604MOL0     H81511   5.627   4.712   1.612 -0.4950  1.4694  2.9246
  604MOL0     H81512   5.525   4.908   1.732  1.0703 -2.8692  0.3913
  604MOL0     H81513   5.409   4.920   1.603  0.3317 -0.6596 -0.4623
  604MOL0     H81514   5.586   4.948   1.432 -1.2623  0.7719 -0.1607
  604MOL0     H81515   5.563   5.074   1.552 -3.2092  0.1430 -1.7202
  604MOL0     H81516   5.780   4.856   1.558  0.9891  0.6941 -2.5992
  604MOL0     H81517   5.762   4.996   1.672  2.0901  0.5097 -0.6346
  604MOL0     H81518   5.800   5.155   1.481 -1.0114 -0.2967 -0.5978
  604MOL0     H81519   5.941   5.052   1.497 -0.1792  2.1117 -0.1447
  604MOL0     H81520   4.935   4.429   1.688  1.9902  1.0722 -0.5552
  604MOL0     H81521   4.786   4.314   1.837  0.0391  0.8915 -1.1557
  604MOL0     H81522   4.586   4.183   2.126  1.1058  1.0819  3.0229
  604MOL0     H81523   4.372   4.017   2.174  0.1588  1.1789 -0.6172
  604MOL0     H81524   2.603   4.056   2.529 -2.8101 -1.8765 -0.0580
  604MOL0     H81525   2.490   4.222   2.662 -0.5682 -2.3435 -1.3478
  604MOL0     H81526   2.418   4.295   3.175  2.1910  2.1400 -3.5017
  604MOL0     H81527   2.329   4.450   3.331 -0.6110  0.9414 -0.8290
  604MOL0     H81528   2.260   4.636   3.448 -0.5025  0.6072  1.0021
  604MOL0     H81529   2.135   4.513   3.459  0.4545 -0.2041  0.9056
  604MOL0     H81530   1.959   4.681   3.493 -0.3366 -0.1570 -1.9705
  604MOL0     H81531   2.068   4.816   3.490  0.6074  0.2434  1.2909
  604MOL0     H81532   2.081   4.588   3.675 -4.5510 -0.5824 -5.0796
  604MOL0     H81533   2.028   4.761   3.726  0.1753  0.2989 -0.2306
  604MOL0     H81534   2.262   4.822   3.637  3.8467 -0.2362  0.7082
  604MOL0     H81535   2.227   4.780   3.810  0.3819  1.7841 -0.5399
  604MOL0     H81536   2.524   4.502   3.727  2.2156  2.1063  2.8011
  604MOL0     H81537   2.056   4.608   3.046  0.0005  0.0512  3.3074
  604MOL0     H81538   2.034   4.518   2.823 -1.7848 -1.4762 -2.2566
  604MOL0     H81539   2.187   4.465   2.764 -1.2889 -2.8064 -1.2152
  604MOL0     H81540   2.078   4.349   2.805 -4.8043  1.2276  2.8573
  605MOL0     O81541   6.090  10.470   3.203  0.2911 -1.1381  0.1447
  605MOL0     C81542   6.037  10.374   3.153  0.6648  0.1938  0.1533
  605MOL0     O81543   6.063  10.245   3.180 -0.5572  0.7830 -0.2782
  605MOL0     C81544   6.176  10.230   3.257 -0.1180 -0.7283 -0.3948
  605MOL0     C81545   6.304  10.261   3.205 -0.1436 -0.0351 -0.9541
  605MOL0     C81546   6.425  10.223   3.272  0.3157 -0.1820  0.1663
  605MOL0     C81547   6.410  10.181   3.404  0.6586  0.1483  0.7283
  605MOL0     O81548   6.513  10.135   3.478 -0.0374 -0.6384 -0.5053
  605MOL0     C81549   6.601  10.246   3.504  0.2464 -0.5320 -0.4389
  605MOL0     C81550   6.631  10.266   3.659  0.8196 -0.1603  0.3260
  605MOL0     C81551   6.560  10.395   3.703  0.1591 -0.7907  0.1520
  605MOL0     C81552   6.413  10.382   3.701 -0.5725  1.4388  0.8832
  605MOL0     C81553   6.337  10.501   3.760  0.5273  0.3339 -0.3283
  605MOL0     C81554   6.183  10.484   3.720 -1.1237  1.2625 -0.7442
  605MOL0     C81555   6.122  10.348   3.770  0.1028  1.4612 -0.6452
  605MOL0     C81556   6.114  10.304   3.910 -0.9114 -0.2296 -0.8985
  605MOL0     N81557   6.028  10.191   3.934  0.4017 -0.2199 -0.5416
  605MOL0     C81558   6.037  10.064   3.874  0.1284 -0.2480  0.0005
  605MOL0     C81559   5.953   9.998   3.950  1.0970  0.5363  0.1218
  605MOL0     C81560   5.893   9.857   3.915  1.1888 -0.8194 -0.1849
  605MOL0     C81561   5.793   9.799   4.012 -0.5315  0.5823 -0.5292
  605MOL0     C81562   5.868   9.734   4.131 -0.3260 -0.2606 -0.7579
  605MOL0     C81563   5.842   9.806   4.265  1.1343 -0.8440  0.1535
  605MOL0     O81564   5.727   9.738   4.326 -0.5548  0.3507  0.1946
  605MOL0     C81565   5.608   9.809   4.362 -0.5022 -0.0434  0.4032
  605MOL0     C81566   5.519   9.741   4.436  0.1673 -0.0337  0.1901
  605MOL0     C81567   5.399   9.799   4.474  0.8356 -0.2550 -0.4911
  605MOL0     C81568   5.369   9.929   4.433 -0.1956  0.5324  0.3367
  605MOL0     C81569   5.239   9.992   4.464  0.2941  0.3467  0.4654
  605MOL0     O81570   5.187   9.941   4.579  0.1880 -0.2048 -0.0661
  605MOL0     C81571   5.051   9.966   4.606  0.0866 -0.0957  0.2847
  605MOL0     C81572   4.958   9.960   4.504 -0.0545  0.9845 -0.2108
  605MOL0     C81573   4.816   9.970   4.529 -0.0893 -0.5324 -0.1074
  605MOL0     C81574   4.775  10.008   4.657  0.0864  0.5098 -0.1671
  605MOL0     O81575   4.644  10.026   4.682 -0.4728 -0.0599  0.0097
  605MOL0     C81576   4.614  10.145   4.763  1.0552 -0.4168 -0.1033
  605MOL0     C81577   4.545  10.116   4.907 -0.4700 -0.9141  0.2132
  605MOL0     C81578   4.509  10.258   4.971 -0.8219 -0.3896 -0.2808
  605MOL0     C81579   4.393  10.253   5.072  0.3829  0.0486 -0.0040
  605MOL0     C81580   4.373  10.379   5.144  0.8138 -0.1477  0.8044
  605MOL0     C81581   4.240  10.392   5.228  0.1062 -0.2413  0.5592
  605MOL0     C81582   4.255  10.323   5.367  0.7608 -0.2028  0.3329
  605MOL0     C81583   4.129  10.372   5.443  0.3553 -0.6605 -0.8916
  605MOL0    Cl81584   4.132  10.545   5.479 -0.2320 -0.5458 -0.4838
  605MOL0     C81585   4.868  10.020   4.755  0.0304  0.0122 -0.0435
  605MOL0     C81586   5.007   9.993   4.733 -0.5822  0.0307  0.4953
  605MOL0     O81587   5.199  10.089   4.398 -0.1518  0.2392 -0.6246
  605MOL0     C81588   5.455   9.998   4.350 -0.2817  0.5912  0.3646
  605MOL0     C81589   5.576   9.935   4.321 -0.6865  0.2012  0.1494
  605MOL0     N81590   5.906  10.076   4.058  0.2520 -0.7554  0.4782
  605MOL0     N81591   5.950  10.190   4.046 -0.6005  0.0391  0.6361
  605MOL0     C81592   6.282  10.155   3.460 -0.4360 -0.6302  0.1696
  605MOL0     C81593   6.167  10.175   3.383  0.9373 -0.6518  0.0563
  605MOL0     C81594   5.938  10.395   3.039 -0.7966 -0.4536 -0.7977
  605MOL0     C81595   5.819  10.321   3.044 -0.2021  0.5754  0.8829
  605MOL0     C81596   5.713  10.360   2.961 -0.1653  0.7814  0.9768
  605MOL0     C81597   5.737  10.450   2.853  0.4580 -0.6618 -0.7990
  605MOL0     O81598   5.641  10.492   2.759 -0.3273 -0.0510 -0.2263
  605MOL0     C81599   5.528  10.414   2.734 -0.3209 -0.1457 -0.5376
  605MOL0     C81600   5.486  10.449   2.597  0.4035  0.5266  0.7802
  605MOL0     C81601   5.382  10.337   2.540 -0.1716  0.3740 -0.0050
  605MOL0     C81602   5.249  10.330   2.617 -0.1188  0.2280  0.0592
  605MOL0     C81603   5.164  10.217   2.562  0.8314 -0.1384  0.2880
  605MOL0     C81604   5.102  10.111   2.529 -0.5861  0.8516 -0.1526
  605MOL0     C81605   5.862  10.510   2.851  0.1052 -0.4003 -0.6360
  605MOL0     C81606   5.964  10.485   2.934 -1.1065  0.8529 -0.4932
  605MOL0     C81607   6.097  10.545   2.922 -0.2719 -0.4422  0.4967
  605MOL0     H81608   6.312  10.301   3.104 -0.5193 -0.9755 -1.3713
  605MOL0     H81609   6.522  10.241   3.226  0.0201  1.5688  0.1362
  605MOL0     H81610   6.686  10.220   3.440 -0.1641  0.9944 -1.6721
  605MOL0     H81611   6.576  10.342   3.457 -0.5656 -1.8691 -2.9327
  605MOL0     H81612   6.739  10.283   3.648  0.5459  0.5068 -1.9504
  605MOL0     H81613   6.610  10.183   3.727  3.7153 -2.2735 -1.0821
  605MOL0     H81614   6.601  10.480   3.649 -1.5959  0.3705  0.5943
  605MOL0     H81615   6.584  10.404   3.810 -0.6681  0.3481  0.2481
  605MOL0     H81616   6.374  10.376   3.599  1.4290 -0.9624  0.1477
  605MOL0     H81617   6.390  10.290   3.756  1.5300  0.3227  0.0342
  605MOL0     H81618   6.341  10.503   3.870  1.7313 -1.1457 -0.3033
  605MOL0     H81619   6.394  10.587   3.724 -0.4869  0.9846 -0.3822
  605MOL0     H81620   6.123  10.570   3.749 -3.7920 -1.3466  2.3847
  605MOL0     H81621   6.173  10.475   3.612 -1.8836  1.1702 -0.6669
  605MOL0     H81622   6.156  10.259   3.718 -0.6421  1.0132 -0.3752
  605MOL0     H81623   6.016  10.359   3.744  0.2846 -1.8178 -3.3554
  605MOL0     H81624   6.212  10.291   3.957  1.3540 -0.6687 -5.2238
  605MOL0     H81625   6.059  10.386   3.958 -2.4640 -2.2927  1.0739
  605MOL0     H81626   6.094  10.037   3.786  1.3759 -0.8564  0.9695
  605MOL0     H81627   5.842   9.857   3.818  0.6423  0.7955  0.0643
  605MOL0     H81628   5.970   9.782   3.894 -1.2447 -2.9671 -2.1605
  605MOL0     H81629   5.714   9.870   4.038 -2.5464 -1.6123 -0.3165
  605MOL0     H81630   5.741   9.710   3.973  0.2565 -0.0616 -0.1342
  605MOL0     H81631   5.975   9.746   4.113 -0.5450  2.3592 -0.6229
  605MOL0     H81632   5.849   9.626   4.129 -2.2324  0.0518 -1.6232
  605MOL0     H81633   5.850   9.914   4.252  0.6916 -1.0306 -1.9431
  605MOL0     H81634   5.931   9.773   4.320  0.5176  0.3596  1.9549
  605MOL0     H81635   5.540   9.638   4.463 -1.6116 -1.4984 -3.3765
  605MOL0     H81636   5.327   9.739   4.528 -1.0971  1.4579 -1.0303
  605MOL0     H81637   4.988   9.942   4.401  2.5143 -0.3160  0.6697
  605MOL0     H81638   4.753   9.972   4.441  1.3061  0.3545 -1.1413
  605MOL0     H81639   4.700  10.209   4.784 -0.9000  1.3476  3.4328
  605MOL0     H81640   4.542  10.203   4.705  2.6051  0.8363 -0.8585
  605MOL0     H81641   4.453  10.059   4.894 -0.1673 -1.8988  2.1136
  605MOL0     H81642   4.614  10.060   4.972  0.9421  0.0395 -0.4198
  605MOL0     H81643   4.590  10.304   5.027  0.7637 -2.9630 -0.2989
  605MOL0     H81644   4.476  10.333   4.899  1.8893  0.8528 -0.3487
  605MOL0     H81645   4.414  10.169   5.140 -1.4776 -0.0695  0.4857
  605MOL0     H81646   4.304  10.219   5.018 -0.6354  1.8368  0.4864
  605MOL0     H81647   4.377  10.457   5.067  0.5357 -1.1414 -0.2469
  605MOL0     H81648   4.458  10.401   5.209  0.2591  0.6516  1.2793
  605MOL0     H81649   4.220  10.499   5.231 -1.7636 -0.5424  3.0414
  605MOL0     H81650   4.155  10.362   5.165  1.2830 -0.2010 -1.0950
  605MOL0     H81651   4.350  10.361   5.406  1.1337 -3.5378  3.1700
  605MOL0     H81652   4.269  10.215   5.360  2.5846 -0.1635  2.3092
  605MOL0     H81653   4.038  10.331   5.399 -0.0492  1.0207 -1.6948
  605MOL0     H81654   4.133  10.319   5.539  0.8842 -1.2839 -1.2502
  605MOL0     H81655   4.842  10.057   4.854  0.5801 -1.0566  0.5271
  605MOL0     H81656   5.085  10.013   4.806  1.9399 -2.0246 -1.4544
  605MOL0     H81657   5.435  10.092   4.299 -2.6262 -1.0990 -2.1190
  605MOL0     H81658   5.641   9.995   4.259 -0.0502 -0.9271 -0.3131
  605MOL0     H81659   6.273  10.113   3.560  0.7769  0.4861  0.7885
  605MOL0     H81660   6.064  10.170   3.417  1.1726  0.5795  1.0302
  605MOL0     H81661   5.796  10.242   3.115 -2.1960 -0.6419 -0.9844
  605MOL0     H81662   5.617  10.311   2.973  0.4101 -2.4275 -4.2626
  605MOL0     H81663   5.451  10.436   2.809  0.0676 -1.2674  0.2190
  605MOL0     H81664   5.550  10.308   2.746 -0.6531  0.0520  2.7687
  605MOL0     H81665   5.569  10.458   2.527 -0.9172 -0.5174 -1.0074
  605MOL0     H81666   5.432  10.543   2.589 -1.8483 -0.7459 -0.1047
  605MOL0     H81667   5.436  10.242   2.540  0.2535  0.5628 -1.9246
  605MOL0     H81668   5.346  10.351   2.437 -1.0313 -0.0862  0.2200
  605MOL0     H81669   5.273  10.305   2.721 -2.2529 -0.0367  0.5332
  605MOL0     H81670   5.189  10.422   2.617 -3.2374 -1.5467 -3.0128
  605MOL0     H81671   5.051  10.019   2.507  0.1052  0.0459  1.4969
  605MOL0     H81672   5.870  10.587   2.774 -0.4506 -0.0937 -0.3957
  605MOL0     H81673   6.116  10.623   2.996  1.1700  1.1926 -1.4762
  605MOL0     H81674   6.181  10.478   2.941 -0.1162 -0.6344 -0.7640
  605MOL0     H81675   6.108  10.606   2.832 -1.4803 -0.1640  0.5168
  606MOL0     O81676   8.330   0.298   8.635  0.1412  0.7256  0.4893
  606MOL0     C81677   8.362   0.409   8.596  0.0276  0.4489  0.6415
  606MOL0     O81678   8.323   0.465   8.478  0.0545  0.3648  0.1830
  606MOL0     C81679   8.211   0.425   8.406 -0.5214  0.7220 -0.0381
  606MOL0     C81680   8.099   0.357   8.453  0.5696 -0.4246  0.0159
  606MOL0     C81681   7.985   0.335   8.368  0.4900  0.1462 -0.5777
  606MOL0     C81682   7.983   0.386   8.242 -0.6140 -0.6258  0.6468
  606MOL0     O81683   7.901   0.339   8.143  0.0412 -0.8979 -0.6125
  606MOL0     C81684   7.771   0.310   8.174  0.9407  0.0628 -1.0651
  606MOL0     C81685   7.670   0.341   8.060  0.1226  0.1747  0.0041
  606MOL0     C81686   7.665   0.492   8.014  0.1970  0.2392  1.0117
  606MOL0     C81687   7.763   0.507   7.905 -1.0540  0.4622  0.2442
  606MOL0     C81688   7.795   0.652   7.887 -0.4081 -0.8075  0.8179
  606MOL0     C81689   7.914   0.674   7.781 -0.1492  0.1093 -0.1249
  606MOL0     C81690   7.873   0.627   7.635  0.3102  0.4653  0.0779
  606MOL0     C81691   7.983   0.660   7.530 -0.3980  1.1782  0.6977
  606MOL0     N81692   7.929   0.636   7.398  0.2854  0.6147 -0.0455
  606MOL0     C81693   7.867   0.717   7.311 -0.1650 -0.1805  0.2714
  606MOL0     C81694   7.835   0.637   7.211  1.6694  0.2284 -0.5883
  606MOL0     C81695   7.732   0.665   7.100  0.0001  0.5136 -0.1688
  606MOL0     C81696   7.740   0.799   7.039 -1.0957 -1.0027  0.3801
  606MOL0     C81697   7.857   0.819   6.938  0.3009 -0.3382 -0.7134
  606MOL0     C81698   7.852   0.962   6.878  0.3622 -0.3266 -0.6194
  606MOL0     O81699   7.952   0.980   6.778  1.3265  0.1445 -1.0444
  606MOL0     C81700   8.086   0.996   6.804 -0.0379  0.1829 -0.1603
  606MOL0     C81701   8.173   1.013   6.694  0.0478  0.1601 -0.0234
  606MOL0     C81702   8.311   1.042   6.717  0.1565  0.4762 -0.6034
  606MOL0     C81703   8.363   1.063   6.848 -0.2131 -0.3345 -0.9110
  606MOL0     C81704   8.510   1.106   6.862  0.8254  0.9009  0.6166
  606MOL0     O81705   8.577   1.065   6.968  0.5032 -0.1255 -0.5894
  606MOL0     C81706   8.678   1.138   7.021 -0.9376  0.2328 -0.8146
  606MOL0     C81707   8.716   1.111   7.151  0.2556  0.8501 -0.5576
  606MOL0     C81708   8.815   1.190   7.216  0.4055 -0.7475 -0.4995
  606MOL0     C81709   8.895   1.284   7.150  0.5062 -0.1315  0.5051
  606MOL0     O81710   8.993   1.340   7.223 -0.1417  0.4942  0.9471
  606MOL0     C81711   9.084   1.439   7.166  0.4728 -0.5449  1.1564
  606MOL0     C81712   9.196   1.451   7.271  0.2270  0.0520 -0.4598
  606MOL0     C81713   9.294   1.549   7.233  0.2678  0.0870  0.6701
  606MOL0     C81714   9.409   1.553   7.332 -0.6469 -0.1664 -0.0385
  606MOL0     C81715   9.532   1.606   7.253  0.4063 -0.4510  0.0787
  606MOL0     C81716   9.638   1.620   7.358 -0.6166  0.1108  0.4329
  606MOL0     C81717   9.763   1.700   7.293  0.8940 -0.0221  0.0263
  606MOL0     C81718   9.754   1.855   7.309 -0.6148 -0.0964  0.3048
  606MOL0    Cl81719   9.884   1.955   7.239  0.4569 -0.3054  0.0934
  606MOL0     C81720   8.865   1.298   7.008  0.1229 -0.0492 -0.2704
  606MOL0     C81721   8.760   1.228   6.945  0.0370 -0.3801  0.4264
  606MOL0     O81722   8.546   1.179   6.774  0.1512  0.2116  0.6817
  606MOL0     C81723   8.277   1.039   6.950  0.4225 -0.3769  0.3760
  606MOL0     C81724   8.138   1.012   6.929  0.1894 -1.1497 -0.9507
  606MOL0     N81725   7.883   0.509   7.224  1.1464  0.0684 -1.0254
  606MOL0     N81726   7.934   0.509   7.348 -0.2283  0.2913  0.3538
  606MOL0     C81727   8.091   0.467   8.201 -0.3272 -0.8106 -0.2873
  606MOL0     C81728   8.205   0.480   8.281  0.3379 -0.0506 -0.8086
  606MOL0     C81729   8.453   0.489   8.685 -0.9966  1.4639 -0.0447
  606MOL0     C81730   8.550   0.419   8.755  0.2299  1.1430 -0.3302
  606MOL0     C81731   8.650   0.483   8.833 -0.1093 -0.3159  0.4304
  606MOL0     C81732   8.657   0.624   8.832 -0.2140  0.1560 -0.1613
  606MOL0     O81733   8.771   0.692   8.880  0.2878  0.2450 -0.2877
  606MOL0     C81734   8.811   0.676   9.023  0.4336 -0.0580  0.1849
  606MOL0     C81735   8.689   0.669   9.108  0.6165 -0.2707 -0.3652
  606MOL0     C81736   8.719   0.695   9.262  0.5806 -0.5973 -0.3559
  606MOL0     C81737   8.590   0.655   9.348 -0.5974 -0.6765 -0.6615
  606MOL0     C81738   8.475   0.736   9.332  0.3250  0.0402  1.0051
  606MOL0     C81739   8.372   0.801   9.319  0.1467 -0.3577  0.3879
  606MOL0     C81740   8.555   0.694   8.764  0.5361  0.4438 -0.1544
  606MOL0     C81741   8.455   0.629   8.686 -0.0293 -0.2294  0.1678
  606MOL0     C81742   8.351   0.710   8.618 -1.0838 -0.5680  0.9168
  606MOL0     H81743   8.084   0.321   8.555 -1.9599 -0.3483 -0.2586
  606MOL0     H81744   7.903   0.275   8.407  1.8919 -2.3663 -1.3061
  606MOL0     H81745   7.761   0.202   8.190  3.2533 -0.0006  0.5634
  606MOL0     H81746   7.738   0.365   8.262  0.2255  1.0404 -1.9139
  606MOL0     H81747   7.569   0.316   8.094  0.8609 -2.0529  0.7372
  606MOL0     H81748   7.687   0.276   7.973 -0.2932 -2.0112  1.4707
  606MOL0     H81749   7.692   0.555   8.099  0.8500 -4.3264  4.5873
  606MOL0     H81750   7.569   0.537   7.988  0.8055  3.1913  3.3469
  606MOL0     H81751   7.857   0.454   7.924 -1.1446 -0.5914 -1.8504
  606MOL0     H81752   7.723   0.471   7.809 -1.2844  0.2286  0.4244
  606MOL0     H81753   7.722   0.726   7.854  0.2072  0.7068  2.6605
  606MOL0     H81754   7.818   0.688   7.988 -0.0084  1.7399 -0.1040
  606MOL0     H81755   7.946   0.779   7.783 -0.3728  0.2083 -1.1125
  606MOL0     H81756   7.980   0.600   7.827 -1.7795 -0.7751  0.8660
  606MOL0     H81757   7.785   0.684   7.603 -0.0218  0.1239  0.3634
  606MOL0     H81758   7.844   0.521   7.636  0.8620  0.2868 -1.2197
  606MOL0     H81759   8.015   0.763   7.547 -0.6614  1.5198 -0.7501
  606MOL0     H81760   8.069   0.594   7.544  0.7124  2.6615  1.0954
  606MOL0     H81761   7.833   0.819   7.322  1.2277  0.2434  0.8907
  606MOL0     H81762   7.745   0.584   7.028  0.8639  0.6329 -0.1641
  606MOL0     H81763   7.629   0.662   7.136  0.1840 -1.8972  0.3454
  606MOL0     H81764   7.641   0.810   6.995 -0.5488 -1.1728 -0.9492
  606MOL0     H81765   7.747   0.871   7.121  1.2155 -3.3187  2.4002
  606MOL0     H81766   7.846   0.744   6.859 -3.8691  0.0899 -0.7980
  606MOL0     H81767   7.956   0.799   6.979  0.3182  0.0580 -0.5590
  606MOL0     H81768   7.871   1.038   6.954  1.4966  0.2374 -1.4379
  606MOL0     H81769   7.755   0.980   6.830 -0.3084 -2.2444 -0.0926
  606MOL0     H81770   8.142   1.016   6.590 -0.1893  2.0436  0.0758
  606MOL0     H81771   8.372   1.050   6.628 -1.1857  0.0339 -1.5889
  606MOL0     H81772   8.655   1.043   7.208 -0.8033  3.2274  1.3103
  606MOL0     H81773   8.831   1.178   7.323  0.4073 -0.6583 -0.4895
  606MOL0     H81774   9.137   1.396   7.081  1.1822 -2.3138  2.4435
  606MOL0     H81775   9.042   1.538   7.144  2.6247  0.0376 -0.7509
  606MOL0     H81776   9.160   1.484   7.369 -2.5451 -1.0793 -1.0195
  606MOL0     H81777   9.247   1.355   7.287  0.9923  0.8746  2.7348
  606MOL0     H81778   9.335   1.525   7.135 -0.5443  1.9330 -0.1745
  606MOL0     H81779   9.244   1.647   7.242 -0.9476 -0.5272  0.8664
  606MOL0     H81780   9.434   1.454   7.372  0.8189  0.4876  0.7543
  606MOL0     H81781   9.394   1.623   7.415  2.8151  4.3933 -2.8382
  606MOL0     H81782   9.499   1.697   7.202 -0.6896 -0.4072  0.8293
  606MOL0     H81783   9.567   1.540   7.173  2.0627 -0.9859  1.2053
  606MOL0     H81784   9.602   1.683   7.440 -3.7658 -1.5252  0.4519
  606MOL0     H81785   9.669   1.525   7.403 -1.2089 -0.4586 -0.3348
  606MOL0     H81786   9.762   1.685   7.185 -0.4947  0.7144 -0.0966
  606MOL0     H81787   9.857   1.666   7.336  2.0286 -0.6748 -2.7672
  606MOL0     H81788   9.661   1.877   7.257 -1.0494  3.2644  2.2508
  606MOL0     H81789   9.737   1.890   7.411  0.7091  0.4698  0.3549
  606MOL0     H81790   8.926   1.381   6.972  2.5452 -0.3873  2.6648
  606MOL0     H81791   8.734   1.251   6.842 -1.7697  1.2014  1.1696
  606MOL0     H81792   8.315   1.046   7.051 -1.5571 -1.9757  1.3077
  606MOL0     H81793   8.078   1.002   7.018  0.4208 -0.2574 -0.6812
  606MOL0     H81794   8.090   0.518   8.105 -1.1212 -1.1732 -0.4835
  606MOL0     H81795   8.292   0.538   8.252  0.3660  0.6654  0.6126
  606MOL0     H81796   8.559   0.312   8.738 -0.1865  1.1315 -0.4768
  606MOL0     H81797   8.738   0.434   8.874  1.7189  1.5810 -1.0398
  606MOL0     H81798   8.860   0.767   9.060  0.9116 -1.6479  3.9728
  606MOL0     H81799   8.887   0.599   9.040  0.5488  0.0950  0.3851
  606MOL0     H81800   8.654   0.568   9.086  2.0122  0.0818 -5.3786
  606MOL0     H81801   8.606   0.733   9.075 -0.8508 -2.2830 -0.7826
  606MOL0     H81802   8.740   0.798   9.291  0.3711 -0.7153  0.2368
  606MOL0     H81803   8.804   0.628   9.281  0.2503 -1.4338 -1.7068
  606MOL0     H81804   8.552   0.554   9.329 -1.1536 -0.9651  1.7424
  606MOL0     H81805   8.626   0.656   9.451  2.8773 -0.8064 -1.7501
  606MOL0     H81806   8.291   0.870   9.309 -1.2463 -1.4877  2.9240
  606MOL0     H81807   8.552   0.803   8.764 -0.8446  0.4299  0.6614
  606MOL0     H81808   8.251   0.679   8.651 -3.0340  0.3534 -3.3634
  606MOL0     H81809   8.355   0.818   8.632 -4.0919 -0.0966 -0.9333
  606MOL0     H81810   8.363   0.698   8.510  0.9784  2.0818  0.7438
  607MOL0     O81811   1.156   7.262   9.181  0.1821 -0.5242  0.0664
  607MOL0     C81812   1.129   7.379   9.131 -0.8467  0.2305  0.0596
  607MOL0     O81813   1.171   7.503   9.177  0.1795  0.2304 -0.1076
  607MOL0     C81814   1.285   7.515   9.254 -0.8029  0.8277  0.4589
  607MOL0     C81815   1.275   7.610   9.354  0.1244  0.0461  0.1837
  607MOL0     C81816   1.386   7.646   9.432 -0.6958 -0.1022 -0.0814
  607MOL0     C81817   1.508   7.593   9.414  0.3039 -0.6684 -0.1831
  607MOL0     O81818   1.612   7.637   9.494 -0.4633  0.2151 -0.5066
  607MOL0     C81819   1.738   7.553   9.511  0.5291  0.5730 -0.8605
  607MOL0     C81820   1.784   7.586   9.666  0.5976  0.1346 -0.1075
  607MOL0     C81821   1.926   7.544   9.700 -0.9380  0.1477  0.0955
  607MOL0     C81822   1.928   7.430   9.800  0.3081 -0.7285 -0.5191
  607MOL0     C81823   2.068   7.367   9.826  0.1864 -0.8588  0.3416
  607MOL0     C81824   2.142   7.419   9.948  0.0200 -0.8623 -0.0658
  607MOL0     C81825   2.158   7.573   9.940 -0.0199 -0.0013  0.3128
  607MOL0     C81826   2.265   7.633  10.038  0.7390  0.6639  0.7763
  607MOL0     N81827   2.236   7.632  10.181 -0.4572 -0.0243  0.2439
  607MOL0     C81828   2.296   7.564  10.283 -0.8010 -0.3420  0.6458
  607MOL0     C81829   2.226   7.580  10.392 -1.1909  0.4074 -0.0983
  607MOL0     C81830   2.256   7.523  10.533 -0.7521 -0.8103  0.6408
  607MOL0     C81831   2.183   7.388  10.558 -0.9684 -0.4439  0.0782
  607MOL0     C81832   2.198   7.346  10.699  0.1245  0.7090 -0.7521
  607MOL0     C81833   2.341   7.339  10.746 -0.0824  1.4404  0.3018
  607MOL0     O81834   2.348   7.351  10.881  0.3025  0.6538  0.3281
  607MOL0     C81835   2.400   7.246  10.949 -0.3236  0.1971  1.0160
  607MOL0     C81836   2.320   7.139  10.971  0.2644  0.0907  0.0351
  607MOL0     C81837   2.377   7.020  11.035 -0.0761 -0.2956  0.2498
  607MOL0     C81838   2.512   7.028  11.084 -0.1444 -0.1048  0.4325
  607MOL0     C81839   2.572   6.907  11.146  0.4870  1.0069  0.2823
  607MOL0     O81840   2.712   6.893  11.144  0.8513  0.4240  0.2438
  607MOL0     C81841   2.778   6.788  11.201  0.6535 -0.5954  0.0899
  607MOL0     C81842   2.905   6.768  11.146  0.1450 -0.2143  0.3816
  607MOL0     C81843   2.987   6.663  11.179 -0.6648 -0.0686 -0.2633
  607MOL0     C81844   2.935   6.563  11.265 -0.6196 -0.1737 -0.2305
  607MOL0     O81845   3.028   6.468  11.298  0.0905 -0.3666  0.4034
  607MOL0     C81846   2.984   6.347  11.357  0.6935  0.7856  0.6877
  607MOL0     C81847   3.089   6.243  11.385 -0.3761  0.2809 -0.0832
  607MOL0     C81848   3.014   6.116  11.423 -0.3779 -0.6256 -0.7149
  607MOL0     C81849   3.126   6.011  11.424 -0.5652  0.0156 -0.8432
  607MOL0     C81850   3.059   5.889  11.488  0.2249 -0.2361  1.0208
  607MOL0     C81851   3.160   5.780  11.532  0.0838  0.1294 -0.8011
  607MOL0     C81852   3.083   5.644  11.546  0.1835  0.2124 -0.0868
  607MOL0     C81853   3.192   5.540  11.595 -0.1274  0.0122 -0.5770
  607MOL0    Cl81854   3.122   5.368  11.612  0.1107 -0.4016 -0.5259
  607MOL0     C81855   2.800   6.573  11.313 -0.5983  0.0686 -0.7730
  607MOL0     C81856   2.732   6.686  11.293 -0.0272 -0.5525  0.1952
  607MOL0     O81857   2.496   6.815  11.185  0.3386 -0.3061  0.0396
  607MOL0     C81858   2.591   7.135  11.053 -0.3967  0.1688 -0.2117
  607MOL0     C81859   2.533   7.240  10.985 -0.2191 -0.5635  0.5087
  607MOL0     N81860   2.135   7.676  10.371  0.0663 -0.6146  0.4520
  607MOL0     N81861   2.131   7.706  10.235  0.8396 -0.0199  0.2012
  607MOL0     C81862   1.525   7.495   9.311  1.1097 -0.3194 -0.9839
  607MOL0     C81863   1.413   7.455   9.229  0.8295 -0.3060 -0.7029
  607MOL0     C81864   1.026   7.384   9.029 -0.1207 -0.4901 -0.4227
  607MOL0     C81865   0.929   7.484   9.044 -0.1417  0.1031 -0.8981
  607MOL0     C81866   0.820   7.508   8.964 -0.0846  0.6208  0.1605
  607MOL0     C81867   0.808   7.435   8.853 -1.1911  0.2586 -0.0308
  607MOL0     O81868   0.707   7.436   8.764 -0.6432  0.1281 -0.9847
  607MOL0     C81869   0.599   7.521   8.763  0.2095 -0.6771  0.3278
  607MOL0     C81870   0.528   7.484   8.627 -0.3006 -0.3981  0.1851
  607MOL0     C81871   0.418   7.587   8.593 -0.3626 -0.3506 -0.0069
  607MOL0     C81872   0.355   7.552   8.461  1.2145  0.0056 -0.0104
  607MOL0     C81873   0.280   7.428   8.458  0.9265 -0.9654  0.9094
  607MOL0     C81874   0.216   7.320   8.441 -0.2170  0.9341 -0.7831
  607MOL0     C81875   0.904   7.332   8.828  0.1895  0.2384  1.1231
  607MOL0     C81876   1.007   7.303   8.916 -0.6294  0.5070  0.8895
  607MOL0     C81877   1.116   7.200   8.889  0.0853  0.3274  0.2101
  607MOL0     H81878   1.179   7.653   9.381  0.8657  1.9179  0.0441
  607MOL0     H81879   1.376   7.725   9.505 -0.8943 -2.2367  2.3460
  607MOL0     H81880   1.704   7.451   9.495 -2.4891  0.7392  2.8379
  607MOL0     H81881   1.822   7.575   9.445  1.5879 -0.4930  0.0831
  607MOL0     H81882   1.714   7.550   9.742  1.3971 -0.2515  0.4645
  607MOL0     H81883   1.778   7.694   9.680 -2.1516  0.2031 -1.1792
  607MOL0     H81884   1.996   7.617   9.742  0.1996 -2.8068  3.9089
  607MOL0     H81885   1.977   7.521   9.606  3.4904  0.9553  2.0778
  607MOL0     H81886   1.887   7.473   9.892  0.7129  0.9292 -1.0710
  607MOL0     H81887   1.866   7.353   9.753  1.4654 -1.0995 -1.5082
  607MOL0     H81888   2.050   7.260   9.841 -0.2185 -1.1794 -2.0113
  607MOL0     H81889   2.131   7.381   9.738  2.2441 -1.8935  1.5816
  607MOL0     H81890   2.097   7.395  10.045 -0.4699 -2.1375 -0.5982
  607MOL0     H81891   2.244   7.383   9.939  0.9275  1.4098  0.4989
  607MOL0     H81892   2.066   7.629   9.959 -0.0381  0.6338 -1.4480
  607MOL0     H81893   2.191   7.596   9.839 -0.5281 -1.8302 -0.3064
  607MOL0     H81894   2.360   7.579  10.028 -1.1217 -3.3288  2.4757
  607MOL0     H81895   2.285   7.736  10.005  2.2245  0.5194  1.1257
  607MOL0     H81896   2.381   7.496  10.276 -1.6694 -1.3377 -0.9691
  607MOL0     H81897   2.364   7.504  10.537 -0.4515  0.8907  2.2416
  607MOL0     H81898   2.234   7.596  10.612  0.6242 -0.4999  0.7765
  607MOL0     H81899   2.079   7.405  10.529 -1.2937  0.6439  1.7521
  607MOL0     H81900   2.226   7.315  10.490  0.0814  0.7858 -0.6226
  607MOL0     H81901   2.146   7.253  10.723  1.3864  0.0096 -0.6176
  607MOL0     H81902   2.150   7.423  10.761  2.8005 -0.6300  3.4228
  607MOL0     H81903   2.403   7.421  10.707 -0.4692  3.7487  4.0442
  607MOL0     H81904   2.366   7.242  10.703 -0.9785  1.4154 -0.1811
  607MOL0     H81905   2.220   7.118  10.936  1.1359 -3.3928 -0.7855
  607MOL0     H81906   2.313   6.933  11.039  0.4505 -0.7041 -0.0809
  607MOL0     H81907   2.933   6.834  11.064  0.1512 -2.2878 -1.3567
  607MOL0     H81908   3.089   6.646  11.145 -0.3893 -0.2483  0.6223
  607MOL0     H81909   2.933   6.368  11.452  1.3233 -0.8963  1.4530
  607MOL0     H81910   2.913   6.298  11.290  0.5656  0.7973  0.8152
  607MOL0     H81911   3.142   6.224  11.291 -3.0888  0.1758 -1.6979
  607MOL0     H81912   3.157   6.278  11.463 -1.2168 -0.3684  0.9763
  607MOL0     H81913   2.966   6.130  11.520 -0.1990 -3.7136 -0.0955
  607MOL0     H81914   2.939   6.088  11.348 -0.7381 -3.0600  0.4643
  607MOL0     H81915   3.204   6.040  11.495  1.4239 -2.4036 -1.8823
  607MOL0     H81916   3.170   5.988  11.326  0.4327  0.2341 -0.4655
  607MOL0     H81917   2.991   5.850  11.412  0.8874 -2.4273  1.4772
  607MOL0     H81918   3.002   5.921  11.576 -0.0194 -0.9590  1.1323
  607MOL0     H81919   3.225   5.787  11.445 -1.5848  2.2423 -1.9953
  607MOL0     H81920   3.210   5.815  11.623  2.5320  1.8076 -2.6524
  607MOL0     H81921   3.046   5.599  11.453 -3.1041 -1.7972  1.9833
  607MOL0     H81922   3.003   5.648  11.620 -1.4700 -1.5907 -1.6568
  607MOL0     H81923   3.282   5.545  11.533 -0.0693  1.0645 -0.4181
  607MOL0     H81924   3.220   5.567  11.697 -1.7481 -0.1039 -0.0740
  607MOL0     H81925   2.758   6.495  11.375 -0.2674  0.5407  0.0579
  607MOL0     H81926   2.634   6.679  11.338 -1.0490 -1.1134 -1.9954
  607MOL0     H81927   2.698   7.140  11.070 -0.5458 -0.6519  1.0983
  607MOL0     H81928   2.604   7.321  10.966  0.7650 -1.8221 -1.4367
  607MOL0     H81929   1.614   7.444   9.275 -0.1945 -3.8759  0.3687
  607MOL0     H81930   1.437   7.396   9.141  1.4341 -0.8839 -0.1621
  607MOL0     H81931   0.932   7.553   9.128 -0.1664  0.5802 -1.2847
  607MOL0     H81932   0.747   7.579   9.002 -0.3334  1.0565 -1.0703
  607MOL0     H81933   0.631   7.626   8.765 -1.3753 -0.1663  0.0905
  607MOL0     H81934   0.527   7.509   8.844 -0.3910  1.5715  0.1932
  607MOL0     H81935   0.484   7.384   8.630 -0.4069 -0.3399  0.6493
  607MOL0     H81936   0.607   7.497   8.553 -0.5199  0.9489  0.1651
  607MOL0     H81937   0.459   7.689   8.586  0.4289 -0.4618  2.1100
  607MOL0     H81938   0.333   7.595   8.661 -1.7561 -0.2946 -1.6985
  607MOL0     H81939   0.293   7.637   8.432  0.8906  1.4134  4.1611
  607MOL0     H81940   0.440   7.542   8.393 -0.2067 -1.4781 -1.6733
  607MOL0     H81941   0.162   7.228   8.449  0.3058  0.7944  2.7225
  607MOL0     H81942   0.880   7.275   8.739  2.7655  0.5726  0.1230
  607MOL0     H81943   1.106   7.150   8.792  5.9187 -1.2722  0.1146
  607MOL0     H81944   1.215   7.245   8.886  0.1405  0.1605 -0.8058
  607MOL0     H81945   1.112   7.131   8.974 -0.0441  2.6656  2.2182
  608MOL0     O81946  10.309   5.102   2.387 -0.4292 -0.5819  0.1107
  608MOL0     C81947  10.325   5.000   2.451 -0.1741  0.3832 -0.1254
  608MOL0     O81948  10.343   4.998   2.584  0.5079  0.2575 -0.2247
  608MOL0     C81949  10.324   5.113   2.646 -1.3573  0.1188  0.6785
  608MOL0     C81950  10.435   5.191   2.680  0.2943 -0.3311 -0.7240
  608MOL0     C81951  10.420   5.319   2.754  0.0423  0.1716 -0.3181
  608MOL0     C81952  10.287   5.357   2.797 -0.4311 -0.0666  0.3689
  608MOL0     O81953  10.261   5.478   2.864  0.0242  0.0995  0.0897
  608MOL0     C81954  10.325   5.591   2.799  0.1894  0.0274  0.1635
  608MOL0     C81955  10.247   5.718   2.829  0.3753 -0.1348  0.5441
  608MOL0     C81956  10.264   5.746   2.977  0.0874  0.3154 -0.2592
  608MOL0     C81957  10.201   5.881   3.020  0.3477 -0.4231  0.0357
  608MOL0     C81958  10.200   5.920   3.171  0.9496 -0.0053  1.1954
  608MOL0     C81959  10.343   5.964   3.228  0.8897 -0.5144  0.9396
  608MOL0     C81960  10.335   5.999   3.388 -1.1115 -0.3595  0.7699
  608MOL0     C81961  10.475   6.001   3.444 -0.7615  0.7047  0.4584
  608MOL0     N81962  10.452   6.003   3.591  0.1175 -0.7175 -0.7180
  608MOL0     C81963  10.432   6.119   3.661 -0.5873  0.5221  0.7153
  608MOL0     C81964  10.406   6.079   3.787 -0.0295  0.5044 -0.3083
  608MOL0     C81965  10.351   6.151   3.907 -0.3100  0.0753 -0.3575
  608MOL0     C81966  10.422   6.109   4.042 -0.4907 -0.2620  1.0900
  608MOL0     C81967  10.336   6.154   4.159  0.5838 -0.3944 -0.5653
  608MOL0     C81968  10.420   6.135   4.289 -0.3493 -0.1802 -0.1753
  608MOL0     O81969  10.373   6.221   4.392  0.4609  0.3084 -0.3574
  608MOL0     C81970  10.243   6.196   4.438 -0.0443 -0.5655 -0.5292
  608MOL0     C81971  10.175   6.306   4.504 -0.8564  0.1550  0.3734
  608MOL0     C81972  10.062   6.289   4.580  0.0325  0.0207 -0.4775
  608MOL0     C81973  10.010   6.162   4.594 -0.4845 -0.2380 -0.2076
  608MOL0     C81974   9.894   6.143   4.684  0.2692  0.9972  0.1585
  608MOL0     O81975   9.841   6.015   4.671  0.0805 -0.8067  0.3315
  608MOL0     C81976   9.718   5.977   4.721  1.1916 -0.0867 -0.3682
  608MOL0     C81977   9.693   5.926   4.849 -0.0796 -0.1725 -0.4937
  608MOL0     C81978   9.571   5.881   4.898 -0.7722  0.3822  0.0485
  608MOL0     C81979   9.459   5.893   4.817  0.2822  0.7052 -0.4507
  608MOL0     O81980   9.330   5.865   4.856 -0.0905 -0.0704 -0.4041
  608MOL0     C81981   9.287   5.851   4.993 -0.2334  0.1296 -0.5144
  608MOL0     C81982   9.293   5.976   5.070 -1.4597  0.3187  0.6626
  608MOL0     C81983   9.258   5.955   5.219 -0.0640 -0.6291  0.0739
  608MOL0     C81984   9.234   6.088   5.291  0.1026 -0.3091 -0.0671
  608MOL0     C81985   9.161   6.067   5.428 -0.2707 -0.7865 -0.6825
  608MOL0     C81986   9.224   5.957   5.510  0.6209 -0.5763 -0.2448
  608MOL0     C81987   9.168   5.935   5.650 -0.8017  1.5217  0.1932
  608MOL0     C81988   9.258   5.853   5.736  0.3693 -0.3037 -0.2927
  608MOL0    Cl81989   9.406   5.944   5.788 -0.0196  0.1835 -0.4628
  608MOL0     C81990   9.470   5.949   4.686  0.0845  0.7920  0.3731
  608MOL0     C81991   9.603   5.992   4.638  0.1594  0.0121  0.2067
  608MOL0     O81992   9.834   6.239   4.729 -1.2061 -0.1117  0.0007
  608MOL0     C81993  10.069   6.060   4.512 -0.8401  0.4345 -0.1428
  608MOL0     C81994  10.182   6.072   4.435 -0.0443 -0.0152 -0.6148
  608MOL0     N81995  10.400   5.942   3.786  0.3214 -0.0402  0.2730
  608MOL0     N81996  10.428   5.900   3.676  0.4144  1.1042  0.3993
  608MOL0     C81997  10.182   5.281   2.758  0.7633  0.2488 -0.2976
  608MOL0     C81998  10.200   5.158   2.679  0.5139  0.1635 -0.0985
  608MOL0     C81999  10.317   4.875   2.376  0.6965 -0.1873 -0.0476
  608MOL0     C82000  10.290   4.885   2.233 -0.2603 -0.5290  0.2211
  608MOL0     C82001  10.286   4.769   2.157  0.4029 -0.0909 -0.0317
  608MOL0     C82002  10.312   4.641   2.207  0.6176 -0.6882  0.7416
  608MOL0     O82003  10.335   4.532   2.129  0.6660 -0.1079  1.0532
  608MOL0     C82004  10.334   4.550   1.989  0.6141  0.6437  0.1535
  608MOL0     C82005  10.448   4.638   1.930  0.8506 -0.3007 -0.0507
  608MOL0     C82006  10.452   4.596   1.780  0.0195 -0.4277 -0.1277
  608MOL0     C82007  10.546   4.679   1.688 -0.3172  0.3839  0.6237
  608MOL0     C82008  10.685   4.650   1.718  0.1297  0.3295  0.5457
  608MOL0     C82009  10.793   4.642   1.779  0.1298 -0.4996 -0.0364
  608MOL0     C82010  10.349   4.633   2.339 -0.3823 -0.6821  0.0353
  608MOL0     C82011  10.351   4.744   2.427  0.8844 -0.2648  0.2337
  608MOL0     C82012  10.381   4.714   2.577 -0.9603 -0.2534 -0.0364
  608MOL0     H82013  10.535   5.161   2.653  1.5499  0.7109  2.2701
  608MOL0     H82014  10.502   5.383   2.784 -0.8579  0.6010  1.3622
  608MOL0     H82015  10.429   5.597   2.832  0.3466  3.2808 -0.6140
  608MOL0     H82016  10.322   5.572   2.691 -2.0965  1.8388 -0.1665
  608MOL0     H82017  10.143   5.707   2.797 -0.1789  1.1503  1.7795
  608MOL0     H82018  10.289   5.806   2.778  3.2237 -1.5598  0.2675
  608MOL0     H82019  10.373   5.753   2.990 -0.0204  1.7462  0.1206
  608MOL0     H82020  10.215   5.662   3.028  0.5260 -0.7205 -1.5007
  608MOL0     H82021  10.238   5.966   2.962 -0.8514  0.1591  0.0908
  608MOL0     H82022  10.096   5.879   2.988  0.5407  0.8228 -0.7620
  608MOL0     H82023  10.128   6.002   3.170  0.8722 -0.0755  0.6612
  608MOL0     H82024  10.160   5.841   3.236  2.5785 -1.1191  0.9146
  608MOL0     H82025  10.416   5.882   3.217  1.3805  0.0389  0.0068
  608MOL0     H82026  10.370   6.056   3.177  0.3454  1.0285  3.2677
  608MOL0     H82027  10.280   5.919   3.439 -3.0629 -0.5107 -1.3735
  608MOL0     H82028  10.295   6.100   3.401 -0.5692  0.1397 -1.1170
  608MOL0     H82029  10.515   5.900   3.427 -2.1422  0.3108 -0.7128
  608MOL0     H82030  10.539   6.080   3.403  0.0096 -0.4945 -0.7588
  608MOL0     H82031  10.433   6.221   3.622  1.3855  0.3320  0.1459
  608MOL0     H82032  10.374   6.256   3.883 -2.0302  0.2408 -1.4412
  608MOL0     H82033  10.242   6.140   3.910 -0.2230 -1.8086 -2.2906
  608MOL0     H82034  10.438   6.001   4.035  0.5217 -0.0450 -0.6482
  608MOL0     H82035  10.521   6.156   4.041  0.3698 -1.9046  2.6556
  608MOL0     H82036  10.244   6.095   4.159 -0.4382  0.9982  2.5874
  608MOL0     H82037  10.310   6.260   4.152 -1.8288 -0.9577 -0.9943
  608MOL0     H82038  10.519   6.173   4.261  0.0928 -0.2547  1.2272
  608MOL0     H82039  10.437   6.028   4.306 -5.0985 -1.6117 -2.6337
  608MOL0     H82040  10.205   6.411   4.500 -3.6432  1.0273  0.3090
  608MOL0     H82041  10.031   6.377   4.635 -1.2913  0.8718 -2.4527
  608MOL0     H82042   9.773   5.931   4.922 -0.2756  1.5845 -0.3525
  608MOL0     H82043   9.570   5.847   5.001  0.4217  2.1393  0.6683
  608MOL0     H82044   9.187   5.808   4.992  0.5980 -1.9103  0.4434
  608MOL0     H82045   9.358   5.777   5.030 -1.0544 -0.8751 -0.8871
  608MOL0     H82046   9.398   6.008   5.066 -0.9792 -1.2792 -0.7354
  608MOL0     H82047   9.232   6.050   5.016 -0.1919 -0.4369 -1.9934
  608MOL0     H82048   9.166   5.899   5.237 -0.0537 -1.6719 -2.5727
  608MOL0     H82049   9.340   5.895   5.261  0.2869 -1.4836 -1.7282
  608MOL0     H82050   9.171   6.148   5.225  3.2440  2.7372 -0.6113
  608MOL0     H82051   9.325   6.149   5.300 -3.2118  5.3343  0.1791
  608MOL0     H82052   9.052   6.062   5.428 -0.2299 -2.3602  0.0306
  608MOL0     H82053   9.168   6.161   5.483 -0.6871 -1.7519  1.1053
  608MOL0     H82054   9.218   5.858   5.466  1.5706 -0.8844  0.2951
  608MOL0     H82055   9.325   5.998   5.527 -0.8858  3.3355  0.4367
  608MOL0     H82056   9.076   5.875   5.643  1.5959 -2.5162 -0.2095
  608MOL0     H82057   9.159   6.023   5.713  2.4776  1.1532  1.3373
  608MOL0     H82058   9.193   5.817   5.816 -0.0630  0.6455 -0.2061
  608MOL0     H82059   9.292   5.763   5.683 -0.5219 -1.1348  0.5061
  608MOL0     H82060   9.377   5.955   4.630 -0.4369 -2.9364  0.5763
  608MOL0     H82061   9.610   6.033   4.538  0.3185 -0.1058  0.1699
  608MOL0     H82062  10.035   5.958   4.525 -1.0058  0.0720 -2.8122
  608MOL0     H82063  10.231   5.990   4.382  2.3512  0.3249  0.9020
  608MOL0     H82064  10.083   5.316   2.783 -0.1357 -2.3376  0.0296
  608MOL0     H82065  10.119   5.093   2.648  0.8836  0.5952 -2.0960
  608MOL0     H82066  10.269   4.982   2.188 -0.7926 -0.6118  0.2863
  608MOL0     H82067  10.252   4.775   2.054 -0.5384 -2.7116  0.0483
  608MOL0     H82068  10.234   4.583   1.962 -0.3486 -1.5932  0.7405
  608MOL0     H82069  10.347   4.455   1.935  0.2477  0.4229  0.4532
  608MOL0     H82070  10.543   4.609   1.976  1.9385  2.1697 -0.5639
  608MOL0     H82071  10.432   4.746   1.939  2.9794 -0.0087  0.9732
  608MOL0     H82072  10.354   4.613   1.734  0.7083  1.4141 -1.0023
  608MOL0     H82073  10.470   4.488   1.783  0.5247 -0.3640  3.3706
  608MOL0     H82074  10.519   4.666   1.582 -1.3568 -0.8303  1.0069
  608MOL0     H82075  10.521   4.782   1.717 -1.6958  0.0585  0.6818
  608MOL0     H82076  10.890   4.646   1.824 -0.3831  0.9122  1.0335
  608MOL0     H82077  10.387   4.532   2.358  2.7155  0.0019 -1.7999
  608MOL0     H82078  10.468   4.768   2.616  0.8211 -2.1298 -1.1897
  608MOL0     H82079  10.294   4.737   2.640 -0.5568  1.4427 -0.0342
  608MOL0     H82080  10.394   4.606   2.586 -0.6608 -0.3983 -1.8555
  609MOL0     O82081   0.780  10.046  11.120  0.1723 -0.7572 -0.6170
  609MOL0     C82082   0.803  10.000  11.231  0.3561  0.2974  0.0267
  609MOL0     O82083   0.899  10.042  11.321 -0.1523 -0.2183  0.3179
  609MOL0     C82084   0.974  10.152  11.304  0.0170  0.4576 -0.3976
  609MOL0     C82085   0.976  10.248  11.396 -0.4237  0.6802 -0.2103
  609MOL0     C82086   1.053  10.363  11.379  0.2441  0.0177  0.6003
  609MOL0     C82087   1.139  10.366  11.268  0.3600  0.1251 -0.9566
  609MOL0     O82088   1.235  10.464  11.254 -0.0680  0.4675  0.1007
  609MOL0     C82089   1.199  10.608  11.265  0.2785  0.3919 -0.1088
  609MOL0     C82090   1.294  10.709  11.206 -0.7320 -0.1926 -0.9673
  609MOL0     C82091   1.241  10.848  11.212  0.1503 -0.5308  0.1189
  609MOL0     C82092   1.365  10.937  11.189  1.2413 -0.3832 -0.8681
  609MOL0     C82093   1.406  10.985  11.332 -0.7679 -0.1424  0.3951
  609MOL0     C82094   1.321  11.102  11.374 -0.1694 -1.5817 -0.7730
  609MOL0     C82095   1.315  11.105  11.528  0.3166 -0.4841  0.6703
  609MOL0     C82096   1.223  11.211  11.588 -1.1805  0.2080  0.3153
  609MOL0     N82097   1.193  11.180  11.730  0.5786 -0.5933 -0.3275
  609MOL0     C82098   1.285  11.199  11.837 -0.6304 -0.1002 -0.0877
  609MOL0     C82099   1.216  11.143  11.941 -0.8029  0.2430 -0.2439
  609MOL0     C82100   1.266  11.146  12.087 -0.1945 -0.2715  0.1765
  609MOL0     C82101   1.407  11.083  12.104 -0.2131  1.1707 -0.1162
  609MOL0     C82102   1.409  10.931  12.133 -0.4896 -0.0663 -0.5690
  609MOL0     C82103   1.514  10.885  12.232  0.0692  1.0151 -0.3646
  609MOL0     O82104   1.640  10.895  12.161 -0.1818 -0.1378 -0.5813
  609MOL0     C82105   1.753  10.888  12.244 -0.4861  0.6656 -0.0978
  609MOL0     C82106   1.757  10.853  12.379  0.5879  0.0534 -0.0180
  609MOL0     C82107   1.881  10.860  12.444  0.0032  1.2514 -0.6500
  609MOL0     C82108   2.000  10.888  12.379  0.4614  0.1346  0.2666
  609MOL0     C82109   2.120  10.874  12.457 -0.2657  0.5905  0.9699
  609MOL0     O82110   2.117  10.816  12.581 -0.0094  0.1429 -0.1644
  609MOL0     C82111   2.230  10.804  12.661 -0.1247  0.2752 -0.1092
  609MOL0     C82112   2.340  10.889  12.667  0.4848 -0.7130  0.4701
  609MOL0     C82113   2.438  10.869  12.768  0.8969 -0.4573 -0.2973
  609MOL0     C82114   2.440  10.757  12.854 -0.6166 -0.1738 -0.1435
  609MOL0     O82115   2.547  10.745  12.939 -0.2519  0.2127  0.8808
  609MOL0     C82116   2.555  10.632  13.022  0.1173 -0.4788 -0.0440
  609MOL0     C82117   2.692  10.643  13.090  0.4282  1.2699  0.6126
  609MOL0     C82118   2.705  10.544  13.201 -0.2727 -0.4243  0.4399
  609MOL0     C82119   2.855  10.530  13.229  0.3637 -0.6930  0.0605
  609MOL0     C82120   2.865  10.434  13.347  0.4874  0.3177 -0.9118
  609MOL0     C82121   2.812  10.482  13.480  0.0808 -0.1449 -0.2383
  609MOL0     C82122   2.858  10.392  13.596 -0.5353 -0.2084  0.6019
  609MOL0     C82123   2.788  10.429  13.717  0.8516 -1.2545 -0.5021
  609MOL0    Cl82124   2.615  10.368  13.737  0.4073 -0.1104 -0.1138
  609MOL0     C82125   2.335  10.672  12.846 -0.2285  0.8984 -0.4055
  609MOL0     C82126   2.229  10.705  12.763  0.1344 -0.7473  0.2955
  609MOL0     O82127   2.221  10.906  12.398  0.3813 -0.2459 -0.2280
  609MOL0     C82128   1.996  10.920  12.240  0.3192  1.1251 -0.5688
  609MOL0     C82129   1.872  10.914  12.176 -0.8024  0.7348 -0.3065
  609MOL0     N82130   1.098  11.091  11.897 -0.2810 -0.0977  0.5353
  609MOL0     N82131   1.079  11.103  11.777 -0.4349 -0.0459 -0.0677
  609MOL0     C82132   1.138  10.270  11.175 -0.8588 -0.6430  0.4369
  609MOL0     C82133   1.051  10.160  11.189 -0.0293  0.3325  0.1414
  609MOL0     C82134   0.711   9.884  11.282 -0.3173 -0.3429 -0.8726
  609MOL0     C82135   0.742   9.831  11.409 -0.3237  0.8320 -0.0785
  609MOL0     C82136   0.673   9.720  11.458  0.0516 -0.1242 -0.3714
  609MOL0     C82137   0.572   9.664  11.384 -0.0774 -0.3284 -0.6765
  609MOL0     O82138   0.529   9.537  11.442 -0.2508 -0.4243 -0.9970
  609MOL0     C82139   0.436   9.455  11.361 -0.0674  0.0621 -0.3753
  609MOL0     C82140   0.327   9.391  11.451  0.9909 -0.1626 -0.6140
  609MOL0     C82141   0.212   9.487  11.492  0.4551  0.2699  0.1038
  609MOL0     C82142   0.109   9.421  11.589  0.0703  0.4829 -0.6105
  609MOL0     C82143   0.032   9.528  11.643 -0.0530  0.1815  0.3272
  609MOL0     C82144  -0.034   9.613  11.698 -0.3636 -0.0956  0.3712
  609MOL0     C82145   0.541   9.716  11.253 -0.1192  0.3696  0.4780
  609MOL0     C82146   0.612   9.818  11.203 -0.0406  0.2165 -0.3584
  609MOL0     C82147   0.595   9.856  11.060 -0.1967  0.3073 -0.7723
  609MOL0     H82148   0.925  10.240  11.492  1.8519  0.1263  1.0309
  609MOL0     H82149   1.040  10.435  11.459 -2.5772 -2.7591  2.9077
  609MOL0     H82150   1.106  10.611  11.207 -0.0521 -1.4992  0.2594
  609MOL0     H82151   1.181  10.623  11.371 -1.5112  1.7292 -0.5428
  609MOL0     H82152   1.311  10.682  11.102  0.3435  0.6621 -1.0277
  609MOL0     H82153   1.391  10.695  11.256 -0.1694 -3.0834 -2.6358
  609MOL0     H82154   1.195  10.857  11.311  1.9203  2.9220  0.7619
  609MOL0     H82155   1.168  10.881  11.137 -1.0167 -0.3214  1.3154
  609MOL0     H82156   1.439  10.876  11.136  1.8117 -0.6711  0.2337
  609MOL0     H82157   1.348  11.028  11.130 -1.3214 -0.6306 -0.6215
  609MOL0     H82158   1.395  10.899  11.399 -1.8400  1.2255  2.0428
  609MOL0     H82159   1.514  11.004  11.335 -0.3335 -1.6350 -2.2899
  609MOL0     H82160   1.348  11.194  11.320 -3.4621  0.0468  0.0943
  609MOL0     H82161   1.223  11.084  11.330 -1.1379 -1.8668  1.3767
  609MOL0     H82162   1.413  11.125  11.572  0.3042 -0.5011  0.7061
  609MOL0     H82163   1.276  11.006  11.553 -0.9453 -0.6468 -1.5985
  609MOL0     H82164   1.279  11.305  11.590  0.6549 -0.8565  0.7935
  609MOL0     H82165   1.127  11.219  11.537 -2.1896  1.6756  2.2795
  609MOL0     H82166   1.373  11.260  11.847 -1.0022  0.2504  1.2200
  609MOL0     H82167   1.267  11.253  12.109 -1.4674 -0.2692  0.3210
  609MOL0     H82168   1.187  11.110  12.153  1.0467  1.4442  2.7540
  609MOL0     H82169   1.463  11.108  12.014 -0.2320 -0.0863 -0.4943
  609MOL0     H82170   1.454  11.139  12.185  0.1987 -1.1172  1.3290
  609MOL0     H82171   1.411  10.869  12.043 -0.6134 -1.1436  0.1492
  609MOL0     H82172   1.308  10.902  12.164 -0.9988  0.5028 -1.6455
  609MOL0     H82173   1.498  10.785  12.271  0.2987  0.2305 -2.1612
  609MOL0     H82174   1.508  10.953  12.318  0.5455  0.9551 -0.2814
  609MOL0     H82175   1.665  10.826  12.431 -0.2840 -4.5492 -3.2631
  609MOL0     H82176   1.877  10.854  12.553 -1.8194  2.6422 -0.5940
  609MOL0     H82177   2.355  10.979  12.609 -1.0477 -0.0869  0.9979
  609MOL0     H82178   2.523  10.935  12.754  0.2622  0.5216  0.3323
  609MOL0     H82179   2.468  10.624  13.088 -0.4806  1.5487 -0.5180
  609MOL0     H82180   2.560  10.548  12.952  0.2470  1.2960 -2.2569
  609MOL0     H82181   2.769  10.633  13.013  2.7403  2.5019  2.6154
  609MOL0     H82182   2.710  10.739  13.139  0.8783  1.2394  0.5114
  609MOL0     H82183   2.649  10.580  13.288 -1.5956  1.4490 -1.1131
  609MOL0     H82184   2.662  10.449  13.168  0.6964 -0.5011 -0.6731
  609MOL0     H82185   2.898  10.627  13.255 -0.3750  0.1033 -1.5778
  609MOL0     H82186   2.904  10.493  13.138 -0.4135  0.0485 -0.6780
  609MOL0     H82187   2.965  10.394  13.368 -0.5499 -1.8532  0.1709
  609MOL0     H82188   2.808  10.347  13.315  1.4937 -0.8101  0.2526
  609MOL0     H82189   2.860  10.579  13.496  1.6041 -0.7342 -1.0932
  609MOL0     H82190   2.702  10.488  13.480 -0.0304 -1.7057 -1.5578
  609MOL0     H82191   2.960  10.428  13.612 -0.8051  0.7876  0.1708
  609MOL0     H82192   2.861  10.285  13.573  1.1552  0.3016 -1.9399
  609MOL0     H82193   2.842  10.374  13.795  0.6404 -0.0910  0.4911
  609MOL0     H82194   2.797  10.535  13.744 -0.5254 -1.1767 -0.3010
  609MOL0     H82195   2.333  10.593  12.921 -2.3095  2.6726  1.5837
  609MOL0     H82196   2.132  10.655  12.765 -1.6474  2.4373  0.1201
  609MOL0     H82197   2.090  10.937  12.188  1.4753  0.7098  1.2650
  609MOL0     H82198   1.872  10.919  12.067  2.5425  0.7546 -0.4010
  609MOL0     H82199   1.219  10.288  11.106 -0.1117  2.6788  1.9423
  609MOL0     H82200   1.064  10.080  11.116  1.1959  0.6120  0.0326
  609MOL0     H82201   0.829   9.854  11.470  1.1131 -0.9279 -1.3454
  609MOL0     H82202   0.686   9.692  11.562  1.1080  2.1009  0.1609
  609MOL0     H82203   0.493   9.372  11.318  0.6015  1.3577 -2.1230
  609MOL0     H82204   0.374   9.505  11.286 -2.0737  0.4374  1.4206
  609MOL0     H82205   0.386   9.357  11.537 -1.1253  0.4549  1.1615
  609MOL0     H82206   0.299   9.297  11.402  2.3229 -0.5140 -0.7342
  609MOL0     H82207   0.166   9.523  11.400  0.3612  0.1510  0.1033
  609MOL0     H82208   0.250   9.576  11.542  0.5689  0.3514 -0.1265
  609MOL0     H82209   0.041   9.343  11.554  0.8109 -0.1974 -0.5656
  609MOL0     H82210   0.170   9.387  11.674  1.3134  1.4474 -1.0869
  609MOL0     H82211  -0.107   9.690  11.709  0.3958  0.9279 -1.3830
  609MOL0     H82212   0.461   9.673  11.195 -1.0353 -1.7998  3.1809
  609MOL0     H82213   0.691   9.838  11.011  0.4646  1.0787  0.1768
  609MOL0     H82214   0.525   9.788  11.011 -0.7531  1.2174 -1.2551
  609MOL0     H82215   0.555   9.957  11.044  2.2005  1.4924  0.1406
  610MOL0     O82216   2.602   5.890   4.676  0.6175  0.0066 -0.6500
  610MOL0     C82217   2.560   5.897   4.796 -0.1007  0.5023  0.3987
  610MOL0     O82218   2.637   5.882   4.905  0.5216 -0.0444  0.7715
  610MOL0     C82219   2.772   5.889   4.883  0.6095 -0.1958  0.2611
  610MOL0     C82220   2.832   5.770   4.861 -0.0593  0.0362  0.2606
  610MOL0     C82221   2.969   5.760   4.851  0.1599  0.5253 -0.1044
  610MOL0     C82222   3.049   5.875   4.857  0.7279 -0.3752 -0.8460
  610MOL0     O82223   3.185   5.868   4.855  0.0893  0.1261 -0.4859
  610MOL0     C82224   3.254   5.932   4.965  0.4924 -0.3947  0.5294
  610MOL0     C82225   3.223   5.874   5.100  0.3921  0.0554 -0.0897
  610MOL0     C82226   3.271   5.725   5.122  0.0411 -0.8013  0.0278
  610MOL0     C82227   3.418   5.712   5.153  0.2937  0.9142 -0.1672
  610MOL0     C82228   3.473   5.569   5.132 -0.2664 -0.2576 -0.6044
  610MOL0     C82229   3.610   5.584   5.084  0.1723 -0.8623  0.0072
  610MOL0     C82230   3.679   5.456   5.029  0.7699 -0.1090 -0.1195
  610MOL0     C82231   3.696   5.347   5.138 -0.0993  0.4108  0.2654
  610MOL0     N82232   3.802   5.382   5.235 -0.0412  0.8081 -0.3347
  610MOL0     C82233   3.903   5.474   5.213 -0.4898 -0.9999 -0.5099
  610MOL0     C82234   3.971   5.476   5.335 -0.4406  0.8572 -0.1257
  610MOL0     C82235   4.079   5.576   5.370 -1.3357 -0.2648 -0.7135
  610MOL0     C82236   4.026   5.712   5.410 -0.9251  0.3050 -0.0277
  610MOL0     C82237   4.141   5.800   5.464 -0.2597 -0.4948 -0.0387
  610MOL0     C82238   4.195   5.888   5.358 -0.2431  0.2436 -0.1183
  610MOL0     O82239   4.268   5.810   5.265 -0.0360  0.3770  0.6795
  610MOL0     C82240   4.350   5.881   5.185 -0.7353 -0.8444 -0.1497
  610MOL0     C82241   4.461   5.808   5.130  0.6172  0.0681  0.1640
  610MOL0     C82242   4.543   5.881   5.036 -0.3373  0.1407  0.5815
  610MOL0     C82243   4.525   6.023   5.001 -0.4789  0.4226  0.5203
  610MOL0     C82244   4.616   6.092   4.909  0.4810  1.0553  0.7045
  610MOL0     O82245   4.712   6.010   4.841 -0.5609  0.5362 -0.4570
  610MOL0     C82246   4.803   6.043   4.745  0.2416 -0.1213 -0.2120
  610MOL0     C82247   4.784   6.151   4.655 -0.3264  0.7650  0.2402
  610MOL0     C82248   4.875   6.164   4.557 -0.7262  0.9893  0.2943
  610MOL0     C82249   4.974   6.069   4.523 -0.4576 -0.1297  0.7529
  610MOL0     O82250   5.066   6.082   4.423 -0.2386  0.0989  0.9681
  610MOL0     C82251   5.157   6.181   4.456  0.0393  0.5929 -0.1234
  610MOL0     C82252   5.249   6.191   4.344 -0.2717  0.0157 -0.8472
  610MOL0     C82253   5.383   6.273   4.367  0.9636  0.8715 -0.5847
  610MOL0     C82254   5.463   6.271   4.235 -0.4206  0.3869  0.1577
  610MOL0     C82255   5.606   6.285   4.255 -0.7317  0.1594  0.8369
  610MOL0     C82256   5.703   6.256   4.138 -0.7103 -0.2661  0.6791
  610MOL0     C82257   5.694   6.348   4.021 -0.4279  0.1024 -0.0043
  610MOL0     C82258   5.728   6.492   4.044  0.0596  0.1629  0.2147
  610MOL0    Cl82259   5.748   6.577   3.890  0.2874  0.0987 -0.4590
  610MOL0     C82260   4.984   5.954   4.598  0.5732  0.1554  0.2094
  610MOL0     C82261   4.911   5.951   4.724 -0.2133  0.2761  0.4896
  610MOL0     O82262   4.601   6.219   4.901 -0.0923  0.1096 -0.1300
  610MOL0     C82263   4.411   6.089   5.055 -0.1654  0.2199 -0.2845
  610MOL0     C82264   4.336   6.016   5.148  0.9810 -0.0535  0.4051
  610MOL0     N82265   3.894   5.389   5.422 -0.1447 -0.5369  0.3241
  610MOL0     N82266   3.817   5.322   5.352 -0.1586 -0.4239  0.1846
  610MOL0     C82267   2.988   6.001   4.868 -1.0542  0.0875 -0.1933
  610MOL0     C82268   2.844   6.006   4.884 -0.0909  0.2540  0.5266
  610MOL0     C82269   2.408   5.934   4.804  0.2034 -0.3195 -0.7889
  610MOL0     C82270   2.342   5.871   4.906  0.3188  0.3132 -1.0748
  610MOL0     C82271   2.204   5.892   4.927  0.2670  0.0722 -0.2542
  610MOL0     C82272   2.128   5.966   4.836  0.5061 -0.7038 -0.1697
  610MOL0     O82273   2.000   5.993   4.869  0.9484 -0.1556 -0.3759
  610MOL0     C82274   1.914   6.065   4.785 -1.0777 -0.0265 -0.2171
  610MOL0     C82275   1.939   6.218   4.809 -0.6331  0.4248  0.5007
  610MOL0     C82276   1.973   6.256   4.944  0.3244 -0.6932 -0.0574
  610MOL0     C82277   1.953   6.402   4.941  0.1195  0.3182 -0.2651
  610MOL0     C82278   1.982   6.463   5.068  0.0592  0.6476 -0.4836
  610MOL0     C82279   1.984   6.519   5.176  0.6067 -0.4271 -0.6670
  610MOL0     C82280   2.203   6.033   4.725  0.8613  0.7947 -0.1386
  610MOL0     C82281   2.336   6.015   4.712  0.5498 -0.6628  0.1292
  610MOL0     C82282   2.398   6.084   4.596  0.9258  0.5314 -0.2934
  610MOL0     H82283   2.786   5.673   4.872 -0.2225  0.1089  0.2170
  610MOL0     H82284   3.018   5.664   4.842 -1.2751 -0.0864 -1.9444
  610MOL0     H82285   3.361   5.917   4.949  0.4648  1.2667 -1.7166
  610MOL0     H82286   3.236   6.040   4.964  0.2050 -0.4406  0.4057
  610MOL0     H82287   3.116   5.889   5.120  0.2371 -1.0890 -0.0111
  610MOL0     H82288   3.282   5.929   5.174 -0.0376  3.2118 -1.9146
  610MOL0     H82289   3.244   5.672   5.030  1.6937 -0.6776 -0.5574
  610MOL0     H82290   3.214   5.683   5.206  0.3606  0.3493  0.8500
  610MOL0     H82291   3.478   5.793   5.111 -0.5280  2.3737  1.3921
  610MOL0     H82292   3.431   5.717   5.261  2.1218 -1.4734 -0.1973
  610MOL0     H82293   3.468   5.521   5.230 -0.4500  4.5913  2.0551
  610MOL0     H82294   3.419   5.507   5.060  1.1945 -4.0625  1.2580
  610MOL0     H82295   3.611   5.659   5.005 -3.0847  0.9137  1.4783
  610MOL0     H82296   3.664   5.628   5.167  1.0877  0.4611 -1.2436
  610MOL0     H82297   3.777   5.481   4.990  0.1624 -0.2212 -1.8210
  610MOL0     H82298   3.618   5.416   4.947 -2.6087 -1.4680  2.7559
  610MOL0     H82299   3.601   5.335   5.192 -0.9802 -0.2780 -1.3725
  610MOL0     H82300   3.727   5.248   5.102  3.6540  0.8654  1.7673
  610MOL0     H82301   3.926   5.536   5.127  1.8408 -1.0983 -0.0207
  610MOL0     H82302   4.132   5.534   5.456 -2.5941  2.5180  1.5765
  610MOL0     H82303   4.151   5.583   5.288 -0.7127 -1.9476 -0.3567
  610MOL0     H82304   3.976   5.756   5.324  1.2140 -1.3151 -2.2378
  610MOL0     H82305   3.957   5.687   5.491 -0.0671 -2.3505 -0.0084
  610MOL0     H82306   4.219   5.746   5.518 -1.6393 -1.6121  0.9324
  610MOL0     H82307   4.104   5.871   5.539 -0.1160 -0.7526  0.2786
  610MOL0     H82308   4.263   5.964   5.398  0.2653 -0.9508  1.3673
  610MOL0     H82309   4.106   5.933   5.313 -1.1025  2.7527  3.6644
  610MOL0     H82310   4.469   5.702   5.153 -0.9428  0.1159  1.0188
  610MOL0     H82311   4.614   5.819   4.983  1.3813  0.7008  2.1157
  610MOL0     H82312   4.699   6.214   4.681 -0.7836 -0.3038  1.4974
  610MOL0     H82313   4.856   6.248   4.490  1.7003  0.1829 -1.5810
  610MOL0     H82314   5.111   6.275   4.489 -1.0413 -0.4751  1.5866
  610MOL0     H82315   5.217   6.152   4.543 -0.8723  0.7390  0.5730
  610MOL0     H82316   5.284   6.090   4.321  1.6994 -0.3697  2.9743
  610MOL0     H82317   5.187   6.239   4.268 -1.8156  1.7842  1.3783
  610MOL0     H82318   5.368   6.374   4.407 -0.8685  0.8520 -1.1589
  610MOL0     H82319   5.437   6.218   4.445 -1.2519  0.0187  0.4503
  610MOL0     H82320   5.412   6.337   4.165 -2.0673 -3.2945 -2.4278
  610MOL0     H82321   5.457   6.174   4.185  0.5462 -1.0597  2.6344
  610MOL0     H82322   5.645   6.219   4.333 -1.3109  1.6149  2.4235
  610MOL0     H82323   5.626   6.389   4.285  0.1850  0.1606  0.2770
  610MOL0     H82324   5.805   6.263   4.178  0.2848 -3.4839 -0.9983
  610MOL0     H82325   5.691   6.154   4.103 -0.3708 -0.2937  0.6374
  610MOL0     H82326   5.597   6.334   3.974 -1.0353 -0.8295  1.4545
  610MOL0     H82327   5.777   6.324   3.954 -0.5294 -0.2737  0.0020
  610MOL0     H82328   5.646   6.539   4.100  0.7222  1.3570  0.2342
  610MOL0     H82329   5.824   6.501   4.096  0.9376 -0.2774 -1.2876
  610MOL0     H82330   5.053   5.874   4.573  3.1777  2.2430  0.2453
  610MOL0     H82331   4.905   5.862   4.785 -2.1361 -0.9044 -1.2763
  610MOL0     H82332   4.375   6.190   5.038  1.4343  0.9569  0.4428
  610MOL0     H82333   4.262   6.074   5.202 -0.4669 -1.1574 -0.3463
  610MOL0     H82334   3.055   6.087   4.872 -0.7805 -0.1138 -0.3403
  610MOL0     H82335   2.812   6.107   4.908  4.0886  2.2593 -1.2395
  610MOL0     H82336   2.407   5.821   4.976  0.1349  2.1658  0.4782
  610MOL0     H82337   2.159   5.836   5.008  0.6822  1.5832  1.0721
  610MOL0     H82338   1.811   6.041   4.812 -0.7794 -0.6273  0.3999
  610MOL0     H82339   1.945   6.048   4.681  1.5541 -1.2788  0.6725
  610MOL0     H82340   1.843   6.260   4.778 -1.2096 -0.4373  1.0828
  610MOL0     H82341   2.021   6.253   4.744  1.9488 -1.8972  2.2626
  610MOL0     H82342   2.079   6.238   4.966 -0.0655 -0.7896  1.8894
  610MOL0     H82343   1.915   6.195   5.013  2.3302 -3.5375 -0.7242
  610MOL0     H82344   2.009   6.457   4.865 -2.0130  1.9837 -0.7314
  610MOL0     H82345   1.848   6.423   4.918  0.5872  2.3389 -0.7675
  610MOL0     H82346   1.984   6.574   5.268 -1.6167 -1.7094  0.1774
  610MOL0     H82347   2.145   6.095   4.658 -3.4588 -2.4883  0.0980
  610MOL0     H82348   2.347   6.175   4.564  1.1098  0.9426  0.5844
  610MOL0     H82349   2.499   6.109   4.630  1.7570 -2.5185 -0.2087
  610MOL0     H82350   2.419   6.019   4.510  0.8145 -2.0607  1.5155
  611MOL0     O82351   7.429   1.362   7.356  0.6272  0.4682 -0.2249
  611MOL0     C82352   7.397   1.430   7.257  0.3539  0.4080  0.3981
  611MOL0     O82353   7.467   1.516   7.183 -0.3200  0.8740 -0.2327
  611MOL0     C82354   7.596   1.543   7.225  0.0364  0.7003 -0.8253
  611MOL0     C82355   7.619   1.657   7.302  0.2830  0.2982  0.5431
  611MOL0     C82356   7.741   1.702   7.339 -0.4097  0.1020  0.8654
  611MOL0     C82357   7.858   1.624   7.301 -0.6854  0.7524 -0.1397
  611MOL0     O82358   7.987   1.655   7.349  0.0502 -0.2115  0.0672
  611MOL0     C82359   8.025   1.794   7.354 -0.5182  0.1581 -0.4847
  611MOL0     C82360   8.103   1.834   7.229 -0.4626 -0.5224 -0.1410
  611MOL0     C82361   8.163   1.973   7.239  0.2617 -0.9360  0.1775
  611MOL0     C82362   8.265   1.991   7.129 -1.0968  0.0077 -0.0529
  611MOL0     C82363   8.355   2.118   7.147 -0.6503  0.2261  0.8858
  611MOL0     C82364   8.453   2.102   7.250  0.2790  0.5466  0.6257
  611MOL0     C82365   8.539   2.229   7.271  0.0222  0.0911 -0.0062
  611MOL0     C82366   8.646   2.232   7.384  0.1698 -0.1770 -0.5873
  611MOL0     N82367   8.589   2.274   7.511  0.4376 -1.0204 -0.5904
  611MOL0     C82368   8.483   2.229   7.581  0.5060 -1.0620 -0.2571
  611MOL0     C82369   8.479   2.309   7.692 -0.2298 -1.4760 -0.9610
  611MOL0     C82370   8.389   2.312   7.811 -0.4780 -0.2469 -0.3660
  611MOL0     C82371   8.457   2.276   7.944  0.7208  0.1015  0.0337
  611MOL0     C82372   8.565   2.167   7.936 -0.6550 -0.5115  0.1462
  611MOL0     C82373   8.616   2.136   8.079 -0.4989 -1.0105 -0.2272
  611MOL0     O82374   8.687   2.011   8.063  0.3281 -0.1177 -0.5226
  611MOL0     C82375   8.746   1.962   8.176 -0.1534  0.3504  0.1571
  611MOL0     C82376   8.808   1.835   8.160  0.7845 -0.4495  0.2402
  611MOL0     C82377   8.869   1.777   8.274 -0.2254 -1.3786  0.2431
  611MOL0     C82378   8.878   1.841   8.399 -0.1229 -0.1464  0.6676
  611MOL0     C82379   8.936   1.768   8.515  0.4541 -0.1074  0.3707
  611MOL0     O82380   8.981   1.645   8.486 -0.4811 -0.3087  0.3999
  611MOL0     C82381   9.019   1.549   8.571 -1.0392 -0.2039 -0.5723
  611MOL0     C82382   9.007   1.555   8.715  0.1549  0.2341  0.1977
  611MOL0     C82383   9.070   1.459   8.796  1.1504 -0.1828 -0.6933
  611MOL0     C82384   9.139   1.356   8.735 -0.4866  0.0786  0.0715
  611MOL0     O82385   9.203   1.257   8.797  0.3942  0.0123 -0.3879
  611MOL0     C82386   9.179   1.232   8.931 -0.0200 -0.2793  0.6613
  611MOL0     C82387   9.258   1.113   8.966  0.1089  0.5262 -0.8038
  611MOL0     C82388   9.302   1.098   9.113 -0.3269 -0.1641  0.9048
  611MOL0     C82389   9.410   0.995   9.131 -0.5380 -0.2717 -0.6760
  611MOL0     C82390   9.463   1.024   9.270 -0.0140 -0.7023  0.0584
  611MOL0     C82391   9.589   0.940   9.288 -0.5878  0.3565  0.8172
  611MOL0     C82392   9.565   0.804   9.353 -0.5477 -0.5646  1.0001
  611MOL0     C82393   9.674   0.704   9.318 -0.0959  0.1419  0.0172
  611MOL0    Cl82394   9.833   0.786   9.309  0.5431  0.0416 -0.2236
  611MOL0     C82395   9.144   1.348   8.595  0.3855  0.4415  0.3329
  611MOL0     C82396   9.091   1.447   8.513 -0.4824 -0.4688 -0.9827
  611MOL0     O82397   8.928   1.813   8.626  0.5133 -0.0670 -0.6255
  611MOL0     C82398   8.818   1.965   8.417 -0.1544 -0.6004  0.2645
  611MOL0     C82399   8.757   2.038   8.303 -0.4107  0.3803  0.3007
  611MOL0     N82400   8.598   2.387   7.692  0.3195  1.0269  0.2635
  611MOL0     N82401   8.657   2.363   7.584  0.9728  0.1898  0.8011
  611MOL0     C82402   7.832   1.503   7.229  0.4891 -0.5000 -0.4146
  611MOL0     C82403   7.701   1.459   7.199 -0.5241 -0.6897  0.3760
  611MOL0     C82404   7.255   1.437   7.226 -0.2234 -0.0919 -0.5789
  611MOL0     C82405   7.167   1.451   7.338 -0.3062  0.2523  0.1240
  611MOL0     C82406   7.029   1.462   7.324  0.5414 -0.0448  0.1023
  611MOL0     C82407   6.967   1.470   7.191 -0.6241  0.4239  0.0012
  611MOL0     O82408   6.824   1.485   7.163 -0.2685 -0.3843 -0.2744
  611MOL0     C82409   6.726   1.529   7.266 -1.0682 -0.6757  0.0895
  611MOL0     C82410   6.583   1.495   7.217 -0.8358 -0.9507  0.5804
  611MOL0     C82411   6.481   1.568   7.306  0.5381 -0.0734 -0.0393
  611MOL0     C82412   6.333   1.544   7.261 -0.0245 -0.0440 -0.7290
  611MOL0     C82413   6.297   1.615   7.137 -0.6126  0.6615 -0.0849
  611MOL0     C82414   6.265   1.646   7.025 -0.0304 -0.1354  0.1162
  611MOL0     C82415   7.055   1.459   7.080  0.1564 -0.6778  0.3762
  611MOL0     C82416   7.199   1.426   7.098  0.8154  0.2361 -0.5188
  611MOL0     C82417   7.276   1.388   6.973  0.3164  0.4414  0.0385
  611MOL0     H82418   7.529   1.712   7.327  0.9608  1.4564  0.5386
  611MOL0     H82419   7.748   1.791   7.400 -0.0121  0.6723  0.0074
  611MOL0     H82420   7.930   1.849   7.358 -1.3974 -1.3657  1.9177
  611MOL0     H82421   8.086   1.818   7.441 -1.6665  2.8218 -0.3256
  611MOL0     H82422   8.028   1.827   7.149 -0.4547 -1.4146 -0.0887
  611MOL0     H82423   8.175   1.760   7.191  1.3003  1.7702 -1.5175
  611MOL0     H82424   8.209   1.979   7.338  0.8229 -2.0379  0.0092
  611MOL0     H82425   8.094   2.057   7.248 -0.2339 -1.1585 -1.2543
  611MOL0     H82426   8.325   1.903   7.101 -0.1275  1.3427 -2.4084
  611MOL0     H82427   8.208   2.012   7.039 -0.9012 -1.7201 -0.6176
  611MOL0     H82428   8.397   2.135   7.048 -1.2603 -3.2824 -0.1085
  611MOL0     H82429   8.296   2.208   7.168 -0.0562  0.7948  0.1551
  611MOL0     H82430   8.401   2.075   7.342 -0.8957 -0.2681 -0.2511
  611MOL0     H82431   8.511   2.016   7.216 -1.9296 -1.2519  1.1400
  611MOL0     H82432   8.474   2.317   7.276 -1.5291 -1.0043 -0.0501
  611MOL0     H82433   8.594   2.239   7.177  1.2582 -2.0381  0.4199
  611MOL0     H82434   8.701   2.138   7.397 -0.3413 -0.1141  2.8330
  611MOL0     H82435   8.714   2.317   7.366 -0.3490  0.4285  0.2483
  611MOL0     H82436   8.398   2.169   7.551  0.1094 -0.4653 -0.3484
  611MOL0     H82437   8.348   2.413   7.817 -2.2475 -0.9671  0.3785
  611MOL0     H82438   8.306   2.243   7.793 -0.6554  0.0445 -0.6718
  611MOL0     H82439   8.515   2.363   7.980  2.7949 -0.5231 -1.5903
  611MOL0     H82440   8.380   2.245   8.015 -0.1736 -0.2854 -1.0975
  611MOL0     H82441   8.653   2.199   7.880 -2.7534  4.0966 -1.0498
  611MOL0     H82442   8.532   2.072   7.893  2.5434 -2.4263  1.5705
  611MOL0     H82443   8.537   2.132   8.154 -0.5317 -3.1271 -0.3157
  611MOL0     H82444   8.679   2.220   8.106  3.4878 -3.3345 -1.5106
  611MOL0     H82445   8.797   1.773   8.071 -0.5336 -2.0323  1.4402
  611MOL0     H82446   8.926   1.685   8.267 -2.0818 -2.6419  1.0338
  611MOL0     H82447   8.946   1.623   8.773  1.1809  1.2111  0.1473
  611MOL0     H82448   9.052   1.464   8.903  0.7146 -1.1246 -0.7159
  611MOL0     H82449   9.217   1.318   8.986 -0.1871  0.4041 -0.2793
  611MOL0     H82450   9.075   1.205   8.954 -0.2912 -0.2306 -0.4627
  611MOL0     H82451   9.195   1.029   8.937 -2.4941  2.8265 -2.2302
  611MOL0     H82452   9.352   1.116   8.910  1.4083  0.9866  1.2486
  611MOL0     H82453   9.340   1.197   9.142 -0.0720 -0.8554  3.1265
  611MOL0     H82454   9.214   1.065   9.168 -0.4405 -0.0759  0.7756
  611MOL0     H82455   9.494   1.016   9.063  0.5130 -0.2755  0.5868
  611MOL0     H82456   9.381   0.890   9.126  1.3579 -0.9027  0.6067
  611MOL0     H82457   9.388   1.004   9.348  1.8609  1.6141  2.6749
  611MOL0     H82458   9.490   1.129   9.281 -0.5529 -0.7643  2.7085
  611MOL0     H82459   9.643   0.934   9.194 -1.4640  0.1667  0.3172
  611MOL0     H82460   9.652   0.996   9.358 -1.1362  1.0209  0.7837
  611MOL0     H82461   9.470   0.762   9.320  0.6567 -1.3052 -1.8041
  611MOL0     H82462   9.567   0.827   9.460 -4.0942  1.4183  0.8012
  611MOL0     H82463   9.673   0.630   9.398 -0.2476 -0.5768 -0.6324
  611MOL0     H82464   9.649   0.645   9.229  1.0305  1.0649 -0.9675
  611MOL0     H82465   9.183   1.264   8.538 -1.2359  0.0161 -0.1788
  611MOL0     H82466   9.100   1.449   8.405  5.7080 -0.9551 -0.8027
  611MOL0     H82467   8.834   2.011   8.514 -1.6314 -3.1000  1.7827
  611MOL0     H82468   8.695   2.126   8.320 -0.5595  0.2466  0.4530
  611MOL0     H82469   7.913   1.444   7.187  3.0548  1.0856  1.9915
  611MOL0     H82470   7.709   1.360   7.154  0.0261 -1.2014  1.5388
  611MOL0     H82471   7.207   1.461   7.438 -0.6140 -1.7791  0.5047
  611MOL0     H82472   6.964   1.491   7.406  0.1112  4.1210 -1.4634
  611MOL0     H82473   6.737   1.637   7.282 -2.3805 -0.4444 -0.4838
  611MOL0     H82474   6.747   1.484   7.364 -2.6568  1.2502  1.3860
  611MOL0     H82475   6.562   1.387   7.221 -0.7306 -0.9730  0.5342
  611MOL0     H82476   6.583   1.537   7.116 -0.8279  1.1292  1.3933
  611MOL0     H82477   6.496   1.676   7.309 -6.0249  1.2515  2.5765
  611MOL0     H82478   6.488   1.524   7.406  3.0440 -1.4079 -0.7106
  611MOL0     H82479   6.304   1.439   7.259  0.3797 -0.2043  0.6221
  611MOL0     H82480   6.275   1.594   7.339  1.8805  0.6190  0.3449
  611MOL0     H82481   6.226   1.696   6.939 -1.0234  0.2636  0.7758
  611MOL0     H82482   7.017   1.470   6.978  0.3837  4.6472  0.5754
  611MOL0     H82483   7.339   1.299   6.975  0.6640  0.6965  0.9719
  611MOL0     H82484   7.205   1.374   6.891 -1.3106  1.8571  1.1361
  611MOL0     H82485   7.341   1.474   6.953  0.2789  0.9941  1.9965
  612MOL0     O82486   9.612   2.211  11.318 -0.7054 -0.3935 -0.0616
  612MOL0     C82487   9.545   2.129  11.375 -0.7661  0.5450 -0.9405
  612MOL0     O82488   9.558   2.099  11.506 -0.5865  0.4855  0.1024
  612MOL0     C82489   9.670   2.123  11.581  1.0694 -0.4333  0.1216
  612MOL0     C82490   9.791   2.191  11.554 -0.4420  0.6534 -0.3673
  612MOL0     C82491   9.879   2.239  11.650 -0.0149  0.5755  0.1238
  612MOL0     C82492   9.853   2.197  11.784  0.2108  0.4176  0.4585
  612MOL0     O82493   9.946   2.222  11.878  0.1766  0.4531 -0.7527
  612MOL0     C82494   9.993   2.352  11.898 -0.6444  0.0760  0.2992
  612MOL0     C82495  10.105   2.365  12.009 -0.2200  0.8363 -0.7877
  612MOL0     C82496  10.076   2.294  12.138  0.2128 -0.1555 -0.4501
  612MOL0     C82497  10.197   2.295  12.220  0.4630  0.1763  0.5369
  612MOL0     C82498  10.162   2.224  12.349 -0.3563  0.3433 -0.0294
  612MOL0     C82499  10.289   2.192  12.434 -0.1084  0.1955  0.7416
  612MOL0     C82500  10.259   2.128  12.567 -0.3565  0.3777  0.4537
  612MOL0     C82501  10.375   2.165  12.666 -0.1835  0.9511 -0.2272
  612MOL0     N82502  10.384   2.309  12.694  0.0425  0.3289 -0.4314
  612MOL0     C82503  10.293   2.389  12.766  0.3210  0.3597 -0.2020
  612MOL0     C82504  10.348   2.512  12.782 -1.1148  0.3391  0.7954
  612MOL0     C82505  10.273   2.630  12.851 -0.3805  0.4032 -0.1642
  612MOL0     C82506  10.354   2.700  12.961 -0.7630  0.4680  0.3778
  612MOL0     C82507  10.278   2.816  13.029  0.5782  0.7383  0.4575
  612MOL0     C82508  10.346   2.873  13.147 -0.1869  0.2096  0.5757
  612MOL0     O82509  10.276   2.987  13.196  0.7015 -0.0470 -0.2253
  612MOL0     C82510  10.286   3.024  13.330 -0.1328  0.3583  0.2075
  612MOL0     C82511  10.183   3.102  13.393  0.3776  0.2314 -0.1105
  612MOL0     C82512  10.192   3.142  13.530  0.4206  0.8092 -0.7435
  612MOL0     C82513  10.303   3.105  13.599  0.0544 -0.3288 -0.2465
  612MOL0     C82514  10.339   3.160  13.732  0.3987  0.2589  0.5728
  612MOL0     O82515  10.260   3.258  13.782  0.2072 -0.2317  0.9053
  612MOL0     C82516  10.256   3.274  13.920 -0.9336 -0.3216  0.5330
  612MOL0     C82517  10.237   3.405  13.953 -0.5225 -0.3793  0.8000
  612MOL0     C82518  10.225   3.444  14.083  0.7449  0.6826 -0.3231
  612MOL0     C82519  10.243   3.356  14.194  0.4411  0.7089  0.6378
  612MOL0     O82520  10.235   3.386  14.332  0.3278  0.4500 -0.0245
  612MOL0     C82521  10.218   3.519  14.367  0.2561  0.4425 -0.3332
  612MOL0     C82522  10.185   3.529  14.512  0.2571 -0.1375  0.1617
  612MOL0     C82523  10.176   3.670  14.571  0.4912  0.3285  0.5239
  612MOL0     C82524  10.108   3.667  14.711 -0.5330  0.2315  0.8641
  612MOL0     C82525   9.960   3.714  14.695  0.1850 -0.8329 -0.0545
  612MOL0     C82526   9.860   3.698  14.807 -0.4739 -0.3454 -0.2909
  612MOL0     C82527   9.740   3.791  14.791 -0.4641 -0.1047 -0.9183
  612MOL0     C82528   9.655   3.788  14.918  0.3149  0.3312 -1.0655
  612MOL0    Cl82529   9.727   3.888  15.040  0.0556 -0.2454  0.3552
  612MOL0     C82530  10.270   3.227  14.161  0.9675  0.1970  0.8911
  612MOL0     C82531  10.268   3.181  14.028  0.5593 -0.8204  0.3176
  612MOL0     O82532  10.427   3.102  13.795 -0.1498 -0.0441 -0.1146
  612MOL0     C82533  10.412   3.036  13.529 -0.0445  0.6585  0.7366
  612MOL0     C82534  10.395   2.997  13.399  0.0667 -0.3130 -0.8346
  612MOL0     N82535  10.479   2.507  12.722 -0.2251 -0.7641 -0.3362
  612MOL0     N82536  10.501   2.388  12.676  0.0694  0.2658 -0.2597
  612MOL0     C82537   9.741   2.121  11.818 -0.3213  0.2153  0.1683
  612MOL0     C82538   9.648   2.089  11.719 -0.5038 -0.0400  0.9467
  612MOL0     C82539   9.438   2.075  11.300  0.6157  0.6153  0.0927
  612MOL0     C82540   9.335   2.035  11.371  0.1427  0.4656  0.2348
  612MOL0     C82541   9.225   1.968  11.312 -0.1286  0.1086  0.9691
  612MOL0     C82542   9.207   1.970  11.171  0.0938  0.3666 -1.1780
  612MOL0     O82543   9.092   1.918  11.122 -0.1505  0.0280  0.0850
  612MOL0     C82544   9.078   1.903  10.977 -0.2846  0.0475 -0.1621
  612MOL0     C82545   8.955   1.821  10.919 -0.3277  0.2514 -0.5592
  612MOL0     C82546   8.962   1.681  10.980  0.7087  0.6071 -0.0876
  612MOL0     C82547   8.872   1.579  10.891 -0.1850 -0.1020  0.3824
  612MOL0     C82548   8.729   1.615  10.903  0.9113 -0.0457  0.5087
  612MOL0     C82549   8.616   1.659  10.921 -0.0349 -0.8722  0.7603
  612MOL0     C82550   9.305   2.028  11.090 -0.9755 -0.2398 -0.6054
  612MOL0     C82551   9.423   2.074  11.160 -0.6804  0.0931  0.4107
  612MOL0     C82552   9.531   2.128  11.073 -0.5866  0.0221  0.7418
  612MOL0     H82553   9.822   2.220  11.454  3.6164 -1.1150  0.1469
  612MOL0     H82554   9.952   2.314  11.622  1.0465 -1.4287 -3.0172
  612MOL0     H82555  10.048   2.387  11.811 -1.5265  0.0516 -0.2763
  612MOL0     H82556   9.909   2.419  11.921  1.2415  2.5092  0.4986
  612MOL0     H82557  10.124   2.469  12.039 -3.3419  0.5214  3.2129
  612MOL0     H82558  10.199   2.323  11.974 -0.5520  0.8721 -1.7290
  612MOL0     H82559  10.037   2.192  12.126  0.1555 -0.6563  2.8779
  612MOL0     H82560  10.001   2.353  12.192  1.9233  0.1776  1.7249
  612MOL0     H82561  10.273   2.234  12.169  0.6365  0.0225  0.9708
  612MOL0     H82562  10.225   2.398  12.243 -1.1086  1.1159 -1.4524
  612MOL0     H82563  10.096   2.295  12.399 -1.5435  0.8248 -2.1734
  612MOL0     H82564  10.116   2.129  12.322  1.1772  0.3676 -3.0725
  612MOL0     H82565  10.366   2.135  12.381 -0.6008  1.0669 -0.9626
  612MOL0     H82566  10.340   2.289  12.428 -0.5759  0.3539 -2.3403
  612MOL0     H82567  10.245   2.020  12.567  1.5713  0.0849 -0.5912
  612MOL0     H82568  10.166   2.171  12.604 -0.4370  1.4601 -0.9231
  612MOL0     H82569  10.374   2.118  12.764 -0.5001  0.1031 -0.6302
  612MOL0     H82570  10.466   2.135  12.613  0.6736  3.1386 -0.1296
  612MOL0     H82571  10.198   2.354  12.804  1.7908 -3.7562  0.1725
  612MOL0     H82572  10.238   2.702  12.776 -2.2783 -1.6752 -1.4121
  612MOL0     H82573  10.189   2.586  12.906  1.5151  1.2683  3.7656
  612MOL0     H82574  10.363   2.621  13.037 -0.7093  1.7087  1.7238
  612MOL0     H82575  10.457   2.719  12.929 -1.0320 -0.5555 -1.2011
  612MOL0     H82576  10.183   2.777  13.066  0.1249  1.2900 -0.0897
  612MOL0     H82577  10.261   2.899  12.959  2.5965  0.5587 -0.3219
  612MOL0     H82578  10.447   2.903  13.116 -0.6397  2.2536  0.9269
  612MOL0     H82579  10.353   2.805  13.232 -0.1002  2.5330  2.5219
  612MOL0     H82580  10.107   3.153  13.333 -0.1001  2.3527  2.1241
  612MOL0     H82581  10.122   3.210  13.578  0.8862  0.0493  1.1045
  612MOL0     H82582  10.237   3.476  13.871 -0.8975 -2.3970 -1.0438
  612MOL0     H82583  10.211   3.551  14.100  1.7514  0.4950  2.2209
  612MOL0     H82584  10.297   3.587  14.335  0.4691  0.9925  1.2770
  612MOL0     H82585  10.124   3.553  14.321 -0.7745 -0.1233  1.2551
  612MOL0     H82586  10.094   3.469  14.518  1.7198 -2.6759 -1.2927
  612MOL0     H82587  10.264   3.471  14.561 -0.3879  0.8276  2.4840
  612MOL0     H82588  10.279   3.706  14.567  1.1233 -1.4724 -2.2546
  612MOL0     H82589  10.126   3.734  14.497 -0.5142  0.7747  1.5547
  612MOL0     H82590  10.152   3.743  14.775  2.2110  0.8173 -1.5096
  612MOL0     H82591  10.114   3.571  14.764 -1.2934 -1.4366 -1.8505
  612MOL0     H82592   9.916   3.677  14.602  1.1223 -0.0563 -0.8273
  612MOL0     H82593   9.966   3.821  14.677  1.3579 -0.7207  0.8125
  612MOL0     H82594   9.839   3.591  14.815 -3.1470  0.0339 -1.3103
  612MOL0     H82595   9.912   3.727  14.899 -1.3305 -0.6965  0.3145
  612MOL0     H82596   9.687   3.772  14.697 -1.0541  0.5164 -0.7212
  612MOL0     H82597   9.769   3.896  14.781 -2.3682  0.6756  0.9378
  612MOL0     H82598   9.549   3.812  14.902 -0.5375 -1.8666  0.7897
  612MOL0     H82599   9.653   3.691  14.967  4.0039  0.8999  0.5643
  612MOL0     H82600  10.283   3.162  14.247 -2.8512 -0.3103  1.2695
  612MOL0     H82601  10.281   3.075  14.013  1.0731 -0.7305  0.0756
  612MOL0     H82602  10.500   3.006  13.584 -1.7324 -1.4100  2.5064
  612MOL0     H82603  10.472   2.934  13.356 -0.2347 -0.2031 -1.5463
  612MOL0     H82604   9.734   2.110  11.926  0.9332  1.3422  0.3853
  612MOL0     H82605   9.556   2.046  11.757 -1.3281  2.5910  2.2021
  612MOL0     H82606   9.324   2.027  11.479 -1.0736 -2.1267  0.0138
  612MOL0     H82607   9.167   1.909  11.383 -0.1513 -2.0163 -0.7088
  612MOL0     H82608   9.164   1.844  10.945 -1.8471 -0.4962 -3.8430
  612MOL0     H82609   9.091   2.006  10.941  0.6044  0.2196  0.6165
  612MOL0     H82610   8.958   1.815  10.810 -0.7991  1.3096 -0.6489
  612MOL0     H82611   8.859   1.868  10.945 -0.1535 -1.2996  3.6229
  612MOL0     H82612   8.916   1.680  11.079  0.3493 -1.8082 -0.2269
  612MOL0     H82613   9.064   1.641  10.975 -0.1595 -1.8925  0.4779
  612MOL0     H82614   8.913   1.572  10.790 -0.1096  2.6332  0.1379
  612MOL0     H82615   8.882   1.485  10.946 -0.2840 -0.1270  0.3577
  612MOL0     H82616   8.522   1.700  10.951  0.3135  0.3228  0.2801
  612MOL0     H82617   9.299   2.027  10.981 -2.7359  1.8089 -0.6098
  612MOL0     H82618   9.626   2.084  11.103  0.6162 -0.0682 -2.6851
  612MOL0     H82619   9.518   2.096  10.969  1.1179 -1.4368  0.9375
  612MOL0     H82620   9.525   2.237  11.080 -0.9275 -0.0446  1.5826
  613MOL0     O82621   8.440   9.227   0.048  0.4025  0.4948  0.5715
  613MOL0     C82622   8.445   9.111   0.103  0.4871 -0.2434  0.3629
  613MOL0     O82623   8.560   9.038   0.101 -0.0265  0.1906  0.0780
  613MOL0     C82624   8.677   9.105   0.081  0.1687 -1.5355  0.6327
  613MOL0     C82625   8.722   9.119  -0.050 -0.1269 -0.6008 -0.1449
  613MOL0     C82626   8.854   9.171  -0.076  0.3708 -0.3250  1.1952
  613MOL0     C82627   8.936   9.203   0.029  1.0310  0.5908  0.8580
  613MOL0     O82628   9.065   9.234  -0.014  1.1000 -0.0107 -0.2887
  613MOL0     C82629   9.166   9.255   0.079 -0.6040 -0.3210  0.1022
  613MOL0     C82630   9.277   9.320   0.009 -0.2572 -0.1720 -0.3194
  613MOL0     C82631   9.328   9.225  -0.101  0.8069  0.1929  1.4945
  613MOL0     C82632   9.461   9.156  -0.072  0.2931 -0.1264 -0.3574
  613MOL0     C82633   9.505   9.050  -0.168 -0.0961  0.7242 -0.1488
  613MOL0     C82634   9.521   9.109  -0.314 -0.1425  0.3182  0.9885
  613MOL0     C82635   9.587   9.250  -0.330 -0.9943 -0.1318 -0.6657
  613MOL0     C82636   9.729   9.242  -0.275  0.5617 -0.5597  0.4494
  613MOL0     N82637   9.795   9.372  -0.285  0.1042  0.3550 -0.1615
  613MOL0     C82638   9.823   9.445  -0.399 -0.3374 -0.7557 -0.3612
  613MOL0     C82639   9.900   9.555  -0.359  0.1825  0.3200  0.3069
  613MOL0     C82640   9.960   9.656  -0.451 -1.3246  0.3499  0.5114
  613MOL0     C82641  10.070   9.597  -0.540 -0.2543  0.1363  0.5632
  613MOL0     C82642  10.173   9.707  -0.588 -0.0081  1.2966  0.2969
  613MOL0     C82643  10.239   9.653  -0.706  0.9612  0.4184  0.1208
  613MOL0     O82644  10.312   9.525  -0.671  0.1309  0.9203  0.1950
  613MOL0     C82645  10.354   9.435  -0.762  0.2438 -0.4959  0.1891
  613MOL0     C82646  10.392   9.470  -0.897  0.1838 -0.0179  0.0132
  613MOL0     C82647  10.430   9.373  -0.989  0.2278  0.2921  0.8831
  613MOL0     C82648  10.436   9.235  -0.957  0.4865  0.5052 -0.0610
  613MOL0     C82649  10.475   9.122  -1.046 -0.5084 -0.1728  0.4371
  613MOL0     O82650  10.470   8.991  -1.015  0.2346  0.0019 -0.6694
  613MOL0     C82651  10.513   8.894  -1.094  0.0713 -0.1786  0.0872
  613MOL0     C82652  10.603   8.894  -1.201  0.2181 -0.5628  0.0178
  613MOL0     C82653  10.630   8.782  -1.285  0.3063  0.5155  0.3465
  613MOL0     C82654  10.568   8.659  -1.262  0.2034  0.8611  0.2509
  613MOL0     O82655  10.587   8.548  -1.339  0.5358  0.3523 -0.3615
  613MOL0     C82656  10.695   8.472  -1.294  0.4528  0.3543  0.1158
  613MOL0     C82657  10.720   8.375  -1.408  1.2185  0.8819  0.0568
  613MOL0     C82658  10.602   8.280  -1.442  0.2581  0.6973  0.1055
  613MOL0     C82659  10.644   8.151  -1.529  0.3541 -0.5631  0.2969
  613MOL0     C82660  10.724   8.046  -1.464 -0.3532  0.3117  0.3944
  613MOL0     C82661  10.652   7.966  -1.354  0.0534  0.4510 -0.0244
  613MOL0     C82662  10.750   7.873  -1.269 -0.0801  0.0636  0.3556
  613MOL0     C82663  10.869   7.955  -1.206  0.8209 -0.0357 -0.1699
  613MOL0    Cl82664  10.819   8.107  -1.119  0.0180 -0.1854 -0.7480
  613MOL0     C82665  10.476   8.650  -1.152 -0.0713 -0.1302 -0.7623
  613MOL0     C82666  10.452   8.767  -1.066  0.1819 -0.0214  0.4618
  613MOL0     O82667  10.490   9.169  -1.161  0.3736 -0.1054  0.0618
  613MOL0     C82668  10.389   9.208  -0.825 -0.7822  1.2035  0.2372
  613MOL0     C82669  10.353   9.297  -0.733  0.1448  0.2336  0.1557
  613MOL0     N82670   9.914   9.547  -0.225  0.7560 -0.3745 -0.7333
  613MOL0     N82671   9.850   9.435  -0.175 -0.2519 -0.7629  0.1312
  613MOL0     C82672   8.892   9.181   0.156 -0.2786 -0.2658 -0.6850
  613MOL0     C82673   8.762   9.140   0.189 -0.1012  0.7020 -0.4676
  613MOL0     C82674   8.318   9.042   0.132 -0.5246 -0.4203 -0.6076
  613MOL0     C82675   8.301   8.914   0.084 -0.7784  0.0499  0.1319
  613MOL0     C82676   8.186   8.840   0.117  0.3051  0.0600  0.1600
  613MOL0     C82677   8.076   8.891   0.185  0.1581  0.8654  0.2346
  613MOL0     O82678   7.975   8.799   0.197 -0.1295 -0.5704 -0.1312
  613MOL0     C82679   7.855   8.843   0.276 -0.7511 -0.2532  0.0886
  613MOL0     C82680   7.748   8.727   0.265  0.6613 -0.4503 -0.3568
  613MOL0     C82681   7.764   8.610   0.366 -0.6714  0.9288  0.2268
  613MOL0     C82682   7.905   8.568   0.390  0.9210 -0.0998  0.4136
  613MOL0     C82683   7.918   8.441   0.470  0.2604 -0.4249  0.5423
  613MOL0     C82684   7.928   8.337   0.531  0.0958  0.2368 -0.3306
  613MOL0     C82685   8.089   9.016   0.235  0.6540 -0.0402  0.4088
  613MOL0     C82686   8.206   9.097   0.207 -0.0689  0.1658 -0.4310
  613MOL0     C82687   8.207   9.238   0.246  0.4846 -0.9118 -0.3315
  613MOL0     H82688   8.646   9.106  -0.127 -2.2587  3.7720  0.8640
  613MOL0     H82689   8.874   9.178  -0.182 -0.2506 -0.0216  1.0943
  613MOL0     H82690   9.139   9.324   0.159  1.5133  2.5293 -1.4735
  613MOL0     H82691   9.198   9.158   0.119  1.9126  0.7861  0.9594
  613MOL0     H82692   9.344   9.357   0.087  0.0514 -0.9879 -0.1949
  613MOL0     H82693   9.235   9.411  -0.035  0.4214  1.9092  2.9710
  613MOL0     H82694   9.341   9.283  -0.192  0.4106 -2.5847 -0.4700
  613MOL0     H82695   9.247   9.160  -0.135 -1.5202  0.6557  5.5277
  613MOL0     H82696   9.544   9.226  -0.060  1.2249 -0.5608 -3.5910
  613MOL0     H82697   9.445   9.097   0.019 -1.0225 -0.1914 -0.6096
  613MOL0     H82698   9.600   9.017  -0.125 -1.3112 -4.3437 -0.8141
  613MOL0     H82699   9.435   8.967  -0.178  0.7046  0.1481 -1.0894
  613MOL0     H82700   9.562   9.031  -0.380 -1.3021  2.7718 -2.9202
  613MOL0     H82701   9.418   9.109  -0.348  1.3330 -1.3235 -4.5874
  613MOL0     H82702   9.536   9.319  -0.262 -1.0583  0.0559 -0.9025
  613MOL0     H82703   9.575   9.270  -0.437 -3.1553 -1.1022 -0.6585
  613MOL0     H82704   9.730   9.217  -0.169 -0.8745  0.4516  0.7390
  613MOL0     H82705   9.784   9.171  -0.337  0.3297 -0.5824  0.2704
  613MOL0     H82706   9.781   9.421  -0.496 -4.0129  0.6978  0.6769
  613MOL0     H82707   9.888   9.696  -0.523  0.8617 -0.0927 -2.0775
  613MOL0     H82708  10.005   9.735  -0.390  0.6857  0.1524 -0.6081
  613MOL0     H82709  10.113   9.512  -0.486  0.0019  1.9431  3.4618
  613MOL0     H82710  10.020   9.553  -0.627  1.8486 -6.4841  2.0609
  613MOL0     H82711  10.247   9.733  -0.511  2.9263  2.0356 -2.5719
  613MOL0     H82712  10.127   9.803  -0.613  0.1159  2.2475  3.2968
  613MOL0     H82713  10.306   9.723  -0.756 -0.6122  1.6557 -0.3138
  613MOL0     H82714  10.153   9.637  -0.772  1.8231 -1.4654 -0.6395
  613MOL0     H82715  10.392   9.572  -0.933 -0.6910  0.5064  1.4230
  613MOL0     H82716  10.456   9.398  -1.091 -0.5875 -0.2592  0.5332
  613MOL0     H82717  10.666   8.981  -1.218  0.6582 -0.5429  1.6191
  613MOL0     H82718  10.703   8.786  -1.365 -0.3656 -1.1377 -0.4016
  613MOL0     H82719  10.788   8.524  -1.269  1.3760  0.0734 -2.3919
  613MOL0     H82720  10.669   8.408  -1.210 -2.3896 -0.8366 -1.5286
  613MOL0     H82721  10.755   8.433  -1.494  3.2589  0.6564  0.6864
  613MOL0     H82722  10.805   8.310  -1.386  1.2310  0.4067 -1.2836
  613MOL0     H82723  10.570   8.229  -1.351 -2.0288 -2.4281 -2.2119
  613MOL0     H82724  10.514   8.327  -1.486 -0.8169  0.6670  2.1110
  613MOL0     H82725  10.708   8.183  -1.611  1.9361  2.1480  2.4370
  613MOL0     H82726  10.549   8.111  -1.565 -0.3541  0.3181  1.1110
  613MOL0     H82727  10.810   8.101  -1.424  0.3686 -1.1192  0.8947
  613MOL0     H82728  10.765   7.980  -1.542 -0.8921 -0.1113  0.4618
  613MOL0     H82729  10.604   8.037  -1.286 -1.8094  2.0980 -2.8759
  613MOL0     H82730  10.577   7.902  -1.403  0.2265 -0.4438  0.8444
  613MOL0     H82731  10.793   7.802  -1.341 -0.8358  1.6960 -1.7953
  613MOL0     H82732  10.696   7.818  -1.191 -0.5692 -1.0018 -0.7000
  613MOL0     H82733  10.927   7.891  -1.139 -1.2108 -1.5803  0.2029
  613MOL0     H82734  10.944   7.977  -1.284 -1.1239 -0.3208 -2.2277
  613MOL0     H82735  10.430   8.555  -1.125  1.4546 -0.7473 -0.2227
  613MOL0     H82736  10.380   8.770  -0.985 -0.7242  1.0499 -0.3547
  613MOL0     H82737  10.393   9.108  -0.783  1.9082  2.0652  2.2831
  613MOL0     H82738  10.325   9.262  -0.634 -1.9472 -0.3719 -0.5916
  613MOL0     H82739   8.956   9.205   0.240 -0.7805 -0.8020 -0.1455
  613MOL0     H82740   8.741   9.110   0.292 -0.9283  2.0850 -0.2175
  613MOL0     H82741   8.376   8.866   0.022 -0.9055 -1.4169  1.0432
  613MOL0     H82742   8.186   8.736   0.086  2.3676 -0.9853  3.2902
  613MOL0     H82743   7.816   8.940   0.244 -2.6581 -0.3008  2.0645
  613MOL0     H82744   7.877   8.859   0.382  2.7490 -1.7254 -0.2554
  613MOL0     H82745   7.748   8.685   0.164 -1.1563  0.3270 -0.7301
  613MOL0     H82746   7.648   8.769   0.283  0.9369  1.1273 -2.1784
  613MOL0     H82747   7.717   8.522   0.322 -0.2777  0.3721  0.8982
  613MOL0     H82748   7.710   8.628   0.460  2.1505 -2.6001  2.8429
  613MOL0     H82749   7.944   8.552   0.289 -1.2965  1.5819 -0.7956
  613MOL0     H82750   7.963   8.646   0.439  1.0975 -0.8140  1.3643
  613MOL0     H82751   7.928   8.248   0.589  0.6875 -0.2623 -1.0759
  613MOL0     H82752   8.016   9.046   0.310  1.7836 -1.5522  2.2079
  613MOL0     H82753   8.309   9.268   0.274  0.8314  0.0487 -2.3831
  613MOL0     H82754   8.176   9.305   0.165 -1.9507 -2.1015 -0.4651
  613MOL0     H82755   8.155   9.240   0.342  0.6472 -2.4085 -0.1919
  614MOL0     O82756   3.175   3.577   1.010 -0.0433 -0.2610 -0.0127
  614MOL0     C82757   3.059   3.565   1.048 -0.5102  0.2254  0.1942
  614MOL0     O82758   3.003   3.620   1.168  0.2525 -0.0812 -0.8542
  614MOL0     C82759   3.089   3.682   1.251  0.3545  0.9151 -0.3094
  614MOL0     C82760   3.145   3.610   1.362  0.0482 -1.5964 -0.3056
  614MOL0     C82761   3.237   3.681   1.446  0.5939  0.6828  0.2358
  614MOL0     C82762   3.288   3.807   1.412  0.4444 -0.4593  0.7147
  614MOL0     O82763   3.404   3.852   1.466 -0.0825  0.2669  0.5800
  614MOL0     C82764   3.442   3.820   1.596 -0.1040 -0.3740 -0.2453
  614MOL0     C82765   3.561   3.901   1.646  0.0050 -0.2401 -0.6365
  614MOL0     C82766   3.680   3.910   1.551 -0.5139  0.6765  0.2952
  614MOL0     C82767   3.772   4.021   1.602  0.1634  0.4304  0.0634
  614MOL0     C82768   3.899   4.003   1.517  0.2321  0.1255 -0.3963
  614MOL0     C82769   3.874   4.024   1.367 -0.0433 -0.5771 -0.6021
  614MOL0     C82770   3.857   3.896   1.287  0.3346 -0.5768 -0.5297
  614MOL0     C82771   3.757   3.914   1.170 -0.4970 -0.3513  0.3784
  614MOL0     N82772   3.743   3.794   1.090 -0.1619  0.3545 -0.1902
  614MOL0     C82773   3.638   3.710   1.104  0.4020 -0.3698 -0.4023
  614MOL0     C82774   3.675   3.612   1.024 -0.9812 -0.2660  0.2749
  614MOL0     C82775   3.605   3.481   1.008  0.6643  0.8058  0.2742
  614MOL0     C82776   3.496   3.470   0.891 -0.0026  0.3819  0.0141
  614MOL0     C82777   3.444   3.326   0.876 -0.8954  1.0017 -0.8076
  614MOL0     C82778   3.391   3.280   0.755 -0.3913  0.0596  0.6211
  614MOL0     O82779   3.352   3.139   0.758  0.3452  0.0655  0.9751
  614MOL0     C82780   3.227   3.098   0.795  0.3352  0.1103 -0.1704
  614MOL0     C82781   3.210   2.960   0.806  0.2810  0.0993  0.1519
  614MOL0     C82782   3.083   2.907   0.828  0.2746  0.4871 -0.0095
  614MOL0     C82783   2.978   3.004   0.849 -0.4739  0.7920  0.3032
  614MOL0     C82784   2.847   2.950   0.896 -0.7381 -0.2431 -0.8088
  614MOL0     O82785   2.729   3.017   0.863 -0.9937  0.5966 -0.2518
  614MOL0     C82786   2.612   2.962   0.908 -0.1291 -1.0177  0.8825
  614MOL0     C82787   2.537   2.864   0.839  0.1904  0.6526 -0.6647
  614MOL0     C82788   2.418   2.813   0.899 -0.7619 -1.4140 -0.6484
  614MOL0     C82789   2.368   2.872   1.017 -0.3134 -0.3404 -0.6788
  614MOL0     O82790   2.246   2.841   1.070  0.3083  1.2081  0.6650
  614MOL0     C82791   2.208   2.694   1.074  0.6489  0.0656  0.6319
  614MOL0     C82792   2.059   2.677   1.107  0.1084  0.4981  0.8938
  614MOL0     C82793   1.961   2.768   1.036  0.5862  0.6250 -0.6900
  614MOL0     C82794   1.819   2.755   1.080  0.0453  0.2193  0.0050
  614MOL0     C82795   1.719   2.803   0.976 -0.5832 -0.5306 -0.1529
  614MOL0     C82796   1.696   2.949   0.980 -1.2394  0.0263 -0.2948
  614MOL0     C82797   1.596   2.989   0.878  0.0969 -0.0789 -0.5785
  614MOL0     C82798   1.449   3.025   0.934 -0.2029  0.5081  0.4418
  614MOL0    Cl82799   1.357   3.038   0.781  0.1941 -0.3412  0.1588
  614MOL0     C82800   2.436   2.974   1.081 -0.1146 -0.2810  0.3111
  614MOL0     C82801   2.545   3.024   1.022 -0.1996  0.1530  0.1093
  614MOL0     O82802   2.862   2.846   0.963 -0.5129  0.0631 -0.9448
  614MOL0     C82803   2.994   3.133   0.840 -0.4521 -0.0721  0.8180
  614MOL0     C82804   3.118   3.182   0.809 -0.3970 -1.4291 -0.1887
  614MOL0     N82805   3.781   3.655   0.945  0.2434  0.2699  0.8833
  614MOL0     N82806   3.826   3.761   0.988 -0.0780 -0.4580 -0.0815
  614MOL0     C82807   3.228   3.872   1.300  0.0032  0.0496 -0.3702
  614MOL0     C82808   3.122   3.813   1.229 -0.1788  0.0136  0.3789
  614MOL0     C82809   2.956   3.523   0.947 -0.7517 -0.4478  0.3071
  614MOL0     C82810   2.838   3.471   1.001 -0.8281  0.2885 -0.6051
  614MOL0     C82811   2.734   3.419   0.920  0.5444 -0.2207  0.5299
  614MOL0     C82812   2.750   3.425   0.778  0.2821 -0.4904 -0.9362
  614MOL0     O82813   2.656   3.354   0.710 -0.2813 -0.2483 -0.3290
  614MOL0     C82814   2.684   3.329   0.565  1.0620  1.3195  0.9603
  614MOL0     C82815   2.602   3.215   0.498  0.6669  0.0319 -0.5553
  614MOL0     C82816   2.450   3.247   0.501 -0.3621 -0.4205  0.0778
  614MOL0     C82817   2.367   3.141   0.413 -0.6807  0.5238 -0.5296
  614MOL0     C82818   2.379   3.012   0.464 -0.7071  0.3817 -0.2468
  614MOL0     C82819   2.401   2.890   0.498  0.1688 -0.0759 -0.2438
  614MOL0     C82820   2.864   3.480   0.723 -1.4905 -0.7360 -0.6220
  614MOL0     C82821   2.969   3.523   0.806 -1.2233  0.1380 -0.2721
  614MOL0     C82822   3.084   3.585   0.728  0.7481  0.0928 -0.1324
  614MOL0     H82823   3.103   3.512   1.384 -3.2616 -0.7933 -2.4164
  614MOL0     H82824   3.265   3.616   1.528 -1.5596  0.9692  1.2430
  614MOL0     H82825   3.360   3.834   1.667  0.8674  1.1251  0.6240
  614MOL0     H82826   3.481   3.717   1.592 -2.6302 -1.4811  1.1875
  614MOL0     H82827   3.592   3.864   1.744 -0.5179  1.3744  0.1679
  614MOL0     H82828   3.521   4.002   1.661 -0.2643 -0.3034 -0.9078
  614MOL0     H82829   3.633   3.936   1.456 -0.6150  0.6299  0.3324
  614MOL0     H82830   3.729   3.813   1.538 -4.4673 -1.7267  1.4313
  614MOL0     H82831   3.730   4.121   1.590 -2.9071 -0.3190  2.9230
  614MOL0     H82832   3.802   4.008   1.706  0.9794 -0.3225 -0.2504
  614MOL0     H82833   3.982   4.068   1.548 -0.2683  0.3528  0.5080
  614MOL0     H82834   3.933   3.900   1.534  1.8069  0.9569  2.1217
  614MOL0     H82835   3.783   4.084   1.357  0.3480  0.1545  0.1582
  614MOL0     H82836   3.953   4.082   1.319 -1.8377  1.0579 -1.7444
  614MOL0     H82837   3.822   3.814   1.350  4.0960 -0.6741  1.7111
  614MOL0     H82838   3.957   3.873   1.248  1.5200  0.5321  1.6789
  614MOL0     H82839   3.659   3.952   1.199 -0.9176  1.4375 -2.9400
  614MOL0     H82840   3.785   4.000   1.108 -0.8315  0.1311  0.8882
  614MOL0     H82841   3.565   3.720   1.184  1.8400  0.0364  0.9025
  614MOL0     H82842   3.687   3.410   0.996  2.2236  2.3036  1.4400
  614MOL0     H82843   3.550   3.457   1.099 -0.3749  1.1527 -0.2481
  614MOL0     H82844   3.418   3.546   0.904 -0.9499 -0.5744 -0.0078
  614MOL0     H82845   3.546   3.492   0.796 -4.0264  0.3779 -2.3137
  614MOL0     H82846   3.364   3.321   0.950 -0.5827  1.1327 -0.4527
  614MOL0     H82847   3.528   3.261   0.903 -0.4254  2.0262  0.3074
  614MOL0     H82848   3.470   3.303   0.683 -0.3794  0.7197  0.8414
  614MOL0     H82849   3.313   3.349   0.723  1.1128  1.9409  0.8050
  614MOL0     H82850   3.287   2.887   0.783  0.9184  0.8759 -0.2264
  614MOL0     H82851   3.083   2.799   0.831  0.8719  0.4928  0.2570
  614MOL0     H82852   2.574   2.823   0.745  0.3196  0.9933 -0.7669
  614MOL0     H82853   2.373   2.734   0.839  0.7254 -0.8408 -2.6176
  614MOL0     H82854   2.230   2.654   0.974 -1.2950  0.6294 -0.0630
  614MOL0     H82855   2.263   2.632   1.145  2.1457 -0.5152 -0.9458
  614MOL0     H82856   2.034   2.572   1.087  0.4949  0.7195 -0.9823
  614MOL0     H82857   2.049   2.683   1.216 -0.8306 -0.0214  0.8528
  614MOL0     H82858   1.989   2.870   1.065 -0.5745  0.0457  3.0124
  614MOL0     H82859   1.967   2.737   0.931  0.4459 -1.2950 -0.1673
  614MOL0     H82860   1.810   2.810   1.174 -1.1780  1.0862 -0.5828
  614MOL0     H82861   1.796   2.650   1.095 -1.1723  0.2505 -1.4192
  614MOL0     H82862   1.625   2.749   0.993  0.0357 -1.4887  0.3006
  614MOL0     H82863   1.749   2.765   0.879 -1.0934 -1.2113 -0.0542
  614MOL0     H82864   1.660   2.977   1.080 -0.4759 -1.2406  0.3514
  614MOL0     H82865   1.786   3.007   0.959 -1.5662  1.5286  2.0008
  614MOL0     H82866   1.580   2.919   0.795 -3.0675 -1.0904  0.7329
  614MOL0     H82867   1.641   3.079   0.835  0.5872  0.1394  0.3832
  614MOL0     H82868   1.404   2.946   0.994  0.5330 -0.0874  0.2313
  614MOL0     H82869   1.445   3.119   0.990 -1.9264  0.2831  0.7335
  614MOL0     H82870   2.398   3.016   1.173  0.7554  1.0383  0.0934
  614MOL0     H82871   2.597   3.099   1.081  2.0538 -0.9276 -0.3752
  614MOL0     H82872   2.918   3.206   0.864  0.2797  0.2938  2.1089
  614MOL0     H82873   3.134   3.289   0.797 -2.4069 -0.9782  0.8309
  614MOL0     H82874   3.268   3.970   1.274  0.8899  0.5218  2.4264
  614MOL0     H82875   3.061   3.868   1.159 -0.3570  1.4640  1.6271
  614MOL0     H82876   2.820   3.467   1.108 -1.1445  2.8162 -0.4994
  614MOL0     H82877   2.651   3.363   0.961  1.0089 -0.1094  1.6522
  614MOL0     H82878   2.789   3.309   0.542  0.8277 -1.0307  1.6617
  614MOL0     H82879   2.655   3.420   0.511 -2.3841 -1.0008 -1.5604
  614MOL0     H82880   2.621   3.116   0.541  2.8741  1.3881  1.9686
  614MOL0     H82881   2.639   3.217   0.395 -0.3925  0.0144 -0.9513
  614MOL0     H82882   2.427   3.347   0.464 -0.0107 -0.9575 -1.6948
  614MOL0     H82883   2.433   3.244   0.609  0.7692  1.8125  0.3778
  614MOL0     H82884   2.260   3.163   0.405 -0.5407  1.7899  0.6506
  614MOL0     H82885   2.410   3.141   0.312 -1.1398 -2.4181 -0.8056
  614MOL0     H82886   2.430   2.796   0.540 -0.1219  1.2457  3.1907
  614MOL0     H82887   2.875   3.497   0.616 -0.4272  4.2884  0.0446
  614MOL0     H82888   3.094   3.550   0.625  0.6542 -1.5074  0.3785
  614MOL0     H82889   3.081   3.695   0.729  0.8686  0.0952  1.0444
  614MOL0     H82890   3.175   3.556   0.782  1.1647  2.9934  0.9535
  615MOL0     O82891  11.126   5.669  10.244 -0.0852  0.0815 -0.0531
  615MOL0     C82892  11.167   5.659  10.363 -0.6688  0.0805  0.7464
  615MOL0     O82893  11.295   5.687  10.400 -0.3603  0.0650  0.2120
  615MOL0     C82894  11.362   5.770  10.313 -0.6917  0.4044 -0.2041
  615MOL0     C82895  11.415   5.721  10.184  0.4764 -0.4054  0.4924
  615MOL0     C82896  11.488   5.815  10.105  0.4163  0.6195  0.4095
  615MOL0     C82897  11.500   5.951  10.143  0.4581  0.3864 -0.1895
  615MOL0     O82898  11.569   6.044  10.061  0.3683  0.6973 -0.2294
  615MOL0     C82899  11.568   6.181  10.089 -0.1837  0.7437  0.5134
  615MOL0     C82900  11.644   6.253   9.979 -0.6882 -0.4120  0.5292
  615MOL0     C82901  11.758   6.341  10.043  0.0391 -0.4823  0.8491
  615MOL0     C82902  11.850   6.380   9.924  0.4617  0.4441 -0.9427
  615MOL0     C82903  11.974   6.292   9.908  0.6650  0.0283  0.3662
  615MOL0     C82904  12.057   6.339   9.782  0.3368 -0.3612  1.0454
  615MOL0     C82905  12.175   6.251   9.764 -0.2819 -0.5767  0.2453
  615MOL0     C82906  12.145   6.129   9.678 -0.1392 -0.8944  0.6599
  615MOL0     N82907  12.185   6.134   9.534 -0.3624  0.6313 -0.3709
  615MOL0     C82908  12.099   6.164   9.436 -0.8833 -0.5292  0.3400
  615MOL0     C82909  12.163   6.135   9.314  0.8119 -0.2469  0.7003
  615MOL0     C82910  12.110   6.166   9.169 -0.7021 -0.7387 -0.8077
  615MOL0     C82911  12.127   6.041   9.081 -0.3994  0.5466 -0.6545
  615MOL0     C82912  12.253   6.050   8.983 -0.7571 -0.3247 -1.0178
  615MOL0     C82913  12.388   6.028   9.054 -0.1087  0.7758 -0.8263
  615MOL0     O82914  12.495   6.009   8.963  0.1787  0.2862  0.2129
  615MOL0     C82915  12.619   5.990   9.011 -0.1557  0.5188 -0.1953
  615MOL0     C82916  12.663   6.032   9.137 -0.0796 -0.0900 -0.6118
  615MOL0     C82917  12.790   6.001   9.189 -0.2955  0.3083 -0.5322
  615MOL0     C82918  12.884   5.935   9.111  0.4029 -0.8388 -0.1821
  615MOL0     C82919  13.014   5.905   9.167  0.4125  0.2543  0.7591
  615MOL0     O82920  13.023   5.938   9.292 -0.7350 -0.5534 -0.7313
  615MOL0     C82921  13.132   5.911   9.367 -0.0142  0.0554  0.9137
  615MOL0     C82922  13.103   5.876   9.502 -0.2654  0.8281 -0.4536
  615MOL0     C82923  13.200   5.840   9.592  0.7284 -0.3226 -0.2040
  615MOL0     C82924  13.337   5.837   9.544  0.5593  0.9650  0.5358
  615MOL0     O82925  13.433   5.797   9.634 -0.6728 -0.7204 -0.8503
  615MOL0     C82926  13.576   5.812   9.612  0.2684  0.6905  0.1580
  615MOL0     C82927  13.658   5.732   9.713 -0.2897  0.1327  0.0783
  615MOL0     C82928  13.612   5.767   9.862  0.2775  0.6434 -0.0343
  615MOL0     C82929  13.640   5.915   9.899  0.4801  0.1757  0.4974
  615MOL0     C82930  13.534   5.966   9.996 -0.0608 -0.8719 -0.4906
  615MOL0     C82931  13.578   6.099  10.047 -0.5492 -0.2813 -0.6122
  615MOL0     C82932  13.562   6.215   9.938 -0.5986  1.3898  0.2591
  615MOL0     C82933  13.644   6.341   9.947  0.5664  0.1397 -0.2485
  615MOL0    Cl82934  13.816   6.289   9.931  0.3658 -0.0617  0.0528
  615MOL0     C82935  13.368   5.867   9.413 -0.4795  0.3494 -0.6495
  615MOL0     C82936  13.271   5.900   9.322  0.3638 -0.0475  1.3463
  615MOL0     O82937  13.084   5.819   9.110 -0.3219 -0.3986  0.2403
  615MOL0     C82938  12.848   5.909   8.970  0.0546  0.7343 -0.2469
  615MOL0     C82939  12.721   5.933   8.923 -0.1118  0.2909 -0.0646
  615MOL0     N82940  12.284   6.078   9.341 -1.0885 -0.9960  0.1040
  615MOL0     N82941  12.304   6.095   9.473  0.4942 -0.1816  0.8035
  615MOL0     C82942  11.435   6.002  10.260  0.6619 -0.0024  0.6576
  615MOL0     C82943  11.371   5.906  10.345  0.4166  0.5637 -0.5359
  615MOL0     C82944  11.075   5.603  10.461 -0.2761 -0.9749  0.5363
  615MOL0     C82945  10.943   5.593  10.426 -0.7356  0.6592  1.0849
  615MOL0     C82946  10.849   5.548  10.512  0.3748  0.2957  0.1043
  615MOL0     C82947  10.876   5.521  10.646  0.0810 -0.6634 -0.3233
  615MOL0     O82948  10.790   5.458  10.735  0.2353  0.3678  0.0885
  615MOL0     C82949  10.653   5.436  10.694 -0.2573  0.1670 -1.2748
  615MOL0     C82950  10.588   5.369  10.814  0.1200 -0.1089 -0.7841
  615MOL0     C82951  10.551   5.479  10.924  0.5886 -0.0234 -0.0701
  615MOL0     C82952  10.488   5.442  11.048 -0.0383 -0.5476 -0.2203
  615MOL0     C82953  10.348   5.403  11.035 -0.6167 -0.4256 -0.0222
  615MOL0     C82954  10.241   5.374  11.011 -0.2858 -0.1330  1.4029
  615MOL0     C82955  11.003   5.546  10.684 -0.3796 -0.7056 -0.4583
  615MOL0     C82956  11.108   5.574  10.601 -0.2376  0.5934  0.5249
  615MOL0     C82957  11.243   5.567  10.667 -0.2808  0.3314 -0.4620
  615MOL0     H82958  11.411   5.620  10.145 -3.9504  0.1482 -1.1302
  615MOL0     H82959  11.546   5.779  10.020  2.3412  0.2187  1.8272
  615MOL0     H82960  11.471   6.226  10.113 -0.9904 -0.3120 -0.6564
  615MOL0     H82961  11.634   6.181  10.177  1.5366 -1.3550 -0.6860
  615MOL0     H82962  11.578   6.327   9.931  0.5421 -0.7567 -1.8207
  615MOL0     H82963  11.689   6.185   9.906 -0.9091  1.4480 -1.4400
  615MOL0     H82964  11.811   6.295  10.126  1.3387  1.4050  1.1183
  615MOL0     H82965  11.709   6.430  10.085  0.9889 -0.3591  1.7123
  615MOL0     H82966  11.789   6.365   9.834 -1.5140  0.4774  0.3279
  615MOL0     H82967  11.880   6.485   9.922  0.0162  0.6009  0.1961
  615MOL0     H82968  12.033   6.300   9.999  1.5595 -0.8241 -0.1088
  615MOL0     H82969  11.958   6.184   9.907  1.3114 -0.1078  2.0738
  615MOL0     H82970  11.989   6.336   9.696  2.0943  1.0319 -0.5113
  615MOL0     H82971  12.088   6.444   9.777  2.8173 -0.9966 -4.9289
  615MOL0     H82972  12.214   6.211   9.858 -1.3288 -0.1227  0.8912
  615MOL0     H82973  12.258   6.315   9.732 -1.9070  2.0538  1.0182
  615MOL0     H82974  12.204   6.049   9.724  0.4717 -0.0903  1.2989
  615MOL0     H82975  12.037   6.109   9.683 -0.2197 -0.3960  0.9683
  615MOL0     H82976  12.004   6.212   9.460  0.1684  0.8089  2.1540
  615MOL0     H82977  12.005   6.196   9.173 -0.1366  1.3513 -0.5507
  615MOL0     H82978  12.157   6.258   9.132  0.5160  1.5604  5.3839
  615MOL0     H82979  12.130   5.954   9.147  0.7874 -0.1078 -1.5289
  615MOL0     H82980  12.041   6.031   9.014 -1.5058 -1.0619  0.9199
  615MOL0     H82981  12.252   6.151   8.940 -0.4318  0.2130  0.1790
  615MOL0     H82982  12.243   5.979   8.900 -1.5706  0.1888 -1.3812
  615MOL0     H82983  12.390   5.937   9.114  0.5489 -0.8959 -3.2371
  615MOL0     H82984  12.398   6.120   9.113  0.2973 -0.6374  1.4573
  615MOL0     H82985  12.588   6.092   9.187 -0.7323 -1.7051  0.4230
  615MOL0     H82986  12.814   6.042   9.287  1.9505  1.2754 -1.4120
  615MOL0     H82987  12.997   5.871   9.528 -0.8477 -3.5245 -2.7501
  615MOL0     H82988  13.168   5.830   9.695 -0.8034 -0.7619 -0.6822
  615MOL0     H82989  13.599   5.754   9.521  0.0308 -0.8838  1.0670
  615MOL0     H82990  13.605   5.916   9.595  1.2753  0.2672 -0.9367
  615MOL0     H82991  13.645   5.629   9.678  4.2101 -0.3780 -0.6771
  615MOL0     H82992  13.763   5.763   9.707  0.2461 -1.0135  2.2954
  615MOL0     H82993  13.505   5.744   9.871  0.2464  1.1145  1.0135
  615MOL0     H82994  13.662   5.706   9.938  2.1637 -0.4670 -2.0535
  615MOL0     H82995  13.628   5.985   9.816 -2.3022 -0.2694  0.4023
  615MOL0     H82996  13.743   5.914   9.934  0.9608  0.7504 -0.8507
  615MOL0     H82997  13.510   5.902  10.081 -0.8526 -0.9422 -0.7607
  615MOL0     H82998  13.438   5.986   9.946  1.0645 -0.3243 -2.5668
  615MOL0     H82999  13.524   6.125  10.138  2.7885 -1.8584  2.0740
  615MOL0     H83000  13.684   6.089  10.076 -0.5316  2.5605  0.5737
  615MOL0     H83001  13.456   6.243   9.939 -0.9489  0.1832  2.7680
  615MOL0     H83002  13.581   6.173   9.839  0.1519 -0.6933  1.2351
  615MOL0     H83003  13.618   6.425   9.882  0.0260  0.8880  0.8853
  615MOL0     H83004  13.629   6.368  10.052  0.5588 -1.3434  0.1507
  615MOL0     H83005  13.471   5.866   9.379  0.6180 -0.0577  2.4078
  615MOL0     H83006  13.307   5.928   9.223 -1.4805 -0.0184  0.6420
  615MOL0     H83007  12.921   5.872   8.898 -3.0116 -1.7302 -2.3840
  615MOL0     H83008  12.700   5.900   8.822  0.2990 -1.0672  0.2692
  615MOL0     H83009  11.421   6.107  10.280 -0.4685  0.2775 -1.3568
  615MOL0     H83010  11.323   5.940  10.436  3.2882  1.7394  0.6836
  615MOL0     H83011  10.918   5.621  10.325  1.7736 -1.2042 -0.1628
  615MOL0     H83012  10.747   5.530  10.478  0.3743 -1.4085  0.9361
  615MOL0     H83013  10.642   5.359  10.617 -0.1892 -0.4767 -0.6455
  615MOL0     H83014  10.609   5.529  10.656 -2.9974 -0.2567  0.5653
  615MOL0     H83015  10.654   5.295  10.858 -1.3311 -1.5231 -0.8983
  615MOL0     H83016  10.502   5.316  10.773  0.0513  0.1168 -0.9339
  615MOL0     H83017  10.485   5.558  10.887 -0.1430 -0.5351  0.1426
  615MOL0     H83018  10.646   5.529  10.949  0.9806 -0.7153 -0.1665
  615MOL0     H83019  10.543   5.367  11.105 -1.6745  0.0215  2.2986
  615MOL0     H83020  10.495   5.531  11.113  0.7791  1.2328 -2.6023
  615MOL0     H83021  10.144   5.345  10.975  0.4330 -0.7974 -0.0865
  615MOL0     H83022  11.023   5.534  10.790  1.6802  2.8403 -0.2848
  615MOL0     H83023  11.236   5.517  10.764  0.8552  0.2668 -0.4019
  615MOL0     H83024  11.320   5.521  10.604  1.7492  1.7557  0.8513
  615MOL0     H83025  11.288   5.664  10.690  2.1387 -1.1228  1.4591
  616MOL0     O83026   6.450   4.979   4.170  0.4231  0.3217 -0.4501
  616MOL0     C83027   6.464   4.953   4.048  1.1332  0.1832 -0.9314
  616MOL0     O83028   6.587   4.917   3.980 -0.7652  0.1871 -0.3441
  616MOL0     C83029   6.711   4.945   4.040  0.9474  0.3412  0.3333
  616MOL0     C83030   6.735   4.893   4.164 -0.5909 -0.3311  0.2980
  616MOL0     C83031   6.854   4.935   4.237  1.4234  0.9026 -0.7220
  616MOL0     C83032   6.930   5.044   4.189 -1.1651 -0.1308  0.3715
  616MOL0     O83033   7.053   5.095   4.234 -0.5284  0.2496 -0.6141
  616MOL0     C83034   7.078   5.091   4.382 -0.4528 -0.2163  0.6289
  616MOL0     C83035   7.182   5.201   4.409  0.5008  0.2915  0.0393
  616MOL0     C83036   7.118   5.337   4.379 -0.0548  1.0298  0.4855
  616MOL0     C83037   7.221   5.444   4.380 -0.8182 -0.8102 -0.0579
  616MOL0     C83038   7.178   5.577   4.319  0.6836  0.2112  0.1121
  616MOL0     C83039   7.301   5.672   4.295 -0.5104 -0.0550  0.4073
  616MOL0     C83040   7.284   5.780   4.188  0.4720 -0.7680  0.7133
  616MOL0     C83041   7.215   5.909   4.247  0.0367  0.8814 -0.5296
  616MOL0     N83042   7.057   5.900   4.230  0.4587 -0.2807 -1.2215
  616MOL0     C83043   6.992   5.964   4.125 -0.1141 -0.4560  1.1640
  616MOL0     C83044   6.866   5.930   4.145  0.6543  0.6961 -0.6605
  616MOL0     C83045   6.748   5.967   4.058 -0.1441 -0.2799  0.0480
  616MOL0     C83046   6.709   6.120   4.070  0.0342  0.8046  0.1417
  616MOL0     C83047   6.575   6.159   4.010  0.3532  0.0063  0.1488
  616MOL0     C83048   6.567   6.154   3.855 -0.2429 -0.0585 -0.4655
  616MOL0     O83049   6.689   6.209   3.795  0.9131  0.5785  0.2613
  616MOL0     C83050   6.748   6.134   3.695 -0.6603 -0.6529 -0.3499
  616MOL0     C83051   6.886   6.141   3.679  0.1240  0.3033  0.1543
  616MOL0     C83052   6.949   6.083   3.571 -0.6337 -0.2054 -0.4124
  616MOL0     C83053   6.879   6.014   3.477  0.0002 -0.3663  0.0475
  616MOL0     C83054   6.959   5.939   3.376 -0.7630  0.2293 -0.7863
  616MOL0     O83055   7.090   5.952   3.380 -0.4828 -0.4139 -0.4452
  616MOL0     C83056   7.198   5.896   3.302  0.5151 -0.4738  0.5012
  616MOL0     C83057   7.186   5.822   3.184  0.3174 -0.2049 -1.0176
  616MOL0     C83058   7.293   5.760   3.120  0.0943  0.2833  0.3463
  616MOL0     C83059   7.419   5.782   3.165  0.4284 -1.3807 -0.4217
  616MOL0     O83060   7.529   5.740   3.090 -0.2099 -0.3524  0.2656
  616MOL0     C83061   7.610   5.847   3.046 -0.2949  0.8615  0.3257
  616MOL0     C83062   7.756   5.774   3.033 -0.0386 -0.9607 -0.6442
  616MOL0     C83063   7.767   5.668   2.913  0.7409 -0.2942 -0.6476
  616MOL0     C83064   7.905   5.600   2.930  0.4668 -1.2307 -0.9540
  616MOL0     C83065   7.938   5.516   2.801 -0.2207  0.5971  0.3488
  616MOL0     C83066   8.075   5.447   2.804 -0.6646 -0.3689 -0.1750
  616MOL0     C83067   8.178   5.559   2.806 -0.0867 -0.0396  0.3952
  616MOL0     C83068   8.318   5.506   2.819 -0.0321 -0.0764 -0.8888
  616MOL0    Cl83069   8.368   5.391   2.694  0.2008 -0.3934  0.2574
  616MOL0     C83070   7.437   5.865   3.283 -0.4400  0.7127  0.0906
  616MOL0     C83071   7.326   5.922   3.351 -0.0250  0.4043  0.8833
  616MOL0     O83072   6.896   5.882   3.291 -0.4628 -0.0291 -0.6723
  616MOL0     C83073   6.735   6.008   3.480 -0.1852 -0.7852 -1.1600
  616MOL0     C83074   6.675   6.069   3.590  0.0481  0.1687  0.2902
  616MOL0     N83075   6.855   5.842   4.260  0.9496 -0.3572 -0.8333
  616MOL0     N83076   6.972   5.825   4.303 -0.2258  0.7917 -0.9418
  616MOL0     C83077   6.885   5.108   4.080 -0.2973  0.1992  0.7083
  616MOL0     C83078   6.783   5.058   4.002  0.0223  0.4136  0.2760
  616MOL0     C83079   6.344   4.936   3.955 -0.4509 -0.0652 -0.2449
  616MOL0     C83080   6.362   4.855   3.842  0.2554  0.1879  0.4414
  616MOL0     C83081   6.256   4.852   3.753 -0.6196  0.4014 -0.1971
  616MOL0     C83082   6.137   4.914   3.762  0.0825 -0.2128 -0.0135
  616MOL0     O83083   6.054   4.938   3.657 -0.1404 -0.0855  0.0144
  616MOL0     C83084   5.939   4.856   3.639  0.8243  0.6185 -0.9330
  616MOL0     C83085   5.830   4.895   3.737 -0.7986  0.1095  0.3269
  616MOL0     C83086   5.688   4.855   3.685  0.2762  0.4838  0.0939
  616MOL0     C83087   5.657   4.699   3.657  0.0558  0.1554  0.3534
  616MOL0     C83088   5.532   4.661   3.590 -0.5453  0.0416 -0.3564
  616MOL0     C83089   5.428   4.608   3.545 -0.3988  0.1933 -0.0733
  616MOL0     C83090   6.131   5.000   3.872  0.1418  0.4605  0.4106
  616MOL0     C83091   6.225   5.006   3.974 -0.5364  0.1764  0.0998
  616MOL0     C83092   6.194   5.087   4.098  0.6451  0.6573 -0.0442
  616MOL0     H83093   6.672   4.823   4.217  1.9383 -2.6945  0.4042
  616MOL0     H83094   6.879   4.892   4.333 -1.1045  1.3281  0.2071
  616MOL0     H83095   7.001   5.090   4.460  1.6724 -1.1889  2.8515
  616MOL0     H83096   7.129   4.994   4.383 -1.4242 -0.9119 -3.0698
  616MOL0     H83097   7.274   5.170   4.360 -0.9852  0.0510 -2.7990
  616MOL0     H83098   7.204   5.201   4.516 -0.1779 -0.1499  0.1883
  616MOL0     H83099   7.043   5.363   4.455 -3.9391 -0.2821 -2.5315
  616MOL0     H83100   7.069   5.337   4.281  2.1428 -0.1381 -0.6706
  616MOL0     H83101   7.261   5.469   4.479  1.2163  0.7566 -1.1827
  616MOL0     H83102   7.309   5.415   4.322  0.7957  2.4989  0.4481
  616MOL0     H83103   7.123   5.569   4.224 -0.4942  1.5009  0.6578
  616MOL0     H83104   7.112   5.625   4.391  1.0256  2.5494 -1.0244
  616MOL0     H83105   7.343   5.709   4.389 -0.7562 -0.3837  0.6484
  616MOL0     H83106   7.376   5.599   4.262  1.2389  1.5865  0.5747
  616MOL0     H83107   7.230   5.749   4.097 -0.4163 -1.7531  1.5456
  616MOL0     H83108   7.379   5.818   4.150  1.0189 -0.0830  2.6643
  616MOL0     H83109   7.241   5.921   4.352  1.8113 -1.8057 -0.5600
  616MOL0     H83110   7.251   5.997   4.193 -2.7806  2.5232  0.0823
  616MOL0     H83111   7.031   6.023   4.043  0.0789 -1.2660  0.6648
  616MOL0     H83112   6.776   5.949   3.954  1.5487  1.2871  0.1782
  616MOL0     H83113   6.662   5.905   4.082 -0.4612 -0.8241 -2.2691
  616MOL0     H83114   6.700   6.139   4.178 -1.3143 -0.8890  0.3650
  616MOL0     H83115   6.788   6.191   4.044 -1.1595  2.4407  0.8624
  616MOL0     H83116   6.553   6.264   4.029 -1.5214 -0.4486  0.7434
  616MOL0     H83117   6.503   6.094   4.062  1.6141  1.2581  3.7347
  616MOL0     H83118   6.486   6.215   3.813  0.2250  0.1154 -1.1297
  616MOL0     H83119   6.552   6.051   3.824  0.8645 -0.1083 -0.8844
  616MOL0     H83120   6.931   6.199   3.759 -2.5251  0.9239  1.2750
  616MOL0     H83121   7.057   6.079   3.583 -0.9347 -1.9195  2.9916
  616MOL0     H83122   7.082   5.800   3.162 -0.0542 -2.7684  2.4684
  616MOL0     H83123   7.278   5.693   3.036  2.1926  1.2925 -0.9205
  616MOL0     H83124   7.582   5.871   2.943  0.2532 -3.7930 -1.1735
  616MOL0     H83125   7.617   5.934   3.111 -0.2516  1.6740 -0.7437
  616MOL0     H83126   7.837   5.846   3.017 -2.5507  1.9520 -1.2018
  616MOL0     H83127   7.781   5.726   3.127 -1.1232 -0.4046 -0.0525
  616MOL0     H83128   7.686   5.596   2.926  1.0803 -0.7286 -0.9155
  616MOL0     H83129   7.762   5.723   2.819 -1.6541  0.9067  0.0876
  616MOL0     H83130   7.910   5.547   3.026  1.1534  1.3855  0.5620
  616MOL0     H83131   7.975   5.682   2.949  3.8044 -3.3412 -3.1256
  616MOL0     H83132   7.947   5.580   2.713 -1.5218  0.4051  0.0641
  616MOL0     H83133   7.860   5.444   2.776  0.4003  0.1268 -0.2631
  616MOL0     H83134   8.095   5.380   2.888  3.3921  1.0018  0.1633
  616MOL0     H83135   8.096   5.383   2.718  0.3148  0.7906 -0.8203
  616MOL0     H83136   8.153   5.637   2.879 -0.7881  1.2684 -1.1943
  616MOL0     H83137   8.167   5.611   2.711 -0.7691 -1.7772 -0.5234
  616MOL0     H83138   8.390   5.588   2.815 -1.2810  1.2743  1.5658
  616MOL0     H83139   8.329   5.464   2.920  0.0278  1.8435 -0.0403
  616MOL0     H83140   7.535   5.874   3.328 -0.4515 -1.8311  0.8117
  616MOL0     H83141   7.336   5.994   3.432 -1.5584 -0.0860  1.5275
  616MOL0     H83142   6.673   5.950   3.412  2.8815 -6.3563  0.1770
  616MOL0     H83143   6.567   6.071   3.598 -0.0480  0.6417 -0.9592
  616MOL0     H83144   6.946   5.187   4.038 -2.3767  0.6852 -1.6435
  616MOL0     H83145   6.759   5.096   3.903  3.3870 -1.6140 -1.5139
  616MOL0     H83146   6.452   4.810   3.801  2.4881  1.8719  3.0953
  616MOL0     H83147   6.278   4.799   3.661 -1.6032  0.7927 -0.6681
  616MOL0     H83148   5.962   4.749   3.643  1.5968  0.7868 -0.8583
  616MOL0     H83149   5.907   4.875   3.536  0.1430  3.4242 -0.2818
  616MOL0     H83150   5.822   5.002   3.755  1.7673  0.1069  1.8229
  616MOL0     H83151   5.852   4.840   3.829 -0.2730 -3.1120 -1.5735
  616MOL0     H83152   5.676   4.911   3.591  2.7438  0.9503 -0.0011
  616MOL0     H83153   5.598   4.888   3.738 -1.2784 -2.0677 -0.7263
  616MOL0     H83154   5.740   4.665   3.594  1.7008 -0.2433  2.6061
  616MOL0     H83155   5.665   4.649   3.754 -2.2209  2.3715  1.7986
  616MOL0     H83156   5.340   4.564   3.504  0.6670  0.4446 -2.8539
  616MOL0     H83157   6.036   5.053   3.873  0.9870  2.6158 -4.5481
  616MOL0     H83158   6.189   5.017   4.181 -2.2678 -0.2944 -0.8893
  616MOL0     H83159   6.263   5.171   4.105  0.1800  1.2087 -1.5985
  616MOL0     H83160   6.095   5.135   4.099  1.0713  1.5717 -0.8496
  617MOL0     O83161   3.612   7.896   4.753  0.0889 -0.0306 -0.5713
  617MOL0     C83162   3.688   7.918   4.845 -1.0869  0.6353  0.1949
  617MOL0     O83163   3.826   7.925   4.835 -0.4256  0.8240 -0.7324
  617MOL0     C83164   3.887   7.855   4.734 -0.0787 -0.2610 -0.7487
  617MOL0     C83165   3.923   7.722   4.754  0.4361  0.4517  0.1083
  617MOL0     C83166   3.997   7.651   4.654  0.3398 -0.4677  0.8687
  617MOL0     C83167   4.046   7.728   4.545 -0.5156 -0.0635 -0.1938
  617MOL0     O83168   4.117   7.657   4.457 -0.0210 -0.2368 -0.1001
  617MOL0     C83169   4.178   7.715   4.338  0.0732  0.1461 -0.2292
  617MOL0     C83170   4.310   7.649   4.295 -0.3306 -0.0536 -0.0074
  617MOL0     C83171   4.421   7.632   4.412  0.7670  0.7937  0.5352
  617MOL0     C83172   4.431   7.755   4.502 -0.9743  0.9260 -0.1274
  617MOL0     C83173   4.491   7.880   4.431 -0.1430  0.4088  0.2427
  617MOL0     C83174   4.477   8.013   4.513 -0.1504 -0.1083  0.4381
  617MOL0     C83175   4.330   8.062   4.480  0.2512 -0.0928 -0.6850
  617MOL0     C83176   4.308   8.201   4.543 -0.6499  0.0210  0.5616
  617MOL0     N83177   4.264   8.200   4.689  0.0235  0.8261 -0.2400
  617MOL0     C83178   4.149   8.144   4.734 -1.3160 -0.2171 -0.1874
  617MOL0     C83179   4.131   8.194   4.854 -0.4602 -0.0664 -1.2337
  617MOL0     C83180   4.003   8.194   4.935  0.0090 -0.6067 -0.8037
  617MOL0     C83181   4.017   8.164   5.088  0.2890 -0.4425  0.0365
  617MOL0     C83182   4.039   8.019   5.116 -0.0927  0.1160  0.0788
  617MOL0     C83183   4.108   8.000   5.258 -0.4434  0.1246 -0.5707
  617MOL0     O83184   4.031   8.089   5.342  0.5491 -1.0611  0.5216
  617MOL0     C83185   4.056   8.072   5.483  0.2541  0.1207  0.3811
  617MOL0     C83186   4.166   8.001   5.533  0.9687  0.0519 -0.2178
  617MOL0     C83187   4.180   7.980   5.669 -0.1396  0.2273  0.1120
  617MOL0     C83188   4.094   8.026   5.765  0.1568  0.2798 -0.3542
  617MOL0     C83189   4.108   7.997   5.904 -0.5636 -0.6164  0.2223
  617MOL0     O83190   4.021   8.054   5.991 -0.1267  0.1568 -0.3093
  617MOL0     C83191   4.036   8.042   6.125  1.0780  0.5173  0.6588
  617MOL0     C83192   3.919   8.070   6.191  0.4373  0.2930  0.1823
  617MOL0     C83193   3.914   8.054   6.327 -0.6282 -1.0835  0.6410
  617MOL0     C83194   4.027   8.025   6.403  0.4720  0.9375  0.1567
  617MOL0     O83195   4.009   8.007   6.535  0.0012  0.0735  0.2994
  617MOL0     C83196   4.103   7.940   6.619  0.4597 -0.3813  0.0397
  617MOL0     C83197   4.052   7.934   6.763  0.3760  1.0672  0.0141
  617MOL0     C83198   3.919   7.873   6.784  0.2112  0.3888 -0.5173
  617MOL0     C83199   3.909   7.835   6.927 -0.2312 -0.6169  0.9856
  617MOL0     C83200   3.763   7.793   6.964 -0.5761  0.0433  0.4145
  617MOL0     C83201   3.772   7.724   7.099 -0.5092  0.2888 -0.4801
  617MOL0     C83202   3.638   7.668   7.153  0.5426  0.7066  0.8959
  617MOL0     C83203   3.655   7.599   7.290  0.3191 -0.2194 -0.1953
  617MOL0    Cl83204   3.499   7.585   7.384 -0.1476  0.0989  0.1391
  617MOL0     C83205   4.145   8.003   6.342  0.2086 -0.6570  0.3854
  617MOL0     C83206   4.151   8.016   6.199  0.4771  0.7244  0.2783
  617MOL0     O83207   4.192   7.913   5.935 -0.5978  0.0732  0.5296
  617MOL0     C83208   3.972   8.074   5.714 -0.2183 -0.3317  0.5089
  617MOL0     C83209   3.959   8.100   5.574 -0.0149 -0.7572  0.5149
  617MOL0     N83210   4.242   8.275   4.880  0.3664 -0.1331 -0.5721
  617MOL0     N83211   4.324   8.273   4.783 -0.1068 -0.1658  0.6110
  617MOL0     C83212   3.995   7.859   4.521  0.1797  0.0578  0.0190
  617MOL0     C83213   3.911   7.921   4.615 -0.2999 -0.1753 -0.1882
  617MOL0     C83214   3.628   7.964   4.966  0.9610 -0.8215  0.5262
  617MOL0     C83215   3.643   8.100   5.002 -0.2864 -0.0675  0.3926
  617MOL0     C83216   3.615   8.152   5.126  0.2478  0.0462  1.1055
  617MOL0     C83217   3.559   8.064   5.217 -0.4885 -0.1803  0.5372
  617MOL0     O83218   3.503   8.104   5.337 -0.5064  0.2372  0.4641
  617MOL0     C83219   3.537   8.227   5.394  0.1119  0.6728  0.3835
  617MOL0     C83220   3.425   8.327   5.385 -0.6504 -1.0267 -0.0780
  617MOL0     C83221   3.461   8.453   5.459 -0.3289  1.1459  0.2495
  617MOL0     C83222   3.453   8.452   5.617  0.6713  0.6910  0.9994
  617MOL0     C83223   3.318   8.402   5.664 -1.0359 -0.2418 -0.7037
  617MOL0     C83224   3.211   8.373   5.705 -1.1762  0.3430 -1.2716
  617MOL0     C83225   3.524   7.935   5.182 -0.4544 -0.0485  1.1482
  617MOL0     C83226   3.573   7.881   5.064  0.0272  0.4561  0.6277
  617MOL0     C83227   3.557   7.730   5.040 -0.5651  0.0450 -0.0443
  617MOL0     H83228   3.890   7.671   4.844 -5.1709  0.3082 -1.6599
  617MOL0     H83229   4.022   7.546   4.670 -0.8909 -0.9750 -0.3523
  617MOL0     H83230   4.108   7.686   4.259  0.7670 -4.2511  0.5183
  617MOL0     H83231   4.192   7.823   4.349 -2.8245  0.4911  1.0089
  617MOL0     H83232   4.364   7.703   4.216  0.1471 -2.8164 -1.7006
  617MOL0     H83233   4.301   7.545   4.261  1.2594  0.0874 -0.9758
  617MOL0     H83234   4.515   7.609   4.360  0.3512  0.7485 -0.2121
  617MOL0     H83235   4.400   7.551   4.482  2.9403  2.7794  3.7813
  617MOL0     H83236   4.333   7.784   4.541 -0.3761 -0.4084  2.6382
  617MOL0     H83237   4.502   7.720   4.578  0.5383  0.4958 -1.6812
  617MOL0     H83238   4.597   7.859   4.416 -0.7200 -1.6832 -1.3468
  617MOL0     H83239   4.462   7.884   4.326  2.7778 -1.3644 -0.7538
  617MOL0     H83240   4.485   7.993   4.620 -2.7824 -2.3789  0.3246
  617MOL0     H83241   4.544   8.090   4.474  0.1793 -0.7042 -0.1775
  617MOL0     H83242   4.268   7.983   4.524  1.9564 -0.7649  0.6098
  617MOL0     H83243   4.302   8.053   4.374  0.1367 -2.8117 -0.4947
  617MOL0     H83244   4.394   8.268   4.531  0.8058 -1.7856  0.5270
  617MOL0     H83245   4.223   8.242   4.488  1.2695  1.6440 -1.3601
  617MOL0     H83246   4.077   8.082   4.682  0.1628 -0.6541 -1.8336
  617MOL0     H83247   3.963   8.296   4.926 -0.5005 -0.9022 -2.1850
  617MOL0     H83248   3.924   8.128   4.899  0.0214 -1.7818  1.2137
  617MOL0     H83249   4.097   8.229   5.122 -0.3108  0.4174 -0.1489
  617MOL0     H83250   3.922   8.193   5.136  0.6838  1.8515 -0.4451
  617MOL0     H83251   4.102   7.971   5.042  1.7268  0.7385  1.1542
  617MOL0     H83252   3.943   7.970   5.099  0.3825  0.1271 -3.1641
  617MOL0     H83253   4.215   8.024   5.257 -0.4195  0.0501 -0.1258
  617MOL0     H83254   4.088   7.896   5.286 -0.2121 -0.2082 -1.5919
  617MOL0     H83255   4.237   7.951   5.467  2.3380 -1.1010  1.9862
  617MOL0     H83256   4.275   7.937   5.700  0.2049  1.9549  1.6701
  617MOL0     H83257   3.828   8.103   6.142 -0.6509 -1.3655  0.9870
  617MOL0     H83258   3.824   8.081   6.381  0.0330  1.2405  0.6840
  617MOL0     H83259   4.116   7.838   6.582  0.7886  0.4700 -2.3484
  617MOL0     H83260   4.205   7.978   6.612  0.0260  1.0899  1.1116
  617MOL0     H83261   4.114   7.877   6.833 -0.5130  0.1304  0.0499
  617MOL0     H83262   4.031   8.037   6.794 -2.3115 -0.2663  3.2157
  617MOL0     H83263   3.850   7.948   6.743 -0.3811 -0.2505 -0.7158
  617MOL0     H83264   3.906   7.789   6.715  0.6387  1.7853 -2.3907
  617MOL0     H83265   3.941   7.911   6.998  1.9086 -1.9690  1.5491
  617MOL0     H83266   3.974   7.748   6.939 -2.4813 -2.3119  1.7947
  617MOL0     H83267   3.723   7.721   6.892  2.0915  1.5347 -2.8533
  617MOL0     H83268   3.690   7.874   6.974  1.5580  2.0642  0.5453
  617MOL0     H83269   3.851   7.648   7.091  0.3966  1.1687 -0.1220
  617MOL0     H83270   3.813   7.784   7.181 -2.2844  0.1222  0.5958
  617MOL0     H83271   3.604   7.583   7.094 -1.4142  2.4904 -0.6978
  617MOL0     H83272   3.556   7.740   7.160 -0.0646  0.1260 -0.1487
  617MOL0     H83273   3.704   7.503   7.269  0.4630  0.4285 -3.4204
  617MOL0     H83274   3.721   7.663   7.349 -0.9073  2.3488 -1.4718
  617MOL0     H83275   4.238   7.965   6.382  1.5412 -1.0764 -2.8016
  617MOL0     H83276   4.247   7.992   6.153 -1.1926 -1.8335 -2.2028
  617MOL0     H83277   3.891   8.112   5.775  3.0491  5.9128  1.8150
  617MOL0     H83278   3.872   8.153   5.537 -1.1503 -0.3770  3.4409
  617MOL0     H83279   4.023   7.907   4.428 -1.8274  0.7158 -0.2884
  617MOL0     H83280   3.871   8.021   4.607 -0.6656 -0.4106 -1.4998
  617MOL0     H83281   3.693   8.160   4.927 -0.1780  0.5759  0.9727
  617MOL0     H83282   3.633   8.255   5.155  0.4695 -0.0283  1.2333
  617MOL0     H83283   3.631   8.270   5.360 -0.0026  1.4530  1.0183
  617MOL0     H83284   3.546   8.201   5.500  1.5672 -3.5557 -0.5866
  617MOL0     H83285   3.334   8.283   5.427 -1.0856  3.1875  4.2571
  617MOL0     H83286   3.407   8.353   5.280 -1.7617 -0.1209  0.3235
  617MOL0     H83287   3.396   8.537   5.434 -0.4067  0.5438 -1.6625
  617MOL0     H83288   3.563   8.487   5.439  0.6793 -0.8266  1.7444
  617MOL0     H83289   3.535   8.389   5.652  0.6917 -0.2076 -0.5491
  617MOL0     H83290   3.465   8.556   5.646 -1.3747  1.8088 -1.6895
  617MOL0     H83291   3.118   8.327   5.732  0.4544 -2.1423  0.5098
  617MOL0     H83292   3.456   7.882   5.248 -0.2974 -1.5222  0.1712
  617MOL0     H83293   3.651   7.682   5.011  0.5061  1.5594  0.7323
  617MOL0     H83294   3.526   7.673   5.128  1.5777 -2.9698 -1.0729
  617MOL0     H83295   3.485   7.714   4.959  0.5503 -2.4112 -0.6213
  618MOL0     O83296   2.834   5.718   0.927  0.0251  0.3718  0.0827
  618MOL0     C83297   2.808   5.633   0.840 -0.0794  0.2851  0.5350
  618MOL0     O83298   2.829   5.644   0.705  0.2712  0.9345 -0.0199
  618MOL0     C83299   2.893   5.746   0.646  0.2015  0.4542 -0.5396
  618MOL0     C83300   2.969   5.849   0.695 -0.7325  0.1027  0.3536
  618MOL0     C83301   3.026   5.938   0.604  0.2404 -0.2209 -0.5667
  618MOL0     C83302   2.998   5.938   0.470 -0.1446  0.3718 -0.9662
  618MOL0     O83303   3.070   6.012   0.381 -0.7219 -1.0337 -0.4901
  618MOL0     C83304   3.139   6.134   0.427  0.4040  1.5792 -0.6656
  618MOL0     C83305   3.189   6.214   0.303 -0.6379  0.3108  0.2517
  618MOL0     C83306   3.264   6.349   0.330 -0.1275  0.9999 -0.4382
  618MOL0     C83307   3.181   6.436   0.432 -0.8505 -0.7499  0.6239
  618MOL0     C83308   3.041   6.478   0.401  0.1977  0.5161 -1.9232
  618MOL0     C83309   3.016   6.533   0.254 -0.7890 -0.2201 -0.2026
  618MOL0     C83310   2.872   6.561   0.234 -0.6163  0.0479  0.1817
  618MOL0     C83311   2.797   6.677   0.313  0.1367 -0.0377  0.5516
  618MOL0     N83312   2.867   6.805   0.281  0.7070  0.1484  0.4022
  618MOL0     C83313   2.826   6.880   0.173 -0.3989 -0.1348  0.6916
  618MOL0     C83314   2.872   7.005   0.208 -0.2910 -0.6873 -0.3817
  618MOL0     C83315   2.876   7.134   0.135  0.5097  0.5148  0.5306
  618MOL0     C83316   2.889   7.114  -0.019 -0.5240 -0.6275 -0.1687
  618MOL0     C83317   2.911   7.258  -0.073  0.2523 -0.1207  0.9859
  618MOL0     C83318   2.950   7.279  -0.218 -0.2242  0.2500 -0.5901
  618MOL0     O83319   2.865   7.376  -0.279  0.3447 -0.0729 -0.7471
  618MOL0     C83320   2.904   7.510  -0.278  0.2571  0.2793 -0.5043
  618MOL0     C83321   2.821   7.593  -0.355 -0.7763  0.3290  0.5763
  618MOL0     C83322   2.863   7.732  -0.366  0.7038  0.2416  0.6169
  618MOL0     C83323   2.969   7.784  -0.294  0.9061 -0.5020  0.0239
  618MOL0     C83324   3.003   7.928  -0.302 -0.3002 -1.2134  0.4267
  618MOL0     O83325   3.065   7.972  -0.190  0.9883  0.5105  0.0405
  618MOL0     C83326   3.031   8.090  -0.138 -1.0096 -0.6969 -0.7034
  618MOL0     C83327   2.976   8.213  -0.188  0.2606  0.4059 -0.1254
  618MOL0     C83328   2.934   8.318  -0.103 -0.7088  1.0944  0.5205
  618MOL0     C83329   2.955   8.308   0.030  0.7941  0.0226 -0.2105
  618MOL0     O83330   2.909   8.418   0.104 -0.2202  0.3131  0.5215
  618MOL0     C83331   2.850   8.377   0.227 -0.0075  0.5441 -0.6267
  618MOL0     C83332   2.758   8.498   0.265 -0.0319 -0.9861 -1.0313
  618MOL0     C83333   2.761   8.536   0.410  0.2836  0.7788 -0.2757
  618MOL0     C83334   2.649   8.643   0.445 -0.3477 -0.0662  0.5137
  618MOL0     C83335   2.608   8.651   0.598  0.3640  0.3135  0.9064
  618MOL0     C83336   2.539   8.526   0.667 -0.1404  0.6741 -0.0973
  618MOL0     C83337   2.440   8.559   0.788 -0.0059  0.1417 -0.0019
  618MOL0     C83338   2.388   8.445   0.873  0.2884  0.6357  1.0918
  618MOL0    Cl83339   2.524   8.347   0.944 -0.2972  0.1795 -0.4859
  618MOL0     C83340   3.017   8.201   0.083  0.1508 -0.1548  1.1183
  618MOL0     C83341   3.056   8.093   0.001  0.7182  0.0704 -0.2151
  618MOL0     O83342   2.966   8.001  -0.395 -0.2516 -0.2490  0.2517
  618MOL0     C83343   3.043   7.700  -0.215  0.0327  0.2592  0.4554
  618MOL0     C83344   3.014   7.567  -0.202  0.3018  0.8353 -0.5444
  618MOL0     N83345   2.923   7.002   0.333 -0.1789 -0.3353 -0.7912
  618MOL0     N83346   2.933   6.882   0.375 -0.2830  0.0818  0.3360
  618MOL0     C83347   2.917   5.840   0.423 -0.3288 -0.0320  0.4939
  618MOL0     C83348   2.862   5.749   0.509 -1.0850  0.5605 -0.2093
  618MOL0     C83349   2.710   5.522   0.880 -0.2278  0.5679 -0.0842
  618MOL0     C83350   2.596   5.498   0.803 -0.0504 -0.1556 -0.4478
  618MOL0     C83351   2.501   5.411   0.856 -0.6949  0.1832 -0.1509
  618MOL0     C83352   2.510   5.336   0.978  0.8604  0.5427 -0.4240
  618MOL0     O83353   2.392   5.263   1.000 -0.5371 -0.3971  0.0699
  618MOL0     C83354   2.389   5.190   1.129 -0.2806 -0.9616  0.4886
  618MOL0     C83355   2.247   5.143   1.138  0.2837 -0.7178  0.2840
  618MOL0     C83356   2.231   5.079   1.276 -0.4772  0.4086 -0.8464
  618MOL0     C83357   2.094   5.101   1.350 -0.2821  0.5176 -0.0702
  618MOL0     C83358   1.979   5.036   1.287 -0.4728 -0.3326 -0.4448
  618MOL0     C83359   1.878   4.969   1.266 -0.4088  0.4716 -0.7074
  618MOL0     C83360   2.623   5.362   1.051  0.8726 -0.3547 -0.5824
  618MOL0     C83361   2.720   5.449   1.004 -0.8178 -0.5659 -0.6395
  618MOL0     C83362   2.850   5.469   1.087  0.0071 -0.1469  1.0619
  618MOL0     H83363   2.992   5.866   0.800 -2.5376 -2.1908  1.1932
  618MOL0     H83364   3.099   6.004   0.650  3.5461 -2.9427 -1.5198
  618MOL0     H83365   3.073   6.194   0.489 -1.5470 -0.4618 -0.6223
  618MOL0     H83366   3.215   6.098   0.497 -3.7114 -0.7472  3.1325
  618MOL0     H83367   3.095   6.218   0.247 -0.2337 -2.4001 -0.7910
  618MOL0     H83368   3.255   6.150   0.243  1.4018  3.0791 -0.6796
  618MOL0     H83369   3.303   6.402   0.243 -1.2097  2.1252 -0.2681
  618MOL0     H83370   3.356   6.320   0.382 -1.4017  1.4694  2.2799
  618MOL0     H83371   3.165   6.386   0.527  0.4697  1.1810  1.9437
  618MOL0     H83372   3.233   6.530   0.453 -2.5839  1.2273 -2.8945
  618MOL0     H83373   2.979   6.389   0.413  0.8014  0.0604 -2.0863
  618MOL0     H83374   3.010   6.552   0.475  0.8654  0.8249 -1.9392
  618MOL0     H83375   3.085   6.615   0.230  2.6636 -2.7061  0.5339
  618MOL0     H83376   3.047   6.458   0.181  0.3035 -0.0125  0.0359
  618MOL0     H83377   2.812   6.469   0.239 -0.1430 -0.4426 -2.1906
  618MOL0     H83378   2.871   6.593   0.130  0.9331 -0.0675  0.1196
  618MOL0     H83379   2.692   6.677   0.285  0.2257 -2.4020  0.0728
  618MOL0     H83380   2.800   6.656   0.420 -1.6408 -0.4348  0.5416
  618MOL0     H83381   2.787   6.853   0.076  1.1720 -0.0091 -0.0063
  618MOL0     H83382   2.787   7.193   0.158 -0.3273 -0.6871  0.4556
  618MOL0     H83383   2.969   7.180   0.171  1.1912 -0.2692 -0.1868
  618MOL0     H83384   2.972   7.047  -0.044  0.6484  0.6498  0.1746
  618MOL0     H83385   2.800   7.068  -0.064  0.3821 -0.7219 -1.9531
  618MOL0     H83386   2.995   7.300  -0.017 -0.2602  0.7553  1.1084
  618MOL0     H83387   2.826   7.324  -0.056  0.5166  0.3668  0.4326
  618MOL0     H83388   2.937   7.194  -0.285 -0.4000  1.0518 -1.6056
  618MOL0     H83389   3.056   7.304  -0.218  0.1633 -0.7807 -4.4836
  618MOL0     H83390   2.736   7.542  -0.400 -0.7609 -0.2024  1.1273
  618MOL0     H83391   2.803   7.801  -0.424 -2.0398 -0.5045  2.3736
  618MOL0     H83392   2.958   8.236  -0.293 -0.8938  1.4686  0.2837
  618MOL0     H83393   2.869   8.394  -0.147  1.0400  2.8621  0.8351
  618MOL0     H83394   2.797   8.281   0.223  0.1013  0.5085 -1.2688
  618MOL0     H83395   2.930   8.380   0.301  1.8450 -0.5260 -2.4764
  618MOL0     H83396   2.792   8.589   0.214 -1.0489  0.1058  0.1448
  618MOL0     H83397   2.658   8.496   0.220 -0.3705  2.3259 -0.7282
  618MOL0     H83398   2.744   8.453   0.478  0.7632  1.3375  0.5443
  618MOL0     H83399   2.862   8.573   0.433  0.5633 -0.2608  0.2251
  618MOL0     H83400   2.559   8.626   0.385  0.3345 -3.2424  0.2436
  618MOL0     H83401   2.688   8.737   0.404  0.5575  0.3165  2.1840
  618MOL0     H83402   2.536   8.733   0.606 -1.7204 -1.4704  1.3450
  618MOL0     H83403   2.690   8.678   0.666  2.1165  3.0200 -2.0033
  618MOL0     H83404   2.490   8.454   0.601  1.5049 -2.5211  1.9526
  618MOL0     H83405   2.616   8.462   0.709 -0.5197 -0.6903 -1.3889
  618MOL0     H83406   2.355   8.613   0.744  1.4265  3.2124  0.7396
  618MOL0     H83407   2.489   8.632   0.852  2.2763 -0.9051 -0.4449
  618MOL0     H83408   2.329   8.484   0.956 -0.0336  0.8768  0.7572
  618MOL0     H83409   2.328   8.381   0.808 -0.7773  2.3330  0.3188
  618MOL0     H83410   3.043   8.203   0.189 -2.1170  2.2235  1.7323
  618MOL0     H83411   3.105   8.006   0.043  0.2414 -0.9674 -1.7526
  618MOL0     H83412   3.120   7.744  -0.152  0.2223 -0.1159  0.4854
  618MOL0     H83413   3.078   7.524  -0.125  0.7478 -1.6169 -2.1814
  618MOL0     H83414   2.890   5.850   0.318 -7.7095 -0.8135  1.7781
  618MOL0     H83415   2.809   5.668   0.460  1.0894 -0.4959 -0.9352
  618MOL0     H83416   2.591   5.566   0.718 -2.1271  0.1044 -0.1730
  618MOL0     H83417   2.407   5.410   0.802  0.7367 -0.7070 -2.8340
  618MOL0     H83418   2.420   5.260   1.207 -0.6008 -0.5335  0.2372
  618MOL0     H83419   2.465   5.112   1.133 -0.9997 -1.8059 -1.3206
  618MOL0     H83420   2.238   5.085   1.046 -0.0642  1.1018 -0.8873
  618MOL0     H83421   2.180   5.229   1.126  2.3192  0.9020 -0.0317
  618MOL0     H83422   2.310   5.106   1.347 -1.6750 -3.2295  2.1941
  618MOL0     H83423   2.242   4.973   1.252 -0.8630  0.6192 -1.9890
  618MOL0     H83424   2.097   5.054   1.449  0.2302 -1.5369 -1.0136
  618MOL0     H83425   2.087   5.209   1.365  2.2376  0.4197  2.9328
  618MOL0     H83426   1.804   4.893   1.252 -0.8611  0.8403 -0.3281
  618MOL0     H83427   2.628   5.314   1.147 -2.0002 -1.3476 -0.8209
  618MOL0     H83428   2.838   5.562   1.143 -1.6115  0.4639 -0.2166
  618MOL0     H83429   2.866   5.384   1.154 -0.0732 -0.5235  0.6035
  618MOL0     H83430   2.940   5.477   1.026 -1.0605  2.3386 -0.3286
  619MOL0     O83431   0.036  10.453  10.758  0.7998 -0.2876  0.1184
  619MOL0     C83432  -0.025  10.557  10.738  0.2813  0.2657  0.6328
  619MOL0     O83433   0.018  10.657  10.654 -0.5879  0.1760 -0.0423
  619MOL0     C83434   0.112  10.630  10.559 -0.1976 -0.6774  0.1416
  619MOL0     C83435   0.153  10.500  10.510 -0.5701 -0.0724 -0.4170
  619MOL0     C83436   0.267  10.479  10.438  0.2787 -0.7721 -0.5823
  619MOL0     C83437   0.349  10.590  10.406 -0.2610  0.3863 -0.5068
  619MOL0     O83438   0.469  10.584  10.338  0.1394 -0.5588  0.5436
  619MOL0     C83439   0.574  10.521  10.402  0.0590  0.7641 -0.4604
  619MOL0     C83440   0.707  10.520  10.327 -0.1543 -0.2770 -0.2622
  619MOL0     C83441   0.673  10.482  10.184 -0.2770  0.4124 -0.1451
  619MOL0     C83442   0.802  10.426  10.114  0.3935  0.7114 -0.4242
  619MOL0     C83443   0.780  10.430   9.963  0.0709  0.1242  0.3525
  619MOL0     C83444   0.898  10.357   9.900  0.1389  0.2720  0.2932
  619MOL0     C83445   0.872  10.315   9.753 -0.4867 -0.4989 -0.9074
  619MOL0     C83446   1.008  10.286   9.683  0.1641 -0.3327 -0.0480
  619MOL0     N83447   1.089  10.193   9.763  0.0972 -1.1886 -0.2921
  619MOL0     C83448   1.074  10.064   9.775 -0.1217  1.0940 -0.0070
  619MOL0     C83449   1.156  10.010   9.869  0.4548  0.0536  0.3362
  619MOL0     C83450   1.186   9.866   9.893 -0.3613  0.1525 -0.4348
  619MOL0     C83451   1.307   9.838   9.796  0.8009  0.3441  0.7677
  619MOL0     C83452   1.256   9.773   9.669 -0.3228  0.3123  0.4600
  619MOL0     C83453   1.310   9.824   9.538  0.6102 -0.5199 -0.2376
  619MOL0     O83454   1.433   9.765   9.511 -0.5705  0.2066 -0.3299
  619MOL0     C83455   1.475   9.752   9.381 -0.5389  0.2935  0.2828
  619MOL0     C83456   1.401   9.737   9.263  0.1895  0.9998  0.3492
  619MOL0     C83457   1.450   9.731   9.134  0.3712  0.0123 -0.1176
  619MOL0     C83458   1.589   9.734   9.117 -0.9791  0.9344  0.3509
  619MOL0     C83459   1.661   9.702   8.983 -0.3918 -0.0126  0.2340
  619MOL0     O83460   1.797   9.682   8.978  0.6096  0.2889 -0.3096
  619MOL0     C83461   1.856   9.675   8.854  0.0415  0.0954  0.2064
  619MOL0     C83462   1.823   9.586   8.751  1.3307  0.0762 -1.0566
  619MOL0     C83463   1.887   9.598   8.631 -0.7661 -1.2577  0.3582
  619MOL0     C83464   1.987   9.699   8.606  0.0459  0.4759 -0.4190
  619MOL0     O83465   2.051   9.708   8.487  0.1743 -0.1188 -0.7807
  619MOL0     C83466   2.072   9.836   8.432  0.1049  0.0570 -0.6379
  619MOL0     C83467   2.158   9.807   8.303  0.4336  0.3808 -0.0866
  619MOL0     C83468   2.278   9.722   8.339 -0.7409  0.3502  0.1493
  619MOL0     C83469   2.382   9.734   8.230  0.2353 -0.7665 -0.1950
  619MOL0     C83470   2.523   9.679   8.246 -0.9104  0.7265 -0.6308
  619MOL0     C83471   2.515   9.536   8.295  0.2789  0.1834 -0.5951
  619MOL0     C83472   2.443   9.448   8.188  0.1999  0.1968 -0.1008
  619MOL0     C83473   2.504   9.304   8.191 -0.3768  0.0626  0.1865
  619MOL0    Cl83474   2.655   9.303   8.088  0.1326 -0.1501  0.8354
  619MOL0     C83475   2.015   9.787   8.712  0.4946 -0.0867 -0.7801
  619MOL0     C83476   1.955   9.769   8.838  1.2581 -0.8000  0.1411
  619MOL0     O83477   1.586   9.700   8.880 -0.1142 -0.0727  0.9658
  619MOL0     C83478   1.674   9.744   9.233  0.0328  0.5748 -0.7260
  619MOL0     C83479   1.615   9.752   9.361  0.7558  0.1909  0.3690
  619MOL0     N83480   1.227  10.116   9.913  0.0763  0.1967 -0.4262
  619MOL0     N83481   1.185  10.222   9.856  0.7565 -0.2229 -0.0983
  619MOL0     C83482   0.297  10.717  10.424 -0.3266 -0.0103 -0.7121
  619MOL0     C83483   0.177  10.741  10.500 -0.7767  0.1009 -0.4508
  619MOL0     C83484  -0.163  10.568  10.808 -0.5360 -0.7243 -0.2432
  619MOL0     C83485  -0.205  10.465  10.891  0.7826 -1.1655 -0.0334
  619MOL0     C83486  -0.334  10.470  10.961 -1.1010 -0.6281 -0.1504
  619MOL0     C83487  -0.417  10.586  10.947  0.1989 -0.4036  0.2394
  619MOL0     O83488  -0.538  10.604  11.009  0.0599  0.8073 -0.3714
  619MOL0     C83489  -0.545  10.569  11.145 -0.6582 -0.2574 -0.2854
  619MOL0     C83490  -0.627  10.440  11.170  0.5033 -0.3198 -0.3999
  619MOL0     C83491  -0.754  10.410  11.084 -0.0400 -0.9593 -0.2117
  619MOL0     C83492  -0.800  10.265  11.052  0.2995 -0.0846 -0.2731
  619MOL0     C83493  -0.701  10.202  10.962 -0.6951  0.2428  0.0095
  619MOL0     C83494  -0.613  10.137  10.904  0.4705  0.6553  0.6184
  619MOL0     C83495  -0.379  10.689  10.854  0.7900 -0.3307  0.1389
  619MOL0     C83496  -0.256  10.680  10.795 -1.1079 -0.6060  1.0421
  619MOL0     C83497  -0.218  10.799  10.706  0.2358 -0.3814  0.6519
  619MOL0     H83498   0.099  10.408  10.531  0.0855 -0.7214 -1.5279
  619MOL0     H83499   0.308  10.384  10.406  0.6996 -0.2784 -1.5318
  619MOL0     H83500   0.588  10.563  10.502 -0.3621 -0.5754  0.1802
  619MOL0     H83501   0.553  10.415  10.412 -0.7105  0.9450 -0.1409
  619MOL0     H83502   0.782  10.452  10.369  0.6489 -0.3927 -1.8071
  619MOL0     H83503   0.753  10.619  10.320 -0.1324 -0.4019 -2.4918
  619MOL0     H83504   0.637  10.576  10.142  1.0525  0.7211 -0.6406
  619MOL0     H83505   0.598  10.402  10.186 -0.5188  0.6405 -0.0280
  619MOL0     H83506   0.893  10.480  10.139 -0.3543  2.5673 -1.5506
  619MOL0     H83507   0.814  10.327  10.161  2.2004  1.0421 -0.1071
  619MOL0     H83508   0.681  10.391   9.939 -1.7190  2.5162  3.1996
  619MOL0     H83509   0.785  10.531   9.919 -0.4710 -0.9388 -2.3512
  619MOL0     H83510   0.977  10.433   9.897 -0.8018  1.2858 -3.0566
  619MOL0     H83511   0.928  10.275   9.966 -0.8808  0.0861  0.5427
  619MOL0     H83512   0.812  10.397   9.715 -0.0378  0.2171 -0.1060
  619MOL0     H83513   0.812  10.224   9.762  4.9800 -4.5169  1.3324
  619MOL0     H83514   0.977  10.245   9.587 -1.2359  1.0017 -0.2058
  619MOL0     H83515   1.068  10.376   9.664  0.8552  0.0433  3.3523
  619MOL0     H83516   1.008  10.003   9.715  1.6869 -0.2721 -0.7099
  619MOL0     H83517   1.211   9.875   9.999 -1.3435  1.7927 -0.3202
  619MOL0     H83518   1.096   9.805   9.883  1.6026 -2.8167 -1.3340
  619MOL0     H83519   1.349   9.936   9.773 -3.8002  2.6974  1.2048
  619MOL0     H83520   1.385   9.775   9.840  2.9754  3.2095  1.3470
  619MOL0     H83521   1.147   9.783   9.661 -0.7594 -2.3380  1.8001
  619MOL0     H83522   1.286   9.667   9.666  1.5095  0.8164 -1.5938
  619MOL0     H83523   1.329   9.931   9.546  0.9698 -0.6178  0.3432
  619MOL0     H83524   1.233   9.796   9.466 -0.1941 -2.6397  1.3381
  619MOL0     H83525   1.295   9.723   9.278  0.3560 -0.0273  0.6529
  619MOL0     H83526   1.378   9.731   9.052  0.9346  2.4337 -0.6798
  619MOL0     H83527   1.751   9.505   8.752  1.6057 -0.1971 -2.2005
  619MOL0     H83528   1.875   9.518   8.559  0.1180 -0.3481 -0.8535
  619MOL0     H83529   1.970   9.873   8.418  0.5775  1.3008 -0.9008
  619MOL0     H83530   2.124   9.909   8.495 -1.0337  1.7621 -1.5898
  619MOL0     H83531   2.098   9.748   8.233 -0.2448 -1.0276  1.5895
  619MOL0     H83532   2.194   9.901   8.260  0.1350  0.7477  0.4534
  619MOL0     H83533   2.330   9.751   8.430 -0.3630 -5.9255  2.3885
  619MOL0     H83534   2.249   9.621   8.368  0.7047  0.7411  3.3275
  619MOL0     H83535   2.398   9.841   8.211  0.5747 -0.8239 -0.2257
  619MOL0     H83536   2.340   9.688   8.140  0.9043 -0.9042 -0.4413
  619MOL0     H83537   2.574   9.731   8.328 -0.4737  1.7343 -1.5220
  619MOL0     H83538   2.593   9.691   8.163  1.0507 -0.0809  0.8260
  619MOL0     H83539   2.618   9.501   8.303 -0.2317 -0.8651  2.4486
  619MOL0     H83540   2.465   9.526   8.391  2.0045 -1.7263  0.1600
  619MOL0     H83541   2.454   9.490   8.087  1.1878  2.2733  0.8162
  619MOL0     H83542   2.340   9.416   8.203  0.7050 -1.0448  0.9048
  619MOL0     H83543   2.531   9.280   8.294  0.6245 -3.2861 -0.7259
  619MOL0     H83544   2.436   9.230   8.147 -1.2516  1.2802 -0.5762
  619MOL0     H83545   2.091   9.865   8.708  0.3162  0.0713 -1.1810
  619MOL0     H83546   1.991   9.833   8.917 -2.2463 -0.4718  1.6305
  619MOL0     H83547   1.782   9.752   9.227 -0.0528  0.7816 -2.6134
  619MOL0     H83548   1.672   9.752   9.453  2.1838  2.0458 -0.4601
  619MOL0     H83549   0.343  10.807  10.384  0.8394 -0.9178 -1.4510
  619MOL0     H83550   0.162  10.848  10.509  2.7084  0.5494  2.3450
  619MOL0     H83551  -0.141  10.380  10.912  1.6641 -0.0282  2.3199
  619MOL0     H83552  -0.372  10.392  11.026  0.0637  0.7415  2.3082
  619MOL0     H83553  -0.599  10.647  11.200  0.5101  1.9039 -1.9988
  619MOL0     H83554  -0.448  10.567  11.196 -1.2706  2.0976  1.1493
  619MOL0     H83555  -0.663  10.432  11.273 -4.1197 -2.9841 -1.9400
  619MOL0     H83556  -0.555  10.360  11.151  0.9789  0.3464 -1.5009
  619MOL0     H83557  -0.744  10.448  10.982 -2.7847 -1.1943 -0.6494
  619MOL0     H83558  -0.838  10.461  11.133  0.5576 -1.0602  0.9381
  619MOL0     H83559  -0.811  10.202  11.140 -1.0560 -0.3989 -0.6456
  619MOL0     H83560  -0.900  10.265  11.007  1.2742 -0.6496 -2.5922
  619MOL0     H83561  -0.526  10.092  10.860 -1.2629 -2.0637 -0.2594
  619MOL0     H83562  -0.447  10.773  10.845  1.7680  0.3426 -1.2726
  619MOL0     H83563  -0.298  10.873  10.699  1.3277  0.8529  0.8465
  619MOL0     H83564  -0.134  10.841  10.761  1.1565 -0.1093 -0.9059
  619MOL0     H83565  -0.200  10.763  10.604  1.9258 -3.9893  2.0527
  620MOL0     O83566   1.817   0.671   3.082  0.0954  0.2214 -0.0697
  620MOL0     C83567   1.824   0.794   3.085  0.3319 -0.4182  0.8029
  620MOL0     O83568   1.713   0.880   3.102  0.6872  0.7818  0.1582
  620MOL0     C83569   1.606   0.834   3.169 -0.2235  1.3330  0.3153
  620MOL0     C83570   1.625   0.788   3.294 -0.4039  0.0082 -0.4582
  620MOL0     C83571   1.528   0.723   3.367  0.1664  0.1490  0.1855
  620MOL0     C83572   1.400   0.704   3.306 -1.4025  0.1547  0.0825
  620MOL0     O83573   1.311   0.624   3.378 -0.1459 -0.5147 -0.5893
  620MOL0     C83574   1.264   0.513   3.301 -0.5860 -1.0522 -0.5106
  620MOL0     C83575   1.120   0.464   3.334 -0.1730  0.4114 -1.1799
  620MOL0     C83576   1.016   0.571   3.300  0.1371  0.4406  0.3847
  620MOL0     C83577   0.908   0.602   3.396 -0.7712 -0.1576  0.5252
  620MOL0     C83578   0.818   0.710   3.348 -0.0786  0.1987  0.2732
  620MOL0     C83579   0.723   0.753   3.463 -0.2750 -0.6146 -0.3909
  620MOL0     C83580   0.629   0.873   3.424 -0.7564 -0.0085 -0.3075
  620MOL0     C83581   0.712   1.001   3.427  0.3591 -0.0985 -0.3630
  620MOL0     N83582   0.751   1.026   3.564  0.2544 -0.2598  0.2229
  620MOL0     C83583   0.669   1.002   3.678 -0.8127 -0.3458 -0.0095
  620MOL0     C83584   0.759   0.999   3.782  0.7971  0.8586  0.8795
  620MOL0     C83585   0.738   0.990   3.923  1.2287  0.0381 -0.3510
  620MOL0     C83586   0.642   0.877   3.965  0.0610 -0.4349  0.1995
  620MOL0     C83587   0.711   0.744   3.930 -0.7916  0.3800  0.4575
  620MOL0     C83588   0.625   0.654   3.835  0.1572  0.1285 -0.2787
  620MOL0     O83589   0.492   0.632   3.897 -0.3472 -0.2718 -0.0920
  620MOL0     C83590   0.420   0.534   3.837  0.3635  0.3844  0.3540
  620MOL0     C83591   0.364   0.427   3.902  0.0590 -0.5268 -0.2605
  620MOL0     C83592   0.273   0.337   3.853  0.3585 -0.1620  0.4073
  620MOL0     C83593   0.240   0.344   3.718  0.7357  1.0654  0.2281
  620MOL0     C83594   0.141   0.245   3.662  0.5995 -0.3809 -0.0947
  620MOL0     O83595   0.104   0.248   3.527 -0.0799  0.5321 -0.2424
  620MOL0     C83596   0.019   0.142   3.489 -0.9128  0.9790  0.6392
  620MOL0     C83597  -0.119   0.152   3.506 -0.0058  0.0945 -0.4779
  620MOL0     C83598  -0.211   0.064   3.453  0.2154 -0.0118  0.9313
  620MOL0     C83599  -0.159  -0.065   3.403 -0.6961  0.3426 -0.3103
  620MOL0     O83600  -0.234  -0.167   3.352  0.0424  0.1300  0.0976
  620MOL0     C83601  -0.347  -0.132   3.274 -0.6785  1.2495  0.1495
  620MOL0     C83602  -0.408  -0.265   3.232 -0.2201 -1.1790 -1.0209
  620MOL0     C83603  -0.491  -0.303   3.347  0.5011  0.4442 -0.5807
  620MOL0     C83604  -0.537  -0.452   3.324  0.8379 -0.4353 -1.2978
  620MOL0     C83605  -0.669  -0.484   3.406 -0.0913 -0.3281  0.3631
  620MOL0     C83606  -0.708  -0.631   3.382 -0.2814  0.0250  0.4778
  620MOL0     C83607  -0.844  -0.679   3.441 -0.1995 -0.2828 -0.2793
  620MOL0     C83608  -0.916  -0.772   3.337  0.4377  0.5754 -0.2294
  620MOL0    Cl83609  -0.827  -0.930   3.307 -0.1488 -0.2718 -0.5067
  620MOL0     C83610  -0.011  -0.084   3.401 -1.1761  0.4397  0.8085
  620MOL0     C83611   0.071   0.022   3.439 -0.7515 -0.8593 -0.8478
  620MOL0     O83612   0.103   0.158   3.738  0.2875 -0.1662  0.3313
  620MOL0     C83613   0.293   0.446   3.639 -0.1206 -0.4151  0.2338
  620MOL0     C83614   0.377   0.546   3.710 -0.9714  0.0405  0.8782
  620MOL0     N83615   0.883   1.004   3.723 -0.1858  0.3737 -0.8268
  620MOL0     N83616   0.876   1.019   3.600 -0.7631  0.0578 -1.1284
  620MOL0     C83617   1.377   0.758   3.180 -0.5433  0.8094  0.6328
  620MOL0     C83618   1.478   0.831   3.122  1.2023  0.8592  0.0619
  620MOL0     C83619   1.971   0.847   3.084  0.0226 -1.1659 -0.0257
  620MOL0     C83620   2.079   0.773   3.032  0.0336 -0.0685  0.6813
  620MOL0     C83621   2.210   0.824   3.017 -0.0099 -0.8626  0.1185
  620MOL0     C83622   2.244   0.953   3.053 -0.4280  0.0656 -0.3201
  620MOL0     O83623   2.370   1.005   3.030  0.4735 -0.9785  0.8499
  620MOL0     C83624   2.369   1.126   2.949  0.0900  0.3799 -0.6812
  620MOL0     C83625   2.492   1.135   2.855 -0.1662 -0.6282 -0.1296
  620MOL0     C83626   2.539   0.991   2.805  0.0407 -0.1884  0.4487
  620MOL0     C83627   2.431   0.929   2.712  0.4175  0.2275  0.2642
  620MOL0     C83628   2.430   0.999   2.581  0.1380 -0.5094 -0.6034
  620MOL0     C83629   2.416   1.042   2.468 -0.7036 -0.1288 -0.1608
  620MOL0     C83630   2.134   1.031   3.102 -0.3464  0.5971 -0.4521
  620MOL0     C83631   2.001   0.982   3.113 -0.5411 -1.1482  0.3475
  620MOL0     C83632   1.887   1.079   3.150  0.3225 -0.6420  0.3839
  620MOL0     H83633   1.727   0.793   3.330  0.6675  2.0500 -3.4187
  620MOL0     H83634   1.528   0.691   3.471 -3.6161  1.0325  0.6021
  620MOL0     H83635   1.274   0.542   3.196  0.9410  3.0021  0.5576
  620MOL0     H83636   1.323   0.422   3.320  0.7644 -0.4805 -1.7420
  620MOL0     H83637   1.116   0.442   3.441  0.2421 -2.2751 -1.6439
  620MOL0     H83638   1.108   0.367   3.285  1.7772 -0.3734 -0.2218
  620MOL0     H83639   0.960   0.536   3.213 -0.8537 -1.2227  1.6035
  620MOL0     H83640   1.066   0.663   3.270 -2.3428  1.6447 -0.3176
  620MOL0     H83641   0.844   0.514   3.406  0.6006 -1.9001 -3.7747
  620MOL0     H83642   0.960   0.639   3.485  0.0540 -1.3562  0.5637
  620MOL0     H83643   0.875   0.799   3.320 -0.1115 -0.2885 -1.4466
  620MOL0     H83644   0.757   0.677   3.263  0.3241  2.1137 -0.8052
  620MOL0     H83645   0.662   0.663   3.474  0.3625 -0.8386  1.8668
  620MOL0     H83646   0.779   0.778   3.553 -0.7535 -0.2902 -0.1796
  620MOL0     H83647   0.537   0.880   3.482  0.8422  1.0718  2.2797
  620MOL0     H83648   0.593   0.844   3.325 -1.6457 -0.2009  0.0665
  620MOL0     H83649   0.803   0.996   3.366 -0.4847  1.9208 -1.9306
  620MOL0     H83650   0.664   1.096   3.404 -0.2491 -0.3766 -0.2617
  620MOL0     H83651   0.562   0.999   3.693 -1.1209 -1.3529 -2.0994
  620MOL0     H83652   0.837   0.964   3.960  0.3496 -3.1354  0.0641
  620MOL0     H83653   0.698   1.076   3.976 -1.3033 -1.6734  0.7112
  620MOL0     H83654   0.648   0.880   4.074  1.6989  0.3965  0.1093
  620MOL0     H83655   0.544   0.893   3.920 -0.4455  1.2640  1.7991
  620MOL0     H83656   0.711   0.677   4.017 -3.1088 -2.0972 -1.2637
  620MOL0     H83657   0.811   0.753   3.886 -0.2646  2.4993  1.9276
  620MOL0     H83658   0.675   0.559   3.815  1.7584  0.7647  0.4522
  620MOL0     H83659   0.617   0.705   3.739 -4.9589 -0.2400 -0.3147
  620MOL0     H83660   0.382   0.431   4.009 -0.2211  1.3243 -0.2547
  620MOL0     H83661   0.241   0.251   3.911 -2.5097  0.4343 -0.1572
  620MOL0     H83662  -0.146   0.245   3.555  0.3931 -0.7643  1.4818
  620MOL0     H83663  -0.315   0.084   3.473 -0.2469 -1.2248 -0.1354
  620MOL0     H83664  -0.422  -0.077   3.332 -2.3468  1.9181 -2.4520
  620MOL0     H83665  -0.320  -0.077   3.183  2.1914  0.7054  0.5930
  620MOL0     H83666  -0.470  -0.248   3.143 -0.3282  0.5023 -0.6752
  620MOL0     H83667  -0.326  -0.335   3.215  0.6440 -0.7335  1.0375
  620MOL0     H83668  -0.443  -0.292   3.444 -0.2003  2.1019 -0.4010
  620MOL0     H83669  -0.581  -0.242   3.341 -0.3238 -0.7748 -0.9640
  620MOL0     H83670  -0.451  -0.514   3.351  1.5629  0.6220 -1.1024
  620MOL0     H83671  -0.568  -0.478   3.222 -2.2051 -5.1258  0.4772
  620MOL0     H83672  -0.751  -0.422   3.369 -0.3468 -0.9265 -0.0947
  620MOL0     H83673  -0.648  -0.461   3.511 -3.3569  1.1739  0.7916
  620MOL0     H83674  -0.703  -0.641   3.273 -0.9274 -0.0609  0.4544
  620MOL0     H83675  -0.633  -0.704   3.416 -1.1807 -0.9599  0.3911
  620MOL0     H83676  -0.906  -0.590   3.456  0.3599 -0.2597  2.5320
  620MOL0     H83677  -0.835  -0.716   3.544  0.5653  0.5903 -0.0153
  620MOL0     H83678  -1.014  -0.804   3.372  1.4465 -2.4552  0.0971
  620MOL0     H83679  -0.919  -0.722   3.240 -0.6650  1.9502  0.4744
  620MOL0     H83680   0.027  -0.176   3.359  0.0564  0.8894  0.9207
  620MOL0     H83681   0.179   0.024   3.434 -0.5530 -0.6969  1.9683
  620MOL0     H83682   0.265   0.447   3.534  0.6242 -0.7015  0.0261
  620MOL0     H83683   0.412   0.628   3.647 -1.8458 -0.1606  0.1213
  620MOL0     H83684   1.285   0.750   3.124 -0.7376 -0.4541  1.1027
  620MOL0     H83685   1.447   0.870   3.025 -2.5973 -0.9807  0.3598
  620MOL0     H83686   2.063   0.666   3.017  1.7027 -0.8608  3.8067
  620MOL0     H83687   2.287   0.762   2.973  1.4265 -2.3423  4.2534
  620MOL0     H83688   2.392   1.216   3.008  0.6823  0.1017 -0.4772
  620MOL0     H83689   2.270   1.133   2.903 -0.1518  0.6594 -0.1324
  620MOL0     H83690   2.576   1.159   2.922  0.1594 -1.1666 -0.3314
  620MOL0     H83691   2.475   1.203   2.771  1.1279 -3.2516 -2.7021
  620MOL0     H83692   2.563   0.931   2.893 -0.4788  1.4517  1.7806
  620MOL0     H83693   2.627   0.989   2.741  0.9034  0.2460  1.6052
  620MOL0     H83694   2.456   0.824   2.697 -0.6673 -0.0965  0.6669
  620MOL0     H83695   2.329   0.949   2.745 -0.4492 -0.5053 -1.8496
  620MOL0     H83696   2.398   1.074   2.367 -0.1403  1.5468  0.2367
  620MOL0     H83697   2.151   1.136   3.122  1.4334 -0.3425  4.3385
  620MOL0     H83698   1.838   1.041   3.241 -1.5739  0.2171 -0.2187
  620MOL0     H83699   1.920   1.182   3.167  1.2740 -1.0275  0.9013
  620MOL0     H83700   1.810   1.096   3.074  0.0514  1.2556  1.0178
  621MOL0     O83701   3.425   3.231   6.496  0.8873 -0.7125 -0.5254
  621MOL0     C83702   3.312   3.177   6.493  0.5975  0.2980 -1.2115
  621MOL0     O83703   3.276   3.062   6.420 -0.4442 -1.0837 -0.5479
  621MOL0     C83704   3.368   3.062   6.321 -0.1713 -0.1618 -0.3320
  621MOL0     C83705   3.465   2.954   6.312 -0.1813  0.2923  0.2353
  621MOL0     C83706   3.544   2.925   6.201  0.3530  0.4967 -1.0784
  621MOL0     C83707   3.530   3.017   6.105  0.0546 -0.2840  0.9806
  621MOL0     O83708   3.583   2.997   5.976  0.6766 -0.6788  0.3090
  621MOL0     C83709   3.716   2.947   5.963  0.1273 -0.3699 -0.1859
  621MOL0     C83710   3.798   3.048   5.884 -0.0383  0.0047 -0.1265
  621MOL0     C83711   3.818   3.184   5.960  0.0019  0.0061 -0.1093
  621MOL0     C83712   3.920   3.271   5.895 -0.2953  0.3992  0.0616
  621MOL0     C83713   3.921   3.423   5.934  0.3286  0.6158 -0.6843
  621MOL0     C83714   3.913   3.452   6.091 -0.9492 -0.0532  0.0389
  621MOL0     C83715   4.012   3.380   6.192 -0.7729  0.7264  1.1393
  621MOL0     C83716   4.153   3.427   6.197  0.2086 -0.0019  0.6096
  621MOL0     N83717   4.173   3.546   6.275  0.3599  0.2480  0.2360
  621MOL0     C83718   4.195   3.673   6.236 -0.4914  0.6119 -0.0095
  621MOL0     C83719   4.189   3.747   6.349  0.8272 -0.3727 -0.0458
  621MOL0     C83720   4.231   3.891   6.363 -0.0076 -0.6881 -0.0791
  621MOL0     C83721   4.387   3.898   6.370  0.0054 -0.6408 -0.6844
  621MOL0     C83722   4.440   4.036   6.331  0.0056 -1.0701 -0.6370
  621MOL0     C83723   4.522   4.034   6.197  0.0312 -0.3061  0.8403
  621MOL0     O83724   4.645   3.963   6.220  0.0638 -0.4081 -0.1547
  621MOL0     C83725   4.727   3.967   6.114  0.3614 -0.3175 -0.7365
  621MOL0     C83726   4.693   3.939   5.982 -0.1370 -1.0410 -0.3177
  621MOL0     C83727   4.791   3.944   5.882 -0.0063  0.6740 -0.9176
  621MOL0     C83728   4.918   3.992   5.897  0.4558  0.0568  0.1996
  621MOL0     C83729   5.013   3.971   5.782  0.4968 -0.2627  0.0762
  621MOL0     O83730   4.970   3.906   5.671  0.1021 -0.4712  0.2290
  621MOL0     C83731   5.056   3.878   5.572 -0.3256  0.4519 -0.9579
  621MOL0     C83732   5.170   3.799   5.593  0.1704  0.2168  0.0728
  621MOL0     C83733   5.248   3.747   5.490 -0.4470  0.1970  0.2656
  621MOL0     C83734   5.239   3.799   5.362 -0.1344  1.2365  0.3240
  621MOL0     O83735   5.337   3.759   5.270 -0.2551 -0.0810 -0.7032
  621MOL0     C83736   5.320   3.785   5.131  0.4510  0.3822 -0.5550
  621MOL0     C83737   5.435   3.712   5.063  0.6187  0.4618  0.3919
  621MOL0     C83738   5.431   3.558   5.065 -0.1633  0.2140 -0.1299
  621MOL0     C83739   5.292   3.491   5.084 -0.9932  0.1585 -0.6792
  621MOL0     C83740   5.194   3.509   4.972  0.2379  1.0621  0.1767
  621MOL0     C83741   5.057   3.467   5.015  0.3928 -0.0779  0.8815
  621MOL0     C83742   4.973   3.513   4.897 -0.1702 -0.2193 -0.1369
  621MOL0     C83743   4.834   3.482   4.920 -0.6912  0.1487 -0.6576
  621MOL0    Cl83744   4.765   3.616   5.029 -0.6057 -0.0263 -0.0889
  621MOL0     C83745   5.134   3.888   5.342 -0.5807 -0.0995 -0.5808
  621MOL0     C83746   5.043   3.922   5.440 -0.0475  0.1080  0.3077
  621MOL0     O83747   5.129   4.013   5.794  0.9325 -0.1826  0.3564
  621MOL0     C83748   4.953   4.021   6.030 -0.8843  0.3004  0.3476
  621MOL0     C83749   4.863   4.005   6.132 -0.3945  1.1320 -0.3285
  621MOL0     N83750   4.154   3.656   6.455  0.5438  0.0501 -0.4135
  621MOL0     N83751   4.138   3.541   6.405 -0.1537  0.4291 -0.2692
  621MOL0     C83752   3.448   3.129   6.106  0.1075  0.3186  1.0813
  621MOL0     C83753   3.370   3.157   6.216  0.7487 -0.0189 -0.4038
  621MOL0     C83754   3.214   3.221   6.595  0.4357 -0.1209 -0.3961
  621MOL0     C83755   3.154   3.132   6.682  1.0600 -0.6063 -0.4462
  621MOL0     C83756   3.067   3.187   6.780  0.9792 -0.9993 -0.4539
  621MOL0     C83757   3.041   3.325   6.790  0.3167  0.8848 -0.1521
  621MOL0     O83758   2.961   3.392   6.885 -1.0288 -0.3549 -0.4183
  621MOL0     C83759   2.874   3.317   6.969 -0.3241 -0.2652 -0.1507
  621MOL0     C83760   2.974   3.267   7.075 -0.0414 -0.4466 -0.6920
  621MOL0     C83761   2.899   3.180   7.179  0.1531 -0.0972  0.7551
  621MOL0     C83762   2.973   3.065   7.246 -0.8230  0.3427 -0.5379
  621MOL0     C83763   3.113   3.090   7.291  0.0037 -0.3196 -0.3571
  621MOL0     C83764   3.232   3.121   7.309  0.3834  0.5288  0.6853
  621MOL0     C83765   3.102   3.415   6.700  0.0850  0.6146 -0.1305
  621MOL0     C83766   3.191   3.362   6.606 -0.5205 -1.4907  0.6005
  621MOL0     C83767   3.266   3.470   6.523 -0.4471  0.1789  0.7731
  621MOL0     H83768   3.459   2.881   6.392  1.3474  0.6169  0.6867
  621MOL0     H83769   3.600   2.833   6.187 -1.1099 -0.7402  0.6050
  621MOL0     H83770   3.769   2.938   6.059  1.5425  2.3719 -0.6273
  621MOL0     H83771   3.718   2.842   5.930 -1.3958 -0.6102  0.4327
  621MOL0     H83772   3.757   3.059   5.783 -0.2856  2.4061  0.1736
  621MOL0     H83773   3.897   3.004   5.868  1.1100  1.9432  1.1766
  621MOL0     H83774   3.862   3.168   6.059  0.5220 -0.6745 -0.4442
  621MOL0     H83775   3.726   3.243   5.964 -0.3273 -0.3368 -1.6657
  621MOL0     H83776   4.019   3.225   5.905 -0.7547 -1.1447 -1.9311
  621MOL0     H83777   3.900   3.265   5.788 -0.0096 -0.3057  0.0424
  621MOL0     H83778   4.002   3.487   5.897 -0.7470  2.2463 -0.3713
  621MOL0     H83779   3.837   3.475   5.886  0.5466  0.9624 -0.6948
  621MOL0     H83780   3.918   3.557   6.122 -0.2225  0.4950 -1.8078
  621MOL0     H83781   3.813   3.425   6.126 -0.1434 -2.3660  0.7510
  621MOL0     H83782   4.019   3.283   6.142 -2.0431  1.5195 -0.7151
  621MOL0     H83783   3.959   3.386   6.288 -1.8446 -1.7862  0.7711
  621MOL0     H83784   4.215   3.345   6.235  0.4350  0.2222  0.7279
  621MOL0     H83785   4.188   3.442   6.095 -2.8555  1.4052 -0.3707
  621MOL0     H83786   4.213   3.702   6.134  2.5941 -3.1917 -0.7544
  621MOL0     H83787   4.192   3.953   6.282 -1.8911  2.1374  2.7641
  621MOL0     H83788   4.192   3.929   6.457 -0.5380 -0.1849 -0.4984
  621MOL0     H83789   4.414   3.866   6.471  0.4225  1.4301 -0.0947
  621MOL0     H83790   4.429   3.826   6.299  2.6033 -0.8635  0.9438
  621MOL0     H83791   4.493   4.075   6.419 -1.5202  1.2879 -0.6674
  621MOL0     H83792   4.363   4.114   6.327  0.3124 -0.6576  0.8361
  621MOL0     H83793   4.546   4.138   6.171 -4.1765  0.8339  0.7727
  621MOL0     H83794   4.456   3.994   6.120  0.7957 -1.2985  0.6849
  621MOL0     H83795   4.590   3.920   5.954 -0.9005  0.4734  1.2697
  621MOL0     H83796   4.751   3.928   5.783  0.8588  0.8118 -1.2969
  621MOL0     H83797   5.173   3.769   5.698 -2.9902 -0.9536 -0.0837
  621MOL0     H83798   5.341   3.694   5.510 -1.5700 -1.5067  1.2517
  621MOL0     H83799   5.226   3.739   5.098  1.9699 -1.5472 -2.4377
  621MOL0     H83800   5.325   3.893   5.119 -2.5635  0.5263 -1.5093
  621MOL0     H83801   5.421   3.745   4.959 -1.7721  2.2450  1.1947
  621MOL0     H83802   5.519   3.749   5.121  1.8598 -1.5303 -0.0224
  621MOL0     H83803   5.480   3.512   4.978  0.1171  0.2177  0.0237
  621MOL0     H83804   5.489   3.524   5.152 -0.4179  0.6204  0.2031
  621MOL0     H83805   5.246   3.518   5.179 -1.0993  1.4549 -1.0691
  621MOL0     H83806   5.301   3.382   5.089  2.3270  0.3895  1.0014
  621MOL0     H83807   5.226   3.443   4.891 -2.2886  0.9547 -0.8353
  621MOL0     H83808   5.197   3.609   4.929  2.9376  0.2641 -1.7728
  621MOL0     H83809   5.048   3.361   5.043  1.7614 -0.5689 -0.3605
  621MOL0     H83810   5.038   3.532   5.100  4.9045  3.2471 -0.2666
  621MOL0     H83811   4.996   3.458   4.805 -3.0004 -1.1292 -0.3747
  621MOL0     H83812   4.995   3.620   4.886  0.1358 -0.2722 -0.0381
  621MOL0     H83813   4.777   3.482   4.827 -0.1407  0.0301 -1.0022
  621MOL0     H83814   4.822   3.386   4.972 -1.7064 -0.0764 -1.2915
  621MOL0     H83815   5.124   3.931   5.243 -2.2497  0.7374 -0.0978
  621MOL0     H83816   4.952   3.976   5.419  1.0174  1.3521 -1.3198
  621MOL0     H83817   5.053   4.058   6.050 -1.7420  2.8827  0.2014
  621MOL0     H83818   4.891   4.028   6.234 -2.9390  1.6104  0.3236
  621MOL0     H83819   3.454   3.197   6.021 -0.1225 -0.7528  0.1843
  621MOL0     H83820   3.304   3.242   6.229  0.3187 -0.2707 -0.9090
  621MOL0     H83821   3.179   3.027   6.668 -3.1911 -1.4164 -4.0665
  621MOL0     H83822   3.029   3.113   6.850  0.7151 -1.8304 -1.4471
  621MOL0     H83823   2.822   3.238   6.914  2.8018 -1.4638 -1.5972
  621MOL0     H83824   2.809   3.392   7.014 -0.0560 -0.0326 -0.1516
  621MOL0     H83825   3.017   3.357   7.120 -0.4319 -1.2941  1.4881
  621MOL0     H83826   3.056   3.208   7.032  0.5383 -1.7414  1.9384
  621MOL0     H83827   2.811   3.131   7.137  0.5200 -1.8436  1.9292
  621MOL0     H83828   2.856   3.254   7.247 -0.7664  2.5820 -2.4518
  621MOL0     H83829   2.910   3.026   7.326 -0.1324 -0.1263 -0.2120
  621MOL0     H83830   2.985   2.980   7.178 -0.0840 -1.9089  2.2160
  621MOL0     H83831   3.337   3.140   7.308  0.9826 -2.3577  0.4584
  621MOL0     H83832   3.102   3.522   6.718 -1.9954  0.7057 -0.4861
  621MOL0     H83833   3.231   3.572   6.540 -2.7046 -0.0998 -1.5944
  621MOL0     H83834   3.374   3.461   6.539  0.2487 -1.9391 -3.4863
  621MOL0     H83835   3.254   3.460   6.414  0.1966  3.0465  0.3700
  622MOL0     O83836   9.063  11.072   6.838 -0.1126  1.3796  0.7630
  622MOL0     C83837   9.014  10.989   6.922  0.7080  0.3988  0.0991
  622MOL0     O83838   9.087  10.931   7.029 -0.3655  0.8588  1.0509
  622MOL0     C83839   9.217  10.968   7.024 -0.3458 -0.3839 -0.6799
  622MOL0     C83840   9.257  11.096   7.062 -0.1468 -0.3163 -0.8291
  622MOL0     C83841   9.389  11.121   7.087  0.4875  0.3627 -0.0507
  622MOL0     C83842   9.490  11.025   7.062  0.1940  0.5728 -1.1333
  622MOL0     O83843   9.628  11.047   7.081 -0.1535  0.6202  0.2965
  622MOL0     C83844   9.692  11.162   7.014  0.1810  0.2847 -0.0006
  622MOL0     C83845   9.840  11.149   7.019 -0.4711  0.2197  0.1893
  622MOL0     C83846   9.901  11.023   6.970 -0.3191  0.7466  0.6380
  622MOL0     C83847  10.058  11.032   6.978 -0.0211 -0.2009 -0.5057
  622MOL0     C83848  10.115  10.910   6.901  0.2936  0.1679 -0.5509
  622MOL0     C83849  10.097  10.931   6.739 -0.2582  0.3163  0.2311
  622MOL0     C83850  10.152  10.812   6.659  0.2129  0.0389 -0.6782
  622MOL0     C83851  10.056  10.685   6.645 -0.1140  0.2154  0.8174
  622MOL0     N83852   9.957  10.692   6.531  0.0581  0.1965 -0.6723
  622MOL0     C83853   9.998  10.693   6.398 -0.0485  0.4930 -0.3908
  622MOL0     C83854   9.888  10.646   6.332  0.9238 -0.2547  0.2457
  622MOL0     C83855   9.863  10.616   6.187  0.0824 -0.3058  1.1121
  622MOL0     C83856   9.933  10.719   6.090 -0.3769  0.2802 -0.5365
  622MOL0     C83857   9.887  10.866   6.122  0.0147  0.1208  0.7296
  622MOL0     C83858   9.916  10.969   6.009 -0.3669  0.0702 -0.5718
  622MOL0     O83859  10.027  10.930   5.928 -0.9003  0.1067  0.0352
  622MOL0     C83860  10.157  10.944   5.970  0.2024  0.6380 -0.9924
  622MOL0     C83861  10.208  11.022   6.075 -0.4196  0.1773 -0.0950
  622MOL0     C83862  10.349  11.024   6.096 -0.3315 -0.3880 -0.1328
  622MOL0     C83863  10.435  10.954   6.021  0.0498 -0.3039  0.5275
  622MOL0     C83864  10.581  10.964   6.025  0.6242  0.3324 -0.2891
  622MOL0     O83865  10.637  11.052   6.113 -0.1885  0.0174  0.3411
  622MOL0     C83866  10.776  11.071   6.135  0.0845 -0.0235  0.3610
  622MOL0     C83867  10.860  10.963   6.138  0.0274 -1.1840  0.3562
  622MOL0     C83868  10.994  10.995   6.176 -0.2346 -0.4972  0.5415
  622MOL0     C83869  11.048  11.115   6.233 -0.4001  1.4438  0.1958
  622MOL0     O83870  11.179  11.124   6.270  0.2054  0.3975  0.0697
  622MOL0     C83871  11.224  11.243   6.333 -0.6711 -0.4055 -0.3254
  622MOL0     C83872  11.381  11.263   6.363  0.3730  0.6131  0.8178
  622MOL0     C83873  11.462  11.331   6.251  1.2284  0.8740  0.1741
  622MOL0     C83874  11.577  11.240   6.201 -1.5910 -0.1565  0.5395
  622MOL0     C83875  11.643  11.296   6.074 -0.9541 -0.1965  0.0299
  622MOL0     C83876  11.731  11.188   6.006 -0.5101 -0.1908 -0.1809
  622MOL0     C83877  11.848  11.161   6.095  0.7077  0.2978 -0.0820
  622MOL0     C83878  11.969  11.094   6.046  0.0879  0.6464  0.0176
  622MOL0    Cl83879  12.035  11.165   5.907 -0.1766  0.2206 -0.0200
  622MOL0     C83880  10.949  11.223   6.234 -0.9196  0.0134 -0.9160
  622MOL0     C83881  10.820  11.197   6.186 -0.3814  0.4759  0.4211
  622MOL0     O83882  10.646  10.889   5.949  1.4542 -0.3358 -0.7497
  622MOL0     C83883  10.382  10.858   5.920  0.1139  0.5167  1.3567
  622MOL0     C83884  10.247  10.862   5.899  0.1051 -0.1270  0.0798
  622MOL0     N83885   9.785  10.625   6.419  0.3902  0.0449  0.5437
  622MOL0     N83886   9.833  10.644   6.543  0.5081  1.2035  0.6275
  622MOL0     C83887   9.446  10.898   7.023 -0.6924 -1.6924 -0.3029
  622MOL0     C83888   9.312  10.869   7.004  0.4212 -0.2392 -0.0914
  622MOL0     C83889   8.865  10.960   6.901  0.6092 -0.1124 -0.5785
  622MOL0     C83890   8.830  10.829   6.908  1.3294  0.3295 -0.5510
  622MOL0     C83891   8.697  10.787   6.898  0.1017 -0.6974 -0.1553
  622MOL0     C83892   8.599  10.883   6.865 -0.3871  0.0235  0.5035
  622MOL0     O83893   8.463  10.855   6.840 -0.8376  0.3083 -0.3613
  622MOL0     C83894   8.423  10.715   6.814 -0.7782 -0.2222  1.0534
  622MOL0     C83895   8.388  10.633   6.931  0.0939 -0.1686  0.3420
  622MOL0     C83896   8.260  10.676   7.005 -0.3016  0.5191 -0.2287
  622MOL0     C83897   8.256  10.831   7.019  0.3249  0.5316  0.1311
  622MOL0     C83898   8.154  10.864   7.118 -0.6805  0.5240  0.5509
  622MOL0     C83899   8.067  10.887   7.201 -0.3674  0.9751  0.4503
  622MOL0     C83900   8.635  11.013   6.846  0.1833  0.0753 -0.1765
  622MOL0     C83901   8.764  11.057   6.868 -0.0938  0.5440 -0.1208
  622MOL0     C83902   8.797  11.200   6.857  0.6436 -1.3410 -0.6029
  622MOL0     H83903   9.183  11.173   7.079  1.4659  1.1645 -0.1417
  622MOL0     H83904   9.423  11.217   7.122  1.3170  0.5316 -1.2532
  622MOL0     H83905   9.651  11.178   6.914  1.1577 -1.0177 -0.6431
  622MOL0     H83906   9.667  11.244   7.081  2.6922 -0.0728  1.5307
  622MOL0     H83907   9.883  11.161   7.119  0.4093 -2.2943  0.1812
  622MOL0     H83908   9.870  11.238   6.964 -1.4507 -0.0863 -0.8664
  622MOL0     H83909   9.864  11.008   6.869  0.5721 -2.0059  0.6309
  622MOL0     H83910   9.870  10.940   7.035 -0.9006  0.7724  0.3934
  622MOL0     H83911  10.096  11.124   6.933  1.3873 -0.4061  0.2002
  622MOL0     H83912  10.086  11.028   7.084 -0.9384  1.2708 -0.1751
  622MOL0     H83913  10.221  10.893   6.924 -0.4160 -3.8814  0.4189
  622MOL0     H83914  10.063  10.820   6.933  1.2766 -0.1946  0.0554
  622MOL0     H83915   9.997  10.954   6.702  0.1163 -0.1183 -1.1015
  622MOL0     H83916  10.155  11.019   6.710 -0.6528  1.3086  2.2733
  622MOL0     H83917  10.249  10.788   6.705  0.2552 -0.7746 -1.1580
  622MOL0     H83918  10.178  10.854   6.562  4.0260  2.8550  1.2948
  622MOL0     H83919  10.119  10.597   6.627  0.7971  0.8415  0.9055
  622MOL0     H83920   9.996  10.662   6.733 -1.8266  0.9213 -0.1185
  622MOL0     H83921  10.090  10.726   6.350 -0.0802  3.3789  1.2786
  622MOL0     H83922   9.915  10.520   6.177  3.0082  1.1953  0.5636
  622MOL0     H83923   9.757  10.605   6.165  0.4611 -0.5724 -0.7101
  622MOL0     H83924  10.038  10.709   6.120 -0.4134  2.2558  0.3829
  622MOL0     H83925   9.928  10.697   5.983  1.6378  1.1100 -0.8418
  622MOL0     H83926   9.920  10.903   6.220 -2.5719  0.2054  1.6490
  622MOL0     H83927   9.779  10.861   6.138  0.1894 -1.8002  1.6362
  622MOL0     H83928   9.944  11.061   6.061 -1.4224 -0.4091  0.9510
  622MOL0     H83929   9.824  10.997   5.956  0.6956  0.1109 -2.4499
  622MOL0     H83930  10.149  11.088   6.137  1.1265 -0.3692  2.1045
  622MOL0     H83931  10.383  11.099   6.167 -0.6621  0.6094 -0.9966
  622MOL0     H83932  10.835  10.861   6.111  1.3883 -1.4624  0.0583
  622MOL0     H83933  11.069  10.916   6.173  0.1681 -0.1238 -2.8400
  622MOL0     H83934  11.183  11.330   6.280 -0.4261  0.2036  0.4526
  622MOL0     H83935  11.174  11.242   6.430  1.8263 -0.1346  1.0529
  622MOL0     H83936  11.387  11.323   6.454  0.5420 -0.7710  1.7427
  622MOL0     H83937  11.418  11.162   6.380 -0.5713  0.1026  0.0040
  622MOL0     H83938  11.394  11.349   6.167 -0.4729  0.5450  1.4063
  622MOL0     H83939  11.499  11.425   6.294 -0.3358  0.9768  1.4309
  622MOL0     H83940  11.529  11.145   6.176 -3.0977  0.4248  1.0681
  622MOL0     H83941  11.652  11.221   6.279  1.3877  1.2320 -1.7999
  622MOL0     H83942  11.701  11.388   6.089 -0.2049 -0.5566 -0.5716
  622MOL0     H83943  11.576  11.329   5.995 -0.6730  1.4215  0.4212
  622MOL0     H83944  11.676  11.098   5.977  1.3306 -1.8253  1.1172
  622MOL0     H83945  11.777  11.221   5.913  1.3795 -0.0932  0.7419
  622MOL0     H83946  11.809  11.111   6.184  2.8604  0.3954  0.9738
  622MOL0     H83947  11.877  11.262   6.126 -3.0736  1.5473 -0.0398
  622MOL0     H83948  12.043  11.069   6.123 -1.0573  0.5915  1.1221
  622MOL0     H83949  11.932  11.001   6.002  0.8913  1.1408 -1.8121
  622MOL0     H83950  10.969  11.322   6.274 -3.4436  2.1558 -4.4816
  622MOL0     H83951  10.737  11.267   6.182  0.5722  1.6089 -0.1718
  622MOL0     H83952  10.447  10.796   5.860  1.7032  0.3924  3.1024
  622MOL0     H83953  10.199  10.800   5.824  2.8393 -1.3957 -0.7691
  622MOL0     H83954   9.525  10.827   7.001 -0.2534 -1.1796 -0.4190
  622MOL0     H83955   9.284  10.770   6.970  3.3573 -0.8520 -1.0371
  622MOL0     H83956   8.898  10.747   6.930 -2.1585 -2.9561 -0.9699
  622MOL0     H83957   8.682  10.682   6.920  5.9104 -1.8694 -0.1882
  622MOL0     H83958   8.506  10.667   6.762  1.0868  2.7157  1.0776
  622MOL0     H83959   8.337  10.718   6.747 -0.0525 -0.1160  0.1092
  622MOL0     H83960   8.469  10.646   7.003  0.6698 -0.0728 -0.3112
  622MOL0     H83961   8.384  10.527   6.902  0.9005 -0.2324  0.4466
  622MOL0     H83962   8.272  10.621   7.099  1.2394 -2.2263 -1.8843
  622MOL0     H83963   8.173  10.653   6.944  0.1840  0.3725 -0.8698
  622MOL0     H83964   8.347  10.875   7.062 -0.5768  1.7379  0.8823
  622MOL0     H83965   8.238  10.882   6.924 -1.5651  1.0559  0.7208
  622MOL0     H83966   7.994  10.894   7.279 -1.3810  1.8729 -0.5558
  622MOL0     H83967   8.565  11.085   6.804 -0.8120  0.3745  1.8655
  622MOL0     H83968   8.858  11.224   6.769  1.6636 -2.6244 -0.2846
  622MOL0     H83969   8.704  11.256   6.857 -1.6115 -4.7707  0.1336
  622MOL0     H83970   8.848  11.236   6.947  1.1267  1.4937 -1.9071
  623MOL0     O83971   5.567   4.564   9.459  0.8480  0.5323  0.0633
  623MOL0     C83972   5.539   4.457   9.514  0.1390 -1.0966 -0.2844
  623MOL0     O83973   5.564   4.333   9.461 -0.1887 -0.0479  0.4855
  623MOL0     C83974   5.623   4.316   9.338 -0.2749  0.7302  0.5737
  623MOL0     C83975   5.729   4.223   9.330 -0.4678 -1.3196 -0.3336
  623MOL0     C83976   5.779   4.203   9.202  0.1727 -0.2674  0.6311
  623MOL0     C83977   5.725   4.251   9.080 -0.4398  0.2291  0.0053
  623MOL0     O83978   5.779   4.231   8.955  0.2613  0.0980 -0.2118
  623MOL0     C83979   5.903   4.159   8.943 -0.1479 -0.9947 -0.1803
  623MOL0     C83980   5.943   4.169   8.800 -0.2489  0.0635 -0.6998
  623MOL0     C83981   6.080   4.108   8.761 -0.5859 -0.3222 -0.3002
  623MOL0     C83982   6.115   4.134   8.615 -0.9480 -0.0509 -0.1964
  623MOL0     C83983   6.194   4.267   8.601 -0.2673  0.6533  0.3142
  623MOL0     C83984   6.234   4.293   8.450  0.8474  0.9447 -0.2754
  623MOL0     C83985   6.269   4.444   8.420  0.0666  0.3209  0.2944
  623MOL0     C83986   6.415   4.474   8.459 -0.2802 -0.5494  0.3212
  623MOL0     N83987   6.481   4.597   8.401 -0.1283  0.2232  0.1428
  623MOL0     C83988   6.578   4.594   8.303 -0.3999 -1.1000 -0.3337
  623MOL0     C83989   6.640   4.719   8.299  0.6673  0.8058  0.0932
  623MOL0     C83990   6.756   4.758   8.219  0.3950 -0.0116  0.1479
  623MOL0     C83991   6.855   4.857   8.292 -0.5078  0.8280  0.3334
  623MOL0     C83992   6.913   4.795   8.425  0.1595 -0.1945 -0.3925
  623MOL0     C83993   7.002   4.668   8.409  0.3406 -0.8709  0.4812
  623MOL0     O83994   6.918   4.545   8.388 -0.0551 -0.0805 -0.7730
  623MOL0     C83995   6.988   4.441   8.324  0.3136 -0.6471  0.2341
  623MOL0     C83996   6.920   4.375   8.232 -0.1254 -0.2212 -0.5736
  623MOL0     C83997   6.975   4.263   8.171 -0.5076  0.2751 -0.4996
  623MOL0     C83998   7.112   4.231   8.200 -0.2560  0.4718 -0.3750
  623MOL0     C83999   7.175   4.112   8.143 -0.3175  0.3960  0.2889
  623MOL0     O84000   7.306   4.078   8.182 -0.2930 -0.0183 -0.1958
  623MOL0     C84001   7.378   3.987   8.112  0.4535 -0.1208  1.1353
  623MOL0     C84002   7.324   3.857   8.089 -0.1656 -1.2275 -0.9520
  623MOL0     C84003   7.394   3.760   8.027  0.2447 -0.0361 -0.1555
  623MOL0     C84004   7.517   3.794   7.972  0.6944  0.1986  0.6503
  623MOL0     O84005   7.604   3.701   7.916  0.4406 -0.1547  0.1627
  623MOL0     C84006   7.554   3.566   7.886 -0.0853  0.0061 -0.2801
  623MOL0     C84007   7.634   3.468   7.791  0.6031  0.2582 -0.2583
  623MOL0     C84008   7.770   3.435   7.860  0.3299  0.3688  0.5465
  623MOL0     C84009   7.844   3.321   7.785  0.4180  0.2387 -0.2904
  623MOL0     C84010   7.956   3.253   7.869  0.2347  0.4455  0.2525
  623MOL0     C84011   7.913   3.176   7.998 -0.5482 -0.0285  0.2208
  623MOL0     C84012   8.035   3.071   8.036 -0.1345 -0.2059 -0.1792
  623MOL0     C84013   8.007   2.989   8.166  0.1268  2.2416 -0.3968
  623MOL0    Cl84014   7.989   3.085   8.317 -0.3359  0.0008 -0.1323
  623MOL0     C84015   7.557   3.928   7.980 -0.2902  0.4981 -0.3747
  623MOL0     C84016   7.493   4.022   8.055  0.2354 -0.1828  0.5626
  623MOL0     O84017   7.102   4.044   8.070  0.0209  0.3179  0.3351
  623MOL0     C84018   7.182   4.302   8.291 -0.1964 -0.1829  0.1002
  623MOL0     C84019   7.122   4.412   8.354  0.3501  0.0934  0.6213
  623MOL0     N84020   6.571   4.799   8.386 -0.1780 -0.0774  0.4514
  623MOL0     N84021   6.478   4.732   8.436  0.3591 -0.1861 -0.4579
  623MOL0     C84022   5.611   4.333   9.096 -0.4013 -0.3945  0.5222
  623MOL0     C84023   5.563   4.370   9.226  0.4959 -0.7703 -0.9593
  623MOL0     C84024   5.474   4.472   9.643  0.7097  0.8143  0.2876
  623MOL0     C84025   5.514   4.587   9.719 -0.5410  0.0396 -0.2052
  623MOL0     C84026   5.460   4.606   9.851 -0.5060  0.4452  0.5679
  623MOL0     C84027   5.373   4.518   9.900 -0.2166 -0.6146  1.4123
  623MOL0     O84028   5.323   4.558  10.019  0.1338  0.2298 -0.0493
  623MOL0     C84029   5.337   4.460  10.125 -0.5376  0.1376 -0.0220
  623MOL0     C84030   5.283   4.537  10.246 -0.4267  0.2931 -0.2198
  623MOL0     C84031   5.390   4.640  10.308  0.9708 -0.7268 -0.5244
  623MOL0     C84032   5.349   4.716  10.436 -0.1293 -0.3455 -0.4209
  623MOL0     C84033   5.444   4.824  10.450  0.0311  0.0975 -0.5292
  623MOL0     C84034   5.520   4.922  10.457 -0.7747  0.1496 -0.4464
  623MOL0     C84035   5.325   4.418   9.825 -0.3993 -0.5057  0.0701
  623MOL0     C84036   5.369   4.389   9.693 -0.4637  0.1904  0.8921
  623MOL0     C84037   5.293   4.278   9.614 -0.2223 -1.1527 -0.4477
  623MOL0     H84038   5.778   4.182   9.418  1.1542 -1.2761 -1.1910
  623MOL0     H84039   5.860   4.131   9.192 -0.8795 -1.3852 -0.0690
  623MOL0     H84040   5.972   4.216   9.007 -2.6766 -1.1137  2.9197
  623MOL0     H84041   5.902   4.055   8.977  0.1408  0.1011  3.6906
  623MOL0     H84042   5.933   4.275   8.773  2.5190  0.9277  1.2255
  623MOL0     H84043   5.859   4.127   8.744 -0.2339 -3.0547  1.4001
  623MOL0     H84044   6.092   4.001   8.779 -1.6572 -1.4427 -5.0202
  623MOL0     H84045   6.153   4.161   8.824 -0.7137 -0.0429 -0.3885
  623MOL0     H84046   6.182   4.054   8.583  1.1896  0.9743  1.4284
  623MOL0     H84047   6.021   4.142   8.560 -1.1588  4.3203  0.3965
  623MOL0     H84048   6.139   4.350   8.645  1.2619  1.2517  1.2104
  623MOL0     H84049   6.284   4.257   8.663 -0.1260  1.9652  0.3585
  623MOL0     H84050   6.324   4.236   8.426  2.9874  2.7156  2.8248
  623MOL0     H84051   6.154   4.246   8.392 -0.0729  1.4080  0.5903
  623MOL0     H84052   6.194   4.502   8.475  0.4374 -0.8503  2.1418
  623MOL0     H84053   6.259   4.472   8.315 -2.1673  2.4171  0.9601
  623MOL0     H84054   6.407   4.489   8.567  2.8993  1.6275  0.3648
  623MOL0     H84055   6.476   4.388   8.432  1.4056  1.2520 -2.1439
  623MOL0     H84056   6.608   4.511   8.240 -2.3027  0.0318 -2.9325
  623MOL0     H84057   6.805   4.663   8.198 -1.2971 -1.0802  0.8192
  623MOL0     H84058   6.717   4.801   8.126  0.7461 -2.0648 -1.0103
  623MOL0     H84059   6.941   4.888   8.232 -0.4484  1.5220  0.7719
  623MOL0     H84060   6.799   4.948   8.314 -1.3862  0.3297  0.2041
  623MOL0     H84061   6.832   4.754   8.486  1.5087 -2.7104 -0.1567
  623MOL0     H84062   6.970   4.866   8.485  2.8079 -1.4282 -1.2838
  623MOL0     H84063   7.063   4.669   8.499 -1.1286  0.4873  1.4970
  623MOL0     H84064   7.071   4.680   8.325 -1.1491  0.3739 -0.6308
  623MOL0     H84065   6.813   4.395   8.230 -0.1659 -0.1299  1.1763
  623MOL0     H84066   6.916   4.197   8.109 -2.2853 -1.3523  2.6444
  623MOL0     H84067   7.225   3.836   8.130  0.1192 -0.0273  0.4557
  623MOL0     H84068   7.352   3.662   8.007 -3.6812  1.4928 -0.4446
  623MOL0     H84069   7.552   3.520   7.985  0.4950  0.5461 -0.0088
  623MOL0     H84070   7.451   3.574   7.849 -0.4706 -1.4666  0.4237
  623MOL0     H84071   7.582   3.372   7.790  0.3464  0.3775  0.8573
  623MOL0     H84072   7.652   3.502   7.688 -1.9219  1.9382 -0.2497
  623MOL0     H84073   7.830   3.524   7.840  3.4999 -2.1337 -2.2946
  623MOL0     H84074   7.768   3.403   7.965  2.5673  0.5040  0.6712
  623MOL0     H84075   7.897   3.361   7.698  2.7691 -1.9865  0.0177
  623MOL0     H84076   7.769   3.246   7.758  1.3905 -1.3144  1.1364
  623MOL0     H84077   8.026   3.331   7.900  1.1918 -0.9886  1.9200
  623MOL0     H84078   8.026   3.188   7.816  1.0192  0.3727  1.3254
  623MOL0     H84079   7.914   3.247   8.081  2.3138  0.2412  0.0674
  623MOL0     H84080   7.812   3.137   7.986 -0.3234 -0.9194  1.0965
  623MOL0     H84081   8.126   3.124   8.066  0.1911 -2.2038  2.8288
  623MOL0     H84082   8.052   3.002   7.953 -1.5293  0.2005 -0.8254
  623MOL0     H84083   7.909   2.944   8.145  0.2407  2.2666 -1.0007
  623MOL0     H84084   8.080   2.908   8.172 -1.3456  0.9649  4.5386
  623MOL0     H84085   7.654   3.942   7.933 -1.1562 -0.5966 -2.6669
  623MOL0     H84086   7.538   4.121   8.063  0.3222 -0.3100  1.8949
  623MOL0     H84087   7.283   4.278   8.320 -1.1982 -0.7253  3.5530
  623MOL0     H84088   7.175   4.454   8.439 -0.1228 -2.1590  2.0993
  623MOL0     H84089   5.559   4.379   9.012  0.5533  2.3697  1.3322
  623MOL0     H84090   5.477   4.435   9.236 -0.6390 -2.4790  1.3828
  623MOL0     H84091   5.596   4.652   9.693 -0.2627  1.3462  3.3339
  623MOL0     H84092   5.464   4.699   9.907 -2.7365  1.1761 -0.3901
  623MOL0     H84093   5.440   4.425  10.136 -0.2700 -0.4254 -3.1477
  623MOL0     H84094   5.276   4.371  10.110  0.5714 -0.4624 -1.1657
  623MOL0     H84095   5.260   4.454  10.313  3.3763 -0.9119 -0.1633
  623MOL0     H84096   5.186   4.578  10.217 -0.2253 -0.2762 -1.7790
  623MOL0     H84097   5.404   4.714  10.229 -0.7875  1.2593  0.9039
  623MOL0     H84098   5.480   4.578  10.315  1.1347 -0.5395 -0.9634
  623MOL0     H84099   5.249   4.760  10.433 -0.2484 -0.5676  0.0716
  623MOL0     H84100   5.352   4.659  10.530  0.6910  1.5888  0.7765
  623MOL0     H84101   5.605   4.985  10.475  1.4292 -3.2333  2.1412
  623MOL0     H84102   5.264   4.336   9.863  0.8573 -1.5222 -0.0307
  623MOL0     H84103   5.352   4.186   9.617  0.2552 -0.9228 -1.8545
  623MOL0     H84104   5.198   4.261   9.665 -0.0993 -0.5980 -0.0197
  623MOL0     H84105   5.275   4.301   9.509 -0.4906 -2.0297 -0.5999
  624MOL0     O84106   8.453   0.239   9.660 -0.9444 -0.0081  0.0890
  624MOL0     C84107   8.486   0.355   9.689  0.1828 -0.4670  0.3624
  624MOL0     O84108   8.615   0.402   9.709 -0.4808  0.7183 -0.4864
  624MOL0     C84109   8.721   0.316   9.735  0.7400 -1.0560  0.0209
  624MOL0     C84110   8.801   0.351   9.844  0.6054 -0.5398 -0.2844
  624MOL0     C84111   8.925   0.279   9.870  0.9574  0.6148 -0.4523
  624MOL0     C84112   8.966   0.188   9.770  0.3055  0.7279 -0.1265
  624MOL0     O84113   9.085   0.116   9.764 -0.0120  0.4210 -0.6549
  624MOL0     C84114   9.205   0.186   9.806 -0.3965 -1.3781  0.4002
  624MOL0     C84115   9.313   0.076   9.840  0.8868 -0.3030 -0.4680
  624MOL0     C84116   9.275   0.016   9.977  0.5125  0.1801  0.1943
  624MOL0     C84117   9.258  -0.137   9.985 -0.9267 -0.0208 -0.2189
  624MOL0     C84118   9.134  -0.189   9.910 -0.1850 -0.1744 -0.3436
  624MOL0     C84119   9.125  -0.345   9.939 -0.5155 -0.5838  1.0332
  624MOL0     C84120   9.243  -0.423   9.879  0.3321  0.4673  0.6239
  624MOL0     C84121   9.188  -0.563   9.833 -0.2825 -0.2496  0.3714
  624MOL0     N84122   9.298  -0.665   9.812 -0.3346  0.5963 -0.0092
  624MOL0     C84123   9.278  -0.789   9.767 -1.0312 -0.1220  0.0221
  624MOL0     C84124   9.402  -0.849   9.777 -0.1666 -0.1052 -0.9030
  624MOL0     C84125   9.420  -1.000   9.773  0.1745 -0.3679 -0.2637
  624MOL0     C84126   9.329  -1.072   9.870 -0.6507 -0.5048  0.2595
  624MOL0     C84127   9.332  -1.218   9.848 -0.1753 -0.3140  0.1512
  624MOL0     C84128   9.465  -1.273   9.920  0.6185 -0.2512 -0.4701
  624MOL0     O84129   9.565  -1.262   9.813 -0.6787  0.3738 -0.1841
  624MOL0     C84130   9.704  -1.251   9.839  0.7124 -0.1068  0.0882
  624MOL0     C84131   9.784  -1.245   9.724 -0.5426 -0.5687  0.3419
  624MOL0     C84132   9.923  -1.224   9.730 -0.2934  0.0210 -0.5026
  624MOL0     C84133   9.982  -1.220   9.858  0.0315 -0.2746  0.5415
  624MOL0     C84134  10.132  -1.204   9.875 -0.2069 -0.7337  0.4936
  624MOL0     O84135  10.190  -1.197   9.997  0.2193  0.5155  0.0230
  624MOL0     C84136  10.324  -1.213  10.009 -0.5313 -0.0993  0.2927
  624MOL0     C84137  10.390  -1.324  10.065 -0.4880  1.6827  0.0076
  624MOL0     C84138  10.534  -1.336  10.065  0.2425  0.5551  0.5135
  624MOL0     C84139  10.614  -1.233  10.023 -1.1064  0.5134  0.0956
  624MOL0     O84140  10.750  -1.233  10.029 -0.2435 -0.9602 -0.6370
  624MOL0     C84141  10.812  -1.335   9.950  0.1424 -0.0805  0.5902
  624MOL0     C84142  10.877  -1.255   9.838  0.1372 -0.2069 -0.2062
  624MOL0     C84143  11.008  -1.310   9.799  0.1171  0.8337  0.4954
  624MOL0     C84144  10.990  -1.451   9.741 -0.1586 -1.0886  0.0356
  624MOL0     C84145  11.120  -1.494   9.689 -0.7856  0.0235 -0.3189
  624MOL0     C84146  11.235  -1.498   9.787  0.2969 -0.0491  0.0032
  624MOL0     C84147  11.351  -1.590   9.729  0.0956 -0.5939 -0.0150
  624MOL0     C84148  11.477  -1.568   9.810  0.8427 -0.5843 -0.4529
  624MOL0    Cl84149  11.459  -1.659   9.962  0.6058  0.0156  0.1426
  624MOL0     C84150  10.551  -1.107   9.981  0.3111  0.4204 -0.2202
  624MOL0     C84151  10.409  -1.109   9.965 -0.4252  0.1548 -0.3370
  624MOL0     O84152  10.188  -1.176   9.770 -0.1054  0.4198  0.2009
  624MOL0     C84153   9.901  -1.227   9.972  0.0155 -0.0308  0.1797
  624MOL0     C84154   9.760  -1.236   9.970  0.3103  0.3502 -0.1402
  624MOL0     N84155   9.495  -0.761   9.837 -0.6075  0.4736 -0.0231
  624MOL0     N84156   9.429  -0.657   9.855 -0.1034 -0.4760 -0.9978
  624MOL0     C84157   8.886   0.155   9.660 -0.4930  0.2510 -0.2811
  624MOL0     C84158   8.765   0.218   9.641 -0.9052  0.8633  0.0875
  624MOL0     C84159   8.386   0.460   9.686  0.0017 -0.3504  0.1747
  624MOL0     C84160   8.260   0.416   9.647 -0.4829  0.6195  0.6270
  624MOL0     C84161   8.154   0.503   9.663  0.0546 -0.0806  0.4603
  624MOL0     C84162   8.173   0.635   9.691  0.4998 -1.0368 -0.0179
  624MOL0     O84163   8.082   0.740   9.701 -0.0161 -0.5686 -0.2297
  624MOL0     C84164   7.944   0.724   9.679 -0.7684 -0.2127 -0.2212
  624MOL0     C84165   7.906   0.726   9.528  0.0862  0.6700 -0.4483
  624MOL0     C84166   7.963   0.846   9.459 -0.3234 -1.1863 -0.3520
  624MOL0     C84167   7.906   0.877   9.315 -0.0200 -0.3455  0.8471
  624MOL0     C84168   7.969   0.991   9.251 -0.4085 -0.8627 -0.6058
  624MOL0     C84169   8.010   1.087   9.186 -0.5168  0.5965 -1.0808
  624MOL0     C84170   8.300   0.681   9.708  0.2052 -0.6471  0.5397
  624MOL0     C84171   8.406   0.598   9.719 -0.1643  0.3000  0.0493
  624MOL0     C84172   8.536   0.666   9.747 -1.4134  0.9767  0.0732
  624MOL0     H84173   8.754   0.421   9.912  0.6552 -1.6070  0.9105
  624MOL0     H84174   8.976   0.304   9.962  0.0985  0.8044 -0.0178
  624MOL0     H84175   9.239   0.240   9.717 -0.3090 -5.6222 -2.4770
  624MOL0     H84176   9.183   0.249   9.893 -0.2042  0.2831 -0.7107
  624MOL0     H84177   9.408   0.130   9.843  0.1132  1.1987 -1.4213
  624MOL0     H84178   9.320  -0.003   9.766 -0.9487 -4.6189  3.4732
  624MOL0     H84179   9.187   0.065  10.021 -0.7252 -1.0642 -0.8303
  624MOL0     H84180   9.358   0.051  10.039  0.7027  2.1857 -1.0654
  624MOL0     H84181   9.350  -0.175   9.939 -0.5562  1.4910 -0.8015
  624MOL0     H84182   9.254  -0.163  10.091  0.8370  0.9801  0.1411
  624MOL0     H84183   9.039  -0.143   9.937 -0.6243  0.4672 -2.7743
  624MOL0     H84184   9.148  -0.163   9.805 -0.8799  2.4349  0.1515
  624MOL0     H84185   9.128  -0.352  10.048 -1.0309  1.7183  1.2476
  624MOL0     H84186   9.032  -0.381   9.893  1.1458 -0.6516 -2.6228
  624MOL0     H84187   9.323  -0.436   9.953  4.7259 -2.3476 -4.0076
  624MOL0     H84188   9.298  -0.377   9.796  1.9485 -0.4874  1.1252
  624MOL0     H84189   9.113  -0.596   9.905 -1.2224 -2.1131 -1.3539
  624MOL0     H84190   9.139  -0.565   9.735 -0.2515  0.3937  0.3399
  624MOL0     H84191   9.180  -0.820   9.732 -1.6932  1.9395 -0.0349
  624MOL0     H84192   9.406  -1.034   9.669  0.2615 -1.2660  0.0105
  624MOL0     H84193   9.519  -1.029   9.809  0.1982 -1.5547 -1.2192
  624MOL0     H84194   9.349  -1.037   9.971 -0.4828  3.4700 -0.9778
  624MOL0     H84195   9.227  -1.037   9.853 -1.9536 -4.0293  0.0211
  624MOL0     H84196   9.333  -1.253   9.744  2.0661  0.2880 -0.0797
  624MOL0     H84197   9.250  -1.256   9.910 -0.1735  3.2918  2.6368
  624MOL0     H84198   9.455  -1.378   9.950  0.6133  0.1482  1.0061
  624MOL0     H84199   9.484  -1.217  10.012 -0.7188 -0.4062 -0.0663
  624MOL0     H84200   9.729  -1.250   9.631 -2.6825 -0.5789  1.5467
  624MOL0     H84201   9.974  -1.231   9.635  0.2240  5.4206 -0.9571
  624MOL0     H84202  10.323  -1.407  10.085 -1.2412  1.3777 -3.2098
  624MOL0     H84203  10.581  -1.424  10.105 -0.6989 -0.7267 -1.0833
  624MOL0     H84204  10.886  -1.393  10.005 -0.9300  0.3034  2.5282
  624MOL0     H84205  10.746  -1.414   9.913  0.2109  1.3312 -3.0338
  624MOL0     H84206  10.808  -1.244   9.754  0.1963 -2.4961 -0.6156
  624MOL0     H84207  10.899  -1.153   9.870  0.3941  0.2369 -1.7052
  624MOL0     H84208  11.053  -1.251   9.719  0.3985  1.0498  0.8144
  624MOL0     H84209  11.078  -1.305   9.882  2.1534 -1.5186 -0.9293
  624MOL0     H84210  10.928  -1.448   9.651  0.5186 -2.2481 -0.5027
  624MOL0     H84211  10.945  -1.526   9.806 -1.7674 -1.4954 -1.4594
  624MOL0     H84212  11.160  -1.447   9.598  0.1467 -1.2038 -0.5661
  624MOL0     H84213  11.103  -1.596   9.655  0.3206 -0.2169 -0.1825
  624MOL0     H84214  11.277  -1.400   9.811 -0.2179  0.5008 -1.2036
  624MOL0     H84215  11.189  -1.537   9.878  2.2575 -0.3129  0.9424
  624MOL0     H84216  11.360  -1.557   9.625 -0.7586  1.7838  0.6092
  624MOL0     H84217  11.330  -1.697   9.735 -1.4044 -0.2654  1.2020
  624MOL0     H84218  11.557  -1.603   9.744  1.2773  2.6638 -1.8618
  624MOL0     H84219  11.499  -1.462   9.829 -0.8415  0.0513 -1.8067
  624MOL0     H84220  10.604  -1.016   9.954 -0.1658  0.3395 -1.4674
  624MOL0     H84221  10.349  -1.025   9.930 -4.1302 -2.7859 -1.6756
  624MOL0     H84222   9.945  -1.225  10.071 -2.1057 -1.9003  1.2523
  624MOL0     H84223   9.687  -1.238  10.050 -1.2635  1.6810 -1.4851
  624MOL0     H84224   8.918   0.078   9.591  0.8004 -0.3397  0.9401
  624MOL0     H84225   8.712   0.193   9.550  1.6205 -0.5188 -1.0994
  624MOL0     H84226   8.247   0.314   9.614 -1.1824  0.5998  0.9540
  624MOL0     H84227   8.058   0.458   9.643  1.1308 -2.1772 -0.3378
  624MOL0     H84228   7.894   0.808   9.727  1.1011  1.2664 -0.7601
  624MOL0     H84229   7.915   0.630   9.727  1.2618 -0.2187  1.1391
  624MOL0     H84230   7.803   0.715   9.493  0.3385 -0.2213 -0.9389
  624MOL0     H84231   7.959   0.641   9.484  2.3220 -1.6249  5.6062
  624MOL0     H84232   8.071   0.843   9.445 -0.1108  1.9759 -0.0444
  624MOL0     H84233   7.948   0.932   9.526  3.5818 -1.6525  1.4120
  624MOL0     H84234   7.927   0.792   9.251 -0.0815 -0.0153  0.3797
  624MOL0     H84235   7.798   0.869   9.299  0.3598  1.2379 -4.5701
  624MOL0     H84236   8.058   1.168   9.134 -0.9536  1.3367 -0.3504
  624MOL0     H84237   8.314   0.786   9.734  1.0937 -0.7616  0.5813
  624MOL0     H84238   8.537   0.776   9.741  5.4783  1.3537 -0.2982
  624MOL0     H84239   8.576   0.629   9.841 -1.0101 -1.9418 -1.1530
  624MOL0     H84240   8.598   0.640   9.661  1.0159  1.5685  1.5582
  625MOL0     O84241   8.811   4.164   9.459 -0.2720  0.0215  0.8855
  625MOL0     C84242   8.814   4.258   9.536  0.3888 -0.0891  0.5530
  625MOL0     O84243   8.708   4.295   9.615 -0.7366  0.2460  0.2312
  625MOL0     C84244   8.589   4.225   9.617  0.5974 -0.2341 -0.3974
  625MOL0     C84245   8.576   4.088   9.575 -0.0956 -0.3610 -0.2401
  625MOL0     C84246   8.447   4.035   9.568 -0.1622 -0.5479  1.8482
  625MOL0     C84247   8.332   4.106   9.616  0.3684 -0.4025 -0.1164
  625MOL0     O84248   8.213   4.035   9.616 -0.2213 -0.4947  0.6511
  625MOL0     C84249   8.097   4.117   9.639 -1.0035  0.6825 -0.0929
  625MOL0     C84250   7.963   4.041   9.629  0.6745 -0.2047  0.9082
  625MOL0     C84251   7.957   3.909   9.709  0.3917 -0.0819 -0.0768
  625MOL0     C84252   7.817   3.846   9.724  0.0898  0.1407 -0.1924
  625MOL0     C84253   7.788   3.699   9.778  0.5376 -0.3075 -0.1354
  625MOL0     C84254   7.640   3.671   9.748  0.5694 -0.8363  0.0211
  625MOL0     C84255   7.610   3.520   9.755  0.3622  1.1589  1.2186
  625MOL0     C84256   7.702   3.416   9.685 -0.5733  0.0143 -0.3827
  625MOL0     N84257   7.708   3.448   9.540 -0.6860  0.4985 -0.2457
  625MOL0     C84258   7.658   3.354   9.449  0.7958 -0.6541  0.7128
  625MOL0     C84259   7.705   3.398   9.331  1.1255  0.3542 -0.3838
  625MOL0     C84260   7.671   3.336   9.194  0.9886  0.7086  1.0148
  625MOL0     C84261   7.664   3.440   9.077 -0.4158  0.9619 -1.3659
  625MOL0     C84262   7.665   3.380   8.937  0.2440  0.9212  0.2814
  625MOL0     C84263   7.544   3.435   8.863 -0.0050 -0.6703  0.8147
  625MOL0     O84264   7.528   3.580   8.862  0.4302 -0.2836 -0.4219
  625MOL0     C84265   7.625   3.659   8.811  0.1311  0.6771  0.1052
  625MOL0     C84266   7.707   3.614   8.709  0.4138 -0.1712 -0.5356
  625MOL0     C84267   7.814   3.699   8.670 -0.0730 -0.2976 -0.2098
  625MOL0     C84268   7.849   3.807   8.745 -1.0571 -0.4726 -0.6907
  625MOL0     C84269   7.967   3.888   8.699  0.7406 -0.2964  0.8127
  625MOL0     O84270   7.993   4.000   8.768  0.1427  0.4746 -0.4038
  625MOL0     C84271   8.090   4.088   8.721  0.1649  0.9574  0.1340
  625MOL0     C84272   8.065   4.188   8.625 -0.6615  0.0785  0.8171
  625MOL0     C84273   8.176   4.271   8.590  0.5463 -0.1920  0.7334
  625MOL0     C84274   8.301   4.259   8.650 -0.4007 -0.1416  0.8543
  625MOL0     O84275   8.404   4.342   8.625 -0.4336 -0.5703 -0.1392
  625MOL0     C84276   8.392   4.426   8.509 -0.0091  0.1350  0.2415
  625MOL0     C84277   8.485   4.548   8.522 -0.0611  0.3316  0.0453
  625MOL0     C84278   8.511   4.615   8.386  0.4568 -0.0668  0.0031
  625MOL0     C84279   8.619   4.724   8.408  0.1459  0.6959 -0.4153
  625MOL0     C84280   8.755   4.672   8.465  0.2184  0.8443 -0.0162
  625MOL0     C84281   8.864   4.775   8.457 -1.1302 -1.1143 -0.2755
  625MOL0     C84282   8.832   4.894   8.560  0.2061  0.5818  0.1878
  625MOL0     C84283   8.922   5.017   8.537 -0.6584  0.4867  0.2821
  625MOL0    Cl84284   8.843   5.140   8.440 -0.3029  0.0522  0.3239
  625MOL0     C84285   8.318   4.172   8.753  0.8185  0.2223  0.7375
  625MOL0     C84286   8.211   4.076   8.783  0.2193  0.2190 -0.4575
  625MOL0     O84287   8.027   3.852   8.597  0.3246 -0.2537 -0.4310
  625MOL0     C84288   7.764   3.852   8.844  0.4903  0.1257  0.0235
  625MOL0     C84289   7.649   3.780   8.867 -0.0326  0.1109 -0.2488
  625MOL0     N84290   7.765   3.519   9.349  0.2487 -0.1111 -0.4867
  625MOL0     N84291   7.765   3.551   9.476  0.0090  0.7625  0.1102
  625MOL0     C84292   8.355   4.237   9.660  0.2691 -0.5846  0.0830
  625MOL0     C84293   8.477   4.300   9.651 -0.0011 -0.7797 -0.0440
  625MOL0     C84294   8.937   4.346   9.526  0.5816  0.2942 -0.2495
  625MOL0     C84295   8.921   4.476   9.546 -0.4157 -0.0312  0.0303
  625MOL0     C84296   9.023   4.566   9.535  0.3696 -0.4878 -0.1362
  625MOL0     C84297   9.159   4.524   9.521 -0.6482  0.4855  0.2870
  625MOL0     O84298   9.258   4.617   9.490 -0.0832  0.6477  0.3555
  625MOL0     C84299   9.244   4.745   9.546 -0.4921  0.1224  0.7072
  625MOL0     C84300   9.369   4.829   9.533  0.2916  0.6610 -0.6432
  625MOL0     C84301   9.456   4.801   9.659  0.1680  0.0051  0.1426
  625MOL0     C84302   9.581   4.878   9.664  0.5334 -0.0530  0.7177
  625MOL0     C84303   9.654   4.846   9.786  0.5358 -0.2128  0.2735
  625MOL0     C84304   9.713   4.823   9.895  0.0901 -0.0799  0.8056
  625MOL0     C84305   9.181   4.389   9.531 -0.8747  0.6604  0.6108
  625MOL0     C84306   9.077   4.294   9.523 -0.0180  0.0370 -0.5106
  625MOL0     C84307   9.114   4.151   9.534 -0.0412  0.8561  0.4558
  625MOL0     H84308   8.657   4.018   9.562  1.4940  1.4078 -0.3916
  625MOL0     H84309   8.427   3.937   9.526  0.6791  0.5873 -1.5176
  625MOL0     H84310   8.097   4.182   9.726  0.9064  4.0280 -2.3532
  625MOL0     H84311   8.084   4.183   9.552 -1.3343  2.0195  0.9433
  625MOL0     H84312   7.938   4.008   9.528  1.6094 -3.8207  1.7185
  625MOL0     H84313   7.880   4.108   9.657  1.0739  0.6791  0.0329
  625MOL0     H84314   8.001   3.923   9.808 -3.4748 -0.9343  1.9942
  625MOL0     H84315   8.010   3.826   9.664 -1.9209 -0.7469 -1.7726
  625MOL0     H84316   7.750   3.911   9.781  0.3937  2.3663 -2.1741
  625MOL0     H84317   7.768   3.858   9.627 -1.2509  2.8131  0.6924
  625MOL0     H84318   7.865   3.639   9.728  1.8946  1.6638 -0.5117
  625MOL0     H84319   7.802   3.700   9.886  1.4488  2.5121 -0.2047
  625MOL0     H84320   7.584   3.730   9.821  1.9599  3.2223 -1.9146
  625MOL0     H84321   7.623   3.706   9.646  1.2179  1.3864  0.6252
  625MOL0     H84322   7.510   3.503   9.715  0.5132  1.1977  0.8254
  625MOL0     H84323   7.616   3.483   9.858  3.4595  0.6379  0.9417
  625MOL0     H84324   7.806   3.421   9.718 -0.5494  3.1768 -0.6566
  625MOL0     H84325   7.662   3.316   9.708  0.5750 -0.3184  0.2550
  625MOL0     H84326   7.595   3.266   9.460 -0.7135  0.3490  0.4032
  625MOL0     H84327   7.753   3.265   9.178 -0.7367 -1.0393 -0.6092
  625MOL0     H84328   7.578   3.279   9.189  0.4199  1.6872 -0.1490
  625MOL0     H84329   7.564   3.472   9.109 -0.0872  0.5652  0.1422
  625MOL0     H84330   7.740   3.517   9.094 -0.6237  0.7722  0.7354
  625MOL0     H84331   7.638   3.274   8.931 -1.7484  1.3695  0.7371
  625MOL0     H84332   7.761   3.403   8.889  0.9111  1.4098  1.7956
  625MOL0     H84333   7.454   3.394   8.909  0.9862 -1.9701  1.6715
  625MOL0     H84334   7.542   3.398   8.760  0.0801  2.1165 -0.2537
  625MOL0     H84335   7.693   3.518   8.660  2.3427 -1.2183  0.7792
  625MOL0     H84336   7.882   3.673   8.589  0.8523  4.5924 -1.3359
  625MOL0     H84337   7.969   4.204   8.576 -0.7981 -0.2422  0.9755
  625MOL0     H84338   8.134   4.341   8.518  0.0817 -0.5909  0.6180
  625MOL0     H84339   8.400   4.370   8.415 -3.5429 -3.1981  1.6574
  625MOL0     H84340   8.292   4.469   8.504 -1.7103 -3.4849  0.5489
  625MOL0     H84341   8.443   4.621   8.591 -1.7083  0.0156 -0.5725
  625MOL0     H84342   8.579   4.522   8.572 -1.0734  3.0941  3.7531
  625MOL0     H84343   8.539   4.540   8.312 -1.7604  0.1733 -1.1716
  625MOL0     H84344   8.416   4.654   8.349 -1.1169 -2.6275  1.0650
  625MOL0     H84345   8.575   4.799   8.474  0.3150  2.0136 -1.7454
  625MOL0     H84346   8.641   4.763   8.308 -1.9798  1.9470 -0.4605
  625MOL0     H84347   8.775   4.591   8.393 -0.9632 -0.1825  0.7719
  625MOL0     H84348   8.749   4.641   8.570 -1.7576  4.6435  1.1864
  625MOL0     H84349   8.966   4.739   8.473  1.8712  4.6374 -3.1917
  625MOL0     H84350   8.857   4.817   8.357 -1.6417 -0.7277 -0.0761
  625MOL0     H84351   8.827   4.855   8.662 -0.9002 -2.5685 -0.9574
  625MOL0     H84352   8.729   4.929   8.549  0.2055  0.9659  1.2185
  625MOL0     H84353   8.944   5.047   8.640  3.7700 -1.7245  0.2196
  625MOL0     H84354   9.006   4.989   8.473 -0.5141  0.1964  0.5951
  625MOL0     H84355   8.407   4.158   8.813  0.9225 -2.2515  0.1256
  625MOL0     H84356   8.211   4.015   8.873 -0.9175  0.1705 -0.4734
  625MOL0     H84357   7.780   3.939   8.907  1.7522 -2.4222  3.5378
  625MOL0     H84358   7.588   3.835   8.938  0.0819  2.9390 -2.2027
  625MOL0     H84359   8.272   4.304   9.681  1.8542  2.0310 -1.3945
  625MOL0     H84360   8.490   4.404   9.679  3.3904 -1.1940  0.2405
  625MOL0     H84361   8.820   4.510   9.568  0.3464  2.6106 -0.1838
  625MOL0     H84362   8.992   4.669   9.524  1.3897 -0.4651 -4.5123
  625MOL0     H84363   9.233   4.734   9.654  3.8987 -1.7516  1.1714
  625MOL0     H84364   9.166   4.803   9.496 -1.3075 -1.8472 -0.4479
  625MOL0     H84365   9.326   4.927   9.555  1.8470  1.5958 -1.5242
  625MOL0     H84366   9.421   4.823   9.437 -0.9512  2.1378 -1.4634
  625MOL0     H84367   9.485   4.697   9.675  3.7299  0.9424  0.4713
  625MOL0     H84368   9.400   4.835   9.746  3.5185  1.5186  1.8736
  625MOL0     H84369   9.643   4.846   9.579 -1.0798 -4.8486  1.0465
  625MOL0     H84370   9.551   4.983   9.655  2.3078  0.3860 -0.5289
  625MOL0     H84371   9.767   4.800   9.984  0.8574  1.1421  0.6631
  625MOL0     H84372   9.282   4.351   9.536  0.0717  3.0950  2.1758
  625MOL0     H84373   9.194   4.116   9.468  1.2470  1.8480  1.4634
  625MOL0     H84374   9.145   4.128   9.636  0.9437  0.9419  0.1889
  625MOL0     H84375   9.029   4.092   9.498  0.0265  1.1613 -0.2131
  626MOL0     O84376   4.345   8.643   2.011  0.4319 -0.2722 -0.0568
  626MOL0     C84377   4.293   8.747   1.981 -0.8427  0.0257 -0.3633
  626MOL0     O84378   4.362   8.864   1.975  0.6092 -0.2353 -0.1955
  626MOL0     C84379   4.493   8.860   1.945  0.0318 -0.2509  0.6351
  626MOL0     C84380   4.542   8.792   1.832 -0.5883  0.2862 -1.1168
  626MOL0     C84381   4.675   8.803   1.799  0.3938 -0.1291  0.4510
  626MOL0     C84382   4.765   8.885   1.867 -0.0117  0.8010 -0.2982
  626MOL0     O84383   4.894   8.904   1.828 -0.7217 -0.0248  0.0676
  626MOL0     C84384   4.978   8.787   1.825 -0.6506  0.0150 -0.5526
  626MOL0     C84385   5.099   8.812   1.737 -0.1847  0.0806 -0.4692
  626MOL0     C84386   5.139   8.692   1.669 -0.4805 -0.0969  0.8478
  626MOL0     C84387   5.283   8.683   1.605 -0.2142 -0.4221 -0.3318
  626MOL0     C84388   5.398   8.720   1.701 -0.2520 -0.5004  0.3738
  626MOL0     C84389   5.540   8.704   1.635 -0.0070 -0.2990 -0.7548
  626MOL0     C84390   5.648   8.695   1.738 -0.2897 -0.2927  0.7279
  626MOL0     C84391   5.693   8.832   1.789  1.3105  0.0357  0.1683
  626MOL0     N84392   5.816   8.815   1.869  0.2701  0.8660 -1.0298
  626MOL0     C84393   5.944   8.793   1.827  0.4219 -1.2551  0.6216
  626MOL0     C84394   6.015   8.785   1.941  0.4813 -0.6756  0.7247
  626MOL0     C84395   6.163   8.740   1.945  0.8749 -0.1815  0.1809
  626MOL0     C84396   6.247   8.828   2.043 -0.3862 -0.1627 -0.3235
  626MOL0     C84397   6.265   8.772   2.187  0.2061  0.4187  0.8487
  626MOL0     C84398   6.198   8.857   2.292  0.4024 -0.1319  0.3413
  626MOL0     O84399   6.207   8.802   2.425  0.5912  0.2390 -0.2590
  626MOL0     C84400   6.145   8.865   2.537 -0.1634 -0.0608  0.2870
  626MOL0     C84401   6.067   8.985   2.528 -0.9562  0.5357 -0.5330
  626MOL0     C84402   6.011   9.037   2.640 -0.0292 -0.5995 -0.2339
  626MOL0     C84403   6.030   8.988   2.776  0.0728 -0.4711 -0.3646
  626MOL0     C84404   5.971   9.060   2.901 -0.1660 -0.4907  0.5762
  626MOL0     O84405   6.001   9.000   3.020  0.0550  0.0800  0.2314
  626MOL0     C84406   5.957   9.042   3.135  0.4025 -0.0841 -0.2288
  626MOL0     C84407   5.838   8.983   3.179 -0.2095  1.0350 -0.1444
  626MOL0     C84408   5.783   9.018   3.300 -0.6104  0.7448  0.1075
  626MOL0     C84409   5.845   9.104   3.387 -0.2371 -0.8390 -0.5509
  626MOL0     O84410   5.806   9.135   3.513 -0.1633  0.8368  0.1222
  626MOL0     C84411   5.666   9.121   3.524  0.0429 -0.4998  0.7861
  626MOL0     C84412   5.613   9.182   3.646 -0.6095 -0.3859  0.2235
  626MOL0     C84413   5.607   9.340   3.634 -0.6323  0.2930 -0.0745
  626MOL0     C84414   5.511   9.390   3.521  0.3146 -0.6506 -0.4368
  626MOL0     C84415   5.477   9.537   3.544  0.1311 -0.7895 -0.1255
  626MOL0     C84416   5.594   9.630   3.504 -0.1128  0.4273  0.2799
  626MOL0     C84417   5.576   9.770   3.562 -0.2293  0.3606  0.6611
  626MOL0     C84418   5.436   9.831   3.543  0.4447  0.0131  0.0720
  626MOL0    Cl84419   5.389   9.850   3.368  0.2882 -0.2285  0.1987
  626MOL0     C84420   5.961   9.172   3.337 -0.2202 -0.6181  0.3289
  626MOL0     C84421   6.017   9.137   3.218  0.4901 -0.5636  0.2657
  626MOL0     O84422   5.905   9.161   2.888 -0.1560 -0.2326  0.9574
  626MOL0     C84423   6.106   8.875   2.779  0.7108 -0.5874 -0.9195
  626MOL0     C84424   6.171   8.815   2.670  0.2102 -0.1498 -0.1292
  626MOL0     N84425   5.934   8.825   2.039  0.1178  0.5767 -1.0544
  626MOL0     N84426   5.812   8.833   2.002 -0.2586  0.2615 -0.3331
  626MOL0     C84427   4.717   8.945   1.980 -0.5075  0.3846  0.8095
  626MOL0     C84428   4.585   8.932   2.025  0.7253 -0.0534  0.1256
  626MOL0     C84429   4.145   8.743   1.943 -0.0427  0.3760 -0.7418
  626MOL0     C84430   4.097   8.865   1.899  1.1767 -0.1089  0.6467
  626MOL0     C84431   3.954   8.876   1.876 -1.0237  0.5323 -0.1986
  626MOL0     C84432   3.864   8.767   1.884 -0.0731  1.1015 -0.1194
  626MOL0     O84433   3.727   8.767   1.879 -0.0685 -1.1558  0.0811
  626MOL0     C84434   3.665   8.873   1.799  0.1404 -0.5628 -0.0880
  626MOL0     C84435   3.671   8.837   1.652  0.3923 -0.5915 -0.2139
  626MOL0     C84436   3.542   8.856   1.572  0.1835  0.3159 -0.0053
  626MOL0     C84437   3.508   8.998   1.540  0.3494 -0.3960 -0.3608
  626MOL0     C84438   3.591   9.065   1.438 -0.8942  0.5236  0.5566
  626MOL0     C84439   3.661   9.119   1.352 -0.0804  0.0785  0.7610
  626MOL0     C84440   3.918   8.641   1.922  0.2577 -0.1189 -0.8415
  626MOL0     C84441   4.053   8.632   1.962 -1.0106  0.0991 -0.1342
  626MOL0     C84442   4.080   8.494   2.017  0.0068  0.0768 -0.2443
  626MOL0     H84443   4.483   8.727   1.768  0.1779 -1.2796 -0.2927
  626MOL0     H84444   4.711   8.743   1.716  1.8415  0.1821  0.8268
  626MOL0     H84445   5.017   8.750   1.920 -0.2274  0.0957 -0.6903
  626MOL0     H84446   4.928   8.700   1.781 -1.0296 -0.1498  0.1933
  626MOL0     H84447   5.179   8.859   1.796  0.4916 -0.3704 -1.0011
  626MOL0     H84448   5.066   8.883   1.661 -2.5734 -0.4495 -0.0027
  626MOL0     H84449   5.066   8.674   1.590 -1.3857  0.4146  1.5583
  626MOL0     H84450   5.137   8.603   1.733  0.5086 -0.9431 -0.2489
  626MOL0     H84451   5.298   8.592   1.546  0.1672 -2.2297  2.3600
  626MOL0     H84452   5.280   8.770   1.538 -1.4188  1.2759  1.7780
  626MOL0     H84453   5.389   8.823   1.738  0.3370 -0.3372  0.0595
  626MOL0     H84454   5.395   8.650   1.785 -0.2537  0.1964  0.9732
  626MOL0     H84455   5.533   8.615   1.570  1.1336 -1.5629  0.7737
  626MOL0     H84456   5.557   8.795   1.578 -1.2171  2.7317  3.2999
  626MOL0     H84457   5.728   8.653   1.677 -0.9611 -0.8021  0.1721
  626MOL0     H84458   5.632   8.626   1.821  1.4883 -0.3687  1.0392
  626MOL0     H84459   5.727   8.901   1.712  0.0995 -0.5885 -0.9556
  626MOL0     H84460   5.615   8.876   1.851  0.1440  0.9086 -1.8334
  626MOL0     H84461   5.976   8.759   1.730 -1.8370 -2.4943  0.2462
  626MOL0     H84462   6.170   8.635   1.973 -1.3098 -0.4750 -0.1736
  626MOL0     H84463   6.208   8.738   1.845 -0.8579 -0.4137 -0.6420
  626MOL0     H84464   6.347   8.834   2.000  0.7412  0.1331  2.1548
  626MOL0     H84465   6.200   8.927   2.045 -0.5352 -0.2275 -0.6113
  626MOL0     H84466   6.368   8.773   2.224  0.0250  0.8043  1.3596
  626MOL0     H84467   6.229   8.669   2.188  0.1774  0.4051 -0.3441
  626MOL0     H84468   6.093   8.884   2.274  1.0998  2.1236 -0.6850
  626MOL0     H84469   6.249   8.954   2.292 -2.5831  1.6208 -1.1090
  626MOL0     H84470   6.038   9.017   2.428  0.1751  0.0955 -1.0278
  626MOL0     H84471   5.941   9.118   2.624  0.2515 -0.1324  0.7949
  626MOL0     H84472   5.789   8.923   3.104 -1.0985  2.4554 -0.7493
  626MOL0     H84473   5.693   8.963   3.326 -0.1156  0.0849  0.4493
  626MOL0     H84474   5.616   9.153   3.432 -0.1126 -2.7326  0.0287
  626MOL0     H84475   5.654   9.013   3.538  0.2749 -0.7658 -0.8673
  626MOL0     H84476   5.509   9.153   3.663 -0.7783 -0.4634 -0.8757
  626MOL0     H84477   5.675   9.142   3.727  1.8267  0.0737 -1.3161
  626MOL0     H84478   5.590   9.379   3.735  4.5018 -1.2661  1.6983
  626MOL0     H84479   5.704   9.387   3.615 -0.3979  1.0250  2.6088
  626MOL0     H84480   5.417   9.334   3.525 -1.3339  2.0250  2.0962
  626MOL0     H84481   5.554   9.372   3.422 -0.6217  0.9591 -1.1781
  626MOL0     H84482   5.449   9.557   3.648 -2.4988  2.9651 -1.3280
  626MOL0     H84483   5.387   9.554   3.485 -0.9029 -0.3782  1.5000
  626MOL0     H84484   5.693   9.593   3.531 -0.3617  0.1162  0.8019
  626MOL0     H84485   5.587   9.643   3.396 -0.2220 -3.8054 -0.3863
  626MOL0     H84486   5.651   9.834   3.513  0.1655  0.7782  1.7703
  626MOL0     H84487   5.613   9.763   3.665 -0.2045 -1.9627  0.5334
  626MOL0     H84488   5.361   9.776   3.600 -0.2881  0.2124 -0.6740
  626MOL0     H84489   5.443   9.933   3.582 -2.8121  1.4344 -2.5122
  626MOL0     H84490   6.016   9.246   3.395  1.0588 -0.0582 -1.5160
  626MOL0     H84491   6.103   9.178   3.167  0.1117 -0.3310 -0.1905
  626MOL0     H84492   6.129   8.840   2.879 -0.0129 -1.0879 -0.9255
  626MOL0     H84493   6.240   8.738   2.702 -1.7500 -1.3194  1.6181
  626MOL0     H84494   4.787   9.012   2.029 -0.1116 -0.1599  0.9998
  626MOL0     H84495   4.547   8.984   2.113 -1.6302 -1.9928  0.3683
  626MOL0     H84496   4.149   8.958   1.876 -2.9757  1.8448 -1.8623
  626MOL0     H84497   3.920   8.976   1.854 -1.0097  0.5800 -0.0047
  626MOL0     H84498   3.693   8.977   1.819 -0.0495 -0.1192 -1.9403
  626MOL0     H84499   3.564   8.868   1.842 -0.7028 -2.7784 -2.1153
  626MOL0     H84500   3.729   8.745   1.639  0.3737 -0.8947  1.5375
  626MOL0     H84501   3.741   8.912   1.612  1.7828 -1.6822  0.0697
  626MOL0     H84502   3.456   8.827   1.634 -0.9942  0.8475 -1.3543
  626MOL0     H84503   3.542   8.798   1.479 -1.6176  2.0487 -1.1533
  626MOL0     H84504   3.407   9.005   1.497 -1.5213 -3.4532  2.9650
  626MOL0     H84505   3.507   9.049   1.636 -1.2078  0.5148 -0.8112
  626MOL0     H84506   3.713   9.182   1.282  0.3171  0.5735  1.4944
  626MOL0     H84507   3.862   8.550   1.942 -0.0046 -0.0742 -1.3750
  626MOL0     H84508   4.014   8.412   1.987 -1.4502  0.9431  0.5111
  626MOL0     H84509   4.184   8.460   2.014 -0.8614 -2.7816 -2.0971
  626MOL0     H84510   4.070   8.512   2.124 -2.5192  0.2584 -0.4593
  627MOL0     O84511   9.141  10.142  10.314  0.5429 -0.2387 -0.3766
  627MOL0     C84512   9.024  10.105  10.315 -0.0424  0.0241 -0.6816
  627MOL0     O84513   8.933  10.119  10.424 -0.7559  0.6896  0.0183
  627MOL0     C84514   8.979  10.181  10.532  0.2395  0.1633 -0.2811
  627MOL0     C84515   9.013  10.313  10.540  0.2765 -0.3658 -0.2921
  627MOL0     C84516   9.069  10.370  10.651 -0.1265 -0.9600 -0.0092
  627MOL0     C84517   9.075  10.295  10.772 -0.4039 -0.7995  0.0900
  627MOL0     O84518   9.127  10.360  10.883  0.2241 -0.1389  0.3948
  627MOL0     C84519   9.057  10.339  11.009 -0.3130  0.7623  0.8967
  627MOL0     C84520   9.086  10.450  11.114  0.0488  0.3128 -0.4750
  627MOL0     C84521   8.992  10.427  11.237  0.3846 -0.5940 -0.1060
  627MOL0     C84522   9.032  10.503  11.361  0.3694 -0.7236 -1.0051
  627MOL0     C84523   8.967  10.448  11.483 -1.0846  0.2872 -0.7176
  627MOL0     C84524   9.008  10.526  11.610 -0.2171 -0.7760  0.2040
  627MOL0     C84525   9.164  10.509  11.638  0.2263  0.1513  0.1326
  627MOL0     C84526   9.196  10.554  11.786  0.1415  0.5143 -0.3653
  627MOL0     N84527   9.168  10.693  11.807 -1.0568  0.8456  0.0373
  627MOL0     C84528   9.059  10.756  11.867  0.9709  0.0686  1.0745
  627MOL0     C84529   9.093  10.881  11.863  0.4157  0.1182  0.3436
  627MOL0     C84530   9.003  10.989  11.903 -0.3992 -0.9159 -0.1934
  627MOL0     C84531   9.033  11.062  12.039  0.1476  0.2670 -0.0490
  627MOL0     C84532   9.177  11.116  12.051  0.5480 -0.1087  0.4474
  627MOL0     C84533   9.230  11.210  11.950 -0.4081  0.0921 -0.2868
  627MOL0     O84534   9.357  11.269  11.982 -0.3000  0.1491 -1.0373
  627MOL0     C84535   9.468  11.228  11.909 -0.1953 -0.4487 -0.1157
  627MOL0     C84536   9.550  11.331  11.855  0.5172 -0.2229  0.1018
  627MOL0     C84537   9.659  11.307  11.786  0.1969  0.5325  0.3153
  627MOL0     C84538   9.686  11.176  11.747 -0.6023  1.1962  0.3228
  627MOL0     C84539   9.806  11.154  11.668  0.2806 -0.7031 -0.1845
  627MOL0     O84540   9.875  11.267  11.615 -0.0728 -0.1620  0.6421
  627MOL0     C84541  10.011  11.263  11.590 -0.6237  0.2775  0.1851
  627MOL0     C84542  10.100  11.169  11.638 -0.8919 -0.8988 -0.0299
  627MOL0     C84543  10.236  11.178  11.630 -0.2583  0.7054 -0.0204
  627MOL0     C84544  10.294  11.290  11.570  0.1579  0.0084  0.4562
  627MOL0     O84545  10.423  11.299  11.542 -0.0758  0.4007 -0.3577
  627MOL0     C84546  10.510  11.271  11.655 -0.3031 -1.0504 -0.2687
  627MOL0     C84547  10.629  11.366  11.677 -1.1306 -0.5288 -0.0093
  627MOL0     C84548  10.677  11.441  11.545  1.2284 -0.2177 -1.1525
  627MOL0     C84549  10.790  11.541  11.584  0.0618  0.3692  0.7625
  627MOL0     C84550  10.819  11.640  11.468  0.4087  0.3301 -0.0323
  627MOL0     C84551  10.893  11.781  11.509  0.0361  1.1818  0.8991
  627MOL0     C84552  10.812  11.866  11.621  0.1359  1.2113 -0.1437
  627MOL0     C84553  10.907  11.964  11.678 -0.4871  0.0570  0.1566
  627MOL0    Cl84554  10.828  12.091  11.787  0.0557 -0.2673 -0.3933
  627MOL0     C84555  10.214  11.395  11.529 -0.1548 -0.1792 -0.1977
  627MOL0     C84556  10.071  11.372  11.527 -0.3790 -0.2889 -0.8531
  627MOL0     O84557   9.844  11.037  11.651  0.1098 -0.1996 -0.1163
  627MOL0     C84558   9.609  11.067  11.797 -0.3982 -0.5631 -0.3397
  627MOL0     C84559   9.496  11.097  11.876  0.4496  0.8223 -0.2447
  627MOL0     N84560   9.217  10.896  11.807 -0.6132 -0.7517 -0.6659
  627MOL0     N84561   9.263  10.784  11.776 -0.1785  0.4720  0.0042
  627MOL0     C84562   9.034  10.160  10.775  0.1039  0.0911  0.1815
  627MOL0     C84563   8.982  10.107  10.651  0.6398  0.4773 -1.1390
  627MOL0     C84564   8.970  10.028  10.195 -0.2314 -0.2209 -0.2351
  627MOL0     C84565   8.828  10.047  10.180  0.0219 -0.1319 -0.2439
  627MOL0     C84566   8.769  10.011  10.061  0.3088  0.5404 -1.3425
  627MOL0     C84567   8.837   9.942   9.959 -0.2779  0.1503  0.9368
  627MOL0     O84568   8.773   9.889   9.845 -0.5087 -0.4517 -0.4175
  627MOL0     C84569   8.629   9.898   9.823 -0.2071 -0.1865 -0.3895
  627MOL0     C84570   8.579   9.782   9.730 -0.5827 -0.6742  0.4243
  627MOL0     C84571   8.431   9.794   9.697 -0.1520  0.2752  0.2479
  627MOL0     C84572   8.388   9.673   9.608  0.5256 -0.3068  0.9983
  627MOL0     C84573   8.259   9.687   9.533 -1.0259 -0.1102 -0.7054
  627MOL0     C84574   8.163   9.683   9.464  0.0687 -0.1373 -0.0032
  627MOL0     C84575   8.976   9.914   9.976 -0.3235 -0.0271  0.8803
  627MOL0     C84576   9.046   9.961  10.089 -0.1266  0.0759  0.9581
  627MOL0     C84577   9.199   9.941  10.101  0.2724 -0.9955 -0.0876
  627MOL0     H84578   9.003  10.364  10.445 -0.3394 -0.4699 -0.2865
  627MOL0     H84579   9.115  10.468  10.655 -0.6860 -0.7009  0.1432
  627MOL0     H84580   8.949  10.344  10.991 -0.4164  0.2324  1.3397
  627MOL0     H84581   9.088  10.246  11.057 -2.1258  1.3842  3.4928
  627MOL0     H84582   9.081  10.554  11.081 -0.6612  0.4089 -0.0834
  627MOL0     H84583   9.192  10.447  11.141 -0.5641 -2.2827  2.3072
  627MOL0     H84584   8.995  10.323  11.270 -1.6928 -0.5274  0.3929
  627MOL0     H84585   8.886  10.447  11.219  0.7251 -1.1262 -3.4654
  627MOL0     H84586   9.140  10.508  11.378  0.3509 -1.2251 -0.7114
  627MOL0     H84587   8.989  10.603  11.355  0.7818 -0.4676  0.0099
  627MOL0     H84588   8.859  10.435  11.473 -1.6222  3.7433 -0.6648
  627MOL0     H84589   9.013  10.351  11.503 -0.4355  0.0889 -2.9578
  627MOL0     H84590   8.980  10.632  11.604  3.2187  0.3332  1.5459
  627MOL0     H84591   8.956  10.480  11.695  1.1467  1.1395  2.1913
  627MOL0     H84592   9.219  10.578  11.574 -2.7533  0.3274 -2.4875
  627MOL0     H84593   9.188  10.404  11.620 -0.1705  0.2801 -1.2627
  627MOL0     H84594   9.125  10.497  11.847 -3.4053  3.3345 -1.4477
  627MOL0     H84595   9.299  10.526  11.808  1.7558  2.5490 -4.4054
  627MOL0     H84596   8.969  10.705  11.900  1.7031 -2.5284 -0.6629
  627MOL0     H84597   9.004  11.062  11.822 -0.6599 -1.5144 -0.7414
  627MOL0     H84598   8.902  10.949  11.910 -0.5080 -0.4397  1.6088
  627MOL0     H84599   8.963  11.146  12.043 -2.0808 -1.2344 -3.2084
  627MOL0     H84600   8.990  11.001  12.119  0.2566 -0.1039 -0.2699
  627MOL0     H84601   9.247  11.033  12.045  2.5614  1.5516 -0.2660
  627MOL0     H84602   9.181  11.170  12.147  1.8224  2.6775 -1.0334
  627MOL0     H84603   9.158  11.291  11.932 -0.3821  0.0704 -0.4912
  627MOL0     H84604   9.230  11.150  11.858  0.4959 -0.1270 -0.1542
  627MOL0     H84605   9.532  11.434  11.883 -0.4093 -0.5926  0.9085
  627MOL0     H84606   9.704  11.394  11.739 -0.0474  0.3717 -0.2301
  627MOL0     H84607  10.072  11.090  11.707 -0.2204 -0.1860  1.0999
  627MOL0     H84608  10.300  11.092  11.646  0.1044  0.8269 -0.7642
  627MOL0     H84609  10.448  11.259  11.745 -2.6297 -0.1856 -1.6684
  627MOL0     H84610  10.552  11.175  11.623 -2.5739 -1.8793 -0.9874
  627MOL0     H84611  10.598  11.447  11.743  0.4623 -0.4563  0.7028
  627MOL0     H84612  10.712  11.317  11.730 -1.7819  1.4689  3.1296
  627MOL0     H84613  10.717  11.370  11.471 -0.9256 -0.9342 -1.6916
  627MOL0     H84614  10.587  11.487  11.503 -1.6788 -2.3420  2.1979
  627MOL0     H84615  10.885  11.493  11.608  0.8867  1.9634  0.8165
  627MOL0     H84616  10.762  11.589  11.678 -0.7996 -0.2026  0.8091
  627MOL0     H84617  10.727  11.672  11.418  1.2227 -1.5222 -2.9168
  627MOL0     H84618  10.878  11.598  11.386  2.2064  3.8823 -0.7725
  627MOL0     H84619  10.995  11.762  11.543  0.1175 -1.8380 -0.7449
  627MOL0     H84620  10.892  11.845  11.419  1.5122 -0.2866 -0.2190
  627MOL0     H84621  10.782  11.784  11.686  3.3352 -0.4667 -0.5696
  627MOL0     H84622  10.718  11.910  11.587 -0.0724  2.2092  1.6130
  627MOL0     H84623  10.981  11.913  11.740 -0.4209 -0.9125 -0.7002
  627MOL0     H84624  10.952  12.016  11.593  0.3320 -1.0739 -0.1173
  627MOL0     H84625  10.263  11.483  11.486  2.0882 -0.7847  0.9517
  627MOL0     H84626   9.993  11.430  11.478 -0.8901 -1.3565 -1.3441
  627MOL0     H84627   9.633  10.963  11.783  1.6288  0.0315 -1.7851
  627MOL0     H84628   9.450  11.008  11.918  2.1928 -0.5695 -1.1682
  627MOL0     H84629   9.049  10.106  10.868  1.4648  0.7889  0.3980
  627MOL0     H84630   8.953  10.003  10.657  0.8986  0.4164 -0.9035
  627MOL0     H84631   8.771  10.096  10.259  2.4345 -0.9977  2.1776
  627MOL0     H84632   8.668  10.047  10.042 -1.6738 -2.6586  1.7750
  627MOL0     H84633   8.615   9.995   9.776 -0.1174  2.0823  3.7943
  627MOL0     H84634   8.568   9.905   9.914  0.9542  1.9890  0.2993
  627MOL0     H84635   8.592   9.683   9.774  0.2191 -0.8977 -0.2855
  627MOL0     H84636   8.639   9.788   9.639 -1.4116 -1.3456 -0.1778
  627MOL0     H84637   8.410   9.887   9.645 -0.2742 -0.1866 -0.5395
  627MOL0     H84638   8.371   9.800   9.788  2.2284  1.4671  1.8570
  627MOL0     H84639   8.463   9.664   9.529 -3.6736 -1.9176 -3.3001
  627MOL0     H84640   8.387   9.579   9.664  0.0458 -0.8249  0.1427
  627MOL0     H84641   8.074   9.683   9.404  0.4727  0.6993 -0.6263
  627MOL0     H84642   9.013   9.864   9.887 -4.6013 -1.3021 -0.4183
  627MOL0     H84643   9.252  10.030  10.066  1.7448 -1.3385  1.1288
  627MOL0     H84644   9.237   9.925  10.202 -2.2386  1.8564  1.4429
  627MOL0     H84645   9.226   9.854  10.040  0.1964 -0.3243 -1.1045
  628MOL0     O84646   0.440   0.984   2.298  0.5145 -0.1301 -0.0028
  628MOL0     C84647   0.399   0.985   2.186  0.1103  0.5046 -0.3216
  628MOL0     O84648   0.456   0.921   2.072 -0.3024 -0.2921 -0.9425
  628MOL0     C84649   0.573   0.857   2.093 -0.1253 -0.1273 -0.0544
  628MOL0     C84650   0.564   0.723   2.122 -0.6200 -0.9284 -0.4554
  628MOL0     C84651   0.676   0.647   2.155  0.2978  0.1105 -0.4844
  628MOL0     C84652   0.803   0.708   2.167  0.3535  0.2426  0.8718
  628MOL0     O84653   0.903   0.634   2.225  0.0167  0.2301  0.0141
  628MOL0     C84654   0.915   0.665   2.369  0.1454  0.4682  0.5384
  628MOL0     C84655   1.031   0.573   2.407  1.2411  0.5418  0.0055
  628MOL0     C84656   1.029   0.566   2.564 -0.1504 -0.3270  0.0795
  628MOL0     C84657   1.155   0.501   2.622  0.6621 -0.0280 -0.0697
  628MOL0     C84658   1.149   0.475   2.774 -0.1101 -0.3231 -0.2528
  628MOL0     C84659   1.273   0.415   2.831 -0.0869 -0.0991 -0.1691
  628MOL0     C84660   1.321   0.280   2.767 -1.1555 -0.2687  0.3732
  628MOL0     C84661   1.462   0.240   2.814  0.0227  0.6741  0.1300
  628MOL0     N84662   1.487   0.259   2.960 -0.1799  0.1072  0.4944
  628MOL0     C84663   1.547   0.363   3.028 -0.9780 -0.0694 -0.7313
  628MOL0     C84664   1.578   0.320   3.149  0.5603 -0.1286  0.6965
  628MOL0     C84665   1.669   0.396   3.239  0.2591 -1.5825 -0.8560
  628MOL0     C84666   1.643   0.371   3.393 -0.0792 -0.4515  0.1509
  628MOL0     C84667   1.712   0.242   3.430  0.1669  0.1493 -0.1872
  628MOL0     C84668   1.659   0.172   3.568  0.4678  1.1956 -0.2329
  628MOL0     O84669   1.714   0.037   3.586  0.0575 -0.5349  0.4661
  628MOL0     C84670   1.855   0.014   3.612  0.3467 -0.2604 -1.1414
  628MOL0     C84671   1.951   0.109   3.647  0.1307 -0.1663 -0.1815
  628MOL0     C84672   2.086   0.073   3.674 -0.4229  0.0956 -0.2790
  628MOL0     C84673   2.134  -0.052   3.656 -0.9196  1.0549  0.5012
  628MOL0     C84674   2.280  -0.085   3.653  0.3119  0.6872  0.1451
  628MOL0     O84675   2.324  -0.202   3.611  1.0427  0.5383 -0.1552
  628MOL0     C84676   2.457  -0.228   3.591 -0.4398 -0.4908  0.0869
  628MOL0     C84677   2.526  -0.171   3.478  0.4080 -0.4495 -0.0367
  628MOL0     C84678   2.658  -0.191   3.470 -0.2521 -1.1009 -0.6043
  628MOL0     C84679   2.733  -0.269   3.556 -0.6361  0.0926 -0.4720
  628MOL0     O84680   2.868  -0.295   3.541  0.0465  0.6838 -0.9267
  628MOL0     C84681   2.937  -0.276   3.416  0.4202  0.1416  0.5639
  628MOL0     C84682   3.090  -0.252   3.433  0.2459  0.1807 -0.1454
  628MOL0     C84683   3.149  -0.210   3.294  0.9631 -0.5186 -0.4659
  628MOL0     C84684   3.297  -0.191   3.308  0.1655  0.8563 -0.0302
  628MOL0     C84685   3.363  -0.120   3.188 -0.4512 -0.0129  0.6487
  628MOL0     C84686   3.504  -0.068   3.226  0.2982  0.3661 -0.3211
  628MOL0     C84687   3.578  -0.017   3.096 -1.3460  0.5212 -0.1324
  628MOL0     C84688   3.721   0.043   3.112 -0.3188  0.1701 -0.2342
  628MOL0    Cl84689   3.812   0.019   2.961  0.1808 -0.0718  0.0826
  628MOL0     C84690   2.670  -0.332   3.665  1.5871  0.6704 -0.5658
  628MOL0     C84691   2.530  -0.310   3.683  0.1016 -0.6517 -0.3404
  628MOL0     O84692   2.352   0.010   3.674  0.3806 -0.1851 -1.2657
  628MOL0     C84693   2.037  -0.148   3.629  0.6547 -0.6212  0.0475
  628MOL0     C84694   1.901  -0.115   3.610  0.2357 -1.0329  0.2563
  628MOL0     N84695   1.502   0.201   3.163 -0.0521 -0.5233  0.0293
  628MOL0     N84696   1.449   0.167   3.048 -0.3685  0.2468  0.0808
  628MOL0     C84697   0.809   0.845   2.138 -0.2425 -0.1993  0.3686
  628MOL0     C84698   0.701   0.917   2.092  0.9768  0.1451 -0.1745
  628MOL0     C84699   0.286   1.075   2.145  1.0086  0.9247  0.1746
  628MOL0     C84700   0.195   1.032   2.043  0.7314 -0.0280  0.2824
  628MOL0     C84701   0.080   1.100   2.008  0.6125  0.0486  0.0539
  628MOL0     C84702   0.048   1.211   2.087 -0.2265 -0.5155  0.9644
  628MOL0     O84703  -0.063   1.276   2.035 -0.2103  0.7668  0.2613
  628MOL0     C84704  -0.105   1.393   2.098 -1.0438  0.0558 -0.2536
  628MOL0     C84705  -0.233   1.443   2.040 -0.2682  0.1341 -0.2539
  628MOL0     C84706  -0.235   1.445   1.884  0.0539  0.5351 -0.0458
  628MOL0     C84707  -0.099   1.489   1.828  1.4070 -0.0289  0.7058
  628MOL0     C84708  -0.067   1.619   1.878 -0.6752 -0.0703 -0.7010
  628MOL0     C84709  -0.041   1.729   1.916 -0.2904  0.1195 -1.5725
  628MOL0     C84710   0.129   1.253   2.192 -0.0473 -0.1772  0.4606
  628MOL0     C84711   0.252   1.191   2.221 -0.4125  0.1872  0.0345
  628MOL0     C84712   0.334   1.250   2.329 -0.2469  0.4871  0.7116
  628MOL0     H84713   0.469   0.679   2.095 -0.9057 -1.0678  0.7124
  628MOL0     H84714   0.663   0.542   2.176 -0.9949 -0.2098 -2.6161
  628MOL0     H84715   0.946   0.767   2.393 -2.9594  1.0972  2.4806
  628MOL0     H84716   0.822   0.643   2.423 -1.3672  2.5231 -1.0560
  628MOL0     H84717   1.121   0.625   2.373  0.8555 -0.0405 -2.0307
  628MOL0     H84718   1.028   0.474   2.362  3.6779  0.0460  0.7949
  628MOL0     H84719   0.941   0.505   2.587  0.0258 -0.3985  0.5550
  628MOL0     H84720   1.027   0.671   2.596 -0.2428  0.4394 -2.2388
  628MOL0     H84721   1.181   0.407   2.572  1.3913 -0.4753  1.1208
  628MOL0     H84722   1.238   0.570   2.601  0.7263  0.1348  0.7139
  628MOL0     H84723   1.122   0.569   2.823 -0.2028 -0.0338 -0.8534
  628MOL0     H84724   1.062   0.412   2.796 -0.9760 -0.5862 -3.8832
  628MOL0     H84725   1.356   0.486   2.820  1.8721 -1.2571  4.3930
  628MOL0     H84726   1.261   0.394   2.938 -0.7030 -0.1084 -0.2365
  628MOL0     H84727   1.323   0.289   2.658 -0.1924 -1.8741  0.2325
  628MOL0     H84728   1.250   0.197   2.776 -0.8191 -0.5989  0.0287
  628MOL0     H84729   1.477   0.137   2.780 -0.0455  0.4419  0.7775
  628MOL0     H84730   1.541   0.294   2.761  0.2189 -1.2288 -1.6286
  628MOL0     H84731   1.603   0.448   2.989 -0.7781  1.0868  1.8429
  628MOL0     H84732   1.775   0.378   3.215  0.6121  0.8768 -1.3850
  628MOL0     H84733   1.660   0.504   3.220 -3.7681 -1.2750  1.6638
  628MOL0     H84734   1.680   0.453   3.455  1.4822 -0.4612 -0.7170
  628MOL0     H84735   1.536   0.363   3.415  0.0342  3.5527  3.3693
  628MOL0     H84736   1.821   0.253   3.436 -0.0016  1.9298  0.1425
  628MOL0     H84737   1.703   0.181   3.340  0.5095  2.2874 -1.7513
  628MOL0     H84738   1.550   0.167   3.574  0.4899 -2.0545 -0.6563
  628MOL0     H84739   1.693   0.220   3.660  0.1068  0.6433  0.1899
  628MOL0     H84740   1.915   0.212   3.651 -1.7024 -0.7477 -0.6329
  628MOL0     H84741   2.162   0.144   3.706 -2.0039  1.0377  1.6172
  628MOL0     H84742   2.477  -0.119   3.397 -0.1977  0.6322  0.9960
  628MOL0     H84743   2.710  -0.144   3.387 -1.1816  0.7926 -0.1594
  628MOL0     H84744   2.929  -0.368   3.356  1.1177 -0.0385  0.7369
  628MOL0     H84745   2.893  -0.186   3.373 -1.9111 -0.0782  2.3161
  628MOL0     H84746   3.110  -0.173   3.506  0.8896 -1.4962  1.5789
  628MOL0     H84747   3.143  -0.343   3.462 -0.2058  0.4409  1.5708
  628MOL0     H84748   3.137  -0.288   3.219 -0.0519 -0.0426 -0.8182
  628MOL0     H84749   3.099  -0.116   3.269  3.7452  0.8170 -1.4163
  628MOL0     H84750   3.345  -0.286   3.334  3.9078  1.2809 -4.1481
  628MOL0     H84751   3.316  -0.117   3.387  0.6969 -0.6556  1.3156
  628MOL0     H84752   3.300  -0.040   3.148 -2.3505 -1.6426  0.2137
  628MOL0     H84753   3.383  -0.191   3.108  0.4799  0.3744  0.5296
  628MOL0     H84754   3.507   0.013   3.300 -1.5271 -2.0008  2.5962
  628MOL0     H84755   3.554  -0.152   3.275 -2.4100 -1.9612 -1.2811
  628MOL0     H84756   3.516   0.061   3.049 -2.5349  1.0281  2.1418
  628MOL0     H84757   3.596  -0.108   3.038  4.4874  2.3790 -1.9803
  628MOL0     H84758   3.730   0.149   3.136  1.7870 -0.1992  0.8811
  628MOL0     H84759   3.776  -0.008   3.191  0.9395  1.6943 -0.0672
  628MOL0     H84760   2.721  -0.397   3.736  1.3820  1.8726  0.7382
  628MOL0     H84761   2.472  -0.357   3.762  0.6752 -0.4647  0.1926
  628MOL0     H84762   2.049  -0.255   3.613 -0.3737 -0.8611  0.8345
  628MOL0     H84763   1.814  -0.179   3.595 -0.5338 -0.2917  1.3215
  628MOL0     H84764   0.908   0.887   2.147  0.8203 -2.1207 -1.4840
  628MOL0     H84765   0.720   1.019   2.062 -0.6367  0.4961 -0.0719
  628MOL0     H84766   0.216   0.942   1.986  0.9482  0.1088  0.1435
  628MOL0     H84767   0.018   1.066   1.925 -0.1772  1.6684 -0.0668
  628MOL0     H84768  -0.031   1.470   2.074 -0.0384 -0.5573  0.7781
  628MOL0     H84769  -0.112   1.374   2.206 -0.6772 -0.6987 -0.3562
  628MOL0     H84770  -0.247   1.549   2.065  0.7364  0.3921 -0.7215
  628MOL0     H84771  -0.315   1.384   2.081  0.5142 -0.7639  0.0392
  628MOL0     H84772  -0.326   1.496   1.852  0.6917  0.3105 -2.4242
  628MOL0     H84773  -0.241   1.343   1.845  0.9571  0.8227 -0.9680
  628MOL0     H84774  -0.019   1.417   1.848  1.7174 -1.2893 -3.8525
  628MOL0     H84775  -0.107   1.498   1.719  0.9176 -1.0207  0.6510
  628MOL0     H84776  -0.021   1.834   1.925  0.1231 -0.0180 -0.8427
  628MOL0     H84777   0.098   1.337   2.253  0.4488 -0.9618  1.8714
  628MOL0     H84778   0.295   1.351   2.341 -2.4745  0.0205 -1.7177
  628MOL0     H84779   0.346   1.194   2.422  2.3898 -1.0490 -0.4201
  628MOL0     H84780   0.439   1.258   2.298 -0.7310  0.1333 -1.1152
  629MOL0     O84781   6.593   3.480   6.349  0.2192  0.3688  0.2362
  629MOL0     C84782   6.624   3.388   6.272  0.8808  0.1646 -0.8165
  629MOL0     O84783   6.540   3.294   6.219 -0.1539 -0.4571 -0.5232
  629MOL0     C84784   6.405   3.277   6.246 -0.5529  0.1150  0.0149
  629MOL0     C84785   6.323   3.219   6.151  0.3699  0.0266 -1.1032
  629MOL0     C84786   6.181   3.211   6.186  0.2524 -0.9390  0.7253
  629MOL0     C84787   6.131   3.270   6.310 -0.2715  0.4210 -0.8203
  629MOL0     O84788   5.995   3.245   6.340  0.1490  0.0837 -0.1676
  629MOL0     C84789   5.927   3.314   6.446  0.2888 -0.8647 -0.2517
  629MOL0     C84790   5.867   3.433   6.387  0.2324  0.1264  0.7932
  629MOL0     C84791   5.845   3.543   6.486  0.1635  0.3441  0.4603
  629MOL0     C84792   5.723   3.624   6.450 -0.0788  0.2350 -0.0724
  629MOL0     C84793   5.709   3.743   6.546  0.1806 -0.4601  0.3364
  629MOL0     C84794   5.594   3.839   6.502  0.2892 -0.6072 -1.0531
  629MOL0     C84795   5.584   3.971   6.588 -0.5629 -1.1197 -0.2225
  629MOL0     C84796   5.582   3.960   6.740  0.7927  0.5840  0.1238
  629MOL0     N84797   5.471   3.867   6.786 -0.5471  0.2931 -0.2421
  629MOL0     C84798   5.334   3.859   6.755  0.1208 -0.1891  0.7483
  629MOL0     C84799   5.287   3.773   6.845  0.7035  0.8063 -0.2828
  629MOL0     C84800   5.141   3.739   6.847  0.0953 -0.0741 -0.7531
  629MOL0     C84801   5.085   3.724   6.983  1.3458 -0.4575  0.2226
  629MOL0     C84802   4.931   3.739   6.983  0.0725  0.0049  0.3856
  629MOL0     C84803   4.882   3.675   7.110  0.5762  0.6226  0.2239
  629MOL0     O84804   4.744   3.683   7.116  0.1987 -0.4275 -0.1156
  629MOL0     C84805   4.673   3.573   7.116  0.2068 -0.7311  0.3909
  629MOL0     C84806   4.654   3.489   7.229 -0.0480  0.1948  0.4716
  629MOL0     C84807   4.571   3.375   7.215  0.4254 -0.4195  0.1630
  629MOL0     C84808   4.511   3.340   7.091  0.7929  0.6669 -0.0144
  629MOL0     C84809   4.425   3.218   7.081 -0.0502  0.8664  0.3969
  629MOL0     O84810   4.365   3.201   6.957 -0.3684 -0.7077 -0.2024
  629MOL0     C84811   4.276   3.094   6.945  1.1511  0.5118  0.3846
  629MOL0     C84812   4.133   3.114   6.916 -0.2750 -0.9558  0.0083
  629MOL0     C84813   4.049   3.004   6.894  1.0365 -0.9632  0.0453
  629MOL0     C84814   4.099   2.872   6.920 -0.3568 -0.7266  0.1537
  629MOL0     O84815   4.018   2.765   6.890 -0.3497 -0.0908  1.1397
  629MOL0     C84816   3.900   2.751   6.966 -0.0900 -0.1060  0.9576
  629MOL0     C84817   3.858   2.603   6.958 -1.3314  0.3769  0.5303
  629MOL0     C84818   3.815   2.557   6.816  0.3536 -0.2357 -0.4323
  629MOL0     C84819   3.774   2.411   6.805 -0.2002 -0.4655 -0.7322
  629MOL0     C84820   3.792   2.347   6.673  0.4680 -0.3952  0.0580
  629MOL0     C84821   3.742   2.435   6.558  0.0265 -0.1099  1.0382
  629MOL0     C84822   3.741   2.351   6.420  1.5422  0.0998 -0.4720
  629MOL0     C84823   3.635   2.394   6.319 -0.9879 -0.0662 -0.2316
  629MOL0    Cl84824   3.679   2.548   6.245 -0.3527 -0.0656 -0.0820
  629MOL0     C84825   4.229   2.857   6.955 -0.6287  0.5577 -0.4767
  629MOL0     C84826   4.308   2.969   6.968 -0.0153  1.8266 -0.2537
  629MOL0     O84827   4.407   3.153   7.182 -0.2581 -0.2902  0.1165
  629MOL0     C84828   4.537   3.416   6.980 -0.4289 -0.0958  0.3553
  629MOL0     C84829   4.618   3.534   6.993  0.0141 -0.1149  0.8930
  629MOL0     N84830   5.398   3.720   6.925 -0.4251 -0.7830  0.2328
  629MOL0     N84831   5.503   3.785   6.888 -0.1121 -0.1134 -0.3643
  629MOL0     C84832   6.224   3.325   6.399  0.2470  0.0227 -0.2782
  629MOL0     C84833   6.352   3.331   6.360  0.5192 -0.3753 -0.0614
  629MOL0     C84834   6.768   3.365   6.246 -0.4443 -0.6645 -0.1018
  629MOL0     C84835   6.856   3.380   6.354  0.6493  0.3052  0.8518
  629MOL0     C84836   6.990   3.348   6.345  0.2066 -0.5975 -0.0149
  629MOL0     C84837   7.046   3.302   6.226  0.7122 -0.1888  0.3336
  629MOL0     O84838   7.176   3.274   6.232 -0.1769  0.0201 -0.5045
  629MOL0     C84839   7.253   3.249   6.127 -0.4056  0.0428  0.3826
  629MOL0     C84840   7.232   3.117   6.052 -0.7815 -0.0754 -0.8457
  629MOL0     C84841   7.278   3.002   6.131  0.1656  0.2654 -0.9505
  629MOL0     C84842   7.293   2.870   6.054  0.8638  0.8872  0.1201
  629MOL0     C84843   7.426   2.829   6.004  0.1734  0.2202  0.5155
  629MOL0     C84844   7.529   2.799   5.946  0.6682 -0.1502  0.1791
  629MOL0     C84845   6.960   3.296   6.114  0.7930 -0.7428  0.3018
  629MOL0     C84846   6.821   3.318   6.119  0.2387 -0.4130 -0.7995
  629MOL0     C84847   6.737   3.314   5.995 -0.5453 -0.0424  0.2706
  629MOL0     H84848   6.370   3.191   6.057 -0.6814 -1.9409 -1.1012
  629MOL0     H84849   6.116   3.170   6.109 -0.3288 -0.0329  0.7206
  629MOL0     H84850   5.853   3.249   6.494  1.6974 -0.5389  2.5764
  629MOL0     H84851   5.993   3.357   6.522 -0.7467 -0.0081  0.1729
  629MOL0     H84852   5.769   3.414   6.343 -0.7184  1.5421  2.1931
  629MOL0     H84853   5.939   3.483   6.320  0.2148  2.1485  2.1695
  629MOL0     H84854   5.933   3.609   6.489 -1.6080  3.0445 -1.8613
  629MOL0     H84855   5.823   3.494   6.581  2.1071  0.4481  1.0011
  629MOL0     H84856   5.719   3.657   6.346 -1.0039 -0.6065 -0.3293
  629MOL0     H84857   5.637   3.557   6.462 -0.0381  0.0483 -0.7758
  629MOL0     H84858   5.690   3.699   6.645 -1.6061 -0.9699 -0.2001
  629MOL0     H84859   5.803   3.798   6.542  0.1457 -0.4556 -0.5826
  629MOL0     H84860   5.609   3.870   6.398  1.3357  3.4379  0.0956
  629MOL0     H84861   5.499   3.786   6.513 -0.7918  1.7363  2.7202
  629MOL0     H84862   5.496   4.019   6.542  0.5203 -1.4472 -2.8279
  629MOL0     H84863   5.674   4.027   6.561  0.2552 -3.0164 -1.5941
  629MOL0     H84864   5.677   3.927   6.784  0.4645  1.1556  1.2908
  629MOL0     H84865   5.569   4.063   6.775 -0.1221  1.4649 -2.5641
  629MOL0     H84866   5.284   3.912   6.675  1.4166 -1.6068 -1.0980
  629MOL0     H84867   5.090   3.829   6.810 -0.3257  0.1514  0.3568
  629MOL0     H84868   5.124   3.653   6.782  3.0008 -1.0327 -0.4110
  629MOL0     H84869   5.114   3.625   7.019  2.2344  0.0117  0.8370
  629MOL0     H84870   5.134   3.797   7.049  1.5615 -1.0135  0.6792
  629MOL0     H84871   4.875   3.690   6.902 -1.1695 -1.1510  1.8801
  629MOL0     H84872   4.914   3.846   6.972 -0.9749 -0.3007 -1.1969
  629MOL0     H84873   4.942   3.706   7.196  1.3151  2.4099 -0.8788
  629MOL0     H84874   4.906   3.568   7.110  0.6309  0.6209 -0.6399
  629MOL0     H84875   4.703   3.505   7.324  2.2027 -2.6560 -0.0823
  629MOL0     H84876   4.554   3.307   7.299 -0.0295 -0.3024  0.1672
  629MOL0     H84877   4.093   3.214   6.900  4.0021  1.3885  2.0624
  629MOL0     H84878   3.951   3.010   6.848  2.1284  0.5696 -2.3071
  629MOL0     H84879   3.917   2.776   7.072 -0.5993 -2.3796  1.6223
  629MOL0     H84880   3.822   2.821   6.932  0.3626  0.0739  0.2719
  629MOL0     H84881   3.943   2.542   6.990 -1.0164  0.9875  0.8799
  629MOL0     H84882   3.774   2.582   7.025 -0.4966  1.8000  2.0843
  629MOL0     H84883   3.733   2.623   6.787 -1.2891 -1.4896  1.1632
  629MOL0     H84884   3.904   2.574   6.754 -1.6922  4.5849 -2.5651
  629MOL0     H84885   3.668   2.400   6.832  0.4635 -2.5707  1.4724
  629MOL0     H84886   3.829   2.354   6.881 -0.7546  0.8439  0.6950
  629MOL0     H84887   3.734   2.255   6.680 -0.5431  0.2329  0.0393
  629MOL0     H84888   3.899   2.329   6.654  0.3347 -1.6420  0.4166
  629MOL0     H84889   3.640   2.473   6.571 -1.1653 -2.1050 -1.6371
  629MOL0     H84890   3.811   2.521   6.553 -0.7874  0.8097  3.7941
  629MOL0     H84891   3.723   2.246   6.445 -1.7066  1.1152  2.1328
  629MOL0     H84892   3.840   2.363   6.374  3.4664 -2.5998  2.4657
  629MOL0     H84893   3.621   2.318   6.242 -0.0876  0.7598 -1.2581
  629MOL0     H84894   3.539   2.396   6.372 -0.4696  1.0960  0.7463
  629MOL0     H84895   4.264   2.755   6.971  1.6019  1.3577  0.0375
  629MOL0     H84896   4.410   2.946   6.997 -0.7653  1.0480  2.0085
  629MOL0     H84897   4.498   3.401   6.880  1.0254  0.1850 -0.2788
  629MOL0     H84898   4.633   3.587   6.899  4.3958 -0.3434  1.2512
  629MOL0     H84899   6.209   3.367   6.498  2.3541 -0.9896  0.5233
  629MOL0     H84900   6.421   3.379   6.428 -1.7098  1.7409  0.8178
  629MOL0     H84901   6.817   3.413   6.449 -0.2745  0.8301  0.3046
  629MOL0     H84902   7.055   3.351   6.432 -0.2765 -0.0700  0.3285
  629MOL0     H84903   7.358   3.259   6.155 -0.1495  1.9138 -1.0588
  629MOL0     H84904   7.233   3.333   6.060  2.8277 -0.1998 -1.0493
  629MOL0     H84905   7.290   3.129   5.960 -1.5982  0.0035 -1.3626
  629MOL0     H84906   7.125   3.109   6.029 -1.0248 -2.3807  0.7757
  629MOL0     H84907   7.212   2.986   6.216  1.2980  0.7207  0.0387
  629MOL0     H84908   7.373   3.022   6.181  0.8403 -2.7506 -0.8296
  629MOL0     H84909   7.259   2.788   6.117 -0.9048  2.7025  1.6669
  629MOL0     H84910   7.231   2.871   5.964 -0.7012 -0.1455  1.1460
  629MOL0     H84911   7.624   2.760   5.915  0.6644 -0.8064  0.9515
  629MOL0     H84912   7.000   3.274   6.015 -1.0396 -0.5116 -0.5460
  629MOL0     H84913   6.651   3.381   6.007  0.6038  1.7110 -0.8618
  629MOL0     H84914   6.782   3.354   5.904 -0.2959  2.4641  1.4180
  629MOL0     H84915   6.701   3.213   5.974 -0.8668  0.4227 -1.7090
  630MOL0     O84916   7.289   0.593   8.521  0.3795 -0.2831 -0.4713
  630MOL0     C84917   7.400   0.596   8.471 -0.1809 -0.1301 -0.3003
  630MOL0     O84918   7.430   0.621   8.344  0.3529  0.7072  0.2748
  630MOL0     C84919   7.322   0.602   8.257  0.7794  0.1751 -0.6290
  630MOL0     C84920   7.293   0.470   8.204  0.6179  0.0713 -0.8748
  630MOL0     C84921   7.171   0.449   8.135 -0.0533  1.3148 -0.4817
  630MOL0     C84922   7.081   0.550   8.115  1.0602 -0.2422  1.1719
  630MOL0     O84923   6.967   0.534   8.043 -0.5400 -0.0492 -0.4581
  630MOL0     C84924   6.968   0.469   7.920  0.1569  0.2117 -0.0383
  630MOL0     C84925   6.833   0.496   7.852 -0.5842 -0.5834  0.0033
  630MOL0     C84926   6.719   0.542   7.937  0.0538  0.3492 -0.6393
  630MOL0     C84927   6.676   0.428   8.036  0.4488 -0.2784  0.4894
  630MOL0     C84928   6.601   0.481   8.159 -0.4818  0.7173  0.1802
  630MOL0     C84929   6.453   0.524   8.116 -0.5326  0.6526  0.1972
  630MOL0     C84930   6.358   0.408   8.085  0.2542  0.7170 -0.6334
  630MOL0     C84931   6.322   0.321   8.212  0.5945  1.0957  0.8026
  630MOL0     N84932   6.190   0.253   8.190 -0.7222 -0.5952 -0.5866
  630MOL0     C84933   6.078   0.312   8.138  0.1054 -0.1114  0.7972
  630MOL0     C84934   5.988   0.208   8.135 -0.6296 -1.1999 -0.3303
  630MOL0     C84935   5.844   0.216   8.087 -0.1799  1.0476 -0.0629
  630MOL0     C84936   5.833   0.275   7.943 -0.0219  0.9465  0.3207
  630MOL0     C84937   5.690   0.269   7.897 -0.1427 -0.1156 -0.2712
  630MOL0     C84938   5.647   0.134   7.828 -0.9650 -0.0224  1.1541
  630MOL0     O84939   5.618   0.028   7.919 -0.0236  0.6531 -0.6992
  630MOL0     C84940   5.494   0.014   7.984 -1.3048 -0.3443  0.5953
  630MOL0     C84941   5.392   0.100   7.976  0.4730  0.8235 -1.3207
  630MOL0     C84942   5.271   0.078   8.045  0.3493 -0.1618  1.3155
  630MOL0     C84943   5.249  -0.046   8.109 -0.3297 -0.0940  0.2850
  630MOL0     C84944   5.120  -0.078   8.176  0.0514 -0.3422 -0.0672
  630MOL0     O84945   5.037   0.029   8.183  0.2643 -0.1780 -0.3360
  630MOL0     C84946   4.901   0.025   8.211  0.1892  0.3819  0.1709
  630MOL0     C84947   4.870  -0.003   8.338  0.1109 -0.2323  0.4801
  630MOL0     C84948   4.743  -0.021   8.387  0.2803  0.6625  0.2342
  630MOL0     C84949   4.637  -0.023   8.294 -0.4495 -0.2209  1.2303
  630MOL0     O84950   4.507  -0.044   8.310  1.3916 -0.0220  0.1208
  630MOL0     C84951   4.469  -0.139   8.421  0.2334  0.2170  0.2748
  630MOL0     C84952   4.319  -0.159   8.444 -0.2072 -0.6481 -0.1180
  630MOL0     C84953   4.263  -0.224   8.319 -0.7277  0.4491  0.0738
  630MOL0     C84954   4.115  -0.276   8.333 -0.9838 -1.1358  0.5294
  630MOL0     C84955   4.034  -0.322   8.206 -0.3544 -0.1799  0.1576
  630MOL0     C84956   3.996  -0.191   8.130  1.2762  0.3034  0.5697
  630MOL0     C84957   3.906  -0.093   8.216  0.0422  0.2539  0.3471
  630MOL0     C84958   3.853   0.020   8.127  0.3160  0.3783 -0.9607
  630MOL0    Cl84959   3.748   0.135   8.221  0.2337  0.4850  0.1650
  630MOL0     C84960   4.670   0.021   8.161 -0.0516 -0.3561  0.0511
  630MOL0     C84961   4.800   0.052   8.124  0.0961  1.1270  0.4856
  630MOL0     O84962   5.099  -0.192   8.233 -0.3669 -0.0657 -0.1700
  630MOL0     C84963   5.358  -0.134   8.122 -0.0180  0.0950  0.1124
  630MOL0     C84964   5.474  -0.099   8.060 -0.4608 -0.0171  0.7207
  630MOL0     N84965   6.050   0.087   8.181 -0.6970 -0.0334  0.0909
  630MOL0     N84966   6.166   0.127   8.214  0.2492  0.0557 -0.0055
  630MOL0     C84967   7.109   0.678   8.167 -0.1232 -0.5391  0.1255
  630MOL0     C84968   7.222   0.703   8.240 -0.4651 -1.0799 -0.1502
  630MOL0     C84969   7.512   0.567   8.563 -0.1816  0.8036 -0.7875
  630MOL0     C84970   7.640   0.593   8.508  0.0748  0.1382  0.5159
  630MOL0     C84971   7.758   0.593   8.583 -0.0564 -0.2716  0.0560
  630MOL0     C84972   7.742   0.575   8.718 -0.1511  0.1328 -0.5052
  630MOL0     O84973   7.846   0.602   8.803 -0.8169 -0.0097 -0.1427
  630MOL0     C84974   7.978   0.553   8.764 -0.5849  0.0651 -0.3443
  630MOL0     C84975   8.057   0.519   8.881 -0.5811  0.0993 -1.2999
  630MOL0     C84976   8.066   0.638   8.974 -0.2790  0.2887 -0.9537
  630MOL0     C84977   8.179   0.632   9.081 -0.4743  0.5498 -0.2790
  630MOL0     C84978   8.127   0.535   9.179  0.9189 -0.1822  0.3585
  630MOL0     C84979   8.080   0.453   9.256  0.4961 -0.1800  0.4680
  630MOL0     C84980   7.624   0.531   8.774 -0.2245 -0.5463 -1.0978
  630MOL0     C84981   7.517   0.523   8.698 -0.2810  0.2396  0.1219
  630MOL0     C84982   7.394   0.502   8.780  0.5732  0.9607 -0.0826
  630MOL0     H84983   7.362   0.388   8.223  0.2056  0.3404  2.3449
  630MOL0     H84984   7.161   0.344   8.107  0.0307  0.1685  3.2285
  630MOL0     H84985   7.051   0.500   7.857  1.4533 -0.7751  1.1251
  630MOL0     H84986   6.977   0.361   7.935 -0.5589  0.1148 -0.2338
  630MOL0     H84987   6.801   0.408   7.796  0.3567 -1.3333  0.5902
  630MOL0     H84988   6.850   0.576   7.779 -1.7846  0.0932  0.4467
  630MOL0     H84989   6.634   0.563   7.872  0.4450 -3.3618 -2.6539
  630MOL0     H84990   6.755   0.638   7.975 -0.6561 -0.3881  2.1710
  630MOL0     H84991   6.615   0.357   7.979 -0.7102  0.5176  0.7220
  630MOL0     H84992   6.760   0.367   8.071 -0.4501 -1.1283  1.2271
  630MOL0     H84993   6.590   0.399   8.230  0.1832  0.7062  0.2762
  630MOL0     H84994   6.659   0.562   8.205  1.5857 -0.4969 -0.1852
  630MOL0     H84995   6.411   0.582   8.199  0.4532 -0.2761  1.3767
  630MOL0     H84996   6.456   0.580   8.022 -4.1269 -1.1733 -1.1983
  630MOL0     H84997   6.409   0.346   8.011  1.0806 -0.8225  1.1236
  630MOL0     H84998   6.268   0.442   8.032 -2.3926 -1.6012  1.9849
  630MOL0     H84999   6.398   0.245   8.232 -0.3090 -1.0789 -2.9535
  630MOL0     H85000   6.312   0.395   8.292 -1.2184  1.5299  0.2380
  630MOL0     H85001   6.069   0.414   8.104  0.4330 -0.1212  0.6782
  630MOL0     H85002   5.803   0.115   8.100 -0.8633  1.2562 -0.5482
  630MOL0     H85003   5.804   0.291   8.156  2.5907  1.7165  0.9481
  630MOL0     H85004   5.866   0.379   7.954 -1.3201  1.1222  3.7615
  630MOL0     H85005   5.911   0.220   7.890  1.0201  3.0895 -0.4985
  630MOL0     H85006   5.667   0.347   7.823 -1.3510 -2.2060 -2.2353
  630MOL0     H85007   5.616   0.301   7.971 -0.1279  1.0179 -0.7246
  630MOL0     H85008   5.726   0.114   7.755 -2.0433  1.9308 -0.6723
  630MOL0     H85009   5.565   0.145   7.756  1.9150 -0.1619 -2.4287
  630MOL0     H85010   5.400   0.186   7.910  1.8364 -0.7103 -3.2567
  630MOL0     H85011   5.201   0.161   8.042  1.7030  1.0075 -1.8625
  630MOL0     H85012   4.946   0.003   8.415 -0.7056  2.9675  1.1678
  630MOL0     H85013   4.724  -0.007   8.493 -1.1194  2.2613 -0.1676
  630MOL0     H85014   4.501  -0.237   8.383 -4.2307 -0.8201 -1.4077
  630MOL0     H85015   4.524  -0.113   8.512 -1.6876 -0.4260  1.6719
  630MOL0     H85016   4.297  -0.218   8.534  0.5491  0.4165  0.8060
  630MOL0     H85017   4.269  -0.063   8.455  0.4179 -0.2282 -0.8516
  630MOL0     H85018   4.274  -0.159   8.232 -2.7099  0.0418 -0.5394
  630MOL0     H85019   4.321  -0.316   8.308 -2.2651 -0.8522  2.0768
  630MOL0     H85020   4.064  -0.203   8.396  0.2589  1.8047 -1.6274
  630MOL0     H85021   4.116  -0.364   8.397 -2.6489  0.0509  2.3075
  630MOL0     H85022   3.946  -0.368   8.251 -0.6542 -1.4128 -1.5619
  630MOL0     H85023   4.087  -0.397   8.146 -3.9280 -0.3629 -3.1775
  630MOL0     H85024   4.084  -0.130   8.110  1.0228  0.6936  0.6349
  630MOL0     H85025   3.951  -0.216   8.033 -0.3296 -1.1574  1.6218
  630MOL0     H85026   3.975  -0.046   8.286  2.0241  1.2170 -2.1354
  630MOL0     H85027   3.829  -0.146   8.274 -1.3810  1.7030 -0.1714
  630MOL0     H85028   3.936   0.084   8.095  3.0967 -1.7332  1.4971
  630MOL0     H85029   3.803  -0.033   8.046  1.1597 -1.6156 -0.2488
  630MOL0     H85030   4.590   0.028   8.087 -1.2042  0.5630  1.3260
  630MOL0     H85031   4.831   0.078   8.023  0.4567 -0.5823  0.1273
  630MOL0     H85032   5.344  -0.235   8.162  1.1085  0.3899  1.3383
  630MOL0     H85033   5.550  -0.174   8.074  0.8197  0.3114 -3.2716
  630MOL0     H85034   7.038   0.759   8.153 -1.1176 -0.6676  3.6240
  630MOL0     H85035   7.222   0.793   8.300 -3.3449 -2.1989  1.7893
  630MOL0     H85036   7.658   0.610   8.402  2.8581  3.8213  1.3903
  630MOL0     H85037   7.860   0.621   8.556 -0.5035  3.2940  1.4721
  630MOL0     H85038   8.039   0.617   8.700  0.2784 -0.8064 -0.4060
  630MOL0     H85039   7.967   0.456   8.714 -1.1399 -0.6299  1.0455
  630MOL0     H85040   8.158   0.490   8.850  0.1073  3.8780 -3.2770
  630MOL0     H85041   8.008   0.433   8.927 -1.4294  0.9845 -0.4990
  630MOL0     H85042   7.967   0.651   9.018  0.2187  2.8775 -0.4390
  630MOL0     H85043   8.085   0.732   8.921 -4.3803  2.6297  1.1929
  630MOL0     H85044   8.277   0.606   9.040  0.4548  1.9802  0.8813
  630MOL0     H85045   8.184   0.734   9.122  3.5546  1.0438 -1.5354
  630MOL0     H85046   8.059   0.368   9.318  1.5898 -1.0965 -0.3678
  630MOL0     H85047   7.613   0.519   8.881  0.3030 -3.4620 -1.2839
  630MOL0     H85048   7.414   0.477   8.885 -0.1738 -4.1395 -0.9126
  630MOL0     H85049   7.319   0.581   8.786 -1.6846 -0.9916 -1.1870
  630MOL0     H85050   7.342   0.416   8.738  0.9101  1.3661 -1.3891
  631MOL0     O85051   8.301   0.346   3.453 -0.1526 -0.4676 -0.4946
  631MOL0     C85052   8.390   0.269   3.430 -0.3141 -0.1036  0.0211
  631MOL0     O85053   8.517   0.317   3.394  0.4543  0.1703  0.7092
  631MOL0     C85054   8.612   0.228   3.360  0.2603 -0.1060 -0.7691
  631MOL0     C85055   8.683   0.237   3.241  0.7431  0.3741  0.2722
  631MOL0     C85056   8.790   0.151   3.220 -0.4992  0.7888 -0.0205
  631MOL0     C85057   8.836   0.058   3.319 -0.7375  0.0999 -0.7260
  631MOL0     O85058   8.942  -0.023   3.288  0.3595  1.0850 -0.0408
  631MOL0     C85059   9.058   0.047   3.246  0.7508 -0.4074  0.3609
  631MOL0     C85060   9.182  -0.031   3.289 -0.8990 -1.3522 -0.5748
  631MOL0     C85061   9.198  -0.021   3.433  0.6652 -0.0418  0.3844
  631MOL0     C85062   9.336  -0.057   3.478  0.5444 -0.3295 -0.2713
  631MOL0     C85063   9.331  -0.050   3.631 -0.5155 -0.3333 -0.0778
  631MOL0     C85064   9.469  -0.106   3.684  1.0813 -0.7794 -0.6291
  631MOL0     C85065   9.464  -0.121   3.836 -0.0896  0.5766  0.1784
  631MOL0     C85066   9.600  -0.159   3.888  0.6059 -0.3735  0.3612
  631MOL0     N85067   9.604  -0.242   4.005 -0.3918  0.2466 -0.6033
  631MOL0     C85068   9.571  -0.194   4.130  0.8636  0.0299 -0.2750
  631MOL0     C85069   9.596  -0.296   4.216 -0.1937  0.3347  1.4708
  631MOL0     C85070   9.580  -0.290   4.363 -0.8988 -1.2776  0.2893
  631MOL0     C85071   9.691  -0.217   4.437 -1.2342 -0.2536  0.2591
  631MOL0     C85072   9.675  -0.227   4.593  0.2369 -0.4447  0.4879
  631MOL0     C85073   9.650  -0.086   4.647  0.2818 -0.3720 -0.1493
  631MOL0     O85074   9.703  -0.072   4.778  0.5325  0.6608  0.5074
  631MOL0     C85075   9.685   0.046   4.847  0.1795  0.4594 -0.1708
  631MOL0     C85076   9.645   0.174   4.795  0.8238 -0.2764 -0.0849
  631MOL0     C85077   9.649   0.280   4.884  0.4267  0.2281 -0.5889
  631MOL0     C85078   9.692   0.265   5.018  0.4349  0.1230 -0.3692
  631MOL0     C85079   9.718   0.385   5.099  0.3721  0.2233  0.1891
  631MOL0     O85080   9.780   0.362   5.219  0.2140  0.6487  0.5740
  631MOL0     C85081   9.809   0.478   5.283 -0.0905 -0.8761  0.1505
  631MOL0     C85082   9.741   0.527   5.395  1.2831  0.2793 -0.0809
  631MOL0     C85083   9.751   0.660   5.437 -0.6557  0.1478  0.0180
  631MOL0     C85084   9.859   0.736   5.392 -0.6049 -1.1059  1.2235
  631MOL0     O85085   9.883   0.867   5.434  0.9396  0.1705  0.9696
  631MOL0     C85086   9.776   0.937   5.497  0.2875 -0.6149  0.1662
  631MOL0     C85087   9.820   1.087   5.490 -0.6584  0.9675  0.5152
  631MOL0     C85088   9.802   1.150   5.354 -1.4281  0.2300  0.7579
  631MOL0     C85089   9.925   1.237   5.309  1.4208 -0.1246  0.3066
  631MOL0     C85090   9.880   1.306   5.174 -0.2221 -0.0384  0.8348
  631MOL0     C85091   9.987   1.402   5.120 -0.0006  0.0195 -0.1679
  631MOL0     C85092   9.933   1.478   4.990 -0.4287 -0.1375 -0.1244
  631MOL0     C85093   9.953   1.388   4.863 -0.9943  0.2133 -0.5350
  631MOL0    Cl85094   9.914   1.471   4.706 -0.0369  0.5110  0.1977
  631MOL0     C85095   9.932   0.683   5.285 -0.6119  0.9083 -0.2892
  631MOL0     C85096   9.902   0.559   5.228  0.4149  0.1717 -0.0676
  631MOL0     O85097   9.667   0.495   5.066  0.6293  0.5130  0.1768
  631MOL0     C85098   9.730   0.132   5.063 -0.0109  0.0792 -0.1708
  631MOL0     C85099   9.728   0.023   4.979 -0.7107 -0.3544 -1.1219
  631MOL0     N85100   9.638  -0.400   4.137 -0.0122 -0.3729  0.2023
  631MOL0     N85101   9.644  -0.368   4.012  0.7949 -0.1433  0.2380
  631MOL0     C85102   8.762   0.048   3.438  0.5723 -0.0240 -0.1709
  631MOL0     C85103   8.656   0.135   3.462 -1.0385 -0.1981 -0.0064
  631MOL0     C85104   8.359   0.131   3.464  0.0574 -0.0941  0.0700
  631MOL0     C85105   8.363   0.027   3.365  0.2667 -0.9097  0.2056
  631MOL0     C85106   8.347  -0.109   3.403  0.1799  0.0570 -0.7369
  631MOL0     C85107   8.327  -0.148   3.545  0.2102  0.1169  0.6715
  631MOL0     O85108   8.319  -0.282   3.571 -0.1093  0.7171 -0.3509
  631MOL0     C85109   8.266  -0.306   3.706 -0.0810 -0.1121  0.2296
  631MOL0     C85110   8.223  -0.450   3.715  0.1016  0.5023 -0.1942
  631MOL0     C85111   8.180  -0.481   3.862 -0.0294 -0.1247 -0.3955
  631MOL0     C85112   8.104  -0.614   3.878  0.6556 -0.4905  0.6193
  631MOL0     C85113   7.959  -0.588   3.874 -0.7302  0.3988  0.5304
  631MOL0     C85114   7.841  -0.573   3.881 -0.1798 -0.1220  0.1072
  631MOL0     C85115   8.330  -0.043   3.634  0.2558  0.4875 -0.4782
  631MOL0     C85116   8.344   0.091   3.598  1.0648  1.0868 -0.7644
  631MOL0     C85117   8.349   0.192   3.712 -0.1214  1.1106  0.0893
  631MOL0     H85118   8.645   0.306   3.166 -0.5107  1.7020  2.0620
  631MOL0     H85119   8.838   0.154   3.122 -3.3874  1.7024 -1.5276
  631MOL0     H85120   9.057   0.054   3.136 -0.3174 -3.4128  0.0859
  631MOL0     H85121   9.063   0.146   3.292  0.9913  0.7624 -2.0198
  631MOL0     H85122   9.267   0.012   3.235 -1.5279 -0.7543 -1.1151
  631MOL0     H85123   9.179  -0.136   3.260 -1.2741 -1.4721 -0.1017
  631MOL0     H85124   9.135  -0.098   3.480 -0.2613  1.6243  1.9938
  631MOL0     H85125   9.179   0.081   3.468  3.0136  1.2912 -1.9032
  631MOL0     H85126   9.368  -0.151   3.433  0.4750  0.6922 -2.5753
  631MOL0     H85127   9.406   0.015   3.436  0.3078 -0.3310 -0.6720
  631MOL0     H85128   9.327   0.049   3.676  0.3346 -1.3761  2.5257
  631MOL0     H85129   9.256  -0.113   3.680  1.0071 -1.1634  1.2947
  631MOL0     H85130   9.491  -0.197   3.628  2.5695  1.0868 -3.3502
  631MOL0     H85131   9.541  -0.030   3.651  0.2834  0.0889 -0.4253
  631MOL0     H85132   9.398  -0.201   3.871  3.0709 -2.0974  0.6236
  631MOL0     H85133   9.429  -0.023   3.869 -2.0387  0.7963 -2.2340
  631MOL0     H85134   9.662  -0.201   3.809  1.6802  1.7440  0.0048
  631MOL0     H85135   9.639  -0.057   3.902 -2.8577  1.0078  0.8920
  631MOL0     H85136   9.520  -0.100   4.144 -2.3396 -1.1234 -2.7355
  631MOL0     H85137   9.485  -0.240   4.384  0.2511 -0.0955  3.3454
  631MOL0     H85138   9.567  -0.395   4.390  1.6414 -2.0210 -1.0359
  631MOL0     H85139   9.776  -0.282   4.414 -0.7803  0.1259  0.8353
  631MOL0     H85140   9.704  -0.114   4.403 -1.2658 -0.4962 -0.5081
  631MOL0     H85141   9.756  -0.276   4.649  0.7480 -1.9350 -1.4504
  631MOL0     H85142   9.582  -0.283   4.610  0.6149 -0.9291  1.0273
  631MOL0     H85143   9.544  -0.068   4.665  0.5253  0.5456  0.4856
  631MOL0     H85144   9.694  -0.008   4.584 -0.5685  1.8563  1.8616
  631MOL0     H85145   9.609   0.203   4.697  1.2472 -0.4109 -0.2867
  631MOL0     H85146   9.622   0.376   4.841 -2.1991 -0.4172 -0.5423
  631MOL0     H85147   9.662   0.472   5.444  1.9985 -1.0093 -0.3267
  631MOL0     H85148   9.676   0.697   5.507 -3.6787 -2.2475 -1.6749
  631MOL0     H85149   9.681   0.926   5.444 -1.4978 -1.1207  3.2169
  631MOL0     H85150   9.757   0.910   5.601 -0.3598  2.2713  0.8921
  631MOL0     H85151   9.764   1.142   5.566  0.3308  2.6707  0.0665
  631MOL0     H85152   9.925   1.084   5.523 -0.3055 -4.0700 -0.1385
  631MOL0     H85153   9.779   1.068   5.285 -0.5901 -0.9392  1.8268
  631MOL0     H85154   9.710   1.209   5.356 -1.7178  0.3668 -4.2447
  631MOL0     H85155  10.005   1.163   5.297 -0.1146 -1.6151 -1.1720
  631MOL0     H85156   9.953   1.316   5.380  1.0447  1.1127 -0.8731
  631MOL0     H85157   9.782   1.353   5.186 -1.4939 -2.1655 -0.5992
  631MOL0     H85158   9.843   1.235   5.100 -1.9969 -0.1897  1.7991
  631MOL0     H85159  10.010   1.469   5.203 -0.9623 -1.0452  1.0060
  631MOL0     H85160  10.074   1.341   5.097 -0.1074 -0.7796  1.3958
  631MOL0     H85161   9.986   1.573   4.980 -1.0283 -0.0196 -2.7085
  631MOL0     H85162   9.826   1.496   4.998 -0.3824  1.4630 -2.2782
  631MOL0     H85163  10.055   1.350   4.853 -0.8665 -0.5511  2.6006
  631MOL0     H85164   9.896   1.294   4.860  2.1021 -1.8178 -0.5731
  631MOL0     H85165  10.011   0.742   5.239  1.2698 -1.0957  0.2022
  631MOL0     H85166   9.948   0.544   5.130  2.0176 -1.1063  0.8313
  631MOL0     H85167   9.755   0.129   5.169 -1.3714  2.2035  0.2697
  631MOL0     H85168   9.764  -0.070   5.022  2.5311  0.3495 -2.0535
  631MOL0     H85169   8.792  -0.025   3.513 -0.4838  0.4484  0.7443
  631MOL0     H85170   8.622   0.129   3.565  2.7481  0.9056  1.4984
  631MOL0     H85171   8.369   0.054   3.260 -0.1669  0.3765  0.4989
  631MOL0     H85172   8.358  -0.187   3.328  0.8555 -1.5278  0.9295
  631MOL0     H85173   8.178  -0.243   3.721 -0.7615 -1.3218  1.5964
  631MOL0     H85174   8.350  -0.286   3.773 -0.8211 -0.6594  1.3444
  631MOL0     H85175   8.294  -0.525   3.678 -1.4561 -0.8586 -0.5704
  631MOL0     H85176   8.136  -0.475   3.652 -0.8704 -0.1106  1.3196
  631MOL0     H85177   8.123  -0.398   3.905 -0.7220 -1.0603  0.5365
  631MOL0     H85178   8.277  -0.481   3.912  0.9678 -0.1164 -2.2569
  631MOL0     H85179   8.128  -0.687   3.800 -0.1576  1.6671 -1.7933
  631MOL0     H85180   8.131  -0.656   3.975  2.6317 -0.6351  0.0385
  631MOL0     H85181   7.735  -0.561   3.885 -0.5161 -2.7439  0.8883
  631MOL0     H85182   8.332  -0.072   3.739  0.3009  1.3704 -0.2307
  631MOL0     H85183   8.447   0.241   3.717  2.1497 -2.9965 -0.1685
  631MOL0     H85184   8.262   0.252   3.682 -2.0106 -0.2640  2.4099
  631MOL0     H85185   8.332   0.151   3.812  2.7312 -1.3199 -0.2935
  632MOL0     O85186   1.154   0.347  10.761  0.7227 -0.6735  0.0515
  632MOL0     C85187   1.216   0.437  10.820 -0.0895 -0.5803 -0.1121
  632MOL0     O85188   1.287   0.534  10.755 -0.1923  0.9496 -0.2010
  632MOL0     C85189   1.237   0.561  10.633  0.8787  0.5581  0.0580
  632MOL0     C85190   1.309   0.519  10.526  0.7219 -0.2023 -1.0567
  632MOL0     C85191   1.271   0.544  10.399 -0.8709 -0.2974 -0.3053
  632MOL0     C85192   1.166   0.630  10.372  0.4980 -0.4956 -0.1967
  632MOL0     O85193   1.122   0.672  10.248  0.0249  0.1837 -0.1009
  632MOL0     C85194   1.176   0.605  10.135 -0.4323  0.5429  1.4601
  632MOL0     C85195   1.135   0.671  10.008  1.1250 -0.8256  0.2129
  632MOL0     C85196   1.196   0.617   9.879  0.6125  0.1978 -0.4600
  632MOL0     C85197   1.342   0.651   9.841  0.3247 -0.1579  0.3721
  632MOL0     C85198   1.374   0.613   9.701 -0.6011  0.4829 -0.1380
  632MOL0     C85199   1.522   0.625   9.689  0.0316 -0.0225  0.1527
  632MOL0     C85200   1.601   0.491   9.682 -0.5264 -0.1738 -0.0487
  632MOL0     C85201   1.630   0.443   9.830  0.5041  0.3777  0.5238
  632MOL0     N85202   1.725   0.529   9.901 -0.3681 -0.7663 -0.1000
  632MOL0     C85203   1.866   0.550   9.867 -0.9611  0.5994  0.2760
  632MOL0     C85204   1.915   0.634   9.963  0.1249 -0.7760 -0.1237
  632MOL0     C85205   2.056   0.690   9.979  0.3439  0.4596  0.2686
  632MOL0     C85206   2.067   0.830  10.022  0.2837  1.1017  0.0526
  632MOL0     C85207   2.218   0.873  10.005 -0.7011  0.2827 -0.2728
  632MOL0     C85208   2.256   0.981  10.113 -0.1592 -0.0749 -0.8478
  632MOL0     O85209   2.400   1.000  10.098  0.9480 -0.2650 -0.3594
  632MOL0     C85210   2.437   1.136  10.097 -0.5844  0.5668  0.4947
  632MOL0     C85211   2.382   1.249  10.155 -0.1037 -1.1428  0.1637
  632MOL0     C85212   2.444   1.376  10.147 -0.8454  0.2054 -0.0386
  632MOL0     C85213   2.569   1.400  10.083  0.7579 -0.0380 -0.2575
  632MOL0     C85214   2.630   1.532  10.079 -0.0216  0.9597 -0.9557
  632MOL0     O85215   2.745   1.540  10.015 -0.3967 -0.6616 -0.6003
  632MOL0     C85216   2.804   1.657   9.991  0.2045 -0.5937  0.2183
  632MOL0     C85217   2.942   1.648   9.970 -0.1230  0.3781 -0.3217
  632MOL0     C85218   3.014   1.769   9.943 -0.6818 -0.1939  0.9815
  632MOL0     C85219   2.960   1.898   9.951  0.2766  0.2937 -1.0787
  632MOL0     O85220   3.032   2.009   9.968 -0.1725 -1.2127  0.5043
  632MOL0     C85221   3.136   2.022   9.874  0.6075  0.2995  0.5112
  632MOL0     C85222   3.180   2.165   9.895  0.7556 -0.1957 -0.2007
  632MOL0     C85223   3.301   2.194   9.814 -0.1381 -0.2550  0.5651
  632MOL0     C85224   3.314   2.338   9.774 -1.3593 -0.4180  0.0481
  632MOL0     C85225   3.453   2.365   9.712  0.3964  0.3066  0.3569
  632MOL0     C85226   3.485   2.519   9.716  1.3879  0.1116 -0.3521
  632MOL0     C85227   3.620   2.538   9.650 -0.1285  0.2311  0.0696
  632MOL0     C85228   3.657   2.687   9.640  0.2359 -0.9907  0.2264
  632MOL0    Cl85229   3.765   2.716   9.492 -0.1965  0.5739  0.1330
  632MOL0     C85230   2.826   1.906   9.979  0.3282 -0.0546  0.4371
  632MOL0     C85231   2.746   1.787   9.988 -0.3684 -1.2910 -0.0595
  632MOL0     O85232   2.578   1.615  10.154  0.5040  0.7506  0.2871
  632MOL0     C85233   2.632   1.281  10.050  0.6620  0.5350 -1.1206
  632MOL0     C85234   2.566   1.156  10.046 -0.1472  0.8610  0.0257
  632MOL0     N85235   1.810   0.662  10.054  0.3573 -0.1469  0.4412
  632MOL0     N85236   1.700   0.604  10.006 -0.2586 -0.4641 -0.7138
  632MOL0     C85237   1.084   0.680  10.481 -0.1614  0.2158 -0.5183
  632MOL0     C85238   1.129   0.647  10.615 -0.4711 -1.0767  1.0388
  632MOL0     C85239   1.235   0.441  10.969 -0.4299  0.0024 -0.2731
  632MOL0     C85240   1.356   0.495  11.017  0.0760 -0.1913  0.2021
  632MOL0     C85241   1.382   0.484  11.151  0.5737  0.0388  0.4453
  632MOL0     C85242   1.289   0.435  11.243  0.1946 -0.4904 -0.4581
  632MOL0     O85243   1.328   0.436  11.374  0.4976 -0.7352 -0.0838
  632MOL0     C85244   1.320   0.292  11.409 -0.0176 -0.2889  0.5626
  632MOL0     C85245   1.406   0.271  11.537  0.9839  0.3612  0.4792
  632MOL0     C85246   1.442   0.129  11.557  0.1588  0.6951 -0.1549
  632MOL0     C85247   1.526   0.071  11.447 -0.8144  1.2184 -0.8868
  632MOL0     C85248   1.591  -0.048  11.492 -0.4432  0.2193  0.7058
  632MOL0     C85249   1.651  -0.150  11.519  0.1449  0.4712 -0.3751
  632MOL0     C85250   1.162   0.390  11.194 -1.3733  0.2564  0.2827
  632MOL0     C85251   1.133   0.392  11.055  0.9117 -0.2705 -0.6233
  632MOL0     C85252   0.998   0.332  11.003  0.0496 -0.3433  0.0424
  632MOL0     H85253   1.400   0.467  10.554  1.7164  2.6583  1.7568
  632MOL0     H85254   1.333   0.507  10.318 -0.5652 -1.7907  0.5781
  632MOL0     H85255   1.284   0.595  10.131 -0.5558 -0.8465  1.1289
  632MOL0     H85256   1.146   0.500  10.139  3.4046 -0.7524  0.3357
  632MOL0     H85257   1.160   0.778  10.014  2.5538 -1.0592 -1.0575
  632MOL0     H85258   1.026   0.683  10.012  1.1252  1.0601 -2.4987
  632MOL0     H85259   1.135   0.650   9.794  1.3911  1.4063 -0.5716
  632MOL0     H85260   1.191   0.508   9.887  2.1081  0.1752  0.4175
  632MOL0     H85261   1.358   0.759   9.842  0.3877 -0.1407 -0.6950
  632MOL0     H85262   1.424   0.618   9.906  0.9455 -0.9477 -0.7748
  632MOL0     H85263   1.335   0.515   9.672  0.3757  0.3860 -1.2291
  632MOL0     H85264   1.329   0.688   9.635 -0.3982  1.2335  0.5657
  632MOL0     H85265   1.535   0.662   9.587 -1.3528 -2.7930 -1.1614
  632MOL0     H85266   1.570   0.690   9.763 -2.0014 -1.6834  3.1546
  632MOL0     H85267   1.697   0.514   9.635  0.2525 -0.4734  1.3363
  632MOL0     H85268   1.550   0.420   9.616 -0.5527  1.8634 -2.3769
  632MOL0     H85269   1.543   0.430   9.894 -0.8320 -0.9057 -1.4285
  632MOL0     H85270   1.680   0.347   9.815 -1.4131 -0.8884  1.8643
  632MOL0     H85271   1.915   0.499   9.785 -2.4784  1.4504 -1.2403
  632MOL0     H85272   2.124   0.626  10.036 -1.6143 -0.6857  1.4115
  632MOL0     H85273   2.097   0.680   9.878  1.8164 -1.3290  0.9796
  632MOL0     H85274   2.007   0.887   9.950  0.2864  0.0592 -0.8159
  632MOL0     H85275   2.022   0.833  10.121  0.8941 -1.3597  0.4794
  632MOL0     H85276   2.237   0.926   9.912 -1.8034  1.8005  0.3308
  632MOL0     H85277   2.287   0.788  10.009 -1.7116 -0.5307  3.1845
  632MOL0     H85278   2.243   0.948  10.217  2.5876  2.3506  0.3998
  632MOL0     H85279   2.190   1.066  10.098 -1.3468 -0.8319 -0.1086
  632MOL0     H85280   2.287   1.247  10.207  0.4880  0.1241  1.3775
  632MOL0     H85281   2.397   1.464  10.191  1.8662  0.4486  2.6685
  632MOL0     H85282   2.979   1.547   9.986 -0.1305  0.5103  0.5329
  632MOL0     H85283   3.122   1.770   9.938 -0.6526  1.4129  1.4182
  632MOL0     H85284   3.224   1.958   9.888  0.4147  0.1876  1.2422
  632MOL0     H85285   3.102   2.010   9.770  2.8026  3.9924 -0.8194
  632MOL0     H85286   3.098   2.229   9.863 -1.0029 -0.4921  3.1884
  632MOL0     H85287   3.192   2.177  10.003 -0.4129 -0.3827 -0.0317
  632MOL0     H85288   3.389   2.162   9.872  0.6818 -0.4997 -0.7782
  632MOL0     H85289   3.298   2.134   9.723  1.0680 -0.1798  0.4600
  632MOL0     H85290   3.299   2.411   9.854  3.5483  0.7545  0.2052
  632MOL0     H85291   3.234   2.358   9.702 -0.8503  2.7736  0.2343
  632MOL0     H85292   3.456   2.318   9.613  1.9452  2.6717 -0.8335
  632MOL0     H85293   3.518   2.312   9.782 -3.1737 -2.9455  1.5464
  632MOL0     H85294   3.412   2.568   9.652 -1.5182  0.8776  3.1906
  632MOL0     H85295   3.486   2.547   9.822  2.2202  0.7377 -0.5235
  632MOL0     H85296   3.617   2.499   9.548  0.9400 -0.2103  0.1966
  632MOL0     H85297   3.689   2.481   9.714 -3.0152  0.3019  3.5607
  632MOL0     H85298   3.565   2.745   9.630  0.8611 -0.1504 -0.9578
  632MOL0     H85299   3.704   2.724   9.731 -1.1686 -0.9518  0.9570
  632MOL0     H85300   2.785   2.006   9.978  1.1250  0.3385 -2.1175
  632MOL0     H85301   2.639   1.787  10.006 -0.3502  0.8932  0.2567
  632MOL0     H85302   2.735   1.285  10.016  0.0933  0.2858 -2.9844
  632MOL0     H85303   2.615   1.062  10.025  1.8723  1.8440  0.1440
  632MOL0     H85304   0.985   0.720  10.461  1.2666  3.6180 -1.4681
  632MOL0     H85305   1.070   0.681  10.700  0.6721  1.2611  1.0027
  632MOL0     H85306   1.424   0.553  10.955 -0.7852  0.7299  0.0991
  632MOL0     H85307   1.475   0.531  11.180 -0.0135  0.3214  1.9817
  632MOL0     H85308   1.358   0.230  11.328 -0.9542 -0.0730 -0.0479
  632MOL0     H85309   1.217   0.262  11.428 -1.1453  1.8114 -1.7213
  632MOL0     H85310   1.339   0.313  11.613 -0.4465  2.6409 -1.8362
  632MOL0     H85311   1.497   0.331  11.536  1.7300 -0.4059 -4.4064
  632MOL0     H85312   1.352   0.068  11.560  1.8639 -1.9457  1.8101
  632MOL0     H85313   1.485   0.114  11.657 -1.7796 -1.0528  0.4679
  632MOL0     H85314   1.469   0.044  11.358  0.8965  0.9987 -1.9502
  632MOL0     H85315   1.599   0.144  11.413  0.6799  1.3353  2.2363
  632MOL0     H85316   1.697  -0.246  11.534  2.3922  1.3072 -1.3439
  632MOL0     H85317   1.094   0.345  11.266 -1.1124 -3.1777 -1.4361
  632MOL0     H85318   0.951   0.411  10.943  1.9008  3.9383  3.6406
  632MOL0     H85319   1.022   0.245  10.941 -1.3162  0.8807 -2.3413
  632MOL0     H85320   0.931   0.299  11.083 -1.1634  0.7341 -0.4976
  633MOL0     O85321   2.735   4.164   6.650 -0.1399 -0.5854  0.0822
  633MOL0     C85322   2.677   4.272   6.661 -0.2213  0.1073  0.0393
  633MOL0     O85323   2.650   4.321   6.780 -0.0019 -0.4841 -0.4388
  633MOL0     C85324   2.640   4.236   6.890 -0.4337  0.8064  1.4109
  633MOL0     C85325   2.701   4.275   7.010  0.0922 -0.7586 -0.4834
  633MOL0     C85326   2.693   4.195   7.123 -0.1053  0.0495  0.1379
  633MOL0     C85327   2.608   4.080   7.119  0.6723  0.0051 -1.0432
  633MOL0     O85328   2.607   3.993   7.226 -0.4763 -0.0338  0.0358
  633MOL0     C85329   2.644   4.034   7.360  0.1521  1.1014  0.4588
  633MOL0     C85330   2.547   4.131   7.421 -0.0879 -0.3148 -0.7889
  633MOL0     C85331   2.395   4.091   7.425 -0.2253 -0.6542  0.4774
  633MOL0     C85332   2.334   4.148   7.547 -0.2408  0.0991  0.2388
  633MOL0     C85333   2.172   4.140   7.535  0.5833 -0.7782 -0.9114
  633MOL0     C85334   2.125   3.988   7.529 -0.0554 -0.4355  0.1309
  633MOL0     C85335   2.192   3.892   7.632 -0.8362 -0.3441  0.2778
  633MOL0     C85336   2.179   3.942   7.778 -0.2908  0.3298  0.1109
  633MOL0     N85337   2.142   3.825   7.859  0.0587 -0.7131  0.2446
  633MOL0     C85338   2.223   3.764   7.953  0.4745 -0.4953  1.1207
  633MOL0     C85339   2.148   3.658   7.990  0.3780 -0.1943  0.4881
  633MOL0     C85340   2.208   3.551   8.069 -0.2129 -0.3906  0.1621
  633MOL0     C85341   2.335   3.494   8.009  0.6198 -0.1098  0.3297
  633MOL0     C85342   2.400   3.380   8.086  0.0996 -0.2743  0.4141
  633MOL0     C85343   2.545   3.360   8.059  0.6986  0.6058 -1.4176
  633MOL0     O85344   2.587   3.259   8.155 -0.0030 -0.2561  0.1463
  633MOL0     C85345   2.712   3.197   8.134  1.5698  0.0633  0.8683
  633MOL0     C85346   2.738   3.080   8.199 -0.7649 -0.3306 -0.7168
  633MOL0     C85347   2.864   3.026   8.191  0.7590 -0.3627 -0.1353
  633MOL0     C85348   2.973   3.076   8.118  0.5422 -0.8149 -0.9953
  633MOL0     C85349   3.113   3.022   8.110 -0.5668  0.3553  0.0913
  633MOL0     O85350   3.129   2.894   8.151  0.5173  0.5017 -0.4636
  633MOL0     C85351   3.257   2.847   8.164  0.7091 -0.4496  0.5151
  633MOL0     C85352   3.333   2.885   8.274 -0.4494 -0.1309  0.5012
  633MOL0     C85353   3.455   2.819   8.295 -0.1535  0.6089  0.6396
  633MOL0     C85354   3.507   2.731   8.189  1.4421 -0.3968 -0.7026
  633MOL0     O85355   3.619   2.653   8.199 -0.1794  0.0503  0.9536
  633MOL0     C85356   3.726   2.741   8.222 -0.2205  0.2768 -0.2855
  633MOL0     C85357   3.831   2.662   8.307  0.1978 -0.6912 -0.0292
  633MOL0     C85358   3.958   2.754   8.319 -0.1767  0.4815  0.3486
  633MOL0     C85359   3.939   2.886   8.399 -0.4348 -0.3055  0.6960
  633MOL0     C85360   4.072   2.951   8.437  0.1824 -0.2788 -0.6607
  633MOL0     C85361   4.088   3.107   8.433 -0.0630  0.0153  0.2536
  633MOL0     C85362   3.978   3.194   8.504  0.7113 -0.7233  0.2459
  633MOL0     C85363   3.997   3.209   8.660  1.3572 -0.8761  0.1015
  633MOL0    Cl85364   4.133   3.324   8.707  0.2748  0.4796  0.2083
  633MOL0     C85365   3.431   2.711   8.076 -0.7217  0.1717 -0.7490
  633MOL0     C85366   3.307   2.761   8.064  0.5237  0.3955  0.1396
  633MOL0     O85367   3.201   3.091   8.050  0.1936 -0.5694  0.2564
  633MOL0     C85368   2.931   3.184   8.041  0.2496 -0.6801 -0.1869
  633MOL0     C85369   2.812   3.252   8.054 -0.4893  0.0577  0.5043
  633MOL0     N85370   2.022   3.659   7.933 -0.4879 -0.3220  0.9223
  633MOL0     N85371   2.019   3.760   7.859 -0.3324  0.4056  0.0740
  633MOL0     C85372   2.529   4.052   7.011  0.4624  0.4622  0.8744
  633MOL0     C85373   2.560   4.118   6.893 -0.1790 -0.6925 -0.7774
  633MOL0     C85374   2.660   4.369   6.545 -0.3136 -0.4914  0.3276
  633MOL0     C85375   2.629   4.496   6.573  0.9013 -1.6086 -0.5110
  633MOL0     C85376   2.656   4.600   6.489  0.2860 -0.1905 -0.0307
  633MOL0     C85377   2.718   4.578   6.369  0.4266  0.8606 -0.5428
  633MOL0     O85378   2.754   4.687   6.291  0.6531  0.0807 -0.2049
  633MOL0     C85379   2.796   4.657   6.158  0.2969  0.3470  0.3918
  633MOL0     C85380   2.819   4.776   6.067 -0.5775  0.1489 -0.7651
  633MOL0     C85381   2.945   4.855   6.104  0.4125 -0.0023 -0.8740
  633MOL0     C85382   3.073   4.811   6.048 -0.8452  0.4811 -0.3033
  633MOL0     C85383   3.098   4.852   5.909 -0.4236 -0.1281  0.4747
  633MOL0     C85384   3.127   4.885   5.798  0.9296 -0.4904 -0.5119
  633MOL0     C85385   2.740   4.446   6.327 -1.0669 -0.6603  0.1156
  633MOL0     C85386   2.721   4.340   6.415  0.6789  0.0463 -0.7114
  633MOL0     C85387   2.761   4.202   6.368 -0.3209 -0.7763 -1.0125
  633MOL0     H85388   2.759   4.366   7.022 -1.2117  0.2665 -1.5898
  633MOL0     H85389   2.753   4.224   7.209  0.4995  2.2669 -0.9629
  633MOL0     H85390   2.637   3.944   7.421  0.4091 -0.6723 -2.0063
  633MOL0     H85391   2.745   4.075   7.364 -0.4778  2.6759  1.4532
  633MOL0     H85392   2.561   4.223   7.364 -0.6031  0.6156  0.5254
  633MOL0     H85393   2.580   4.141   7.525  3.1112  0.9856 -1.8007
  633MOL0     H85394   2.365   3.986   7.414 -1.9441 -0.0165 -1.7926
  633MOL0     H85395   2.354   4.141   7.336  2.0750  0.7353  0.1159
  633MOL0     H85396   2.373   4.095   7.635  0.1927  1.3474  0.8112
  633MOL0     H85397   2.358   4.254   7.551  2.5618 -0.4567  3.7213
  633MOL0     H85398   2.140   4.190   7.627  1.4615  0.9952 -1.5369
  633MOL0     H85399   2.135   4.206   7.456 -0.0790  0.6587  0.5472
  633MOL0     H85400   2.019   3.964   7.534  0.4454 -2.6956  1.2906
  633MOL0     H85401   2.154   3.963   7.426  0.9568  1.0421  0.0190
  633MOL0     H85402   2.297   3.869   7.614 -1.0118 -1.3903  0.5164
  633MOL0     H85403   2.143   3.794   7.627  0.3593 -1.3573  4.4600
  633MOL0     H85404   2.259   4.005   7.817  0.2872  0.9980 -2.0055
  633MOL0     H85405   2.099   4.016   7.791  0.1609  0.8009  0.2215
  633MOL0     H85406   2.329   3.774   7.972  0.8252  1.2659 -1.2709
  633MOL0     H85407   2.244   3.590   8.164 -0.3110 -2.1009  0.9507
  633MOL0     H85408   2.139   3.466   8.078  1.4268 -1.6433  1.6061
  633MOL0     H85409   2.294   3.456   7.914 -1.4795 -1.0831  1.5303
  633MOL0     H85410   2.416   3.560   7.979  2.2309 -1.7582  0.8835
  633MOL0     H85411   2.345   3.288   8.064 -0.4014 -0.4703  2.2709
  633MOL0     H85412   2.378   3.399   8.192 -2.3845  3.0848 -0.5018
  633MOL0     H85413   2.604   3.451   8.069 -1.8793  2.1576  1.6781
  633MOL0     H85414   2.568   3.314   7.963  0.7935 -2.2712 -0.1366
  633MOL0     H85415   2.665   3.044   8.271  0.1500  1.4570  1.2065
  633MOL0     H85416   2.886   2.949   8.265 -0.0424 -1.5036 -1.0391
  633MOL0     H85417   3.306   2.962   8.346  2.2600 -0.1289  1.6534
  633MOL0     H85418   3.512   2.842   8.385 -1.7790 -0.1228  1.9055
  633MOL0     H85419   3.762   2.756   8.120  0.4721 -0.8950 -0.2322
  633MOL0     H85420   3.709   2.835   8.276  1.9869  2.0991 -2.4825
  633MOL0     H85421   3.778   2.639   8.400 -3.0067 -0.9038 -1.7671
  633MOL0     H85422   3.868   2.569   8.263  0.5053 -0.9468  0.7420
  633MOL0     H85423   4.038   2.696   8.366  1.1971  4.8398  4.1463
  633MOL0     H85424   3.984   2.783   8.217 -0.6129  1.3694  0.4776
  633MOL0     H85425   3.877   2.866   8.486  3.1095 -2.1419  3.0689
  633MOL0     H85426   3.897   2.961   8.332 -2.4525 -0.9080  1.2405
  633MOL0     H85427   4.141   2.918   8.359 -0.6776 -0.7076 -1.2570
  633MOL0     H85428   4.103   2.911   8.534  0.9582  0.0613 -0.7604
  633MOL0     H85429   4.189   3.133   8.466  0.0685 -0.3762  0.1670
  633MOL0     H85430   4.093   3.144   8.331 -0.3116 -0.8505 -0.0813
  633MOL0     H85431   3.882   3.144   8.489  0.4421  0.3001 -1.8488
  633MOL0     H85432   3.984   3.299   8.475 -2.5717 -0.4859  0.0485
  633MOL0     H85433   3.907   3.239   8.714  1.2370 -3.1782  1.2787
  633MOL0     H85434   4.022   3.113   8.707 -0.7449 -1.0863  0.8997
  633MOL0     H85435   3.473   2.649   7.997 -0.7998 -0.9584  0.0801
  633MOL0     H85436   3.252   2.733   7.975  1.7507  1.7923 -1.0906
  633MOL0     H85437   2.996   3.216   7.959 -0.6977 -1.7066 -1.3694
  633MOL0     H85438   2.795   3.338   7.991 -2.9224 -1.5011 -1.0889
  633MOL0     H85439   2.456   3.971   7.009  3.0753 -2.0487 -0.4823
  633MOL0     H85440   2.513   4.089   6.799 -0.6859  3.0190 -1.8477
  633MOL0     H85441   2.584   4.518   6.669 -0.0187 -1.1537 -1.0217
  633MOL0     H85442   2.614   4.697   6.513  0.7800  0.2352 -0.8469
  633MOL0     H85443   2.724   4.595   6.104  1.2224 -0.9019  0.5328
  633MOL0     H85444   2.894   4.608   6.154 -1.1044 -2.5946 -0.6835
  633MOL0     H85445   2.733   4.844   6.068 -1.9764 -1.5441 -0.9589
  633MOL0     H85446   2.827   4.741   5.964  2.0332  1.8636 -1.2296
  633MOL0     H85447   2.949   4.849   6.213 -2.2756 -2.2667 -0.7846
  633MOL0     H85448   2.929   4.960   6.077  0.2406  0.4275  0.8095
  633MOL0     H85449   3.146   4.864   6.111  0.4862 -3.2445  1.6114
  633MOL0     H85450   3.095   4.705   6.062  2.0405  1.2193  1.8790
  633MOL0     H85451   3.152   4.903   5.695  0.7581 -3.1768 -1.1089
  633MOL0     H85452   2.795   4.410   6.240  0.9127 -0.5570  1.2709
  633MOL0     H85453   2.780   4.196   6.261  3.9160  1.9879 -0.6344
  633MOL0     H85454   2.860   4.176   6.407 -1.0943 -1.5431  0.5474
  633MOL0     H85455   2.680   4.133   6.395 -0.1828 -0.8206 -0.7054
  634MOL0     O85456   2.126   6.889   2.043  0.3034  0.1839  0.3173
  634MOL0     C85457   2.192   6.818   1.959 -0.8850  0.2573  0.0629
  634MOL0     O85458   2.167   6.681   1.943 -0.2945  0.3022 -0.1228
  634MOL0     C85459   2.136   6.614   2.057 -0.1756  0.4608 -0.6510
  634MOL0     C85460   2.217   6.629   2.169 -0.0818  0.4588  0.0699
  634MOL0     C85461   2.177   6.548   2.280  0.0223  0.0015  1.5691
  634MOL0     C85462   2.072   6.459   2.283  0.5288  0.3635  0.5829
  634MOL0     O85463   2.053   6.383   2.397  0.7540  0.0298  0.4822
  634MOL0     C85464   1.924   6.380   2.457  0.9457 -0.0592 -0.6261
  634MOL0     C85465   1.911   6.492   2.565  0.4575  1.3414  0.6512
  634MOL0     C85466   1.772   6.477   2.625 -0.0378 -0.9873 -0.0061
  634MOL0     C85467   1.764   6.386   2.752  0.1672 -0.0128  1.7610
  634MOL0     C85468   1.633   6.304   2.753 -1.0152 -0.6568  1.1604
  634MOL0     C85469   1.655   6.172   2.817  0.1064  1.0187  0.6570
  634MOL0     C85470   1.529   6.069   2.811  0.8650  0.4384 -0.1274
  634MOL0     C85471   1.576   5.927   2.862 -0.1642 -0.1399  0.5816
  634MOL0     N85472   1.462   5.838   2.871  0.0348  0.0285 -0.0179
  634MOL0     C85473   1.408   5.756   2.774 -0.3124  1.0072  0.4412
  634MOL0     C85474   1.297   5.709   2.830  0.5902 -0.4808  0.0644
  634MOL0     C85475   1.205   5.610   2.771  0.6101  0.2073  0.3504
  634MOL0     C85476   1.066   5.695   2.755 -0.2236 -0.4572  1.7416
  634MOL0     C85477   0.957   5.592   2.755 -0.1328 -0.3636  0.1093
  634MOL0     C85478   0.816   5.650   2.739 -0.1147  0.7421  0.1466
  634MOL0     O85479   0.773   5.731   2.854  0.7261 -0.6128 -0.3329
  634MOL0     C85480   0.680   5.681   2.946  0.0397 -0.2849 -0.7621
  634MOL0     C85481   0.629   5.775   3.041 -0.1100 -0.7008  0.0003
  634MOL0     C85482   0.530   5.732   3.143 -0.1278 -0.9481  0.2399
  634MOL0     C85483   0.497   5.596   3.144  0.0525  0.1804  0.6622
  634MOL0     C85484   0.407   5.546   3.258  0.8618 -0.5223 -0.0611
  634MOL0     O85485   0.369   5.637   3.357  0.5715 -0.2188 -0.3824
  634MOL0     C85486   0.303   5.583   3.463 -0.4705  0.9948 -0.9716
  634MOL0     C85487   0.380   5.563   3.582  0.4527  0.7668 -0.5148
  634MOL0     C85488   0.313   5.495   3.684 -0.2473 -0.3409 -0.7928
  634MOL0     C85489   0.180   5.459   3.689 -0.4070  0.0531  0.1995
  634MOL0     O85490   0.122   5.415   3.801  0.1128 -0.3021 -0.1997
  634MOL0     C85491   0.021   5.502   3.849 -0.9185  0.4485 -0.6730
  634MOL0     C85492   0.018   5.506   3.998  0.3557  0.3743  0.4071
  634MOL0     C85493   0.130   5.601   4.039  0.2157  1.1411 -0.2777
  634MOL0     C85494   0.149   5.636   4.186  0.1930 -0.0793  0.3527
  634MOL0     C85495   0.201   5.518   4.257 -0.6298  0.3403  0.5778
  634MOL0     C85496   0.255   5.559   4.386  0.1633  0.4955 -0.1619
  634MOL0     C85497   0.169   5.651   4.470 -0.6932  0.4894 -1.3254
  634MOL0     C85498   0.227   5.664   4.612  0.3056 -0.4864 -0.9353
  634MOL0    Cl85499   0.405   5.712   4.622  0.4415  0.2437 -0.0785
  634MOL0     C85500   0.108   5.481   3.569 -0.2482 -0.1452  1.3056
  634MOL0     C85501   0.170   5.544   3.455 -1.0664  0.9363  0.9829
  634MOL0     O85502   0.376   5.427   3.255  0.0143  0.1477 -0.2409
  634MOL0     C85503   0.548   5.507   3.048  0.9075 -0.2340 -0.6674
  634MOL0     C85504   0.637   5.549   2.956 -0.1927 -0.1852  0.0049
  634MOL0     N85505   1.269   5.768   2.957  0.2547 -0.2486  0.8993
  634MOL0     N85506   1.373   5.847   2.972 -0.5865 -0.1982  0.0278
  634MOL0     C85507   1.992   6.444   2.166 -0.3522 -0.0318 -0.9873
  634MOL0     C85508   2.023   6.529   2.052 -0.6173  0.0879 -1.1732
  634MOL0     C85509   2.285   6.892   1.867  0.4212 -0.0546 -0.2958
  634MOL0     C85510   2.296   7.037   1.878 -0.1744  0.4625 -0.6055
  634MOL0     C85511   2.364   7.115   1.794  0.7662  0.7606 -1.1206
  634MOL0     C85512   2.445   7.054   1.692 -0.1817  0.4893 -0.0715
  634MOL0     O85513   2.524   7.122   1.602 -0.5091 -0.1268 -0.0749
  634MOL0     C85514   2.496   7.265   1.577  0.3130 -0.2345  0.0358
  634MOL0     C85515   2.573   7.352   1.675  0.9724  0.4073 -0.4058
  634MOL0     C85516   2.717   7.335   1.681 -0.3574 -0.2115  0.2080
  634MOL0     C85517   2.769   7.236   1.774  0.1137 -0.0509  0.4837
  634MOL0     C85518   2.915   7.215   1.746 -0.2268 -0.7777 -0.4112
  634MOL0     C85519   3.039   7.216   1.713 -0.0370  0.2257 -0.0639
  634MOL0     C85520   2.449   6.911   1.688 -0.1920 -0.1218 -0.0020
  634MOL0     C85521   2.371   6.825   1.769 -0.3703  0.5997 -0.5116
  634MOL0     C85522   2.372   6.671   1.748  0.0539 -0.8951  0.2109
  634MOL0     H85523   2.303   6.694   2.159  1.2170 -1.4458 -2.3387
  634MOL0     H85524   2.236   6.563   2.370 -0.6007  0.8179  1.8557
  634MOL0     H85525   1.835   6.370   2.394  1.1330 -1.5111 -0.6948
  634MOL0     H85526   1.931   6.291   2.520 -1.6611  1.3116  1.8106
  634MOL0     H85527   1.920   6.597   2.536  1.2640  1.3690  0.9818
  634MOL0     H85528   1.987   6.466   2.640  2.0796 -3.1265 -2.1701
  634MOL0     H85529   1.709   6.445   2.542  1.4375  1.6108 -2.2902
  634MOL0     H85530   1.737   6.574   2.661 -1.5927 -1.3000 -0.5941
  634MOL0     H85531   1.845   6.312   2.753  0.7721  0.5816  0.4060
  634MOL0     H85532   1.787   6.440   2.844  2.3718 -1.4593  2.1334
  634MOL0     H85533   1.560   6.373   2.798  0.6823  2.7067 -0.8664
  634MOL0     H85534   1.598   6.288   2.651 -3.0911  2.2996  1.2548
  634MOL0     H85535   1.733   6.117   2.763 -2.7591 -1.2197 -1.5476
  634MOL0     H85536   1.690   6.195   2.918  1.8855  1.9005 -0.1232
  634MOL0     H85537   1.487   6.060   2.710  1.6264  0.4622 -0.4562
  634MOL0     H85538   1.447   6.108   2.871  1.6156  0.4625  0.9091
  634MOL0     H85539   1.657   5.892   2.797  0.4058  0.2607  1.0660
  634MOL0     H85540   1.616   5.934   2.964 -0.0367  0.0771  0.5169
  634MOL0     H85541   1.440   5.721   2.676 -1.8171  3.2762 -0.9858
  634MOL0     H85542   1.246   5.581   2.674  1.8530  0.7743  0.6825
  634MOL0     H85543   1.182   5.527   2.838 -0.0166 -0.4729 -0.6670
  634MOL0     H85544   1.037   5.767   2.832 -3.7344  1.8649 -1.4043
  634MOL0     H85545   1.064   5.754   2.663 -0.0631 -0.9684  1.4041
  634MOL0     H85546   0.965   5.551   2.856 -3.0950 -1.0665  0.1590
  634MOL0     H85547   0.977   5.517   2.678 -0.1150 -0.0604 -0.1863
  634MOL0     H85548   0.751   5.563   2.728 -1.8672  1.7052  2.2150
  634MOL0     H85549   0.804   5.706   2.646  0.5891  0.2736 -0.2401
  634MOL0     H85550   0.652   5.880   3.047  0.5374 -0.9164  1.6391
  634MOL0     H85551   0.482   5.807   3.204  1.0533  0.2607 -0.2484
  634MOL0     H85552   0.482   5.598   3.595 -0.0809  2.0918  0.3730
  634MOL0     H85553   0.365   5.477   3.778  0.6463  2.1544 -0.7083
  634MOL0     H85554   0.040   5.604   3.812 -1.1284  0.1678 -1.5811
  634MOL0     H85555  -0.076   5.464   3.817 -1.1957  0.0056  0.6343
  634MOL0     H85556  -0.075   5.544   4.040  0.7544  1.0528  0.6868
  634MOL0     H85557   0.044   5.409   4.042  2.7313  1.1456  0.8923
  634MOL0     H85558   0.225   5.552   4.015  1.0228  0.4880  3.5795
  634MOL0     H85559   0.112   5.699   3.993 -0.1837  0.5507 -1.4167
  634MOL0     H85560   0.056   5.663   4.236  0.0805  3.6305 -1.5183
  634MOL0     H85561   0.217   5.720   4.204 -2.8144  3.0247 -1.6291
  634MOL0     H85562   0.286   5.476   4.202 -1.4392 -1.1730  0.3974
  634MOL0     H85563   0.128   5.436   4.268 -1.3278  0.5788 -1.7165
  634MOL0     H85564   0.287   5.466   4.434  2.9526  1.1362 -0.5668
  634MOL0     H85565   0.349   5.612   4.367 -0.5297  0.4013 -5.3535
  634MOL0     H85566   0.068   5.612   4.487 -0.5228  1.4299  3.3311
  634MOL0     H85567   0.178   5.753   4.433  1.1343  0.4448 -1.0991
  634MOL0     H85568   0.166   5.733   4.671 -0.3223 -2.3942  0.7537
  634MOL0     H85569   0.211   5.566   4.657 -1.6739  0.5813  0.8101
  634MOL0     H85570   0.003   5.460   3.550 -0.2066  1.2393 -0.7957
  634MOL0     H85571   0.121   5.560   3.360  3.0512 -1.3290 -1.8556
  634MOL0     H85572   0.502   5.409   3.053 -2.0717  0.9803 -2.1306
  634MOL0     H85573   0.672   5.471   2.888 -2.3134 -0.9711 -0.2806
  634MOL0     H85574   1.907   6.377   2.159 -0.6650 -0.9849  5.6086
  634MOL0     H85575   1.968   6.532   1.958  0.4399 -2.1439 -1.9214
  634MOL0     H85576   2.259   7.097   1.961  0.1930 -1.9212  1.3938
  634MOL0     H85577   2.366   7.223   1.800 -1.6434  0.8052  0.5983
  634MOL0     H85578   2.390   7.288   1.583  0.9565  2.7592  1.8022
  634MOL0     H85579   2.512   7.286   1.470 -0.7041 -0.6410 -0.2042
  634MOL0     H85580   2.551   7.322   1.777  4.0902 -1.6320 -0.1963
  634MOL0     H85581   2.536   7.454   1.658 -1.2723 -0.6207 -2.2870
  634MOL0     H85582   2.756   7.436   1.698 -1.2340  0.4678 -1.5531
  634MOL0     H85583   2.751   7.294   1.586 -0.3346  0.7349 -0.2081
  634MOL0     H85584   2.753   7.267   1.878 -0.8956  2.3289 -0.3048
  634MOL0     H85585   2.715   7.143   1.756 -1.5144  0.7254  1.1239
  634MOL0     H85586   3.144   7.216   1.693 -0.5060  2.5289 -3.2209
  634MOL0     H85587   2.506   6.857   1.614 -2.4853 -2.0029 -0.4890
  634MOL0     H85588   2.379   6.619   1.844 -3.9653 -0.0287  1.1377
  634MOL0     H85589   2.282   6.642   1.694 -0.6739  1.1050  0.2518
  634MOL0     H85590   2.461   6.648   1.688  1.5317  2.6261  0.7890
  635MOL0     O85591   9.244   9.397   2.016  0.3333 -1.3793 -0.5537
  635MOL0     C85592   9.366   9.404   2.015  0.1296  1.0406  1.3361
  635MOL0     O85593   9.436   9.510   2.056  0.1099 -0.8576 -0.2331
  635MOL0     C85594   9.368   9.621   2.102 -0.2181  0.2738 -0.2344
  635MOL0     C85595   9.374   9.675   2.233  0.1020 -0.7453 -0.0551
  635MOL0     C85596   9.311   9.793   2.267 -0.2122 -0.4676 -0.8412
  635MOL0     C85597   9.254   9.872   2.167  0.1616 -0.3912  1.1917
  635MOL0     O85598   9.197   9.990   2.208 -0.2638 -0.3475  0.0405
  635MOL0     C85599   9.096  10.068   2.129 -0.4007 -0.1835  0.2259
  635MOL0     C85600   9.099  10.208   2.185  0.2395  0.4833 -0.4297
  635MOL0     C85601   9.234  10.264   2.175  0.4958  0.3762  0.7288
  635MOL0     C85602   9.230  10.417   2.216 -0.1966  0.1715  0.9998
  635MOL0     C85603   9.318  10.436   2.344  0.2918  0.1510  0.5199
  635MOL0     C85604   9.318  10.580   2.400 -0.3171  0.1449  1.0237
  635MOL0     C85605   9.383  10.682   2.305  0.4733  0.5526  0.0386
  635MOL0     C85606   9.330  10.819   2.330 -0.1347 -0.4679 -0.0307
  635MOL0     N85607   9.193  10.825   2.383  0.0260  0.4054 -2.0994
  635MOL0     C85608   9.073  10.829   2.316 -0.6187  0.2422 -0.0014
  635MOL0     C85609   8.985  10.846   2.418 -0.1581 -0.7999 -0.0075
  635MOL0     C85610   8.830  10.853   2.398 -0.2559  0.2795 -0.5247
  635MOL0     C85611   8.791  10.729   2.319  0.2558  1.2550  0.3955
  635MOL0     C85612   8.675  10.759   2.234  0.2037  0.2385 -0.3972
  635MOL0     C85613   8.598  10.635   2.188  0.2061 -0.0429  0.4864
  635MOL0     O85614   8.680  10.517   2.205  0.5879 -0.1093  0.2576
  635MOL0     C85615   8.635  10.400   2.138 -0.4190  0.3867 -0.2125
  635MOL0     C85616   8.720  10.289   2.152  1.3779  0.7212  0.2681
  635MOL0     C85617   8.683  10.162   2.095  0.4084 -0.2136 -0.4405
  635MOL0     C85618   8.553  10.156   2.036 -0.4437  0.2179  0.1391
  635MOL0     C85619   8.498  10.028   1.981 -0.0621  0.7010  0.2795
  635MOL0     O85620   8.571   9.917   2.018 -0.2751 -0.0022 -0.6028
  635MOL0     C85621   8.528   9.798   1.975  0.1535  0.1960 -0.1168
  635MOL0     C85622   8.597   9.740   1.866 -0.2184 -0.3698 -0.4056
  635MOL0     C85623   8.545   9.627   1.795 -0.7405 -0.9139  0.3341
  635MOL0     C85624   8.450   9.558   1.861  0.2042 -0.0153  0.1689
  635MOL0     O85625   8.413   9.444   1.800  0.1423  0.1472  0.6113
  635MOL0     C85626   8.314   9.351   1.859 -0.4160  0.1567 -0.3170
  635MOL0     C85627   8.298   9.229   1.766  0.3804 -0.0742 -0.4649
  635MOL0     C85628   8.416   9.130   1.765 -0.0235 -0.2675  0.4785
  635MOL0     C85629   8.389   9.030   1.651 -0.6304  0.1774  0.6980
  635MOL0     C85630   8.259   8.942   1.667  0.2004 -0.1919  0.3390
  635MOL0     C85631   8.258   8.840   1.775  0.3186 -0.0933 -0.4521
  635MOL0     C85632   8.135   8.748   1.738 -0.3843  0.0455  0.2934
  635MOL0     C85633   8.138   8.619   1.815  0.4415 -0.5882  0.2259
  635MOL0    Cl85634   7.984   8.523   1.805 -0.3391  0.5187 -0.3996
  635MOL0     C85635   8.385   9.609   1.977 -0.8640 -0.0137 -0.4381
  635MOL0     C85636   8.423   9.729   2.029  0.8115 -0.9287  0.8607
  635MOL0     O85637   8.388  10.027   1.921 -0.0496  0.5966 -0.6279
  635MOL0     C85638   8.469  10.271   2.025  0.0247  0.6055  0.4567
  635MOL0     C85639   8.517  10.393   2.066 -0.4057  0.8658  0.4563
  635MOL0     N85640   9.047  10.871   2.542  0.7128  0.3245  0.2239
  635MOL0     N85641   9.173  10.851   2.514 -0.9083 -0.3030 -0.2559
  635MOL0     C85642   9.241   9.817   2.037 -0.4037  0.4674  0.2784
  635MOL0     C85643   9.298   9.695   2.010 -0.9767  0.0446  0.7352
  635MOL0     C85644   9.434   9.297   1.945  0.0308  0.4389 -0.1436
  635MOL0     C85645   9.365   9.257   1.826  0.0970 -0.1424  0.1873
  635MOL0     C85646   9.430   9.166   1.730  0.0598 -0.0450  0.0286
  635MOL0     C85647   9.559   9.115   1.767  0.0570 -0.5673 -0.2877
  635MOL0     O85648   9.624   9.037   1.680 -0.2980 -0.5296  0.1056
  635MOL0     C85649   9.573   9.002   1.550 -0.4446  0.4288 -0.8425
  635MOL0     C85650   9.589   9.123   1.459 -0.3958 -0.2533 -0.1081
  635MOL0     C85651   9.512   9.109   1.333 -0.5083 -0.5757 -0.2429
  635MOL0     C85652   9.508   9.244   1.255 -0.3284 -0.4099 -0.3290
  635MOL0     C85653   9.415   9.217   1.153  0.4299 -0.4270  0.1680
  635MOL0     C85654   9.359   9.187   1.050 -0.4421  0.1454 -0.3917
  635MOL0     C85655   9.619   9.147   1.891 -0.0018  0.7110 -0.6063
  635MOL0     C85656   9.558   9.243   1.975 -0.5672 -0.0891 -1.9057
  635MOL0     C85657   9.626   9.270   2.107 -0.2352 -0.6424 -0.3778
  635MOL0     H85658   9.431   9.613   2.301  0.2504  1.7583  2.2783
  635MOL0     H85659   9.320   9.828   2.369 -0.4008  0.7391 -1.2273
  635MOL0     H85660   9.099  10.060   2.020  1.2108  0.7519  0.1873
  635MOL0     H85661   8.993  10.032   2.140 -0.5766 -0.8395 -2.6027
  635MOL0     H85662   9.051  10.202   2.283 -1.2629  0.5996 -1.1249
  635MOL0     H85663   9.031  10.279   2.137 -1.4991  0.6656  2.0939
  635MOL0     H85664   9.272  10.245   2.074  1.1321 -1.7836  1.3086
  635MOL0     H85665   9.291  10.212   2.253 -1.4032 -1.3419  1.0540
  635MOL0     H85666   9.263  10.475   2.129  0.3935 -2.8645 -0.9366
  635MOL0     H85667   9.126  10.438   2.242 -0.4381  0.0597  0.1473
  635MOL0     H85668   9.251  10.385   2.413 -0.9996  1.1382  0.0303
  635MOL0     H85669   9.421  10.399   2.344  0.5881  0.8437  2.5999
  635MOL0     H85670   9.212  10.597   2.424 -1.2073 -0.7623 -1.8614
  635MOL0     H85671   9.375  10.566   2.492  0.7342 -3.8985 -0.0585
  635MOL0     H85672   9.355  10.642   2.207 -1.1733  0.6656  0.4417
  635MOL0     H85673   9.492  10.673   2.318  0.2518 -0.7136  1.3987
  635MOL0     H85674   9.403  10.868   2.395  1.3573 -2.5292 -0.0205
  635MOL0     H85675   9.339  10.870   2.234  0.4266 -2.1439 -0.9081
  635MOL0     H85676   9.052  10.812   2.211  0.0876  1.2463 -0.3139
  635MOL0     H85677   8.799  10.851   2.503  5.7465 -4.4837  1.7841
  635MOL0     H85678   8.805  10.947   2.349 -0.6349  0.2546 -0.3877
  635MOL0     H85679   8.876  10.678   2.272 -0.0744  1.7064 -0.7326
  635MOL0     H85680   8.752  10.662   2.396  0.9175  1.6597  1.1034
  635MOL0     H85681   8.713  10.806   2.142 -0.5033 -1.3708 -1.5583
  635MOL0     H85682   8.603  10.826   2.283  0.1936 -0.6057  0.7692
  635MOL0     H85683   8.581  10.648   2.081 -3.6605  0.8434  1.0421
  635MOL0     H85684   8.499  10.634   2.235  0.4946 -2.6264  1.2280
  635MOL0     H85685   8.806  10.295   2.219  0.7744  3.0175  0.9240
  635MOL0     H85686   8.744  10.072   2.100  1.2603  0.4162  1.2787
  635MOL0     H85687   8.679   9.798   1.824 -0.1762 -0.1077  0.0325
  635MOL0     H85688   8.587   9.581   1.706  1.4390 -0.3667  1.0087
  635MOL0     H85689   8.348   9.309   1.954 -0.4720 -1.3264 -0.9243
  635MOL0     H85690   8.214   9.397   1.859 -0.7222 -0.4872  0.4835
  635MOL0     H85691   8.203   9.180   1.791  1.5872 -1.6007  1.3396
  635MOL0     H85692   8.275   9.269   1.667 -1.8986 -0.9564 -0.3516
  635MOL0     H85693   8.509   9.187   1.757  0.0670 -0.4128  0.4730
  635MOL0     H85694   8.413   9.071   1.858 -3.7833 -0.3673  0.4522
  635MOL0     H85695   8.470   8.959   1.630 -0.3786  0.3127  1.1935
  635MOL0     H85696   8.403   9.100   1.567 -1.9153  0.6912  0.8891
  635MOL0     H85697   8.249   8.895   1.569 -0.2149  0.0956  0.2401
  635MOL0     H85698   8.169   9.004   1.674 -1.1833 -2.0838 -0.0168
  635MOL0     H85699   8.352   8.783   1.777  0.0045 -0.6451  2.1070
  635MOL0     H85700   8.249   8.900   1.866  0.4966  1.6663 -1.5480
  635MOL0     H85701   8.138   8.718   1.633 -1.9596 -0.8714  0.4857
  635MOL0     H85702   8.044   8.806   1.753 -0.8206  0.3307 -2.8267
  635MOL0     H85703   8.229   8.572   1.778 -0.3186 -0.9051 -1.3296
  635MOL0     H85704   8.156   8.634   1.922  1.3420 -0.1177  0.0123
  635MOL0     H85705   8.296   9.577   2.030 -1.7084  0.2426 -1.6720
  635MOL0     H85706   8.369   9.787   2.102  1.5517  0.4781  0.3239
  635MOL0     H85707   8.378  10.277   1.965  1.0599 -1.1782 -1.4256
  635MOL0     H85708   8.458  10.481   2.039 -1.2149  0.2828  0.2934
  635MOL0     H85709   9.178   9.843   1.953 -2.3135 -0.6034  1.2920
  635MOL0     H85710   9.303   9.662   1.907  0.1035 -1.1537  1.1355
  635MOL0     H85711   9.273   9.303   1.793  0.2235  1.1429  1.5123
  635MOL0     H85712   9.377   9.148   1.637 -0.9526  2.8055 -0.0580
  635MOL0     H85713   9.468   8.976   1.564 -0.4112  1.7033  2.6697
  635MOL0     H85714   9.632   8.917   1.514  0.9220  0.8575  0.2965
  635MOL0     H85715   9.692   9.136   1.423  0.1775  0.3160  1.6607
  635MOL0     H85716   9.559   9.216   1.508 -0.1761 -1.7854  3.1770
  635MOL0     H85717   9.411   9.082   1.367 -0.0875 -1.1770  0.5428
  635MOL0     H85718   9.546   9.026   1.271 -3.3044 -3.2595  1.5282
  635MOL0     H85719   9.470   9.324   1.320  0.7751 -2.9941  3.9179
  635MOL0     H85720   9.605   9.272   1.213 -0.7776  0.7198 -0.6570
  635MOL0     H85721   9.308   9.152   0.963 -2.1537  0.5261  0.4166
  635MOL0     H85722   9.722   9.115   1.906 -1.0755 -4.4151 -2.2200
  635MOL0     H85723   9.561   9.265   2.195 -2.0807 -0.2905 -1.6782
  635MOL0     H85724   9.707   9.197   2.115  0.9936  0.7682  0.8119
  635MOL0     H85725   9.673   9.368   2.118 -0.7045 -0.4693  0.1733
  636MOL0     O85726   4.398   1.028   9.210 -0.7102  0.0884  0.3835
  636MOL0     C85727   4.419   0.924   9.149 -0.6772 -0.5143 -0.5720
  636MOL0     O85728   4.415   0.800   9.196  0.1119 -0.5673 -0.5346
  636MOL0     C85729   4.398   0.785   9.332  0.5623 -0.2406  1.3401
  636MOL0     C85730   4.503   0.790   9.425  0.6847  0.0535 -0.5860
  636MOL0     C85731   4.485   0.771   9.562 -0.2463  0.2822 -0.4262
  636MOL0     C85732   4.355   0.733   9.610  0.0598 -0.2575  0.5379
  636MOL0     O85733   4.330   0.725   9.747  0.0203  0.7639 -0.2587
  636MOL0     C85734   4.374   0.825   9.834 -0.5102 -0.4404 -0.2629
  636MOL0     C85735   4.484   0.761   9.920  0.2834 -0.8851  0.4981
  636MOL0     C85736   4.416   0.672  10.022  0.3118  0.7619  0.3433
  636MOL0     C85737   4.496   0.549  10.043  0.6583 -0.6617  0.7393
  636MOL0     C85738   4.432   0.447  10.140  0.1776  0.2887 -0.2095
  636MOL0     C85739   4.501   0.310  10.116 -0.6535 -0.1106  0.2781
  636MOL0     C85740   4.410   0.198  10.174  0.0532  1.4236 -0.4601
  636MOL0     C85741   4.482   0.060  10.150 -0.0886  0.3244  0.0731
  636MOL0     N85742   4.611   0.056  10.215 -0.4378 -0.6132  0.3135
  636MOL0     C85743   4.631   0.046  10.352  0.5389  0.7842  0.7182
  636MOL0     C85744   4.758   0.017  10.368 -0.2331 -0.3284 -0.4215
  636MOL0     C85745   4.815  -0.017  10.502 -0.7712 -0.4790  0.0717
  636MOL0     C85746   4.766  -0.152  10.558  0.2766  0.3197  0.0155
  636MOL0     C85747   4.854  -0.198  10.672  0.4199 -1.0876  0.0319
  636MOL0     C85748   4.830  -0.129  10.804  0.2162  0.1127 -0.9030
  636MOL0     O85749   4.694  -0.134  10.851 -0.5619  0.0907  0.0013
  636MOL0     C85750   4.664  -0.229  10.947 -0.2275  0.3793 -0.6191
  636MOL0     C85751   4.725  -0.349  10.979  0.7413  0.1300 -0.9814
  636MOL0     C85752   4.679  -0.441  11.069 -0.5756 -0.2149 -0.5872
  636MOL0     C85753   4.566  -0.399  11.145 -0.0539 -0.1011 -0.2276
  636MOL0     C85754   4.514  -0.480  11.266 -1.0234  0.4431  1.0254
  636MOL0     O85755   4.403  -0.426  11.321 -0.3996  0.2940 -0.9362
  636MOL0     C85756   4.338  -0.491  11.424 -0.3168  0.2834  0.0410
  636MOL0     C85757   4.403  -0.561  11.519 -1.5605 -0.2181  0.0595
  636MOL0     C85758   4.332  -0.617  11.624 -0.1524 -0.7288 -0.7082
  636MOL0     C85759   4.187  -0.623  11.618 -0.3240  0.1583 -0.4071
  636MOL0     O85760   4.100  -0.683  11.710 -0.0080 -0.4052  0.4060
  636MOL0     C85761   4.148  -0.729  11.832 -0.0181  0.3306  0.1070
  636MOL0     C85762   4.034  -0.748  11.936  0.4386 -0.9080  0.1643
  636MOL0     C85763   4.087  -0.847  12.040  0.2207  0.4961 -0.2326
  636MOL0     C85764   3.982  -0.927  12.113  0.8129 -0.5473  0.4014
  636MOL0     C85765   4.048  -1.013  12.219  0.1817 -0.1000 -0.2048
  636MOL0     C85766   3.947  -1.087  12.303 -0.1002  0.2944 -0.1621
  636MOL0     C85767   3.959  -1.090  12.454  1.0878 -0.0871  0.2910
  636MOL0     C85768   3.946  -0.953  12.520 -0.2169  1.5428  0.6472
  636MOL0    Cl85769   4.016  -0.962  12.681 -0.0263  0.0441 -0.3950
  636MOL0     C85770   4.119  -0.555  11.513 -0.6142  0.5060 -0.9407
  636MOL0     C85771   4.197  -0.500  11.416 -0.1882  0.4130 -0.0586
  636MOL0     O85772   4.581  -0.575  11.312  0.3932 -0.8620  0.8905
  636MOL0     C85773   4.504  -0.276  11.123 -0.5328  0.1585 -0.2924
  636MOL0     C85774   4.553  -0.197  11.018  0.7405  1.1984 -0.4506
  636MOL0     N85775   4.818   0.023  10.241  0.5466  0.4208  0.0392
  636MOL0     N85776   4.732   0.035  10.152  0.0164 -0.2486  0.0314
  636MOL0     C85777   4.249   0.728   9.516 -0.4783 -0.7018  0.8621
  636MOL0     C85778   4.274   0.757   9.385  0.0031 -0.5089  0.1595
  636MOL0     C85779   4.441   0.932   9.001  0.7288  0.5559 -0.0159
  636MOL0     C85780   4.338   1.013   8.931  0.0021  0.9132  0.0172
  636MOL0     C85781   4.334   1.006   8.782 -0.1374 -1.0464  0.0721
  636MOL0     C85782   4.431   0.927   8.715  0.3117 -0.2411 -1.0670
  636MOL0     O85783   4.427   0.927   8.575 -0.1943  0.1348  0.3769
  636MOL0     C85784   4.332   0.824   8.535  0.4263 -0.2415 -0.0393
  636MOL0     C85785   4.366   0.784   8.391 -0.0421 -0.4623  0.4222
  636MOL0     C85786   4.507   0.707   8.385 -1.1956  0.7307  0.1007
  636MOL0     C85787   4.552   0.657   8.242 -0.4863 -0.8602 -1.4374
  636MOL0     C85788   4.657   0.555   8.249  0.7301  0.1098  0.0857
  636MOL0     C85789   4.762   0.497   8.255 -0.0688  1.7358  0.3631
  636MOL0     C85790   4.538   0.874   8.787 -0.8856 -0.9216  0.1624
  636MOL0     C85791   4.539   0.860   8.926  0.2745 -0.9843 -0.2661
  636MOL0     C85792   4.651   0.789   8.988  0.5350  0.2466  0.1897
  636MOL0     H85793   4.604   0.815   9.395  0.5351 -1.9182 -2.9675
  636MOL0     H85794   4.572   0.758   9.625 -0.5610 -3.0618 -0.4955
  636MOL0     H85795   4.433   0.903   9.785  1.7867 -0.9814  1.4879
  636MOL0     H85796   4.298   0.870   9.898  3.0086  2.2334  2.4448
  636MOL0     H85797   4.530   0.846   9.972 -0.1853 -0.7550  0.7039
  636MOL0     H85798   4.566   0.720   9.861 -0.0256 -0.4343 -0.2586
  636MOL0     H85799   4.317   0.648   9.983 -0.8375  1.4796  2.6210
  636MOL0     H85800   4.404   0.718  10.121  1.7789 -2.6165  2.2584
  636MOL0     H85801   4.494   0.492   9.949 -3.3005  0.5454 -0.1349
  636MOL0     H85802   4.601   0.573  10.060  0.4020  2.0799 -0.8806
  636MOL0     H85803   4.446   0.477  10.244  0.7398  1.6260 -0.6458
  636MOL0     H85804   4.326   0.448  10.114  0.1900  0.8943 -0.2573
  636MOL0     H85805   4.532   0.290  10.013 -3.1935  1.0212 -0.8081
  636MOL0     H85806   4.596   0.308  10.170 -0.4663 -3.9205  0.0449
  636MOL0     H85807   4.307   0.195  10.137 -0.4602 -1.1086  0.9097
  636MOL0     H85808   4.400   0.211  10.282 -1.7649  1.0517 -0.5516
  636MOL0     H85809   4.433  -0.029  10.189 -2.1594  1.1971 -0.4015
  636MOL0     H85810   4.497   0.050  10.042  1.1077  0.1323  0.2443
  636MOL0     H85811   4.549   0.042  10.423 -2.2705 -0.0067 -2.3238
  636MOL0     H85812   4.924  -0.012  10.492 -0.4018 -1.9162  2.6800
  636MOL0     H85813   4.780   0.053  10.579 -4.2088 -1.6012 -0.3333
  636MOL0     H85814   4.660  -0.145  10.586  0.2399  0.7917 -0.2219
  636MOL0     H85815   4.772  -0.234  10.485 -0.6644  0.7179 -0.5295
  636MOL0     H85816   4.957  -0.181  10.642  0.5235 -3.1459 -0.9131
  636MOL0     H85817   4.828  -0.303  10.686  0.3873 -1.0736  0.0808
  636MOL0     H85818   4.860  -0.024  10.807  0.4043  0.0463  0.0297
  636MOL0     H85819   4.896  -0.170  10.881 -0.3187 -0.8608 -0.9441
  636MOL0     H85820   4.800  -0.392  10.913 -0.0628 -3.5742  0.2892
  636MOL0     H85821   4.730  -0.537  11.071 -0.9267 -0.4354 -1.5521
  636MOL0     H85822   4.511  -0.557  11.530 -1.7081  0.0957  1.6437
  636MOL0     H85823   4.377  -0.667  11.709 -1.4041  0.6118  0.8079
  636MOL0     H85824   4.201  -0.823  11.812 -3.5967 -1.6389 -0.8534
  636MOL0     H85825   4.217  -0.655  11.874 -0.5418  0.7554  0.2252
  636MOL0     H85826   4.012  -0.649  11.976  2.1497  0.1858 -1.4126
  636MOL0     H85827   3.940  -0.776  11.887  0.2397  1.3790 -0.9339
  636MOL0     H85828   4.158  -0.913  11.990  0.0291  0.6174 -0.6714
  636MOL0     H85829   4.157  -0.794  12.105  2.0046 -1.1730 -0.7124
  636MOL0     H85830   3.922  -0.981  12.039 -1.4738  2.9427 -0.5595
  636MOL0     H85831   3.906  -0.869  12.166 -1.9663 -1.8110 -1.9214
  636MOL0     H85832   4.106  -0.948  12.284  1.3903  2.4227 -3.5336
  636MOL0     H85833   4.114  -1.090  12.177  0.5470  0.6933 -1.1347
  636MOL0     H85834   3.843  -1.081  12.269 -0.4588 -1.2501  0.5534
  636MOL0     H85835   3.958  -1.193  12.276  0.8297  0.6133 -1.0936
  636MOL0     H85836   4.055  -1.140  12.464  0.0328 -3.1046 -2.7203
  636MOL0     H85837   3.881  -1.161  12.484  0.3133  0.9821  0.8682
  636MOL0     H85838   4.008  -0.878  12.470  0.9031  0.9405  1.0825
  636MOL0     H85839   3.840  -0.928  12.529 -1.0043 -1.2003  0.1588
  636MOL0     H85840   4.011  -0.554  11.503 -0.8062 -0.4788  0.5811
  636MOL0     H85841   4.150  -0.454  11.329  2.3786  2.2117 -0.6024
  636MOL0     H85842   4.421  -0.238  11.181  0.5024  0.0024  1.3643
  636MOL0     H85843   4.487  -0.115  10.990 -2.0827 -1.2077 -1.3708
  636MOL0     H85844   4.149   0.716   9.557 -0.3417 -0.5456  1.2504
  636MOL0     H85845   4.188   0.775   9.322  1.2659  2.2076 -0.9365
  636MOL0     H85846   4.253   1.055   8.984 -0.3976 -0.0939  0.2085
  636MOL0     H85847   4.264   1.047   8.710  0.1628 -1.9342 -0.7438
  636MOL0     H85848   4.229   0.859   8.527  1.4109  2.5966 -1.5144
  636MOL0     H85849   4.344   0.736   8.600 -1.6592 -0.3342  0.3045
  636MOL0     H85850   4.377   0.884   8.348  3.0631 -0.2895  1.3585
  636MOL0     H85851   4.286   0.719   8.355  0.4779 -0.3621 -1.0039
  636MOL0     H85852   4.505   0.615   8.445  0.4828 -0.4503 -1.5353
  636MOL0     H85853   4.587   0.768   8.427  0.6490 -1.2102 -0.4104
  636MOL0     H85854   4.463   0.606   8.202 -0.7510 -1.7558  0.1838
  636MOL0     H85855   4.571   0.744   8.179  1.2828 -0.3734 -0.2944
  636MOL0     H85856   4.860   0.463   8.280 -1.4524 -0.6117  3.0346
  636MOL0     H85857   4.617   0.821   8.735  0.3246  2.0270 -1.2331
  636MOL0     H85858   4.729   0.859   9.018 -1.2304  1.8299  1.3390
  636MOL0     H85859   4.618   0.733   9.076  0.9230  0.6233  0.5817
  636MOL0     H85860   4.689   0.714   8.918 -0.1865 -2.1818  2.2375
  637MOL0     O85861   0.226  10.738   9.876 -0.3844 -0.4724 -0.5923
  637MOL0     C85862   0.334  10.680   9.842  0.4726 -0.1935  0.6182
  637MOL0     O85863   0.337  10.584   9.738  0.9446  0.8461  0.1448
  637MOL0     C85864   0.232  10.533   9.667  0.8468  0.1913 -0.2602
  637MOL0     C85865   0.233  10.519   9.528  0.5299 -0.0878 -0.0018
  637MOL0     C85866   0.116  10.477   9.455 -0.0954 -0.8604 -0.0074
  637MOL0     C85867   0.003  10.431   9.524  0.9396  0.7327  0.0531
  637MOL0     O85868  -0.111  10.393   9.453 -0.2686 -0.3106 -0.0116
  637MOL0     C85869  -0.212  10.326   9.521  0.6370  0.0848  0.1914
  637MOL0     C85870  -0.328  10.302   9.426  0.5130  0.1222  0.0877
  637MOL0     C85871  -0.269  10.237   9.297 -0.6021  0.0185  0.4591
  637MOL0     C85872  -0.363  10.150   9.218  0.5217  0.1136  0.7615
  637MOL0     C85873  -0.418  10.026   9.287 -0.9708 -0.6617 -0.1533
  637MOL0     C85874  -0.506   9.928   9.213 -0.0738  0.6810  0.4516
  637MOL0     C85875  -0.565   9.817   9.309 -0.3055  0.7126 -0.2509
  637MOL0     C85876  -0.469   9.711   9.344  0.0299  0.4316  0.3447
  637MOL0     N85877  -0.530   9.635   9.452 -0.8217 -0.5175  0.6090
  637MOL0     C85878  -0.627   9.538   9.437  0.3437 -0.4395 -0.6526
  637MOL0     C85879  -0.694   9.536   9.553 -0.1616  0.1826  0.3512
  637MOL0     C85880  -0.804   9.446   9.592 -0.0750 -0.4948  0.5587
  637MOL0     C85881  -0.920   9.458   9.490 -0.7743  0.6623  0.1560
  637MOL0     C85882  -1.036   9.384   9.538  0.1456 -0.5612 -0.2797
  637MOL0     C85883  -1.156   9.403   9.449  0.6046  0.1300 -0.5582
  637MOL0     O85884  -1.121   9.349   9.318 -0.5246 -0.2495  0.4059
  637MOL0     C85885  -1.203   9.279   9.240  1.0774 -0.3340  0.2092
  637MOL0     C85886  -1.152   9.175   9.161  1.0654 -0.1848 -0.2420
  637MOL0     C85887  -1.219   9.107   9.055  0.9979 -0.0947 -0.2645
  637MOL0     C85888  -1.355   9.142   9.045  0.3744  0.7076 -0.5409
  637MOL0     C85889  -1.443   9.076   8.943  0.3960  0.8494  0.4416
  637MOL0     O85890  -1.392   8.980   8.868  0.0913 -0.2986 -0.2106
  637MOL0     C85891  -1.476   8.918   8.784 -0.0632  0.2751  0.0527
  637MOL0     C85892  -1.499   8.789   8.808  0.0811  0.0633  0.3507
  637MOL0     C85893  -1.577   8.713   8.718  0.8795 -0.4305 -0.6453
  637MOL0     C85894  -1.627   8.769   8.601  0.4144 -0.5041  0.5192
  637MOL0     O85895  -1.695   8.705   8.503  0.3731  0.1220  0.1749
  637MOL0     C85896  -1.649   8.572   8.477  0.7634 -0.0203 -0.8997
  637MOL0     C85897  -1.755   8.491   8.401 -0.2429  0.0684 -0.1703
  637MOL0     C85898  -1.840   8.389   8.482 -0.0693 -0.1312  0.3516
  637MOL0     C85899  -1.945   8.317   8.412 -0.4582  0.3057  0.1119
  637MOL0     C85900  -2.084   8.394   8.392  0.2160 -0.2293 -0.4349
  637MOL0     C85901  -2.167   8.308   8.303  0.4257 -0.4886 -0.3335
  637MOL0     C85902  -2.314   8.348   8.294  0.1931 -0.7665  0.1943
  637MOL0     C85903  -2.383   8.282   8.179 -1.0341 -0.2932  0.1328
  637MOL0    Cl85904  -2.431   8.121   8.223  0.1752  0.0342  0.3851
  637MOL0     C85905  -1.607   8.902   8.585 -0.4505 -0.8075  0.1472
  637MOL0     C85906  -1.538   8.980   8.679 -0.9930 -0.3956  0.2232
  637MOL0     O85907  -1.564   9.096   8.946  0.6161  0.0424  0.1061
  637MOL0     C85908  -1.413   9.237   9.135 -0.2935  0.2841 -0.1309
  637MOL0     C85909  -1.337   9.309   9.220  0.2793  0.6575 -0.0504
  637MOL0     N85910  -0.625   9.612   9.642 -0.8099 -0.1722  0.4243
  637MOL0     N85911  -0.531   9.679   9.586  0.1975  0.0784  0.3510
  637MOL0     C85912   0.004  10.437   9.662  0.3710  0.4371  0.4105
  637MOL0     C85913   0.114  10.491   9.738 -0.6177  0.8928 -0.2578
  637MOL0     C85914   0.458  10.737   9.900 -0.1249  0.0716  0.2967
  637MOL0     C85915   0.446  10.802  10.020  0.8524  0.6095 -0.2253
  637MOL0     C85916   0.551  10.861  10.088  0.4834 -0.1678 -0.4445
  637MOL0     C85917   0.679  10.853  10.023 -0.3549  0.1649 -1.1346
  637MOL0     O85918   0.806  10.896  10.068 -0.3708  0.3172  0.6480
  637MOL0     C85919   0.870  10.816  10.173 -0.5159 -1.0360 -0.7748
  637MOL0     C85920   1.021  10.870  10.175 -1.1407 -0.3056 -0.7527
  637MOL0     C85921   1.101  10.772  10.255 -0.3168 -0.2528 -0.5497
  637MOL0     C85922   1.242  10.830  10.292  0.0379 -0.4653 -0.3099
  637MOL0     C85923   1.313  10.737  10.377  0.5121 -0.0988  0.6030
  637MOL0     C85924   1.390  10.671  10.439 -0.1341  0.7979 -1.0974
  637MOL0     C85925   0.686  10.795   9.904  0.6923 -0.3584 -0.0447
  637MOL0     C85926   0.585  10.722   9.848 -0.9648 -0.0590 -0.5304
  637MOL0     C85927   0.613  10.640   9.721  0.1259 -0.0244 -0.2842
  637MOL0     H85928   0.315  10.543   9.460 -1.5917  1.5237 -2.1637
  637MOL0     H85929   0.122  10.467   9.347  2.9857  1.5681 -0.2139
  637MOL0     H85930  -0.182  10.228   9.559 -1.0763 -2.5183 -4.3097
  637MOL0     H85931  -0.253  10.388   9.601  1.2879  0.4412  0.2549
  637MOL0     H85932  -0.379  10.392   9.393 -1.2561 -0.3657  1.3772
  637MOL0     H85933  -0.406  10.241   9.473  0.4365 -0.7689 -1.1427
  637MOL0     H85934  -0.188  10.167   9.323 -1.1351 -0.8182 -0.0907
  637MOL0     H85935  -0.207  10.307   9.240  1.6986 -0.8764  1.7233
  637MOL0     H85936  -0.444  10.211   9.176  0.7855  1.2420  1.8581
  637MOL0     H85937  -0.316  10.115   9.125 -1.9671  2.8386 -1.7357
  637MOL0     H85938  -0.334   9.974   9.334 -1.6697  1.8839  4.4925
  637MOL0     H85939  -0.472  10.077   9.366 -0.8182 -2.1801  0.9804
  637MOL0     H85940  -0.589   9.981   9.165  2.2909  3.6630 -0.6110
  637MOL0     H85941  -0.455   9.873   9.133 -1.6039  0.6112 -0.5258
  637MOL0     H85942  -0.656   9.767   9.275 -0.8457  0.5351  1.3652
  637MOL0     H85943  -0.601   9.861   9.403 -1.6907 -1.0179  0.0717
  637MOL0     H85944  -0.444   9.653   9.255  0.9678  0.6837  0.4363
  637MOL0     H85945  -0.385   9.767   9.385 -0.0273  0.5308  0.3281
  637MOL0     H85946  -0.663   9.487   9.348 -1.5458 -0.3761  0.0119
  637MOL0     H85947  -0.789   9.340   9.613 -3.0239 -1.1123 -0.0318
  637MOL0     H85948  -0.832   9.483   9.691  2.6866  0.8419  0.9448
  637MOL0     H85949  -0.957   9.559   9.468 -2.4529  0.4396  1.6926
  637MOL0     H85950  -0.906   9.411   9.392 -3.3472 -2.1087  0.9652
  637MOL0     H85951  -1.063   9.425   9.636 -0.2184  2.5886 -1.5951
  637MOL0     H85952  -1.019   9.276   9.540 -2.2592 -1.0461  3.2582
  637MOL0     H85953  -1.177   9.510   9.441 -0.1474 -0.0729 -1.5444
  637MOL0     H85954  -1.248   9.358   9.487  0.0184  1.6644 -0.0529
  637MOL0     H85955  -1.046   9.157   9.170  0.7920 -2.7496 -1.3449
  637MOL0     H85956  -1.163   9.051   8.981  0.8842  0.8039 -1.0556
  637MOL0     H85957  -1.459   8.737   8.894  0.6637  2.5421  1.6727
  637MOL0     H85958  -1.590   8.606   8.736 -0.1437 -0.2030  0.0559
  637MOL0     H85959  -1.561   8.583   8.412  0.2954  2.6018 -1.2261
  637MOL0     H85960  -1.625   8.510   8.563 -2.0156  2.2772  1.7526
  637MOL0     H85961  -1.816   8.568   8.353 -1.3004 -0.8107 -0.2991
  637MOL0     H85962  -1.708   8.429   8.325  1.0365 -3.0392  2.8589
  637MOL0     H85963  -1.775   8.314   8.529 -2.6161 -2.2397  0.7515
  637MOL0     H85964  -1.882   8.447   8.564 -1.5131 -0.5976 -0.0222
  637MOL0     H85965  -1.962   8.230   8.477  1.3006  0.7003  1.1944
  637MOL0     H85966  -1.912   8.286   8.312 -0.4758 -0.9916  0.4931
  637MOL0     H85967  -2.074   8.490   8.342 -0.3136  0.2485  0.3595
  637MOL0     H85968  -2.146   8.405   8.482 -3.7570  2.2101 -3.1870
  637MOL0     H85969  -2.124   8.312   8.203  0.5418  0.0529 -0.2684
  637MOL0     H85970  -2.176   8.209   8.350  1.9270  0.3525  1.9203
  637MOL0     H85971  -2.325   8.456   8.280  1.8417 -0.5038  0.7898
  637MOL0     H85972  -2.360   8.325   8.391  0.4891 -1.8194  0.0963
  637MOL0     H85973  -2.465   8.345   8.141  0.4951  0.6288 -1.8082
  637MOL0     H85974  -2.316   8.275   8.093 -2.2260  1.8612 -1.0728
  637MOL0     H85975  -1.662   8.951   8.505  2.1558  0.1327 -1.1811
  637MOL0     H85976  -1.521   9.086   8.666  0.9527 -0.5979  0.7847
  637MOL0     H85977  -1.518   9.258   9.121 -0.9601 -3.6371 -2.2828
  637MOL0     H85978  -1.388   9.386   9.277 -0.4802  1.5823 -1.8922
  637MOL0     H85979  -0.079  10.395   9.717  1.5635 -0.7413  1.3649
  637MOL0     H85980   0.105  10.488   9.846  1.8995  0.4535  0.0020
  637MOL0     H85981   0.346  10.817  10.058  0.4066  1.7822 -1.7421
  637MOL0     H85982   0.537  10.901  10.188  0.3662 -1.3649  0.0411
  637MOL0     H85983   0.867  10.713  10.138 -2.2642 -1.7075  1.1763
  637MOL0     H85984   0.832  10.836  10.274  0.3628 -0.9816 -0.4550
  637MOL0     H85985   1.029  10.968  10.221  3.1872 -0.7373 -0.2323
  637MOL0     H85986   1.066  10.860  10.075 -0.1397  0.8121 -0.4247
  637MOL0     H85987   1.116  10.679  10.199 -1.2886 -0.3327 -0.6990
  637MOL0     H85988   1.060  10.740  10.352  0.9488 -0.0539  0.0701
  637MOL0     H85989   1.305  10.840  10.204  0.6445  0.4454  0.2188
  637MOL0     H85990   1.229  10.926  10.343 -0.2061 -0.5175 -0.2686
  637MOL0     H85991   1.448  10.605  10.500  0.4764  2.1672 -0.1374
  637MOL0     H85992   0.784  10.788   9.859 -0.6140 -2.5200 -2.8226
  637MOL0     H85993   0.719  10.638   9.693 -0.2687 -1.1320 -1.8392
  637MOL0     H85994   0.583  10.536   9.733 -0.1323 -0.2024 -2.1827
  637MOL0     H85995   0.555  10.685   9.640 -0.5999  0.9098  0.7160
  638MOL0     O85996   2.640   8.732  11.213 -0.6362  0.5898  0.4639
  638MOL0     C85997   2.540   8.792  11.184  0.0090  0.5432  0.7842
  638MOL0     O85998   2.528   8.913  11.123 -0.8287  0.3592  0.3538
  638MOL0     C85999   2.637   8.982  11.073  0.1162 -0.3870 -0.2116
  638MOL0     C86000   2.600   9.076  10.983 -0.3344 -0.1157  0.4949
  638MOL0     C86001   2.692   9.135  10.900  0.2262 -0.2814  0.0499
  638MOL0     C86002   2.822   9.105  10.912 -0.6245 -0.1948  0.5063
  638MOL0     O86003   2.896   9.171  10.814  0.1085  0.2004  0.2879
  638MOL0     C86004   3.035   9.200  10.863  0.6937 -0.1943 -0.7030
  638MOL0     C86005   3.141   9.100  10.822 -0.3072  0.1686 -0.4905
  638MOL0     C86006   3.188   9.112  10.677  0.8681  0.1867  0.4965
  638MOL0     C86007   3.106   9.025  10.575 -0.0336 -0.7519 -0.5291
  638MOL0     C86008   3.151   9.014  10.429 -0.8439  0.0821  0.0821
  638MOL0     C86009   3.061   8.910  10.352 -0.3341 -0.2434 -0.3590
  638MOL0     C86010   3.127   8.883  10.217  0.2491 -1.2208  0.0486
  638MOL0     C86011   3.044   8.955  10.099 -0.0761 -0.7217  0.6571
  638MOL0     N86012   2.910   8.926  10.088  0.1185 -0.0747 -0.1273
  638MOL0     C86013   2.845   8.801  10.085  0.2437 -0.6398 -0.0011
  638MOL0     C86014   2.706   8.821  10.069  0.6796 -0.2996  0.2249
  638MOL0     C86015   2.603   8.721  10.046 -1.0423 -0.4897  0.1226
  638MOL0     C86016   2.540   8.661  10.177 -0.4000  0.2388 -0.7494
  638MOL0     C86017   2.627   8.550  10.218 -0.2677 -0.4563 -0.1424
  638MOL0     C86018   2.572   8.453  10.319  0.5222 -0.0824 -0.1195
  638MOL0     O86019   2.608   8.325  10.282 -0.4603  0.4134  0.2469
  638MOL0     C86020   2.561   8.232  10.380  0.3139 -0.5121  0.2516
  638MOL0     C86021   2.446   8.236  10.460  0.5708  0.4832 -0.1996
  638MOL0     C86022   2.424   8.128  10.549 -0.3483 -0.2580 -0.2715
  638MOL0     C86023   2.510   8.011  10.569 -0.9756 -0.7702 -0.3771
  638MOL0     C86024   2.455   7.903  10.667 -0.4226 -0.1379  0.7824
  638MOL0     O86025   2.345   7.920  10.734  1.6995 -0.1677  0.2184
  638MOL0     C86026   2.304   7.819  10.813  0.3026  0.8146 -0.0326
  638MOL0     C86027   2.369   7.731  10.899  0.4128 -0.3623 -0.1586
  638MOL0     C86028   2.301   7.652  10.978 -1.0986  0.6930 -0.0007
  638MOL0     C86029   2.165   7.639  10.986 -0.0576  0.3442  1.4701
  638MOL0     O86030   2.092   7.558  11.072 -0.4680  0.4204 -0.6836
  638MOL0     C86031   2.169   7.508  11.185  0.4512  0.2689 -0.4645
  638MOL0     C86032   2.086   7.419  11.276 -0.2262 -0.7792  0.7054
  638MOL0     C86033   2.069   7.280  11.197 -0.4999 -0.2449 -0.5054
  638MOL0     C86034   1.998   7.168  11.277 -0.6927  0.2995  0.9482
  638MOL0     C86035   2.043   7.028  11.236 -0.1580 -0.0982 -0.5969
  638MOL0     C86036   1.971   6.926  11.318  0.9766 -0.1630  0.2155
  638MOL0     C86037   1.991   6.780  11.273  0.8449  0.4922  1.0524
  638MOL0     C86038   2.121   6.720  11.323 -0.6929  0.1926 -1.7174
  638MOL0    Cl86039   2.133   6.550  11.284 -0.3850  0.2989 -0.4634
  638MOL0     C86040   2.098   7.703  10.883 -0.0486 -0.8580 -0.1353
  638MOL0     C86041   2.166   7.796  10.798 -0.8794  0.2471 -0.2404
  638MOL0     O86042   2.523   7.796  10.658 -0.0067  0.0404  0.2497
  638MOL0     C86043   2.635   8.026  10.500  0.3082 -0.4735 -0.8177
  638MOL0     C86044   2.653   8.133  10.405 -0.2278  0.9813  0.0130
  638MOL0     N86045   2.687   8.959  10.060 -0.2418 -0.2450 -0.4083
  638MOL0     N86046   2.807   9.019  10.065 -0.1236  0.1640 -0.8232
  638MOL0     C86047   2.864   9.002  11.003  0.7668 -0.8022  0.1145
  638MOL0     C86048   2.767   8.944  11.095 -0.9581  0.8188 -0.0342
  638MOL0     C86049   2.424   8.736  11.241 -0.2594  0.3149 -0.0491
  638MOL0     C86050   2.329   8.831  11.291 -0.0826 -0.3255  0.6395
  638MOL0     C86051   2.207   8.794  11.349 -0.1332 -0.5654 -0.7172
  638MOL0     C86052   2.169   8.659  11.351 -0.1699  0.1938  0.1974
  638MOL0     O86053   2.040   8.616  11.371  0.2093 -0.0993  0.8494
  638MOL0     C86054   1.932   8.700  11.415  0.2724  0.5896 -0.1257
  638MOL0     C86055   1.934   8.694  11.574  0.4676  0.8102  0.4974
  638MOL0     C86056   1.902   8.558  11.634 -0.0454 -0.2335 -1.0145
  638MOL0     C86057   1.779   8.493  11.585  0.0745  0.5229  0.8596
  638MOL0     C86058   1.655   8.571  11.605 -0.7057 -0.2823 -0.5638
  638MOL0     C86059   1.552   8.630  11.612 -0.0011  0.4733 -0.0187
  638MOL0     C86060   2.265   8.565  11.292  0.4801  0.5550  0.0855
  638MOL0     C86061   2.391   8.599  11.248  0.0173 -0.4198  0.0546
  638MOL0     C86062   2.484   8.483  11.228 -0.4119  0.2066 -0.4467
  638MOL0     H86063   2.493   9.097  10.979  0.2789  3.4880 -1.6896
  638MOL0     H86064   2.670   9.211  10.826  1.4302 -0.2937 -0.3424
  638MOL0     H86065   3.063   9.299  10.828  1.3975  1.4272  3.7406
  638MOL0     H86066   3.049   9.205  10.972 -0.0679  2.4619 -0.6582
  638MOL0     H86067   3.104   8.998  10.832 -1.2409  0.4488 -0.9892
  638MOL0     H86068   3.229   9.112  10.886 -0.1917  0.0467 -0.6278
  638MOL0     H86069   3.295   9.091  10.665  1.5101  2.8748  0.8584
  638MOL0     H86070   3.181   9.219  10.654 -3.4981  0.1149  0.7384
  638MOL0     H86071   3.086   8.929  10.621  0.5716 -0.6937 -0.1300
  638MOL0     H86072   3.014   9.084  10.577  0.7037  0.5170  3.1015
  638MOL0     H86073   3.140   9.113  10.383  0.1093  0.1253 -0.0690
  638MOL0     H86074   3.252   8.972  10.432 -0.1900  1.5822  3.2436
  638MOL0     H86075   3.072   8.823  10.417  0.2846  1.8539  2.5441
  638MOL0     H86076   2.954   8.932  10.351 -0.3080 -0.0642  0.5171
  638MOL0     H86077   3.118   8.776  10.197  0.0759 -0.9430 -1.4131
  638MOL0     H86078   3.229   8.921  10.207 -0.0726 -0.6495 -1.3451
  638MOL0     H86079   3.053   9.064  10.102  0.0157 -0.7430  1.2841
  638MOL0     H86080   3.085   8.938   9.999 -2.2875 -0.7364 -0.3142
  638MOL0     H86081   2.895   8.704  10.089  1.7699  0.0898 -0.4993
  638MOL0     H86082   2.526   8.768   9.983  0.7339 -1.7866 -3.3073
  638MOL0     H86083   2.647   8.649   9.976 -1.9245  0.6427 -1.6795
  638MOL0     H86084   2.519   8.728  10.261  1.4101  1.0279 -0.8822
  638MOL0     H86085   2.445   8.612  10.154  0.5815 -2.5504  0.6254
  638MOL0     H86086   2.715   8.587  10.271  1.9787 -3.5495 -1.3875
  638MOL0     H86087   2.660   8.496  10.128  0.6338  0.5881 -0.4515
  638MOL0     H86088   2.464   8.469  10.321  0.7018  1.2230  1.3163
  638MOL0     H86089   2.603   8.476  10.422 -0.2092  2.2461 -0.3412
  638MOL0     H86090   2.368   8.305  10.430  0.3544  0.0275 -0.7096
  638MOL0     H86091   2.330   8.139  10.603 -1.0673  2.9872 -1.9260
  638MOL0     H86092   2.477   7.734  10.914  0.3225 -2.2301  1.3129
  638MOL0     H86093   2.365   7.587  11.038 -1.2505  0.6920  0.1629
  638MOL0     H86094   2.256   7.451  11.152  1.5295  0.6877  1.5062
  638MOL0     H86095   2.205   7.598  11.236 -1.6997  1.9392 -1.6721
  638MOL0     H86096   2.137   7.401  11.371 -0.6484  2.8081  1.7859
  638MOL0     H86097   1.991   7.471  11.293  0.1329  0.8321 -1.5682
  638MOL0     H86098   2.019   7.292  11.101  0.1639  0.7512 -0.7417
  638MOL0     H86099   2.170   7.245  11.178  0.0714  0.1321  1.5363
  638MOL0     H86100   1.888   7.173  11.276 -0.8425  1.3385 -4.1268
  638MOL0     H86101   2.040   7.180  11.377  2.8868 -0.4817 -0.3254
  638MOL0     H86102   2.152   7.019  11.240  0.0275  1.9231  1.3774
  638MOL0     H86103   2.013   7.014  11.132 -0.1193  1.1966 -0.8008
  638MOL0     H86104   2.003   6.937  11.422 -2.7309 -1.5343  1.6896
  638MOL0     H86105   1.863   6.943  11.318  0.9390 -0.2931 -1.0609
  638MOL0     H86106   1.998   6.766  11.165 -2.8128  0.3160  0.7282
  638MOL0     H86107   1.907   6.716  11.301  2.4676 -1.1577  2.4517
  638MOL0     H86108   2.207   6.769  11.277  1.8028 -3.2969 -1.2016
  638MOL0     H86109   2.141   6.745  11.428  3.0813 -0.9994 -1.9724
  638MOL0     H86110   1.990   7.695  10.871  0.1226 -2.5031 -0.8684
  638MOL0     H86111   2.108   7.851  10.725 -3.7003  2.8132  3.5100
  638MOL0     H86112   2.715   7.954  10.510  0.2579 -0.2432  2.5099
  638MOL0     H86113   2.753   8.135  10.362  0.6582 -2.4309  1.6271
  638MOL0     H86114   2.969   8.984  11.021  2.0941  4.7382 -0.1134
  638MOL0     H86115   2.804   8.869  11.164 -1.2911 -0.1021 -0.8387
  638MOL0     H86116   2.346   8.938  11.298 -0.4424 -0.1640 -0.7648
  638MOL0     H86117   2.141   8.874  11.380  0.5265  0.6942 -2.4250
  638MOL0     H86118   1.844   8.650  11.372  1.4559  0.4728 -2.5447
  638MOL0     H86119   1.926   8.802  11.378  6.1328  0.9616 -0.9629
  638MOL0     H86120   1.870   8.772  11.617  0.0589 -0.2568  1.9029
  638MOL0     H86121   2.034   8.711  11.614 -0.3192  0.7391  2.6260
  638MOL0     H86122   1.898   8.564  11.743  1.6075 -1.2207 -0.8711
  638MOL0     H86123   1.987   8.494  11.609  1.0984  1.2953 -1.1417
  638MOL0     H86124   1.789   8.460  11.481 -4.2993 -3.8428  1.4511
  638MOL0     H86125   1.765   8.401  11.642 -0.3677  0.6042  0.8874
  638MOL0     H86126   1.461   8.683  11.632  1.3738  3.2337 -0.5794
  638MOL0     H86127   2.242   8.459  11.293  1.4689  0.3307  0.2523
  638MOL0     H86128   2.580   8.510  11.184  0.0092 -1.2904 -0.4961
  638MOL0     H86129   2.510   8.449  11.328  0.0538  0.0266 -0.6264
  638MOL0     H86130   2.432   8.404  11.172 -1.7185  0.6394  0.1259
  639MOL0     O86131   7.822   1.338   5.153 -0.0781  0.0185 -0.2727
  639MOL0     C86132   7.755   1.415   5.221  0.2498  0.0937  0.0170
  639MOL0     O86133   7.801   1.502   5.299  0.6055  0.6638 -0.1801
  639MOL0     C86134   7.934   1.530   5.283 -0.4378 -0.2191 -0.0113
  639MOL0     C86135   8.037   1.500   5.371 -0.0536  0.7770 -0.8832
  639MOL0     C86136   8.168   1.550   5.360  0.0420  0.1767 -0.3089
  639MOL0     C86137   8.201   1.629   5.251  0.6824 -0.2619  0.0421
  639MOL0     O86138   8.333   1.661   5.237  0.1073  0.1781 -0.2823
  639MOL0     C86139   8.366   1.766   5.151 -0.3600 -0.5995  0.0786
  639MOL0     C86140   8.496   1.830   5.198  0.3267 -0.0125 -0.6008
  639MOL0     C86141   8.534   1.949   5.112  0.0298  0.5158  0.5571
  639MOL0     C86142   8.648   2.047   5.174  0.5428 -0.7037 -0.0250
  639MOL0     C86143   8.656   2.181   5.105 -0.1549  0.4683  0.7347
  639MOL0     C86144   8.757   2.271   5.193  0.9713 -0.5038  0.4052
  639MOL0     C86145   8.809   2.384   5.096  0.6205 -0.1274  0.3818
  639MOL0     C86146   8.902   2.489   5.164 -1.1941 -0.4883 -0.4642
  639MOL0     N86147   9.013   2.541   5.079 -0.5288  0.6127 -0.0648
  639MOL0     C86148   9.089   2.650   5.122 -0.8415 -0.0336  0.3467
  639MOL0     C86149   9.174   2.661   5.016  0.5582 -0.5385  0.1621
  639MOL0     C86150   9.276   2.773   5.008 -0.4726 -0.9098 -0.4822
  639MOL0     C86151   9.205   2.904   5.035  0.1507 -0.1900 -0.6432
  639MOL0     C86152   9.083   2.929   4.938  0.2043  0.2069  0.3043
  639MOL0     C86153   9.007   3.049   4.978 -0.2853  0.0879 -0.2352
  639MOL0     O86154   8.950   3.039   5.113 -0.9517 -0.1396 -0.3626
  639MOL0     C86155   8.845   2.954   5.147 -0.6519  0.3432  0.0324
  639MOL0     C86156   8.810   2.958   5.282  0.1786 -0.0040  0.4685
  639MOL0     C86157   8.712   2.872   5.332  0.0804  0.1274 -0.2297
  639MOL0     C86158   8.666   2.770   5.251  0.4911  0.5191  0.8308
  639MOL0     C86159   8.584   2.668   5.315  0.5119 -0.1443  1.0305
  639MOL0     O86160   8.553   2.674   5.439  0.1832  0.8300 -0.3655
  639MOL0     C86161   8.426   2.630   5.474 -0.3088 -0.6657 -1.2423
  639MOL0     C86162   8.313   2.690   5.408  1.5215 -0.0845 -0.6160
  639MOL0     C86163   8.183   2.664   5.455 -0.1906 -0.4217  0.5865
  639MOL0     C86164   8.167   2.586   5.566  0.3711 -0.1335  0.1974
  639MOL0     O86165   8.038   2.586   5.621 -0.0740 -0.2779  0.2260
  639MOL0     C86166   8.040   2.613   5.764 -0.3187 -0.7708 -0.6145
  639MOL0     C86167   7.914   2.689   5.800  0.6048  0.2799 -0.0509
  639MOL0     C86168   7.925   2.770   5.931  0.2695  0.0319  1.0483
  639MOL0     C86169   8.008   2.697   6.036 -0.0992  0.0180  0.7300
  639MOL0     C86170   8.003   2.775   6.167 -0.3420  0.7755 -0.2477
  639MOL0     C86171   8.062   2.695   6.286 -0.0404 -0.4375 -0.6813
  639MOL0     C86172   8.051   2.763   6.427  0.1599  0.1824 -0.3797
  639MOL0     C86173   8.093   2.681   6.545  0.1024  0.0748  0.2383
  639MOL0    Cl86174   8.266   2.650   6.530  0.4750  0.3206  0.2352
  639MOL0     C86175   8.280   2.533   5.631  0.1563  0.5299 -0.8369
  639MOL0     C86176   8.412   2.548   5.586  0.4813  0.2501 -0.1052
  639MOL0     O86177   8.534   2.588   5.230 -0.7020 -0.4598 -0.3597
  639MOL0     C86178   8.683   2.778   5.111 -0.2123  0.3404 -0.3710
  639MOL0     C86179   8.772   2.866   5.056 -0.4445  0.1397 -0.3632
  639MOL0     N86180   9.153   2.557   4.925 -0.1367 -1.0356  0.3027
  639MOL0     N86181   9.067   2.478   4.971  0.1537  0.2171 -0.5236
  639MOL0     C86182   8.094   1.666   5.161  0.3244 -0.7657  0.2227
  639MOL0     C86183   7.965   1.621   5.183 -0.8375  1.1927  0.0862
  639MOL0     C86184   7.616   1.400   5.245  0.8514  0.2425  0.0549
  639MOL0     C86185   7.555   1.439   5.369 -0.8459 -0.4011 -0.3159
  639MOL0     C86186   7.425   1.406   5.402 -0.5100  0.1289 -0.7928
  639MOL0     C86187   7.348   1.338   5.309 -1.2454 -0.0908  0.1861
  639MOL0     O86188   7.221   1.300   5.333  0.0060  0.2885  0.1115
  639MOL0     C86189   7.135   1.399   5.392  1.0202  0.1143 -0.5335
  639MOL0     C86190   7.028   1.321   5.476 -0.8857  0.4652 -0.2344
  639MOL0     C86191   6.939   1.221   5.409  0.0862 -0.7430  0.7246
  639MOL0     C86192   6.822   1.289   5.339  0.9481  0.4318 -0.3881
  639MOL0     C86193   6.732   1.185   5.287  0.4336  0.6172  0.6748
  639MOL0     C86194   6.658   1.112   5.222 -0.5749  0.2351  0.6389
  639MOL0     C86195   7.403   1.310   5.178 -0.7731 -0.8389  0.3098
  639MOL0     C86196   7.541   1.336   5.148  0.1518  0.3004  0.8674
  639MOL0     C86197   7.587   1.271   5.017  0.4517  0.0023 -0.2224
  639MOL0     H86198   8.013   1.443   5.461 -1.1622  0.7830 -1.1576
  639MOL0     H86199   8.249   1.529   5.429 -0.9370  1.2036  1.2237
  639MOL0     H86200   8.381   1.733   5.048 -0.6571 -0.2343 -0.0797
  639MOL0     H86201   8.284   1.837   5.144 -0.7145 -1.1507 -2.1773
  639MOL0     H86202   8.575   1.755   5.189  0.1694 -0.5505  1.7912
  639MOL0     H86203   8.483   1.847   5.306  3.7189 -2.7237  0.3972
  639MOL0     H86204   8.438   1.998   5.094  0.1670  0.2015 -1.1951
  639MOL0     H86205   8.576   1.907   5.020 -1.3401 -0.7796  0.4945
  639MOL0     H86206   8.617   2.072   5.276 -0.9323 -1.9019 -0.1369
  639MOL0     H86207   8.745   1.997   5.177  1.0379  0.1948 -0.6075
  639MOL0     H86208   8.709   2.155   5.012 -3.5464  0.6265 -1.4115
  639MOL0     H86209   8.559   2.228   5.087 -0.8534 -1.3701 -0.7688
  639MOL0     H86210   8.708   2.322   5.276 -1.4457 -1.6719 -0.2215
  639MOL0     H86211   8.836   2.206   5.231 -0.7940 -4.3312 -1.8404
  639MOL0     H86212   8.720   2.441   5.064 -0.0297 -0.3347  1.7672
  639MOL0     H86213   8.860   2.336   5.012  0.4384  1.4334 -0.6789
  639MOL0     H86214   8.837   2.565   5.208  0.7032  1.1489 -0.3899
  639MOL0     H86215   8.949   2.452   5.255  2.5586 -0.3889 -2.1984
  639MOL0     H86216   9.078   2.723   5.201 -1.5621  0.2686 -0.0246
  639MOL0     H86217   9.356   2.766   5.082  0.8408 -0.0239 -1.7638
  639MOL0     H86218   9.341   2.773   4.920 -1.4042 -4.6274 -1.3892
  639MOL0     H86219   9.169   2.903   5.138  0.5917 -0.4039 -0.4887
  639MOL0     H86220   9.273   2.990   5.028  0.8173 -0.7011 -0.5655
  639MOL0     H86221   9.016   2.842   4.936 -1.1264  0.8124  4.9790
  639MOL0     H86222   9.130   2.945   4.841  0.1371  2.0914  0.5411
  639MOL0     H86223   8.927   3.065   4.905  1.0821 -0.4347 -1.9179
  639MOL0     H86224   9.078   3.132   4.973 -0.6932  0.4023 -0.9840
  639MOL0     H86225   8.860   3.034   5.342 -1.3264  0.9010  0.6357
  639MOL0     H86226   8.690   2.882   5.438  3.6108 -0.6963  0.7393
  639MOL0     H86227   8.325   2.748   5.318  4.8185  0.4764  0.0511
  639MOL0     H86228   8.097   2.700   5.400  0.1222 -1.7187 -0.8076
  639MOL0     H86229   8.050   2.518   5.816  0.2284 -0.0435  0.6505
  639MOL0     H86230   8.124   2.673   5.801 -0.1881  0.4404 -2.7023
  639MOL0     H86231   7.889   2.756   5.717 -0.4131 -1.2237 -1.0238
  639MOL0     H86232   7.838   2.613   5.821  1.9354 -0.4641  2.4708
  639MOL0     H86233   7.980   2.855   5.890  1.7086 -1.6700 -0.7916
  639MOL0     H86234   7.829   2.804   5.969 -0.3924  1.0451 -1.3582
  639MOL0     H86235   8.112   2.685   6.002  0.1071  1.5989  0.7052
  639MOL0     H86236   7.959   2.599   6.041 -1.8759  0.9322  2.5077
  639MOL0     H86237   7.898   2.800   6.187 -1.3660 -1.1226 -2.7318
  639MOL0     H86238   8.060   2.868   6.163  3.0859 -1.2124 -2.7330
  639MOL0     H86239   8.018   2.595   6.291 -0.6093 -0.4750 -4.2252
  639MOL0     H86240   8.165   2.678   6.254  0.4254  2.2707 -0.9036
  639MOL0     H86241   7.946   2.789   6.443  0.3733  1.1300 -0.4631
  639MOL0     H86242   8.119   2.849   6.426  1.1605 -0.4610 -3.8263
  639MOL0     H86243   8.069   2.743   6.631  0.9124 -0.4714  0.8669
  639MOL0     H86244   8.035   2.588   6.532 -1.8236  0.9853  1.8370
  639MOL0     H86245   8.266   2.466   5.715 -1.0658  2.6431  0.7455
  639MOL0     H86246   8.500   2.490   5.611  2.4550  1.6069 -3.2681
  639MOL0     H86247   8.625   2.708   5.052 -0.4782  2.6063 -3.0272
  639MOL0     H86248   8.799   2.868   4.951 -1.7426  1.9219 -0.7099
  639MOL0     H86249   8.100   1.727   5.072  1.7641 -1.8239 -0.4423
  639MOL0     H86250   7.890   1.652   5.110  1.1376  2.0807 -1.6728
  639MOL0     H86251   7.611   1.488   5.447 -1.9101  0.0592  0.1738
  639MOL0     H86252   7.397   1.435   5.503 -2.0863  2.8101 -1.8908
  639MOL0     H86253   7.080   1.461   5.320  0.4051 -1.3062 -1.3292
  639MOL0     H86254   7.192   1.471   5.452 -0.2812 -0.0971  1.0327
  639MOL0     H86255   6.969   1.381   5.546 -2.0768 -2.5812  1.5947
  639MOL0     H86256   7.099   1.277   5.547 -1.9707 -0.6197  0.2154
  639MOL0     H86257   6.896   1.154   5.484  0.6858 -1.6090  0.3121
  639MOL0     H86258   6.991   1.162   5.332  0.1750  0.1358  0.1045
  639MOL0     H86259   6.771   1.354   5.411  1.0914  1.2411 -1.0112
  639MOL0     H86260   6.861   1.340   5.251 -1.6735  1.8994 -0.7989
  639MOL0     H86261   6.600   1.052   5.155 -0.5931  1.3785 -0.4152
  639MOL0     H86262   7.344   1.260   5.102 -0.9199  1.2083 -1.0193
  639MOL0     H86263   7.654   1.341   4.966  1.9558 -2.0580 -1.1806
  639MOL0     H86264   7.651   1.185   5.039 -1.9812 -1.6164  0.9423
  639MOL0     H86265   7.510   1.245   4.944 -0.9892  0.5360  1.0421
  640MOL0     O86266   3.067   3.931  10.123  0.1286 -0.3936  0.4528
  640MOL0     C86267   3.018   4.016  10.202 -0.5976  0.5928 -1.0711
  640MOL0     O86268   3.083   4.075  10.319 -0.8803 -0.0852  0.5711
  640MOL0     C86269   3.205   4.029  10.370  1.0238 -0.0396 -0.0201
  640MOL0     C86270   3.260   4.115  10.460  0.6390 -0.9092 -0.1305
  640MOL0     C86271   3.377   4.082  10.526 -0.1502 -0.1175 -0.0212
  640MOL0     C86272   3.432   3.955  10.511  0.0861 -0.8577  0.2705
  640MOL0     O86273   3.533   3.908  10.592  1.1271  0.0100 -0.0862
  640MOL0     C86274   3.559   3.984  10.713 -0.2270 -0.6190 -0.7703
  640MOL0     C86275   3.682   3.928  10.793 -0.0740  0.8132 -0.2731
  640MOL0     C86276   3.674   3.948  10.946  0.4080 -0.2216  0.4214
  640MOL0     C86277   3.809   3.912  11.015 -0.2527  0.2453  0.0819
  640MOL0     C86278   3.801   3.912  11.175 -0.7249 -0.0769 -0.2063
  640MOL0     C86279   3.939   3.855  11.225  0.1021  0.2816  0.1362
  640MOL0     C86280   3.992   3.913  11.361  0.9902  0.4721  0.0068
  640MOL0     C86281   3.898   3.884  11.477 -0.6299 -0.1501 -0.1200
  640MOL0     N86282   3.935   3.758  11.547  0.4934 -0.8195  0.0445
  640MOL0     C86283   3.879   3.645  11.493 -0.5199  0.3230  0.5021
  640MOL0     C86284   3.890   3.553  11.593 -1.2234 -0.3254  0.4686
  640MOL0     C86285   3.878   3.408  11.569  0.5195  0.0679  0.6348
  640MOL0     C86286   3.734   3.351  11.581 -0.5944 -0.3841  0.0425
  640MOL0     C86287   3.703   3.352  11.725 -0.7015  0.2602 -0.6261
  640MOL0     C86288   3.561   3.317  11.763  0.7576  0.9561  0.3488
  640MOL0     O86289   3.460   3.406  11.694 -0.0797 -0.5424 -0.0210
  640MOL0     C86290   3.331   3.357  11.699  0.4540  0.6537  0.6754
  640MOL0     C86291   3.229   3.424  11.763 -0.1659 -0.2023  0.8383
  640MOL0     C86292   3.104   3.370  11.749  0.2393  0.1337  0.0123
  640MOL0     C86293   3.073   3.258  11.671 -0.3320  0.2158  0.2803
  640MOL0     C86294   2.928   3.224  11.651  0.2607 -0.4539 -2.3308
  640MOL0     O86295   2.906   3.155  11.546 -0.5033  0.1441 -0.2120
  640MOL0     C86296   2.781   3.086  11.539  0.3901  0.2803 -0.1418
  640MOL0     C86297   2.700   3.113  11.421  0.1083  0.5684 -0.6359
  640MOL0     C86298   2.587   3.036  11.393 -0.0380  0.0652  0.1699
  640MOL0     C86299   2.550   2.939  11.491  0.6543 -0.2235  0.2588
  640MOL0     O86300   2.428   2.881  11.470  0.0390 -0.7450  0.5474
  640MOL0     C86301   2.338   2.933  11.567 -0.5203 -0.0461 -0.0310
  640MOL0     C86302   2.192   2.882  11.541  0.1159  0.4880 -0.2208
  640MOL0     C86303   2.084   2.915  11.641  0.3877 -0.4327 -1.1506
  640MOL0     C86304   1.943   2.892  11.600  0.2337 -1.1246  0.7577
  640MOL0     C86305   1.900   2.749  11.563  0.8076 -0.1032  0.4013
  640MOL0     C86306   1.753   2.732  11.523  1.1521 -0.0608 -0.6336
  640MOL0     C86307   1.683   2.647  11.638  0.0235 -0.7105  0.3280
  640MOL0     C86308   1.559   2.597  11.568  0.2305 -0.2774 -0.3360
  640MOL0    Cl86309   1.484   2.486  11.689  0.4784  0.5366 -0.2510
  640MOL0     C86310   2.624   2.919  11.607 -0.0737  0.2748 -0.7616
  640MOL0     C86311   2.740   2.991  11.627  0.1539  0.7288  1.0053
  640MOL0     O86312   2.846   3.258  11.733 -0.6883 -0.3195 -0.1638
  640MOL0     C86313   3.174   3.197  11.596  0.1625  0.1913  0.1973
  640MOL0     C86314   3.302   3.247  11.613 -0.0339 -0.3758 -0.9461
  640MOL0     N86315   3.954   3.615  11.704  0.1656 -0.5974  0.6580
  640MOL0     N86316   3.966   3.741  11.679  0.4065  0.4503  1.2273
  640MOL0     C86317   3.379   3.868  10.424 -0.5296 -0.7230 -0.3642
  640MOL0     C86318   3.259   3.901  10.354 -0.4723  0.0670  0.2737
  640MOL0     C86319   2.876   4.051  10.175  0.4625 -0.6017  0.7544
  640MOL0     C86320   2.833   4.034  10.040  0.7990 -0.5500  1.1866
  640MOL0     C86321   2.709   4.076  10.001  0.0512 -0.4106  0.9700
  640MOL0     C86322   2.621   4.133  10.086 -0.0058  0.4122 -0.4299
  640MOL0     O86323   2.504   4.200  10.056 -0.3849 -0.8150 -0.3207
  640MOL0     C86324   2.453   4.157   9.930  0.1687 -0.3555 -0.1750
  640MOL0     C86325   2.321   4.232   9.905  0.2803  0.5393 -0.7040
  640MOL0     C86326   2.277   4.187   9.780  0.3853  0.9678  1.3605
  640MOL0     C86327   2.165   4.275   9.724  0.0368 -0.6933 -0.1985
  640MOL0     C86328   2.100   4.181   9.630 -0.1561 -0.7100 -0.2563
  640MOL0     C86329   2.059   4.112   9.539 -0.1492  0.0860 -0.8024
  640MOL0     C86330   2.673   4.165  10.211 -0.7861  0.2749  0.1128
  640MOL0     C86331   2.793   4.121  10.259  1.0663  0.3675  0.2989
  640MOL0     C86332   2.817   4.156  10.406  0.3841 -0.1152 -0.1385
  640MOL0     H86333   3.218   4.213  10.480 -0.8321 -1.5332  0.0023
  640MOL0     H86334   3.424   4.153  10.593  1.3362 -1.4699  0.4308
  640MOL0     H86335   3.600   4.083  10.688  1.7910 -1.0829  0.4645
  640MOL0     H86336   3.470   3.992  10.776  1.2430 -0.5442  1.4181
  640MOL0     H86337   3.778   3.960  10.754  1.3122 -2.2145  0.3610
  640MOL0     H86338   3.690   3.819  10.784  1.0775  0.3678  3.8787
  640MOL0     H86339   3.594   3.888  10.990 -0.4632  2.7186  3.2350
  640MOL0     H86340   3.658   4.053  10.973 -0.4592 -0.8215  2.3969
  640MOL0     H86341   3.853   3.819  10.977  0.8512  1.7844 -2.6466
  640MOL0     H86342   3.879   3.987  10.979 -0.0014 -0.5586 -1.1762
  640MOL0     H86343   3.781   4.015  11.208 -2.4124 -0.4226 -0.0521
  640MOL0     H86344   3.730   3.839  11.216 -0.9933  0.1503 -0.2629
  640MOL0     H86345   3.930   3.747  11.234 -0.6360  0.3269  0.0112
  640MOL0     H86346   4.018   3.890  11.158 -0.5179  1.6361  0.0684
  640MOL0     H86347   4.010   4.021  11.355  0.1542  0.6779  0.8952
  640MOL0     H86348   4.089   3.869  11.386 -0.5265 -3.3368 -0.1217
  640MOL0     H86349   3.906   3.966  11.549 -0.1882  2.0261 -2.5111
  640MOL0     H86350   3.792   3.879  11.451 -0.9048  0.6342  0.7856
  640MOL0     H86351   3.829   3.631  11.398 -1.1950 -1.7852  1.1116
  640MOL0     H86352   3.916   3.382  11.470 -0.3072 -0.5116  0.4603
  640MOL0     H86353   3.942   3.349  11.635  2.4163  1.3046 -0.0326
  640MOL0     H86354   3.666   3.411  11.519 -1.2897 -1.9467 -0.7693
  640MOL0     H86355   3.742   3.251  11.536  0.2114 -0.9761  1.4473
  640MOL0     H86356   3.719   3.443  11.784  0.3875 -0.9195  0.9696
  640MOL0     H86357   3.776   3.287  11.773 -2.0537 -2.9896 -2.6621
  640MOL0     H86358   3.551   3.311  11.871 -1.0065 -3.0072  0.1624
  640MOL0     H86359   3.549   3.215  11.725  3.7409  0.9771 -0.9947
  640MOL0     H86360   3.243   3.522  11.808 -1.1408  2.0607 -3.2740
  640MOL0     H86361   3.021   3.428  11.789 -2.5068 -1.2966 -3.1423
  640MOL0     H86362   2.736   3.178  11.342  1.3325  1.9503  0.9843
  640MOL0     H86363   2.527   3.039  11.303  0.9890 -2.5650 -0.6715
  640MOL0     H86364   2.368   2.895  11.666  2.1356 -2.0808 -1.4856
  640MOL0     H86365   2.344   3.042  11.565  1.6663 -0.0850  0.9648
  640MOL0     H86366   2.153   2.904  11.441  1.3278  1.6465 -0.4554
  640MOL0     H86367   2.206   2.773  11.535 -0.4826  0.4829 -2.7303
  640MOL0     H86368   2.101   2.863  11.736  0.7777 -2.5517 -2.3327
  640MOL0     H86369   2.097   3.023  11.657  2.0681 -0.2794 -3.0970
  640MOL0     H86370   1.925   2.958  11.514 -0.4537  2.1955  3.2232
  640MOL0     H86371   1.882   2.929  11.682  3.2447  0.5817  2.3787
  640MOL0     H86372   1.927   2.679  11.643 -2.7355 -2.1639  0.0059
  640MOL0     H86373   1.945   2.714  11.469 -2.3635 -0.2500 -1.2153
  640MOL0     H86374   1.707   2.830  11.507 -1.1290 -1.0242 -0.3992
  640MOL0     H86375   1.745   2.689  11.423  3.4919 -2.2868  0.0433
  640MOL0     H86376   1.674   2.704  11.731  0.2253  2.0241 -1.1897
  640MOL0     H86377   1.750   2.562  11.652 -1.4099 -1.6893  1.5737
  640MOL0     H86378   1.498   2.685  11.545 -0.3536 -0.8138 -0.9034
  640MOL0     H86379   1.571   2.537  11.478 -0.2035  1.3557 -1.5415
  640MOL0     H86380   2.599   2.841  11.679  1.3061  0.2897 -0.2326
  640MOL0     H86381   2.810   2.962  11.705  1.5204 -0.2670 -0.5479
  640MOL0     H86382   3.159   3.125  11.516  2.6887 -0.2762  0.0409
  640MOL0     H86383   3.385   3.206  11.556  1.9158 -0.5727  1.8195
  640MOL0     H86384   3.416   3.767  10.412  2.6302 -0.0116  1.9478
  640MOL0     H86385   3.218   3.829  10.283 -0.6984 -2.3471  2.7023
  640MOL0     H86386   2.882   3.990   9.954 -0.1270 -1.7323  1.2458
  640MOL0     H86387   2.688   4.053   9.897  0.0879 -1.3546  1.1599
  640MOL0     H86388   2.447   4.048   9.939 -0.1246 -0.1950  2.1675
  640MOL0     H86389   2.520   4.179   9.846  0.1426  0.1075 -0.0772
  640MOL0     H86390   2.339   4.340   9.902 -2.3510  1.1539  1.2946
  640MOL0     H86391   2.247   4.210   9.983 -1.3673 -0.3727 -2.4484
  640MOL0     H86392   2.240   4.087   9.806  5.0726 -1.3882  0.1224
  640MOL0     H86393   2.357   4.183   9.706 -0.5850  0.4206  0.3093
  640MOL0     H86394   2.092   4.310   9.797  0.5470 -1.0670  0.4989
  640MOL0     H86395   2.199   4.368   9.677 -1.7314 -0.5925 -1.3606
  640MOL0     H86396   2.038   4.050   9.454 -2.6694  2.0458 -1.7342
  640MOL0     H86397   2.612   4.229  10.274 -0.3594  2.9475 -1.9906
  640MOL0     H86398   2.897   4.228  10.424  1.8496 -2.0760  1.7800
  640MOL0     H86399   2.729   4.168  10.470 -0.3029 -2.7755 -0.4581
  640MOL0     H86400   2.856   4.062  10.448 -0.2315 -0.0798  0.5384
  641MOL0     O86401  10.948  10.466   4.083 -0.5878  0.4449  0.4434
  641MOL0     C86402  10.919  10.419   3.973  0.4241 -0.4109 -0.0923
  641MOL0     O86403  10.988  10.324   3.901  0.2831  0.0249  0.1440
  641MOL0     C86404  11.067  10.247   3.983 -1.1871  0.2583 -0.0263
  641MOL0     C86405  11.007  10.139   4.050 -0.4622  0.2622 -0.0388
  641MOL0     C86406  11.086  10.068   4.142  0.0418 -0.4095 -0.0052
  641MOL0     C86407  11.223  10.095   4.161  0.0154 -0.0696 -0.5960
  641MOL0     O86408  11.304  10.018   4.238 -0.0607 -0.3110 -0.7244
  641MOL0     C86409  11.272   9.886   4.261 -0.6611  0.1533 -0.8031
  641MOL0     C86410  11.392   9.803   4.274  0.6059  0.1414 -1.1375
  641MOL0     C86411  11.514   9.811   4.185 -0.0901 -0.5491  0.6475
  641MOL0     C86412  11.638   9.741   4.221  0.5092  0.4432 -0.0874
  641MOL0     C86413  11.761   9.778   4.136  0.0500  0.0340 -0.3369
  641MOL0     C86414  11.869   9.681   4.151 -0.2425  0.2722 -0.2778
  641MOL0     C86415  11.997   9.730   4.091 -0.4132 -0.6214  0.3410
  641MOL0     C86416  12.071   9.818   4.194 -0.3709 -0.2645 -0.8640
  641MOL0     N86417  12.206   9.756   4.230  0.1049 -0.1526 -0.0705
  641MOL0     C86418  12.324   9.777   4.158 -0.3529 -0.8067  0.6043
  641MOL0     C86419  12.424   9.721   4.229  0.3837 -0.6817  0.6078
  641MOL0     C86420  12.567   9.718   4.183  0.3102  0.4868  0.7670
  641MOL0     C86421  12.656   9.831   4.228 -0.5579 -0.0941 -0.0196
  641MOL0     C86422  12.795   9.815   4.166  0.1051 -0.0659 -0.0401
  641MOL0     C86423  12.899   9.917   4.206  0.0144 -0.5730  0.1545
  641MOL0     O86424  12.938   9.875   4.338 -0.1089  0.7021 -0.7480
  641MOL0     C86425  13.065   9.894   4.375  0.4054  0.2562  0.3003
  641MOL0     C86426  13.098   9.828   4.494 -0.2081 -0.1528 -0.2081
  641MOL0     C86427  13.234   9.822   4.541 -0.8470  0.4893  0.6585
  641MOL0     C86428  13.331   9.900   4.479 -0.1130 -0.6959  0.0454
  641MOL0     C86429  13.473   9.883   4.533 -0.7627  0.4962 -0.0671
  641MOL0     O86430  13.574   9.933   4.453 -0.7283  0.4171  0.0677
  641MOL0     C86431  13.712   9.914   4.481  0.3664  0.5148 -0.3181
  641MOL0     C86432  13.778   9.803   4.544 -0.4370 -0.6641  0.3885
  641MOL0     C86433  13.912   9.799   4.564 -0.3701  0.2008 -0.2830
  641MOL0     C86434  13.986   9.911   4.529 -0.0232 -0.0138  0.5464
  641MOL0     O86435  14.116   9.900   4.543 -0.3383  0.5467 -0.1479
  641MOL0     C86436  14.184   9.796   4.471  0.2309  0.4613 -0.9582
  641MOL0     C86437  14.211   9.838   4.328 -0.0512 -0.5652 -0.0565
  641MOL0     C86438  14.322   9.954   4.322 -0.2430  0.5375 -0.0438
  641MOL0     C86439  14.357   9.952   4.169 -0.7054  0.4472  1.1614
  641MOL0     C86440  14.484  10.040   4.152 -1.2422 -0.3405  0.5462
  641MOL0     C86441  14.601   9.954   4.199 -1.1888  0.3342  0.3379
  641MOL0     C86442  14.744   9.997   4.153 -0.2294  0.0129  0.3278
  641MOL0     C86443  14.864   9.892   4.169  0.9426 -0.0715  0.3504
  641MOL0    Cl86444  14.843   9.749   4.070  0.0038  0.0492 -0.6364
  641MOL0     C86445  13.924  10.021   4.472 -0.8458  0.6909  0.0194
  641MOL0     C86446  13.789  10.022   4.444 -0.2149 -0.4784  0.6699
  641MOL0     O86447  13.491   9.801   4.624 -0.2066  0.3096  0.5506
  641MOL0     C86448  13.290   9.987   4.368  0.3825  0.1890  0.3097
  641MOL0     C86449  13.157   9.986   4.318  0.2543  0.2044  0.2143
  641MOL0     N86450  12.369   9.652   4.335  0.0380 -0.1130 -0.5123
  641MOL0     N86451  12.239   9.680   4.343 -0.4885  1.1402 -0.2170
  641MOL0     C86452  11.284  10.205   4.093  1.3786  0.4656  0.3908
  641MOL0     C86453  11.203  10.280   4.005  0.4962 -0.7297 -1.2608
  641MOL0     C86454  10.796  10.493   3.920 -0.0697  0.3441  0.6840
  641MOL0     C86455  10.714  10.409   3.845 -0.3092 -0.1649  0.2618
  641MOL0     C86456  10.597  10.451   3.780 -0.1101  1.2665 -0.7444
  641MOL0     C86457  10.556  10.586   3.795  0.1142  0.1961  0.1182
  641MOL0     O86458  10.434  10.634   3.750  0.1491  0.5148 -0.6732
  641MOL0     C86459  10.351  10.661   3.856  0.1652 -0.8672 -0.5865
  641MOL0     C86460  10.309  10.811   3.842 -0.0661 -0.7289  0.2837
  641MOL0     C86461  10.273  10.862   3.701  0.6966 -0.0368  0.2245
  641MOL0     C86462  10.220  11.005   3.699  0.1126 -0.3779 -0.3146
  641MOL0     C86463  10.087  11.015   3.772 -0.8404  0.8034  0.5957
  641MOL0     C86464   9.973  11.028   3.821  0.3318 -0.2287  0.2768
  641MOL0     C86465  10.641  10.672   3.870  0.5018  0.5800  0.2171
  641MOL0     C86466  10.764  10.626   3.924  0.0924 -0.2673  0.3323
  641MOL0     C86467  10.863  10.728   3.980 -0.4544  0.1468 -0.5101
  641MOL0     H86468  10.903  10.110   4.053  0.0049 -1.4666  0.6991
  641MOL0     H86469  11.047   9.991   4.207  2.2925 -0.5296  1.3264
  641MOL0     H86470  11.222   9.875   4.358  0.4152 -1.5675 -0.3937
  641MOL0     H86471  11.199   9.846   4.189 -2.0396  2.6977 -0.9313
  641MOL0     H86472  11.353   9.701   4.266 -1.8026  1.0067 -1.1689
  641MOL0     H86473  11.422   9.837   4.374 -0.3225  1.9032 -1.4252
  641MOL0     H86474  11.545   9.915   4.168  3.6520 -1.1393  2.8666
  641MOL0     H86475  11.469   9.776   4.091 -3.3857  3.1986  0.5692
  641MOL0     H86476  11.668   9.782   4.318 -0.5452  3.0345 -0.7573
  641MOL0     H86477  11.618   9.634   4.230 -1.1294  0.7419  0.1420
  641MOL0     H86478  11.733   9.775   4.030  3.7906  1.7100 -1.5897
  641MOL0     H86479  11.801   9.878   4.156  3.2242 -1.1155 -0.4206
  641MOL0     H86480  11.899   9.640   4.249  2.4140  1.2731 -0.5747
  641MOL0     H86481  11.852   9.594   4.087  0.1645 -1.1764  1.4901
  641MOL0     H86482  11.981   9.796   4.005 -0.9585  1.0264  1.6521
  641MOL0     H86483  12.063   9.649   4.060  1.0153  0.9934 -1.0312
  641MOL0     H86484  12.108   9.913   4.155  0.3563  1.5420  3.5445
  641MOL0     H86485  12.016   9.843   4.286 -0.4941 -2.9105 -0.1154
  641MOL0     H86486  12.342   9.832   4.066  0.8182 -0.2525  1.1333
  641MOL0     H86487  12.615   9.622   4.204  1.8494  1.2146  0.7127
  641MOL0     H86488  12.574   9.721   4.074  3.1283 -2.9264  0.6642
  641MOL0     H86489  12.608   9.924   4.196 -1.3933 -0.4611  0.1546
  641MOL0     H86490  12.658   9.826   4.337 -2.0383  1.3818  0.1191
  641MOL0     H86491  12.787   9.823   4.058 -1.2710 -0.0816  0.0441
  641MOL0     H86492  12.836   9.715   4.184 -2.6325 -1.0884  1.1457
  641MOL0     H86493  12.859  10.018   4.200  0.7874  0.0409  3.3248
  641MOL0     H86494  12.979   9.916   4.132 -0.5242  0.3988 -0.4578
  641MOL0     H86495  13.019   9.767   4.536  0.2087 -0.4961  0.0814
  641MOL0     H86496  13.262   9.751   4.617  1.0611 -0.2195 -0.6253
  641MOL0     H86497  13.719   9.717   4.571 -0.5535 -0.5930  0.3581
  641MOL0     H86498  13.958   9.712   4.608  4.5784  2.8155  0.4084
  641MOL0     H86499  14.280   9.790   4.522 -1.0029  0.0694  1.4567
  641MOL0     H86500  14.134   9.698   4.476 -0.8953  1.0796  0.6427
  641MOL0     H86501  14.239   9.751   4.267 -1.2630 -1.6215  0.8357
  641MOL0     H86502  14.113   9.874   4.297  0.3809  2.1428  1.4503
  641MOL0     H86503  14.290  10.051   4.363  1.6706  1.1249  0.1826
  641MOL0     H86504  14.409   9.923   4.380  0.7139 -0.5561 -1.9673
  641MOL0     H86505  14.266   9.993   4.125  0.0860 -0.3080 -1.3026
  641MOL0     H86506  14.360   9.850   4.130 -2.7502  0.4200  0.9959
  641MOL0     H86507  14.475  10.134   4.207 -1.4809 -0.4414  0.6802
  641MOL0     H86508  14.496  10.064   4.046 -0.9119  0.3566  0.7346
  641MOL0     H86509  14.608   9.956   4.308  1.8819  4.6153  0.3019
  641MOL0     H86510  14.590   9.850   4.165  1.7391 -0.0111  0.1655
  641MOL0     H86511  14.759  10.081   4.221 -1.0604 -2.4935  3.8737
  641MOL0     H86512  14.746  10.023   4.046 -0.5231  0.7573  0.4971
  641MOL0     H86513  14.965   9.933   4.158 -0.2162  2.4498 -1.8551
  641MOL0     H86514  14.859   9.860   4.273 -1.1729  3.4207  1.4880
  641MOL0     H86515  13.985  10.100   4.429 -0.2653  0.8617  1.1221
  641MOL0     H86516  13.761  10.118   4.403  0.0277 -0.6717  0.0438
  641MOL0     H86517  13.366  10.048   4.320  0.5558  0.3839  0.8241
  641MOL0     H86518  13.145  10.045   4.227 -0.9834  1.6877  1.2730
  641MOL0     H86519  11.387  10.235   4.111  1.2197 -0.6185  3.9686
  641MOL0     H86520  11.234  10.361   3.941 -1.6950  0.5910 -0.7630
  641MOL0     H86521  10.744  10.305   3.847 -0.8881 -0.3682 -0.8192
  641MOL0     H86522  10.523  10.382   3.742  2.6900 -0.1832 -4.1818
  641MOL0     H86523  10.394  10.632   3.953 -1.2888 -1.5147 -0.1036
  641MOL0     H86524  10.262  10.599   3.846 -1.5566  0.9065  2.2108
  641MOL0     H86525  10.392  10.874   3.875 -2.3922  1.2947  2.7025
  641MOL0     H86526  10.228  10.825   3.915 -1.3452 -1.7966 -0.8856
  641MOL0     H86527  10.201  10.788   3.666  0.8952 -0.4062  0.5863
  641MOL0     H86528  10.365  10.850   3.642  0.1640  0.0542 -0.6395
  641MOL0     H86529  10.297  11.076   3.729 -0.2842 -0.4308  0.8876
  641MOL0     H86530  10.201  11.037   3.596  1.0045  0.5038 -0.2176
  641MOL0     H86531   9.887  11.038   3.884  2.8835  1.8908  3.8131
  641MOL0     H86532  10.606  10.775   3.869  1.8914  1.0804  0.0739
  641MOL0     H86533  10.824  10.830   3.978  0.0614  0.3543 -0.2402
  641MOL0     H86534  10.885  10.696   4.082 -0.6554 -0.1636 -0.5618
  641MOL0     H86535  10.957  10.737   3.926 -0.5671  2.2363 -0.4363
  642MOL0     O86536  10.558  10.347   0.021  0.1008 -0.0934 -1.0017
  642MOL0     C86537  10.560  10.297   0.135 -0.1135 -0.7526  0.2126
  642MOL0     O86538  10.595  10.376   0.245  0.9387  0.5827  0.2494
  642MOL0     C86539  10.615  10.509   0.245 -0.2691 -0.0459  0.0805
  642MOL0     C86540  10.692  10.567   0.154  0.3741 -1.0980 -0.2957
  642MOL0     C86541  10.712  10.705   0.146  0.8614 -0.0993 -0.1843
  642MOL0     C86542  10.650  10.788   0.236  0.5845  0.4450 -0.6518
  642MOL0     O86543  10.678  10.919   0.228  0.0558 -0.5436  0.2134
  642MOL0     C86544  10.744  10.983   0.345 -0.9278  0.2430  0.4918
  642MOL0     C86545  10.900  11.014   0.332  0.7816 -0.8806  0.5906
  642MOL0     C86546  10.928  11.097   0.207  0.2994 -0.7051 -0.6929
  642MOL0     C86547  11.078  11.103   0.197 -0.3971 -1.3293 -0.8416
  642MOL0     C86548  11.112  11.159   0.055  0.3132 -0.1065 -0.1160
  642MOL0     C86549  11.255  11.145   0.039  0.1484 -0.2570 -0.1326
  642MOL0     C86550  11.321  11.142  -0.102 -0.0380  0.5253 -0.9778
  642MOL0     C86551  11.333  11.276  -0.170  0.4916 -1.1387  0.2858
  642MOL0     N86552  11.200  11.332  -0.198  0.5884 -0.0435  0.4036
  642MOL0     C86553  11.120  11.293  -0.300 -0.2833  0.1247  1.2988
  642MOL0     C86554  10.999  11.351  -0.283 -1.1968  0.7295  0.7080
  642MOL0     C86555  10.895  11.358  -0.386 -0.3597 -0.3773 -0.5457
  642MOL0     C86556  10.767  11.405  -0.308 -0.3019 -0.5354  0.5031
  642MOL0     C86557  10.644  11.411  -0.398 -1.1862  0.1260 -0.6728
  642MOL0     C86558  10.536  11.482  -0.314 -1.1257  0.0262  0.2604
  642MOL0     O86559  10.421  11.497  -0.389  0.1244 -0.3297 -0.3016
  642MOL0     C86560  10.319  11.543  -0.318 -0.4255 -0.7019  0.6218
  642MOL0     C86561  10.197  11.528  -0.391  0.1672  0.6488  0.4937
  642MOL0     C86562  10.077  11.551  -0.330 -0.2782  1.0035 -0.3955
  642MOL0     C86563  10.071  11.624  -0.210 -0.7209  0.3616 -0.0138
  642MOL0     C86564   9.938  11.679  -0.166  0.2330 -0.1892 -0.6533
  642MOL0     O86565   9.829  11.645  -0.242 -0.0030  0.3543 -0.2040
  642MOL0     C86566   9.706  11.709  -0.242  0.3092 -0.3859  0.0079
  642MOL0     C86567   9.704  11.841  -0.211 -0.0673 -0.2677 -0.1571
  642MOL0     C86568   9.582  11.913  -0.199 -0.6800 -0.2387  0.3040
  642MOL0     C86569   9.467  11.838  -0.229  0.5824 -0.3977 -0.1252
  642MOL0     O86570   9.353  11.916  -0.216  0.5452  0.4168 -0.2308
  642MOL0     C86571   9.293  11.948  -0.338 -0.1790  0.0868 -0.5947
  642MOL0     C86572   9.201  12.070  -0.309  0.0832  0.2503  0.6327
  642MOL0     C86573   9.082  12.034  -0.235 -0.0764 -0.3358 -0.0902
  642MOL0     C86574   8.987  12.143  -0.208 -0.4016 -0.5896 -0.5969
  642MOL0     C86575   8.857  12.104  -0.132 -0.3641  0.8073 -0.1063
  642MOL0     C86576   8.763  12.031  -0.238  0.1076  0.3415 -0.6938
  642MOL0     C86577   8.637  12.016  -0.146  0.7608  0.5409 -0.2471
  642MOL0     C86578   8.509  11.962  -0.212  0.7901  0.2288 -0.9808
  642MOL0    Cl86579   8.482  12.073  -0.356  0.0394 -0.2521  0.1487
  642MOL0     C86580   9.478  11.699  -0.268  0.7817  0.3063 -0.8740
  642MOL0     C86581   9.598  11.637  -0.274 -0.4222  0.2309 -0.0909
  642MOL0     O86582   9.935  11.736  -0.054  0.0543  0.4802 -0.0367
  642MOL0     C86583  10.186  11.647  -0.139  0.8560  0.6224 -1.0982
  642MOL0     C86584  10.315  11.605  -0.191 -0.0867 -0.8149  0.6742
  642MOL0     N86585  11.013  11.426  -0.168 -0.0999  0.0520 -0.0354
  642MOL0     N86586  11.133  11.426  -0.129 -0.2244 -0.3300  0.0078
  642MOL0     C86587  10.558  10.732   0.326  0.8322 -0.1997 -0.0708
  642MOL0     C86588  10.540  10.593   0.332  0.5068 -0.0481 -0.2705
  642MOL0     C86589  10.557  10.148   0.146  0.2031 -1.2152  0.2101
  642MOL0     C86590  10.574  10.073   0.024  0.0225  0.0187 -0.7965
  642MOL0     C86591  10.592   9.938   0.017  0.3526  0.9245  0.5790
  642MOL0     C86592  10.584   9.870   0.141  0.0991  0.2677  0.7898
  642MOL0     O86593  10.599   9.736   0.122 -0.2805 -0.1434  0.4262
  642MOL0     C86594  10.534   9.665   0.236  0.0885 -0.2792  0.4864
  642MOL0     C86595  10.492   9.538   0.169 -0.2885 -0.7263 -0.1322
  642MOL0     C86596  10.598   9.432   0.133 -0.1595 -0.3457  0.3228
  642MOL0     C86597  10.667   9.364   0.243  0.6018 -0.0048  0.2529
  642MOL0     C86598  10.688   9.220   0.215 -0.2917 -0.5153  0.3202
  642MOL0     C86599  10.696   9.112   0.164 -0.0625  1.0901  0.5760
  642MOL0     C86600  10.568   9.945   0.261  0.2043 -0.3883 -0.4380
  642MOL0     C86601  10.544  10.078   0.263 -0.4633 -0.4538 -0.0489
  642MOL0     C86602  10.510  10.145   0.397 -0.5336  0.3111  0.4830
  642MOL0     H86603  10.744  10.508   0.079 -0.9969 -0.8770 -1.4612
  642MOL0     H86604  10.780  10.749   0.074 -0.5110  1.0967 -0.7892
  642MOL0     H86605  10.704  11.083   0.366  1.1763  1.0951  0.6523
  642MOL0     H86606  10.719  10.927   0.436  0.8939 -0.3184  0.6764
  642MOL0     H86607  10.959  10.922   0.325  0.3707 -1.1933  1.2187
  642MOL0     H86608  10.936  11.075   0.415  0.2295  2.0084 -1.1309
  642MOL0     H86609  10.877  11.193   0.202  0.7981 -0.3602  0.4926
  642MOL0     H86610  10.896  11.039   0.119 -2.9144  0.8485 -0.6877
  642MOL0     H86611  11.111  11.174   0.273  0.4819 -3.6431  1.0811
  642MOL0     H86612  11.139  11.016   0.224  0.3318 -1.4978 -2.8635
  642MOL0     H86613  11.063  11.111  -0.030  0.8673  0.9923 -1.0919
  642MOL0     H86614  11.087  11.266   0.049  0.0173 -0.2743 -3.0586
  642MOL0     H86615  11.305  11.218   0.104  2.9241 -3.0744  1.1789
  642MOL0     H86616  11.285  11.047   0.077  1.3832  0.2570  0.2679
  642MOL0     H86617  11.268  11.071  -0.167  0.9150 -3.1562  1.8988
  642MOL0     H86618  11.418  11.091  -0.104  0.1610  0.8864 -0.6687
  642MOL0     H86619  11.381  11.342  -0.097 -2.8700 -0.1594  1.8009
  642MOL0     H86620  11.402  11.268  -0.255  0.6792  1.0680  0.1631
  642MOL0     H86621  11.148  11.225  -0.380 -4.2205 -1.3163  0.8792
  642MOL0     H86622  10.917  11.428  -0.468 -0.1722 -0.2249 -0.3645
  642MOL0     H86623  10.876  11.256  -0.420  2.5273 -2.1700  2.6189
  642MOL0     H86624  10.747  11.339  -0.223 -0.7092 -0.5856  0.3703
  642MOL0     H86625  10.784  11.509  -0.277  0.7933 -0.0149 -1.6734
  642MOL0     H86626  10.597  11.313  -0.414  1.2650 -1.5838  1.6549
  642MOL0     H86627  10.668  11.472  -0.485  1.6125 -2.5423 -1.9448
  642MOL0     H86628  10.579  11.579  -0.287  0.1091 -1.0484  2.5093
  642MOL0     H86629  10.515  11.430  -0.220 -2.7634 -5.4131 -2.6765
  642MOL0     H86630  10.196  11.502  -0.496 -4.5141  2.2656 -0.0665
  642MOL0     H86631   9.995  11.537  -0.399  0.9469  2.4262 -2.2463
  642MOL0     H86632   9.797  11.896  -0.196 -1.0112  0.8843  1.9029
  642MOL0     H86633   9.574  12.018  -0.173 -0.7909  0.0093 -0.6751
  642MOL0     H86634   9.371  11.965  -0.412  0.1179  2.1829  0.1397
  642MOL0     H86635   9.228  11.864  -0.365 -0.7907  0.6963 -1.0097
  642MOL0     H86636   9.251  12.148  -0.251 -1.4592 -0.8287  3.6068
  642MOL0     H86637   9.175  12.107  -0.409  1.9896 -0.8188 -0.3144
  642MOL0     H86638   9.033  11.953  -0.288 -0.4641 -1.3752  1.7456
  642MOL0     H86639   9.115  11.991  -0.139 -1.3571 -2.2807 -0.4733
  642MOL0     H86640   8.968  12.192  -0.304  3.3405  0.7696 -0.8143
  642MOL0     H86641   9.031  12.222  -0.146 -3.8441  1.1063 -0.0060
  642MOL0     H86642   8.804  12.187  -0.084  2.0557  2.6413 -0.3957
  642MOL0     H86643   8.891  12.023  -0.068  0.2847 -0.0820 -1.5164
  642MOL0     H86644   8.745  12.100  -0.322  2.3549 -2.1275 -3.3994
  642MOL0     H86645   8.793  11.933  -0.276  2.6983 -0.0600  2.0439
  642MOL0     H86646   8.603  12.114  -0.114 -1.6345 -1.5574  4.6198
  642MOL0     H86647   8.658  11.957  -0.056 -0.1255  0.0391 -0.3575
  642MOL0     H86648   8.510  11.862  -0.258 -1.6685  0.3497 -1.4160
  642MOL0     H86649   8.422  11.977  -0.148 -0.7436 -0.8920 -2.7037
  642MOL0     H86650   9.387  11.649  -0.300  1.4399 -0.8252 -1.0178
  642MOL0     H86651   9.600  11.532  -0.301 -0.4008 -0.1024  1.1215
  642MOL0     H86652  10.180  11.709  -0.050 -1.3421  1.8174 -1.9994
  642MOL0     H86653  10.395  11.626  -0.121  1.3122 -1.9258 -0.5233
  642MOL0     H86654  10.506  10.801   0.391 -0.4977  1.9255 -3.1367
  642MOL0     H86655  10.467  10.551   0.401 -2.3319  0.4026 -2.8183
  642MOL0     H86656  10.603  10.128  -0.065 -0.3485 -0.6560 -1.3503
  642MOL0     H86657  10.609   9.882  -0.074 -0.2489  2.1370 -0.2960
  642MOL0     H86658  10.445   9.715   0.275 -0.3345  0.3637 -1.2030
  642MOL0     H86659  10.609   9.663   0.316  1.4078  0.0041 -0.7004
  642MOL0     H86660  10.439   9.562   0.076 -1.5721 -0.8722  0.5439
  642MOL0     H86661  10.431   9.496   0.249  1.6082  1.4363  2.6989
  642MOL0     H86662  10.676   9.470   0.067  0.1561 -3.1600 -1.0432
  642MOL0     H86663  10.542   9.355   0.079  0.9211 -1.1837  0.3681
  642MOL0     H86664  10.762   9.414   0.265  0.3383 -0.2730  2.1977
  642MOL0     H86665  10.617   9.363   0.340  1.5180 -2.1252  0.7612
  642MOL0     H86666  10.724   9.011   0.144  1.0290  1.4318  0.2718
  642MOL0     H86667  10.566   9.899   0.360  0.6625  1.7092  0.6049
  642MOL0     H86668  10.427  10.212   0.373 -1.2453  0.4408  3.0232
  642MOL0     H86669  10.471  10.069   0.465  0.0777 -0.8620 -0.4352
  642MOL0     H86670  10.594  10.200   0.438  0.2847  0.3195 -1.1187
  643MOL0     O86671   0.112   8.497   1.843  0.2219  0.6885  0.4460
  643MOL0     C86672   0.038   8.565   1.903 -0.5650 -0.2280 -0.3929
  643MOL0     O86673   0.018   8.555   2.036  0.5301 -0.5609 -0.4012
  643MOL0     C86674   0.083   8.468   2.113 -0.2284 -0.3593  0.5105
  643MOL0     C86675   0.093   8.333   2.088 -0.0525  0.3009 -0.3332
  643MOL0     C86676   0.162   8.251   2.185 -0.3344 -0.2623 -0.5993
  643MOL0     C86677   0.219   8.309   2.300 -0.3429 -0.0827  0.0964
  643MOL0     O86678   0.293   8.241   2.389 -0.5438 -0.4753  0.0152
  643MOL0     C86679   0.384   8.128   2.353 -0.3169 -0.3173 -0.1285
  643MOL0     C86680   0.520   8.163   2.423 -0.0589  0.5189 -0.0098
  643MOL0     C86681   0.596   8.296   2.390 -0.2103 -0.4192  0.8038
  643MOL0     C86682   0.739   8.308   2.460 -0.0253 -0.3818 -0.7516
  643MOL0     C86683   0.787   8.458   2.453 -0.4431 -0.2418  0.1956
  643MOL0     C86684   0.788   8.542   2.321  0.3128  0.8558 -0.2227
  643MOL0     C86685   0.854   8.482   2.193 -0.3745  0.0892 -0.5804
  643MOL0     C86686   1.001   8.441   2.231  0.0102 -0.0412  0.2845
  643MOL0     N86687   1.086   8.554   2.277 -0.1949  0.7264  0.6259
  643MOL0     C86688   1.189   8.533   2.365 -0.2928  0.1712 -0.2016
  643MOL0     C86689   1.263   8.638   2.370  0.8955  0.2318  0.1894
  643MOL0     C86690   1.407   8.631   2.408  0.2085 -0.2074 -0.2752
  643MOL0     C86691   1.492   8.599   2.290 -0.8482  0.2533  0.5158
  643MOL0     C86692   1.637   8.655   2.313  0.3624 -0.3239 -0.0377
  643MOL0     C86693   1.739   8.588   2.212  0.9101  0.0262 -0.3211
  643MOL0     O86694   1.861   8.660   2.227  1.4890 -0.6860  0.1581
  643MOL0     C86695   1.974   8.614   2.170 -0.5321 -0.2890  0.9874
  643MOL0     C86696   2.084   8.698   2.191  0.0779  0.1589  0.2119
  643MOL0     C86697   2.208   8.658   2.154  0.5927 -0.0387 -0.2468
  643MOL0     C86698   2.223   8.531   2.081 -1.3243 -0.6010 -0.0171
  643MOL0     C86699   2.356   8.479   2.037  1.7533 -0.8534  1.3517
  643MOL0     O86700   2.353   8.363   1.967  0.1780  0.2334  0.1135
  643MOL0     C86701   2.472   8.315   1.917 -0.0513 -0.1094  0.3484
  643MOL0     C86702   2.483   8.284   1.777  0.0335  0.4232 -0.0993
  643MOL0     C86703   2.608   8.256   1.717  0.0447  0.0959 -0.0171
  643MOL0     C86704   2.716   8.239   1.801 -0.2601 -0.4953 -0.6053
  643MOL0     O86705   2.848   8.223   1.757 -0.3171 -0.2490 -0.0620
  643MOL0     C86706   2.880   8.084   1.755  0.0271  0.4006  0.1269
  643MOL0     C86707   3.033   8.080   1.726  0.3241 -0.2576  0.5254
  643MOL0     C86708   3.115   8.123   1.847 -0.1293  0.0806 -0.1321
  643MOL0     C86709   3.262   8.112   1.823  0.3163 -0.5014  0.3493
  643MOL0     C86710   3.345   8.191   1.926  1.0267 -0.1099  0.0084
  643MOL0     C86711   3.375   8.341   1.898 -0.3535 -0.0217  0.2373
  643MOL0     C86712   3.470   8.394   1.998 -0.2239 -0.5353  0.5533
  643MOL0     C86713   3.501   8.548   1.967 -0.8050 -0.1608 -0.3222
  643MOL0    Cl86714   3.358   8.652   1.989  0.1898 -0.2741  0.1244
  643MOL0     C86715   2.696   8.253   1.939 -0.0795  0.3151  0.4843
  643MOL0     C86716   2.578   8.287   1.999  0.5572  0.4891  0.4385
  643MOL0     O86717   2.451   8.558   2.049 -0.3388  0.7319  0.0158
  643MOL0     C86718   2.109   8.449   2.059  0.7649  0.1057  0.3403
  643MOL0     C86719   1.991   8.491   2.108  0.1393  0.1733 -0.3777
  643MOL0     N86720   1.191   8.737   2.307 -0.0894  0.8491  0.3519
  643MOL0     N86721   1.090   8.679   2.242  0.1015 -0.0810  0.1784
  643MOL0     C86722   0.194   8.446   2.318  0.2765 -0.1835  0.1330
  643MOL0     C86723   0.132   8.519   2.229  0.4898  0.8569 -0.0647
  643MOL0     C86724  -0.053   8.662   1.832  0.5537  0.5909  0.4711
  643MOL0     C86725  -0.132   8.749   1.911 -0.4066  0.9343 -0.1470
  643MOL0     C86726  -0.213   8.838   1.858 -1.5271 -0.4721 -0.1305
  643MOL0     C86727  -0.205   8.869   1.724  0.7277  0.0523 -0.1406
  643MOL0     O86728  -0.268   8.971   1.654  0.3795 -0.0347  0.0575
  643MOL0     C86729  -0.318   9.081   1.735  0.4380  0.0739 -0.7374
  643MOL0     C86730  -0.469   9.046   1.774 -1.1086 -0.1819  0.4250
  643MOL0     C86731  -0.522   9.161   1.870  0.5354  0.4928  0.8639
  643MOL0     C86732  -0.615   9.100   1.971 -0.8315  0.3809  0.5905
  643MOL0     C86733  -0.749   9.067   1.923  0.8226  0.0772 -0.1357
  643MOL0     C86734  -0.860   9.050   1.879 -0.0742  0.4366  0.9546
  643MOL0     C86735  -0.129   8.787   1.645 -1.0746  0.7976  0.0138
  643MOL0     C86736  -0.056   8.677   1.690 -1.1089  0.1360  0.3167
  643MOL0     C86737   0.014   8.589   1.587 -0.6434 -0.1012  0.4342
  643MOL0     H86738   0.039   8.290   2.004 -1.9746  2.2287 -0.1550
  643MOL0     H86739   0.156   8.143   2.175  1.4897 -0.8328  3.0510
  643MOL0     H86740   0.348   8.031   2.388  0.6456  0.1565  2.4332
  643MOL0     H86741   0.409   8.137   2.247  0.9010  0.8700  0.2216
  643MOL0     H86742   0.588   8.080   2.404 -0.7711  0.2648 -1.5575
  643MOL0     H86743   0.492   8.169   2.528  0.4153  2.0614  0.0509
  643MOL0     H86744   0.537   8.382   2.422 -3.2355 -1.2723 -1.9147
  643MOL0     H86745   0.604   8.312   2.282 -2.3762 -1.1138  0.4962
  643MOL0     H86746   0.728   8.287   2.566  0.0049  0.1428 -0.6392
  643MOL0     H86747   0.815   8.243   2.417  0.6464  0.2112 -0.4717
  643MOL0     H86748   0.732   8.522   2.522  3.1441  1.7948  1.4562
  643MOL0     H86749   0.887   8.451   2.498  0.4180  0.8924 -1.4172
  643MOL0     H86750   0.686   8.563   2.286 -0.6605 -2.6677  0.1525
  643MOL0     H86751   0.843   8.634   2.344  2.5317 -0.3719 -0.3861
  643MOL0     H86752   0.846   8.559   2.116 -4.0249 -0.2424 -0.7086
  643MOL0     H86753   0.798   8.393   2.162 -0.2908 -0.1762  0.0173
  643MOL0     H86754   1.002   8.364   2.309  2.1536 -1.4028 -0.9687
  643MOL0     H86755   1.047   8.397   2.142  1.0219 -0.4121  0.9672
  643MOL0     H86756   1.233   8.440   2.400  0.6196  0.5595 -0.2840
  643MOL0     H86757   1.440   8.724   2.455 -0.8560  0.0395  0.0165
  643MOL0     H86758   1.421   8.554   2.484  1.7736  1.5023  1.2554
  643MOL0     H86759   1.488   8.490   2.290 -2.1135  0.2481  2.7120
  643MOL0     H86760   1.451   8.642   2.198 -2.2190 -2.6047 -0.3078
  643MOL0     H86761   1.660   8.641   2.419 -2.7491 -0.7882  0.6912
  643MOL0     H86762   1.642   8.759   2.282 -0.2057  0.2761  1.7629
  643MOL0     H86763   1.705   8.584   2.108  0.1757 -3.8417 -0.1062
  643MOL0     H86764   1.753   8.485   2.248  0.7999 -0.0715 -0.5564
  643MOL0     H86765   2.065   8.795   2.237 -0.2419  0.9690 -1.5496
  643MOL0     H86766   2.291   8.726   2.170  0.2997 -0.2474  2.7324
  643MOL0     H86767   2.389   8.297   1.725  0.4905  1.9934 -0.6098
  643MOL0     H86768   2.634   8.255   1.612 -0.1725  1.1873 -0.0921
  643MOL0     H86769   2.863   8.040   1.854 -0.8388 -1.0495 -0.6379
  643MOL0     H86770   2.822   8.029   1.680 -1.1649 -0.7562  1.8389
  643MOL0     H86771   3.059   7.977   1.700 -0.6663 -0.3411 -0.2263
  643MOL0     H86772   3.051   8.152   1.646  0.3140  3.1806  3.3497
  643MOL0     H86773   3.098   8.227   1.878  0.9339  0.8797 -2.0810
  643MOL0     H86774   3.073   8.068   1.932 -3.2783  1.9508 -0.3300
  643MOL0     H86775   3.298   8.158   1.731  0.3866  1.7635  1.4364
  643MOL0     H86776   3.293   8.007   1.825 -1.0293 -0.9278  1.9568
  643MOL0     H86777   3.441   8.142   1.947  1.4978  1.4147  1.5428
  643MOL0     H86778   3.282   8.193   2.016 -3.0815 -1.2696 -2.5317
  643MOL0     H86779   3.411   8.343   1.794 -0.2484  1.9197  0.2703
  643MOL0     H86780   3.274   8.382   1.908 -1.4794 -3.0859  3.1516
  643MOL0     H86781   3.562   8.335   1.999  0.5482  0.6426  2.1466
  643MOL0     H86782   3.419   8.385   2.095 -1.0572  2.6001  0.5014
  643MOL0     H86783   3.586   8.579   2.028 -1.7333 -3.1539  2.8073
  643MOL0     H86784   3.543   8.567   1.868 -1.3598  0.6833 -0.4088
  643MOL0     H86785   2.783   8.218   1.993 -0.4219 -3.1491 -0.8909
  643MOL0     H86786   2.563   8.296   2.106  2.9634  1.3562  0.7536
  643MOL0     H86787   2.112   8.361   1.996  0.4076  1.0128 -0.9879
  643MOL0     H86788   1.900   8.436   2.088  0.1327  0.5041 -1.3125
  643MOL0     H86789   0.241   8.494   2.403  0.8887  0.5026 -0.5749
  643MOL0     H86790   0.128   8.625   2.252 -1.3537  0.4047  2.2124
  643MOL0     H86791  -0.142   8.736   2.018 -1.8335  1.0223 -0.2444
  643MOL0     H86792  -0.269   8.900   1.928 -2.0783  0.4674 -1.3753
  643MOL0     H86793  -0.316   9.182   1.693  2.1889  0.7061  0.7304
  643MOL0     H86794  -0.252   9.098   1.820  0.7805  1.6916 -1.3025
  643MOL0     H86795  -0.482   8.946   1.816 -0.1933  0.3798  2.1422
  643MOL0     H86796  -0.529   9.051   1.683  1.2368 -0.3779 -1.2261
  643MOL0     H86797  -0.576   9.236   1.812  0.1679 -2.2265 -2.6424
  643MOL0     H86798  -0.443   9.207   1.931  0.4497 -0.7203  1.9308
  643MOL0     H86799  -0.562   9.020   2.025  0.2206  1.0614  0.5945
  643MOL0     H86800  -0.627   9.176   2.048 -0.8138  1.1853 -0.1867
  643MOL0     H86801  -0.963   9.037   1.852  0.1226 -0.9857  0.7679
  643MOL0     H86802  -0.119   8.822   1.543  0.2257 -1.8065 -0.8488
  643MOL0     H86803   0.118   8.620   1.574 -0.4316 -0.3714  1.4471
  643MOL0     H86804   0.007   8.486   1.621 -0.7142  0.6862  2.9852
  643MOL0     H86805  -0.023   8.598   1.484  1.8468 -2.3181 -0.7863
  644MOL0     O86806   9.641   7.140   6.194  0.4449  0.8463  0.1508
  644MOL0     C86807   9.665   7.017   6.200 -1.2403  0.6939 -1.1011
  644MOL0     O86808   9.670   6.944   6.322  1.0823  0.4796  0.0348
  644MOL0     C86809   9.674   7.015   6.441  1.5341 -0.6921 -1.0113
  644MOL0     C86810   9.558   7.038   6.519 -0.5380  0.3505  0.2418
  644MOL0     C86811   9.567   7.105   6.646 -0.7347 -0.2431  0.6863
  644MOL0     C86812   9.690   7.161   6.685 -0.3873 -0.4849 -0.3957
  644MOL0     O86813   9.689   7.238   6.805  0.4726 -0.1864  0.3271
  644MOL0     C86814   9.794   7.224   6.895  0.0284  0.0821 -0.4567
  644MOL0     C86815   9.759   7.295   7.024  0.2458 -0.6701 -0.4993
  644MOL0     C86816   9.817   7.440   7.031 -0.0225 -0.3550  0.0105
  644MOL0     C86817   9.758   7.541   6.926  0.5173 -1.0594  0.3900
  644MOL0     C86818   9.836   7.671   6.914  0.1688  0.7336  0.8118
  644MOL0     C86819   9.800   7.765   6.790  0.0676  0.2357  0.4278
  644MOL0     C86820   9.875   7.903   6.769 -0.4636  0.0537 -0.7911
  644MOL0     C86821  10.028   7.891   6.774 -0.1367  0.4125 -0.0503
  644MOL0     N86822  10.113   8.004   6.777 -0.4083 -0.0454 -0.0063
  644MOL0     C86823  10.165   8.081   6.673  0.5411 -0.2491  0.5980
  644MOL0     C86824  10.259   8.151   6.739  0.0522 -0.4010 -0.0134
  644MOL0     C86825  10.345   8.263   6.685  0.0667  0.6120 -0.2713
  644MOL0     C86826  10.466   8.297   6.773  0.1762  0.0634  0.2759
  644MOL0     C86827  10.575   8.194   6.748 -0.0771  0.6791 -0.3930
  644MOL0     C86828  10.641   8.150   6.880  0.5848  0.5395 -0.8013
  644MOL0     O86829  10.712   8.264   6.930 -0.1722  0.8368  0.7479
  644MOL0     C86830  10.794   8.243   7.033 -0.3848  1.0351  0.4260
  644MOL0     C86831  10.897   8.341   7.044 -0.6997  0.5210  0.3146
  644MOL0     C86832  10.987   8.343   7.150 -0.7289  0.4915 -0.0454
  644MOL0     C86833  10.981   8.244   7.253 -0.4621  0.6060  0.2105
  644MOL0     C86834  11.081   8.265   7.358 -0.0530  0.6391 -0.2704
  644MOL0     O86835  11.164   8.380   7.357  0.3516  0.5531 -0.6194
  644MOL0     C86836  11.284   8.390   7.423 -0.6161  1.4065  0.2772
  644MOL0     C86837  11.370   8.282   7.461  0.8822  0.7814 -1.3116
  644MOL0     C86838  11.502   8.289   7.512  0.8038  0.7016  0.1369
  644MOL0     C86839  11.551   8.417   7.516  1.5160 -0.5658 -0.1171
  644MOL0     O86840  11.666   8.437   7.575 -0.0078 -0.2123 -0.8314
  644MOL0     C86841  11.716   8.567   7.608 -0.2218 -0.2927  0.1829
  644MOL0     C86842  11.839   8.552   7.687 -0.2757 -0.2942 -1.0602
  644MOL0     C86843  11.944   8.657   7.639  0.0461  1.0018  0.6619
  644MOL0     C86844  12.085   8.615   7.682  0.4933  0.3813  0.7339
  644MOL0     C86845  12.181   8.706   7.603  0.2468 -0.4474  0.5777
  644MOL0     C86846  12.326   8.698   7.655 -0.4426  0.8519 -0.1671
  644MOL0     C86847  12.413   8.798   7.580 -0.2035  0.4222  0.7344
  644MOL0     C86848  12.559   8.771   7.599 -0.5594  0.8856 -0.3081
  644MOL0    Cl86849  12.674   8.842   7.478  0.0578 -0.0499 -0.1495
  644MOL0     C86850  11.475   8.533   7.465  0.0821 -0.7539 -0.4247
  644MOL0     C86851  11.345   8.514   7.428  0.6436 -0.4156  1.0930
  644MOL0     O86852  11.078   8.179   7.448 -0.5681  0.2725  0.7545
  644MOL0     C86853  10.882   8.143   7.238 -0.3478  0.9591 -0.3305
  644MOL0     C86854  10.790   8.144   7.140  0.1817 -0.9091  0.0486
  644MOL0     N86855  10.266   8.116   6.869  0.6613  1.0755  0.0685
  644MOL0     N86856  10.178   8.032   6.895 -0.3717 -0.1181  0.4684
  644MOL0     C86857   9.799   7.148   6.607  0.1131 -0.1913  0.0430
  644MOL0     C86858   9.790   7.059   6.497 -0.6363 -0.6470  0.3414
  644MOL0     C86859   9.700   6.926   6.080  0.1066  0.3242  0.6438
  644MOL0     C86860   9.604   6.903   5.975  0.1845  0.7419 -0.3032
  644MOL0     C86861   9.639   6.833   5.862  1.3765  1.1689 -0.5673
  644MOL0     C86862   9.760   6.762   5.857 -0.9032  0.0595 -0.2545
  644MOL0     O86863   9.769   6.683   5.745  0.4189 -0.7949 -0.5579
  644MOL0     C86864   9.853   6.756   5.655 -0.3824  0.3336 -0.0851
  644MOL0     C86865   9.852   6.712   5.514 -0.7470 -0.7332  0.1706
  644MOL0     C86866   9.703   6.718   5.458 -0.4051 -0.6570  0.9587
  644MOL0     C86867   9.669   6.854   5.404  0.5385 -0.5881  0.4838
  644MOL0     C86868   9.528   6.874   5.364  0.9401  1.7272 -0.1862
  644MOL0     C86869   9.407   6.914   5.334 -0.2666  0.2158 -0.9764
  644MOL0     C86870   9.856   6.776   5.960 -0.3646 -0.3119  0.0051
  644MOL0     C86871   9.825   6.864   6.069 -0.8434  0.6561  0.5976
  644MOL0     C86872   9.939   6.874   6.160 -0.1566 -0.8351 -0.1269
  644MOL0     H86873   9.460   7.003   6.487  0.3034 -0.6296 -1.4013
  644MOL0     H86874   9.478   7.126   6.705 -2.6014  2.1477 -2.5768
  644MOL0     H86875   9.811   7.121   6.928 -0.4475  1.0568  3.2350
  644MOL0     H86876   9.886   7.265   6.852  0.0790  1.0420  0.5287
  644MOL0     H86877   9.798   7.232   7.104  0.0547  0.4763  0.5308
  644MOL0     H86878   9.651   7.300   7.038  0.4025  0.1326  0.5810
  644MOL0     H86879   9.925   7.423   7.022 -0.1795 -1.0550 -0.7248
  644MOL0     H86880   9.803   7.488   7.128  0.1610  1.3535 -0.7690
  644MOL0     H86881   9.752   7.496   6.826  0.7073 -0.8725  0.2939
  644MOL0     H86882   9.657   7.566   6.959  0.1112  0.9049 -2.0659
  644MOL0     H86883   9.813   7.733   7.002  2.1322  4.4324 -1.0562
  644MOL0     H86884   9.941   7.640   6.917 -0.4406 -1.8246 -0.9409
  644MOL0     H86885   9.802   7.713   6.694 -1.7853 -0.4731  0.7428
  644MOL0     H86886   9.701   7.796   6.824  1.5251  3.4483  2.2987
  644MOL0     H86887   9.844   7.974   6.846 -1.4193  0.4872 -1.5617
  644MOL0     H86888   9.836   7.937   6.673 -5.5037  0.2558  1.0371
  644MOL0     H86889  10.057   7.830   6.860  0.5822  0.3473 -0.3307
  644MOL0     H86890  10.051   7.826   6.689 -0.9115  1.1540 -0.8562
  644MOL0     H86891  10.121   8.084   6.574 -2.3519 -1.7813  1.6977
  644MOL0     H86892  10.371   8.237   6.582  0.8292 -1.5661  0.4119
  644MOL0     H86893  10.283   8.352   6.678 -2.2426 -0.6478  2.2919
  644MOL0     H86894  10.507   8.391   6.735 -0.0639 -0.7000 -2.0168
  644MOL0     H86895  10.428   8.314   6.874 -2.7910 -1.7569 -0.4102
  644MOL0     H86896  10.647   8.239   6.679  0.9494  0.6684  0.6472
  644MOL0     H86897  10.536   8.107   6.694 -0.7010  0.0835  0.9756
  644MOL0     H86898  10.705   8.061   6.872  0.9404  0.5764  1.1486
  644MOL0     H86899  10.563   8.135   6.956  1.3164  0.5592 -0.0413
  644MOL0     H86900  10.901   8.414   6.963  0.0153 -0.2350 -0.3474
  644MOL0     H86901  11.062   8.421   7.157 -0.7511  0.3861  2.0465
  644MOL0     H86902  11.334   8.180   7.470  4.9268 -0.7267 -0.0147
  644MOL0     H86903  11.557   8.202   7.545 -0.1874  0.0616  0.1154
  644MOL0     H86904  11.740   8.628   7.520 -1.9353  2.1625  1.2754
  644MOL0     H86905  11.639   8.625   7.661  0.8943  0.4771  1.0227
  644MOL0     H86906  11.834   8.582   7.793 -0.2266  1.3172 -1.4818
  644MOL0     H86907  11.882   8.452   7.681  1.5425  0.5207 -2.8145
  644MOL0     H86908  11.932   8.655   7.531 -3.4477 -0.1476  0.9578
  644MOL0     H86909  11.914   8.755   7.678 -1.8155 -0.2333  2.5313
  644MOL0     H86910  12.112   8.511   7.659 -2.5758 -0.4814  0.4480
  644MOL0     H86911  12.085   8.638   7.789 -0.6179  1.4649  0.5277
  644MOL0     H86912  12.145   8.809   7.612 -4.4006 -1.7103 -0.7398
  644MOL0     H86913  12.188   8.670   7.500 -0.6035  0.6430  0.1202
  644MOL0     H86914  12.340   8.717   7.762 -0.2309  1.6147 -0.3279
  644MOL0     H86915  12.360   8.596   7.636 -0.1996  0.4455  2.1436
  644MOL0     H86916  12.393   8.903   7.605  1.2401  1.2811 -1.4442
  644MOL0     H86917  12.396   8.784   7.473  1.1600  0.8836  0.4360
  644MOL0     H86918  12.568   8.809   7.701 -2.2386 -1.9943  1.0434
  644MOL0     H86919  12.578   8.663   7.607  0.4896  0.9424 -1.6810
  644MOL0     H86920  11.504   8.637   7.479  0.4033 -1.0550  1.4369
  644MOL0     H86921  11.292   8.600   7.387  2.7913 -0.1432 -1.3363
  644MOL0     H86922  10.872   8.070   7.318  1.0435  1.6927  0.5513
  644MOL0     H86923  10.713   8.069   7.151 -0.4164  0.0394  3.4357
  644MOL0     H86924   9.894   7.197   6.626  0.2206 -0.4423  0.1560
  644MOL0     H86925   9.875   7.028   6.437 -1.5393 -0.5145 -1.0738
  644MOL0     H86926   9.499   6.931   5.974 -0.0153  0.1353  1.2951
  644MOL0     H86927   9.572   6.811   5.780  1.2875 -1.7884  0.2075
  644MOL0     H86928   9.959   6.765   5.678 -0.3161  2.2973 -0.9790
  644MOL0     H86929   9.811   6.856   5.641 -1.3808 -0.2424 -1.4288
  644MOL0     H86930   9.876   6.605   5.507 -0.2929 -0.5982 -0.3556
  644MOL0     H86931   9.911   6.784   5.457 -0.8960 -1.3730 -0.8305
  644MOL0     H86932   9.624   6.691   5.530 -0.8029 -0.1244  0.7329
  644MOL0     H86933   9.683   6.654   5.372 -0.5544 -0.1500  0.6095
  644MOL0     H86934   9.708   6.933   5.469  1.2837 -0.2242 -0.3818
  644MOL0     H86935   9.721   6.869   5.309 -0.6674 -1.1025 -0.2662
  644MOL0     H86936   9.313   6.938   5.290 -1.9936 -3.0418  0.5988
  644MOL0     H86937   9.941   6.709   5.958 -0.3578 -0.3122  0.1999
  644MOL0     H86938   9.930   6.964   6.222 -0.3954 -1.7111  1.1656
  644MOL0     H86939   9.942   6.781   6.217  1.7819 -1.4533 -1.1630
  644MOL0     H86940  10.031   6.871   6.102  0.0900  0.5294  0.1462
  645MOL0     O86941   9.857   1.626  10.417 -0.7210 -0.7481  0.1866
  645MOL0     C86942   9.801   1.523  10.460 -0.5242  0.7781 -0.1679
  645MOL0     O86943   9.858   1.412  10.510  0.2254  0.2244 -0.1558
  645MOL0     C86944   9.993   1.388  10.502 -0.9838 -0.0787 -0.3526
  645MOL0     C86945  10.054   1.336  10.619  0.6200 -0.0444  0.3724
  645MOL0     C86946  10.194   1.310  10.622  0.1461 -0.2659 -0.2448
  645MOL0     C86947  10.266   1.326  10.508  0.3247  0.0902  0.0945
  645MOL0     O86948  10.400   1.312  10.524 -0.1580  0.2614 -0.7759
  645MOL0     C86949  10.494   1.326  10.418 -0.0741 -0.4239  0.5490
  645MOL0     C86950  10.627   1.331  10.501  0.3591  0.1721 -0.5901
  645MOL0     C86951  10.732   1.362  10.403  1.3386  0.2188  0.0965
  645MOL0     C86952  10.868   1.359  10.456 -0.1964 -0.1397 -0.7066
  645MOL0     C86953  10.985   1.376  10.355  0.4710  1.1246  0.1731
  645MOL0     C86954  11.130   1.379  10.421 -0.1866 -0.7201 -0.3016
  645MOL0     C86955  11.251   1.389  10.334  0.1328  0.3639 -1.4182
  645MOL0     C86956  11.253   1.527  10.261 -0.2265  0.3357  0.3498
  645MOL0     N86957  11.377   1.559  10.183  0.2052 -0.4390  0.4301
  645MOL0     C86958  11.435   1.474  10.092 -0.3471  0.1302 -0.8330
  645MOL0     C86959  11.539   1.545  10.039  0.3461 -0.2546 -0.8077
  645MOL0     C86960  11.641   1.488   9.936 -0.1275  0.2921  0.0764
  645MOL0     C86961  11.723   1.369   9.988 -0.1679 -0.1833 -0.2581
  645MOL0     C86962  11.826   1.418  10.101  0.5649 -0.3148  0.0057
  645MOL0     C86963  11.898   1.319  10.184  0.0765  0.3113 -0.1267
  645MOL0     O86964  12.006   1.388  10.254  0.2623  0.0432 -0.4300
  645MOL0     C86965  12.126   1.395  10.186 -0.2591  0.8107 -0.6052
  645MOL0     C86966  12.169   1.330  10.060 -0.2239 -0.3313 -0.3501
  645MOL0     C86967  12.290   1.346  10.005 -0.5090 -0.3758 -0.4675
  645MOL0     C86968  12.398   1.418  10.073 -0.4786 -0.2727 -0.1368
  645MOL0     C86969  12.527   1.425  10.021  0.3040  0.5940  0.1107
  645MOL0     O86970  12.540   1.382   9.890 -0.0236 -0.7999 -0.8019
  645MOL0     C86971  12.667   1.402   9.835  0.7293  0.3004  0.1893
  645MOL0     C86972  12.777   1.338   9.890  0.3791 -0.2890  0.7896
  645MOL0     C86973  12.905   1.348   9.840 -0.9901 -0.7866  0.0170
  645MOL0     C86974  12.923   1.420   9.714  0.7889 -0.0976 -0.0904
  645MOL0     O86975  13.042   1.451   9.650 -1.0348 -0.1373 -0.5252
  645MOL0     C86976  13.157   1.387   9.712 -0.3100 -0.4854  0.8939
  645MOL0     C86977  13.271   1.408   9.617  0.2815  0.5323  0.5199
  645MOL0     C86978  13.352   1.534   9.638  0.2510  0.0106 -0.8602
  645MOL0     C86979  13.470   1.555   9.539 -0.0463 -1.3388 -0.3474
  645MOL0     C86980  13.545   1.697   9.551  0.2242  0.2059 -0.6353
  645MOL0     C86981  13.664   1.690   9.452  0.5425  0.0245 -0.0764
  645MOL0     C86982  13.737   1.829   9.452 -0.9410  0.1933  1.1199
  645MOL0     C86983  13.866   1.832   9.367  0.3524  1.0067  0.3670
  645MOL0    Cl86984  13.928   1.993   9.358 -0.2799 -0.0554  0.5704
  645MOL0     C86985  12.811   1.481   9.658  0.4671  0.8645  0.0158
  645MOL0     C86986  12.681   1.471   9.724 -0.3661 -0.4587  0.5132
  645MOL0     O86987  12.615   1.472  10.090  0.7296 -0.1388  0.1671
  645MOL0     C86988  12.361   1.487  10.193 -0.2816  0.1898 -0.1045
  645MOL0     C86989  12.228   1.477  10.243 -1.3562 -1.0345 -1.2157
  645MOL0     N86990  11.541   1.667  10.102 -0.3541  0.3811  0.4359
  645MOL0     N86991  11.445   1.676  10.191 -0.4185  0.1081  0.4881
  645MOL0     C86992  10.201   1.376  10.388 -0.2957 -0.4205 -0.3426
  645MOL0     C86993  10.066   1.412  10.385  0.1588  0.0298 -0.1597
  645MOL0     C86994   9.653   1.539  10.450  1.0391  0.1613  0.1513
  645MOL0     C86995   9.592   1.648  10.382 -0.7534  0.0371  0.3634
  645MOL0     C86996   9.458   1.671  10.370  0.3274  0.7302 -0.4967
  645MOL0     C86997   9.369   1.565  10.402 -1.2990  0.4294 -0.2393
  645MOL0     O86998   9.238   1.571  10.365  0.2908  0.2959 -0.5998
  645MOL0     C86999   9.140   1.489  10.414  0.4663  0.2011 -0.7935
  645MOL0     C87000   9.014   1.548  10.370  0.0342 -0.3112 -1.0769
  645MOL0     C87001   8.996   1.549  10.223 -0.3058  0.1472  0.6797
  645MOL0     C87002   8.854   1.593  10.174  0.2460  0.0243 -0.8120
  645MOL0     C87003   8.742   1.501  10.200  0.2623 -0.2110  0.8610
  645MOL0     C87004   8.644   1.423  10.213  0.2696  0.3939 -0.4604
  645MOL0     C87005   9.416   1.458  10.468 -0.4591  0.6983  0.1984
  645MOL0     C87006   9.556   1.444  10.501  1.5378 -0.2044 -0.1038
  645MOL0     C87007   9.582   1.315  10.582  0.1025  0.0110 -0.0555
  645MOL0     H87008   9.992   1.323  10.707 -0.0670  1.5043  0.1487
  645MOL0     H87009  10.238   1.286  10.718  0.9220 -1.5339 -0.8979
  645MOL0     H87010  10.490   1.237  10.355 -2.6030 -2.0096  2.7384
  645MOL0     H87011  10.482   1.413  10.354  3.2810 -1.0154 -1.1240
  645MOL0     H87012  10.650   1.238  10.553  2.4007  0.4152 -0.9696
  645MOL0     H87013  10.617   1.412  10.574  0.6580 -0.6824  0.4310
  645MOL0     H87014  10.713   1.460  10.360  0.3918 -0.5907 -1.4222
  645MOL0     H87015  10.735   1.285  10.325  1.5047 -0.4609  0.7502
  645MOL0     H87016  10.871   1.432  10.537 -3.4434 -0.0201 -0.5788
  645MOL0     H87017  10.894   1.261  10.498 -1.2195 -0.4427 -0.7631
  645MOL0     H87018  10.978   1.295  10.282 -0.2446 -1.1366  2.6081
  645MOL0     H87019  10.961   1.473  10.310 -1.8662  1.5596  2.1607
  645MOL0     H87020  11.122   1.469  10.483 -2.0040  0.0723 -1.5864
  645MOL0     H87021  11.146   1.293  10.487 -1.4012 -3.3937 -3.1999
  645MOL0     H87022  11.264   1.303  10.268  0.8505  0.4642 -1.4202
  645MOL0     H87023  11.334   1.386  10.405 -0.7871 -0.9769 -0.3439
  645MOL0     H87024  11.178   1.534  10.181  0.1346  1.6971  0.1012
  645MOL0     H87025  11.240   1.603  10.339 -1.6103  1.7309 -1.1583
  645MOL0     H87026  11.415   1.369  10.071 -0.2988 -0.3823  1.4306
  645MOL0     H87027  11.598   1.452   9.842  1.6051 -0.8119 -0.3411
  645MOL0     H87028  11.703   1.574   9.911 -2.7582  2.0939 -0.6642
  645MOL0     H87029  11.659   1.286  10.020  0.5528 -0.9894 -0.8514
  645MOL0     H87030  11.777   1.329   9.902  0.0806  0.3091 -0.3350
  645MOL0     H87031  11.763   1.491  10.153  1.8144  2.2664 -1.8897
  645MOL0     H87032  11.903   1.481  10.057 -0.8777  1.6386  0.1478
  645MOL0     H87033  11.927   1.235  10.120 -0.0949 -0.3886  0.7039
  645MOL0     H87034  11.833   1.265  10.253  0.4689 -2.0500 -1.4839
  645MOL0     H87035  12.094   1.273  10.006  0.2100 -2.0103  0.7384
  645MOL0     H87036  12.310   1.291   9.914  3.7216  1.9433 -1.2542
  645MOL0     H87037  12.763   1.276   9.978 -2.4179  0.6592  1.0936
  645MOL0     H87038  12.980   1.300   9.902  1.5912  1.3720 -1.2033
  645MOL0     H87039  13.194   1.439   9.801  3.4066  0.8069 -1.1995
  645MOL0     H87040  13.154   1.279   9.732 -1.1626 -0.4530  0.9797
  645MOL0     H87041  13.341   1.324   9.628 -0.8543 -0.6937 -1.0887
  645MOL0     H87042  13.241   1.411   9.512  1.2460  2.8574  0.2638
  645MOL0     H87043  13.282   1.617   9.627  0.3159  0.1176 -0.4939
  645MOL0     H87044  13.383   1.563   9.739 -1.2678  2.1613 -0.9272
  645MOL0     H87045  13.437   1.540   9.435 -1.8206  0.3406 -0.0863
  645MOL0     H87046  13.546   1.478   9.554  0.8120 -0.9323 -2.2587
  645MOL0     H87047  13.593   1.713   9.648  2.5669 -0.9489 -1.5183
  645MOL0     H87048  13.476   1.778   9.527 -2.5338 -1.5718  0.6809
  645MOL0     H87049  13.724   1.603   9.480 -0.8384 -0.1723  2.6632
  645MOL0     H87050  13.634   1.664   9.350 -0.8597  0.4433  0.2051
  645MOL0     H87051  13.759   1.854   9.556 -2.6249 -1.0848  1.8313
  645MOL0     H87052  13.656   1.892   9.413 -0.0395  0.2383 -0.7843
  645MOL0     H87053  13.938   1.764   9.413  0.8857  1.9574  0.9787
  645MOL0     H87054  13.840   1.781   9.274 -1.2685 -0.3825  1.5249
  645MOL0     H87055  12.823   1.527   9.561  2.6131 -1.4110 -0.9174
  645MOL0     H87056  12.593   1.512   9.676 -0.8179  1.6477  2.9389
  645MOL0     H87057  12.431   1.556  10.239 -0.5657  0.8667 -0.6659
  645MOL0     H87058  12.198   1.540  10.326  1.0353 -2.0025  0.4935
  645MOL0     H87059  10.250   1.381  10.291 -2.8076 -2.2848 -1.8634
  645MOL0     H87060  10.016   1.437  10.292 -3.5409  0.7331  1.7986
  645MOL0     H87061   9.669   1.718  10.351  1.0736 -2.3314 -0.8786
  645MOL0     H87062   9.421   1.762  10.324 -0.8918 -0.4474 -1.9565
  645MOL0     H87063   9.141   1.472  10.522  2.9814  0.2394 -0.7554
  645MOL0     H87064   9.155   1.391  10.367 -2.0702 -0.9618  0.6195
  645MOL0     H87065   9.004   1.653  10.401  0.3648 -0.4385 -0.5410
  645MOL0     H87066   8.933   1.497  10.422 -0.6321  2.2529  0.5797
  645MOL0     H87067   9.016   1.447  10.188  3.0176  0.1449  2.1730
  645MOL0     H87068   9.066   1.608  10.163 -0.3358 -1.6078 -1.1947
  645MOL0     H87069   8.829   1.683  10.230  3.6125 -0.3579  1.6075
  645MOL0     H87070   8.861   1.625  10.070  4.3791  2.6934  0.0694
  645MOL0     H87071   8.563   1.353  10.218  1.2765 -0.7304  1.1733
  645MOL0     H87072   9.348   1.376  10.491  0.9261 -0.0881  1.7402
  645MOL0     H87073   9.651   1.347  10.660 -0.6164  0.3633  0.4424
  645MOL0     H87074   9.495   1.278  10.637 -0.3526 -0.3594 -0.9877
  645MOL0     H87075   9.621   1.238  10.514 -1.1714 -2.0702  1.4205
  646MOL0     O87076   0.383   3.752   0.874 -0.6512 -0.6323  1.1450
  646MOL0     C87077   0.442   3.677   0.945  0.6461 -0.0495  0.0013
  646MOL0     O87078   0.416   3.645   1.076  0.0945 -0.1365  0.0374
  646MOL0     C87079   0.297   3.684   1.132  0.4836  0.4741 -0.6091
  646MOL0     C87080   0.249   3.817   1.132  0.6702  0.4177  0.4744
  646MOL0     C87081   0.123   3.852   1.189  0.4613  0.2838  0.2123
  646MOL0     C87082   0.055   3.757   1.268  0.4671 -0.3775  0.8319
  646MOL0     O87083  -0.076   3.777   1.318 -0.2618  0.5853  0.3322
  646MOL0     C87084  -0.148   3.901   1.297 -0.3404 -0.2138  0.3695
  646MOL0     C87085  -0.297   3.908   1.346  0.5457 -0.0660  0.0667
  646MOL0     C87086  -0.317   3.899   1.498 -0.2254  0.0418 -0.1458
  646MOL0     C87087  -0.272   3.774   1.562 -0.6746 -0.7878  0.0084
  646MOL0     C87088  -0.323   3.776   1.710  0.1815 -0.1383 -0.9376
  646MOL0     C87089  -0.245   3.869   1.798  0.2063 -0.1903 -0.1228
  646MOL0     C87090  -0.268   3.848   1.950  0.0796 -0.4475  0.8631
  646MOL0     C87091  -0.182   3.928   2.045 -0.2546  0.5835  0.1880
  646MOL0     N87092  -0.261   4.003   2.148 -0.1998  0.3183 -0.7893
  646MOL0     C87093  -0.356   3.952   2.230  0.4249 -0.5315 -0.3159
  646MOL0     C87094  -0.426   4.053   2.275  0.0623  0.4452  0.2762
  646MOL0     C87095  -0.540   4.052   2.374  0.4924 -0.2826  0.2876
  646MOL0     C87096  -0.614   4.180   2.357  0.0305 -0.7530 -0.9121
  646MOL0     C87097  -0.758   4.172   2.417 -0.5628 -0.2675  0.6028
  646MOL0     C87098  -0.808   4.315   2.446 -0.2524  0.4086 -0.7554
  646MOL0     O87099  -0.950   4.315   2.467  0.2498 -0.5127 -0.0934
  646MOL0     C87100  -1.007   4.286   2.584  0.2184  0.1332 -0.5177
  646MOL0     C87101  -0.943   4.294   2.700 -1.2570  0.2943 -0.0403
  646MOL0     C87102  -1.004   4.274   2.819  0.1146 -0.1451  0.5553
  646MOL0     C87103  -1.136   4.240   2.833 -0.1091 -0.5814 -0.0106
  646MOL0     C87104  -1.207   4.212   2.965 -0.0776  0.4834 -0.2311
  646MOL0     O87105  -1.340   4.170   2.950  0.3056 -1.2205 -0.7676
  646MOL0     C87106  -1.424   4.209   3.060 -0.3246  0.6240  0.3229
  646MOL0     C87107  -1.437   4.133   3.176 -1.1252 -0.3877 -0.4228
  646MOL0     C87108  -1.527   4.166   3.283 -0.7665  0.4178 -0.2225
  646MOL0     C87109  -1.602   4.288   3.281  0.0813 -0.0128 -0.1359
  646MOL0     O87110  -1.657   4.353   3.388  0.0224  0.6512 -0.1380
  646MOL0     C87111  -1.681   4.286   3.512 -0.0993  0.0144 -0.0056
  646MOL0     C87112  -1.826   4.231   3.519 -0.3929 -0.0208 -0.2794
  646MOL0     C87113  -1.882   4.247   3.668  0.2869  0.0280  1.2615
  646MOL0     C87114  -2.016   4.184   3.689  0.4566  0.4972 -0.4644
  646MOL0     C87115  -2.002   4.044   3.738  0.2349 -0.3107 -0.6564
  646MOL0     C87116  -2.131   3.973   3.801  0.5032 -0.0555  0.2148
  646MOL0     C87117  -2.244   3.979   3.702  0.3916  0.4003  0.2232
  646MOL0     C87118  -2.373   3.954   3.774  0.0791  0.0543  0.0412
  646MOL0    Cl87119  -2.513   3.990   3.661  0.2405 -0.0384  0.4267
  646MOL0     C87120  -1.596   4.345   3.159  1.0053 -0.3903 -0.4361
  646MOL0     C87121  -1.523   4.311   3.044 -0.6335  0.8362  0.1338
  646MOL0     O87122  -1.138   4.222   3.072  0.5910  0.0133 -0.0681
  646MOL0     C87123  -1.207   4.237   2.711  1.0594 -0.2093  0.5645
  646MOL0     C87124  -1.146   4.270   2.593  0.2603 -0.1662  0.1579
  646MOL0     N87125  -0.353   4.165   2.242  0.2817 -0.3724 -0.2820
  646MOL0     N87126  -0.255   4.139   2.168  0.4085  0.3354 -0.7939
  646MOL0     C87127   0.114   3.633   1.291 -0.4163  0.9800 -0.5335
  646MOL0     C87128   0.229   3.595   1.218 -0.8762  0.3014 -1.2999
  646MOL0     C87129   0.564   3.608   0.903 -1.8652 -0.1389  0.5971
  646MOL0     C87130   0.651   3.549   0.996  1.3166 -0.1140 -0.0579
  646MOL0     C87131   0.773   3.493   0.960  0.0016 -0.6539 -0.3141
  646MOL0     C87132   0.820   3.514   0.826 -0.8132  0.2744 -0.3208
  646MOL0     O87133   0.951   3.477   0.792 -0.0866 -0.0618 -0.5004
  646MOL0     C87134   1.055   3.447   0.888 -0.3854  0.0027 -0.2062
  646MOL0     C87135   1.102   3.568   0.956 -0.0792  0.4724 -0.3260
  646MOL0     C87136   1.141   3.679   0.866  0.7923 -0.0789 -0.1998
  646MOL0     C87137   1.293   3.671   0.826 -0.4783  0.3270  0.0595
  646MOL0     C87138   1.330   3.771   0.721 -0.0776  0.8065  0.4366
  646MOL0     C87139   1.362   3.854   0.636 -0.5303 -0.5488 -0.8638
  646MOL0     C87140   0.734   3.569   0.736  0.3583  0.2610 -0.1322
  646MOL0     C87141   0.604   3.615   0.768 -1.5670 -0.8916 -0.0791
  646MOL0     C87142   0.540   3.660   0.639  0.3478 -0.0256 -0.5101
  646MOL0     H87143   0.314   3.886   1.080  1.2567 -0.5435 -0.0936
  646MOL0     H87144   0.087   3.954   1.186 -1.8429 -0.4730  0.2407
  646MOL0     H87145  -0.093   3.982   1.347  2.0404 -0.6955 -1.2875
  646MOL0     H87146  -0.155   3.931   1.192 -1.2163  0.1594  0.5298
  646MOL0     H87147  -0.361   3.840   1.289 -1.1035  0.1848  1.5182
  646MOL0     H87148  -0.324   4.009   1.314  1.4267  0.3939  0.7370
  646MOL0     H87149  -0.422   3.919   1.520 -0.9870 -2.1087 -1.5399
  646MOL0     H87150  -0.258   3.984   1.533  0.1917  0.0079 -0.7412
  646MOL0     H87151  -0.332   3.700   1.508 -1.7795 -1.5521  2.1459
  646MOL0     H87152  -0.166   3.748   1.556 -0.8015 -1.3897  0.2431
  646MOL0     H87153  -0.422   3.823   1.711  0.2781  0.1086 -1.9016
  646MOL0     H87154  -0.325   3.671   1.739 -0.6186  0.5663  1.8718
  646MOL0     H87155  -0.136   3.864   1.787  0.3982 -2.3661  1.9613
  646MOL0     H87156  -0.269   3.974   1.780  1.7296  0.3718  0.9256
  646MOL0     H87157  -0.237   3.745   1.966 -0.8155 -1.5006 -3.0991
  646MOL0     H87158  -0.373   3.868   1.975 -1.0779 -1.8880 -2.3086
  646MOL0     H87159  -0.116   3.852   2.090  1.7778  1.7891 -0.6004
  646MOL0     H87160  -0.112   3.996   1.995 -2.2439  1.9256 -0.8823
  646MOL0     H87161  -0.367   3.846   2.250  0.7033 -0.3070  1.2031
  646MOL0     H87162  -0.590   3.960   2.342  2.7467 -1.1074 -1.1185
  646MOL0     H87163  -0.492   4.049   2.472  2.4565  2.7644 -0.4433
  646MOL0     H87164  -0.564   4.253   2.421  0.5945  0.1704 -2.3602
  646MOL0     H87165  -0.633   4.201   2.251 -3.5249 -1.8623 -0.6599
  646MOL0     H87166  -0.754   4.127   2.517 -6.3485 -1.3218  0.6808
  646MOL0     H87167  -0.824   4.118   2.349 -0.6495  0.5585  0.0213
  646MOL0     H87168  -0.780   4.367   2.354  1.1796 -2.2158 -1.9161
  646MOL0     H87169  -0.760   4.363   2.532  1.8586 -0.8887 -1.1273
  646MOL0     H87170  -0.839   4.323   2.710 -1.7835  1.4985  6.1421
  646MOL0     H87171  -0.951   4.270   2.914 -0.2841 -1.8021  0.7382
  646MOL0     H87172  -1.378   4.043   3.185  0.2353  0.7083  3.4684
  646MOL0     H87173  -1.538   4.091   3.360  0.5186 -2.8797 -2.9743
  646MOL0     H87174  -1.616   4.200   3.532 -3.2724 -2.3011  1.2450
  646MOL0     H87175  -1.671   4.365   3.586 -1.3546  1.0243 -0.8717
  646MOL0     H87176  -1.873   4.302   3.449  3.1052  2.6714 -0.2074
  646MOL0     H87177  -1.830   4.125   3.496  3.0599 -0.4579  0.5268
  646MOL0     H87178  -1.803   4.196   3.725  0.9122 -0.1427  0.2588
  646MOL0     H87179  -1.898   4.351   3.697 -0.2241 -0.1313  1.5680
  646MOL0     H87180  -2.062   4.200   3.591 -0.8877  0.1734  0.0982
  646MOL0     H87181  -2.061   4.247   3.766 -0.2479  1.5242 -1.6848
  646MOL0     H87182  -1.920   4.035   3.810 -1.0521  0.6353  1.0213
  646MOL0     H87183  -1.968   3.979   3.657 -1.2910 -0.8187 -0.9333
  646MOL0     H87184  -2.102   3.872   3.832  2.5070 -0.2132 -1.9601
  646MOL0     H87185  -2.155   4.019   3.898  1.5576 -1.5492  1.2279
  646MOL0     H87186  -2.218   3.899   3.632 -0.0305 -0.7272  1.3221
  646MOL0     H87187  -2.239   4.078   3.656  1.1978  0.6712  0.8616
  646MOL0     H87188  -2.385   3.850   3.803  2.2684  0.0465  1.1239
  646MOL0     H87189  -2.385   4.020   3.860 -0.4854 -1.9088  1.5180
  646MOL0     H87190  -1.665   4.427   3.141  1.4418  1.0901  3.6824
  646MOL0     H87191  -1.540   4.356   2.947 -3.2700 -2.8470 -1.3703
  646MOL0     H87192  -1.310   4.204   2.704  0.6600  1.2749 -1.8429
  646MOL0     H87193  -1.205   4.279   2.502 -0.0006 -2.0950  0.1038
  646MOL0     H87194   0.073   3.561   1.361 -0.0317 -2.7712 -3.7962
  646MOL0     H87195   0.293   3.509   1.235  3.1711  2.2040 -4.7286
  646MOL0     H87196   0.632   3.552   1.102 -3.1834 -1.4881 -0.6170
  646MOL0     H87197   0.836   3.442   1.032  0.6577  0.0740 -0.3733
  646MOL0     H87198   1.134   3.392   0.834  1.4736  3.0528 -0.8112
  646MOL0     H87199   1.017   3.382   0.968 -0.2501 -2.4622 -2.0172
  646MOL0     H87200   1.183   3.553   1.029 -1.8119 -0.1912  1.5732
  646MOL0     H87201   1.025   3.601   1.027  2.8493 -0.0637  3.4451
  646MOL0     H87202   1.106   3.774   0.907 -0.2156  0.0939 -1.4170
  646MOL0     H87203   1.085   3.666   0.773  0.3209 -5.5236  0.5007
  646MOL0     H87204   1.363   3.684   0.909  0.6036 -0.4407 -0.7092
  646MOL0     H87205   1.309   3.576   0.775  1.4577 -0.0159  1.1947
  646MOL0     H87206   1.395   3.922   0.561  1.8880  0.1161  0.6968
  646MOL0     H87207   0.763   3.564   0.632 -0.9562 -2.0247 -0.4395
  646MOL0     H87208   0.443   3.609   0.634  0.1578  0.2336  0.4286
  646MOL0     H87209   0.520   3.767   0.641  0.1377 -0.0769  1.1349
  646MOL0     H87210   0.598   3.641   0.548  0.7728 -2.0543  0.1343
  647MOL0     O87211   7.510   0.559   4.341  0.4862 -0.6913  0.0387
  647MOL0     C87212   7.513   0.675   4.298  0.9281 -0.1706  0.2485
  647MOL0     O87213   7.604   0.726   4.215  0.3310  0.1600  0.2619
  647MOL0     C87214   7.731   0.661   4.200 -0.3602  0.3090 -0.6164
  647MOL0     C87215   7.784   0.544   4.271  0.5331  0.0972 -0.4084
  647MOL0     C87216   7.907   0.485   4.232 -0.1566 -0.9408 -1.1643
  647MOL0     C87217   7.984   0.533   4.129  0.6032  0.3980 -0.1753
  647MOL0     O87218   8.087   0.453   4.081  0.4497  0.4213 -0.0896
  647MOL0     C87219   8.178   0.506   3.983 -0.0381  0.3713 -0.3804
  647MOL0     C87220   8.327   0.459   4.000  0.0618 -0.9004 -0.3643
  647MOL0     C87221   8.397   0.526   4.126  0.1013  0.7263  0.5807
  647MOL0     C87222   8.549   0.485   4.135  0.5365  0.0558  0.5095
  647MOL0     C87223   8.589   0.486   4.278 -0.0126 -0.4323 -0.9101
  647MOL0     C87224   8.734   0.426   4.294  0.2318 -0.3037  0.0335
  647MOL0     C87225   8.780   0.462   4.442 -0.2456  0.6148  0.4176
  647MOL0     C87226   8.862   0.590   4.461 -0.2163 -0.0715  0.6347
  647MOL0     N87227   8.993   0.593   4.396  0.9856 -0.2050  0.4893
  647MOL0     C87228   9.047   0.680   4.300 -0.2013 -0.3204  0.0337
  647MOL0     C87229   9.155   0.608   4.260  0.0051 -0.0296  0.1059
  647MOL0     C87230   9.239   0.646   4.140  0.4375 -0.6068 -0.5460
  647MOL0     C87231   9.168   0.594   4.014 -0.1055  0.5421  1.3606
  647MOL0     C87232   9.062   0.686   3.945 -0.0989  0.2468  0.4854
  647MOL0     C87233   9.112   0.744   3.821  0.3937 -0.4939 -0.4099
  647MOL0     O87234   8.987   0.784   3.767  0.0335 -0.2092  1.2977
  647MOL0     C87235   8.989   0.853   3.643 -0.5373 -0.0998 -0.7768
  647MOL0     C87236   8.879   0.918   3.592 -0.2945 -0.9450  0.0038
  647MOL0     C87237   8.880   1.002   3.476  0.0035  0.1296  0.4615
  647MOL0     C87238   8.993   1.004   3.393 -0.7670 -0.6081 -1.0721
  647MOL0     C87239   8.996   1.069   3.260  0.5512 -0.7964 -0.0462
  647MOL0     O87240   8.867   1.095   3.207 -0.3343 -0.0141 -0.0868
  647MOL0     C87241   8.865   1.105   3.073 -0.2844  0.2931  0.7305
  647MOL0     C87242   8.812   0.997   3.004  0.3847 -0.6711 -0.3598
  647MOL0     C87243   8.803   1.000   2.864 -0.0422 -1.0526 -0.4896
  647MOL0     C87244   8.827   1.129   2.796 -0.6947  0.9342  0.7889
  647MOL0     O87245   8.794   1.127   2.664  0.6986 -0.4606 -0.0190
  647MOL0     C87246   8.879   1.216   2.590 -0.2411 -0.9013  0.5817
  647MOL0     C87247   8.884   1.165   2.445  0.7706  0.0680 -0.7450
  647MOL0     C87248   9.015   1.203   2.378 -0.0672 -0.1264 -0.3748
  647MOL0     C87249   9.133   1.115   2.410  0.5001  0.5917 -0.2510
  647MOL0     C87250   9.266   1.159   2.350  0.2848  0.1928  0.9516
  647MOL0     C87251   9.361   1.044   2.328  0.0711 -0.3138  0.8610
  647MOL0     C87252   9.504   1.089   2.360  0.6546  0.5764 -0.8391
  647MOL0     C87253   9.536   1.095   2.515 -1.2725  0.0739  0.1044
  647MOL0    Cl87254   9.701   1.174   2.534  0.2050  0.0277 -0.3093
  647MOL0     C87255   8.884   1.237   2.866 -1.1168 -0.1579 -0.2765
  647MOL0     C87256   8.909   1.218   3.005  0.2932 -0.6238  0.3827
  647MOL0     O87257   9.104   1.069   3.198 -0.5782  0.3660  0.2922
  647MOL0     C87258   9.101   0.931   3.443 -0.3004  0.4090 -0.1959
  647MOL0     C87259   9.104   0.860   3.566 -0.4160  0.6418  0.8527
  647MOL0     N87260   9.163   0.492   4.328  0.6184  0.2476 -0.1249
  647MOL0     N87261   9.071   0.485   4.415 -0.2257  0.1021 -0.3427
  647MOL0     C87262   7.938   0.653   4.069 -0.9250  0.0714  0.6321
  647MOL0     C87263   7.815   0.711   4.103  0.0975 -0.6760 -0.4395
  647MOL0     C87264   7.399   0.769   4.334 -0.1264 -0.2957  0.6064
  647MOL0     C87265   7.407   0.911   4.289 -0.2072  0.3891 -0.9360
  647MOL0     C87266   7.303   1.006   4.314  0.0265 -0.0268  0.1840
  647MOL0     C87267   7.185   0.963   4.386 -0.3911  0.0354 -0.0944
  647MOL0     O87268   7.085   1.049   4.403 -1.0626 -0.3756  0.0430
  647MOL0     C87269   7.127   1.164   4.485  0.6017 -0.4093  0.0837
  647MOL0     C87270   7.135   1.132   4.632  0.0424 -0.3586  0.3685
  647MOL0     C87271   7.189   1.246   4.716 -0.5439 -0.6164  0.2083
  647MOL0     C87272   7.212   1.206   4.857  0.5636  1.2386 -0.2990
  647MOL0     C87273   7.095   1.146   4.925  0.1328 -0.6314 -0.2528
  647MOL0     C87274   6.986   1.125   4.982 -0.0378 -0.5358  1.0532
  647MOL0     C87275   7.177   0.832   4.433  0.4676  0.5574  0.0363
  647MOL0     C87276   7.279   0.732   4.414 -0.0913 -0.1090  0.5791
  647MOL0     C87277   7.264   0.602   4.479  1.1807 -0.6228 -0.6767
  647MOL0     H87278   7.726   0.510   4.356 -0.3427  2.1613 -0.0980
  647MOL0     H87279   7.947   0.403   4.291  0.2316  1.0426  1.5109
  647MOL0     H87280   8.138   0.470   3.888  0.9858 -1.5374 -0.1302
  647MOL0     H87281   8.180   0.615   3.978 -2.2570  0.4623 -0.2482
  647MOL0     H87282   8.378   0.496   3.911 -2.4656  1.3736 -0.9824
  647MOL0     H87283   8.318   0.350   4.003 -0.4933 -0.8429  2.1165
  647MOL0     H87284   8.353   0.501   4.223  1.7452  0.8656  1.4006
  647MOL0     H87285   8.397   0.635   4.115  0.1963  0.7572  0.8893
  647MOL0     H87286   8.553   0.384   4.092  0.8968  0.4516 -0.4028
  647MOL0     H87287   8.613   0.559   4.087 -2.4687  1.2058 -2.1230
  647MOL0     H87288   8.584   0.590   4.312  0.5053 -1.0705  1.3394
  647MOL0     H87289   8.526   0.421   4.339 -1.8896  1.5007 -0.6535
  647MOL0     H87290   8.722   0.319   4.278 -0.6582 -0.2337  0.1748
  647MOL0     H87291   8.801   0.465   4.217 -0.6256 -1.7375 -1.5122
  647MOL0     H87292   8.838   0.375   4.474 -2.4037 -0.7726  0.7934
  647MOL0     H87293   8.690   0.470   4.504 -1.2778  1.1972 -1.0940
  647MOL0     H87294   8.792   0.667   4.429 -1.0473 -0.9540  0.2910
  647MOL0     H87295   8.874   0.606   4.569 -2.7682 -1.2385  1.1494
  647MOL0     H87296   9.007   0.773   4.259 -0.7658 -0.5811 -0.0191
  647MOL0     H87297   9.245   0.755   4.150  1.3723 -0.7940  1.2944
  647MOL0     H87298   9.343   0.613   4.136 -0.3705 -3.2461 -2.8750
  647MOL0     H87299   9.243   0.576   3.937 -1.2313  4.4898 -0.9323
  647MOL0     H87300   9.111   0.502   4.029 -2.1968  1.5956  0.2804
  647MOL0     H87301   9.041   0.775   4.005 -0.4449 -0.7631  1.9226
  647MOL0     H87302   8.964   0.640   3.930 -1.1577  1.8911  1.9211
  647MOL0     H87303   9.162   0.659   3.773  0.5894  1.2565 -3.5746
  647MOL0     H87304   9.179   0.831   3.824 -1.3876  0.9560 -0.6543
  647MOL0     H87305   8.788   0.908   3.651 -1.3515 -3.0604 -1.8623
  647MOL0     H87306   8.791   1.060   3.455  0.5353  0.8941  0.2761
  647MOL0     H87307   8.792   0.905   3.059 -1.2296 -1.3570 -1.9855
  647MOL0     H87308   8.759   0.916   2.813 -0.5398 -1.0731 -0.0320
  647MOL0     H87309   8.843   1.319   2.583 -2.2067 -1.6041 -0.5265
  647MOL0     H87310   8.982   1.218   2.625 -0.2898 -1.3937  0.7630
  647MOL0     H87311   8.875   1.056   2.459 -1.1034  0.4212  1.3984
  647MOL0     H87312   8.798   1.204   2.390 -1.1589  1.5871  2.9362
  647MOL0     H87313   9.005   1.200   2.269  0.1135  0.5568 -0.4185
  647MOL0     H87314   9.041   1.306   2.405  1.9485 -0.3250 -1.3849
  647MOL0     H87315   9.102   1.019   2.367 -2.6772  2.4614 -2.5060
  647MOL0     H87316   9.156   1.129   2.516  0.2237  3.6796 -0.5251
  647MOL0     H87317   9.305   1.249   2.398 -0.5922  0.4337  1.2221
  647MOL0     H87318   9.246   1.201   2.251  2.7845  2.2712  1.2111
  647MOL0     H87319   9.338   0.947   2.372 -0.2079 -1.8513 -2.3865
  647MOL0     H87320   9.353   1.018   2.222  0.5640 -0.6584  0.9033
  647MOL0     H87321   9.523   1.189   2.320 -0.3543  0.2782 -2.1445
  647MOL0     H87322   9.574   1.014   2.322  0.8700 -0.5780  1.6374
  647MOL0     H87323   9.475   1.162   2.576  1.6468  0.9830  2.2624
  647MOL0     H87324   9.543   0.994   2.554 -0.2434 -0.3672 -1.1314
  647MOL0     H87325   8.906   1.331   2.816  1.1902  0.0952  1.0393
  647MOL0     H87326   8.954   1.287   3.075 -1.8576  1.3437 -0.0230
  647MOL0     H87327   9.194   0.933   3.388 -0.7134 -1.0136 -0.9857
  647MOL0     H87328   9.188   0.796   3.592 -2.4846 -2.8393 -0.3619
  647MOL0     H87329   7.986   0.696   3.982  4.1442 -0.0603  3.0043
  647MOL0     H87330   7.798   0.805   4.050  0.2306 -1.8594 -2.7351
  647MOL0     H87331   7.488   0.938   4.221  1.7581  1.2019  1.5749
  647MOL0     H87332   7.308   1.104   4.268  2.6678 -1.5397 -3.2009
  647MOL0     H87333   7.059   1.244   4.455  0.4665 -1.1872 -1.8294
  647MOL0     H87334   7.225   1.199   4.454  1.6059  0.2286  3.5346
  647MOL0     H87335   7.210   1.055   4.653 -0.3490 -0.5442  1.1285
  647MOL0     H87336   7.041   1.091   4.671  1.4749 -0.8284  3.6414
  647MOL0     H87337   7.119   1.330   4.716 -2.0718 -1.8339 -0.1853
  647MOL0     H87338   7.279   1.287   4.669 -1.3444 -0.9317 -1.7221
  647MOL0     H87339   7.291   1.131   4.868 -1.4418 -1.0699 -0.6696
  647MOL0     H87340   7.246   1.299   4.904  0.8887  1.5232 -1.0813
  647MOL0     H87341   6.886   1.128   5.020 -1.6879 -4.4780 -2.2874
  647MOL0     H87342   7.086   0.796   4.480  1.0596 -0.6175  0.3442
  647MOL0     H87343   7.347   0.572   4.543 -0.7409 -1.8120  1.4376
  647MOL0     H87344   7.184   0.604   4.554  1.7628  1.0037 -0.0469
  647MOL0     H87345   7.244   0.530   4.399  1.6574 -0.4555 -0.9432
  648MOL0     O87346   7.438   6.662   0.848 -0.0972  0.2664  0.5010
  648MOL0     C87347   7.488   6.574   0.776 -0.1025  1.3240 -0.3286
  648MOL0     O87348   7.611   6.585   0.705 -0.5031 -0.5224  0.4436
  648MOL0     C87349   7.685   6.696   0.719  0.0043  0.1513 -0.6416
  648MOL0     C87350   7.639   6.820   0.681 -0.1994  0.8669 -0.6487
  648MOL0     C87351   7.716   6.936   0.682 -0.0522  0.8812  1.2783
  648MOL0     C87352   7.854   6.919   0.709 -0.6272  1.1849  0.4931
  648MOL0     O87353   7.952   7.019   0.709 -0.3631 -0.1131  0.3224
  648MOL0     C87354   7.901   7.150   0.676  0.5186  0.3177  0.5741
  648MOL0     C87355   8.006   7.242   0.750  0.2662  0.5227  0.3031
  648MOL0     C87356   7.979   7.376   0.700  0.8188  0.5293 -0.1466
  648MOL0     C87357   8.076   7.471   0.761 -0.8459  0.5550 -0.3029
  648MOL0     C87358   8.040   7.611   0.727  1.0806 -0.3422  0.3031
  648MOL0     C87359   8.126   7.715   0.803  0.0996 -0.0923 -0.1260
  648MOL0     C87360   8.088   7.869   0.777 -0.0485  1.0655  0.3844
  648MOL0     C87361   8.167   7.968   0.856 -0.6441 -0.7192  0.4360
  648MOL0     N87362   8.248   8.038   0.758  0.2603 -0.1511 -0.0833
  648MOL0     C87363   8.195   8.129   0.666 -1.0598 -0.1989 -0.3911
  648MOL0     C87364   8.299   8.150   0.579  0.1930  0.4268 -0.2960
  648MOL0     C87365   8.294   8.240   0.453 -0.0485 -0.0181 -0.4174
  648MOL0     C87366   8.290   8.396   0.474 -0.0722 -0.0749 -0.0579
  648MOL0     C87367   8.307   8.462   0.338  0.0740 -0.4222 -0.1366
  648MOL0     C87368   8.294   8.604   0.375  0.3563 -0.8406  0.7204
  648MOL0     O87369   8.380   8.667   0.470 -0.2760  0.4634 -0.0800
  648MOL0     C87370   8.496   8.700   0.414 -0.7478  0.2920  0.0343
  648MOL0     C87371   8.545   8.675   0.285 -0.2695  0.1699  0.4571
  648MOL0     C87372   8.673   8.712   0.259  0.5926 -0.4959  0.1379
  648MOL0     C87373   8.761   8.769   0.350 -0.6523  0.6503 -0.5986
  648MOL0     C87374   8.891   8.800   0.315 -0.0406 -0.2934  1.1905
  648MOL0     O87375   8.928   8.769   0.189  0.9895  0.4091 -0.1005
  648MOL0     C87376   9.065   8.770   0.157  0.5308  1.2284 -0.6257
  648MOL0     C87377   9.154   8.698   0.231  0.6501  0.7152  0.7738
  648MOL0     C87378   9.293   8.713   0.220  0.4563 -0.7223  1.1438
  648MOL0     C87379   9.349   8.794   0.120  0.5294 -0.5964  0.2005
  648MOL0     O87380   9.477   8.819   0.084 -0.9359 -0.3408 -0.5108
  648MOL0     C87381   9.582   8.722   0.123  0.9956  0.1588  0.0104
  648MOL0     C87382   9.706   8.755   0.041  0.1170 -0.6656 -0.6537
  648MOL0     C87383   9.773   8.884   0.102  1.4242  0.0201  0.5721
  648MOL0     C87384   9.890   8.929   0.009  0.5404  1.2621 -0.4342
  648MOL0     C87385   9.944   9.054   0.069 -0.7828  0.7584 -0.3309
  648MOL0     C87386  10.079   9.089  -0.008  1.5540  0.7891  0.6633
  648MOL0     C87387  10.166   9.204   0.054  1.1858 -0.6187  0.3647
  648MOL0     C87388  10.305   9.159   0.084  0.2493  1.0290 -0.1976
  648MOL0    Cl87389  10.298   9.024   0.200  0.1303 -0.1215 -0.3392
  648MOL0     C87390   9.257   8.862   0.045  0.3294 -0.1239  0.2609
  648MOL0     C87391   9.117   8.860   0.062 -0.2419  0.5884 -0.2733
  648MOL0     O87392   8.961   8.865   0.389  0.4142 -1.0738  0.7202
  648MOL0     C87393   8.709   8.801   0.475 -0.7262  0.3192  0.3340
  648MOL0     C87394   8.586   8.759   0.509  0.5588  0.6648  0.4906
  648MOL0     N87395   8.413   8.078   0.627 -0.1214  0.2474 -0.2088
  648MOL0     N87396   8.378   8.016   0.732  0.0676  0.0007 -0.0916
  648MOL0     C87397   7.902   6.796   0.752  1.2988  0.0361  0.9364
  648MOL0     C87398   7.815   6.678   0.761  0.6665 -0.7666 -0.0023
  648MOL0     C87399   7.427   6.439   0.766  0.0024 -0.3615  0.2920
  648MOL0     C87400   7.417   6.384   0.632 -1.1467 -0.2277 -0.3564
  648MOL0     C87401   7.377   6.251   0.611 -0.4500 -0.0861  0.0021
  648MOL0     C87402   7.353   6.170   0.727 -0.4635  0.4130 -0.1554
  648MOL0     O87403   7.298   6.045   0.729  0.0121 -0.0062 -0.2869
  648MOL0     C87404   7.272   5.986   0.603 -0.5249  0.2857 -0.7896
  648MOL0     C87405   7.182   5.857   0.628  0.0501  1.1379 -0.7948
  648MOL0     C87406   7.189   5.764   0.512  0.4522 -0.0973  0.1136
  648MOL0     C87407   7.129   5.805   0.379  0.0296  0.0669 -1.2488
  648MOL0     C87408   6.985   5.816   0.405 -0.5853  0.8117 -0.5005
  648MOL0     C87409   6.877   5.820   0.439  0.6238  0.7080 -0.0566
  648MOL0     C87410   7.358   6.228   0.851 -0.6465 -1.3640 -0.5901
  648MOL0     C87411   7.399   6.357   0.880 -0.2388  0.7464  0.6984
  648MOL0     C87412   7.414   6.395   1.021  0.7919  0.4956 -1.2163
  648MOL0     H87413   7.534   6.829   0.655 -1.9820 -4.3192  3.1038
  648MOL0     H87414   7.666   7.027   0.653 -1.5576 -0.4410 -0.5805
  648MOL0     H87415   7.893   7.158   0.567  0.6635  2.8798  0.6841
  648MOL0     H87416   7.801   7.168   0.715  0.3170  1.6678 -0.4953
  648MOL0     H87417   8.109   7.211   0.732 -0.2825 -1.5563  0.3784
  648MOL0     H87418   7.993   7.232   0.858 -0.3933 -3.1724  0.0341
  648MOL0     H87419   7.878   7.408   0.727  0.6024  0.9453 -1.4114
  648MOL0     H87420   7.978   7.379   0.591 -0.0867  3.1612 -0.1479
  648MOL0     H87421   8.072   7.473   0.870 -0.7771 -0.1088 -0.2884
  648MOL0     H87422   8.176   7.443   0.726 -1.0306 -0.5399  0.0228
  648MOL0     H87423   8.047   7.625   0.619 -0.1876  1.1338  0.3782
  648MOL0     H87424   7.936   7.630   0.756  0.9079 -0.1453 -0.4374
  648MOL0     H87425   8.111   7.701   0.911 -0.9165  0.6196 -0.1550
  648MOL0     H87426   8.232   7.691   0.788 -0.2643 -1.1422 -1.1537
  648MOL0     H87427   7.980   7.876   0.796 -0.0581 -0.7163  1.1570
  648MOL0     H87428   8.102   7.877   0.668 -0.8942 -1.3753  0.0267
  648MOL0     H87429   8.105   8.050   0.896 -1.3462  0.9129 -3.4810
  648MOL0     H87430   8.229   7.920   0.932  0.9315 -0.2630 -0.5104
  648MOL0     H87431   8.099   8.179   0.657 -1.2748 -0.3422  0.9429
  648MOL0     H87432   8.379   8.205   0.393 -1.6543 -5.7917  0.0999
  648MOL0     H87433   8.207   8.208   0.396  0.3107 -0.2676 -0.8357
  648MOL0     H87434   8.200   8.434   0.523  2.5737  1.4550  4.0803
  648MOL0     H87435   8.382   8.417   0.529 -0.1310  1.0619 -0.3649
  648MOL0     H87436   8.227   8.442   0.266  0.9998 -0.3348 -1.2235
  648MOL0     H87437   8.400   8.448   0.282  0.1972  2.0757 -0.6678
  648MOL0     H87438   8.192   8.621   0.410 -0.3486 -0.8676 -1.1790
  648MOL0     H87439   8.294   8.662   0.282  2.0858  1.6684  2.1807
  648MOL0     H87440   8.476   8.624   0.218  1.0539 -1.2271  0.1061
  648MOL0     H87441   8.716   8.690   0.162  4.7411  0.5717  1.5077
  648MOL0     H87442   9.116   8.616   0.291  0.6611 -0.9380 -1.3612
  648MOL0     H87443   9.355   8.648   0.281 -1.9843 -2.8035  1.6336
  648MOL0     H87444   9.594   8.723   0.232  0.1757  3.4198  0.1797
  648MOL0     H87445   9.547   8.622   0.096 -1.2542  0.3922  1.7164
  648MOL0     H87446   9.776   8.671   0.051  0.7179  0.0085  1.4272
  648MOL0     H87447   9.668   8.777  -0.059 -0.3542  0.0646 -0.3263
  648MOL0     H87448   9.697   8.962   0.106 -1.2037 -2.2849 -0.7801
  648MOL0     H87449   9.816   8.860   0.200 -1.7696 -1.2722  1.8066
  648MOL0     H87450   9.846   8.938  -0.091 -1.0680 -1.3336 -0.0386
  648MOL0     H87451   9.965   8.850   0.010  2.4973  2.9810  2.6574
  648MOL0     H87452   9.984   9.037   0.170  2.0150  1.2768 -1.2562
  648MOL0     H87453   9.875   9.139   0.075  1.7405  2.8702  2.1750
  648MOL0     H87454  10.140   8.998  -0.019  0.9445  0.4401  0.0889
  648MOL0     H87455  10.049   9.124  -0.107 -0.2352 -2.6803 -0.1799
  648MOL0     H87456  10.122   9.239   0.148  1.2052 -1.9801  0.8975
  648MOL0     H87457  10.171   9.292  -0.012 -0.5633 -0.1039  0.8524
  648MOL0     H87458  10.341   9.132  -0.015 -4.8032  0.7397 -2.2009
  648MOL0     H87459  10.363   9.238   0.134 -0.3440  0.8460  0.8228
  648MOL0     H87460   9.302   8.926  -0.030  0.6736 -1.1336 -0.4115
  648MOL0     H87461   9.053   8.941   0.030  0.0277  1.0669  0.3732
  648MOL0     H87462   8.766   8.865   0.542  1.7312 -0.0470 -1.2530
  648MOL0     H87463   8.543   8.769   0.608 -1.3593  2.4619 -0.4418
  648MOL0     H87464   8.005   6.779   0.780  1.7833  0.3081 -0.5707
  648MOL0     H87465   7.849   6.580   0.793 -0.9945 -2.1004 -2.1411
  648MOL0     H87466   7.445   6.458   0.557  0.6850 -0.4436  0.0822
  648MOL0     H87467   7.368   6.227   0.505  3.9928  2.2434 -1.1330
  648MOL0     H87468   7.371   5.963   0.561 -1.0573 -1.4174 -1.1747
  648MOL0     H87469   7.206   6.046   0.539 -0.4223 -0.5547 -1.6981
  648MOL0     H87470   7.080   5.878   0.661 -0.2611 -0.9694 -0.3120
  648MOL0     H87471   7.214   5.791   0.709 -0.8912  0.9449 -0.5738
  648MOL0     H87472   7.129   5.678   0.544  1.0586 -0.1168  1.2408
  648MOL0     H87473   7.287   5.719   0.497  0.1373 -0.5586 -0.6697
  648MOL0     H87474   7.163   5.897   0.328  0.3890  1.2402  0.9898
  648MOL0     H87475   7.141   5.722   0.309 -1.2530  1.3071 -3.0647
  648MOL0     H87476   6.777   5.817   0.477  1.0984 -1.5667  1.1780
  648MOL0     H87477   7.336   6.164   0.936  0.5997 -1.6831 -0.4803
  648MOL0     H87478   7.502   6.453   1.048  1.2890 -0.8789  0.3171
  648MOL0     H87479   7.321   6.443   1.054 -0.2010 -2.1200  0.1391
  648MOL0     H87480   7.416   6.308   1.088  2.3877  1.3123 -0.1473
  649MOL0     O87481  11.301   7.670   3.134 -0.0423  0.2126 -0.5863
  649MOL0     C87482  11.336   7.645   3.250  0.0117 -1.0588 -0.3952
  649MOL0     O87483  11.260   7.664   3.365  0.7891 -0.5788  0.3302
  649MOL0     C87484  11.171   7.771   3.368  0.3431 -0.0902  1.5230
  649MOL0     C87485  11.200   7.899   3.320  0.8641  0.2617 -0.4164
  649MOL0     C87486  11.113   8.008   3.321 -0.3480  0.5764  0.4346
  649MOL0     C87487  10.983   7.989   3.356  0.5785 -0.2889 -0.3790
  649MOL0     O87488  10.900   8.095   3.329 -0.2352  0.0654 -0.2619
  649MOL0     C87489  10.754   8.074   3.342  0.0629  0.0981 -0.3116
  649MOL0     C87490  10.675   8.197   3.309  1.2676 -0.0978 -0.8412
  649MOL0     C87491  10.703   8.250   3.163  0.1194  0.1406 -0.7926
  649MOL0     C87492  10.643   8.156   3.059  0.0132  1.1853 -0.7261
  649MOL0     C87493  10.621   8.229   2.923  0.0582  1.1068 -0.4195
  649MOL0     C87494  10.530   8.145   2.829 -0.5119  0.1344 -1.2127
  649MOL0     C87495  10.514   8.212   2.693  0.4933  0.2508 -0.4157
  649MOL0     C87496  10.428   8.129   2.593 -0.6219  0.2503 -0.1823
  649MOL0     N87497  10.289   8.139   2.622 -0.3258 -0.0188 -0.7141
  649MOL0     C87498  10.226   8.259   2.607  0.9365 -0.0773 -1.0500
  649MOL0     C87499  10.113   8.251   2.674 -0.5947 -0.3726 -0.0406
  649MOL0     C87500  10.009   8.361   2.671  0.5769  0.0112  0.4188
  649MOL0     C87501   9.929   8.383   2.791  0.1071 -0.1073  0.4262
  649MOL0     C87502   9.991   8.428   2.930  0.2022  0.4778 -0.0414
  649MOL0     C87503  10.019   8.303   3.018 -0.4048 -0.1702 -1.3511
  649MOL0     O87504  10.096   8.342   3.139 -0.0530  0.1751 -0.1222
  649MOL0     C87505  10.173   8.240   3.190  0.4112 -0.0168 -0.2491
  649MOL0     C87506  10.163   8.236   3.331 -0.6087  0.7875 -0.2991
  649MOL0     C87507  10.248   8.149   3.409  0.7867 -0.3818  0.5524
  649MOL0     C87508  10.319   8.044   3.332  1.1449  0.4998  0.4586
  649MOL0     C87509  10.390   7.940   3.401 -0.6293  0.1355 -0.3358
  649MOL0     O87510  10.408   7.817   3.346  0.4364 -0.9251 -0.4143
  649MOL0     C87511  10.489   7.723   3.404 -0.1500  0.7469 -0.3534
  649MOL0     C87512  10.590   7.740   3.507 -0.4988 -0.0697  1.0907
  649MOL0     C87513  10.683   7.641   3.536 -0.2481  0.8555 -0.7784
  649MOL0     C87514  10.676   7.513   3.491 -0.1806 -0.4947 -0.1200
  649MOL0     O87515  10.781   7.423   3.506 -0.0659  0.2924  0.2881
  649MOL0     C87516  10.870   7.390   3.393  0.4645 -0.8724  0.3842
  649MOL0     C87517  10.992   7.302   3.437  0.0377  0.4291  0.1225
  649MOL0     C87518  10.945   7.157   3.469  0.3234  0.0453  0.1290
  649MOL0     C87519  10.961   7.140   3.617 -0.1455  0.2729 -1.0461
  649MOL0     C87520  10.908   7.005   3.677  0.7323 -0.7612 -0.3241
  649MOL0     C87521  10.902   7.019   3.829  0.4538  0.4117 -0.6372
  649MOL0     C87522  10.884   6.875   3.896 -0.3999 -0.4496  0.9674
  649MOL0     C87523  10.758   6.801   3.843  0.4872  0.2131  0.1698
  649MOL0    Cl87524  10.617   6.888   3.870 -0.0680 -0.0931 -0.1610
  649MOL0     C87525  10.562   7.478   3.421 -0.2987 -0.0112 -0.4345
  649MOL0     C87526  10.473   7.586   3.367 -0.8795  0.9845 -0.2840
  649MOL0     O87527  10.422   7.973   3.514 -0.4489 -0.0369 -0.4271
  649MOL0     C87528  10.310   8.045   3.193 -0.7044 -0.5167 -1.0973
  649MOL0     C87529  10.249   8.147   3.127 -0.4063  0.1746  0.1077
  649MOL0     N87530  10.109   8.124   2.740 -0.9454  0.4048  0.4349
  649MOL0     N87531  10.219   8.061   2.713 -0.2585  0.0950 -0.0187
  649MOL0     C87532  10.948   7.862   3.420 -0.2680  0.4009  0.2460
  649MOL0     C87533  11.040   7.750   3.418  0.4039  0.5218 -0.5402
  649MOL0     C87534  11.455   7.555   3.267 -0.5297  0.1659 -0.1690
  649MOL0     C87535  11.443   7.429   3.332  0.0560 -0.1619  0.7643
  649MOL0     C87536  11.552   7.347   3.343  0.1640  0.5213 -0.2775
  649MOL0     C87537  11.671   7.382   3.281 -0.2245  0.7230  0.9204
  649MOL0     O87538  11.775   7.289   3.269 -0.0608 -0.2326 -0.2156
  649MOL0     C87539  11.869   7.277   3.158  0.0804  0.0041  0.5204
  649MOL0     C87540  11.900   7.129   3.145 -0.0721  0.3460  1.3523
  649MOL0     C87541  11.940   7.046   3.263 -0.1692  0.5275 -0.2782
  649MOL0     C87542  11.960   6.902   3.234  0.1165  0.1450 -0.4640
  649MOL0     C87543  11.989   6.835   3.360 -0.3229 -1.1133 -0.8280
  649MOL0     C87544  11.999   6.775   3.465  0.8497 -0.2915  0.0263
  649MOL0     C87545  11.681   7.497   3.212  0.6771 -0.3274  1.0651
  649MOL0     C87546  11.576   7.588   3.205 -0.6268  0.3076 -0.5783
  649MOL0     C87547  11.604   7.718   3.129  0.1690 -0.3986 -0.0294
  649MOL0     H87548  11.300   7.932   3.294  0.5632  0.9693 -0.7164
  649MOL0     H87549  11.133   8.096   3.261 -3.9761 -0.2525 -2.3532
  649MOL0     H87550  10.732   7.990   3.275  0.1750 -1.9945  2.0926
  649MOL0     H87551  10.726   8.050   3.446 -0.8251  0.8693 -0.3645
  649MOL0     H87552  10.695   8.284   3.372  3.4269  0.1539 -1.7685
  649MOL0     H87553  10.569   8.170   3.316  1.3841 -0.3165  0.1164
  649MOL0     H87554  10.808   8.271   3.137  0.5095  2.0015  1.8740
  649MOL0     H87555  10.664   8.352   3.157 -0.1350 -0.0250 -2.3401
  649MOL0     H87556  10.707   8.068   3.048 -0.8755  0.5577 -1.0510
  649MOL0     H87557  10.542   8.128   3.090  0.6807 -0.9900 -0.3573
  649MOL0     H87558  10.575   8.327   2.941  4.7688  3.3485  1.3396
  649MOL0     H87559  10.711   8.251   2.865  1.1663  1.8847  1.4915
  649MOL0     H87560  10.575   8.046   2.839  0.0512  0.6392  3.1349
  649MOL0     H87561  10.431   8.142   2.876  0.6928 -1.4199  1.3954
  649MOL0     H87562  10.614   8.226   2.651  0.3667  4.2977  0.1965
  649MOL0     H87563  10.473   8.313   2.709 -2.3812 -0.2823 -3.2782
  649MOL0     H87564  10.441   8.169   2.492 -0.3842  3.5518  1.0353
  649MOL0     H87565  10.461   8.026   2.603 -2.8826 -0.5266 -0.1955
  649MOL0     H87566  10.265   8.339   2.545  2.1675  0.2970  0.1431
  649MOL0     H87567  10.063   8.455   2.656  0.1054 -0.0398 -1.9181
  649MOL0     H87568   9.943   8.342   2.586 -0.1311 -1.7705  1.3147
  649MOL0     H87569   9.872   8.474   2.772 -0.8755  0.0794  3.6699
  649MOL0     H87570   9.861   8.300   2.812  2.0736 -1.6847  0.8475
  649MOL0     H87571   9.920   8.490   2.986 -0.4627  0.6175 -1.0254
  649MOL0     H87572  10.079   8.487   2.904  0.5078 -0.2666 -0.7118
  649MOL0     H87573  10.089   8.248   2.954 -0.2616 -0.4897 -0.9246
  649MOL0     H87574   9.935   8.237   3.041 -0.8017  0.8688  0.3706
  649MOL0     H87575  10.093   8.302   3.382 -2.5569 -0.4706 -1.2405
  649MOL0     H87576  10.244   8.164   3.517 -1.4133 -0.4231  0.5137
  649MOL0     H87577  10.608   7.835   3.558 -1.6386  1.9504 -2.0026
  649MOL0     H87578  10.755   7.664   3.615 -2.3548  0.8185  1.2439
  649MOL0     H87579  10.817   7.337   3.313 -1.8266  0.6791  0.7876
  649MOL0     H87580  10.915   7.481   3.354  1.1467  0.8634  4.6582
  649MOL0     H87581  11.061   7.302   3.352 -0.5592 -2.1716 -0.4555
  649MOL0     H87582  11.038   7.351   3.524  2.0476 -2.8891  1.1263
  649MOL0     H87583  10.843   7.127   3.439 -0.3132  2.8310 -0.7714
  649MOL0     H87584  11.012   7.089   3.416  1.7983  1.0328  0.6947
  649MOL0     H87585  10.911   7.218   3.675 -0.8557  1.8861 -3.6832
  649MOL0     H87586  11.066   7.156   3.644  0.5607 -0.6353 -3.0445
  649MOL0     H87587  10.980   6.927   3.652  0.9874 -0.7429  0.3163
  649MOL0     H87588  10.806   6.987   3.642 -0.2689  3.1791  0.0233
  649MOL0     H87589  10.988   7.065   3.880 -0.5045  0.1048  1.3821
  649MOL0     H87590  10.825   7.090   3.859 -0.2847  0.8125 -3.2489
  649MOL0     H87591  10.890   6.888   4.004  3.4055  2.1082  0.6664
  649MOL0     H87592  10.973   6.818   3.867 -2.2486 -4.6719  2.8366
  649MOL0     H87593  10.774   6.780   3.737 -0.0697  1.1753 -0.1199
  649MOL0     H87594  10.751   6.705   3.895  2.0091 -0.3294 -0.5606
  649MOL0     H87595  10.552   7.372   3.401  0.6748 -0.9486  3.2898
  649MOL0     H87596  10.384   7.558   3.311 -0.4854  0.3400 -0.6090
  649MOL0     H87597  10.359   7.958   3.150 -0.5279 -2.8762  3.2679
  649MOL0     H87598  10.249   8.158   3.019 -0.6654  1.9712  0.2517
  649MOL0     H87599  10.845   7.838   3.447  0.1177 -0.8169  0.6655
  649MOL0     H87600  10.998   7.657   3.455 -3.8600  1.6867 -1.8584
  649MOL0     H87601  11.347   7.402   3.373  0.1791 -1.3662  0.3026
  649MOL0     H87602  11.549   7.252   3.396  3.1697 -0.3853 -1.5203
  649MOL0     H87603  11.958   7.337   3.176 -1.9003  2.4919  2.9002
  649MOL0     H87604  11.822   7.315   3.067 -3.9241  0.9810  2.7600
  649MOL0     H87605  11.983   7.113   3.077 -0.6699 -1.1264  0.9362
  649MOL0     H87606  11.805   7.096   3.102  1.6868 -3.0108 -0.3158
  649MOL0     H87607  11.866   7.060   3.342 -0.3017  1.1397 -0.5069
  649MOL0     H87608  12.026   7.089   3.314 -1.3318 -0.7071  3.0043
  649MOL0     H87609  11.875   6.849   3.192 -1.1466  1.0548  0.8555
  649MOL0     H87610  12.042   6.905   3.162 -1.4574  0.5615 -2.3161
  649MOL0     H87611  12.016   6.726   3.559  0.4680  0.3580  0.4432
  649MOL0     H87612  11.775   7.518   3.161 -0.9922  0.9540 -1.7364
  649MOL0     H87613  11.536   7.793   3.170  1.5692  2.3277 -2.3843
  649MOL0     H87614  11.703   7.761   3.147 -0.1918  0.4435 -0.0266
  649MOL0     H87615  11.591   7.719   3.021  0.7840 -2.0263 -0.1526
  650MOL0     O87616   9.505   7.569  10.774 -0.1719  0.0968 -0.1020
  650MOL0     C87617   9.629   7.570  10.746  0.1777 -0.2075  0.3931
  650MOL0     O87618   9.692   7.478  10.675 -1.3305  0.0950  0.5182
  650MOL0     C87619   9.655   7.344  10.684 -0.2856 -0.1897  0.2109
  650MOL0     C87620   9.523   7.292  10.693  0.2346 -0.9963  0.7953
  650MOL0     C87621   9.494   7.156  10.672 -0.3078  1.3161  0.1462
  650MOL0     C87622   9.604   7.067  10.673 -0.0181  0.6538 -0.4812
  650MOL0     O87623   9.580   6.932  10.679  0.6971 -0.1775 -0.2207
  650MOL0     C87624   9.567   6.877  10.810 -0.0908  0.0123  0.3271
  650MOL0     C87625   9.505   6.741  10.820 -0.1588  0.2132  0.7264
  650MOL0     C87626   9.363   6.758  10.753  0.0846  0.4054 -0.0663
  650MOL0     C87627   9.264   6.630  10.763  0.0456 -0.0918  0.2374
  650MOL0     C87628   9.174   6.615  10.643  0.5311  1.3394  0.9948
  650MOL0     C87629   9.091   6.482  10.634 -0.4808 -0.2662  0.0540
  650MOL0     C87630   9.030   6.453  10.502 -0.5802 -0.3928 -0.1317
  650MOL0     C87631   9.139   6.395  10.418 -0.2613 -0.4147 -0.2457
  650MOL0     N87632   9.117   6.414  10.276 -0.5392 -0.8252 -0.4916
  650MOL0     C87633   9.220   6.424  10.187 -0.1569 -0.0706  0.7577
  650MOL0     C87634   9.157   6.442  10.071  0.3107  0.3897  0.2514
  650MOL0     C87635   9.234   6.461   9.934 -0.5306 -0.3405  0.0463
  650MOL0     C87636   9.161   6.568   9.857  1.0412 -0.2184 -0.2470
  650MOL0     C87637   9.222   6.614   9.720 -0.3122  0.0461  0.4513
  650MOL0     C87638   9.362   6.676   9.736  0.3454  1.0064  0.7133
  650MOL0     O87639   9.469   6.584   9.770 -0.7416  0.1969 -0.1439
  650MOL0     C87640   9.574   6.644   9.840  0.2980  0.8019 -0.0688
  650MOL0     C87641   9.672   6.554   9.864  0.0432  0.0866  0.3412
  650MOL0     C87642   9.794   6.587   9.922 -0.0575  0.8428 -0.0497
  650MOL0     C87643   9.816   6.718   9.967 -0.0694  0.6335 -0.1785
  650MOL0     C87644   9.937   6.763  10.037 -0.3340 -0.4171  1.2831
  650MOL0     O87645   9.986   6.888  10.008  0.2110 -0.1930 -0.6928
  650MOL0     C87646  10.113   6.929  10.060 -0.3954 -0.3385  0.1103
  650MOL0     C87647  10.114   7.053  10.112  0.0752  0.4561 -0.5451
  650MOL0     C87648  10.236   7.104  10.171  0.3202 -0.0209 -0.3719
  650MOL0     C87649  10.355   7.032  10.168  0.4018 -0.1773  0.7463
  650MOL0     O87650  10.467   7.095  10.211  0.3930  0.4523  0.7298
  650MOL0     C87651  10.565   7.031  10.293  0.3823 -0.3923  0.0258
  650MOL0     C87652  10.669   7.127  10.332 -0.2588  0.6146  0.3806
  650MOL0     C87653  10.604   7.207  10.453 -0.0850 -0.1295 -0.2932
  650MOL0     C87654  10.702   7.300  10.519 -0.2900 -0.3070  0.8665
  650MOL0     C87655  10.630   7.359  10.645 -0.8997  0.6799  0.2526
  650MOL0     C87656  10.520   7.467  10.613 -0.2130 -0.1152  0.4593
  650MOL0     C87657  10.569   7.609  10.557 -0.6175  0.1090 -0.3209
  650MOL0     C87658  10.682   7.680  10.637  1.1483 -0.2672 -0.3990
  650MOL0    Cl87659  10.714   7.847  10.586 -0.1359  0.0736  0.3282
  650MOL0     C87660  10.352   6.902  10.115 -0.0012  0.2831 -0.7208
  650MOL0     C87661  10.231   6.855  10.067  0.2241  0.6254  0.2636
  650MOL0     O87662  10.004   6.676  10.102 -0.0755 -0.4142  0.0025
  650MOL0     C87663   9.704   6.808   9.944 -0.5955  0.2225 -0.0790
  650MOL0     C87664   9.582   6.778   9.883  0.1342 -0.0973 -0.4632
  650MOL0     N87665   9.016   6.467  10.094 -0.3319  0.3600 -0.0452
  650MOL0     N87666   8.993   6.431  10.217 -0.4287 -0.3116 -0.3913
  650MOL0     C87667   9.728   7.116  10.653 -1.3672 -0.0961 -0.5108
  650MOL0     C87668   9.757   7.248  10.650 -0.1699 -0.3437  0.5947
  650MOL0     C87669   9.712   7.689  10.790  0.0552  0.1742  0.2380
  650MOL0     C87670   9.821   7.650  10.875  0.4791 -0.8775  0.3612
  650MOL0     C87671   9.912   7.752  10.914  0.0623  0.0657  0.4407
  650MOL0     C87672   9.892   7.886  10.899 -0.6937 -0.2827  0.3284
  650MOL0     O87673   9.979   7.973  10.964  0.3834  0.5367 -0.3506
  650MOL0     C87674   9.922   8.105  11.000  0.6845 -0.0710 -0.3580
  650MOL0     C87675   9.985   8.210  10.908  0.6104  1.0973  0.4510
  650MOL0     C87676  10.122   8.252  10.961  0.6704 -1.1615 -0.1436
  650MOL0     C87677  10.124   8.329  11.096 -0.1710  0.5275 -0.6239
  650MOL0     C87678  10.029   8.436  11.101 -0.7238  0.0708  0.1005
  650MOL0     C87679   9.948   8.521  11.098 -0.3135 -0.0143  0.2401
  650MOL0     C87680   9.779   7.919  10.818 -0.6470  0.8005  0.6633
  650MOL0     C87681   9.687   7.825  10.767  0.1175 -0.7375  0.0047
  650MOL0     C87682   9.579   7.869  10.674  1.0955 -0.5630 -0.3783
  650MOL0     H87683   9.436   7.355  10.674  0.0298 -2.1201 -2.7705
  650MOL0     H87684   9.410   7.088  10.665  0.3371  0.5691 -0.5535
  650MOL0     H87685   9.665   6.854  10.853  0.8497 -0.1676 -1.8294
  650MOL0     H87686   9.506   6.944  10.871 -1.3433 -0.3574 -0.4720
  650MOL0     H87687   9.505   6.701  10.922 -1.9612  0.9528  1.0599
  650MOL0     H87688   9.563   6.677  10.753 -1.0504  1.3925 -1.2468
  650MOL0     H87689   9.367   6.781  10.646 -1.7453 -2.5733 -0.9225
  650MOL0     H87690   9.300   6.831  10.805  2.6811  2.1220  0.8302
  650MOL0     H87691   9.337   6.549  10.768 -0.2619 -0.3889 -0.0289
  650MOL0     H87692   9.204   6.644  10.853 -0.6552 -0.9218 -0.0860
  650MOL0     H87693   9.096   6.692  10.646 -0.8532  0.0291  0.3916
  650MOL0     H87694   9.236   6.614  10.553 -1.6845 -1.0084 -0.6546
  650MOL0     H87695   9.157   6.399  10.661  2.9547  1.0978 -3.2172
  650MOL0     H87696   9.009   6.496  10.705  1.5926  0.2664  2.4603
  650MOL0     H87697   8.998   6.546  10.454 -0.3525  0.7791  1.8485
  650MOL0     H87698   8.950   6.379  10.512  0.3707 -1.3504  0.6751
  650MOL0     H87699   9.238   6.433  10.446 -1.3287  2.7357 -0.3580
  650MOL0     H87700   9.128   6.287  10.433 -2.2254 -0.5452 -2.1663
  650MOL0     H87701   9.327   6.405  10.191  0.7817  3.6153 -1.9688
  650MOL0     H87702   9.341   6.472   9.951 -0.8330 -1.4028  3.4231
  650MOL0     H87703   9.227   6.375   9.867 -1.2609 -2.2803  2.4683
  650MOL0     H87704   9.058   6.533   9.845  0.4413  0.6858  1.7859
  650MOL0     H87705   9.159   6.666   9.905  2.9023  0.0099 -0.5946
  650MOL0     H87706   9.153   6.682   9.669 -1.4514 -0.7771  0.8471
  650MOL0     H87707   9.235   6.522   9.662  3.5907 -0.3823  1.7184
  650MOL0     H87708   9.352   6.754   9.812  0.5949  1.7330  0.0121
  650MOL0     H87709   9.381   6.731   9.644  0.3039 -0.3659 -0.1420
  650MOL0     H87710   9.661   6.451   9.833  2.1962 -0.2699  0.6313
  650MOL0     H87711   9.876   6.516   9.928  0.8781  1.9905  1.2905
  650MOL0     H87712  10.022   7.110  10.110 -0.0238  0.3216 -0.0178
  650MOL0     H87713  10.243   7.203  10.215  0.8268  0.0232 -0.5410
  650MOL0     H87714  10.527   6.975  10.379  0.9310 -0.9412 -0.0765
  650MOL0     H87715  10.613   6.953  10.233 -1.7864  1.6561 -4.9141
  650MOL0     H87716  10.755   7.064  10.355  0.2175  0.3711 -1.8666
  650MOL0     H87717  10.703   7.196  10.255 -0.4386  1.2031  0.8261
  650MOL0     H87718  10.516   7.263  10.420 -3.0838 -2.6626  2.6816
  650MOL0     H87719  10.560   7.137  10.524 -0.4214 -0.3572 -0.7178
  650MOL0     H87720  10.727   7.379  10.447 -2.5135 -0.9054 -0.6563
  650MOL0     H87721  10.791   7.241  10.541 -1.2676 -1.2745  2.4205
  650MOL0     H87722  10.702   7.412  10.708 -1.1561 -1.4317  2.4881
  650MOL0     H87723  10.581   7.287  10.711  0.3841 -0.3262  0.1308
  650MOL0     H87724  10.438   7.441  10.545  0.1314  4.3876 -2.0479
  650MOL0     H87725  10.466   7.499  10.703 -3.3503 -0.9963 -0.9566
  650MOL0     H87726  10.483   7.674  10.568  2.1542  3.8302  1.5233
  650MOL0     H87727  10.589   7.583  10.452 -2.6215 -3.4196  0.0238
  650MOL0     H87728  10.648   7.674  10.741  0.0474 -1.6631 -0.8037
  650MOL0     H87729  10.770   7.617  10.623  0.4549 -0.8800 -2.3288
  650MOL0     H87730  10.439   6.839  10.100 -1.8727 -2.7476  0.4535
  650MOL0     H87731  10.245   6.756  10.024 -0.1049  0.5749  0.2661
  650MOL0     H87732   9.718   6.913   9.968  2.5390 -0.2738  0.8004
  650MOL0     H87733   9.512   6.859   9.864 -0.2966 -0.0401  1.1921
  650MOL0     H87734   9.813   7.048  10.646 -0.6669  0.2474  2.9166
  650MOL0     H87735   9.852   7.296  10.630 -0.8074  1.4031  1.5053
  650MOL0     H87736   9.848   7.550  10.908  0.5624 -0.4674  1.5758
  650MOL0     H87737   9.997   7.716  10.971 -1.5795 -0.3090  2.8020
  650MOL0     H87738   9.945   8.119  11.106  0.4867  1.9688 -0.5346
  650MOL0     H87739   9.814   8.106  10.985  0.1390  1.0320  2.8692
  650MOL0     H87740   9.910   8.289  10.894 -0.0325  0.5946  1.0083
  650MOL0     H87741   9.998   8.166  10.809 -4.2511  0.8685 -0.3578
  650MOL0     H87742  10.175   8.310  10.885  1.2313 -2.5994 -0.8962
  650MOL0     H87743  10.175   8.156  10.966 -2.4294 -3.0865 -1.4055
  650MOL0     H87744  10.104   8.270  11.186  2.1588 -0.3651 -0.6194
  650MOL0     H87745  10.224   8.371  11.111  0.2605 -0.1322 -1.5628
  650MOL0     H87746   9.872   8.589  11.066 -2.0528 -1.8746  0.2263
  650MOL0     H87747   9.758   8.023  10.794 -2.4079  0.5460  0.9910
  650MOL0     H87748   9.486   7.845  10.728  2.5033 -1.1741  1.9276
  650MOL0     H87749   9.598   7.975  10.657 -1.6311  0.7416  3.2370
  650MOL0     H87750   9.587   7.815  10.580 -3.6267 -2.0214 -0.2057
  651MOL0     O87751   6.977   7.699   4.535 -0.1859  0.4276  0.4079
  651MOL0     C87752   7.001   7.622   4.444 -0.4946  0.8815 -0.2991
  651MOL0     O87753   7.112   7.616   4.354  0.2906  0.0362 -0.1287
  651MOL0     C87754   7.230   7.682   4.386  0.0073  0.1630 -0.0933
  651MOL0     C87755   7.279   7.690   4.517 -0.4570 -0.5692 -0.5525
  651MOL0     C87756   7.404   7.754   4.537  0.1800 -0.8864 -0.0311
  651MOL0     C87757   7.480   7.811   4.432 -0.6977  0.1548  0.4266
  651MOL0     O87758   7.605   7.866   4.452 -0.1214  0.2080  0.7336
  651MOL0     C87759   7.655   7.965   4.355  0.5537  0.1120 -0.7243
  651MOL0     C87760   7.790   8.007   4.405  0.2292 -0.0357  0.1566
  651MOL0     C87761   7.891   8.051   4.297 -0.8417 -0.2643  0.2405
  651MOL0     C87762   8.032   8.076   4.355  0.5094 -0.0802  0.0780
  651MOL0     C87763   8.044   8.184   4.455 -0.5162 -1.2411  0.1906
  651MOL0     C87764   8.020   8.148   4.599 -0.7994 -0.0734  0.0608
  651MOL0     C87765   8.005   8.274   4.697  0.4304 -0.8357 -0.3040
  651MOL0     C87766   8.133   8.367   4.695  0.5762 -0.9079 -1.2961
  651MOL0     N87767   8.250   8.287   4.733 -0.0522 -0.1982  0.0333
  651MOL0     C87768   8.265   8.195   4.837 -0.4759  0.2815 -0.7697
  651MOL0     C87769   8.383   8.128   4.793  0.1416  0.0134 -0.0045
  651MOL0     C87770   8.441   8.011   4.866  0.2902  1.5728  0.1520
  651MOL0     C87771   8.496   8.055   4.999 -0.8053 -0.3358 -0.7598
  651MOL0     C87772   8.550   7.932   5.072 -0.2425 -0.2006 -0.8075
  651MOL0     C87773   8.650   7.833   5.010 -0.6150 -0.1371 -0.5825
  651MOL0     O87774   8.758   7.916   4.955  0.2174  0.4972 -0.4316
  651MOL0     C87775   8.802   7.877   4.830  0.1638 -0.0587  0.0683
  651MOL0     C87776   8.745   7.809   4.728  0.9286 -0.1409  0.5882
  651MOL0     C87777   8.810   7.774   4.605 -0.7527  1.5671 -0.7772
  651MOL0     C87778   8.942   7.816   4.578 -0.4909  1.0657  0.5880
  651MOL0     C87779   9.013   7.785   4.454  0.1196 -0.0441  0.4659
  651MOL0     O87780   9.146   7.780   4.462 -0.4880  0.9060  0.0138
  651MOL0     C87781   9.215   7.751   4.346  0.0596 -0.5756  1.4606
  651MOL0     C87782   9.205   7.814   4.215  0.4991  0.6728  0.1934
  651MOL0     C87783   9.278   7.767   4.104 -0.1991  0.0111 -0.0188
  651MOL0     C87784   9.361   7.654   4.112 -0.0830  0.5237  0.4175
  651MOL0     O87785   9.418   7.608   3.999 -0.4302  0.2861 -0.4642
  651MOL0     C87786   9.488   7.482   4.010 -0.1726  0.3139 -0.3737
  651MOL0     C87787   9.555   7.454   3.881  0.1266  0.4808 -0.2564
  651MOL0     C87788   9.694   7.524   3.889  0.7705 -0.6307 -0.6060
  651MOL0     C87789   9.757   7.562   3.751  0.7903 -0.5500 -1.0771
  651MOL0     C87790   9.891   7.626   3.764  0.3731  0.6380 -0.8108
  651MOL0     C87791  10.003   7.524   3.738 -1.2008  0.3128 -0.6767
  651MOL0     C87792  10.132   7.572   3.802 -0.4885 -0.3080 -0.3046
  651MOL0     C87793  10.224   7.456   3.836  0.2304 -0.3478  0.1961
  651MOL0    Cl87794  10.375   7.514   3.903  0.2318 -0.2933 -0.0629
  651MOL0     C87795   9.360   7.594   4.240  0.0519 -0.2234  0.8400
  651MOL0     C87796   9.291   7.634   4.354 -0.3351 -0.8635  0.2865
  651MOL0     O87797   8.942   7.765   4.351 -0.4630  0.3175 -0.4391
  651MOL0     C87798   8.999   7.878   4.692 -0.0204  0.2291  0.1545
  651MOL0     C87799   8.930   7.913   4.802 -0.2572  0.4236 -0.0328
  651MOL0     N87800   8.431   8.204   4.684 -0.4561 -0.0437  0.2662
  651MOL0     N87801   8.356   8.303   4.657 -0.1282  0.4785  0.0555
  651MOL0     C87802   7.430   7.799   4.305  0.0248 -0.3693 -0.2268
  651MOL0     C87803   7.318   7.735   4.284  1.0090 -0.6439  0.3735
  651MOL0     C87804   6.886   7.539   4.393 -0.5466  0.5346 -0.9141
  651MOL0     C87805   6.779   7.599   4.353  0.5633  0.7470  0.3705
  651MOL0     C87806   6.671   7.516   4.319 -0.8400 -0.3065 -0.6414
  651MOL0     C87807   6.670   7.371   4.331  0.9406  0.0304  0.8027
  651MOL0     O87808   6.560   7.290   4.294 -0.4516  0.2678  0.2877
  651MOL0     C87809   6.431   7.335   4.319  0.3541  0.5470 -0.5740
  651MOL0     C87810   6.333   7.217   4.316 -0.0321 -0.2686  0.9833
  651MOL0     C87811   6.298   7.170   4.458 -0.0428 -0.0238 -0.3181
  651MOL0     C87812   6.427   7.156   4.540  0.0798 -0.1291  0.6131
  651MOL0     C87813   6.390   7.072   4.658  0.1206  0.2132 -0.6377
  651MOL0     C87814   6.355   6.995   4.744  0.4247 -0.3488 -0.0011
  651MOL0     C87815   6.796   7.315   4.367  0.7622 -0.6846 -0.0608
  651MOL0     C87816   6.901   7.400   4.404  0.3618 -0.3628  0.5116
  651MOL0     C87817   7.027   7.324   4.436  0.0464 -0.5020 -0.5706
  651MOL0     H87818   7.222   7.637   4.593 -0.0969  0.3608  0.3934
  651MOL0     H87819   7.458   7.760   4.630  4.6398  2.0787 -2.4456
  651MOL0     H87820   7.675   7.905   4.265  0.9148 -2.7424  1.1137
  651MOL0     H87821   7.589   8.052   4.350  0.6187  0.1216 -1.7208
  651MOL0     H87822   7.830   7.918   4.455 -2.0814 -1.1656  0.0960
  651MOL0     H87823   7.781   8.082   4.485  2.9920 -0.3338  0.8808
  651MOL0     H87824   7.866   8.144   4.244 -1.3202 -0.8899 -0.6640
  651MOL0     H87825   7.908   7.969   4.227  1.6728 -0.4406  0.9747
  651MOL0     H87826   8.066   7.984   4.404 -2.7350 -1.7560 -0.5377
  651MOL0     H87827   8.106   8.095   4.277 -1.9747 -1.2435 -2.7698
  651MOL0     H87828   8.141   8.234   4.448 -1.4775  1.0383  1.7593
  651MOL0     H87829   7.976   8.264   4.422  2.2749  0.6370 -1.5201
  651MOL0     H87830   7.933   8.084   4.617 -0.2646 -2.3369 -4.0334
  651MOL0     H87831   8.110   8.094   4.631  0.7629  0.5403 -2.9004
  651MOL0     H87832   7.980   8.248   4.800 -0.8101  0.2534 -0.3061
  651MOL0     H87833   7.925   8.339   4.661  0.0166 -2.2466 -2.1001
  651MOL0     H87834   8.148   8.433   4.609  1.1372 -0.8045 -1.1223
  651MOL0     H87835   8.122   8.444   4.772 -2.1719  0.6939 -3.1162
  651MOL0     H87836   8.205   8.156   4.918 -2.5027  2.0308 -1.3281
  651MOL0     H87837   8.372   7.929   4.887  2.1938  0.1304  1.1520
  651MOL0     H87838   8.521   7.966   4.806  0.2780 -1.1478  1.9638
  651MOL0     H87839   8.586   8.114   4.979 -0.9280  0.3151  0.5238
  651MOL0     H87840   8.430   8.114   5.063  0.2954  0.1766 -0.0522
  651MOL0     H87841   8.464   7.869   5.097 -0.3144  0.3953  0.5141
  651MOL0     H87842   8.593   7.954   5.171  0.5816 -2.1485 -0.6816
  651MOL0     H87843   8.606   7.763   4.939 -0.0739  0.1148 -1.1713
  651MOL0     H87844   8.689   7.787   5.102  0.5730 -2.6449 -2.2215
  651MOL0     H87845   8.642   7.783   4.746  1.0478 -0.7018  0.4641
  651MOL0     H87846   8.754   7.708   4.540  1.3077 -1.1815  0.0751
  651MOL0     H87847   9.136   7.896   4.198 -0.0363  0.3147  0.6057
  651MOL0     H87848   9.250   7.808   4.008 -1.9174 -1.3652 -0.1680
  651MOL0     H87849   9.570   7.488   4.082  0.7476  2.3865 -1.5310
  651MOL0     H87850   9.414   7.405   4.035 -1.4677  1.4301 -0.6275
  651MOL0     H87851   9.563   7.345   3.875  0.3848  0.4676  0.2280
  651MOL0     H87852   9.506   7.490   3.791 -0.4180 -1.5489 -0.8204
  651MOL0     H87853   9.690   7.615   3.950 -0.5391 -1.8250  1.1892
  651MOL0     H87854   9.762   7.456   3.941 -1.5949 -2.1862  0.6280
  651MOL0     H87855   9.689   7.632   3.701  0.6444 -0.4038 -0.6832
  651MOL0     H87856   9.767   7.467   3.699  0.4482 -0.5561 -1.1328
  651MOL0     H87857   9.902   7.670   3.863 -0.9099 -1.0409  0.1376
  651MOL0     H87858   9.902   7.712   3.696  2.1438  1.5063  0.4946
  651MOL0     H87859   9.977   7.428   3.785  1.4685 -1.0835 -1.7921
  651MOL0     H87860  10.006   7.500   3.631 -4.0192 -0.1769 -0.7046
  651MOL0     H87861  10.110   7.623   3.897  0.8516 -0.6154  0.1903
  651MOL0     H87862  10.185   7.625   3.723 -1.0956  1.4562  0.4117
  651MOL0     H87863  10.173   7.378   3.893 -0.4841 -0.2567 -0.3019
  651MOL0     H87864  10.260   7.409   3.744 -2.2254 -0.4357 -0.8097
  651MOL0     H87865   9.418   7.502   4.244  0.2203 -0.0761  2.1472
  651MOL0     H87866   9.307   7.587   4.451  3.3743 -0.5574 -0.0480
  651MOL0     H87867   9.106   7.891   4.687 -0.0782  1.6824  1.8781
  651MOL0     H87868   8.993   7.957   4.879 -2.2482 -0.8934  2.4915
  651MOL0     H87869   7.482   7.838   4.218 -1.4539  2.1483 -0.0961
  651MOL0     H87870   7.287   7.725   4.180  1.3588  0.1871  0.1804
  651MOL0     H87871   6.770   7.707   4.349  3.2149  1.0149 -1.1475
  651MOL0     H87872   6.578   7.563   4.288 -0.3980  1.5016  0.5676
  651MOL0     H87873   6.401   7.407   4.242 -1.4289  2.9362  2.1435
  651MOL0     H87874   6.416   7.387   4.414 -2.8009  2.8438 -2.1208
  651MOL0     H87875   6.368   7.131   4.258 -0.9924 -0.1801  0.2336
  651MOL0     H87876   6.250   7.255   4.255  2.6825  2.2294 -1.4377
  651MOL0     H87877   6.253   7.071   4.445  2.5171 -1.3794  0.4881
  651MOL0     H87878   6.229   7.243   4.501  0.8634  2.2240 -2.4204
  651MOL0     H87879   6.509   7.111   4.484 -0.7266  2.2287 -2.7610
  651MOL0     H87880   6.458   7.253   4.578  1.8533 -0.4085 -0.0586
  651MOL0     H87881   6.306   6.937   4.820  3.1260  0.0692  2.2029
  651MOL0     H87882   6.805   7.207   4.365 -0.6950 -0.8562  1.0089
  651MOL0     H87883   7.114   7.387   4.459  0.9035 -1.1803 -1.8108
  651MOL0     H87884   7.005   7.279   4.533 -1.8727 -1.5812 -1.4540
  651MOL0     H87885   7.055   7.246   4.365  1.5656  2.0654 -2.9760
  652MOL0     O87886   1.102   6.852   5.597 -0.1552  0.5068 -0.4728
  652MOL0     C87887   0.978   6.879   5.601  0.1036  0.1392 -0.2500
  652MOL0     O87888   0.918   6.976   5.529 -0.1444 -0.0451  0.2547
  652MOL0     C87889   1.001   7.073   5.465  0.3288  0.3579  0.2465
  652MOL0     C87890   1.013   7.203   5.513  0.1456  0.1978  0.3131
  652MOL0     C87891   1.103   7.294   5.466 -0.5770 -0.5055  0.3596
  652MOL0     C87892   1.192   7.250   5.364 -0.2705  0.6000  0.8901
  652MOL0     O87893   1.294   7.330   5.316  0.3787 -0.3538  0.8246
  652MOL0     C87894   1.426   7.286   5.346 -0.1143 -0.4769  0.1474
  652MOL0     C87895   1.463   7.325   5.493 -0.3999 -0.0232  0.4929
  652MOL0     C87896   1.563   7.240   5.568 -0.2071 -0.3679  0.7618
  652MOL0     C87897   1.696   7.237   5.490 -0.6644  0.1275 -0.1847
  652MOL0     C87898   1.788   7.133   5.554  0.6205 -0.0689 -0.0608
  652MOL0     C87899   1.764   7.000   5.485  0.2844 -0.3422  1.5587
  652MOL0     C87900   1.858   6.894   5.538 -0.5057  0.0136  0.1900
  652MOL0     C87901   2.013   6.922   5.546 -0.2990 -0.6546  0.1445
  652MOL0     N87902   2.058   6.925   5.401  0.9989 -0.8069 -0.9267
  652MOL0     C87903   2.141   6.834   5.344 -0.7730 -0.0249 -0.1295
  652MOL0     C87904   2.140   6.879   5.215  0.9908 -0.4170 -0.0749
  652MOL0     C87905   2.217   6.812   5.108  0.0082  0.1939  0.3129
  652MOL0     C87906   2.336   6.898   5.060 -0.1228  0.6185 -0.6438
  652MOL0     C87907   2.460   6.916   5.161  0.2117  0.1607  0.7583
  652MOL0     C87908   2.492   6.786   5.247  0.0360  0.4627  0.2127
  652MOL0     O87909   2.630   6.777   5.271  0.6352 -0.0213  0.4884
  652MOL0     C87910   2.710   6.685   5.205  0.1544  0.1208  0.5300
  652MOL0     C87911   2.751   6.558   5.264  1.3341 -0.9983  0.2983
  652MOL0     C87912   2.841   6.479   5.199  0.2348 -0.4577 -0.9334
  652MOL0     C87913   2.880   6.515   5.063  0.5474  0.3346 -0.0221
  652MOL0     C87914   2.961   6.418   4.985 -0.4653  0.4645 -0.1917
  652MOL0     O87915   2.996   6.453   4.855  0.9175 -0.8468 -0.1794
  652MOL0     C87916   3.072   6.362   4.785  0.0597 -0.5662  0.3047
  652MOL0     C87917   3.014   6.307   4.669 -0.3651 -0.7732 -0.0382
  652MOL0     C87918   3.095   6.234   4.576 -0.2364 -0.3395 -0.0786
  652MOL0     C87919   3.225   6.203   4.617  0.3364 -0.5992  0.1872
  652MOL0     O87920   3.311   6.125   4.537 -0.0551 -0.0241 -0.5532
  652MOL0     C87921   3.374   6.008   4.608  0.1217  0.3857  0.3798
  652MOL0     C87922   3.487   5.958   4.512  0.1413 -0.0251 -0.0085
  652MOL0     C87923   3.602   6.056   4.493  0.0684  0.2209 -0.7152
  652MOL0     C87924   3.721   5.983   4.417 -0.6929 -0.3136  0.9041
  652MOL0     C87925   3.860   6.067   4.428  0.4034  0.0461  0.7912
  652MOL0     C87926   3.858   6.160   4.301 -0.2907  0.5762  0.8712
  652MOL0     C87927   3.945   6.288   4.330 -0.1785 -0.1481  0.0978
  652MOL0     C87928   3.994   6.352   4.203  0.3767 -0.3759 -0.2578
  652MOL0    Cl87929   4.130   6.253   4.145  0.3417 -0.1010  0.3093
  652MOL0     C87930   3.276   6.260   4.729 -0.0251  0.5087  0.9276
  652MOL0     C87931   3.206   6.354   4.811 -0.1109  0.1263  0.4797
  652MOL0     O87932   2.997   6.315   5.040  0.4930  0.3319 -0.0398
  652MOL0     C87933   2.835   6.630   5.014  0.4272 -0.1357  0.4126
  652MOL0     C87934   2.752   6.714   5.078 -0.7346  0.4676 -0.0728
  652MOL0     N87935   2.078   6.998   5.196 -0.0680 -0.5198  0.3755
  652MOL0     N87936   2.028   7.030   5.318  0.5180  0.3341  0.7534
  652MOL0     C87937   1.173   7.128   5.302  0.3642 -0.1568 -1.0016
  652MOL0     C87938   1.078   7.042   5.356 -1.2623  0.3893  0.4425
  652MOL0     C87939   0.885   6.819   5.700 -0.9618  0.0475 -0.9619
  652MOL0     C87940   0.761   6.876   5.733  0.5248 -0.8274 -0.1622
  652MOL0     C87941   0.672   6.826   5.828 -0.4227 -0.5400 -0.8088
  652MOL0     C87942   0.714   6.715   5.905 -0.2920  0.2586  0.1850
  652MOL0     O87943   0.627   6.670   6.000 -0.5124  0.1266  0.7310
  652MOL0     C87944   0.601   6.759   6.108 -0.9791 -0.4899 -1.2149
  652MOL0     C87945   0.455   6.794   6.127  0.1712 -0.1456 -0.0237
  652MOL0     C87946   0.449   6.921   6.210 -0.1284  0.0901 -0.0439
  652MOL0     C87947   0.412   7.046   6.134  0.2068  1.0060 -0.4659
  652MOL0     C87948   0.295   7.040   6.044  0.7174  0.5240 -0.3888
  652MOL0     C87949   0.198   7.029   5.973  0.1276  0.6046 -0.7475
  652MOL0     C87950   0.834   6.647   5.869 -0.3281 -1.0294 -0.4491
  652MOL0     C87951   0.925   6.700   5.772  0.2008 -0.6259  0.3280
  652MOL0     C87952   1.053   6.621   5.756 -0.1024  1.7093  0.4788
  652MOL0     H87953   0.962   7.237   5.603  0.1289 -1.2641  0.8858
  652MOL0     H87954   1.110   7.386   5.522 -2.9048 -1.5603  2.5616
  652MOL0     H87955   1.428   7.176   5.344 -1.1284 -0.5485  1.5411
  652MOL0     H87956   1.496   7.323   5.271  1.2707  1.0600  2.0744
  652MOL0     H87957   1.374   7.328   5.556  0.6733 -0.5601  2.0905
  652MOL0     H87958   1.490   7.431   5.497 -1.4821  0.3869 -1.5548
  652MOL0     H87959   1.523   7.140   5.590 -0.3907 -0.4492  0.0797
  652MOL0     H87960   1.587   7.282   5.666  0.8056 -0.0502  0.3810
  652MOL0     H87961   1.688   7.218   5.383  2.9289 -0.1202 -0.5255
  652MOL0     H87962   1.741   7.336   5.504  0.7770 -0.4675 -0.4741
  652MOL0     H87963   1.891   7.166   5.539  1.1450 -1.5465  0.1286
  652MOL0     H87964   1.771   7.125   5.662  1.4014  1.0917  0.1674
  652MOL0     H87965   1.667   6.962   5.517  1.1178 -1.0022  3.4146
  652MOL0     H87966   1.768   7.012   5.376  3.1236 -0.7586  1.5579
  652MOL0     H87967   1.840   6.808   5.473  0.2545  1.4976 -2.1022
  652MOL0     H87968   1.823   6.869   5.639 -0.1215 -1.2784  0.0195
  652MOL0     H87969   2.025   7.020   5.593 -0.2561 -1.2352  1.4000
  652MOL0     H87970   2.060   6.838   5.598 -1.2124 -1.1331  0.2163
  652MOL0     H87971   2.195   6.748   5.382 -1.3330 -1.0121 -1.4566
  652MOL0     H87972   2.259   6.717   5.142 -0.9980 -0.2875  0.2386
  652MOL0     H87973   2.145   6.788   5.029  1.8051  3.1984 -2.5419
  652MOL0     H87974   2.367   6.857   4.964  0.5664 -1.2599  0.3421
  652MOL0     H87975   2.307   7.003   5.045 -0.5928  0.7384  0.8936
  652MOL0     H87976   2.423   6.988   5.233  3.3272  2.1881  0.4833
  652MOL0     H87977   2.553   6.936   5.107  0.5718 -3.1232 -0.1062
  652MOL0     H87978   2.461   6.699   5.188 -0.8407  2.0591 -1.7990
  652MOL0     H87979   2.437   6.783   5.342  2.5248 -1.4227  1.7343
  652MOL0     H87980   2.726   6.523   5.364 -1.6506  0.0351 -0.0098
  652MOL0     H87981   2.892   6.399   5.251  0.4549 -0.3380 -0.9606
  652MOL0     H87982   2.913   6.326   4.635 -0.2251 -1.1159 -0.6635
  652MOL0     H87983   3.064   6.196   4.480 -0.4507  2.2721 -1.1324
  652MOL0     H87984   3.412   6.032   4.708  1.9433  0.1395 -0.2211
  652MOL0     H87985   3.302   5.926   4.613 -1.2729  1.5148 -0.4968
  652MOL0     H87986   3.540   5.871   4.552  0.5449 -0.5189 -1.5419
  652MOL0     H87987   3.450   5.929   4.413  1.1220 -0.1596 -0.3434
  652MOL0     H87988   3.584   6.145   4.434  3.1004  0.4689 -1.4352
  652MOL0     H87989   3.634   6.087   4.593  0.5795 -0.4653 -0.6576
  652MOL0     H87990   3.706   5.968   4.310  1.9504 -3.5402  0.8433
  652MOL0     H87991   3.732   5.889   4.470  1.8185  0.6370  2.2239
  652MOL0     H87992   3.951   6.007   4.439 -0.8611 -2.7571 -2.3048
  652MOL0     H87993   3.866   6.132   4.516 -1.0439  2.0761 -0.5288
  652MOL0     H87994   3.895   6.107   4.213 -2.2013  0.8580 -0.1422
  652MOL0     H87995   3.755   6.179   4.270  0.1016 -1.4169 -2.0514
  652MOL0     H87996   4.034   6.271   4.391  0.3769  0.5046 -0.5147
  652MOL0     H87997   3.871   6.357   4.373 -2.0481 -2.4342  0.7507
  652MOL0     H87998   3.915   6.353   4.128 -0.6125 -0.1308  0.7597
  652MOL0     H87999   4.041   6.448   4.225  3.7342 -1.2084 -2.9831
  652MOL0     H88000   3.380   6.238   4.750  0.2023 -0.8927 -1.3914
  652MOL0     H88001   3.254   6.397   4.898 -1.2394 -0.8370  1.6192
  652MOL0     H88002   2.862   6.660   4.913  0.2584  0.6110  0.5819
  652MOL0     H88003   2.711   6.806   5.038  1.2185  1.2390 -0.4122
  652MOL0     H88004   1.231   7.097   5.216  0.7933  0.4934 -0.9571
  652MOL0     H88005   1.064   6.946   5.306 -1.2605 -0.1236  1.3935
  652MOL0     H88006   0.730   6.966   5.681 -2.1386 -1.8493 -0.5223
  652MOL0     H88007   0.579   6.876   5.851  0.2119 -0.6230  2.2697
  652MOL0     H88008   0.658   6.852   6.094 -0.8207 -0.8370 -3.2942
  652MOL0     H88009   0.647   6.705   6.191 -1.5223 -2.1903 -1.9797
  652MOL0     H88010   0.417   6.705   6.178  1.0559 -0.7801 -0.4281
  652MOL0     H88011   0.408   6.797   6.028  2.0419 -3.9593 -1.2272
  652MOL0     H88012   0.545   6.934   6.262 -0.0052 -2.3787  0.4466
  652MOL0     H88013   0.364   6.909   6.278 -1.4078 -1.2011 -1.7839
  652MOL0     H88014   0.412   7.132   6.202  2.9294 -0.6378  1.8736
  652MOL0     H88015   0.494   7.059   6.063  0.9109 -0.4241  0.0375
  652MOL0     H88016   0.104   6.999   5.932 -0.1349  0.1058  0.2039
  652MOL0     H88017   0.851   6.559   5.930  0.2362 -0.4716  0.2125
  652MOL0     H88018   1.084   6.605   5.653  1.5700 -1.3180  1.3293
  652MOL0     H88019   1.127   6.672   5.818 -0.4325 -0.4691  2.8741
  652MOL0     H88020   1.043   6.518   5.792 -1.7841  2.2017  1.5348
  653MOL0     O88021  11.126  10.366   3.187  0.5801 -0.2694 -0.9248
  653MOL0     C88022  11.008  10.397   3.157 -0.5695  0.4229  0.4586
  653MOL0     O88023  10.938  10.500   3.214 -1.0673  0.3249  0.4971
  653MOL0     C88024  11.006  10.559   3.312 -0.3775 -0.0092 -0.2438
  653MOL0     C88025  10.975  10.554   3.445  0.3564  0.1150 -0.8711
  653MOL0     C88026  11.036  10.637   3.536  0.4420 -0.7184 -0.6371
  653MOL0     C88027  11.135  10.726   3.501 -1.1211 -0.5049  0.6085
  653MOL0     O88028  11.183  10.820   3.600  0.2423  0.1669 -0.1843
  653MOL0     C88029  11.280  10.915   3.557 -0.7892 -0.6491 -0.4275
  653MOL0     C88030  11.312  10.990   3.685 -0.1303  0.5960  0.5596
  653MOL0     C88031  11.179  11.060   3.734  0.5223 -0.7336 -0.4555
  653MOL0     C88032  11.166  11.117   3.873 -0.7125  0.1484  0.2900
  653MOL0     C88033  11.280  11.225   3.898  0.2607 -0.5176 -1.2544
  653MOL0     C88034  11.277  11.344   3.799 -0.0589 -0.3137 -0.2736
  653MOL0     C88035  11.145  11.411   3.792 -0.5911 -0.1104 -0.0177
  653MOL0     C88036  11.100  11.462   3.930 -0.6793  0.9355 -0.2514
  653MOL0     N88037  11.163  11.590   3.960 -0.2401 -0.1944 -0.4615
  653MOL0     C88038  11.301  11.634   3.957  0.1049  0.4718 -0.1241
  653MOL0     C88039  11.296  11.746   4.027 -0.5633  1.1024  0.2049
  653MOL0     C88040  11.405  11.844   4.022  1.6611 -0.2644  0.6260
  653MOL0     C88041  11.375  11.950   3.904  0.7522 -0.5979 -0.4467
  653MOL0     C88042  11.292  12.067   3.950  1.0472  0.9787 -0.9246
  653MOL0     C88043  11.327  12.132   4.082 -0.0950  0.2639 -1.1637
  653MOL0     O88044  11.468  12.155   4.066 -0.2953  0.1767  0.5749
  653MOL0     C88045  11.539  12.195   4.175 -0.1408  0.0091  0.5245
  653MOL0     C88046  11.495  12.227   4.302  0.4973 -0.1505  0.9452
  653MOL0     C88047  11.577  12.241   4.412  0.2116 -0.2966  0.2711
  653MOL0     C88048  11.718  12.234   4.399 -1.0957 -0.6466 -0.7090
  653MOL0     C88049  11.801  12.260   4.525  0.0951  0.1870 -0.2217
  653MOL0     O88050  11.934  12.245   4.503  0.4889 -0.1526 -0.1782
  653MOL0     C88051  12.023  12.287   4.603  0.3867 -0.1709 -0.4233
  653MOL0     C88052  12.131  12.199   4.620 -0.2547  0.0155  0.1259
  653MOL0     C88053  12.235  12.218   4.716  1.1365 -0.3057  0.2225
  653MOL0     C88054  12.220  12.321   4.809  0.0960  0.4256  0.4802
  653MOL0     O88055  12.308  12.325   4.911  0.3570  1.2320  0.0151
  653MOL0     C88056  12.260  12.372   5.037  0.1807 -0.2322  0.4685
  653MOL0     C88057  12.383  12.363   5.127 -0.6374 -0.1381  0.1213
  653MOL0     C88058  12.514  12.443   5.084 -0.5728  0.6423 -0.3752
  653MOL0     C88059  12.624  12.431   5.183  0.0176 -0.0784  0.9286
  653MOL0     C88060  12.683  12.284   5.202 -0.3733 -0.0749 -0.2859
  653MOL0     C88061  12.805  12.253   5.118 -0.1698 -0.6135  0.1164
  653MOL0     C88062  12.868  12.117   5.161  0.6464 -0.3083 -0.3891
  653MOL0     C88063  12.961  12.067   5.055 -0.2117  1.6150  0.2075
  653MOL0    Cl88064  12.870  11.939   4.958 -0.2595  0.0629 -0.4266
  653MOL0     C88065  12.116  12.415   4.783 -0.6145 -0.1758  0.2978
  653MOL0     C88066  12.023  12.396   4.684  1.1951  0.4193  0.4381
  653MOL0     O88067  11.751  12.288   4.636  0.3215  0.0317  0.1560
  653MOL0     C88068  11.765  12.198   4.268  0.0105  0.8314 -0.7532
  653MOL0     C88069  11.678  12.186   4.162  0.1266 -0.3568 -0.1636
  653MOL0     N88070  11.167  11.775   4.073 -0.4599 -0.3622  0.5703
  653MOL0     N88071  11.091  11.677   4.028  0.1678  0.0463  0.5955
  653MOL0     C88072  11.178  10.723   3.365 -0.1770  0.2991  0.3009
  653MOL0     C88073  11.118  10.640   3.276 -0.3417  0.0355 -0.4416
  653MOL0     C88074  10.947  10.320   3.045  0.5787 -0.3659  0.0011
  653MOL0     C88075  10.986  10.186   3.034 -1.0010 -0.1466 -0.1977
  653MOL0     C88076  10.961  10.124   2.911 -0.3006 -0.4524  0.3796
  653MOL0     C88077  10.880  10.183   2.809  0.9013  0.2685  0.3206
  653MOL0     O88078  10.865  10.118   2.693  0.0817 -0.1201  0.0065
  653MOL0     C88079  10.813  10.189   2.570 -0.3341  0.0508 -0.7740
  653MOL0     C88080  10.824  10.072   2.473  0.3972 -0.7322  0.7559
  653MOL0     C88081  10.773  10.111   2.331 -0.5569 -0.4236  0.5081
  653MOL0     C88082  10.743   9.982   2.242 -0.1561  0.6914 -0.2881
  653MOL0     C88083  10.699  10.019   2.110 -0.0639  0.6796  0.0540
  653MOL0     C88084  10.647  10.050   2.009  0.4705 -0.0913 -0.7624
  653MOL0     C88085  10.829  10.314   2.833 -0.0054  0.5456 -0.6872
  653MOL0     C88086  10.858  10.376   2.950 -0.4729 -1.0135  0.3146
  653MOL0     C88087  10.789  10.513   2.960 -0.7982 -0.2889 -0.0414
  653MOL0     H88088  10.888  10.492   3.469  0.1071 -0.1841 -2.4250
  653MOL0     H88089  11.012  10.634   3.641  0.3724  0.3905 -0.6051
  653MOL0     H88090  11.368  10.857   3.528 -2.0408 -1.9902 -1.7300
  653MOL0     H88091  11.245  10.980   3.476  2.5022  0.5330 -1.0880
  653MOL0     H88092  11.397  11.051   3.650  3.0782 -4.6535 -2.0946
  653MOL0     H88093  11.356  10.924   3.760 -0.0872 -0.2338 -0.1804
  653MOL0     H88094  11.095  10.991   3.721 -0.4875  0.5644 -1.0704
  653MOL0     H88095  11.141  11.139   3.668 -0.2227 -1.0242 -0.3788
  653MOL0     H88096  11.062  11.149   3.876 -1.1228 -0.5702 -2.6198
  653MOL0     H88097  11.194  11.040   3.945  1.5857  0.5437 -0.1015
  653MOL0     H88098  11.279  11.270   3.998 -1.1062 -0.2585 -1.3660
  653MOL0     H88099  11.377  11.176   3.904 -1.1121 -3.4107 -1.3517
  653MOL0     H88100  11.357  11.410   3.834 -1.0025  1.4497 -1.2970
  653MOL0     H88101  11.309  11.328   3.696  1.4873 -0.0198  0.1285
  653MOL0     H88102  11.070  11.339   3.758 -1.5893 -0.5749  2.8743
  653MOL0     H88103  11.151  11.498   3.725 -3.7590  0.3318  0.0878
  653MOL0     H88104  10.991  11.474   3.932 -0.5463  2.4835 -0.9002
  653MOL0     H88105  11.111  11.389   4.011  0.8007 -0.2385 -1.4597
  653MOL0     H88106  11.388  11.589   3.911  0.2530 -1.0460  1.4856
  653MOL0     H88107  11.440  11.891   4.114  3.6611  2.6406 -1.4418
  653MOL0     H88108  11.503  11.797   4.006  1.2381 -0.5136 -1.5291
  653MOL0     H88109  11.478  11.975   3.873  1.0058  0.6934  1.3153
  653MOL0     H88110  11.326  11.899   3.820  0.4468  0.6645 -1.0578
  653MOL0     H88111  11.192  12.024   3.963  1.4010  0.0287 -1.2688
  653MOL0     H88112  11.269  12.132   3.865 -0.4403  0.6771 -0.7946
  653MOL0     H88113  11.328  12.055   4.159  0.9908 -0.3275 -1.7408
  653MOL0     H88114  11.261  12.212   4.117  0.5549  0.3088  0.0148
  653MOL0     H88115  11.389  12.247   4.316  0.4758  0.8555 -0.4673
  653MOL0     H88116  11.539  12.277   4.507  2.6124  1.0874  0.7785
  653MOL0     H88117  12.142  12.115   4.551  1.6250 -0.0331  0.4404
  653MOL0     H88118  12.313  12.143   4.727  0.0658 -1.2040  2.1458
  653MOL0     H88119  12.214  12.470   5.024  0.0243 -0.6555 -3.1430
  653MOL0     H88120  12.174  12.315   5.074 -0.4105 -0.6157 -1.4342
  653MOL0     H88121  12.365  12.403   5.227 -0.4928 -0.6929  0.3671
  653MOL0     H88122  12.398  12.257   5.145  0.6232  0.2275  1.3282
  653MOL0     H88123  12.553  12.384   5.000 -3.3411 -1.3768 -0.3603
  653MOL0     H88124  12.501  12.551   5.074  0.0404  0.7258 -0.3517
  653MOL0     H88125  12.590  12.461   5.282  2.7812 -0.0076  1.9693
  653MOL0     H88126  12.707  12.497   5.155  0.4966  0.6773  3.7715
  653MOL0     H88127  12.606  12.209   5.183  0.8337 -1.1122 -1.3324
  653MOL0     H88128  12.708  12.283   5.308  0.0082 -0.6498 -0.3743
  653MOL0     H88129  12.771  12.258   5.015  1.0089  2.9061 -0.2636
  653MOL0     H88130  12.885  12.327   5.127 -0.2022 -0.7940  2.7612
  653MOL0     H88131  12.791  12.045   5.191  0.5673  0.4916  1.4477
  653MOL0     H88132  12.928  12.144   5.248 -0.1640 -4.0920  1.5611
  653MOL0     H88133  12.994  12.141   4.981  0.6474 -1.3765 -2.6599
  653MOL0     H88134  13.043  12.010   5.099  0.0606  2.9468  1.5203
  653MOL0     H88135  12.102  12.495   4.855 -0.8212  0.2005 -0.1580
  653MOL0     H88136  11.942  12.467   4.669  2.3936  1.5569 -0.9715
  653MOL0     H88137  11.872  12.183   4.270  0.1064  1.4950 -0.7558
  653MOL0     H88138  11.713  12.150   4.066  0.0188  0.7072 -0.6217
  653MOL0     H88139  11.251  10.792   3.326  0.9918 -1.4321 -0.7250
  653MOL0     H88140  11.152  10.637   3.173 -0.2288  3.6292 -0.6604
  653MOL0     H88141  11.043  10.131   3.107  2.1586  1.1856 -1.4960
  653MOL0     H88142  11.004  10.024   2.912  0.3133 -0.3640 -3.3143
  653MOL0     H88143  10.885  10.265   2.541 -2.1110  1.7529 -0.9721
  653MOL0     H88144  10.719  10.240   2.592 -1.6135 -2.4861  0.0988
  653MOL0     H88145  10.756   9.993   2.507 -0.2034 -2.4126 -3.7066
  653MOL0     H88146  10.926  10.037   2.459 -0.0047 -1.1748 -1.3517
  653MOL0     H88147  10.853  10.170   2.285 -3.9820  2.9168 -1.7715
  653MOL0     H88148  10.679  10.166   2.336 -0.9195 -1.1179  2.2902
  653MOL0     H88149  10.834   9.922   2.233 -2.1710 -2.1861 -4.0798
  653MOL0     H88150  10.675   9.915   2.294  1.2731 -0.0548  0.7069
  653MOL0     H88151  10.599  10.075   1.916 -0.2277  1.4231 -0.0213
  653MOL0     H88152  10.767  10.357   2.754  0.7872 -0.8079 -2.1200
  653MOL0     H88153  10.740  10.525   3.056 -0.2465  1.1468  0.0821
  653MOL0     H88154  10.862  10.594   2.953  1.9150 -2.3294  2.3091
  653MOL0     H88155  10.715  10.509   2.879 -0.3733 -3.2979 -0.3964
  654MOL0     O88156  11.407   1.225   7.394  0.4892  0.3493  0.2824
  654MOL0     C88157  11.300   1.161   7.378 -0.2017 -0.0283 -0.5327
  654MOL0     O88158  11.291   1.035   7.349 -0.3281  0.1555 -0.3320
  654MOL0     C88159  11.395   0.959   7.302 -0.8337  0.6619 -0.2267
  654MOL0     C88160  11.518   1.005   7.249  0.2145 -0.0763  0.3529
  654MOL0     C88161  11.624   0.922   7.205 -0.2847  0.1755  0.3639
  654MOL0     C88162  11.611   0.780   7.208 -0.6688 -0.9160  0.2015
  654MOL0     O88163  11.724   0.705   7.189 -1.0156  0.3985 -0.3785
  654MOL0     C88164  11.718   0.567   7.190 -0.5765 -0.1254  0.6806
  654MOL0     C88165  11.854   0.512   7.165  0.5439 -0.9876  0.4931
  654MOL0     C88166  11.845   0.361   7.150 -1.2445  0.0176 -0.1346
  654MOL0     C88167  11.982   0.298   7.106  0.3625 -0.9292 -0.2485
  654MOL0     C88168  12.076   0.310   7.228  0.0089  0.5340 -0.3060
  654MOL0     C88169  12.221   0.262   7.228  0.2307 -0.0500 -0.0622
  654MOL0     C88170  12.235   0.128   7.158 -0.5351 -0.7999  0.2630
  654MOL0     C88171  12.154   0.008   7.222 -0.4662  0.8771 -0.6207
  654MOL0     N88172  12.208  -0.014   7.356  0.2974  0.1075  0.1680
  654MOL0     C88173  12.340  -0.066   7.387  0.6234 -0.4724  0.2867
  654MOL0     C88174  12.332  -0.091   7.522  0.1285 -1.0618  1.0198
  654MOL0     C88175  12.434  -0.146   7.615  0.1917  0.0178 -1.0304
  654MOL0     C88176  12.384  -0.292   7.645  0.6443  0.5257  0.0151
  654MOL0     C88177  12.466  -0.357   7.762 -0.5600  0.4728 -0.5275
  654MOL0     C88178  12.616  -0.324   7.775 -0.1464 -0.1492  0.4468
  654MOL0     O88179  12.680  -0.409   7.869 -0.6218  0.2645 -0.5499
  654MOL0     C88180  12.817  -0.420   7.870 -0.4235  0.1283 -0.1626
  654MOL0     C88181  12.899  -0.333   7.787 -0.1955 -0.2473  0.7583
  654MOL0     C88182  13.038  -0.363   7.788  0.2776 -0.1062  0.2802
  654MOL0     C88183  13.095  -0.459   7.866 -0.0488  0.4412 -0.5875
  654MOL0     C88184  13.241  -0.489   7.867  0.6631 -0.4769 -0.5864
  654MOL0     O88185  13.321  -0.402   7.798 -0.4666 -0.6701  0.0643
  654MOL0     C88186  13.444  -0.430   7.752 -0.0932  0.2313  0.5972
  654MOL0     C88187  13.481  -0.561   7.715 -0.4096 -0.0660 -0.6104
  654MOL0     C88188  13.613  -0.581   7.677 -0.5379 -0.2026  0.5107
  654MOL0     C88189  13.707  -0.479   7.665 -0.3567 -0.0098  0.0445
  654MOL0     O88190  13.831  -0.519   7.616  0.1608  0.3045  0.7667
  654MOL0     C88191  13.957  -0.450   7.608  0.0953  0.6749  0.2018
  654MOL0     C88192  14.073  -0.542   7.587  0.6538  0.6675 -0.5776
  654MOL0     C88193  14.071  -0.589   7.442  0.2423 -0.1563 -0.0227
  654MOL0     C88194  14.069  -0.739   7.435  0.3250  0.0790 -0.5385
  654MOL0     C88195  14.031  -0.795   7.307  1.4420 -0.1113 -0.5848
  654MOL0     C88196  14.072  -0.939   7.296 -0.1557 -0.0334  0.5697
  654MOL0     C88197  14.210  -0.962   7.235  1.1766 -0.4476 -0.4289
  654MOL0     C88198  14.227  -1.096   7.159  0.2287 -0.0233 -0.3704
  654MOL0    Cl88199  14.379  -1.096   7.056  0.2604 -0.3857 -0.0687
  654MOL0     C88200  13.676  -0.350   7.699  0.2674  0.6356 -0.2804
  654MOL0     C88201  13.544  -0.329   7.745  0.4606  0.5145 -0.3504
  654MOL0     O88202  13.282  -0.590   7.922 -0.5555  0.4476 -0.3238
  654MOL0     C88203  13.013  -0.541   7.949  0.2404  0.8192 -0.4114
  654MOL0     C88204  12.876  -0.524   7.946  0.2770  0.0548  0.6203
  654MOL0     N88205  12.206  -0.045   7.575 -0.3999  0.0150 -0.1210
  654MOL0     N88206  12.137   0.004   7.471 -0.1262  0.2212  0.4500
  654MOL0     C88207  11.490   0.731   7.251 -0.3124 -0.2868  0.7194
  654MOL0     C88208  11.385   0.820   7.301 -0.5545  0.0825 -0.3544
  654MOL0     C88209  11.174   1.232   7.389 -0.4165  0.9519  0.0587
  654MOL0     C88210  11.165   1.357   7.451  0.3159 -0.3200 -0.2216
  654MOL0     C88211  11.050   1.431   7.450  0.9293 -0.2186  0.0371
  654MOL0     C88212  10.933   1.395   7.385 -0.0494 -0.5704  0.3953
  654MOL0     O88213  10.810   1.464   7.383 -0.3905  0.4365 -0.4527
  654MOL0     C88214  10.798   1.601   7.432 -1.0531 -0.2215  0.1061
  654MOL0     C88215  10.821   1.693   7.314 -0.2258 -0.4868 -0.0852
  654MOL0     C88216  10.684   1.724   7.243  1.0019  0.4133  0.4783
  654MOL0     C88217  10.701   1.806   7.120 -0.4740  0.1769 -0.2754
  654MOL0     C88218  10.755   1.943   7.143  0.1998  0.0684  0.5617
  654MOL0     C88219  10.789   2.058   7.168 -0.7647 -0.4895 -0.2231
  654MOL0     C88220  10.941   1.271   7.317  0.2928  0.1036  0.0134
  654MOL0     C88221  11.060   1.188   7.307  0.8779 -0.5706 -0.4004
  654MOL0     C88222  11.045   1.076   7.203 -0.2015  0.2342 -0.3892
  654MOL0     H88223  11.552   1.108   7.247 -2.0538  0.7379 -1.8040
  654MOL0     H88224  11.721   0.962   7.178  0.7355 -2.6103 -0.5076
  654MOL0     H88225  11.680   0.539   7.289 -2.5813 -0.2710 -0.0711
  654MOL0     H88226  11.645   0.523   7.121 -1.1412 -0.1801  1.2956
  654MOL0     H88227  11.919   0.539   7.249  1.5354 -1.8351  0.0149
  654MOL0     H88228  11.900   0.562   7.080  2.2989 -2.4662  0.5027
  654MOL0     H88229  11.770   0.350   7.071 -0.8615  1.0960 -0.6716
  654MOL0     H88230  11.800   0.314   7.238  0.0708 -0.1419  0.4797
  654MOL0     H88231  11.966   0.197   7.067  1.5184  0.0056 -3.4923
  654MOL0     H88232  12.031   0.356   7.027 -1.7876  0.4140 -0.6757
  654MOL0     H88233  12.071   0.418   7.245 -3.8144  0.4488  0.0465
  654MOL0     H88234  12.020   0.275   7.316  0.8340 -0.4901 -0.1631
  654MOL0     H88235  12.279   0.341   7.181  0.9385  0.2046  1.1795
  654MOL0     H88236  12.265   0.254   7.328  1.1807 -1.5362 -0.5576
  654MOL0     H88237  12.341   0.108   7.146  0.1914  3.2890 -2.0579
  654MOL0     H88238  12.194   0.144   7.058 -0.1500 -0.9485  0.0804
  654MOL0     H88239  12.050   0.042   7.220 -0.2201  1.9658  1.4947
  654MOL0     H88240  12.159  -0.087   7.169  1.1692  2.8278 -4.3087
  654MOL0     H88241  12.414  -0.090   7.312 -0.0784  0.1737 -0.6331
  654MOL0     H88242  12.537  -0.152   7.579  0.6726 -0.4040  0.3678
  654MOL0     H88243  12.433  -0.074   7.697  2.3424  1.3031 -2.0272
  654MOL0     H88244  12.280  -0.298   7.678 -0.0035  1.3714 -1.7349
  654MOL0     H88245  12.399  -0.360   7.561  2.5706 -4.7489  4.0779
  654MOL0     H88246  12.472  -0.466   7.756  0.2704  0.4694  0.2411
  654MOL0     H88247  12.424  -0.333   7.860 -3.2207  1.8010 -1.8805
  654MOL0     H88248  12.628  -0.218   7.796  0.3953 -0.5441  2.3672
  654MOL0     H88249  12.658  -0.341   7.675  1.3963  1.9063  0.6889
  654MOL0     H88250  12.858  -0.259   7.719  1.2242 -0.7964 -0.7628
  654MOL0     H88251  13.101  -0.304   7.722  2.2935 -1.6670  0.6949
  654MOL0     H88252  13.418  -0.648   7.726  2.5241 -2.3070 -0.5009
  654MOL0     H88253  13.648  -0.678   7.643 -2.3513 -0.4915 -0.6465
  654MOL0     H88254  13.953  -0.378   7.526 -0.3492  0.4324  0.0050
  654MOL0     H88255  13.960  -0.391   7.701  0.0092 -0.4019  0.9040
  654MOL0     H88256  14.167  -0.498   7.622 -0.3297  0.6794  2.3183
  654MOL0     H88257  14.059  -0.629   7.652  0.4741  0.4099 -0.9627
  654MOL0     H88258  13.993  -0.539   7.384  2.2934  3.3474 -0.0568
  654MOL0     H88259  14.161  -0.549   7.395  0.4690 -2.4664 -1.6746
  654MOL0     H88260  13.991  -0.762   7.509  2.7671  1.0385  2.5974
  654MOL0     H88261  14.163  -0.781   7.473  2.2007  2.5709 -2.0667
  654MOL0     H88262  14.079  -0.737   7.228  0.3308 -0.7185 -1.7430
  654MOL0     H88263  13.923  -0.774   7.305  1.7452  1.5109 -1.1987
  654MOL0     H88264  14.076  -0.989   7.393  1.1924 -2.4751 -0.6560
  654MOL0     H88265  14.007  -0.997   7.230  1.9275 -0.5457 -1.1132
  654MOL0     H88266  14.282  -0.955   7.317 -0.6224  2.4094  1.0786
  654MOL0     H88267  14.238  -0.876   7.173  2.7250 -0.8745 -0.3431
  654MOL0     H88268  14.226  -1.176   7.234 -2.6562 -0.0034 -0.2472
  654MOL0     H88269  14.136  -1.112   7.100 -4.3222  1.6305  5.2736
  654MOL0     H88270  13.740  -0.263   7.693  2.2795 -0.8619 -2.5180
  654MOL0     H88271  13.532  -0.225   7.771  1.3259  1.0829 -2.0903
  654MOL0     H88272  13.063  -0.613   8.012  0.5967  1.5059  0.0979
  654MOL0     H88273  12.814  -0.590   8.006  2.1269 -2.4076 -0.0265
  654MOL0     H88274  11.468   0.624   7.253 -3.3117  0.1827 -0.6556
  654MOL0     H88275  11.296   0.777   7.344 -1.5628  0.2141 -2.1929
  654MOL0     H88276  11.257   1.384   7.502  0.9027 -2.3672 -0.0687
  654MOL0     H88277  11.047   1.532   7.492  2.7078 -1.1750  2.7258
  654MOL0     H88278  10.865   1.621   7.516  1.3251  1.4421 -2.0432
  654MOL0     H88279  10.698   1.604   7.477 -0.5386 -3.2235  1.7295
  654MOL0     H88280  10.898   1.653   7.247  0.0332  1.5723 -1.1040
  654MOL0     H88281  10.866   1.784   7.356 -0.0075 -0.7983  0.3669
  654MOL0     H88282  10.612   1.774   7.309 -0.9717  0.1700 -1.3823
  654MOL0     H88283  10.632   1.640   7.196 -5.1575  3.4748  0.7592
  654MOL0     H88284  10.774   1.757   7.055 -1.2595 -0.9976 -0.3095
  654MOL0     H88285  10.616   1.816   7.053  1.1046  2.1810 -2.1278
  654MOL0     H88286  10.817   2.160   7.188 -2.9293  0.5740 -2.1301
  654MOL0     H88287  10.859   1.236   7.256  0.5863 -0.7103  0.0720
  654MOL0     H88288  10.961   1.107   7.141 -0.7039  0.5102  0.4186
  654MOL0     H88289  11.144   1.072   7.156  0.0736 -4.2782  0.1547
  654MOL0     H88290  11.029   0.984   7.260 -2.2874 -1.6356 -3.6785
  655MOL0     O88291   8.729   4.159   2.866  0.1132  0.2142  0.1197
  655MOL0     C88292   8.631   4.233   2.856 -0.0380 -0.0034 -0.0766
  655MOL0     O88293   8.523   4.207   2.766 -0.3992  0.8597 -0.5037
  655MOL0     C88294   8.491   4.073   2.730  0.2167 -0.3115 -0.2198
  655MOL0     C88295   8.366   4.019   2.765 -0.2742  0.0780 -0.5570
  655MOL0     C88296   8.330   3.888   2.730  0.4813  0.5368  0.9183
  655MOL0     C88297   8.417   3.809   2.652  0.3721 -0.8779  0.0233
  655MOL0     O88298   8.396   3.685   2.605 -0.7728 -0.4661 -1.0922
  655MOL0     C88299   8.276   3.616   2.657 -0.1965 -0.2310 -0.3712
  655MOL0     C88300   8.292   3.460   2.642 -0.2965 -0.3386  0.0115
  655MOL0     C88301   8.414   3.394   2.709 -0.3449  0.8781 -1.3238
  655MOL0     C88302   8.562   3.371   2.650 -1.6706 -0.2357 -0.1412
  655MOL0     C88303   8.571   3.256   2.559 -0.7343  0.2686 -0.3639
  655MOL0     C88304   8.602   3.110   2.623  0.3294 -0.6354 -0.1629
  655MOL0     C88305   8.744   3.109   2.684 -0.2008 -0.2160 -0.6649
  655MOL0     C88306   8.782   2.965   2.719 -0.0613  0.1494  1.6803
  655MOL0     N88307   8.805   2.872   2.600  0.4826 -0.1660  0.7060
  655MOL0     C88308   8.926   2.854   2.548 -0.2263  0.0355 -0.3976
  655MOL0     C88309   8.912   2.756   2.462 -0.4290 -0.4736  0.3549
  655MOL0     C88310   9.028   2.690   2.403  0.2753 -0.7204 -0.0654
  655MOL0     C88311   9.005   2.537   2.380  0.8265 -0.2348  0.1483
  655MOL0     C88312   8.992   2.457   2.518 -0.4280 -0.2023  0.9725
  655MOL0     C88313   9.010   2.306   2.489 -0.5515 -0.4789 -0.0785
  655MOL0     O88314   8.913   2.282   2.382  0.7592  0.0457 -0.2544
  655MOL0     C88315   8.861   2.159   2.373 -0.2544  0.2541  0.0296
  655MOL0     C88316   8.750   2.145   2.295 -0.2904 -0.2781 -0.1098
  655MOL0     C88317   8.680   2.022   2.290 -0.0791  0.7022 -0.0551
  655MOL0     C88318   8.724   1.915   2.370  0.0678 -0.7832  0.6099
  655MOL0     C88319   8.646   1.788   2.392  0.4661  0.0200 -0.7125
  655MOL0     O88320   8.682   1.682   2.465  0.0467 -0.7498  0.1398
  655MOL0     C88321   8.588   1.593   2.503 -0.3062  0.2829 -0.7151
  655MOL0     C88322   8.496   1.618   2.603  0.2821  0.8417 -0.2632
  655MOL0     C88323   8.415   1.516   2.650  0.1956  0.8543 -0.3394
  655MOL0     C88324   8.422   1.386   2.601 -0.0690 -0.2469 -0.1138
  655MOL0     O88325   8.331   1.295   2.650  0.0277 -0.5147 -0.1851
  655MOL0     C88326   8.346   1.163   2.614  0.6332  0.1570 -0.3698
  655MOL0     C88327   8.277   1.075   2.726 -0.8618  0.0488  0.3947
  655MOL0     C88328   8.352   1.095   2.855 -0.1941 -0.2526  0.2808
  655MOL0     C88329   8.296   1.014   2.974 -0.1588 -0.6179  0.7356
  655MOL0     C88330   8.408   1.026   3.082 -0.4965 -0.4889 -0.5820
  655MOL0     C88331   8.473   0.895   3.114 -0.1645 -0.3356 -0.0433
  655MOL0     C88332   8.370   0.797   3.193  0.1769 -0.1472  0.1202
  655MOL0     C88333   8.433   0.668   3.251 -0.3791 -0.2121 -0.2686
  655MOL0    Cl88334   8.512   0.700   3.414 -0.0085  0.7148  0.2256
  655MOL0     C88335   8.515   1.363   2.499 -0.2912 -0.3779  0.4080
  655MOL0     C88336   8.587   1.466   2.436  0.5777  0.0584  0.0389
  655MOL0     O88337   8.540   1.795   2.330  0.7588  0.1627 -1.0113
  655MOL0     C88338   8.842   1.931   2.442 -1.1360 -0.7530  0.0879
  655MOL0     C88339   8.911   2.048   2.436  0.1705 -0.4361 -0.2424
  655MOL0     N88340   8.784   2.710   2.460  1.2563 -0.3068 -0.0152
  655MOL0     N88341   8.715   2.792   2.536 -0.9950 -0.4854 -0.5956
  655MOL0     C88342   8.536   3.871   2.610 -0.0877 -0.0067 -0.2058
  655MOL0     C88343   8.573   4.005   2.645  0.0052  0.0587  0.0730
  655MOL0     C88344   8.643   4.369   2.905 -0.1529  0.0395 -0.0023
  655MOL0     C88345   8.594   4.480   2.837  0.1554  0.3607 -0.7353
  655MOL0     C88346   8.612   4.610   2.886 -0.9157 -0.5174  0.2526
  655MOL0     C88347   8.686   4.628   3.008  0.9011 -0.2923  1.0963
  655MOL0     O88348   8.704   4.755   3.052  0.4968  0.3330 -0.0404
  655MOL0     C88349   8.778   4.772   3.174  0.1897  0.0412  1.4052
  655MOL0     C88350   8.791   4.915   3.213 -0.3134  0.3840  0.7108
  655MOL0     C88351   8.861   4.927   3.347  0.1260  0.5029  0.8134
  655MOL0     C88352   9.010   4.912   3.306 -0.1659  0.5341  0.3236
  655MOL0     C88353   9.086   4.948   3.423  0.1904 -0.2453  0.2025
  655MOL0     C88354   9.153   4.980   3.521 -0.5914 -0.2494  0.1492
  655MOL0     C88355   8.722   4.509   3.082 -0.2301  0.2712 -0.0676
  655MOL0     C88356   8.700   4.382   3.035 -0.0564  0.2544 -0.0579
  655MOL0     C88357   8.738   4.267   3.125 -0.1574  1.3031 -0.0529
  655MOL0     H88358   8.306   4.076   2.836 -1.7981 -3.8824  1.6423
  655MOL0     H88359   8.233   3.852   2.763  0.1049  0.9290  0.2707
  655MOL0     H88360   8.261   3.645   2.761  2.1110  1.9777 -0.5476
  655MOL0     H88361   8.198   3.642   2.585  1.2266 -0.5497 -2.1175
  655MOL0     H88362   8.318   3.447   2.536  1.1456  3.6258 -0.3024
  655MOL0     H88363   8.205   3.399   2.669  0.1946 -1.2807 -0.5015
  655MOL0     H88364   8.367   3.300   2.741 -0.0943  1.6627  1.6446
  655MOL0     H88365   8.430   3.445   2.804  3.4753 -2.1158 -0.0895
  655MOL0     H88366   8.582   3.461   2.593  3.0043 -1.6852 -1.2333
  655MOL0     H88367   8.642   3.371   2.724  1.1668  3.6830 -2.8557
  655MOL0     H88368   8.476   3.244   2.505  0.4945 -1.8622 -2.2548
  655MOL0     H88369   8.636   3.272   2.473  1.8414  2.0370  1.7613
  655MOL0     H88370   8.523   3.083   2.695  0.0612  2.7315  0.9940
  655MOL0     H88371   8.594   3.034   2.544 -1.7628  0.2743 -0.8937
  655MOL0     H88372   8.743   3.168   2.777  2.4654 -3.1107  1.4117
  655MOL0     H88373   8.827   3.159   2.632  1.2079  1.4628  2.7869
  655MOL0     H88374   8.875   2.970   2.777 -0.5691  0.4448  2.4753
  655MOL0     H88375   8.707   2.927   2.788  1.2837 -1.5870  2.2847
  655MOL0     H88376   9.016   2.908   2.575 -1.4870  0.6384  3.1996
  655MOL0     H88377   9.051   2.747   2.313  0.2927 -1.0629 -0.2775
  655MOL0     H88378   9.119   2.694   2.464 -0.7843  1.0470  1.4986
  655MOL0     H88379   8.917   2.531   2.314  1.6926 -0.4820 -1.0139
  655MOL0     H88380   9.086   2.488   2.325  1.9571  0.7912  0.8403
  655MOL0     H88381   8.892   2.479   2.555  0.3443 -0.6345  3.5476
  655MOL0     H88382   9.068   2.500   2.584  1.7500 -1.0054 -0.8471
  655MOL0     H88383   8.982   2.252   2.579  2.2093  1.7478  2.3154
  655MOL0     H88384   9.113   2.286   2.459 -0.9842 -1.3025 -1.0682
  655MOL0     H88385   8.701   2.228   2.244 -0.2222 -0.7198 -0.9195
  655MOL0     H88386   8.589   2.001   2.235  0.9177 -0.0252 -1.4714
  655MOL0     H88387   8.486   1.713   2.654 -0.7381  1.0891 -0.8743
  655MOL0     H88388   8.363   1.527   2.745  2.5852  2.5117  0.8555
  655MOL0     H88389   8.273   1.149   2.534 -1.4945 -1.9416  1.7608
  655MOL0     H88390   8.449   1.129   2.599  0.3746 -0.4790 -0.7626
  655MOL0     H88391   8.172   1.102   2.741 -0.2419  1.9188  1.8896
  655MOL0     H88392   8.274   0.968   2.706  1.8530 -1.0331  4.4921
  655MOL0     H88393   8.458   1.074   2.838  0.5344  1.8456  1.8068
  655MOL0     H88394   8.336   1.201   2.875  1.2350  1.1400 -4.5483
  655MOL0     H88395   8.280   0.910   2.944 -0.7499 -1.0097  2.2734
  655MOL0     H88396   8.202   1.054   3.011 -0.0415 -0.4877  0.8949
  655MOL0     H88397   8.354   1.060   3.170  4.1030  0.9055  2.0200
  655MOL0     H88398   8.486   1.094   3.048 -1.5735 -1.0053 -4.6354
  655MOL0     H88399   8.512   0.853   3.021  1.6571 -0.2854  0.6508
  655MOL0     H88400   8.558   0.925   3.176  0.4905  2.7781 -2.2353
  655MOL0     H88401   8.294   0.766   3.120  0.4471 -0.2397 -0.1214
  655MOL0     H88402   8.321   0.858   3.269  0.6007  1.6223 -0.9599
  655MOL0     H88403   8.362   0.586   3.266 -0.8174 -1.0031 -5.1606
  655MOL0     H88404   8.506   0.622   3.184 -0.6315 -1.2519  0.1424
  655MOL0     H88405   8.532   1.263   2.461 -1.0546  0.5755 -2.7923
  655MOL0     H88406   8.666   1.445   2.364  2.8682  1.5562  1.9666
  655MOL0     H88407   8.890   1.852   2.499 -0.4513 -0.4715 -0.0889
  655MOL0     H88408   8.994   2.035   2.505 -1.7343 -2.2489  1.8523
  655MOL0     H88409   8.595   3.808   2.545 -2.7499 -0.9029 -1.9016
  655MOL0     H88410   8.657   4.046   2.591 -0.2103 -2.5715 -2.5458
  655MOL0     H88411   8.543   4.471   2.741 -2.3312  3.1528  0.1755
  655MOL0     H88412   8.586   4.703   2.837  0.8088 -0.9419 -1.6122
  655MOL0     H88413   8.874   4.719   3.168  0.8809  1.0677  2.8091
  655MOL0     H88414   8.710   4.729   3.247  0.7171 -0.8103  1.4105
  655MOL0     H88415   8.689   4.953   3.217 -0.1518  0.6977  3.2769
  655MOL0     H88416   8.851   4.965   3.136 -1.4419  0.2511 -0.2755
  655MOL0     H88417   8.831   4.843   3.411 -0.8010  0.5695  0.4863
  655MOL0     H88418   8.829   5.018   3.398  1.0959  1.1843  0.2318
  655MOL0     H88419   9.023   4.806   3.281 -5.1389  0.1623 -1.9415
  655MOL0     H88420   9.026   4.978   3.221 -4.4073  0.4820 -0.7172
  655MOL0     H88421   9.206   5.011   3.609 -1.7322 -0.1340  0.8061
  655MOL0     H88422   8.768   4.516   3.180 -1.0762  0.4477  0.3260
  655MOL0     H88423   8.688   4.175   3.093  0.5687  1.7919 -2.9388
  655MOL0     H88424   8.846   4.253   3.115 -0.2750 -0.7686  1.1027
  655MOL0     H88425   8.704   4.294   3.225  0.1737 -2.1753  1.1130
  656MOL0     O88426   0.003   4.721   1.422  0.1207  0.6112  1.1974
  656MOL0     C88427  -0.105   4.738   1.366  0.0073  0.8815 -0.2971
  656MOL0     O88428  -0.176   4.870   1.371  0.3254  0.1521  0.0041
  656MOL0     C88429  -0.142   4.956   1.474 -0.9476 -0.2929  0.4272
  656MOL0     C88430  -0.150   4.917   1.604 -0.5415 -0.2211 -0.4404
  656MOL0     C88431  -0.115   4.997   1.714 -0.3699 -0.4009 -0.1243
  656MOL0     C88432  -0.091   5.128   1.698 -0.6227  0.4051 -0.0650
  656MOL0     O88433  -0.059   5.216   1.799  0.5670  0.6237  0.2876
  656MOL0     C88434  -0.180   5.287   1.843 -0.1820 -0.3759 -0.1460
  656MOL0     C88435  -0.192   5.278   1.999  0.3628  0.0344  0.8826
  656MOL0     C88436  -0.315   5.359   2.049 -0.1494 -0.1635  0.0970
  656MOL0     C88437  -0.287   5.436   2.186  0.2122 -0.7097  0.3789
  656MOL0     C88438  -0.415   5.429   2.289  0.2143 -0.7374 -0.3397
  656MOL0     C88439  -0.405   5.549   2.391 -0.2724  0.1667 -0.0101
  656MOL0     C88440  -0.412   5.703   2.347 -0.6857 -0.2984 -0.4214
  656MOL0     C88441  -0.506   5.792   2.434  0.4530 -0.6731  0.3338
  656MOL0     N88442  -0.446   5.823   2.565  0.2085  0.0749 -0.4594
  656MOL0     C88443  -0.432   5.745   2.685  0.3147 -0.1599  0.5546
  656MOL0     C88444  -0.399   5.838   2.783 -0.2256 -0.1917  1.0164
  656MOL0     C88445  -0.358   5.808   2.931 -0.4810  0.0946 -0.3043
  656MOL0     C88446  -0.461   5.871   3.024  0.7959  0.7889  0.0878
  656MOL0     C88447  -0.427   5.830   3.174  0.1175  0.0731  0.3217
  656MOL0     C88448  -0.528   5.883   3.286  0.1707 -0.6435  0.2537
  656MOL0     O88449  -0.566   6.018   3.287  0.4383 -0.4439  0.0217
  656MOL0     C88450  -0.613   6.081   3.398 -0.1087 -0.0190 -0.4990
  656MOL0     C88451  -0.635   6.216   3.397  0.8287 -0.1705 -0.5440
  656MOL0     C88452  -0.670   6.281   3.517 -0.3353  0.6335 -0.0021
  656MOL0     C88453  -0.670   6.218   3.640  0.3380 -0.2038 -1.0756
  656MOL0     C88454  -0.701   6.294   3.762  0.1566  0.9850  0.5571
  656MOL0     O88455  -0.683   6.226   3.886  0.1071 -0.4161  0.2282
  656MOL0     C88456  -0.682   6.293   4.001 -0.3353 -0.9276  0.6258
  656MOL0     C88457  -0.772   6.396   4.041  0.2194 -0.3623 -0.9756
  656MOL0     C88458  -0.778   6.442   4.175  0.1139 -0.3044  0.1349
  656MOL0     C88459  -0.697   6.386   4.267 -0.3000 -0.0153 -0.1304
  656MOL0     O88460  -0.701   6.422   4.397  0.0862  0.3588  0.0073
  656MOL0     C88461  -0.818   6.485   4.447  0.5073  0.0380 -0.6898
  656MOL0     C88462  -0.816   6.500   4.595 -0.2590 -0.0682  0.9800
  656MOL0     C88463  -0.961   6.529   4.642 -0.7819  0.0482 -0.8373
  656MOL0     C88464  -0.956   6.528   4.797  0.7931 -0.7407 -0.5176
  656MOL0     C88465  -1.087   6.585   4.854 -0.1566 -0.2564  0.2574
  656MOL0     C88466  -1.095   6.617   4.999 -0.2800 -0.1017 -0.2071
  656MOL0     C88467  -1.240   6.656   5.043 -0.3260 -1.2326 -0.0280
  656MOL0     C88468  -1.244   6.787   5.128  0.3701  0.4043  0.3045
  656MOL0    Cl88469  -1.411   6.828   5.178  0.0452  0.0051  0.0793
  656MOL0     C88470  -0.599   6.294   4.228 -0.6411 -0.5141  0.9029
  656MOL0     C88471  -0.593   6.249   4.095 -0.2766  0.6845  0.1217
  656MOL0     O88472  -0.724   6.416   3.749 -0.4565 -0.0716  0.6599
  656MOL0     C88473  -0.655   6.080   3.643 -1.1008 -0.5250 -0.0118
  656MOL0     C88474  -0.633   6.021   3.521  0.7013  1.2460 -0.5870
  656MOL0     N88475  -0.391   5.960   2.722 -0.1538 -0.1740  0.6743
  656MOL0     N88476  -0.421   5.949   2.597 -0.5216 -0.2741  0.3422
  656MOL0     C88477  -0.102   5.176   1.564 -0.6761 -0.5719  0.5975
  656MOL0     C88478  -0.120   5.088   1.457 -0.1202 -0.6007  0.3403
  656MOL0     C88479  -0.157   4.629   1.274 -0.3391 -0.0172  1.0716
  656MOL0     C88480  -0.227   4.675   1.163  0.6772 -0.1075 -0.3488
  656MOL0     C88481  -0.296   4.589   1.075  0.5604  0.5948  0.1656
  656MOL0     C88482  -0.276   4.454   1.088 -0.8777 -0.1199 -0.5090
  656MOL0     O88483  -0.326   4.361   1.002 -0.6337 -0.8049 -0.2376
  656MOL0     C88484  -0.463   4.381   0.952 -0.5055 -0.3484  1.0348
  656MOL0     C88485  -0.486   4.266   0.841 -0.0893 -1.3206  0.0850
  656MOL0     C88486  -0.494   4.329   0.707  0.5913  0.0124  0.8401
  656MOL0     C88487  -0.631   4.402   0.691  0.3315  0.6126  0.4732
  656MOL0     C88488  -0.624   4.494   0.573 -0.6630  0.4927  0.2159
  656MOL0     C88489  -0.627   4.591   0.492  0.0385  0.8341 -0.0335
  656MOL0     C88490  -0.200   4.409   1.201  0.4599 -0.2375  0.4819
  656MOL0     C88491  -0.143   4.486   1.289 -0.3167  0.1770  0.5826
  656MOL0     C88492  -0.078   4.424   1.407 -0.0974  0.2596 -0.1369
  656MOL0     H88493  -0.167   4.811   1.615 -0.6728 -0.3790 -1.9619
  656MOL0     H88494  -0.116   4.957   1.815  1.5013 -1.5196 -0.5041
  656MOL0     H88495  -0.180   5.387   1.799 -1.0234 -0.2357  0.1522
  656MOL0     H88496  -0.274   5.236   1.819 -3.7554  3.9352  2.9566
  656MOL0     H88497  -0.103   5.318   2.049  0.4311  0.3053  0.5530
  656MOL0     H88498  -0.194   5.178   2.044  3.1560 -0.3123  0.4421
  656MOL0     H88499  -0.391   5.281   2.059  1.8181 -2.5009 -1.6734
  656MOL0     H88500  -0.346   5.419   1.963  0.5026 -0.5113 -0.3932
  656MOL0     H88501  -0.199   5.390   2.233 -0.7206  1.3688  4.6853
  656MOL0     H88502  -0.267   5.542   2.170  1.5858 -0.8674  0.9285
  656MOL0     H88503  -0.507   5.447   2.232  1.1137  2.3287 -1.0308
  656MOL0     H88504  -0.424   5.335   2.344 -0.4943  0.8483  2.4555
  656MOL0     H88505  -0.482   5.522   2.464  0.0187 -0.5970  0.0328
  656MOL0     H88506  -0.308   5.540   2.440 -0.9006 -2.3416  0.9329
  656MOL0     H88507  -0.447   5.713   2.244 -0.2816  1.1825 -0.4402
  656MOL0     H88508  -0.317   5.757   2.356 -2.7323  3.2680  2.9926
  656MOL0     H88509  -0.537   5.885   2.384  0.5779 -1.3793 -1.1032
  656MOL0     H88510  -0.601   5.742   2.458 -0.2572 -1.4093 -3.2892
  656MOL0     H88511  -0.450   5.639   2.700 -1.5652  0.1710  0.9063
  656MOL0     H88512  -0.338   5.701   2.938  1.5740  0.2161 -2.7269
  656MOL0     H88513  -0.267   5.865   2.954 -0.5599  0.3083 -0.5206
  656MOL0     H88514  -0.464   5.980   3.012  3.3898  0.7209 -1.9232
  656MOL0     H88515  -0.559   5.828   2.999  1.7731 -2.2169  0.9749
  656MOL0     H88516  -0.331   5.876   3.201  1.2253 -0.1021 -2.8286
  656MOL0     H88517  -0.423   5.721   3.177 -2.6336 -0.1024  0.0226
  656MOL0     H88518  -0.477   5.849   3.376  1.0927  0.5303  0.1941
  656MOL0     H88519  -0.624   5.831   3.275 -0.4757  0.0222  2.3228
  656MOL0     H88520  -0.624   6.269   3.303  2.6233  0.1413 -0.1884
  656MOL0     H88521  -0.701   6.384   3.506 -0.2575  1.5231  5.5349
  656MOL0     H88522  -0.835   6.449   3.970  0.4301 -1.2920 -1.8818
  656MOL0     H88523  -0.853   6.517   4.198 -1.2856 -1.3182 -0.9636
  656MOL0     H88524  -0.839   6.588   4.415  0.2560  0.2258  0.0538
  656MOL0     H88525  -0.896   6.417   4.412 -0.7135  2.1235 -2.3016
  656MOL0     H88526  -0.774   6.409   4.639 -0.6729 -0.0336  1.4439
  656MOL0     H88527  -0.752   6.584   4.627  1.8366 -2.1557  2.6036
  656MOL0     H88528  -1.002   6.620   4.597  0.5705  0.5608 -1.0724
  656MOL0     H88529  -1.034   6.449   4.624  1.3692 -2.3404  0.3606
  656MOL0     H88530  -0.870   6.586   4.829  0.7613 -0.9210 -0.0890
  656MOL0     H88531  -0.942   6.428   4.841  0.4456 -0.1912  0.8734
  656MOL0     H88532  -1.162   6.508   4.835 -0.3702  0.5524 -2.6993
  656MOL0     H88533  -1.117   6.675   4.800  2.6853  0.6284  0.0020
  656MOL0     H88534  -1.056   6.532   5.057 -0.1489 -3.5492 -4.7572
  656MOL0     H88535  -1.029   6.703   5.011  2.4639 -2.3298  2.4224
  656MOL0     H88536  -1.273   6.565   5.093  0.0384 -0.3545  1.9135
  656MOL0     H88537  -1.313   6.669   4.961 -2.0221  1.3676  1.7170
  656MOL0     H88538  -1.185   6.796   5.219 -1.2591 -2.2278  1.7638
  656MOL0     H88539  -1.211   6.865   5.059 -3.1727 -1.9592 -4.7153
  656MOL0     H88540  -0.530   6.256   4.302  0.5851  0.2865  0.2055
  656MOL0     H88541  -0.523   6.177   4.054 -2.4576 -0.8221 -1.1376
  656MOL0     H88542  -0.662   6.006   3.722  1.6398  1.0170  1.8951
  656MOL0     H88543  -0.620   5.914   3.533 -2.5944  0.4361 -2.7739
  656MOL0     H88544  -0.099   5.282   1.541 -2.2852 -1.0162 -2.2120
  656MOL0     H88545  -0.126   5.133   1.358 -0.8169  1.4016  1.2230
  656MOL0     H88546  -0.241   4.781   1.144 -1.5504  0.4097  3.3178
  656MOL0     H88547  -0.358   4.629   0.996  2.0991 -1.4658 -2.2178
  656MOL0     H88548  -0.472   4.480   0.906  1.3091 -0.7445 -0.2431
  656MOL0     H88549  -0.540   4.371   1.030 -0.8616  1.2388  0.9258
  656MOL0     H88550  -0.574   4.204   0.860  1.5311 -4.0630 -0.8721
  656MOL0     H88551  -0.411   4.188   0.830  1.3037  0.3522 -4.8755
  656MOL0     H88552  -0.503   4.252   0.630 -1.7620 -0.0868  1.1275
  656MOL0     H88553  -0.404   4.391   0.695  1.5146 -1.2671  0.9580
  656MOL0     H88554  -0.720   4.340   0.677  1.2885 -0.5377 -0.7628
  656MOL0     H88555  -0.657   4.464   0.778 -1.6508  0.2658  0.1840
  656MOL0     H88556  -0.630   4.662   0.412 -1.2234  2.0740  1.0581
  656MOL0     H88557  -0.179   4.303   1.212  4.5524  0.5823  3.0210
  656MOL0     H88558   0.030   4.421   1.385 -0.1852 -2.7124 -0.5999
  656MOL0     H88559  -0.089   4.478   1.501  0.5763 -0.9872  0.6869
  656MOL0     H88560  -0.096   4.318   1.428  1.5070  0.1903  1.1156
  657MOL0     O88561   6.487   0.884   5.834 -0.0951  0.0403 -0.0062
  657MOL0     C88562   6.383   0.852   5.773  0.3799 -0.8623 -0.2342
  657MOL0     O88563   6.259   0.836   5.838  1.0248 -0.6114  0.3921
  657MOL0     C88564   6.249   0.806   5.974  0.3939 -0.1293  0.0684
  657MOL0     C88565   6.235   0.916   6.058  0.5927 -0.3732 -0.0948
  657MOL0     C88566   6.209   0.893   6.199 -0.6742 -0.2162 -0.0589
  657MOL0     C88567   6.204   0.764   6.247 -0.0677 -0.1034 -0.4475
  657MOL0     O88568   6.175   0.739   6.380  0.5097  0.0040  0.3682
  657MOL0     C88569   6.167   0.857   6.463 -0.0572 -0.6990  0.8446
  657MOL0     C88570   6.155   0.800   6.608 -0.2237 -0.4400  0.0135
  657MOL0     C88571   6.082   0.912   6.687  0.0243  0.0961 -0.2731
  657MOL0     C88572   6.114   0.907   6.833  0.6181 -0.5061  0.9487
  657MOL0     C88573   6.053   1.028   6.902  0.2548  0.2379 -0.0423
  657MOL0     C88574   6.071   1.026   7.057  1.0338 -1.2101  0.5416
  657MOL0     C88575   6.216   1.030   7.100 -0.8292  0.2066  0.7584
  657MOL0     C88576   6.229   1.020   7.248  0.2325 -0.2308  0.8282
  657MOL0     N88577   6.372   1.008   7.269 -0.2972 -0.3176 -0.6905
  657MOL0     C88578   6.472   1.094   7.227  1.7629  0.4914 -0.0472
  657MOL0     C88579   6.595   1.038   7.252  0.9801 -0.7305  0.3912
  657MOL0     C88580   6.732   1.095   7.213 -0.4507  0.6838 -0.6323
  657MOL0     C88581   6.840   0.989   7.233 -0.6044  0.2602  0.3167
  657MOL0     C88582   6.961   1.001   7.135  0.3864 -0.9049 -0.5956
  657MOL0     C88583   7.045   1.122   7.177  0.0411  0.0188 -0.7859
  657MOL0     O88584   7.120   1.122   7.302 -0.7351 -0.7421  0.0671
  657MOL0     C88585   7.211   1.020   7.317  0.7816  0.4462 -0.2306
  657MOL0     C88586   7.183   0.930   7.416  0.4329 -0.2613 -0.9776
  657MOL0     C88587   7.260   0.821   7.449  0.5240  0.6638  0.3444
  657MOL0     C88588   7.383   0.809   7.399 -0.4787  0.8485 -0.4502
  657MOL0     C88589   7.469   0.708   7.458 -0.2130 -0.8234  0.5612
  657MOL0     O88590   7.426   0.616   7.538 -0.3888  0.8630 -0.3002
  657MOL0     C88591   7.491   0.500   7.576  0.5868 -0.2949 -1.0671
  657MOL0     C88592   7.603   0.440   7.514 -0.0351 -0.8619 -0.5084
  657MOL0     C88593   7.666   0.320   7.567  0.5313  0.6759  0.1760
  657MOL0     C88594   7.616   0.259   7.691  0.6069 -0.0098  1.2171
  657MOL0     O88595   7.680   0.146   7.750 -0.0754 -0.9917 -0.1768
  657MOL0     C88596   7.803   0.090   7.716  0.0603  0.4757 -0.5717
  657MOL0     C88597   7.921   0.157   7.777  0.1351 -1.5966  0.4707
  657MOL0     C88598   8.046   0.079   7.769 -0.4066 -0.0197  0.3886
  657MOL0     C88599   8.115   0.106   7.633  0.9268 -0.1836 -0.2226
  657MOL0     C88600   8.171   0.249   7.610  0.1933 -0.3515  0.3404
  657MOL0     C88601   8.256   0.259   7.478 -0.0116  0.2581  0.1449
  657MOL0     C88602   8.310   0.398   7.445 -0.4635  0.5487 -0.8603
  657MOL0     C88603   8.400   0.395   7.338 -1.0291  0.0264  1.5139
  657MOL0    Cl88604   8.561   0.333   7.399 -0.2070  0.2289  0.2099
  657MOL0     C88605   7.506   0.322   7.756 -0.2610 -0.3186  0.3748
  657MOL0     C88606   7.452   0.440   7.701  1.4908  0.6560  0.6374
  657MOL0     O88607   7.591   0.734   7.432 -0.0065 -0.1692  0.5547
  657MOL0     C88608   7.429   0.907   7.307  0.8963 -1.0405  0.0683
  657MOL0     C88609   7.339   1.011   7.262  0.3426  0.0646  0.2255
  657MOL0     N88610   6.563   0.917   7.306  0.1191  0.4102  0.7647
  657MOL0     N88611   6.438   0.905   7.326  0.2661 -0.0540  0.2608
  657MOL0     C88612   6.213   0.650   6.163  0.3719 -0.0382 -0.4423
  657MOL0     C88613   6.245   0.675   6.025 -0.0515 -0.1880 -0.4011
  657MOL0     C88614   6.389   0.853   5.625 -0.3395 -0.5157 -0.4217
  657MOL0     C88615   6.265   0.817   5.557  0.3419 -0.0251  0.3554
  657MOL0     C88616   6.269   0.781   5.425  0.2003  0.7025  1.6996
  657MOL0     C88617   6.386   0.799   5.346 -0.7543  0.8405 -0.2629
  657MOL0     O88618   6.391   0.771   5.208 -0.7230 -0.4680 -0.0680
  657MOL0     C88619   6.493   0.667   5.164  0.7725  0.0015 -0.0723
  657MOL0     C88620   6.632   0.704   5.114 -0.1602  0.2151  0.4167
  657MOL0     C88621   6.630   0.789   4.983 -0.2691  0.3678  0.7891
  657MOL0     C88622   6.765   0.811   4.922 -0.4860  0.2938  0.6324
  657MOL0     C88623   6.752   0.871   4.788  0.1220 -0.3350  0.8708
  657MOL0     C88624   6.766   0.919   4.673 -0.4358  0.1659 -0.2555
  657MOL0     C88625   6.507   0.848   5.407 -0.5513  0.1538  0.1470
  657MOL0     C88626   6.512   0.868   5.551 -0.2840 -0.0362 -0.2918
  657MOL0     C88627   6.639   0.927   5.606  0.2362  0.6200 -0.2294
  657MOL0     H88628   6.243   1.014   6.012 -0.9498 -0.9488 -1.7417
  657MOL0     H88629   6.209   0.979   6.266 -1.8811  0.1323 -0.4864
  657MOL0     H88630   6.254   0.923   6.461 -0.2755 -0.4089 -0.8378
  657MOL0     H88631   6.080   0.920   6.439  0.4429 -0.6989 -1.1431
  657MOL0     H88632   6.253   0.781   6.651 -0.4015 -1.1344  0.1086
  657MOL0     H88633   6.095   0.712   6.630  0.8946 -1.0118  0.8299
  657MOL0     H88634   5.977   0.883   6.675  0.1754  0.3160 -2.6132
  657MOL0     H88635   6.098   1.003   6.628 -0.7186 -0.6467 -1.6746
  657MOL0     H88636   6.069   0.813   6.865 -1.5470 -0.0905 -0.6272
  657MOL0     H88637   6.222   0.904   6.850  1.3836  1.4565 -2.5964
  657MOL0     H88638   6.108   1.111   6.856 -0.1252  1.2776  1.3481
  657MOL0     H88639   5.948   1.045   6.879  0.0160 -1.6269 -0.5126
  657MOL0     H88640   6.023   1.123   7.076  0.5474 -0.6476 -2.8665
  657MOL0     H88641   6.012   0.944   7.098  2.8453 -0.9468  4.0313
  657MOL0     H88642   6.266   1.118   7.059 -0.6134 -0.6640 -0.9426
  657MOL0     H88643   6.268   0.945   7.055  1.9197  2.1934 -0.0551
  657MOL0     H88644   6.203   1.120   7.286  1.8477  1.0280 -1.1987
  657MOL0     H88645   6.174   0.943   7.304 -0.3179 -0.3335  0.1559
  657MOL0     H88646   6.461   1.183   7.166  1.4335  1.9679  2.0501
  657MOL0     H88647   6.722   1.138   7.113 -2.1153  2.0869  0.0864
  657MOL0     H88648   6.751   1.183   7.275 -1.1479 -0.4451  1.2919
  657MOL0     H88649   6.884   0.993   7.333 -0.0995  2.6563  0.0658
  657MOL0     H88650   6.807   0.891   7.198 -2.9157  2.1309 -3.4859
  657MOL0     H88651   6.936   1.031   7.033 -3.3276  3.3046  1.2383
  657MOL0     H88652   7.022   0.910   7.138  1.2766 -0.4784 -3.2599
  657MOL0     H88653   6.976   1.207   7.179  0.4618  0.3413  0.6598
  657MOL0     H88654   7.120   1.135   7.098  0.4978  2.5398 -0.0023
  657MOL0     H88655   7.092   0.950   7.472  1.7606 -1.0331  1.6169
  657MOL0     H88656   7.238   0.757   7.534  0.3048 -1.2988 -1.1233
  657MOL0     H88657   7.622   0.477   7.414 -0.7483  1.2030  0.0713
  657MOL0     H88658   7.747   0.288   7.503  1.9536  1.0090  1.7414
  657MOL0     H88659   7.800  -0.011   7.760  0.0658  1.0610  0.8183
  657MOL0     H88660   7.821   0.071   7.609  0.2928  2.3569 -0.8959
  657MOL0     H88661   7.935   0.251   7.723  0.3753 -2.0020 -0.1801
  657MOL0     H88662   7.904   0.185   7.882  2.3853  1.4392  0.1510
  657MOL0     H88663   8.119   0.123   7.837 -0.3456  0.9301 -0.2663
  657MOL0     H88664   8.026  -0.027   7.784 -0.2800 -0.0224  0.5321
  657MOL0     H88665   8.045   0.082   7.553 -0.1620  1.4484  0.1934
  657MOL0     H88666   8.197   0.034   7.630 -2.5715 -4.5850 -1.7706
  657MOL0     H88667   8.233   0.273   7.697 -1.0824  0.7893  0.9855
  657MOL0     H88668   8.093   0.323   7.590 -0.7716 -1.8982 -2.0292
  657MOL0     H88669   8.330   0.179   7.488 -0.5770 -0.4459 -1.1940
  657MOL0     H88670   8.199   0.217   7.395  1.9475 -1.4973 -0.3909
  657MOL0     H88671   8.347   0.455   7.531  2.0743 -0.7627 -0.9731
  657MOL0     H88672   8.221   0.453   7.412 -1.8430 -0.5941  0.7854
  657MOL0     H88673   8.367   0.331   7.256  0.3780 -1.5120  2.1035
  657MOL0     H88674   8.419   0.497   7.301 -1.8934 -0.2493  0.2601
  657MOL0     H88675   7.461   0.267   7.838 -0.0955 -1.8195 -0.4889
  657MOL0     H88676   7.375   0.487   7.762  0.6612 -0.9671  0.8731
  657MOL0     H88677   7.532   0.909   7.273  1.0880  2.1886  0.4998
  657MOL0     H88678   7.380   1.087   7.195 -3.2060 -1.6444 -4.4424
  657MOL0     H88679   6.200   0.549   6.202  1.2176  0.9259  2.6253
  657MOL0     H88680   6.266   0.587   5.966  0.9439 -0.3922  0.2171
  657MOL0     H88681   6.178   0.798   5.620  1.9135 -3.6856  1.7212
  657MOL0     H88682   6.185   0.737   5.372  1.5711  1.2557 -1.0581
  657MOL0     H88683   6.447   0.607   5.085  0.3645 -1.9333  1.5433
  657MOL0     H88684   6.508   0.606   5.253 -0.9705 -1.1142 -0.5033
  657MOL0     H88685   6.680   0.609   5.089 -0.7181  0.2338 -0.7840
  657MOL0     H88686   6.683   0.743   5.203  2.7039 -3.4457  0.6188
  657MOL0     H88687   6.573   0.881   5.000 -2.1416 -0.2048 -1.8618
  657MOL0     H88688   6.566   0.740   4.909 -0.0894  1.6744 -0.2625
  657MOL0     H88689   6.827   0.873   4.987 -1.2738  1.5319  0.2502
  657MOL0     H88690   6.812   0.714   4.904 -1.0964 -0.0144  0.6917
  657MOL0     H88691   6.785   0.966   4.579  1.3626  0.7664  0.3754
  657MOL0     H88692   6.584   0.870   5.333 -0.1578 -0.7064  0.2899
  657MOL0     H88693   6.625   1.023   5.655  0.2834  0.6332 -0.2412
  657MOL0     H88694   6.679   0.858   5.681 -1.7956 -3.9429 -2.9055
  657MOL0     H88695   6.712   0.945   5.526  1.0562 -0.7032  0.1791
  658MOL0     O88696   0.647   7.828   8.332 -0.1038  0.7641  0.2906
  658MOL0     C88697   0.750   7.813   8.259  0.3291  0.6101 -0.3293
  658MOL0     O88698   0.768   7.728   8.149  0.1431 -0.7016 -0.2869
  658MOL0     C88699   0.680   7.649   8.093 -0.9919 -0.0342  0.5130
  658MOL0     C88700   0.731   7.539   8.027 -0.1189  0.7051  0.1484
  658MOL0     C88701   0.648   7.443   7.977  0.2265  0.7127 -1.4180
  658MOL0     C88702   0.508   7.470   7.966  0.0488  0.7338  0.1791
  658MOL0     O88703   0.430   7.376   7.906  0.9216 -0.5861  0.0661
  658MOL0     C88704   0.318   7.335   7.989 -0.9014 -0.2922 -0.2643
  658MOL0     C88705   0.307   7.181   7.977  0.2925  0.2128  0.5739
  658MOL0     C88706   0.238   7.129   8.107  0.0962  1.3180 -0.3326
  658MOL0     C88707   0.235   6.976   8.103  0.0230  0.8428 -0.0038
  658MOL0     C88708   0.370   6.911   8.096  1.0688  0.1548 -0.2743
  658MOL0     C88709   0.379   6.785   8.179 -0.4191  0.7206 -0.5986
  658MOL0     C88710   0.511   6.713   8.149 -0.1305  0.0314 -0.3321
  658MOL0     C88711   0.567   6.604   8.250 -0.2742  0.2519  0.7340
  658MOL0     N88712   0.462   6.507   8.280  0.1393 -0.0049  0.4113
  658MOL0     C88713   0.391   6.430   8.184  0.2837 -0.6002 -0.4158
  658MOL0     C88714   0.308   6.347   8.256 -0.0382 -0.4223  0.5688
  658MOL0     C88715   0.199   6.264   8.194 -0.7382 -0.2974 -1.3739
  658MOL0     C88716   0.070   6.336   8.159  0.1781  0.0198  0.0989
  658MOL0     C88717  -0.030   6.261   8.073 -0.4225  1.2343  0.2842
  658MOL0     C88718  -0.155   6.347   8.054 -0.3343 -0.4921  0.9569
  658MOL0     O88719  -0.218   6.372   8.183 -0.1752 -0.5191 -0.7740
  658MOL0     C88720  -0.352   6.393   8.194  0.4237 -0.5329  0.9650
  658MOL0     C88721  -0.411   6.366   8.315  0.3023  0.5748 -0.5201
  658MOL0     C88722  -0.546   6.401   8.333 -0.2866  0.5098  0.1020
  658MOL0     C88723  -0.633   6.439   8.221 -0.8425  0.2276  0.8277
  658MOL0     C88724  -0.783   6.447   8.246 -0.6566  0.3574  0.3192
  658MOL0     O88725  -0.861   6.423   8.142 -0.3088 -0.2694  0.4391
  658MOL0     C88726  -0.995   6.438   8.159  0.0892  0.4146 -0.0928
  658MOL0     C88727  -1.077   6.341   8.221 -0.2834  1.1638  0.8639
  658MOL0     C88728  -1.218   6.348   8.212  0.8393 -0.0019 -0.6478
  658MOL0     C88729  -1.285   6.455   8.152 -0.0926  0.0232 -0.6263
  658MOL0     O88730  -1.420   6.458   8.141  0.5590  0.1648 -0.0141
  658MOL0     C88731  -1.490   6.550   8.065  0.5593  0.0924 -0.4928
  658MOL0     C88732  -1.516   6.686   8.142 -0.3364  0.5471 -0.5509
  658MOL0     C88733  -1.619   6.780   8.084  0.6956  0.7594  0.1271
  658MOL0     C88734  -1.768   6.727   8.109 -0.5522 -0.6116 -0.2934
  658MOL0     C88735  -1.868   6.831   8.050 -0.5943  0.0442  0.0013
  658MOL0     C88736  -2.004   6.782   8.104  0.0613  0.1546  0.0693
  658MOL0     C88737  -2.110   6.859   8.021  0.0344 -0.2932  1.1398
  658MOL0     C88738  -2.248   6.849   8.073  0.4949 -0.7160  0.1179
  658MOL0    Cl88739  -2.252   6.891   8.262  0.5673 -0.1268 -0.4201
  658MOL0     C88740  -1.200   6.547   8.094  0.0448 -0.1665  0.4959
  658MOL0     C88741  -1.062   6.548   8.102  0.0644 -1.1987 -0.0748
  658MOL0     O88742  -0.812   6.487   8.359  0.3105 -0.1420 -0.4306
  658MOL0     C88743  -0.575   6.475   8.100  0.2998 -0.1821  0.3091
  658MOL0     C88744  -0.433   6.446   8.087  0.0987 -0.1640 -0.2517
  658MOL0     N88745   0.349   6.354   8.385 -0.1475 -0.4477 -0.3014
  658MOL0     N88746   0.428   6.455   8.404  0.5169 -0.4308 -0.3968
  658MOL0     C88747   0.451   7.592   8.017 -0.6374 -0.5202 -0.6464
  658MOL0     C88748   0.539   7.686   8.078 -1.0576 -0.5265  0.8905
  658MOL0     C88749   0.876   7.896   8.287  0.1142 -0.3245 -0.5075
  658MOL0     C88750   0.985   7.890   8.213  0.1327  0.3025 -0.8612
  658MOL0     C88751   1.098   7.971   8.234 -0.6458 -0.1481 -0.1774
  658MOL0     C88752   1.101   8.075   8.333  0.6933 -0.6740  0.6744
  658MOL0     O88753   1.190   8.184   8.349 -0.9533  0.6975 -0.6076
  658MOL0     C88754   1.316   8.181   8.268 -0.4491 -0.3272 -0.0681
  658MOL0     C88755   1.417   8.088   8.332  0.4730  0.4169  0.4832
  658MOL0     C88756   1.449   8.168   8.470 -0.2277  0.1122 -0.3999
  658MOL0     C88757   1.377   8.104   8.591  0.0232 -0.0652 -0.3693
  658MOL0     C88758   1.460   8.123   8.716 -0.6818 -0.0589 -0.3118
  658MOL0     C88759   1.524   8.145   8.818 -0.4387  1.2611 -0.5103
  658MOL0     C88760   0.995   8.072   8.420 -0.1038 -0.2022  0.4433
  658MOL0     C88761   0.887   7.982   8.398 -0.2589 -0.4601  0.6742
  658MOL0     C88762   0.767   8.006   8.489  0.3189  0.0819 -0.3404
  658MOL0     H88763   0.839   7.527   8.036  0.2656  3.8685  1.3594
  658MOL0     H88764   0.675   7.345   7.940  0.0220 -0.2139  0.7293
  658MOL0     H88765   0.315   7.360   8.096 -1.3453  2.2313 -0.8183
  658MOL0     H88766   0.228   7.383   7.949 -0.3789  0.5542 -0.4396
  658MOL0     H88767   0.405   7.132   7.965  1.3590  2.4987 -0.6631
  658MOL0     H88768   0.245   7.156   7.890  0.3842 -1.0886  0.8515
  658MOL0     H88769   0.132   7.156   8.109 -0.2495  0.0205  1.0078
  658MOL0     H88770   0.289   7.171   8.194 -0.5315 -0.2110  0.8109
  658MOL0     H88771   0.183   6.943   8.193 -1.6427  2.5161 -0.3000
  658MOL0     H88772   0.178   6.937   8.019  0.6703 -1.3970  0.5318
  658MOL0     H88773   0.398   6.894   7.992 -3.0746 -1.3545 -1.3454
  658MOL0     H88774   0.441   6.988   8.129 -0.6556  1.4380  0.5936
  658MOL0     H88775   0.371   6.817   8.283 -0.3172 -0.8303 -0.0951
  658MOL0     H88776   0.294   6.721   8.155 -0.0347 -0.1042  0.1823
  658MOL0     H88777   0.592   6.785   8.136 -0.8285  1.5216  2.5770
  658MOL0     H88778   0.492   6.672   8.050  3.4843 -0.6829 -0.8405
  658MOL0     H88779   0.656   6.562   8.201 -2.0119  0.0516 -2.5444
  658MOL0     H88780   0.611   6.647   8.340  3.4014  0.3470 -0.9268
  658MOL0     H88781   0.399   6.431   8.076 -0.8973  0.0517 -0.5051
  658MOL0     H88782   0.245   6.210   8.111  3.2019  1.3265 -0.4970
  658MOL0     H88783   0.160   6.190   8.263 -1.0222  0.8108 -0.3001
  658MOL0     H88784   0.016   6.356   8.252 -1.4002 -0.2460 -0.7330
  658MOL0     H88785   0.092   6.435   8.120  0.7977 -0.1305  0.0583
  658MOL0     H88786  -0.047   6.167   8.124  1.1303  3.1816  4.9055
  658MOL0     H88787   0.018   6.233   7.978 -0.2054 -1.9979  1.2474
  658MOL0     H88788  -0.232   6.299   7.993 -0.1026 -1.7586  1.6082
  658MOL0     H88789  -0.124   6.445   8.018 -0.5023 -1.1342 -1.0336
  658MOL0     H88790  -0.356   6.342   8.406 -0.8868  1.3648  0.4558
  658MOL0     H88791  -0.582   6.396   8.435 -1.0569 -0.8892 -0.2128
  658MOL0     H88792  -1.034   6.264   8.285 -3.6784  0.2481  2.2524
  658MOL0     H88793  -1.289   6.289   8.270  0.3049  0.2110 -1.0732
  658MOL0     H88794  -1.441   6.564   7.969 -2.9169 -0.0833 -2.4594
  658MOL0     H88795  -1.583   6.506   8.028 -1.1097  1.1251  2.1757
  658MOL0     H88796  -1.552   6.652   8.239  0.8230 -1.3812 -0.7287
  658MOL0     H88797  -1.424   6.744   8.150  0.6405 -0.8966 -0.7482
  658MOL0     H88798  -1.616   6.877   8.133  1.1909 -0.4105  2.5847
  658MOL0     H88799  -1.603   6.794   7.977  0.0073 -2.7334 -0.5575
  658MOL0     H88800  -1.799   6.725   8.214 -1.8757  1.3378 -0.5898
  658MOL0     H88801  -1.780   6.630   8.061 -4.3382  0.1344 -1.2215
  658MOL0     H88802  -1.862   6.838   7.941 -1.9134  2.8192  0.0244
  658MOL0     H88803  -1.847   6.931   8.088  0.2438  0.5649 -1.7354
  658MOL0     H88804  -2.010   6.674   8.085  2.5028 -0.0210 -0.1012
  658MOL0     H88805  -2.010   6.801   8.211  0.3938 -1.9498  0.5078
  658MOL0     H88806  -2.121   6.836   7.914 -1.2675  0.8427  0.9971
  658MOL0     H88807  -2.078   6.962   8.037  0.3404 -0.2771  0.4748
  658MOL0     H88808  -2.320   6.916   8.026  1.7808  1.3147  0.9200
  658MOL0     H88809  -2.282   6.746   8.061  0.3821 -0.4942 -1.6186
  658MOL0     H88810  -1.236   6.623   8.025  0.0374 -3.5813 -3.7056
  658MOL0     H88811  -1.008   6.629   8.055  0.5245 -0.3633  1.7930
  658MOL0     H88812  -0.645   6.499   8.021 -1.6212 -1.6655  1.4647
  658MOL0     H88813  -0.392   6.464   7.988 -0.1529  0.6864 -0.2157
  658MOL0     H88814   0.343   7.600   8.009 -0.7458 -2.6073 -1.8938
  658MOL0     H88815   0.507   7.789   8.095 -0.9411  0.0995 -2.1756
  658MOL0     H88816   0.986   7.815   8.134 -0.8354  0.9013 -1.4744
  658MOL0     H88817   1.168   7.984   8.151  0.1142  1.3081  0.6394
  658MOL0     H88818   1.349   8.285   8.269 -1.9886  0.1926  0.7162
  658MOL0     H88819   1.295   8.150   8.165 -1.7926 -0.0544  0.0962
  658MOL0     H88820   1.507   8.073   8.272 -0.2268 -1.7842 -0.1097
  658MOL0     H88821   1.381   7.984   8.335  1.4977  0.0675  1.0903
  658MOL0     H88822   1.429   8.275   8.467 -2.2799 -0.2400 -1.3972
  658MOL0     H88823   1.557   8.150   8.473 -0.6123 -2.5386  0.4770
  658MOL0     H88824   1.280   8.151   8.612  0.5704  0.7648  0.3771
  658MOL0     H88825   1.376   7.995   8.580  2.0623 -0.3686  1.6996
  658MOL0     H88826   1.592   8.163   8.899  0.9379 -1.7069 -0.8470
  658MOL0     H88827   0.988   8.137   8.506  0.5875 -1.2397  1.3010
  658MOL0     H88828   0.765   8.088   8.561  0.2338 -0.4138  0.2243
  658MOL0     H88829   0.687   8.044   8.423 -0.5330  1.7219  1.5263
  658MOL0     H88830   0.733   7.914   8.536  0.4634  0.1111 -0.1799
  659MOL0     O88831   7.885   8.721   9.201 -0.4303 -0.6417  0.6276
  659MOL0     C88832   7.995   8.769   9.168 -0.2460  1.3580  0.4338
  659MOL0     O88833   8.047   8.771   9.040  0.1211  0.2213  0.0157
  659MOL0     C88834   7.947   8.775   8.944  0.2628  0.0483  0.8821
  659MOL0     C88835   7.945   8.896   8.867  0.5823  0.3920 -0.2159
  659MOL0     C88836   7.859   8.902   8.758 -0.3335 -0.4180  0.4184
  659MOL0     C88837   7.768   8.799   8.730  0.9859 -0.3373 -0.6432
  659MOL0     O88838   7.667   8.816   8.638 -0.0643 -0.4956 -0.2167
  659MOL0     C88839   7.564   8.915   8.667  0.1883 -0.0725 -0.1133
  659MOL0     C88840   7.428   8.883   8.597 -0.3802  0.1258 -0.1985
  659MOL0     C88841   7.367   8.751   8.624  0.4650  0.3488 -0.2786
  659MOL0     C88842   7.258   8.708   8.532 -0.3646 -0.8633  0.7038
  659MOL0     C88843   7.186   8.574   8.581 -0.8566  0.1045 -0.3771
  659MOL0     C88844   7.052   8.617   8.657 -0.0404  0.2571 -0.1854
  659MOL0     C88845   6.970   8.497   8.723  0.1396 -0.4421 -0.0838
  659MOL0     C88846   6.940   8.387   8.630 -0.6511 -0.0718  0.5399
  659MOL0     N88847   6.879   8.389   8.497  0.2929 -0.0357 -0.5574
  659MOL0     C88848   6.927   8.429   8.371 -0.7639  0.0021 -0.9821
  659MOL0     C88849   6.831   8.420   8.279 -0.8855  0.0825 -0.7194
  659MOL0     C88850   6.853   8.432   8.128 -0.0238 -0.1962 -0.1666
  659MOL0     C88851   6.869   8.291   8.076 -0.3737 -1.0134  0.4634
  659MOL0     C88852   6.997   8.223   8.118 -0.1698 -0.0206 -0.3407
  659MOL0     C88853   7.126   8.265   8.068  0.3610 -0.0006  0.1381
  659MOL0     O88854   7.232   8.182   8.124 -0.8411  0.2781  0.2244
  659MOL0     C88855   7.303   8.218   8.239  0.2634 -0.8832  0.6656
  659MOL0     C88856   7.444   8.231   8.220 -0.4132  0.3686  0.2877
  659MOL0     C88857   7.520   8.247   8.338 -0.6024  0.0110 -0.5767
  659MOL0     C88858   7.466   8.266   8.467  0.1097 -0.2087 -0.0486
  659MOL0     C88859   7.552   8.277   8.590  0.0391 -0.8707 -0.1958
  659MOL0     O88860   7.680   8.236   8.574  0.4480 -0.1467 -0.2956
  659MOL0     C88861   7.773   8.233   8.676  0.4063 -0.2856  0.0643
  659MOL0     C88862   7.906   8.235   8.646  0.3120 -0.3973  0.3155
  659MOL0     C88863   7.999   8.233   8.754 -0.0930 -0.3241 -0.1774
  659MOL0     C88864   7.964   8.228   8.896 -0.5195 -0.0905 -0.5020
  659MOL0     O88865   8.050   8.235   9.004 -0.5215 -0.2398  0.4239
  659MOL0     C88866   8.158   8.341   9.003  0.2637 -0.2815 -0.4340
  659MOL0     C88867   8.130   8.448   9.106 -0.6365 -0.0440  0.0346
  659MOL0     C88868   8.126   8.395   9.259  0.0307  0.3995 -0.0345
  659MOL0     C88869   8.256   8.457   9.321  1.0422 -0.1082 -0.2632
  659MOL0     C88870   8.294   8.419   9.469 -0.3975 -1.3376  0.0711
  659MOL0     C88871   8.438   8.480   9.502 -0.3112 -0.5358 -0.7959
  659MOL0     C88872   8.487   8.423   9.637  0.1899  0.0668  0.1258
  659MOL0     C88873   8.635   8.439   9.665  0.5688  1.4385 -1.2665
  659MOL0    Cl88874   8.662   8.314   9.797 -0.3496 -0.1290  0.0861
  659MOL0     C88875   7.828   8.217   8.923  0.4922  0.1942  0.1352
  659MOL0     C88876   7.735   8.217   8.815 -0.0442 -0.8681 -0.4583
  659MOL0     O88877   7.503   8.333   8.687  0.1133 -0.1332  0.5461
  659MOL0     C88878   7.329   8.258   8.480 -0.1721 -0.5127  0.4829
  659MOL0     C88879   7.247   8.232   8.368  0.2619  0.1464 -0.7635
  659MOL0     N88880   6.720   8.406   8.343  0.1694 -0.0856 -0.2335
  659MOL0     N88881   6.745   8.394   8.473  0.9604  1.1251 -0.2399
  659MOL0     C88882   7.771   8.683   8.802  0.1425  0.3563  0.5070
  659MOL0     C88883   7.864   8.670   8.903  0.7242 -0.3558 -0.8873
  659MOL0     C88884   8.103   8.807   9.264 -0.9714 -1.1504  0.5591
  659MOL0     C88885   8.241   8.819   9.216 -0.9532 -0.4182 -0.2645
  659MOL0     C88886   8.343   8.844   9.307  0.7659 -0.5402 -0.5289
  659MOL0     C88887   8.317   8.872   9.445  1.0698  0.6707 -0.0692
  659MOL0     O88888   8.423   8.884   9.523 -0.2110  0.4152 -0.3663
  659MOL0     C88889   8.395   8.898   9.664  0.3116  0.1151 -0.4734
  659MOL0     C88890   8.519   8.929   9.750  0.5462 -0.4140  0.0387
  659MOL0     C88891   8.618   8.827   9.731 -0.4183 -0.3549 -0.9459
  659MOL0     C88892   8.745   8.849   9.815  0.0298 -0.1672  0.3642
  659MOL0     C88893   8.721   8.842   9.960  0.4692  1.0977 -0.2414
  659MOL0     C88894   8.684   8.857  10.082  0.5995 -0.5890 -0.1755
  659MOL0     C88895   8.185   8.868   9.483  0.9851  0.9911 -0.6174
  659MOL0     C88896   8.079   8.840   9.394  0.4442 -0.3582 -0.4422
  659MOL0     C88897   7.939   8.853   9.464  0.1902 -0.4630  0.1968
  659MOL0     H88898   8.008   8.982   8.886 -0.3114  1.7433 -2.8909
  659MOL0     H88899   7.849   8.993   8.700  0.2547 -1.1855 -0.9170
  659MOL0     H88900   7.551   8.901   8.775  2.8066 -4.0143 -0.0785
  659MOL0     H88901   7.589   9.018   8.643 -1.9878  0.2219 -1.4154
  659MOL0     H88902   7.436   8.891   8.488 -1.0168  0.5661 -0.2131
  659MOL0     H88903   7.363   8.967   8.623  0.3395  1.4267 -2.3386
  659MOL0     H88904   7.339   8.753   8.729 -0.0686  1.5585 -0.4279
  659MOL0     H88905   7.436   8.666   8.614  0.5174 -0.2442  3.7069
  659MOL0     H88906   7.181   8.785   8.521  2.2935  1.7977 -0.7942
  659MOL0     H88907   7.302   8.706   8.432  0.2932 -1.6836  0.9997
  659MOL0     H88908   7.179   8.502   8.499 -1.5194 -1.3825  0.9338
  659MOL0     H88909   7.254   8.520   8.648  1.0117 -0.0476 -2.2853
  659MOL0     H88910   7.084   8.690   8.732  3.3686 -1.0442 -0.1942
  659MOL0     H88911   6.985   8.667   8.587 -3.1493 -0.5019  2.0235
  659MOL0     H88912   6.872   8.531   8.757  1.2320  2.4436  0.4335
  659MOL0     H88913   7.018   8.453   8.811  1.1052 -2.0168 -1.3583
  659MOL0     H88914   7.038   8.340   8.619 -0.2001  1.1525 -1.0751
  659MOL0     H88915   6.884   8.310   8.683 -1.4805 -1.6051 -2.3297
  659MOL0     H88916   7.028   8.463   8.349 -0.4439  0.1896  0.6048
  659MOL0     H88917   6.773   8.482   8.074  1.4359 -0.5780 -2.8681
  659MOL0     H88918   6.955   8.466   8.107  0.2264 -2.2257 -2.6439
  659MOL0     H88919   6.783   8.236   8.116 -2.5419  0.7637 -1.4520
  659MOL0     H88920   6.867   8.282   7.967 -0.0498  1.2005  0.2369
  659MOL0     H88921   6.985   8.127   8.067 -2.6622 -0.9282  1.7331
  659MOL0     H88922   6.991   8.216   8.227  1.0183 -1.3952 -0.3402
  659MOL0     H88923   7.162   8.365   8.093  1.7391 -0.3751 -0.2467
  659MOL0     H88924   7.110   8.259   7.960 -0.4384 -1.1188  0.3018
  659MOL0     H88925   7.490   8.208   8.124  0.3117 -1.5126  1.0512
  659MOL0     H88926   7.626   8.241   8.316 -0.5449 -1.9451  0.0353
  659MOL0     H88927   7.934   8.228   8.542 -0.5205 -1.6992  0.1624
  659MOL0     H88928   8.104   8.234   8.725 -0.6235 -1.2799 -2.2932
  659MOL0     H88929   8.254   8.295   9.030  1.2528  2.2928  0.7653
  659MOL0     H88930   8.153   8.389   8.905  2.7056 -2.1056 -1.5685
  659MOL0     H88931   8.192   8.536   9.084  0.6187 -1.7139 -4.2399
  659MOL0     H88932   8.027   8.473   9.079 -0.0716  0.8803 -1.3744
  659MOL0     H88933   8.039   8.447   9.302 -0.1621 -0.1077  0.1886
  659MOL0     H88934   8.124   8.288   9.276  0.1324  0.4223  0.1164
  659MOL0     H88935   8.241   8.565   9.310  3.8241  0.2660 -1.3581
  659MOL0     H88936   8.344   8.432   9.261  1.4627 -0.7703  0.6117
  659MOL0     H88937   8.294   8.312   9.491  0.7317 -1.3416  0.1274
  659MOL0     H88938   8.215   8.464   9.530 -1.0628 -1.9004 -0.3512
  659MOL0     H88939   8.510   8.450   9.425 -0.3846 -3.2436  0.0752
  659MOL0     H88940   8.439   8.589   9.502  1.1632 -0.5090 -2.3611
  659MOL0     H88941   8.457   8.318   9.624 -0.7089  0.6767 -5.4764
  659MOL0     H88942   8.445   8.463   9.729 -0.5551  0.2852 -0.3068
  659MOL0     H88943   8.687   8.415   9.572 -1.0156 -0.5816 -1.7058
  659MOL0     H88944   8.663   8.537   9.705  0.6839  0.2093  1.9343
  659MOL0     H88945   7.802   8.201   9.028 -1.0508  1.4090 -0.0246
  659MOL0     H88946   7.629   8.211   8.838 -0.0716 -1.8062 -0.7951
  659MOL0     H88947   7.294   8.259   8.583 -1.1973  0.1969  0.1538
  659MOL0     H88948   7.148   8.195   8.390  0.3635  0.6799  0.6537
  659MOL0     H88949   7.695   8.613   8.770 -0.1329  1.1779 -0.6927
  659MOL0     H88950   7.877   8.578   8.958 -1.8040 -1.7852 -2.4870
  659MOL0     H88951   8.274   8.795   9.116  2.7548 -0.2352  0.7456
  659MOL0     H88952   8.446   8.845   9.274  0.9763  3.9593 -0.3824
  659MOL0     H88953   8.343   8.808   9.699  0.4868 -0.1157 -0.8052
  659MOL0     H88954   8.335   8.988   9.682  3.0887  1.7701  1.3600
  659MOL0     H88955   8.493   8.942   9.855  0.6792 -0.2871  0.0563
  659MOL0     H88956   8.548   9.024   9.704 -0.9959  0.2514  0.3897
  659MOL0     H88957   8.657   8.821   9.629  0.0675  1.5032 -0.8950
  659MOL0     H88958   8.575   8.730   9.757 -0.4456 -0.0589  0.1574
  659MOL0     H88959   8.823   8.774   9.798 -0.1109 -0.2880  0.2405
  659MOL0     H88960   8.790   8.943   9.785  0.9170 -1.8997 -4.6775
  659MOL0     H88961   8.657   8.872  10.184  2.0921  0.2251  0.1418
  659MOL0     H88962   8.172   8.897   9.587  1.8885  1.0323 -0.5049
  659MOL0     H88963   7.868   8.921   9.416 -3.5420 -0.7821  4.5532
  659MOL0     H88964   7.888   8.756   9.467 -2.0370  0.5802 -1.3471
  659MOL0     H88965   7.935   8.890   9.567 -3.6650 -0.0075  0.0178
  660MOL0     O88966   9.658   6.197   0.196  0.1495 -0.7648 -0.5773
  660MOL0     C88967   9.612   6.310   0.220  0.2084 -0.8545 -0.1759
  660MOL0     O88968   9.681   6.424   0.263  0.9122  0.5996  0.7366
  660MOL0     C88969   9.819   6.431   0.259  0.0135  0.2392  0.2783
  660MOL0     C88970   9.880   6.492   0.368 -0.3417 -0.5855 -0.4837
  660MOL0     C88971  10.016   6.500   0.391  0.5378 -0.5724  0.0245
  660MOL0     C88972  10.104   6.465   0.292  0.7841  0.0192  0.1566
  660MOL0     O88973  10.238   6.457   0.311  0.2939 -0.4049  0.0971
  660MOL0     C88974  10.315   6.532   0.408  0.5530 -0.5985 -0.1685
  660MOL0     C88975  10.347   6.456   0.543  0.2823 -0.6071  0.1262
  660MOL0     C88976  10.477   6.386   0.547  0.1844  0.0767  0.1167
  660MOL0     C88977  10.601   6.480   0.530 -0.6330 -0.0969  0.6919
  660MOL0     C88978  10.723   6.401   0.569 -0.0776 -0.6790 -0.0694
  660MOL0     C88979  10.845   6.505   0.568  0.2529 -1.0616 -0.4004
  660MOL0     C88980  10.981   6.434   0.573  0.0487  0.5860 -0.7667
  660MOL0     C88981  10.999   6.335   0.692  0.0506 -0.1016  0.2741
  660MOL0     N88982  10.986   6.400   0.821 -0.2805  0.0223  0.1203
  660MOL0     C88983  11.063   6.511   0.850 -0.3635 -0.2300  0.6096
  660MOL0     C88984  11.031   6.536   0.983  0.6445 -0.6007  0.1411
  660MOL0     C88985  11.092   6.640   1.067  0.0247 -0.4000  0.0756
  660MOL0     C88986  11.216   6.584   1.146 -0.2446  0.0958 -0.4578
  660MOL0     C88987  11.303   6.686   1.220 -0.6378  0.9865 -0.6572
  660MOL0     C88988  11.428   6.616   1.291  0.1149  0.6933  0.6156
  660MOL0     O88989  11.473   6.676   1.411 -0.4130  0.4233 -0.6484
  660MOL0     C88990  11.559   6.610   1.490 -0.0530  0.1786  0.0564
  660MOL0     C88991  11.585   6.678   1.603 -0.0136 -0.7611 -0.1904
  660MOL0     C88992  11.661   6.617   1.695 -0.0296  0.7908 -0.5162
  660MOL0     C88993  11.708   6.483   1.684  0.5845  0.6304  0.2294
  660MOL0     C88994  11.791   6.422   1.779  0.2711  0.0813 -0.4988
  660MOL0     O88995  11.805   6.286   1.764  0.1890  0.2271 -0.3427
  660MOL0     C88996  11.846   6.236   1.888  0.4144  0.6452  0.1472
  660MOL0     C88997  11.972   6.173   1.888 -0.8996  0.1541 -0.3363
  660MOL0     C88998  12.023   6.128   2.008 -1.0389 -0.7498 -0.3693
  660MOL0     C88999  11.944   6.123   2.126 -0.9326 -0.6080  1.2080
  660MOL0     O89000  11.998   6.053   2.236  0.0815  0.6435  0.0482
  660MOL0     C89001  11.917   6.004   2.351  0.0716 -0.7339 -0.2757
  660MOL0     C89002  11.993   5.916   2.456 -0.8289  0.3576 -0.4477
  660MOL0     C89003  12.018   5.980   2.589  0.0607  0.9610 -0.1040
  660MOL0     C89004  12.125   6.081   2.564  0.6293 -0.7738  0.0444
  660MOL0     C89005  12.147   6.176   2.684 -1.3893 -0.0746 -0.2743
  660MOL0     C89006  12.235   6.098   2.792 -0.5470  0.4890 -0.5796
  660MOL0     C89007  12.300   6.182   2.908  0.4494  0.2709  0.0671
  660MOL0     C89008  12.407   6.089   2.972 -0.4343 -0.1930  0.4157
  660MOL0    Cl89009  12.323   6.004   3.108 -0.1678 -0.0722  0.1791
  660MOL0     C89010  11.819   6.184   2.130  0.4790 -0.0596 -0.4206
  660MOL0     C89011  11.766   6.238   2.010  1.0190 -0.7045 -0.8070
  660MOL0     O89012  11.837   6.489   1.872 -0.5232 -0.6994 -0.4683
  660MOL0     C89013  11.689   6.427   1.560  0.2058  1.2657 -0.4238
  660MOL0     C89014  11.606   6.485   1.462  0.1853  0.2711 -1.0758
  660MOL0     N89015  10.946   6.438   1.029  0.0382  0.4056  0.4512
  660MOL0     N89016  10.920   6.354   0.930  0.0940 -1.1468  0.9069
  660MOL0     C89017  10.040   6.411   0.174  0.2060  0.7367  0.0418
  660MOL0     C89018   9.899   6.395   0.157  1.0667 -0.2345  0.2173
  660MOL0     C89019   9.473   6.335   0.187 -0.1522 -0.2592  0.2639
  660MOL0     C89020   9.429   6.266   0.069 -0.9125 -0.5093 -0.6512
  660MOL0     C89021   9.298   6.288   0.027 -0.1916 -0.6182  0.1513
  660MOL0     C89022   9.206   6.374   0.086  0.3818  0.0854  0.3497
  660MOL0     O89023   9.083   6.413   0.034 -0.0549  0.0061  0.1064
  660MOL0     C89024   9.083   6.457  -0.100  0.8409 -1.0733  0.1007
  660MOL0     C89025   8.939   6.501  -0.121 -0.5649  0.3854  0.4792
  660MOL0     C89026   8.935   6.563  -0.269 -0.4415  0.4111  0.3619
  660MOL0     C89027   8.797   6.562  -0.324  0.2939  0.5394  0.2471
  660MOL0     C89028   8.779   6.570  -0.471 -1.3439 -0.2242  0.2224
  660MOL0     C89029   8.781   6.573  -0.596  0.6109 -0.1651 -0.3775
  660MOL0     C89030   9.254   6.432   0.208  0.1419  0.2824 -0.4689
  660MOL0     C89031   9.380   6.415   0.259  0.5787  0.6076  0.3958
  660MOL0     C89032   9.416   6.486   0.391 -0.0403  0.1285 -0.4959
  660MOL0     H89033   9.821   6.537   0.447 -1.1253 -1.7365 -0.3873
  660MOL0     H89034  10.061   6.539   0.481  0.6105  0.7383 -0.5480
  660MOL0     H89035  10.396   6.574   0.347 -0.3951 -0.9485 -1.7318
  660MOL0     H89036  10.257   6.621   0.433 -0.0615  0.4843 -4.6047
  660MOL0     H89037  10.277   6.373   0.555 -0.6152  0.2291  0.8513
  660MOL0     H89038  10.334   6.523   0.628  0.7031  1.1790 -1.1489
  660MOL0     H89039  10.502   6.304   0.480  0.1765  1.0409 -1.1019
  660MOL0     H89040  10.484   6.330   0.641 -0.8376 -1.3058 -0.6020
  660MOL0     H89041  10.613   6.509   0.425 -1.9736 -0.3186  0.4562
  660MOL0     H89042  10.588   6.569   0.592 -1.2615 -0.6184  1.3243
  660MOL0     H89043  10.709   6.359   0.669 -2.0633 -2.5785 -1.0657
  660MOL0     H89044  10.747   6.320   0.499 -0.9375 -0.9323 -0.0733
  660MOL0     H89045  10.832   6.578   0.488 -1.5107  1.6019  2.1271
  660MOL0     H89046  10.837   6.568   0.657 -2.0955 -0.6116 -0.8695
  660MOL0     H89047  11.064   6.505   0.582 -0.4414  1.2866 -1.6164
  660MOL0     H89048  10.997   6.385   0.477 -1.2202  0.0984 -0.7457
  660MOL0     H89049  10.929   6.250   0.685  0.7958 -0.9474  2.3837
  660MOL0     H89050  11.095   6.283   0.685 -0.7202 -1.4785 -0.9575
  660MOL0     H89051  11.124   6.586   0.801  0.1852  2.5502  4.9879
  660MOL0     H89052  11.124   6.721   1.001 -3.5033  0.8806 -0.2623
  660MOL0     H89053  11.015   6.684   1.131 -0.5154 -0.2672 -0.6568
  660MOL0     H89054  11.189   6.509   1.221  2.1584 -2.2520 -1.7451
  660MOL0     H89055  11.274   6.534   1.068  0.8880 -1.1438  1.1200
  660MOL0     H89056  11.233   6.739   1.284 -0.7822 -0.4976  0.4549
  660MOL0     H89057  11.341   6.750   1.139  0.8653  1.4142  0.3376
  660MOL0     H89058  11.513   6.600   1.224 -1.0185 -2.1346 -0.3134
  660MOL0     H89059  11.394   6.516   1.320 -0.2742  0.5389 -0.3023
  660MOL0     H89060  11.549   6.780   1.615  1.2016  0.0783 -2.8504
  660MOL0     H89061  11.693   6.673   1.783 -1.3326 -1.5649  1.6044
  660MOL0     H89062  12.041   6.173   1.805 -0.7347  1.1118 -0.2069
  660MOL0     H89063  12.129   6.107   2.017  0.2434  3.5103 -2.9200
  660MOL0     H89064  11.877   6.090   2.405  0.9828 -1.1604  1.1551
  660MOL0     H89065  11.836   5.952   2.300  0.9221  0.4950 -3.0521
  660MOL0     H89066  11.917   5.839   2.475 -1.9457  1.4746 -0.2638
  660MOL0     H89067  12.081   5.872   2.409 -1.2273  0.0885 -0.9549
  660MOL0     H89068  11.923   6.017   2.629 -0.1597  0.0617  0.2266
  660MOL0     H89069  12.053   5.909   2.664  0.7269  0.1044 -1.1885
  660MOL0     H89070  12.100   6.154   2.487  2.6375  1.7618  1.6297
  660MOL0     H89071  12.216   6.031   2.529 -0.1768 -1.3555 -1.3043
  660MOL0     H89072  12.055   6.212   2.731  0.3406  0.4124  3.0121
  660MOL0     H89073  12.206   6.262   2.650 -0.8701  0.6562  2.2694
  660MOL0     H89074  12.184   6.013   2.839  2.8576 -0.4610  1.7498
  660MOL0     H89075  12.319   6.052   2.738 -1.0026  0.8952 -1.6677
  660MOL0     H89076  12.233   6.214   2.988 -1.8582 -1.2896 -1.1298
  660MOL0     H89077  12.343   6.272   2.863 -1.7456  0.1518 -2.4250
  660MOL0     H89078  12.444   6.018   2.898  0.4862 -0.1680  0.8365
  660MOL0     H89079  12.497   6.138   3.012  1.6985 -3.6596  0.2300
  660MOL0     H89080  11.759   6.187   2.221  1.2852  0.9703  0.0978
  660MOL0     H89081  11.667   6.283   2.007  2.8362  3.7232 -3.0455
  660MOL0     H89082  11.735   6.332   1.536 -1.1617  0.3718  0.4158
  660MOL0     H89083  11.578   6.433   1.371 -1.5788 -0.5368 -0.1156
  660MOL0     H89084  10.096   6.387   0.084  1.3224  0.5047  0.7903
  660MOL0     H89085   9.866   6.346   0.066 -1.4492  0.3679  0.7215
  660MOL0     H89086   9.491   6.192   0.020 -1.4259 -1.3410 -0.0623
  660MOL0     H89087   9.262   6.243  -0.065  0.4659 -1.2462  0.1900
  660MOL0     H89088   9.121   6.378  -0.165  0.6280 -1.5210  0.5125
  660MOL0     H89089   9.132   6.553  -0.120 -0.1497 -0.3619  0.9778
  660MOL0     H89090   8.894   6.566  -0.045  0.4980 -0.2829  1.7314
  660MOL0     H89091   8.867   6.419  -0.129  1.0790 -0.9939 -1.0189
  660MOL0     H89092   8.987   6.496  -0.339 -1.3049 -0.0428  0.1388
  660MOL0     H89093   8.957   6.670  -0.274 -1.8232  0.6717 -2.8001
  660MOL0     H89094   8.735   6.476  -0.298  2.9418 -1.4232  0.4651
  660MOL0     H89095   8.753   6.649  -0.273 -0.5729  0.7648 -0.8506
  660MOL0     H89096   8.804   6.558  -0.700  0.9784 -0.0677 -0.3132
  660MOL0     H89097   9.188   6.491   0.270 -1.2346 -0.8204 -0.8380
  660MOL0     H89098   9.435   6.594   0.382  0.7214  0.0572  0.1575
  660MOL0     H89099   9.329   6.477   0.456 -1.2716  1.4023 -1.8919
  660MOL0     H89100   9.503   6.436   0.435 -2.1389 -0.8482  2.8739
  661MOL0     O89101   8.953   8.861   7.551 -0.0979  0.1590 -0.1058
  661MOL0     C89102   9.027   8.943   7.502  0.3959  0.5596  0.0886
  661MOL0     O89103   9.047   8.972   7.368  0.1371  1.0025  0.1299
  661MOL0     C89104   8.974   8.898   7.278 -0.2084 -0.0520  0.4950
  661MOL0     C89105   8.853   8.947   7.245  0.4411  0.2623 -0.2517
  661MOL0     C89106   8.782   8.894   7.136  0.3889  0.5634 -0.0299
  661MOL0     C89107   8.827   8.781   7.065 -0.1215 -0.1720 -0.2717
  661MOL0     O89108   8.742   8.725   6.973 -0.0613  1.4080 -0.2989
  661MOL0     C89109   8.782   8.593   6.938  0.0135  0.0115  0.1905
  661MOL0     C89110   8.679   8.505   6.866 -0.0768 -0.2235  0.2075
  661MOL0     C89111   8.618   8.565   6.729 -0.0103 -0.4064 -0.5848
  661MOL0     C89112   8.493   8.479   6.702  0.1928  0.2611 -0.3336
  661MOL0     C89113   8.441   8.521   6.558 -0.0016  0.1891  0.1144
  661MOL0     C89114   8.311   8.459   6.544  0.1144  0.7773  0.1640
  661MOL0     C89115   8.268   8.485   6.397  0.2281 -0.7451 -0.0251
  661MOL0     C89116   8.324   8.379   6.307 -0.1768  0.4589 -0.6696
  661MOL0     N89117   8.324   8.417   6.167 -0.5321  0.0001  0.7141
  661MOL0     C89118   8.208   8.443   6.098 -0.9045  0.1468  0.7445
  661MOL0     C89119   8.246   8.460   5.965 -0.0735  0.2636  1.0975
  661MOL0     C89120   8.161   8.496   5.842  0.3789  0.1488 -0.8185
  661MOL0     C89121   8.025   8.555   5.877 -0.0557  0.0686 -0.0480
  661MOL0     C89122   7.957   8.567   5.740  0.0657 -0.2708 -0.5720
  661MOL0     C89123   7.826   8.648   5.746 -0.8534 -0.9993  0.2443
  661MOL0     O89124   7.767   8.659   5.623  0.3726 -0.4926 -0.4158
  661MOL0     C89125   7.629   8.698   5.612  0.1852  0.3882  0.9706
  661MOL0     C89126   7.560   8.703   5.489 -0.2730 -0.2337  0.2184
  661MOL0     C89127   7.426   8.750   5.487  0.1446 -0.2225  0.3073
  661MOL0     C89128   7.357   8.774   5.604 -0.2455 -0.6723  0.0139
  661MOL0     C89129   7.211   8.812   5.610 -0.1685 -0.3624  0.5190
  661MOL0     O89130   7.127   8.738   5.535 -0.4998  0.1674  0.2218
  661MOL0     C89131   6.998   8.784   5.519 -0.1801 -0.3217 -1.1388
  661MOL0     C89132   6.906   8.773   5.627  0.5542 -0.0454  0.0267
  661MOL0     C89133   6.780   8.831   5.616  0.3541 -0.5491 -0.7251
  661MOL0     C89134   6.743   8.901   5.508 -0.5980  0.4397 -0.2804
  661MOL0     O89135   6.620   8.963   5.486 -0.0300 -0.6189 -0.5064
  661MOL0     C89136   6.532   8.969   5.601  0.3403 -0.1813  0.2073
  661MOL0     C89137   6.416   9.059   5.553  0.1599  1.3172 -0.5570
  661MOL0     C89138   6.453   9.200   5.495 -0.0886  0.8372 -0.3984
  661MOL0     C89139   6.334   9.267   5.430  1.1351 -0.6312 -0.4670
  661MOL0     C89140   6.372   9.336   5.301 -0.3246  0.0705  0.2341
  661MOL0     C89141   6.492   9.438   5.324 -0.1315 -0.4714 -1.3532
  661MOL0     C89142   6.528   9.524   5.197  0.2946 -0.5717  0.0928
  661MOL0     C89143   6.612   9.650   5.224 -0.1771 -0.4352 -0.3330
  661MOL0    Cl89144   6.788   9.617   5.241 -0.5283  0.2619 -0.2018
  661MOL0     C89145   6.831   8.904   5.403  0.0503 -0.6494  0.1162
  661MOL0     C89146   6.956   8.848   5.399 -0.6181  1.1903 -0.4369
  661MOL0     O89147   7.183   8.925   5.659  0.1316  0.6054  0.4861
  661MOL0     C89148   7.421   8.764   5.722 -0.3280 -0.3521 -0.2813
  661MOL0     C89149   7.558   8.725   5.727  0.4455 -1.0328 -0.7760
  661MOL0     N89150   8.382   8.453   5.959  0.4600 -0.0139 -0.4224
  661MOL0     N89151   8.427   8.421   6.080  0.5195  0.1603  0.1537
  661MOL0     C89152   8.957   8.736   7.099  0.2164 -0.7044  0.8253
  661MOL0     C89153   9.031   8.793   7.206 -0.0970 -0.1541 -0.2941
  661MOL0     C89154   9.121   9.026   7.592  0.7383  0.3104  0.2321
  661MOL0     C89155   9.210   9.120   7.531 -0.0162 -0.1357  0.2001
  661MOL0     C89156   9.294   9.204   7.602 -0.3054  0.0590  0.5932
  661MOL0     C89157   9.278   9.199   7.735 -0.0060  0.1026  0.6113
  661MOL0     O89158   9.371   9.276   7.797 -0.1130 -0.9447  0.2577
  661MOL0     C89159   9.330   9.406   7.819  1.0059 -1.1194 -0.8820
  661MOL0     C89160   9.450   9.490   7.860 -0.8549 -1.2381  0.0048
  661MOL0     C89161   9.561   9.494   7.748 -0.2272  0.4028 -0.3825
  661MOL0     C89162   9.695   9.568   7.791  0.2673 -0.3111 -1.0243
  661MOL0     C89163   9.657   9.706   7.806 -0.2635  0.0660  0.1032
  661MOL0     C89164   9.619   9.819   7.812 -1.0774  0.0735 -0.4368
  661MOL0     C89165   9.192   9.117   7.800  0.6817 -0.0046 -0.4862
  661MOL0     C89166   9.100   9.040   7.735  0.1437 -0.1615 -0.1741
  661MOL0     C89167   8.999   8.963   7.818  0.2278 -0.0146 -0.3903
  661MOL0     H89168   8.821   9.045   7.281  0.5515 -0.0258  0.6760
  661MOL0     H89169   8.692   8.941   7.099 -0.2643 -0.3430  0.3606
  661MOL0     H89170   8.869   8.595   6.873 -1.5802  1.4284 -2.0273
  661MOL0     H89171   8.805   8.537   7.029 -1.7004 -0.7507  0.1851
  661MOL0     H89172   8.598   8.494   6.938  0.9164 -0.9586  1.2494
  661MOL0     H89173   8.721   8.404   6.860  1.7914  0.5821 -1.4644
  661MOL0     H89174   8.686   8.548   6.646  0.0292 -2.6840 -0.1733
  661MOL0     H89175   8.596   8.671   6.741 -3.0338 -1.1235  1.6167
  661MOL0     H89176   8.513   8.372   6.701  1.6214  0.4485 -3.3081
  661MOL0     H89177   8.417   8.502   6.778  0.0529  2.6073 -1.1157
  661MOL0     H89178   8.445   8.629   6.547  4.6158  0.2814  0.5741
  661MOL0     H89179   8.516   8.471   6.496  2.4292  0.9439  2.2597
  661MOL0     H89180   8.305   8.350   6.554 -2.8968  0.9390  1.3015
  661MOL0     H89181   8.238   8.499   6.616 -0.2804  0.4174 -0.0284
  661MOL0     H89182   8.283   8.584   6.353  0.4674 -0.3712  0.8748
  661MOL0     H89183   8.160   8.466   6.399 -0.2345  1.4436  2.3444
  661MOL0     H89184   8.429   8.360   6.329 -0.0967  1.1094 -0.4464
  661MOL0     H89185   8.278   8.280   6.310  1.4205 -0.5993 -4.5373
  661MOL0     H89186   8.104   8.454   6.127 -0.8533 -2.3597  2.1299
  661MOL0     H89187   8.221   8.579   5.803  1.7455  1.3801  3.3749
  661MOL0     H89188   8.160   8.405   5.782 -1.2418 -1.1383  1.0654
  661MOL0     H89189   7.968   8.503   5.954  1.9006 -0.1050  1.3635
  661MOL0     H89190   8.039   8.662   5.897  3.1636 -0.3818  0.6316
  661MOL0     H89191   7.926   8.465   5.715  3.1131 -1.3039 -0.5006
  661MOL0     H89192   8.015   8.614   5.661 -0.4139  0.5066 -0.4728
  661MOL0     H89193   7.834   8.744   5.797 -0.7387 -1.4444  1.0979
  661MOL0     H89194   7.756   8.581   5.796 -2.9816 -2.3614 -4.0809
  661MOL0     H89195   7.616   8.674   5.401 -1.5484 -0.8888 -0.4122
  661MOL0     H89196   7.376   8.761   5.392  1.6815 -0.4334 -0.5541
  661MOL0     H89197   6.934   8.711   5.712  1.3110 -0.9887 -0.8783
  661MOL0     H89198   6.710   8.802   5.694 -0.3493 -0.2330 -1.2309
  661MOL0     H89199   6.496   8.869   5.626  1.8698 -0.9015 -0.3708
  661MOL0     H89200   6.583   9.013   5.687  1.7282  1.0980 -1.1992
  661MOL0     H89201   6.368   9.002   5.472  1.6684 -2.0208  0.6976
  661MOL0     H89202   6.349   9.077   5.638  0.8205  2.4022 -0.2487
  661MOL0     H89203   6.501   9.272   5.562  0.5044 -0.5033  0.6913
  661MOL0     H89204   6.530   9.180   5.420 -0.2499 -2.8528  0.2243
  661MOL0     H89205   6.288   9.346   5.489 -2.5308 -1.7222 -1.5889
  661MOL0     H89206   6.251   9.199   5.410 -2.0347  3.1336 -1.3113
  661MOL0     H89207   6.294   9.388   5.246 -0.0587  0.3571  0.1225
  661MOL0     H89208   6.417   9.263   5.232  0.1096 -0.8695  1.4680
  661MOL0     H89209   6.452   9.517   5.389 -2.8950 -1.4876 -1.6848
  661MOL0     H89210   6.582   9.405   5.376 -1.4541  2.2911  3.2340
  661MOL0     H89211   6.451   9.547   5.123  1.7697  0.3863 -1.2142
  661MOL0     H89212   6.594   9.459   5.138 -1.2344  0.0912 -2.4905
  661MOL0     H89213   6.596   9.716   5.139 -0.9514  0.8707  0.7911
  661MOL0     H89214   6.584   9.713   5.309 -0.1940  0.8295 -1.2543
  661MOL0     H89215   6.803   8.947   5.307  1.0044  1.9779  0.9320
  661MOL0     H89216   7.038   8.862   5.329  1.3853 -3.0511  0.7523
  661MOL0     H89217   7.362   8.789   5.810  0.6164 -1.0994  0.5872
  661MOL0     H89218   7.602   8.740   5.824 -0.0840  3.5773 -1.0238
  661MOL0     H89219   8.993   8.650   7.045 -0.4948 -0.5635  0.1040
  661MOL0     H89220   9.132   8.775   7.242  0.5711  1.2476 -1.3476
  661MOL0     H89221   9.225   9.117   7.423  0.5214  0.2171  0.2635
  661MOL0     H89222   9.372   9.262   7.555  1.0517 -0.2433  2.3324
  661MOL0     H89223   9.265   9.408   7.907  0.4589 -1.2255 -1.2747
  661MOL0     H89224   9.276   9.447   7.733 -1.1129 -1.3525  0.2729
  661MOL0     H89225   9.492   9.454   7.954 -1.4266  1.3126  1.3387
  661MOL0     H89226   9.421   9.595   7.873 -1.1742 -0.7165 -3.8218
  661MOL0     H89227   9.523   9.546   7.659  0.0592 -0.9699 -1.3446
  661MOL0     H89228   9.590   9.393   7.716 -2.0202 -0.3173  0.1321
  661MOL0     H89229   9.743   9.536   7.885  0.4412  0.6787 -0.7580
  661MOL0     H89230   9.767   9.573   7.709 -0.6563  1.6330 -1.7953
  661MOL0     H89231   9.583   9.918   7.834  2.3065  1.4347 -0.4387
  661MOL0     H89232   9.192   9.121   7.909 -2.6745 -1.3210 -0.3385
  661MOL0     H89233   9.048   8.952   7.915  3.3284  0.7164 -1.7531
  661MOL0     H89234   8.904   9.014   7.836 -0.5347 -1.7078  0.6465
  661MOL0     H89235   8.960   8.866   7.786 -2.2709  0.6543  0.4061
  662MOL0     O89236   9.823   7.270   5.202  0.1625  0.0516  1.0250
  662MOL0     C89237   9.904   7.182   5.212 -0.1060 -0.5294 -0.0851
  662MOL0     O89238   9.962   7.116   5.098  0.5939 -0.2003 -0.0539
  662MOL0     C89239   9.938   7.148   4.967  0.3961  0.5583 -0.3781
  662MOL0     C89240  10.037   7.098   4.880 -0.2211  0.0874 -1.2357
  662MOL0     C89241  10.027   7.110   4.743 -0.1238  0.0626 -0.1716
  662MOL0     C89242   9.925   7.191   4.685 -0.6494 -1.0636 -0.6856
  662MOL0     O89243   9.922   7.234   4.552 -0.1988  0.0833 -0.2403
  662MOL0     C89244   9.916   7.126   4.454  0.1903  0.3219 -0.0010
  662MOL0     C89245   9.857   7.178   4.317  0.8330  0.0038 -0.1472
  662MOL0     C89246   9.944   7.160   4.202  0.1316  0.2165  0.9188
  662MOL0     C89247   9.874   7.204   4.070 -0.1440 -1.1034 -0.1814
  662MOL0     C89248   9.949   7.154   3.954  0.6631 -0.7789  0.7270
  662MOL0     C89249   9.873   7.179   3.826  0.1805  0.3529 -0.3796
  662MOL0     C89250   9.789   7.053   3.793 -0.7975  0.9190  0.8479
  662MOL0     C89251   9.673   7.075   3.689 -0.1887 -0.5350  0.0052
  662MOL0     N89252   9.734   7.112   3.561  0.4672  0.3246 -0.9802
  662MOL0     C89253   9.817   7.028   3.496  0.4108 -0.4257  0.5572
  662MOL0     C89254   9.857   7.108   3.389  0.8052  0.1146  0.7845
  662MOL0     C89255   9.937   7.062   3.272 -0.2685 -0.2773  0.3157
  662MOL0     C89256  10.084   7.034   3.325  0.4486 -0.6503  0.2434
  662MOL0     C89257  10.159   7.156   3.385 -0.5722 -1.2092  0.1529
  662MOL0     C89258  10.309   7.140   3.376  0.2266  0.1643 -1.0254
  662MOL0     O89259  10.355   7.033   3.455 -0.0706  0.1154 -0.6467
  662MOL0     C89260  10.352   7.060   3.590  0.1469  0.1992  0.5306
  662MOL0     C89261  10.289   6.960   3.670  0.3690 -1.1449 -1.0240
  662MOL0     C89262  10.277   6.970   3.806  0.5515  0.3818 -0.4680
  662MOL0     C89263  10.341   7.077   3.870 -0.5890 -0.1478  0.1979
  662MOL0     C89264  10.338   7.076   4.018 -1.0116  0.4277  0.3696
  662MOL0     O89265  10.351   6.954   4.084 -0.1448  0.0177  0.5827
  662MOL0     C89266  10.370   6.958   4.216 -0.0759 -0.4510 -0.0115
  662MOL0     C89267  10.264   6.976   4.304 -0.5687  1.4204 -0.1009
  662MOL0     C89268  10.282   6.967   4.442  0.2247 -0.5051 -0.3467
  662MOL0     C89269  10.399   6.942   4.489  0.1006 -0.1626  0.0994
  662MOL0     O89270  10.403   6.932   4.624  0.4537  0.2462 -0.0688
  662MOL0     C89271  10.468   7.046   4.671  0.5060 -0.7196 -0.5400
  662MOL0     C89272  10.473   7.036   4.830  0.2719 -1.4239  1.0724
  662MOL0     C89273  10.569   6.936   4.888 -0.4418  0.2280  0.1935
  662MOL0     C89274  10.546   6.939   5.044  0.8899  0.7716  0.2661
  662MOL0     C89275  10.630   6.829   5.120 -0.3024  0.3253 -0.0088
  662MOL0     C89276  10.774   6.874   5.147  0.1788 -0.0894  0.8937
  662MOL0     C89277  10.851   6.816   5.272 -0.3480  0.9443 -0.6805
  662MOL0     C89278  10.992   6.875   5.295  0.6638  0.0607 -0.6147
  662MOL0    Cl89279  11.088   6.825   5.169 -0.0892  0.2415  0.0260
  662MOL0     C89280  10.510   6.920   4.407  0.2653  0.2073 -0.3760
  662MOL0     C89281  10.496   6.937   4.267 -0.1081 -0.1235  0.1961
  662MOL0     O89282  10.350   7.189   4.069  0.1450  0.2621 -0.6878
  662MOL0     C89283  10.415   7.177   3.799 -1.3900 -1.1322  0.9666
  662MOL0     C89284  10.413   7.174   3.651 -0.5988 -0.2024 -0.3329
  662MOL0     N89285   9.793   7.234   3.393 -0.1438  0.1731 -0.4941
  662MOL0     N89286   9.725   7.233   3.499  0.3230  0.6548  0.5747
  662MOL0     C89287   9.830   7.250   4.772  0.8073 -1.4960 -0.3086
  662MOL0     C89288   9.829   7.216   4.908 -0.0390  0.9044 -0.4500
  662MOL0     C89289   9.946   7.136   5.347  0.8515 -0.8154 -0.6417
  662MOL0     C89290  10.064   7.072   5.363  0.2514 -0.3588  0.0021
  662MOL0     C89291  10.111   7.027   5.484  0.0586  0.1512 -0.1585
  662MOL0     C89292  10.036   7.049   5.601 -0.7499 -0.3049 -1.3835
  662MOL0     O89293  10.075   7.007   5.724  0.6493 -0.3183 -0.3340
  662MOL0     C89294  10.188   6.922   5.731  0.3899 -0.4543  0.4753
  662MOL0     C89295  10.201   6.863   5.873 -0.3770  0.1669 -0.1703
  662MOL0     C89296  10.330   6.779   5.887 -0.2878  0.2312  1.0836
  662MOL0     C89297  10.352   6.658   5.787 -0.2373 -0.3650 -1.0513
  662MOL0     C89298  10.437   6.699   5.673 -0.0344 -1.3477 -1.1155
  662MOL0     C89299  10.500   6.741   5.584 -0.6947  0.0825  0.1583
  662MOL0     C89300   9.928   7.133   5.604 -0.6363 -0.0893 -0.2394
  662MOL0     C89301   9.883   7.179   5.477  0.1346 -0.3042 -0.2512
  662MOL0     C89302   9.765   7.268   5.471 -1.2254 -0.5325 -0.9274
  662MOL0     H89303  10.132   7.055   4.909  0.4453  1.6667 -0.9372
  662MOL0     H89304  10.099   7.056   4.683 -1.7939 -0.6243 -1.6303
  662MOL0     H89305  10.008   7.069   4.439  0.2211  0.8333 -2.0806
  662MOL0     H89306   9.844   7.049   4.484 -0.4858 -0.2927 -2.8530
  662MOL0     H89307   9.829   7.283   4.330 -0.8809 -0.7019  2.7756
  662MOL0     H89308   9.763   7.124   4.306 -0.6977  2.3721  0.4740
  662MOL0     H89309   9.969   7.053   4.201  0.3785  0.2724  0.1213
  662MOL0     H89310  10.035   7.221   4.212 -2.7539  4.9702  1.1744
  662MOL0     H89311   9.769   7.173   4.066 -1.1546  2.0564 -1.0411
  662MOL0     H89312   9.880   7.313   4.079 -6.0960 -0.3903 -0.8440
  662MOL0     H89313  10.049   7.199   3.953 -0.2236  1.3072  0.4838
  662MOL0     H89314   9.974   7.048   3.963 -0.6743 -1.1530  0.2680
  662MOL0     H89315   9.812   7.270   3.833 -2.8794 -1.5572 -0.8082
  662MOL0     H89316   9.952   7.200   3.753  0.0339  3.6588  0.2525
  662MOL0     H89317   9.748   7.007   3.884  1.8939 -1.9346  0.7714
  662MOL0     H89318   9.854   6.978   3.748 -0.7933  1.3445  0.1389
  662MOL0     H89319   9.614   6.985   3.673 -1.5724  0.0647  1.4657
  662MOL0     H89320   9.601   7.149   3.727  0.3714 -0.0437  0.1306
  662MOL0     H89321   9.837   6.921   3.498  1.7353 -0.1861  1.1309
  662MOL0     H89322   9.896   6.971   3.228 -0.4243 -0.9140  1.7274
  662MOL0     H89323   9.952   7.148   3.205 -1.9898 -1.4138 -1.6320
  662MOL0     H89324  10.100   6.951   3.394  2.7088  1.2902  2.2247
  662MOL0     H89325  10.141   7.004   3.236  2.0397 -0.7773  1.2665
  662MOL0     H89326  10.128   7.175   3.488  0.1546 -2.2335  0.5738
  662MOL0     H89327  10.139   7.238   3.316  2.3146 -0.9989 -0.5651
  662MOL0     H89328  10.357   7.233   3.406 -3.3966  1.0171  3.3745
  662MOL0     H89329  10.348   7.108   3.279  0.2470 -2.0115 -0.3538
  662MOL0     H89330  10.254   6.870   3.621  1.4081 -0.9412 -2.2039
  662MOL0     H89331  10.234   6.894   3.871  2.8547 -0.1152  0.5878
  662MOL0     H89332  10.166   6.974   4.258  0.2983 -1.0290 -2.0822
  662MOL0     H89333  10.196   6.967   4.507 -1.7358 -2.2748 -2.7359
  662MOL0     H89334  10.572   7.065   4.643  0.5271 -1.4263 -0.9491
  662MOL0     H89335  10.417   7.137   4.638 -2.7933 -3.7554 -5.1316
  662MOL0     H89336  10.496   7.134   4.873 -1.1155  0.6138 -2.3233
  662MOL0     H89337  10.371   7.010   4.862 -0.1358 -0.7408  0.3823
  662MOL0     H89338  10.545   6.839   4.843 -0.4745  0.4572 -0.2854
  662MOL0     H89339  10.672   6.972   4.885 -0.9699  1.8125  0.1477
  662MOL0     H89340  10.441   6.923   5.067  0.9678  0.0245  0.1279
  662MOL0     H89341  10.556   7.041   5.080 -0.3271  0.7693  0.6401
  662MOL0     H89342  10.632   6.731   5.071  0.7137  0.0749  0.5085
  662MOL0     H89343  10.588   6.812   5.220  0.0094  1.3945  0.3146
  662MOL0     H89344  10.841   6.851   5.063  1.4143  1.2382  1.4831
  662MOL0     H89345  10.765   6.983   5.151  2.9602  0.3434 -1.3816
  662MOL0     H89346  10.855   6.708   5.258 -2.3199  0.8899 -1.0926
  662MOL0     H89347  10.787   6.838   5.359  1.0427 -1.5069  1.0942
  662MOL0     H89348  10.989   6.984   5.302 -0.8948 -0.0823  2.1640
  662MOL0     H89349  11.036   6.839   5.388 -1.0852 -0.6721 -0.0347
  662MOL0     H89350  10.608   6.914   4.453 -0.7044 -0.7884  1.7186
  662MOL0     H89351  10.590   6.932   4.213 -0.2736 -0.4225 -0.0615
  662MOL0     H89352  10.470   7.259   3.845 -0.1559 -0.4816 -1.4824
  662MOL0     H89353  10.444   7.261   3.594  2.1541 -0.3408  0.8075
  662MOL0     H89354   9.754   7.313   4.728 -1.7122 -3.9450  0.2574
  662MOL0     H89355   9.751   7.256   4.972 -0.1279  1.8479 -1.1240
  662MOL0     H89356  10.130   7.052   5.279  1.2132 -4.6609  1.5430
  662MOL0     H89357  10.205   6.972   5.473  0.6139  1.2275 -0.9949
  662MOL0     H89358  10.282   6.975   5.711 -0.0888  0.0190 -0.5985
  662MOL0     H89359  10.172   6.843   5.657  0.6771  0.9711 -1.1700
  662MOL0     H89360  10.111   6.803   5.891  2.6181 -4.5640  0.7493
  662MOL0     H89361  10.202   6.945   5.945  0.2380  0.1362 -0.1439
  662MOL0     H89362  10.339   6.743   5.990  2.3804 -1.2726  0.4151
  662MOL0     H89363  10.412   6.849   5.868  0.9633 -2.1740 -3.7755
  662MOL0     H89364  10.410   6.585   5.846  1.3967  0.4611 -1.5696
  662MOL0     H89365  10.260   6.614   5.748 -2.1165  1.9465  0.4921
  662MOL0     H89366  10.559   6.783   5.505  0.5880 -0.5451  0.7420
  662MOL0     H89367   9.872   7.159   5.694 -0.6113 -1.9647  0.3700
  662MOL0     H89368   9.789   7.370   5.440 -2.7633  1.0790  2.6520
  662MOL0     H89369   9.693   7.213   5.410  0.0182 -2.8211 -0.4426
  662MOL0     H89370   9.728   7.276   5.574 -0.6361 -0.2415 -0.7321
  663MOL0     O89371   5.013  10.062   9.918  0.0081 -0.1613  0.4707
  663MOL0     C89372   5.099   9.975   9.908  0.0474 -0.1170  0.1788
  663MOL0     O89373   5.076   9.847   9.939  0.2213 -0.3076 -0.7061
  663MOL0     C89374   4.954   9.816   9.991  0.6464 -0.2313  0.9679
  663MOL0     C89375   4.933   9.811  10.131 -0.0472  0.3646  0.3766
  663MOL0     C89376   4.802   9.811  10.190 -0.4172  0.0538 -0.2130
  663MOL0     C89377   4.691   9.794  10.108 -0.1741 -0.5021 -0.2419
  663MOL0     O89378   4.558   9.790  10.152 -0.2134  0.3555  0.5141
  663MOL0     C89379   4.512   9.869  10.260  0.0461 -0.2652  0.1336
  663MOL0     C89380   4.461  10.008  10.226 -0.1770  0.5945  1.0237
  663MOL0     C89381   4.587  10.082  10.184  0.3369 -0.8164  0.0114
  663MOL0     C89382   4.556  10.228  10.149  0.5015  0.5985 -0.3655
  663MOL0     C89383   4.680  10.299  10.113  0.0052  0.3369 -0.3157
  663MOL0     C89384   4.654  10.436  10.047 -0.8277 -0.3211  0.4406
  663MOL0     C89385   4.768  10.525  10.069 -0.2785  0.5541  0.0555
  663MOL0     C89386   4.787  10.644   9.984 -0.3194  0.3083  0.8505
  663MOL0     N89387   4.859  10.632   9.857 -0.1216 -0.0292 -0.9302
  663MOL0     C89388   4.984  10.573   9.846 -0.3076  0.0988  0.0368
  663MOL0     C89389   5.011  10.601   9.721 -1.1722  0.2283  0.0758
  663MOL0     C89390   5.137  10.573   9.639  0.5887  0.5309 -1.5182
  663MOL0     C89391   5.122  10.429   9.567 -1.0974  0.0631 -0.8403
  663MOL0     C89392   5.070  10.447   9.431  0.1114  0.9136 -0.3456
  663MOL0     C89393   5.064  10.308   9.364  0.9778  0.1927  0.7566
  663MOL0     O89394   5.188  10.258   9.296  0.5678  0.6120 -0.3057
  663MOL0     C89395   5.235  10.311   9.178  0.1440  0.3436  0.1777
  663MOL0     C89396   5.152  10.353   9.080  0.6144  0.2001  0.4754
  663MOL0     C89397   5.190  10.397   8.959  0.1484  0.2939  0.3065
  663MOL0     C89398   5.325  10.394   8.920 -0.3444 -0.2249 -0.4589
  663MOL0     C89399   5.370  10.457   8.793  0.5822 -0.4909 -0.3007
  663MOL0     O89400   5.508  10.450   8.763  0.1700  0.3463 -0.1868
  663MOL0     C89401   5.561  10.509   8.653 -0.8066 -0.5824 -0.2814
  663MOL0     C89402   5.691  10.557   8.679  0.4239 -1.1978  0.2868
  663MOL0     C89403   5.768  10.609   8.567  0.4027 -1.1091  0.3262
  663MOL0     C89404   5.717  10.607   8.435  0.2270 -1.7326 -0.3068
  663MOL0     O89405   5.790  10.650   8.328  0.1375 -0.0866 -0.1743
  663MOL0     C89406   5.927  10.624   8.325 -0.7374 -0.7417  0.2163
  663MOL0     C89407   5.970  10.476   8.307 -0.1831 -0.0194 -0.4992
  663MOL0     C89408   6.088  10.448   8.217  0.6320  1.1225  0.9133
  663MOL0     C89409   6.064  10.462   8.063 -0.6013  0.2962  0.1029
  663MOL0     C89410   6.194  10.439   7.977 -0.5081 -0.8250  0.3048
  663MOL0     C89411   6.277  10.568   7.989  0.3013  0.3537  0.3612
  663MOL0     C89412   6.362  10.585   7.859 -0.0581 -0.7423 -0.2441
  663MOL0     C89413   6.476  10.486   7.862  0.8869 -0.5385  0.2188
  663MOL0    Cl89414   6.596  10.502   7.996 -0.0386 -0.2882  0.5755
  663MOL0     C89415   5.589  10.555   8.414  0.0630  0.4903  0.0088
  663MOL0     C89416   5.513  10.509   8.523  0.1066  0.3558  0.1941
  663MOL0     O89417   5.284  10.501   8.724  0.6966 -0.0840  0.7254
  663MOL0     C89418   5.412  10.332   9.016 -0.6296  0.3400  0.0769
  663MOL0     C89419   5.371  10.288   9.142  1.0050 -1.0907  0.9168
  663MOL0     N89420   4.914  10.674   9.656 -1.0318  0.0793  0.6096
  663MOL0     N89421   4.819  10.689   9.746 -0.6817 -0.1877  0.1820
  663MOL0     C89422   4.711   9.774   9.966  0.2064  0.4314 -0.4413
  663MOL0     C89423   4.842   9.792   9.914  0.2749  0.3475  0.1841
  663MOL0     C89424   5.218   9.996   9.825  0.6878 -0.1352 -0.3803
  663MOL0     C89425   5.241   9.896   9.733 -0.1669  0.8732 -0.1899
  663MOL0     C89426   5.352   9.896   9.649  0.1814  0.6590 -0.2185
  663MOL0     C89427   5.435  10.005   9.642  0.8720 -0.7423 -0.8191
  663MOL0     O89428   5.543   9.995   9.562 -0.0911 -0.9567  0.7068
  663MOL0     C89429   5.589  10.121   9.508  0.9869  0.1760  0.1670
  663MOL0     C89430   5.724  10.165   9.570  0.1592  0.9273 -0.1388
  663MOL0     C89431   5.730  10.308   9.621  0.9889  1.2449 -1.0500
  663MOL0     C89432   5.866  10.329   9.673 -0.3521  0.0569 -0.3656
  663MOL0     C89433   5.901  10.465   9.693 -0.2041  0.4568 -0.0085
  663MOL0     C89434   5.924  10.583   9.720  0.8218  0.2793 -0.5550
  663MOL0     C89435   5.405  10.112   9.730  0.0446 -0.6011 -1.0531
  663MOL0     C89436   5.291  10.110   9.821 -0.3197 -0.0891 -0.3128
  663MOL0     C89437   5.262  10.230   9.911 -0.3249 -0.3714  0.7610
  663MOL0     H89438   5.018   9.810  10.198  0.4963 -0.0308 -0.3049
  663MOL0     H89439   4.785   9.811  10.297 -2.7730  2.2198 -0.4819
  663MOL0     H89440   4.432   9.809  10.303  0.6298 -0.2710  1.2510
  663MOL0     H89441   4.583   9.880  10.343  2.3793  0.0076 -1.7761
  663MOL0     H89442   4.414  10.042  10.318 -1.8977  0.4999  0.2136
  663MOL0     H89443   4.388   9.999  10.145  0.2253  1.2040  0.5730
  663MOL0     H89444   4.633  10.044  10.092  0.6324 -1.6774  0.4999
  663MOL0     H89445   4.659  10.081  10.266 -0.9286  1.6377  1.2605
  663MOL0     H89446   4.481  10.228  10.069 -1.1743 -2.3130  1.0401
  663MOL0     H89447   4.512  10.274  10.238  0.9079 -3.3268  2.1029
  663MOL0     H89448   4.725  10.334  10.206  1.3041  0.2287 -0.8787
  663MOL0     H89449   4.750  10.236  10.057  3.5334  0.4760  3.4641
  663MOL0     H89450   4.630  10.421   9.941 -0.2385  0.2692  0.2145
  663MOL0     H89451   4.568  10.486  10.091 -0.8434 -0.7390  0.8988
  663MOL0     H89452   4.863  10.472  10.080  0.4571  2.1962  2.3545
  663MOL0     H89453   4.750  10.568  10.168 -1.4723 -1.0759  0.5922
  663MOL0     H89454   4.688  10.689   9.970  0.1065  1.2038  0.6981
  663MOL0     H89455   4.848  10.717  10.037  1.2347  0.5392 -1.1543
  663MOL0     H89456   5.047  10.513   9.911  4.5291  0.4059 -3.7758
  663MOL0     H89457   5.169  10.652   9.571 -0.7769  1.9647 -0.5783
  663MOL0     H89458   5.218  10.561   9.711 -1.4690 -1.3869  0.6548
  663MOL0     H89459   5.222  10.388   9.557 -1.0498 -0.3694  1.0155
  663MOL0     H89460   5.061  10.356   9.622  1.3499 -0.3999  1.4545
  663MOL0     H89461   5.140  10.514   9.380  1.0278  0.8430  0.7698
  663MOL0     H89462   4.969  10.486   9.448  1.2932  2.5988  4.5978
  663MOL0     H89463   4.979  10.299   9.295  0.4454  0.8464  1.3221
  663MOL0     H89464   5.043  10.243   9.449 -2.0945  0.3983  0.2567
  663MOL0     H89465   5.047  10.376   9.100  0.3769  1.7629 -2.1234
  663MOL0     H89466   5.109  10.436   8.897  0.4252 -1.2245 -1.0758
  663MOL0     H89467   5.732  10.560   8.780 -1.0283 -1.3911  0.9011
  663MOL0     H89468   5.869  10.633   8.597 -0.3034  1.6052  0.8161
  663MOL0     H89469   5.966  10.676   8.237  0.8440  1.2091  1.9739
  663MOL0     H89470   5.964  10.674   8.415 -3.5944 -2.3606  2.4646
  663MOL0     H89471   5.996  10.437   8.406  1.4222 -2.6469 -1.8333
  663MOL0     H89472   5.885  10.413   8.278 -1.3723  1.0708  0.5116
  663MOL0     H89473   6.155  10.526   8.257  0.5423  1.1174  1.0760
  663MOL0     H89474   6.125  10.346   8.230  0.0545  1.1540  3.3873
  663MOL0     H89475   6.015  10.556   8.034  0.5441  1.0064  0.3862
  663MOL0     H89476   5.991  10.390   8.023  2.2199 -2.9123  0.2772
  663MOL0     H89477   6.172  10.417   7.872  3.1194 -0.2405 -0.7047
  663MOL0     H89478   6.260  10.359   8.011 -0.5234 -0.2503  1.7853
  663MOL0     H89479   6.214  10.657   7.993  2.9575  2.4838 -1.2482
  663MOL0     H89480   6.335  10.572   8.081 -1.8476 -0.3868  1.8175
  663MOL0     H89481   6.410  10.683   7.866  2.6000 -1.9235 -0.7896
  663MOL0     H89482   6.320  10.562   7.761  2.5010 -3.3314 -0.8771
  663MOL0     H89483   6.430  10.387   7.864  1.7769 -1.1474 -3.0439
  663MOL0     H89484   6.534  10.489   7.769  3.0563 -3.1745  1.3369
  663MOL0     H89485   5.544  10.559   8.315  2.2498 -0.1643 -1.0938
  663MOL0     H89486   5.413  10.473   8.502  1.0837 -1.3011 -2.1091
  663MOL0     H89487   5.519  10.320   9.002 -0.7809  2.0316 -3.7855
  663MOL0     H89488   5.441  10.263   9.221  0.8647  1.8085  2.0793
  663MOL0     H89489   4.636   9.755   9.890  0.0993 -0.8867 -0.0228
  663MOL0     H89490   4.853   9.764   9.810 -3.7838 -1.5855  0.0532
  663MOL0     H89491   5.170   9.814   9.732  1.2223 -0.3773 -0.0656
  663MOL0     H89492   5.355   9.816   9.576 -2.6272  2.4834 -2.5410
  663MOL0     H89493   5.510  10.196   9.523 -0.7056 -1.2741 -0.9661
  663MOL0     H89494   5.607  10.112   9.401  2.1790  1.3896  0.2295
  663MOL0     H89495   5.794  10.149   9.488 -0.6700 -1.6908 -0.4437
  663MOL0     H89496   5.746  10.085   9.642  2.0456 -1.0636 -2.7124
  663MOL0     H89497   5.665  10.306   9.709 -0.4778 -0.8433 -2.0785
  663MOL0     H89498   5.700  10.378   9.542 -2.6647  0.1486 -0.8287
  663MOL0     H89499   5.876  10.287   9.774  1.6287  1.5257  0.1221
  663MOL0     H89500   5.945  10.278   9.618 -1.3104 -1.4219 -0.4383
  663MOL0     H89501   5.949  10.679   9.759 -0.0226 -1.0352  3.7678
  663MOL0     H89502   5.462  10.205   9.721 -1.9901  0.9105  0.7229
  663MOL0     H89503   5.351  10.293   9.922 -0.8687  0.2240  2.0579
  663MOL0     H89504   5.181  10.295   9.875 -1.2040  0.1141  3.3636
  663MOL0     H89505   5.232  10.202  10.013 -2.0351  1.4730  0.8325
  664MOL0     O89506   4.735   7.476   2.689  0.4355 -0.4274  0.3158
  664MOL0     C89507   4.778   7.568   2.759 -0.2240 -0.6328 -0.3641
  664MOL0     O89508   4.780   7.570   2.899 -0.1330 -0.1864 -0.3470
  664MOL0     C89509   4.713   7.482   2.985  0.8957  0.0677 -0.0005
  664MOL0     C89510   4.686   7.343   2.962  1.1076 -0.8260 -0.1423
  664MOL0     C89511   4.616   7.265   3.055 -0.7567 -0.7622  0.8074
  664MOL0     C89512   4.576   7.317   3.183  0.6136  0.8993 -0.6785
  664MOL0     O89513   4.500   7.225   3.259 -0.1067 -0.8329 -0.0262
  664MOL0     C89514   4.432   7.272   3.375  0.1382 -0.5827  0.3374
  664MOL0     C89515   4.348   7.159   3.424  0.4138 -0.4367 -0.4403
  664MOL0     C89516   4.237   7.126   3.325 -0.2059  0.0775  0.8755
  664MOL0     C89517   4.107   7.095   3.392  0.1280  0.5636  0.6106
  664MOL0     C89518   4.027   7.010   3.296 -0.2728 -0.3082 -0.1289
  664MOL0     C89519   3.881   6.994   3.347 -0.3903 -0.7154  0.0331
  664MOL0     C89520   3.790   7.116   3.329 -0.2382 -0.1631  0.4337
  664MOL0     C89521   3.649   7.076   3.292  0.0943 -0.8119 -0.7055
  664MOL0     N89522   3.573   7.017   3.405 -0.2392  0.1179  0.2796
  664MOL0     C89523   3.506   7.089   3.503  0.2651 -0.3680  0.8240
  664MOL0     C89524   3.441   6.995   3.575 -0.8956 -0.1670  0.7926
  664MOL0     C89525   3.364   7.033   3.701  0.0119 -0.5485  1.6306
  664MOL0     C89526   3.415   6.949   3.824  0.3462  0.2456  0.0287
  664MOL0     C89527   3.319   6.957   3.953  0.2318  0.4492  0.8446
  664MOL0     C89528   3.273   7.100   3.996 -0.3070  0.4167  0.0656
  664MOL0     O89529   3.386   7.191   4.023 -0.5654 -0.0151  0.3559
  664MOL0     C89530   3.467   7.190   4.133  0.3486 -0.4955 -0.4400
  664MOL0     C89531   3.433   7.109   4.244 -0.3108  0.2932  0.1374
  664MOL0     C89532   3.513   7.112   4.362  0.3377 -0.3814  0.6190
  664MOL0     C89533   3.621   7.213   4.374 -0.9245  0.1211  0.5086
  664MOL0     C89534   3.706   7.224   4.487  0.7151 -0.2744  0.1826
  664MOL0     O89535   3.664   7.158   4.596 -0.8357  0.3317 -0.2802
  664MOL0     C89536   3.720   7.196   4.716  0.7079 -0.8671  0.0549
  664MOL0     C89537   3.695   7.327   4.763  0.2258  1.2041  0.6503
  664MOL0     C89538   3.738   7.370   4.894 -0.5101 -0.2990  0.2871
  664MOL0     C89539   3.811   7.282   4.964 -0.1657  0.2536  0.0898
  664MOL0     O89540   3.870   7.302   5.081 -0.4887  0.0042 -0.3864
  664MOL0     C89541   3.883   7.436   5.127 -0.5684 -0.1773  0.5578
  664MOL0     C89542   3.964   7.454   5.253 -0.2088 -0.8747  0.2622
  664MOL0     C89543   3.949   7.603   5.304  0.3200 -0.1787 -1.1783
  664MOL0     C89544   3.977   7.626   5.461 -0.7243  0.6910 -0.1582
  664MOL0     C89545   3.908   7.758   5.508 -0.0447  0.8622 -0.1841
  664MOL0     C89546   3.755   7.756   5.516 -0.7775  0.2778 -0.5881
  664MOL0     C89547   3.713   7.866   5.602  0.5153 -0.0598  0.3760
  664MOL0     C89548   3.570   7.846   5.641  0.7643 -0.1191  0.6339
  664MOL0    Cl89549   3.446   7.825   5.504 -0.1258 -0.0266  0.0981
  664MOL0     C89550   3.841   7.152   4.918 -0.4417  1.0150  0.5057
  664MOL0     C89551   3.793   7.105   4.794  0.2909 -0.4505 -0.3236
  664MOL0     O89552   3.808   7.296   4.483  0.3514  0.2284  0.5297
  664MOL0     C89553   3.637   7.299   4.265  0.0989 -0.4917  0.1036
  664MOL0     C89554   3.565   7.289   4.146 -0.7827  0.1221  0.3749
  664MOL0     N89555   3.453   6.868   3.522 -0.8225 -0.9920 -0.0634
  664MOL0     N89556   3.535   6.883   3.423 -0.1084 -0.2984 -0.0473
  664MOL0     C89557   4.602   7.450   3.210  0.5607 -0.3436  1.1024
  664MOL0     C89558   4.664   7.537   3.112 -0.6204  0.4754  0.9076
  664MOL0     C89559   4.847   7.684   2.694 -0.3188 -0.6825  0.2797
  664MOL0     C89560   4.872   7.801   2.767  0.3598  0.3097 -0.2993
  664MOL0     C89561   4.925   7.915   2.709  0.3022  0.7428 -0.0392
  664MOL0     C89562   4.977   7.917   2.581 -0.6075 -0.0166 -0.0174
  664MOL0     O89563   5.033   8.033   2.532  0.1677 -0.3412  0.2107
  664MOL0     C89564   4.944   8.123   2.462 -0.4833 -0.4634  0.4856
  664MOL0     C89565   5.025   8.214   2.378  0.1439 -0.2706  0.2920
  664MOL0     C89566   5.107   8.301   2.472 -0.2812 -0.0438 -0.5531
  664MOL0     C89567   5.187   8.402   2.407  0.1381  0.1560  0.4963
  664MOL0     C89568   5.184   8.535   2.470 -0.2592  0.1945 -0.4575
  664MOL0     C89569   5.171   8.640   2.523 -0.1843 -0.5411 -0.7791
  664MOL0     C89570   4.954   7.799   2.509 -0.5650 -0.2298 -0.1612
  664MOL0     C89571   4.896   7.681   2.565  0.1656  0.1968 -0.9732
  664MOL0     C89572   4.875   7.568   2.465 -0.5376  0.1330 -1.2041
  664MOL0     H89573   4.710   7.308   2.862  1.8137  0.9033 -0.6114
  664MOL0     H89574   4.576   7.172   3.015 -1.4655 -1.2969  2.6786
  664MOL0     H89575   4.504   7.302   3.452 -1.2617 -0.8656  1.8238
  664MOL0     H89576   4.369   7.359   3.352  0.4243 -0.1393  1.2005
  664MOL0     H89577   4.307   7.179   3.524  0.3876  0.6035 -0.6462
  664MOL0     H89578   4.407   7.067   3.431 -0.5857 -1.1171 -0.8224
  664MOL0     H89579   4.266   7.055   3.247 -2.7682  0.4130 -0.4736
  664MOL0     H89580   4.214   7.211   3.260 -4.4138 -1.9098 -0.5568
  664MOL0     H89581   4.127   7.032   3.479  1.3939 -0.4988 -0.4048
  664MOL0     H89582   4.057   7.189   3.417  0.0493  0.1754  2.0158
  664MOL0     H89583   4.031   7.070   3.205  4.2339  1.7276  1.1213
  664MOL0     H89584   4.077   6.913   3.281 -1.7490 -0.9973 -0.8195
  664MOL0     H89585   3.836   6.904   3.303  0.2902 -1.3016  0.5153
  664MOL0     H89586   3.888   6.975   3.454  2.2241  5.0839  1.2809
  664MOL0     H89587   3.829   7.189   3.257 -1.6794  1.4766  1.2581
  664MOL0     H89588   3.785   7.171   3.423  1.1270  3.2301 -1.2792
  664MOL0     H89589   3.601   7.171   3.267  1.9133  0.6008  0.8740
  664MOL0     H89590   3.649   7.006   3.208  0.8136  1.5226 -2.8099
  664MOL0     H89591   3.507   7.196   3.523  0.3085 -0.3336  0.6339
  664MOL0     H89592   3.354   7.140   3.722  2.5145  0.1526 -0.2431
  664MOL0     H89593   3.259   7.014   3.678  0.1008  1.8221 -1.2567
  664MOL0     H89594   3.422   6.841   3.811  2.2125 -0.3430  4.3062
  664MOL0     H89595   3.513   6.991   3.849 -0.3957  0.2105  3.4478
  664MOL0     H89596   3.363   6.900   4.035 -2.9805 -1.1985  1.5598
  664MOL0     H89597   3.226   6.909   3.921  0.8924 -0.0744 -0.3794
  664MOL0     H89598   3.210   7.109   4.085  1.3762 -0.7226  1.4402
  664MOL0     H89599   3.216   7.140   3.912  6.0940  3.7219 -3.4709
  664MOL0     H89600   3.345   7.046   4.247  0.3195 -0.8811 -2.7200
  664MOL0     H89601   3.486   7.044   4.442  0.3568 -0.3324  0.6674
  664MOL0     H89602   3.642   7.398   4.699 -1.0663 -1.5538 -1.5573
  664MOL0     H89603   3.716   7.471   4.927 -0.8330 -0.5113  0.7283
  664MOL0     H89604   3.929   7.490   5.044 -1.4009 -1.1749 -0.5973
  664MOL0     H89605   3.789   7.490   5.139 -0.3118  0.6651 -1.0226
  664MOL0     H89606   3.925   7.387   5.331 -1.3002  0.6433  1.0932
  664MOL0     H89607   4.066   7.430   5.222 -1.2337 -1.7371 -2.8198
  664MOL0     H89608   4.023   7.656   5.243  1.5976 -1.3183 -0.6665
  664MOL0     H89609   3.846   7.637   5.292 -0.4180 -0.1456  3.4150
  664MOL0     H89610   4.083   7.634   5.487 -0.6597  0.2518 -0.2773
  664MOL0     H89611   3.944   7.548   5.529 -1.5370  1.6430  0.5753
  664MOL0     H89612   3.932   7.831   5.430  1.6613 -1.5094 -2.0184
  664MOL0     H89613   3.954   7.789   5.603  4.3644  0.2553 -1.8689
  664MOL0     H89614   3.717   7.764   5.413  0.5819  0.9853 -1.0590
  664MOL0     H89615   3.717   7.661   5.554  2.0722 -1.0371 -0.7447
  664MOL0     H89616   3.711   7.961   5.548 -0.5497  0.3868  1.1523
  664MOL0     H89617   3.764   7.886   5.697 -1.0316  2.2354  0.8288
  664MOL0     H89618   3.563   7.761   5.710 -0.6878  0.6947  1.5424
  664MOL0     H89619   3.539   7.936   5.695  0.8929  1.2438 -1.4682
  664MOL0     H89620   3.900   7.085   4.980  0.2020  2.7662  1.8778
  664MOL0     H89621   3.819   7.014   4.741 -1.9551  0.6493 -3.6700
  664MOL0     H89622   3.709   7.380   4.263 -2.7252  2.2124 -2.1311
  664MOL0     H89623   3.566   7.364   4.067 -2.2160  1.3906  1.5105
  664MOL0     H89624   4.584   7.484   3.311  0.1128  4.3001 -0.3186
  664MOL0     H89625   4.687   7.636   3.150 -2.4212  2.1207 -1.8468
  664MOL0     H89626   4.837   7.813   2.870  1.0105  0.4755 -0.0962
  664MOL0     H89627   4.943   8.004   2.770 -0.3068 -0.0076  1.2898
  664MOL0     H89628   4.875   8.180   2.525 -3.6870 -1.5937 -1.7593
  664MOL0     H89629   4.874   8.060   2.406  0.5705  0.4174 -1.9427
  664MOL0     H89630   4.966   8.281   2.314  0.1986 -0.6892 -0.1977
  664MOL0     H89631   5.091   8.164   2.306 -0.1217 -1.1229  0.6299
  664MOL0     H89632   5.174   8.240   2.533 -0.4163  1.7916  1.5484
  664MOL0     H89633   5.041   8.354   2.541 -1.2331  0.3940 -1.7510
  664MOL0     H89634   5.293   8.377   2.399  0.5947  0.6740  3.5207
  664MOL0     H89635   5.154   8.414   2.304 -3.8378 -1.3246  1.4285
  664MOL0     H89636   5.161   8.734   2.574 -1.7095  0.0165 -2.0230
  664MOL0     H89637   4.970   7.802   2.402 -0.1316 -2.7770 -0.2260
  664MOL0     H89638   4.926   7.479   2.502 -0.3828  1.5558  2.4563
  664MOL0     H89639   4.772   7.536   2.445  0.0776 -3.7539  0.9398
  664MOL0     H89640   4.918   7.604   2.371 -1.6478  3.9393 -0.4469
  665MOL0     O89641   4.380   6.331   3.280 -0.8984 -0.3006  0.1203
  665MOL0     C89642   4.376   6.210   3.319 -1.0647  0.0588 -0.8208
  665MOL0     O89643   4.468   6.113   3.281 -0.6963  0.1522  0.7420
  665MOL0     C89644   4.547   6.138   3.170  0.4140 -0.7383 -0.0988
  665MOL0     C89645   4.513   6.093   3.046 -0.2160  1.1156  0.1378
  665MOL0     C89646   4.598   6.119   2.939  0.2306 -0.3518  0.3542
  665MOL0     C89647   4.726   6.163   2.957  0.7182 -0.3072 -0.5628
  665MOL0     O89648   4.802   6.159   2.845 -0.0755  0.1773 -0.7847
  665MOL0     C89649   4.945   6.178   2.866 -0.6905  1.0601  1.0382
  665MOL0     C89650   5.014   6.186   2.727 -0.4006  0.5838 -0.1387
  665MOL0     C89651   5.165   6.212   2.745  0.6440  0.2853  0.8413
  665MOL0     C89652   5.228   6.179   2.611 -0.0748 -0.1947  0.0161
  665MOL0     C89653   5.387   6.170   2.626  0.1448 -0.1290 -0.0517
  665MOL0     C89654   5.446   6.286   2.692  0.5009  0.1877 -0.9268
  665MOL0     C89655   5.602   6.305   2.672  0.9159 -0.1471 -0.3993
  665MOL0     C89656   5.642   6.351   2.536 -0.1935  0.1431 -0.0229
  665MOL0     N89657   5.791   6.347   2.533 -0.4961  0.2740  0.0910
  665MOL0     C89658   5.869   6.439   2.599 -1.1336  0.0519 -0.0130
  665MOL0     C89659   5.984   6.453   2.526 -0.0984 -0.4868 -0.2733
  665MOL0     C89660   6.089   6.565   2.549  0.1077  0.8341  0.1086
  665MOL0     C89661   6.164   6.590   2.424 -0.3298  0.9226 -0.5467
  665MOL0     C89662   6.270   6.698   2.446 -1.3907 -1.3294  0.5878
  665MOL0     C89663   6.368   6.715   2.326 -0.1126  0.1723 -0.0907
  665MOL0     O89664   6.467   6.613   2.347 -1.0459 -0.0909  0.7533
  665MOL0     C89665   6.583   6.604   2.264 -0.2044 -0.5412 -0.0324
  665MOL0     C89666   6.613   6.662   2.141 -0.1158  0.2513 -0.7072
  665MOL0     C89667   6.737   6.651   2.075 -0.3573 -0.2151 -0.5758
  665MOL0     C89668   6.844   6.590   2.147  0.9274 -0.0121 -0.8235
  665MOL0     C89669   6.976   6.587   2.087  0.1186  0.0215  0.1358
  665MOL0     O89670   7.002   6.688   2.005 -0.7126 -0.5492  0.8358
  665MOL0     C89671   7.125   6.685   1.940  0.9529 -0.2795 -0.8386
  665MOL0     C89672   7.223   6.776   1.987  0.2290  0.6214 -0.0261
  665MOL0     C89673   7.356   6.761   1.942  0.3533  0.5052 -0.3213
  665MOL0     C89674   7.384   6.674   1.835  0.6196  0.0314  0.2033
  665MOL0     O89675   7.507   6.675   1.774 -0.3028  0.9975  0.1011
  665MOL0     C89676   7.593   6.586   1.858  0.0832 -0.6094  0.1341
  665MOL0     C89677   7.677   6.497   1.768 -1.1037  0.8864  0.0076
  665MOL0     C89678   7.802   6.567   1.720 -0.0543 -0.5582  0.8319
  665MOL0     C89679   7.900   6.468   1.661 -0.0537 -0.1890 -0.6271
  665MOL0     C89680   8.014   6.533   1.581 -0.2924 -0.2039 -0.1411
  665MOL0     C89681   7.977   6.548   1.435 -0.1912  0.8070  0.6797
  665MOL0     C89682   8.080   6.625   1.360 -0.6411 -0.1827 -0.9783
  665MOL0     C89683   8.017   6.680   1.230  0.0750  0.2766 -0.9507
  665MOL0    Cl89684   7.945   6.558   1.126 -0.4076  0.2020 -0.2852
  665MOL0     C89685   7.280   6.591   1.784 -0.8858 -0.3381 -0.3509
  665MOL0     C89686   7.155   6.594   1.835 -0.6144  0.0208 -0.8009
  665MOL0     O89687   7.051   6.491   2.111  0.5598 -0.4042 -0.0689
  665MOL0     C89688   6.820   6.521   2.271  0.3615 -0.5570  0.4444
  665MOL0     C89689   6.685   6.523   2.316 -0.0833  0.3437  0.1496
  665MOL0     N89690   5.994   6.350   2.434  0.8628 -0.3474 -0.7822
  665MOL0     N89691   5.875   6.291   2.435 -0.2299 -0.5485 -0.5081
  665MOL0     C89692   4.765   6.196   3.090 -0.0557 -0.8243 -0.1393
  665MOL0     C89693   4.674   6.191   3.191  0.6975 -0.4135 -0.0116
  665MOL0     C89694   4.262   6.170   3.407  0.3375  0.0896 -0.3125
  665MOL0     C89695   4.204   6.262   3.491  0.0739  0.2384 -0.0900
  665MOL0     C89696   4.107   6.228   3.586 -0.9851 -0.1501  0.0693
  665MOL0     C89697   4.050   6.105   3.587  0.2018  0.8556  0.5235
  665MOL0     O89698   3.940   6.075   3.665  0.0851 -0.7856  0.3974
  665MOL0     C89699   3.983   6.025   3.792  0.3059  0.0946 -0.6757
  665MOL0     C89700   3.880   6.055   3.901 -1.1660  0.0916 -0.7051
  665MOL0     C89701   3.743   6.015   3.862  0.7590  0.5262 -0.2226
  665MOL0     C89702   3.640   6.008   3.972 -0.2773 -0.0708 -0.1477
  665MOL0     C89703   3.610   6.139   4.022 -0.0044 -0.0500 -0.0642
  665MOL0     C89704   3.579   6.247   4.062  0.2904  0.7752 -0.6550
  665MOL0     C89705   4.104   6.008   3.504 -0.1540  0.7286  0.6738
  665MOL0     C89706   4.211   6.036   3.413 -0.9979 -0.0631  0.0700
  665MOL0     C89707   4.261   5.917   3.335 -0.1651 -0.3136 -0.1087
  665MOL0     H89708   4.419   6.039   3.043  0.7285 -0.5426 -1.5481
  665MOL0     H89709   4.564   6.103   2.837  1.4242  3.4080 -0.7796
  665MOL0     H89710   4.970   6.260   2.934 -0.5263  0.1101  2.1490
  665MOL0     H89711   4.984   6.090   2.917 -0.9933 -0.9695 -1.9622
  665MOL0     H89712   4.970   6.260   2.660 -0.1695 -0.3389 -1.3224
  665MOL0     H89713   5.001   6.088   2.680 -2.8498 -0.3451  2.1637
  665MOL0     H89714   5.203   6.147   2.825  3.1022  0.9182  0.2840
  665MOL0     H89715   5.181   6.318   2.763 -0.0578  1.1881 -2.9125
  665MOL0     H89716   5.190   6.085   2.571  0.2813 -0.1066 -0.5394
  665MOL0     H89717   5.195   6.252   2.536 -1.1475 -1.2639 -0.6033
  665MOL0     H89718   5.398   6.074   2.677  1.6819  0.0102 -0.0679
  665MOL0     H89719   5.424   6.162   2.523 -1.8329  3.6397 -1.2382
  665MOL0     H89720   5.399   6.373   2.646  1.8399 -0.4814 -3.7884
  665MOL0     H89721   5.426   6.289   2.800  2.0077  3.3345 -0.6244
  665MOL0     H89722   5.648   6.207   2.689 -0.7927 -1.1202 -1.0973
  665MOL0     H89723   5.633   6.385   2.740 -1.5807  1.0156 -0.5255
  665MOL0     H89724   5.607   6.284   2.457 -2.1346 -0.8051  1.5424
  665MOL0     H89725   5.597   6.449   2.521 -0.8027  0.5645  3.6645
  665MOL0     H89726   5.847   6.502   2.685 -0.8370 -0.1616  0.2207
  665MOL0     H89727   6.051   6.659   2.589  0.0406  0.4768  0.9052
  665MOL0     H89728   6.161   6.518   2.616  0.3025 -1.2981 -1.4567
  665MOL0     H89729   6.210   6.496   2.391  1.1165  1.5431 -0.3656
  665MOL0     H89730   6.095   6.608   2.341 -0.2580 -0.9406 -1.0513
  665MOL0     H89731   6.332   6.700   2.536 -3.3345  2.4483  2.0500
  665MOL0     H89732   6.213   6.791   2.446 -2.0408 -1.7179  0.3153
  665MOL0     H89733   6.409   6.816   2.336  0.2169 -0.1711  2.7548
  665MOL0     H89734   6.319   6.701   2.229  1.6220  1.2305 -1.1565
  665MOL0     H89735   6.545   6.731   2.092 -0.9786 -0.6258 -0.7873
  665MOL0     H89736   6.753   6.702   1.981 -1.4416 -1.2367 -1.3622
  665MOL0     H89737   7.193   6.845   2.064  3.0978 -0.7371  2.4988
  665MOL0     H89738   7.430   6.834   1.971 -0.3596  1.6471 -1.2701
  665MOL0     H89739   7.640   6.630   1.946 -2.3439  0.8037  0.8210
  665MOL0     H89740   7.525   6.512   1.903 -2.2458 -0.1769 -2.3968
  665MOL0     H89741   7.703   6.415   1.835 -1.3982  0.8564  0.0865
  665MOL0     H89742   7.621   6.466   1.680  1.5440 -0.7890 -1.2057
  665MOL0     H89743   7.768   6.632   1.639  2.9796 -2.5514 -2.3707
  665MOL0     H89744   7.859   6.626   1.793  0.6800 -0.6392  0.3348
  665MOL0     H89745   7.850   6.398   1.594  2.6223 -0.7631 -2.1650
  665MOL0     H89746   7.942   6.394   1.730 -1.0983 -1.0642 -0.9084
  665MOL0     H89747   8.099   6.465   1.571 -1.1136 -1.0008 -2.5551
  665MOL0     H89748   8.052   6.621   1.633 -1.9316  0.7501 -0.5065
  665MOL0     H89749   7.966   6.449   1.392 -1.0182  1.0778  0.2515
  665MOL0     H89750   7.879   6.597   1.440 -0.6543  0.1613 -1.2810
  665MOL0     H89751   8.164   6.556   1.343 -0.5047 -0.4092  0.4717
  665MOL0     H89752   8.115   6.707   1.424  1.7694  0.1237 -2.5568
  665MOL0     H89753   7.937   6.742   1.271  0.5131  0.4824 -0.3942
  665MOL0     H89754   8.091   6.743   1.181  2.5436  0.4829  2.6914
  665MOL0     H89755   7.309   6.522   1.705  0.1546  0.8357 -1.0434
  665MOL0     H89756   7.081   6.532   1.785 -0.6361 -0.1429 -0.5679
  665MOL0     H89757   6.897   6.464   2.322  1.6368  1.0637  0.4503
  665MOL0     H89758   6.668   6.481   2.415 -2.9323 -0.0691 -0.4297
  665MOL0     H89759   4.868   6.231   3.093 -0.4519  0.9078 -3.2027
  665MOL0     H89760   4.703   6.216   3.292 -0.8259 -0.6485  0.5095
  665MOL0     H89761   4.238   6.365   3.498 -1.8662  0.8077  2.4693
  665MOL0     H89762   4.059   6.303   3.647 -1.0895 -1.5314  1.7419
  665MOL0     H89763   4.078   6.073   3.815  0.2142  0.7093 -1.5541
  665MOL0     H89764   3.987   5.916   3.786 -0.7970 -0.2364  2.7594
  665MOL0     H89765   3.894   6.162   3.918  0.2618 -0.1496 -0.2137
  665MOL0     H89766   3.905   6.002   3.993 -0.0309 -0.4688 -1.3256
  665MOL0     H89767   3.740   5.917   3.813 -0.0259  0.2147  0.4273
  665MOL0     H89768   3.707   6.076   3.778 -3.6965  0.4003  1.3151
  665MOL0     H89769   3.553   5.957   3.930 -1.1744 -0.1514  1.6998
  665MOL0     H89770   3.680   5.954   4.059  0.2479  0.4076 -0.0857
  665MOL0     H89771   3.567   6.344   4.106  0.6053  0.2018  0.7287
  665MOL0     H89772   4.074   5.904   3.500 -0.6121  0.7730  2.2206
  665MOL0     H89773   4.198   5.830   3.358 -3.1232  2.1059  1.6029
  665MOL0     H89774   4.247   5.944   3.230 -0.2999 -0.4134 -0.1155
  665MOL0     H89775   4.370   5.902   3.340 -0.1845 -0.3956  0.1048
  666MOL0     O89776   2.796  10.933  10.294  0.0492 -1.0234  0.7360
  666MOL0     C89777   2.783  11.055  10.319 -0.0966  0.7753 -0.1420
  666MOL0     O89778   2.731  11.145  10.233 -0.0596 -0.5918 -0.6570
  666MOL0     C89779   2.653  11.103  10.130  0.5539  0.3242  1.1433
  666MOL0     C89780   2.645  11.187  10.024 -0.2253  0.2676  0.3374
  666MOL0     C89781   2.549  11.169   9.920  0.4517 -0.1783 -0.4348
  666MOL0     C89782   2.462  11.066   9.914  0.3852 -0.5671  0.9835
  666MOL0     O89783   2.371  11.056   9.808  0.0838  0.9287 -0.3014
  666MOL0     C89784   2.329  10.919   9.778  1.2961 -0.0761  0.4722
  666MOL0     C89785   2.278  10.941   9.633 -0.0994 -0.4470 -0.9131
  666MOL0     C89786   2.258  10.807   9.556  0.8245 -0.8725  0.3429
  666MOL0     C89787   2.166  10.839   9.434 -0.4724  0.8535 -0.0445
  666MOL0     C89788   2.131  10.708   9.368  0.8491  0.0376  0.0671
  666MOL0     C89789   2.016  10.726   9.275 -0.2793 -0.1573 -0.0347
  666MOL0     C89790   1.955  10.593   9.227 -0.5084  0.0062  0.1462
  666MOL0     C89791   1.845  10.622   9.118  0.1042 -0.3058 -0.0180
  666MOL0     N89792   1.905  10.655   8.979  0.4857  0.7427 -0.5771
  666MOL0     C89793   1.970  10.567   8.896 -0.0118 -0.3877  0.4754
  666MOL0     C89794   2.000  10.638   8.787 -0.3772 -0.4425 -0.1614
  666MOL0     C89795   2.078  10.581   8.675  0.4683  0.1840  0.5964
  666MOL0     C89796   2.080  10.655   8.544  0.3840  0.2598  0.6065
  666MOL0     C89797   2.107  10.552   8.426 -0.7590 -0.0595  0.1213
  666MOL0     C89798   2.112  10.613   8.289 -0.6161 -0.3600  0.8267
  666MOL0     O89799   2.139  10.496   8.203  0.2156 -0.9553  0.0128
  666MOL0     C89800   2.172  10.499   8.072 -0.5814 -0.7951  0.4343
  666MOL0     C89801   2.297  10.447   8.035  0.1237  0.3231 -0.1849
  666MOL0     C89802   2.329  10.441   7.902  0.1125 -0.6898 -0.4766
  666MOL0     C89803   2.239  10.480   7.803 -0.0187 -0.1811  0.1105
  666MOL0     C89804   2.269  10.443   7.662 -0.2396  0.5995 -1.0012
  666MOL0     O89805   2.372  10.350   7.638  0.2161 -1.3739  0.6008
  666MOL0     C89806   2.407  10.301   7.516  0.5024  0.1055  0.5864
  666MOL0     C89807   2.528  10.224   7.508 -0.3334 -0.0455 -0.5392
  666MOL0     C89808   2.562  10.159   7.392 -0.0731 -0.5074  0.2698
  666MOL0     C89809   2.487  10.169   7.275 -0.5971 -0.3103 -0.4795
  666MOL0     O89810   2.535  10.127   7.155  0.0495 -0.5857  0.0335
  666MOL0     C89811   2.537   9.984   7.144  0.4767  0.0577 -0.2881
  666MOL0     C89812   2.642   9.937   7.044  0.4550  0.4255  0.6460
  666MOL0     C89813   2.648   9.786   7.039  0.0842 -0.5573 -0.8623
  666MOL0     C89814   2.741   9.729   7.141  0.3091  0.6383 -0.5369
  666MOL0     C89815   2.743   9.579   7.150  0.0612  0.2994  0.1258
  666MOL0     C89816   2.859   9.526   7.233  0.1753 -0.1894  0.5345
  666MOL0     C89817   2.861   9.370   7.244 -0.6498  0.3687  0.3970
  666MOL0     C89818   2.999   9.330   7.310  0.9382  0.6881  0.9844
  666MOL0    Cl89819   2.977   9.171   7.401 -0.1622 -0.1888 -0.2287
  666MOL0     C89820   2.376  10.250   7.275  0.4530  0.3842 -0.2261
  666MOL0     C89821   2.327  10.319   7.393 -0.2546 -0.6178  0.3337
  666MOL0     O89822   2.200  10.491   7.579  0.3215 -0.6341  0.0507
  666MOL0     C89823   2.123  10.553   7.845  0.0315  0.3747  0.1062
  666MOL0     C89824   2.095  10.558   7.977 -0.4761 -0.1581 -0.4180
  666MOL0     N89825   1.944  10.760   8.798  0.3335  0.5248  0.2636
  666MOL0     N89826   1.901  10.775   8.919 -0.3618 -0.0312  0.7093
  666MOL0     C89827   2.470  10.976  10.018  0.5471 -0.3361 -1.2285
  666MOL0     C89828   2.561  10.991  10.127  0.2605  0.8930  0.2103
  666MOL0     C89829   2.827  11.102  10.459  0.1110  0.5161 -0.4696
  666MOL0     C89830   2.799  11.017  10.565 -0.4568 -0.6089 -0.3410
  666MOL0     C89831   2.862  11.031  10.686 -0.2253  0.2938  0.2214
  666MOL0     C89832   2.929  11.151  10.713  0.4667 -0.1377  0.2739
  666MOL0     O89833   2.989  11.174  10.833 -0.1663 -0.2665  0.2625
  666MOL0     C89834   3.101  11.089  10.856  0.1865  0.8013 -0.3047
  666MOL0     C89835   3.140  11.115  11.001  0.3253  0.4661  0.4709
  666MOL0     C89836   3.049  11.057  11.100 -1.0753  0.9978 -0.5399
  666MOL0     C89837   3.097  11.072  11.243 -0.0221  0.3888 -0.0123
  666MOL0     C89838   2.988  11.087  11.338 -0.1638  0.3425  0.0580
  666MOL0     C89839   2.900  11.087  11.422  0.7925 -0.1916 -0.8759
  666MOL0     C89840   2.945  11.238  10.604 -0.2433  0.0349  0.8777
  666MOL0     C89841   2.891  11.215  10.481 -0.9765 -0.2435  0.2332
  666MOL0     C89842   2.914  11.312  10.370  0.3703 -0.1274 -0.1849
  666MOL0     H89843   2.709  11.273  10.009 -1.4892  0.6951 -3.9795
  666MOL0     H89844   2.533  11.249   9.849  1.0324  1.1329  0.8432
  666MOL0     H89845   2.411  10.847   9.768  0.4680 -1.0736  0.6245
  666MOL0     H89846   2.251  10.875   9.842 -0.8086  0.0509 -1.8734
  666MOL0     H89847   2.344  11.008   9.577  1.3812 -0.6506  0.5310
  666MOL0     H89848   2.183  10.995   9.643  0.2732  0.4668 -2.0333
  666MOL0     H89849   2.205  10.729   9.611 -0.0912 -0.9908 -0.6754
  666MOL0     H89850   2.356  10.762   9.535  1.2585  0.4052 -0.4817
  666MOL0     H89851   2.080  10.891   9.476  0.6560  0.1387  3.5620
  666MOL0     H89852   2.209  10.901   9.355  0.4937 -0.6849 -0.7720
  666MOL0     H89853   2.212  10.660   9.313  0.8313 -1.7309  1.5057
  666MOL0     H89854   2.099  10.630   9.437 -3.1711 -0.2540 -1.8289
  666MOL0     H89855   1.936  10.788   9.318  0.4393  0.5853  0.2532
  666MOL0     H89856   2.059  10.776   9.188 -1.9428  0.8208 -0.3483
  666MOL0     H89857   1.910  10.529   9.303 -0.6461 -1.8350 -1.4175
  666MOL0     H89858   2.036  10.542   9.174 -0.4381  1.1634 -0.8995
  666MOL0     H89859   1.767  10.545   9.117 -1.4410  1.2055 -0.8195
  666MOL0     H89860   1.789  10.712   9.145 -1.9015 -0.8779 -1.9444
  666MOL0     H89861   2.000  10.466   8.923  0.7740 -0.4726 -0.6583
  666MOL0     H89862   2.180  10.566   8.712  1.3291  2.0107 -0.8186
  666MOL0     H89863   2.037  10.481   8.663  0.5418  0.1483  0.6469
  666MOL0     H89864   1.981  10.699   8.528  0.8944  2.2242  2.3587
  666MOL0     H89865   2.161  10.728   8.540 -0.3560  1.0442 -0.7299
  666MOL0     H89866   2.034  10.472   8.440  1.2400 -1.4940  3.3293
  666MOL0     H89867   2.199  10.496   8.444 -0.1673 -0.0125 -2.3083
  666MOL0     H89868   2.192  10.686   8.275 -2.7363  2.0647  0.5356
  666MOL0     H89869   2.019  10.666   8.266 -1.1502 -1.8355 -0.5815
  666MOL0     H89870   2.361  10.414   8.116 -1.9577 -1.2862  0.9025
  666MOL0     H89871   2.431  10.411   7.880  0.3838  0.1324 -0.3800
  666MOL0     H89872   2.579  10.196   7.600 -1.8732  0.9101  0.6607
  666MOL0     H89873   2.652  10.100   7.377  0.2606 -1.0349  3.6003
  666MOL0     H89874   2.550   9.939   7.243  1.4426  1.1410  0.0964
  666MOL0     H89875   2.441   9.954   7.100  1.2505 -0.6747 -1.5468
  666MOL0     H89876   2.608   9.961   6.942  0.2385 -1.4654  0.2484
  666MOL0     H89877   2.737   9.985   7.070 -0.9898  2.8475  1.8213
  666MOL0     H89878   2.548   9.742   7.050  0.2122 -0.5954  0.1871
  666MOL0     H89879   2.686   9.746   6.944 -0.5186 -0.6069 -1.0887
  666MOL0     H89880   2.710   9.759   7.242 -0.0233  2.9439 -1.2633
  666MOL0     H89881   2.840   9.770   7.123 -0.6107  2.7318 -1.0865
  666MOL0     H89882   2.746   9.534   7.050 -0.0998  0.0181  0.2474
  666MOL0     H89883   2.647   9.559   7.198 -1.4652  1.0192 -2.4217
  666MOL0     H89884   2.951   9.568   7.191 -0.2514  1.8519  1.4994
  666MOL0     H89885   2.865   9.568   7.334  2.8022 -2.2313  1.3477
  666MOL0     H89886   2.852   9.326   7.144  0.4972 -0.8151  0.7963
  666MOL0     H89887   2.774   9.333   7.300  0.4229  1.5719  3.0520
  666MOL0     H89888   3.078   9.314   7.236  1.4381 -2.3640  2.0323
  666MOL0     H89889   3.036   9.406   7.379  1.5835  2.1523 -0.9067
  666MOL0     H89890   2.323  10.262   7.182  0.4287 -2.9138 -0.7420
  666MOL0     H89891   2.234  10.375   7.382 -0.6029 -0.9263  1.5811
  666MOL0     H89892   2.052  10.599   7.776 -0.2765 -2.3190 -1.5332
  666MOL0     H89893   2.005  10.613   8.001  1.1275  1.9322  1.1088
  666MOL0     H89894   2.405  10.889  10.025 -1.6642  1.2873 -0.4655
  666MOL0     H89895   2.557  10.918  10.207  0.4665  2.6225  1.8875
  666MOL0     H89896   2.729  10.935  10.554 -0.6572 -0.5365  0.3425
  666MOL0     H89897   2.841  10.964  10.768  0.3925 -0.4669 -0.2203
  666MOL0     H89898   3.186  11.107  10.789  1.5217 -0.1180  1.0731
  666MOL0     H89899   3.078  10.984  10.836  0.8118  0.4810  0.5922
  666MOL0     H89900   3.152  11.222  11.021  0.6534  0.7955 -1.2964
  666MOL0     H89901   3.239  11.071  11.009  1.8301  3.0130 -2.1885
  666MOL0     H89902   3.028  10.951  11.082 -1.1524  1.4023 -3.1226
  666MOL0     H89903   2.958  11.115  11.081 -2.0121 -0.9510 -2.4095
  666MOL0     H89904   3.152  10.981  11.269  2.3461  0.6861 -3.2764
  666MOL0     H89905   3.159  11.161  11.254  0.4841 -0.1028  1.2521
  666MOL0     H89906   2.827  11.095  11.500  1.9776 -1.2946  0.4277
  666MOL0     H89907   3.000  11.330  10.619 -0.7947  0.7178 -1.1187
  666MOL0     H89908   2.978  11.392  10.408 -1.0135  1.2174 -0.5300
  666MOL0     H89909   2.955  11.265  10.281 -0.8090  0.4163 -1.0385
  666MOL0     H89910   2.819  11.352  10.332  0.2924  0.7582  0.8793
  667MOL0     O89911   0.548   4.937   5.485  0.1801 -0.0943  0.5495
  667MOL0     C89912   0.542   5.028   5.570  0.6340 -0.2962  0.5531
  667MOL0     O89913   0.624   5.038   5.684 -0.3956  0.1500 -0.0223
  667MOL0     C89914   0.751   4.978   5.677 -0.0477  0.0793  0.0067
  667MOL0     C89915   0.800   4.895   5.777  0.3244  0.3538  0.3192
  667MOL0     C89916   0.921   4.824   5.756  0.1047  0.2152  0.1838
  667MOL0     C89917   1.005   4.841   5.643 -0.1388  0.0882  0.1160
  667MOL0     O89918   1.121   4.776   5.623 -0.8447 -0.5777  0.0828
  667MOL0     C89919   1.204   4.777   5.737  0.5861 -0.1778 -1.0489
  667MOL0     C89920   1.342   4.747   5.679  0.3347  0.7650 -0.5793
  667MOL0     C89921   1.429   4.683   5.793 -0.0604 -0.2047 -0.1802
  667MOL0     C89922   1.568   4.649   5.742  0.1425 -0.1545  0.7882
  667MOL0     C89923   1.653   4.590   5.862  0.6584  0.5303  0.6448
  667MOL0     C89924   1.744   4.467   5.825  0.2234  0.3893 -0.1244
  667MOL0     C89925   1.866   4.473   5.910 -0.2040  0.1009 -0.8123
  667MOL0     C89926   1.945   4.359   5.848  0.1733  1.0496  0.2214
  667MOL0     N89927   2.083   4.356   5.891 -1.4686 -1.0713  0.0669
  667MOL0     C89928   2.123   4.317   6.016 -0.9807  0.4777 -0.2962
  667MOL0     C89929   2.246   4.367   6.045  0.8463 -0.4747 -0.3002
  667MOL0     C89930   2.323   4.345   6.172  0.5351 -0.2808 -0.8321
  667MOL0     C89931   2.464   4.301   6.151  0.0541  0.0702  0.2840
  667MOL0     C89932   2.484   4.176   6.062 -0.2189  0.4776  0.2289
  667MOL0     C89933   2.393   4.052   6.106 -0.3916 -0.9701 -0.4991
  667MOL0     O89934   2.443   4.009   6.230 -0.6410 -0.1888  0.3963
  667MOL0     C89935   2.400   3.893   6.285 -0.2552  0.7833  0.6731
  667MOL0     C89936   2.458   3.851   6.404 -0.0320  0.4769 -0.8479
  667MOL0     C89937   2.418   3.740   6.476  0.6085  0.2283  0.1785
  667MOL0     C89938   2.324   3.653   6.415 -0.2468 -0.5809  0.2753
  667MOL0     C89939   2.294   3.529   6.486 -0.0881  0.8640  0.3742
  667MOL0     O89940   2.350   3.505   6.617 -0.0637  0.6704  0.4849
  667MOL0     C89941   2.322   3.399   6.692 -0.6872  0.0085 -0.0585
  667MOL0     C89942   2.186   3.360   6.723 -0.0117 -0.4092  1.0945
  667MOL0     C89943   2.169   3.268   6.825  0.9305  0.2630  1.1739
  667MOL0     C89944   2.272   3.205   6.894 -0.4402  0.4885 -0.2997
  667MOL0     O89945   2.245   3.112   6.990  0.0835 -0.3659 -0.1516
  667MOL0     C89946   2.120   3.048   6.992  0.3277  0.0876 -0.6008
  667MOL0     C89947   2.125   2.937   7.097 -0.1597 -0.0903  0.5871
  667MOL0     C89948   1.985   2.874   7.123  0.3614 -0.2296  0.1061
  667MOL0     C89949   1.971   2.733   7.067 -0.2779  0.3988  0.0079
  667MOL0     C89950   1.827   2.688   7.105  0.9467 -0.1549  1.3688
  667MOL0     C89951   1.801   2.542   7.076 -0.3051 -0.3131  0.4851
  667MOL0     C89952   1.805   2.505   6.930 -0.2922  0.1816  0.0907
  667MOL0     C89953   1.753   2.367   6.894  0.9304  0.8022  0.7010
  667MOL0    Cl89954   1.585   2.318   6.960 -0.1580  0.4277  0.3800
  667MOL0     C89955   2.394   3.247   6.864  0.3051  0.2112  0.3985
  667MOL0     C89956   2.420   3.343   6.773 -0.2281  0.7443  0.0807
  667MOL0     O89957   2.245   3.443   6.412 -0.2704 -0.9735  0.4472
  667MOL0     C89958   2.263   3.696   6.297 -0.2677  0.1422 -0.5144
  667MOL0     C89959   2.293   3.819   6.238 -0.7376 -0.5117 -0.0041
  667MOL0     N89960   2.276   4.454   5.941 -0.1441  0.5717  0.5591
  667MOL0     N89961   2.180   4.443   5.845 -0.4469 -0.6462 -0.5148
  667MOL0     C89962   0.957   4.931   5.551 -0.2738 -0.5193 -0.3246
  667MOL0     C89963   0.835   5.006   5.568 -0.7937  0.5928  0.2885
  667MOL0     C89964   0.463   5.143   5.536  0.1243 -0.4537  0.3468
  667MOL0     C89965   0.501   5.274   5.579  0.5320 -0.2553 -0.9774
  667MOL0     C89966   0.421   5.386   5.547  0.5384  0.5064 -0.2107
  667MOL0     C89967   0.300   5.373   5.476 -0.0219  0.2382 -0.2477
  667MOL0     O89968   0.232   5.491   5.451 -0.6529 -0.2627  0.0869
  667MOL0     C89969   0.131   5.503   5.352  0.1966  0.0284 -0.1141
  667MOL0     C89970   0.195   5.569   5.232  0.1427 -1.0450 -0.5498
  667MOL0     C89971   0.074   5.631   5.157  0.2071  0.5814 -0.1926
  667MOL0     C89972   0.106   5.706   5.035  0.1516 -0.8535  0.1413
  667MOL0     C89973   0.228   5.676   4.962 -0.7486  0.1652 -0.0101
  667MOL0     C89974   0.338   5.640   4.922 -0.1699  0.4105 -0.8174
  667MOL0     C89975   0.269   5.248   5.442 -0.1148 -0.4460  0.7555
  667MOL0     C89976   0.341   5.134   5.470  0.0764 -0.4427  0.1541
  667MOL0     C89977   0.271   5.001   5.443 -1.2742  0.0155 -0.4698
  667MOL0     H89978   0.736   4.879   5.863 -0.7296  2.6983  0.0766
  667MOL0     H89979   0.930   4.756   5.840 -0.0850 -0.7938 -0.5962
  667MOL0     H89980   1.219   4.870   5.792  0.4008 -1.0034  0.4529
  667MOL0     H89981   1.184   4.702   5.815  1.5711 -3.8351 -4.0279
  667MOL0     H89982   1.379   4.848   5.658 -0.5866  1.1829 -0.2201
  667MOL0     H89983   1.343   4.682   5.591 -0.4129 -1.7263  1.1619
  667MOL0     H89984   1.376   4.594   5.828 -0.2031 -1.5663 -3.4216
  667MOL0     H89985   1.442   4.754   5.874  1.4755 -0.0081 -0.5737
  667MOL0     H89986   1.573   4.573   5.664  0.7239 -0.2040  0.8646
  667MOL0     H89987   1.612   4.738   5.696 -3.0072  1.6397  0.9508
  667MOL0     H89988   1.708   4.672   5.908  0.0341  1.3670 -0.0873
  667MOL0     H89989   1.580   4.545   5.931  1.8796 -3.6673 -0.4881
  667MOL0     H89990   1.672   4.385   5.827 -2.3610  2.4931 -0.7885
  667MOL0     H89991   1.778   4.469   5.721  4.3137  1.6133  1.0759
  667MOL0     H89992   1.852   4.456   6.017 -2.0327 -0.3038 -1.0665
  667MOL0     H89993   1.917   4.569   5.901  2.0817 -0.8112  1.3111
  667MOL0     H89994   1.893   4.268   5.878  0.9750  0.8366  1.0386
  667MOL0     H89995   1.951   4.371   5.740  1.3237  2.4835  0.3993
  667MOL0     H89996   2.062   4.266   6.090  1.3884 -2.3840 -0.1740
  667MOL0     H89997   2.327   4.442   6.222  0.1818 -1.2582  1.1931
  667MOL0     H89998   2.264   4.274   6.231  1.7418 -2.3002 -1.9328
  667MOL0     H89999   2.529   4.377   6.106  2.4776 -1.4190  1.0875
  667MOL0     H90000   2.500   4.293   6.254  0.1031  3.3594  0.6330
  667MOL0     H90001   2.590   4.151   6.053 -0.6064 -1.0100 -0.4180
  667MOL0     H90002   2.446   4.208   5.965 -6.0250 -1.2893  1.4878
  667MOL0     H90003   2.396   3.974   6.029  2.9135 -0.1970 -1.3008
  667MOL0     H90004   2.288   4.081   6.110 -0.5726 -1.4193 -1.5345
  667MOL0     H90005   2.533   3.912   6.453 -0.3146  0.5189 -0.4680
  667MOL0     H90006   2.468   3.722   6.570  1.8941 -0.6513 -0.6382
  667MOL0     H90007   2.099   3.396   6.668 -0.4674 -1.0992  1.3398
  667MOL0     H90008   2.063   3.244   6.836  0.2350  1.8272 -1.3786
  667MOL0     H90009   2.053   3.121   7.038 -1.6242 -1.5894 -0.6424
  667MOL0     H90010   2.083   3.018   6.894  0.0841  0.5725 -0.6574
  667MOL0     H90011   2.198   2.856   7.086  1.0600  0.7837  1.9033
  667MOL0     H90012   2.152   2.988   7.190 -1.3062  4.1299 -1.1490
  667MOL0     H90013   1.949   2.876   7.226 -0.7921  1.2547 -0.2793
  667MOL0     H90014   1.909   2.941   7.080  2.1226  0.2968 -2.3736
  667MOL0     H90015   2.042   2.662   7.110 -0.3272 -0.0428 -0.6216
  667MOL0     H90016   1.993   2.739   6.960  1.4535  1.1808  0.3755
  667MOL0     H90017   1.757   2.744   7.041  2.1912  1.1575  1.0971
  667MOL0     H90018   1.794   2.710   7.207  0.0216 -0.9857  1.2694
  667MOL0     H90019   1.878   2.489   7.134 -1.0778  0.4011  2.2260
  667MOL0     H90020   1.708   2.508   7.122  0.2140 -0.7956  1.2025
  667MOL0     H90021   1.906   2.496   6.889 -0.1150 -1.8276  0.8164
  667MOL0     H90022   1.760   2.587   6.875  0.0913  0.6915  0.5247
  667MOL0     H90023   1.734   2.362   6.786 -2.6240  2.7764  1.0927
  667MOL0     H90024   1.821   2.282   6.907 -1.9551 -2.0525 -1.2327
  667MOL0     H90025   2.472   3.195   6.920 -0.5181  0.1854  1.5656
  667MOL0     H90026   2.519   3.372   6.739 -0.0502 -1.4425 -1.4513
  667MOL0     H90027   2.178   3.643   6.253  1.0303 -2.3106 -0.2384
  667MOL0     H90028   2.235   3.844   6.149 -1.0785  1.6451  0.7727
  667MOL0     H90029   1.020   4.951   5.466 -2.6331  0.0216 -2.0509
  667MOL0     H90030   0.798   5.074   5.491  0.0263 -1.2115 -1.8072
  667MOL0     H90031   0.591   5.291   5.636 -1.0811 -3.1767  2.9138
  667MOL0     H90032   0.448   5.484   5.585 -0.5779 -0.2627  2.8657
  667MOL0     H90033   0.050   5.563   5.394 -0.4657  0.0873 -1.4262
  667MOL0     H90034   0.078   5.412   5.322 -0.0484  0.8515 -2.4382
  667MOL0     H90035   0.257   5.499   5.175  2.0938 -1.0325  1.4069
  667MOL0     H90036   0.264   5.649   5.262 -0.9809 -1.1238  2.6809
  667MOL0     H90037   0.020   5.701   5.222 -1.1078  0.0476 -0.6770
  667MOL0     H90038   0.005   5.550   5.135  0.8780 -0.3522  0.9801
  667MOL0     H90039   0.029   5.692   4.958  0.2012  0.0687 -0.0822
  667MOL0     H90040   0.098   5.810   5.067 -1.6573 -0.9734  0.2009
  667MOL0     H90041   0.433   5.614   4.881 -0.4188  0.8493 -1.7212
  667MOL0     H90042   0.171   5.232   5.396  0.8388  0.1266 -1.6308
  667MOL0     H90043   0.308   4.926   5.513 -0.0170  1.6060  0.6477
  667MOL0     H90044   0.163   5.015   5.454 -0.9888  0.6052  2.2751
  667MOL0     H90045   0.292   4.965   5.342 -0.5626 -1.7164  0.2709
  668MOL0     O90046   6.298   1.505   8.074 -0.3629 -0.0920 -0.1649
  668MOL0     C90047   6.275   1.532   7.959  0.1319  0.5030 -0.2513
  668MOL0     O90048   6.362   1.513   7.858  0.3972  1.3224  0.6271
  668MOL0     C90049   6.482   1.432   7.858  0.1882 -0.7940 -0.2026
  668MOL0     C90050   6.566   1.456   7.754 -0.4971 -0.5985  0.3009
  668MOL0     C90051   6.696   1.399   7.743 -0.4404  0.5098  0.4789
  668MOL0     C90052   6.733   1.299   7.826 -1.1381  0.1313  0.1057
  668MOL0     O90053   6.851   1.238   7.830 -1.0752 -0.1242  0.2969
  668MOL0     C90054   6.944   1.262   7.729 -0.3966 -1.5076  1.2359
  668MOL0     C90055   7.080   1.233   7.796  0.1230  1.2395  0.6314
  668MOL0     C90056   7.198   1.269   7.700  0.6971  0.5078 -0.5391
  668MOL0     C90057   7.315   1.187   7.750 -0.9465  0.6543 -0.3283
  668MOL0     C90058   7.439   1.194   7.665 -0.2639 -0.7250 -0.0796
  668MOL0     C90059   7.560   1.139   7.729 -0.5283 -0.4593 -0.7281
  668MOL0     C90060   7.683   1.154   7.636 -0.5609  0.2429 -0.3285
  668MOL0     C90061   7.683   1.070   7.506 -0.3616 -0.2936  0.5621
  668MOL0     N90062   7.788   1.109   7.409  0.1101  0.0298  0.4382
  668MOL0     C90063   7.918   1.114   7.436 -0.5172 -0.0070 -0.1594
  668MOL0     C90064   7.979   1.132   7.321 -0.2984 -0.3304  0.8186
  668MOL0     C90065   8.131   1.146   7.309  0.2178  0.8917  0.4240
  668MOL0     C90066   8.162   1.294   7.268  0.9787  0.4665  0.7553
  668MOL0     C90067   8.190   1.383   7.395  0.8872 -1.6376 -0.4027
  668MOL0     C90068   8.259   1.513   7.355  0.1175 -0.4797 -0.3967
  668MOL0     O90069   8.400   1.480   7.342 -0.0929  0.1677 -0.3178
  668MOL0     C90070   8.508   1.558   7.341 -0.3977 -0.8708 -0.5497
  668MOL0     C90071   8.496   1.702   7.342  0.5650  0.3130 -0.1015
  668MOL0     C90072   8.606   1.783   7.349  0.4920 -0.4080 -0.0684
  668MOL0     C90073   8.732   1.715   7.343  0.0705  0.3901  0.5685
  668MOL0     C90074   8.849   1.804   7.349 -0.2819 -0.1475 -0.7465
  668MOL0     O90075   8.959   1.773   7.273  0.2591 -0.3878  0.8672
  668MOL0     C90076   9.070   1.857   7.273  1.1389  0.0682  0.6635
  668MOL0     C90077   9.089   1.946   7.164 -0.0333  0.1037 -0.5640
  668MOL0     C90078   9.203   2.030   7.161 -0.4439  0.4312  0.7506
  668MOL0     C90079   9.286   2.037   7.271 -0.7124 -0.5852 -0.8591
  668MOL0     O90080   9.396   2.127   7.257  0.4679  0.2346 -0.1957
  668MOL0     C90081   9.478   2.154   7.375  0.9840 -0.4523  0.2873
  668MOL0     C90082   9.581   2.268   7.342 -0.3463 -0.9260 -0.0526
  668MOL0     C90083   9.535   2.415   7.370 -0.2326 -0.7347  0.8168
  668MOL0     C90084   9.641   2.520   7.318  0.6194  0.0070  0.1659
  668MOL0     C90085   9.623   2.656   7.389 -0.3105 -1.7228 -1.2988
  668MOL0     C90086   9.506   2.736   7.340  0.4086 -0.0101 -0.4203
  668MOL0     C90087   9.528   2.878   7.386  0.1953  0.5714  0.7836
  668MOL0     C90088   9.405   2.959   7.332  0.4542 -0.2617 -0.6445
  668MOL0    Cl90089   9.420   3.131   7.388 -0.0341  0.2081  0.5495
  668MOL0     C90090   9.262   1.954   7.384 -0.9997  0.0588 -0.3237
  668MOL0     C90091   9.160   1.858   7.374 -1.0036 -0.3701 -0.1271
  668MOL0     O90092   8.843   1.896   7.432  0.0360 -0.1800 -0.0291
  668MOL0     C90093   8.746   1.581   7.330  0.5815  1.3837 -0.2733
  668MOL0     C90094   8.638   1.499   7.331  1.1759 -0.7802  0.3697
  668MOL0     N90095   7.878   1.143   7.223  0.8249  0.5366  0.0567
  668MOL0     N90096   7.763   1.118   7.276 -0.0212  0.7222 -0.0227
  668MOL0     C90097   6.651   1.267   7.927 -0.1638 -0.3860 -0.6721
  668MOL0     C90098   6.526   1.333   7.943 -0.7097 -0.9034 -0.0864
  668MOL0     C90099   6.147   1.593   7.930  0.3250 -0.5353  0.1148
  668MOL0     C90100   6.045   1.589   8.030  0.5957  0.0471 -0.0159
  668MOL0     C90101   5.918   1.634   8.007 -0.0915 -0.0045  1.8242
  668MOL0     C90102   5.885   1.693   7.882 -0.6102  0.5486 -0.9384
  668MOL0     O90103   5.753   1.731   7.854 -0.0828  0.2650  0.5630
  668MOL0     C90104   5.665   1.743   7.960  0.2644  0.7475 -0.6314
  668MOL0     C90105   5.690   1.870   8.046  0.3332 -0.8726 -0.4668
  668MOL0     C90106   5.578   1.890   8.149  0.2421 -0.1122  0.6441
  668MOL0     C90107   5.552   2.040   8.185  0.4672 -0.4760  0.7560
  668MOL0     C90108   5.484   2.116   8.081  0.0254 -0.3869  0.1039
  668MOL0     C90109   5.433   2.172   7.987  0.1700  0.1150 -0.0972
  668MOL0     C90110   5.988   1.710   7.791 -0.1774 -0.1767 -0.9166
  668MOL0     C90111   6.114   1.666   7.810 -0.8030 -0.6969 -0.3652
  668MOL0     C90112   6.210   1.694   7.695  0.3267  0.4505 -0.3847
  668MOL0     H90113   6.531   1.529   7.681  0.5490 -1.3535 -0.9944
  668MOL0     H90114   6.758   1.442   7.665  0.7943 -2.6778 -0.4301
  668MOL0     H90115   6.930   1.198   7.642 -3.9322  0.6336  0.0309
  668MOL0     H90116   6.943   1.364   7.690  2.5101 -1.2437  1.6379
  668MOL0     H90117   7.081   1.125   7.817 -1.6493  1.4522  2.0449
  668MOL0     H90118   7.098   1.299   7.882 -1.3217  0.2134  1.7750
  668MOL0     H90119   7.218   1.377   7.696  5.5302 -0.1298 -0.1183
  668MOL0     H90120   7.167   1.230   7.603  1.2870 -5.7161  1.3742
  668MOL0     H90121   7.336   1.216   7.853  0.1247 -3.0479  0.6256
  668MOL0     H90122   7.287   1.082   7.742  3.0432 -0.4799 -1.5413
  668MOL0     H90123   7.408   1.162   7.565 -0.6304 -1.9470  0.4188
  668MOL0     H90124   7.455   1.301   7.648 -3.1229 -0.5343 -2.3805
  668MOL0     H90125   7.578   1.198   7.819 -0.4621  0.2749 -1.2180
  668MOL0     H90126   7.546   1.041   7.776 -3.3767  1.0177  1.8059
  668MOL0     H90127   7.772   1.122   7.691  1.8919 -0.9579 -4.5199
  668MOL0     H90128   7.697   1.261   7.614  2.7748  0.0412  0.2239
  668MOL0     H90129   7.706   0.963   7.515  3.0236  0.2336 -0.2513
  668MOL0     H90130   7.594   1.097   7.449  0.7754  1.0024 -0.6634
  668MOL0     H90131   7.952   1.100   7.538 -0.7222  0.0901 -0.0767
  668MOL0     H90132   8.183   1.123   7.403  0.9250 -0.9048 -0.3622
  668MOL0     H90133   8.174   1.078   7.235  2.8547  1.6416  1.1371
  668MOL0     H90134   8.246   1.293   7.198  0.1205  1.4615 -0.3172
  668MOL0     H90135   8.073   1.336   7.221 -0.0781 -0.2445  2.0426
  668MOL0     H90136   8.259   1.336   7.466  0.5561  0.0053  1.0979
  668MOL0     H90137   8.098   1.411   7.448  0.8009  0.5762 -1.6093
  668MOL0     H90138   8.244   1.589   7.432  0.8081  1.2272 -1.8639
  668MOL0     H90139   8.210   1.557   7.267 -1.6546  2.7831  2.0242
  668MOL0     H90140   8.395   1.737   7.329  0.0762 -0.9908  0.0204
  668MOL0     H90141   8.600   1.891   7.355  4.7575 -0.0369  1.9652
  668MOL0     H90142   9.035   1.935   7.071  1.7113  0.1062 -1.6291
  668MOL0     H90143   9.235   2.095   7.080  1.5300  0.8788  1.8175
  668MOL0     H90144   9.404   2.189   7.448 -1.4350 -0.9623 -1.7474
  668MOL0     H90145   9.533   2.062   7.395  0.3227 -1.5000 -2.2838
  668MOL0     H90146   9.676   2.250   7.394 -0.6361  0.4843  1.0173
  668MOL0     H90147   9.607   2.252   7.237  0.6986  0.0713  0.0433
  668MOL0     H90148   9.442   2.444   7.319  1.2891 -0.2144 -1.8489
  668MOL0     H90149   9.538   2.425   7.479  2.3765  2.5595  0.6321
  668MOL0     H90150   9.651   2.527   7.209  0.9009 -0.5762  0.1500
  668MOL0     H90151   9.740   2.498   7.358 -1.3678 -1.0701  5.3149
  668MOL0     H90152   9.711   2.720   7.374 -1.6549  0.5588 -0.0302
  668MOL0     H90153   9.627   2.636   7.497  1.0770  1.7148 -0.5911
  668MOL0     H90154   9.499   2.734   7.231  1.4473  0.0556 -0.4982
  668MOL0     H90155   9.425   2.680   7.388 -1.2372  1.9144 -0.8606
  668MOL0     H90156   9.614   2.928   7.341 -0.5460  0.6576 -0.5759
  668MOL0     H90157   9.535   2.881   7.495 -0.8505  0.4816  0.8672
  668MOL0     H90158   9.402   2.965   7.222  1.0798 -0.3902 -0.6738
  668MOL0     H90159   9.312   2.926   7.379  1.5092 -0.0431  1.7034
  668MOL0     H90160   9.317   1.961   7.477  2.1503  4.5410 -2.1343
  668MOL0     H90161   9.145   1.792   7.459 -2.2268  1.5986  1.2878
  668MOL0     H90162   8.844   1.536   7.325  1.0990  2.5101 -0.6371
  668MOL0     H90163   8.641   1.391   7.334  1.2258 -0.8037 -0.2589
  668MOL0     H90164   6.694   1.194   7.994  2.3018  0.3518 -1.3192
  668MOL0     H90165   6.460   1.310   8.026 -1.4854  0.6828 -0.2151
  668MOL0     H90166   6.080   1.554   8.126 -1.8200  0.6255  1.1475
  668MOL0     H90167   5.846   1.602   8.080 -1.0962 -1.7200  0.1695
  668MOL0     H90168   5.664   1.659   8.031 -0.8502 -0.2763 -1.7960
  668MOL0     H90169   5.563   1.742   7.920 -0.7526  1.5364  1.7440
  668MOL0     H90170   5.705   1.951   7.974  0.1896 -0.3900  0.0444
  668MOL0     H90171   5.791   1.859   8.088 -0.0437 -2.0707  0.1705
  668MOL0     H90172   5.597   1.830   8.239 -0.6203  0.6900  1.3722
  668MOL0     H90173   5.487   1.846   8.107  1.6156 -1.1540 -1.3954
  668MOL0     H90174   5.480   2.060   8.265 -1.6080  0.8371 -1.2970
  668MOL0     H90175   5.646   2.091   8.206 -0.5795  3.3143 -2.4855
  668MOL0     H90176   5.395   2.204   7.892 -1.0041  2.2969  1.0108
  668MOL0     H90177   5.972   1.746   7.691  0.5421 -2.4850 -1.9433
  668MOL0     H90178   6.164   1.762   7.623  4.6815  5.7587  1.1363
  668MOL0     H90179   6.291   1.758   7.731 -0.2868  1.8545 -1.4299
  668MOL0     H90180   6.235   1.598   7.648  1.8616  0.8396 -0.4171
  669MOL0     O90181   6.168   5.265   3.428 -0.4184  0.3691  0.0870
  669MOL0     C90182   6.220   5.232   3.536 -0.3147  0.7960 -0.5144
  669MOL0     O90183   6.299   5.119   3.554 -0.3579 -1.1544  0.6929
  669MOL0     C90184   6.308   5.013   3.465 -0.0649  0.6135 -0.3829
  669MOL0     C90185   6.205   4.957   3.388 -0.5252  0.1880 -0.1137
  669MOL0     C90186   6.233   4.839   3.306  1.0301  0.0374  0.7863
  669MOL0     C90187   6.350   4.766   3.320 -0.3232  0.7032  0.6133
  669MOL0     O90188   6.378   4.652   3.246 -0.3923 -0.6743 -0.6370
  669MOL0     C90189   6.277   4.576   3.174 -0.5375  1.0773  0.3595
  669MOL0     C90190   6.290   4.428   3.230  0.1911  0.5537 -0.6537
  669MOL0     C90191   6.423   4.370   3.176  0.2227  0.0240  0.4022
  669MOL0     C90192   6.435   4.223   3.238  0.3949 -0.1339  0.5162
  669MOL0     C90193   6.582   4.174   3.197  0.6339  0.9902  0.6028
  669MOL0     C90194   6.646   4.108   3.313 -0.1723  0.4074 -0.6199
  669MOL0     C90195   6.671   4.194   3.438  0.5729 -0.7919  0.0422
  669MOL0     C90196   6.737   4.327   3.414 -0.3331  0.0354 -0.4721
  669MOL0     N90197   6.729   4.416   3.528 -0.8994  0.2176  0.0205
  669MOL0     C90198   6.843   4.475   3.588  0.2884 -1.4336 -0.2576
  669MOL0     C90199   6.797   4.594   3.648 -0.4525  0.6695  0.0635
  669MOL0     C90200   6.880   4.695   3.729  0.2074 -0.0042 -0.9949
  669MOL0     C90201   6.838   4.846   3.723 -0.4101  0.0732 -0.0704
  669MOL0     C90202   6.815   4.907   3.577 -0.1439 -0.1942  0.3561
  669MOL0     C90203   6.814   5.070   3.574  0.0945 -0.8473 -0.2479
  669MOL0     O90204   6.699   5.106   3.642 -0.4821 -0.2395 -0.8836
  669MOL0     C90205   6.652   5.240   3.631 -0.8983  0.5239 -0.9762
  669MOL0     C90206   6.635   5.308   3.747  0.2033  0.5799 -0.3341
  669MOL0     C90207   6.571   5.432   3.735 -0.2467 -0.3663 -0.5685
  669MOL0     C90208   6.539   5.492   3.610  0.0301  0.0215 -0.1006
  669MOL0     C90209   6.480   5.628   3.599  0.0758 -0.4954  0.4585
  669MOL0     O90210   6.414   5.670   3.473 -0.6241  0.0496  0.1290
  669MOL0     C90211   6.371   5.800   3.464  0.1239 -0.7243 -0.1776
  669MOL0     C90212   6.432   5.880   3.372  0.4117  0.8879 -0.1281
  669MOL0     C90213   6.392   6.009   3.357 -0.7618  0.0213 -0.4194
  669MOL0     C90214   6.292   6.061   3.446 -0.1520  0.5281 -0.0933
  669MOL0     O90215   6.239   6.181   3.409  0.1076  0.2680 -0.3779
  669MOL0     C90216   6.187   6.272   3.508  0.1333  0.9415 -0.0224
  669MOL0     C90217   6.033   6.267   3.524 -0.9138  0.1866  1.0877
  669MOL0     C90218   5.941   6.212   3.406  0.1722  0.0169  0.1414
  669MOL0     C90219   5.804   6.277   3.427 -0.6632  0.5804  0.5247
  669MOL0     C90220   5.690   6.195   3.386  1.1687 -0.6508 -0.0917
  669MOL0     C90221   5.555   6.261   3.403 -0.0090 -0.1692  0.3464
  669MOL0     C90222   5.535   6.317   3.547 -0.0133 -1.0471  0.0114
  669MOL0     C90223   5.399   6.377   3.547  0.4352 -0.3425 -0.7318
  669MOL0    Cl90224   5.396   6.549   3.499  0.0086 -0.3243  0.1518
  669MOL0     C90225   6.225   5.978   3.538 -1.1991 -0.1602 -0.7200
  669MOL0     C90226   6.269   5.845   3.546 -0.3034  0.2185  0.0197
  669MOL0     O90227   6.484   5.696   3.704 -0.1978  0.0673  0.8006
  669MOL0     C90228   6.554   5.419   3.501 -0.4239  0.9986  0.5477
  669MOL0     C90229   6.604   5.292   3.511 -0.4454  0.4463  0.6718
  669MOL0     N90230   6.658   4.607   3.618  0.2081 -0.7280 -0.9925
  669MOL0     N90231   6.622   4.501   3.548  0.4920  0.3141 -0.6566
  669MOL0     C90232   6.445   4.820   3.403 -0.3490  0.1734  0.2209
  669MOL0     C90233   6.429   4.942   3.472  0.0042 -0.5542  0.0449
  669MOL0     C90234   6.214   5.323   3.660  0.4176  0.8887  0.4166
  669MOL0     C90235   6.291   5.295   3.778 -0.2224  0.7236  0.6914
  669MOL0     C90236   6.285   5.384   3.893 -1.0366  0.0656  0.8918
  669MOL0     C90237   6.219   5.501   3.889 -0.1400  0.7501  0.7274
  669MOL0     O90238   6.237   5.593   3.989  0.2092  0.2587 -0.2450
  669MOL0     C90239   6.360   5.663   3.980 -0.8101 -0.1361  0.1627
  669MOL0     C90240   6.392   5.726   4.115 -1.3489  0.0915 -0.1144
  669MOL0     C90241   6.307   5.845   4.133 -1.0568 -0.3894  0.3187
  669MOL0     C90242   6.319   5.890   4.275 -1.2897 -0.2021  0.0406
  669MOL0     C90243   6.230   6.004   4.310 -0.5483  0.4658 -0.5791
  669MOL0     C90244   6.149   6.082   4.335  0.2388  0.3131  0.4534
  669MOL0     C90245   6.150   5.535   3.775  0.3602 -0.2013  0.0019
  669MOL0     C90246   6.151   5.452   3.662  0.3599 -0.1761  0.3691
  669MOL0     C90247   6.076   5.505   3.540 -0.5430 -0.5868 -0.4217
  669MOL0     H90248   6.105   5.000   3.393 -0.3620  0.4526  2.0183
  669MOL0     H90249   6.159   4.811   3.232  1.6598  0.1662  0.0864
  669MOL0     H90250   6.172   4.595   3.200 -0.4171  1.6019  0.4644
  669MOL0     H90251   6.293   4.572   3.066 -0.6213 -0.4300  0.3740
  669MOL0     H90252   6.206   4.374   3.186  0.1926  2.3215 -2.9790
  669MOL0     H90253   6.285   4.428   3.340 -1.7524 -1.3394 -0.6652
  669MOL0     H90254   6.507   4.436   3.199 -0.9291  1.4617  0.6303
  669MOL0     H90255   6.426   4.364   3.067  0.7156 -1.6070  0.4811
  669MOL0     H90256   6.410   4.216   3.344  1.4647 -1.8086  0.7009
  669MOL0     H90257   6.361   4.160   3.186  2.3300 -1.1394 -1.1820
  669MOL0     H90258   6.569   4.099   3.118 -0.3725  0.5903  1.1222
  669MOL0     H90259   6.639   4.255   3.151 -0.1257  0.3114 -1.6699
  669MOL0     H90260   6.605   4.014   3.351  2.6779  0.7048  4.0127
  669MOL0     H90261   6.750   4.083   3.290  0.3995  0.6467  1.4604
  669MOL0     H90262   6.742   4.129   3.490 -0.4610 -2.1078 -0.1442
  669MOL0     H90263   6.584   4.210   3.503  0.9442 -1.4525  0.7131
  669MOL0     H90264   6.842   4.314   3.384 -0.8464 -0.8953 -1.9618
  669MOL0     H90265   6.700   4.375   3.324 -0.2802  1.5166  0.2751
  669MOL0     H90266   6.946   4.449   3.571  0.6293  0.9910 -2.4863
  669MOL0     H90267   6.857   4.663   3.831 -1.0402  0.5423 -1.0863
  669MOL0     H90268   6.980   4.693   3.684 -0.8937 -1.7279 -3.6769
  669MOL0     H90269   6.745   4.860   3.777 -1.4498 -0.1827 -1.7058
  669MOL0     H90270   6.918   4.897   3.776  0.2347 -1.2864  0.3114
  669MOL0     H90271   6.722   4.868   3.535  0.9648 -2.1354 -0.4112
  669MOL0     H90272   6.896   4.868   3.515  2.6173  3.5813  1.2079
  669MOL0     H90273   6.808   5.087   3.467  2.8075 -1.9796 -0.6715
  669MOL0     H90274   6.906   5.105   3.622  2.0178 -1.7415 -3.0360
  669MOL0     H90275   6.662   5.272   3.845 -1.1973  0.4158  0.0100
  669MOL0     H90276   6.574   5.505   3.815  1.8138 -1.9866  0.9280
  669MOL0     H90277   6.496   5.828   3.301  1.0009  1.9316 -0.3751
  669MOL0     H90278   6.431   6.061   3.270  1.1322 -2.8253 -1.4257
  669MOL0     H90279   6.230   6.240   3.603 -0.8075 -1.2385 -0.2573
  669MOL0     H90280   6.220   6.375   3.495 -1.9455  1.3505 -3.2284
  669MOL0     H90281   6.018   6.209   3.616  3.6306 -1.3693  1.0897
  669MOL0     H90282   6.004   6.371   3.540 -0.5114  0.5110 -0.1959
  669MOL0     H90283   5.998   6.235   3.316  1.4649 -2.5796  0.2086
  669MOL0     H90284   5.932   6.106   3.429  1.7985  0.3589  2.8206
  669MOL0     H90285   5.801   6.377   3.381 -0.9856  0.6906  0.7815
  669MOL0     H90286   5.778   6.308   3.529 -1.2094  2.7166 -0.1991
  669MOL0     H90287   5.688   6.105   3.447  0.9390 -2.5156 -2.7013
  669MOL0     H90288   5.705   6.153   3.287 -0.6303  2.8090 -2.0239
  669MOL0     H90289   5.554   6.349   3.338  3.1185  0.4237  0.9726
  669MOL0     H90290   5.484   6.179   3.389  0.5188 -0.9755  2.1205
  669MOL0     H90291   5.599   6.400   3.578  0.0793 -0.2765 -2.0819
  669MOL0     H90292   5.535   6.250   3.633 -0.8011 -2.0659 -0.7481
  669MOL0     H90293   5.322   6.317   3.497  1.3331 -2.5798  0.4463
  669MOL0     H90294   5.366   6.390   3.651 -1.7799  1.3141 -1.5493
  669MOL0     H90295   6.140   6.000   3.602 -1.1655  1.8269 -1.3162
  669MOL0     H90296   6.233   5.781   3.626 -0.0703 -0.0371 -0.0754
  669MOL0     H90297   6.513   5.468   3.413  0.2233  1.2081  0.3578
  669MOL0     H90298   6.614   5.238   3.417  3.7050  0.2799  1.0423
  669MOL0     H90299   6.542   4.774   3.419 -1.7154 -3.4893 -0.9967
  669MOL0     H90300   6.512   4.982   3.529  2.6398 -1.8058 -2.6188
  669MOL0     H90301   6.351   5.205   3.787  0.7254  1.1806 -0.7036
  669MOL0     H90302   6.340   5.353   3.982 -0.4945 -3.8532 -0.5929
  669MOL0     H90303   6.350   5.738   3.901 -1.0805 -0.6150 -0.2636
  669MOL0     H90304   6.452   5.607   3.961  1.7714  3.3118  1.3355
  669MOL0     H90305   6.498   5.751   4.113 -1.3242  0.1996  1.3052
  669MOL0     H90306   6.376   5.663   4.203  1.4707  1.9278  1.9134
  669MOL0     H90307   6.201   5.829   4.113 -1.2352  0.9575  0.0967
  669MOL0     H90308   6.354   5.918   4.065  0.9400 -0.1035  1.9041
  669MOL0     H90309   6.315   5.808   4.347 -1.6912  1.6359  2.2516
  669MOL0     H90310   6.418   5.937   4.281 -0.3313 -2.2331  0.7205
  669MOL0     H90311   6.068   6.150   4.351 -0.8187 -0.9576  0.6928
  669MOL0     H90312   6.103   5.633   3.765  1.7828  0.4614 -0.4003
  669MOL0     H90313   6.019   5.416   3.512 -1.2967 -0.5963  1.0562
  669MOL0     H90314   6.008   5.584   3.574  3.2989  1.5140  3.4639
  669MOL0     H90315   6.135   5.546   3.458 -1.7968  0.3966 -0.8767
  670MOL0     O90316   9.672   8.447   1.942  0.2714 -0.8617  0.3716
  670MOL0     C90317   9.626   8.355   1.877  1.0690  0.5200 -0.8676
  670MOL0     O90318   9.493   8.321   1.877  0.2557  0.0364 -0.8357
  670MOL0     C90319   9.416   8.377   1.975  0.2972 -0.1525 -0.3628
  670MOL0     C90320   9.435   8.364   2.116  0.3512  0.8878  0.3843
  670MOL0     C90321   9.352   8.436   2.203  0.5549 -0.6961  0.4798
  670MOL0     C90322   9.232   8.494   2.155 -0.5550 -0.0347 -1.2310
  670MOL0     O90323   9.150   8.542   2.253 -0.1420  0.1707 -0.4802
  670MOL0     C90324   9.042   8.621   2.216 -0.1126 -0.7182  0.3389
  670MOL0     C90325   8.914   8.534   2.210  0.6250 -0.9184  0.1247
  670MOL0     C90326   8.879   8.485   2.361 -0.6834 -0.0186 -1.1058
  670MOL0     C90327   8.733   8.434   2.377 -1.0523  1.2499 -0.6776
  670MOL0     C90328   8.630   8.549   2.398  0.1454  0.4555  0.9052
  670MOL0     C90329   8.646   8.601   2.535 -0.2180 -0.4049  0.9196
  670MOL0     C90330   8.547   8.712   2.571  0.3277 -0.0474  0.2507
  670MOL0     C90331   8.564   8.832   2.476  0.7338 -0.5783 -0.7300
  670MOL0     N90332   8.498   8.949   2.532 -0.1014 -0.5169 -0.2841
  670MOL0     C90333   8.397   8.939   2.620  0.5382 -1.8531 -0.5326
  670MOL0     C90334   8.390   9.052   2.697 -0.1546 -0.2668  0.4495
  670MOL0     C90335   8.286   9.076   2.811 -0.1021 -0.2235  0.5849
  670MOL0     C90336   8.205   9.203   2.783 -0.1455  0.3681 -0.1541
  670MOL0     C90337   8.126   9.244   2.915 -0.9970  0.2682  0.2989
  670MOL0     C90338   8.212   9.286   3.030 -0.8445 -0.1914 -0.7396
  670MOL0     O90339   8.286   9.408   2.994 -0.5525 -0.5749  0.7997
  670MOL0     C90340   8.422   9.389   2.971  0.0017 -1.2705 -0.0835
  670MOL0     C90341   8.514   9.336   3.058 -0.0433  0.5328  0.3226
  670MOL0     C90342   8.648   9.318   3.026 -0.4574  0.7153  0.4986
  670MOL0     C90343   8.698   9.376   2.911  0.3079  0.3036  0.0128
  670MOL0     C90344   8.839   9.366   2.865 -0.5471 -0.7042 -0.4233
  670MOL0     O90345   8.860   9.415   2.737 -0.2782 -0.1418 -0.0590
  670MOL0     C90346   8.985   9.402   2.683  0.3236  0.1861 -0.5652
  670MOL0     C90347   9.041   9.278   2.635  0.0504 -0.5310 -0.4402
  670MOL0     C90348   9.170   9.278   2.605 -1.3669 -0.5515  0.4907
  670MOL0     C90349   9.255   9.391   2.611  0.6272  0.7267 -0.8307
  670MOL0     O90350   9.384   9.363   2.576  0.7059  0.8520 -0.1126
  670MOL0     C90351   9.485   9.462   2.587  0.7048 -0.6847 -0.0198
  670MOL0     C90352   9.631   9.414   2.577 -0.3151  0.6339 -0.2893
  670MOL0     C90353   9.662   9.283   2.649  0.8194  1.2348  0.4040
  670MOL0     C90354   9.659   9.298   2.796 -0.1430 -0.0949 -0.0477
  670MOL0     C90355   9.772   9.223   2.871  0.8392  0.4244  0.1119
  670MOL0     C90356   9.767   9.071   2.858  0.2673  1.0694 -0.3729
  670MOL0     C90357   9.646   8.998   2.936 -0.3872 -0.8830 -0.4182
  670MOL0     C90358   9.675   8.860   2.985 -0.0775 -0.8994  0.3850
  670MOL0    Cl90359   9.747   8.774   2.848  0.5341 -0.0074  0.0891
  670MOL0     C90360   9.199   9.515   2.640 -0.4075  0.0591  0.1134
  670MOL0     C90361   9.066   9.511   2.679 -0.3782 -0.7219  0.0061
  670MOL0     O90362   8.920   9.311   2.947 -0.9063  0.0113  0.4705
  670MOL0     C90363   8.601   9.438   2.820 -0.6900  1.0126 -1.1606
  670MOL0     C90364   8.470   9.437   2.849 -0.0881  0.7065  0.2751
  670MOL0     N90365   8.499   9.132   2.642  0.6176 -0.4514 -0.3094
  670MOL0     N90366   8.561   9.066   2.549 -0.3481 -0.5326 -0.4228
  670MOL0     C90367   9.208   8.493   2.018  0.5030 -0.2036 -0.3218
  670MOL0     C90368   9.299   8.442   1.928 -0.5404 -0.0504  0.1108
  670MOL0     C90369   9.715   8.276   1.788  0.5541  0.5699 -0.2238
  670MOL0     C90370   9.650   8.201   1.683 -0.8540  0.2495 -0.1073
  670MOL0     C90371   9.726   8.118   1.597  0.0603 -0.4558 -0.1381
  670MOL0     C90372   9.866   8.104   1.615  0.3411 -0.3566  0.2327
  670MOL0     O90373   9.944   8.027   1.529 -0.5120  0.0856 -0.1242
  670MOL0     C90374  10.088   8.060   1.518 -0.1784  0.3287  0.3668
  670MOL0     C90375  10.140   8.030   1.375  0.5392 -0.4343  0.5976
  670MOL0     C90376  10.127   7.876   1.326 -1.3434  0.1800  0.2164
  670MOL0     C90377  10.183   7.783   1.430 -0.1525  0.2392 -0.7917
  670MOL0     C90378  10.072   7.684   1.457 -0.2972 -0.6781  0.4365
  670MOL0     C90379   9.976   7.607   1.471 -0.0504  0.2759  0.3932
  670MOL0     C90380   9.920   8.177   1.721  0.5272  0.3739 -0.3087
  670MOL0     C90381   9.855   8.265   1.810  0.6306 -0.2587  0.3477
  670MOL0     C90382   9.943   8.343   1.908  0.6271 -0.1419  1.1785
  670MOL0     H90383   9.507   8.309   2.175 -0.7425  1.7513  2.6539
  670MOL0     H90384   9.371   8.435   2.310 -1.2141  0.9805  0.8565
  670MOL0     H90385   9.035   8.695   2.297  0.7910  0.8621 -0.9470
  670MOL0     H90386   9.068   8.680   2.127 -0.1277 -0.9336  0.1913
  670MOL0     H90387   8.936   8.463   2.130  1.7398  3.8029 -4.2971
  670MOL0     H90388   8.827   8.587   2.172  0.8220  0.4632  1.4851
  670MOL0     H90389   8.897   8.567   2.431 -1.4178  1.1493 -2.2378
  670MOL0     H90390   8.952   8.413   2.399 -1.2324  0.6741  1.4415
  670MOL0     H90391   8.711   8.365   2.295  3.3643 -0.7550 -0.4531
  670MOL0     H90392   8.740   8.383   2.473  2.6532  0.4157 -1.2278
  670MOL0     H90393   8.646   8.629   2.326 -0.0089 -2.0827 -2.1672
  670MOL0     H90394   8.531   8.507   2.375  0.6722 -1.8257  2.4377
  670MOL0     H90395   8.642   8.528   2.616  2.4545 -0.0436  1.4545
  670MOL0     H90396   8.747   8.638   2.553  0.6552 -2.3746  0.2721
  670MOL0     H90397   8.560   8.739   2.676 -1.5981  2.3964 -0.0434
  670MOL0     H90398   8.450   8.664   2.554  1.7432 -2.1563 -3.0385
  670MOL0     H90399   8.668   8.857   2.455  0.9562 -1.7646 -1.1273
  670MOL0     H90400   8.519   8.810   2.378 -0.9296 -0.2320 -0.0838
  670MOL0     H90401   8.326   8.858   2.634 -1.2697 -0.3390 -0.5833
  670MOL0     H90402   8.212   8.997   2.827 -1.3127  0.8815  0.5644
  670MOL0     H90403   8.340   9.095   2.905 -1.4529  1.2142  1.1164
  670MOL0     H90404   8.273   9.281   2.750  1.2540 -0.4512  0.7125
  670MOL0     H90405   8.139   9.170   2.702 -0.1098  0.9133 -0.4106
  670MOL0     H90406   8.069   9.155   2.943 -0.6064 -0.1617 -0.2577
  670MOL0     H90407   8.054   9.322   2.889 -1.2281 -0.5563 -1.7095
  670MOL0     H90408   8.275   9.202   3.063 -1.4196  0.2126  1.5620
  670MOL0     H90409   8.151   9.306   3.118  1.3337  0.2169  0.7594
  670MOL0     H90410   8.469   9.286   3.143  1.4360 -1.6652 -0.1137
  670MOL0     H90411   8.715   9.276   3.099 -2.3487  1.0839  2.5646
  670MOL0     H90412   8.987   9.184   2.639 -1.1907  0.2223  1.8546
  670MOL0     H90413   9.219   9.184   2.579  0.5472  0.7514 -0.8488
  670MOL0     H90414   9.481   9.525   2.497  1.1730 -1.1382 -0.3635
  670MOL0     H90415   9.473   9.529   2.672  1.3672  1.5544 -1.5864
  670MOL0     H90416   9.677   9.416   2.478  2.4695  0.2783  0.9066
  670MOL0     H90417   9.695   9.489   2.625 -0.1395 -0.0166  0.5084
  670MOL0     H90418   9.589   9.210   2.613 -1.5329  2.7969  1.8158
  670MOL0     H90419   9.764   9.255   2.619  0.4096 -0.8027  0.8133
  670MOL0     H90420   9.560   9.279   2.840 -0.3243  0.3321 -0.2630
  670MOL0     H90421   9.675   9.405   2.808 -1.1263  0.1297 -0.5596
  670MOL0     H90422   9.775   9.254   2.976  2.3026  0.0594  0.1967
  670MOL0     H90423   9.876   9.253   2.851  2.1608 -1.8943  2.7812
  670MOL0     H90424   9.783   9.035   2.756  0.1045 -0.3797  0.0847
  670MOL0     H90425   9.860   9.041   2.906 -0.9580 -0.9504  0.8921
  670MOL0     H90426   9.549   8.999   2.885 -0.3188 -0.3239 -0.5492
  670MOL0     H90427   9.610   9.050   3.025 -0.7877 -2.2296  0.2252
  670MOL0     H90428   9.746   8.880   3.066 -0.2016 -2.3513  0.8904
  670MOL0     H90429   9.584   8.814   3.025 -2.4153  2.9070 -0.1619
  670MOL0     H90430   9.251   9.610   2.643 -0.1245 -0.0792  2.9802
  670MOL0     H90431   9.027   9.602   2.725  0.6122 -1.6894  3.0077
  670MOL0     H90432   8.641   9.487   2.731  2.2416  3.0842  1.1021
  670MOL0     H90433   8.403   9.472   2.771  1.7584  1.0161 -1.2636
  670MOL0     H90434   9.113   8.528   1.979 -0.8481 -2.2366  0.9974
  670MOL0     H90435   9.284   8.455   1.822  0.1488 -0.3898 -0.0335
  670MOL0     H90436   9.544   8.219   1.670 -0.9910 -1.1620 -1.1582
  670MOL0     H90437   9.679   8.061   1.518 -2.0390  1.9373 -0.7588
  670MOL0     H90438  10.141   8.019   1.604 -3.1503 -2.3485  1.1219
  670MOL0     H90439  10.099   8.169   1.513 -0.5402  0.5054  2.5116
  670MOL0     H90440  10.240   8.074   1.370  0.4880 -0.4137 -2.4071
  670MOL0     H90441  10.077   8.096   1.314  2.1926  0.5539 -0.1204
  670MOL0     H90442  10.201   7.859   1.247  1.5878 -1.6109  3.0904
  670MOL0     H90443  10.025   7.866   1.288 -0.1980 -0.0691 -3.1032
  670MOL0     H90444  10.268   7.722   1.399  2.1640  1.8979  1.8685
  670MOL0     H90445  10.226   7.825   1.521 -2.4025 -1.4000  1.1679
  670MOL0     H90446   9.904   7.537   1.507  0.9162  0.0127  1.8730
  670MOL0     H90447  10.027   8.170   1.741  0.3436 -2.0997  0.0776
  670MOL0     H90448   9.944   8.275   1.994  1.5372 -3.3961 -1.1692
  670MOL0     H90449  10.047   8.346   1.872  0.3957 -1.9326  0.2265
  670MOL0     H90450   9.903   8.443   1.927  0.5027  0.2333 -0.8052
  671MOL0     O90451   0.029   3.856   4.131  0.6107 -0.7403 -0.2133
  671MOL0     C90452   0.103   3.869   4.230  0.8151 -0.3672  1.1320
  671MOL0     O90453   0.184   3.985   4.247 -0.5413 -0.3602  0.0013
  671MOL0     C90454   0.153   4.097   4.172  0.2429 -1.7443  1.2858
  671MOL0     C90455   0.237   4.124   4.061 -0.1421 -0.4521  0.5417
  671MOL0     C90456   0.247   4.253   4.007  0.6679  0.7056  0.3239
  671MOL0     C90457   0.158   4.355   4.037  0.1478  0.9244  0.0647
  671MOL0     O90458   0.153   4.474   3.972  0.2777 -0.4716  0.0481
  671MOL0     C90459   0.264   4.510   3.884 -0.3193  0.1635  0.4717
  671MOL0     C90460   0.218   4.626   3.810  0.2139 -0.6070 -0.1092
  671MOL0     C90461   0.331   4.704   3.756  0.4073  0.5368 -0.1102
  671MOL0     C90462   0.284   4.831   3.694  0.4879 -0.9489 -0.2538
  671MOL0     C90463   0.407   4.915   3.658  0.2184 -0.2633  0.0650
  671MOL0     C90464   0.387   5.013   3.539 -0.0871 -1.3312  0.1626
  671MOL0     C90465   0.499   5.118   3.519 -0.3095  0.3722  0.4388
  671MOL0     C90466   0.613   5.063   3.440  0.2167  0.3019 -1.2016
  671MOL0     N90467   0.724   5.158   3.421  0.7213 -0.2816  0.1634
  671MOL0     C90468   0.726   5.260   3.334  0.7647 -0.4482  0.4806
  671MOL0     C90469   0.854   5.308   3.320  0.3868  0.9894 -1.2578
  671MOL0     C90470   0.893   5.426   3.241 -0.1441  0.2453  0.3598
  671MOL0     C90471   1.037   5.460   3.265 -0.1620  0.0475 -0.0370
  671MOL0     C90472   1.079   5.582   3.166  0.2076  1.5373 -0.4212
  671MOL0     C90473   1.012   5.719   3.203 -0.2660  0.3406 -0.9029
  671MOL0     O90474   1.010   5.736   3.357 -0.3949  0.7516 -0.1024
  671MOL0     C90475   0.919   5.820   3.420  0.4670 -0.1689  0.7449
  671MOL0     C90476   0.794   5.858   3.376  0.1183  0.1240  0.8472
  671MOL0     C90477   0.728   5.959   3.445  0.3016 -0.5953  0.0861
  671MOL0     C90478   0.785   6.021   3.568  0.0004  1.0323  0.5041
  671MOL0     C90479   0.706   6.131   3.634 -0.9959 -0.0007 -0.0285
  671MOL0     O90480   0.754   6.185   3.754  0.4945  0.4946  0.0525
  671MOL0     C90481   0.675   6.289   3.816  0.1409 -0.0797  0.0953
  671MOL0     C90482   0.667   6.292   3.958  0.2022  0.0656  0.8481
  671MOL0     C90483   0.591   6.390   4.025 -1.1787 -0.6991 -0.6591
  671MOL0     C90484   0.526   6.490   3.959 -0.7447 -0.5551  0.8376
  671MOL0     O90485   0.458   6.579   4.045 -0.0828 -0.1625  0.3806
  671MOL0     C90486   0.393   6.699   3.988  0.3860 -0.0374 -0.4327
  671MOL0     C90487   0.342   6.795   4.103  0.5016 -0.6309  0.4399
  671MOL0     C90488   0.212   6.746   4.162 -0.3435 -0.0481 -0.1120
  671MOL0     C90489   0.176   6.827   4.297  0.2888 -0.4058  0.9187
  671MOL0     C90490   0.038   6.781   4.348  0.1014  0.3730 -0.1900
  671MOL0     C90491  -0.086   6.779   4.253  0.6502 -0.6318  0.2020
  671MOL0     C90492  -0.211   6.715   4.316  0.7176 -1.3082  0.1481
  671MOL0     C90493  -0.339   6.720   4.239  0.5039  0.6834 -0.4757
  671MOL0    Cl90494  -0.447   6.594   4.304  0.0654  0.4720  0.6937
  671MOL0     C90495   0.537   6.486   3.816 -0.3615 -0.3126 -0.0177
  671MOL0     C90496   0.610   6.388   3.751  0.5686  0.1213 -0.1588
  671MOL0     O90497   0.603   6.167   3.576  0.9043 -0.0473  0.3139
  671MOL0     C90498   0.905   5.967   3.617  0.5046  0.8609  0.8294
  671MOL0     C90499   0.976   5.880   3.537  0.4694  0.6615 -0.4987
  671MOL0     N90500   0.932   5.236   3.403 -0.7893  0.9832 -0.3960
  671MOL0     N90501   0.858   5.145   3.460  0.2044  0.3490 -0.2666
  671MOL0     C90502   0.070   4.329   4.142 -0.4064  0.8715 -0.4270
  671MOL0     C90503   0.075   4.202   4.211 -0.0315  0.3748 -0.8697
  671MOL0     C90504   0.108   3.769   4.330  0.1988  0.2731 -0.5659
  671MOL0     C90505   0.226   3.758   4.406  0.2507 -0.0093 -0.1068
  671MOL0     C90506   0.239   3.654   4.499  0.1092  0.0045 -0.6466
  671MOL0     C90507   0.124   3.574   4.535 -0.7111  0.0421  0.6733
  671MOL0     O90508   0.110   3.481   4.633 -0.2873  0.7817  0.1263
  671MOL0     C90509   0.166   3.512   4.759  0.4574 -0.4605  1.0065
  671MOL0     C90510   0.059   3.487   4.874 -0.4550 -0.4884 -0.2528
  671MOL0     C90511   0.030   3.344   4.888 -0.1299  0.1699  0.5083
  671MOL0     C90512   0.007   3.300   5.029  1.2677 -1.1374 -0.1428
  671MOL0     C90513   0.136   3.302   5.105 -0.1286 -0.8008 -0.2181
  671MOL0     C90514   0.224   3.274   5.181 -0.7291 -0.3014 -0.8042
  671MOL0     C90515   0.014   3.582   4.453 -0.5761 -0.7320  0.1373
  671MOL0     C90516  -0.001   3.679   4.354  1.0316  0.7663  0.0768
  671MOL0     C90517  -0.136   3.675   4.276 -0.0443  0.4939 -0.0527
  671MOL0     H90518   0.313   4.051   4.034  2.6692  1.4228  2.8335
  671MOL0     H90519   0.319   4.259   3.926  1.4823 -2.4329  0.6725
  671MOL0     H90520   0.349   4.533   3.948  0.9382 -0.7302 -0.8296
  671MOL0     H90521   0.294   4.438   3.808 -0.0997 -2.3413  2.7814
  671MOL0     H90522   0.155   4.689   3.873  2.4733  2.9844 -1.1293
  671MOL0     H90523   0.158   4.587   3.727 -2.3441 -1.0699  1.8286
  671MOL0     H90524   0.392   4.648   3.685 -0.0960  0.1442 -0.2418
  671MOL0     H90525   0.391   4.740   3.840 -0.0344  1.5321 -0.2094
  671MOL0     H90526   0.218   4.826   3.607 -0.3946  0.4369  0.2887
  671MOL0     H90527   0.236   4.891   3.772  1.3825 -0.4093 -0.1120
  671MOL0     H90528   0.433   4.973   3.747 -2.1391 -2.0222  2.0596
  671MOL0     H90529   0.488   4.850   3.624  0.0557  0.9054 -2.9177
  671MOL0     H90530   0.367   4.961   3.445  4.6948 -0.2279 -1.7615
  671MOL0     H90531   0.295   5.071   3.554  0.2720 -1.2219  2.1502
  671MOL0     H90532   0.539   5.159   3.612 -2.2478 -1.4679  2.2068
  671MOL0     H90533   0.444   5.194   3.463  0.0145 -0.7171 -1.4169
  671MOL0     H90534   0.647   4.977   3.499  1.1582  0.8622 -0.9120
  671MOL0     H90535   0.588   5.037   3.337 -0.0967 -1.0076 -0.8137
  671MOL0     H90536   0.644   5.290   3.270  2.6679  2.8507 -0.6109
  671MOL0     H90537   0.870   5.403   3.137 -1.0944  0.8416  0.4176
  671MOL0     H90538   0.828   5.507   3.278 -2.5969 -2.5583  2.8195
  671MOL0     H90539   1.057   5.485   3.369  4.0744 -3.4803  0.2741
  671MOL0     H90540   1.095   5.367   3.259 -1.5436 -1.2950  4.1804
  671MOL0     H90541   1.061   5.553   3.062 -1.1058 -1.6305  0.5613
  671MOL0     H90542   1.187   5.596   3.178  0.7848 -2.3776  0.4530
  671MOL0     H90543   0.909   5.727   3.166 -1.0782  0.9804  1.3116
  671MOL0     H90544   1.071   5.802   3.165  1.7160 -1.4070 -1.7897
  671MOL0     H90545   0.750   5.808   3.290  2.0334  1.7949 -1.2345
  671MOL0     H90546   0.635   5.988   3.397  0.9891 -0.6728 -1.3557
  671MOL0     H90547   0.723   6.206   3.995 -0.9960 -0.2758  1.9209
  671MOL0     H90548   0.590   6.381   4.133 -3.0348 -0.2532 -0.5995
  671MOL0     H90549   0.474   6.739   3.927  1.8508 -2.4418 -0.1901
  671MOL0     H90550   0.314   6.680   3.915  2.1614  1.0215 -2.7476
  671MOL0     H90551   0.426   6.797   4.173 -0.0733 -2.5822  1.2385
  671MOL0     H90552   0.325   6.898   4.071 -0.1831  0.0491  2.7874
  671MOL0     H90553   0.135   6.765   4.088  1.4173 -2.2934 -2.6939
  671MOL0     H90554   0.227   6.647   4.206 -2.0984  0.3697  1.5424
  671MOL0     H90555   0.164   6.932   4.267  0.1360 -1.1182 -1.8299
  671MOL0     H90556   0.253   6.837   4.374  0.0064  0.4080  1.1068
  671MOL0     H90557  -0.003   6.856   4.417 -2.1566 -1.4307  0.5437
  671MOL0     H90558   0.053   6.688   4.404 -0.1577 -0.1008 -0.9056
  671MOL0     H90559  -0.106   6.878   4.210  1.4557  1.3838  4.0514
  671MOL0     H90560  -0.059   6.701   4.180  0.1467 -0.2106 -0.4460
  671MOL0     H90561  -0.239   6.765   4.409  0.2524  1.4050 -1.3414
  671MOL0     H90562  -0.187   6.614   4.353  1.3073 -0.2773  2.8420
  671MOL0     H90563  -0.394   6.814   4.245 -3.5689 -1.3578 -1.8572
  671MOL0     H90564  -0.309   6.705   4.135  0.8055  4.8388 -1.1249
  671MOL0     H90565   0.481   6.565   3.767  1.3821  0.7338 -0.4506
  671MOL0     H90566   0.613   6.387   3.642 -2.9144 -1.8374 -0.3694
  671MOL0     H90567   0.941   5.999   3.714 -0.2855  0.6549  1.1950
  671MOL0     H90568   1.070   5.845   3.579 -0.1013  0.4814  0.6654
  671MOL0     H90569  -0.003   4.403   4.173 -0.4658  0.2339  1.0273
  671MOL0     H90570   0.024   4.199   4.306  0.1576  3.2454 -0.5844
  671MOL0     H90571   0.317   3.816   4.395 -0.3645  0.6206 -2.3371
  671MOL0     H90572   0.330   3.629   4.552  0.4931 -1.2114 -1.8181
  671MOL0     H90573   0.193   3.618   4.770  0.7593 -0.1624 -1.7799
  671MOL0     H90574   0.254   3.453   4.784  1.3770  0.7911  0.8080
  671MOL0     H90575  -0.029   3.546   4.847 -1.4862 -0.6144  2.5251
  671MOL0     H90576   0.090   3.531   4.969 -1.1429  0.2818 -0.3739
  671MOL0     H90577   0.105   3.282   4.838  0.7088 -0.7303  2.7834
  671MOL0     H90578  -0.062   3.332   4.829  0.9445  1.8350 -1.6676
  671MOL0     H90579  -0.057   3.375   5.077  2.9691 -0.3238  0.9382
  671MOL0     H90580  -0.034   3.198   5.029 -1.0720 -0.6041  5.5666
  671MOL0     H90581   0.294   3.226   5.247 -0.0145 -1.4987 -2.3847
  671MOL0     H90582  -0.074   3.521   4.473 -0.0454 -0.9287  2.1195
  671MOL0     H90583  -0.130   3.631   4.176  0.6450 -2.0500  1.0440
  671MOL0     H90584  -0.207   3.608   4.324  0.5769  0.8461  1.4144
  671MOL0     H90585  -0.187   3.771   4.263  1.4546  1.4148  0.6207
  672MOL0     O90586   8.621   5.950   7.734 -0.6497  0.2132 -0.6622
  672MOL0     C90587   8.676   5.968   7.841 -0.2948  0.2270 -0.0562
  672MOL0     O90588   8.633   6.044   7.940  0.4787  0.0714  0.5817
  672MOL0     C90589   8.542   6.150   7.902 -0.1730  0.1655  0.7570
  672MOL0     C90590   8.578   6.289   7.920 -0.3609  0.4235  0.2715
  672MOL0     C90591   8.486   6.396   7.882 -0.0148 -0.6584 -0.2466
  672MOL0     C90592   8.366   6.364   7.834 -0.5662  0.2934  0.0852
  672MOL0     O90593   8.278   6.470   7.813 -0.2417  0.0765 -0.1377
  672MOL0     C90594   8.136   6.456   7.837 -0.6906 -0.4005  0.3608
  672MOL0     C90595   8.052   6.579   7.828 -0.0132  0.5450  0.0565
  672MOL0     C90596   7.906   6.538   7.794 -0.7750  0.3431  0.6819
  672MOL0     C90597   7.820   6.643   7.856  0.2608  0.4417  1.6023
  672MOL0     C90598   7.686   6.639   7.781  0.0230 -0.3871  0.6435
  672MOL0     C90599   7.578   6.741   7.820  0.2219 -0.9816  0.5955
  672MOL0     C90600   7.634   6.885   7.838 -0.4422 -0.1699 -0.9651
  672MOL0     C90601   7.681   6.977   7.717  0.1515  0.8656  0.0282
  672MOL0     N90602   7.793   6.913   7.637 -1.1279  0.6226  0.2114
  672MOL0     C90603   7.924   6.926   7.670  0.7464 -0.5571  0.1982
  672MOL0     C90604   7.997   6.895   7.562 -0.6456 -0.5747 -0.1761
  672MOL0     C90605   8.144   6.892   7.551 -0.3696 -0.3710 -0.0719
  672MOL0     C90606   8.201   7.010   7.470 -0.4225  0.2010 -0.1395
  672MOL0     C90607   8.338   7.001   7.410 -0.8008  0.3398  0.9066
  672MOL0     C90608   8.394   7.137   7.352  0.3858 -0.3682  0.3724
  672MOL0     O90609   8.451   7.201   7.465 -0.4257 -0.1208 -0.4753
  672MOL0     C90610   8.480   7.340   7.457  0.6730 -0.5103 -0.1586
  672MOL0     C90611   8.602   7.385   7.489 -0.8921  0.2864  0.0035
  672MOL0     C90612   8.646   7.526   7.483 -0.7731  0.5979  0.3347
  672MOL0     C90613   8.553   7.619   7.433  1.2118  1.1510 -0.7910
  672MOL0     C90614   8.587   7.766   7.425  0.0467 -0.6231 -0.1176
  672MOL0     O90615   8.669   7.837   7.506  0.5967 -0.5818 -0.5508
  672MOL0     C90616   8.677   7.974   7.477 -0.0855 -0.7980 -0.0687
  672MOL0     C90617   8.643   8.068   7.573 -0.4599 -0.5619 -0.4366
  672MOL0     C90618   8.649   8.205   7.546 -0.6580  0.1716  0.0490
  672MOL0     C90619   8.709   8.253   7.429  0.8875 -0.3038 -0.0490
  672MOL0     O90620   8.714   8.389   7.395 -0.6697  0.1346 -0.0861
  672MOL0     C90621   8.722   8.479   7.508  0.2635 -0.9570 -0.0433
  672MOL0     C90622   8.802   8.601   7.461  0.3686  0.4326 -0.0614
  672MOL0     C90623   8.952   8.554   7.449 -0.1146 -0.3973 -1.0899
  672MOL0     C90624   9.020   8.438   7.535  0.0572  1.3364 -0.6403
  672MOL0     C90625   9.022   8.458   7.681 -0.1545  0.1772 -0.2188
  672MOL0     C90626   9.090   8.340   7.745 -0.5863 -0.1391  0.3440
  672MOL0     C90627   9.016   8.206   7.754 -0.5164  0.3277  0.1118
  672MOL0     C90628   8.897   8.213   7.838  1.2898  0.5802  0.2005
  672MOL0    Cl90629   8.842   8.051   7.888 -0.0840  0.1509  0.1521
  672MOL0     C90630   8.750   8.158   7.334  0.6031 -0.1723  0.0391
  672MOL0     C90631   8.734   8.018   7.352  0.6167 -0.3084  0.6699
  672MOL0     O90632   8.540   7.807   7.322  0.5149 -0.1895  0.2416
  672MOL0     C90633   8.420   7.573   7.398  0.1573  0.4691 -0.7173
  672MOL0     C90634   8.383   7.433   7.411 -0.3824 -0.3749 -0.1094
  672MOL0     N90635   7.914   6.882   7.461  0.5101 -0.1483 -0.5511
  672MOL0     N90636   7.790   6.885   7.506 -0.2083  0.1308  0.2199
  672MOL0     C90637   8.330   6.235   7.821 -0.0828  0.0492  0.1695
  672MOL0     C90638   8.408   6.124   7.852  0.9553  0.0679  0.3730
  672MOL0     C90639   8.791   5.887   7.878  0.6292 -0.0497 -0.1747
  672MOL0     C90640   8.876   5.946   7.968  1.1130  0.6642 -0.3928
  672MOL0     C90641   8.984   5.871   8.021 -0.6128 -0.2398  0.3538
  672MOL0     C90642   9.006   5.744   7.982 -0.9154 -0.3399 -0.1793
  672MOL0     O90643   9.121   5.685   8.036 -0.4744 -0.8238  0.0252
  672MOL0     C90644   9.145   5.543   8.028  0.1771 -0.3554 -0.3446
  672MOL0     C90645   9.043   5.461   8.120 -0.1164 -0.5148 -0.0313
  672MOL0     C90646   9.047   5.310   8.084 -0.2119  0.7516 -0.1280
  672MOL0     C90647   8.997   5.270   7.948  0.1598 -0.0421 -0.1811
  672MOL0     C90648   8.853   5.296   7.929  0.3644 -0.1368 -0.2035
  672MOL0     C90649   8.731   5.309   7.920 -0.0262 -0.2948  0.2199
  672MOL0     C90650   8.918   5.682   7.895  0.2572  0.1693  0.1709
  672MOL0     C90651   8.810   5.750   7.833  0.2742 -0.9133 -0.9656
  672MOL0     C90652   8.716   5.680   7.749  0.0400 -0.1270  0.4625
  672MOL0     H90653   8.669   6.317   7.972 -0.4731  1.4909 -0.0831
  672MOL0     H90654   8.529   6.494   7.900  2.6871 -2.2133  2.7191
  672MOL0     H90655   8.106   6.396   7.751  0.9411  1.2895 -1.4897
  672MOL0     H90656   8.124   6.407   7.934  0.2684 -1.0017  0.1943
  672MOL0     H90657   8.081   6.634   7.738 -3.8668  0.3716 -1.4769
  672MOL0     H90658   8.058   6.632   7.924 -3.5502 -2.9572  2.5544
  672MOL0     H90659   7.887   6.440   7.837 -2.0974 -0.2380 -1.0688
  672MOL0     H90660   7.893   6.538   7.685  1.4961  2.6799  0.3082
  672MOL0     H90661   7.798   6.632   7.962 -0.8446  0.3218  1.3780
  672MOL0     H90662   7.873   6.737   7.842  0.2342  0.1421 -1.0621
  672MOL0     H90663   7.708   6.650   7.674  0.2815  1.5919  0.8690
  672MOL0     H90664   7.638   6.544   7.806 -0.3083 -0.4881 -0.3331
  672MOL0     H90665   7.484   6.737   7.764 -0.6428 -1.3282  1.9979
  672MOL0     H90666   7.544   6.719   7.922 -0.8886  3.6133  1.4501
  672MOL0     H90667   7.711   6.883   7.915  2.7154 -4.3127 -3.7771
  672MOL0     H90668   7.554   6.946   7.881  1.9542  0.1833  3.5634
  672MOL0     H90669   7.591   7.004   7.660 -0.8045 -2.9305 -0.5536
  672MOL0     H90670   7.734   7.064   7.757  2.2007  0.2690 -1.2241
  672MOL0     H90671   7.952   6.950   7.772  4.1643  0.4700 -0.8311
  672MOL0     H90672   8.194   6.881   7.648  1.5415 -0.7200 -1.0630
  672MOL0     H90673   8.168   6.802   7.494  2.2990  1.3069 -1.8059
  672MOL0     H90674   8.134   7.028   7.385  0.8125 -1.5253 -1.5474
  672MOL0     H90675   8.216   7.102   7.528  2.8864  1.8383 -3.1903
  672MOL0     H90676   8.336   6.921   7.335 -1.3798 -0.5699  1.8555
  672MOL0     H90677   8.405   6.955   7.484 -0.4238 -2.7575 -1.1749
  672MOL0     H90678   8.321   7.199   7.298 -1.4346 -1.0502  1.9170
  672MOL0     H90679   8.480   7.140   7.285  1.9186  2.0360  2.3081
  672MOL0     H90680   8.666   7.306   7.528 -1.9453 -0.2088  0.7828
  672MOL0     H90681   8.744   7.547   7.523 -1.8641  0.9573  3.0446
  672MOL0     H90682   8.615   8.040   7.674 -4.0177  4.8233  0.5314
  672MOL0     H90683   8.631   8.279   7.623  2.5588  1.4120 -0.2387
  672MOL0     H90684   8.619   8.508   7.534 -0.2591 -1.7570 -1.1499
  672MOL0     H90685   8.762   8.437   7.601  1.7005  2.3092  0.9627
  672MOL0     H90686   8.770   8.626   7.360 -1.8355 -1.0440  0.1982
  672MOL0     H90687   8.786   8.686   7.529  2.5724  0.2812  0.7470
  672MOL0     H90688   8.964   8.516   7.347  1.5092 -3.3599  0.0512
  672MOL0     H90689   9.015   8.643   7.453  1.9432 -1.7869  2.1720
  672MOL0     H90690   9.124   8.415   7.509 -0.2131 -4.5265  1.8416
  672MOL0     H90691   8.964   8.349   7.502 -1.1788  3.0927 -3.7186
  672MOL0     H90692   8.922   8.466   7.726  0.3674 -1.0240  1.2499
  672MOL0     H90693   9.080   8.549   7.700  1.0876 -0.9480  1.7352
  672MOL0     H90694   9.181   8.330   7.686  0.8842  2.7424  1.9352
  672MOL0     H90695   9.116   8.367   7.848  1.3726  0.4867 -0.2772
  672MOL0     H90696   9.093   8.145   7.802  2.8923  3.7638 -0.5795
  672MOL0     H90697   8.996   8.155   7.659 -1.8586  1.5222 -0.2763
  672MOL0     H90698   8.921   8.257   7.935 -2.1079 -1.3944  2.0930
  672MOL0     H90699   8.819   8.267   7.783 -0.7338 -1.0359  1.3877
  672MOL0     H90700   8.791   8.199   7.242 -0.7213  0.4687 -0.2960
  672MOL0     H90701   8.764   7.947   7.275 -1.0059  0.0732 -0.3623
  672MOL0     H90702   8.351   7.651   7.370  2.1872  3.0322  0.9677
  672MOL0     H90703   8.281   7.403   7.391 -0.9052  1.3487 -0.1979
  672MOL0     H90704   8.226   6.211   7.798 -0.6279  0.9502  1.5829
  672MOL0     H90705   8.365   6.024   7.854 -0.1144  0.4448 -1.3315
  672MOL0     H90706   8.880   6.049   8.002  1.0978  0.1351  1.3578
  672MOL0     H90707   9.050   5.929   8.085  2.1841  0.7705 -3.1817
  672MOL0     H90708   9.246   5.524   8.064  0.3115  0.9713  0.0277
  672MOL0     H90709   9.138   5.513   7.922  2.1515  0.6235 -0.7882
  672MOL0     H90710   8.943   5.506   8.113  0.4044  0.9093  1.0176
  672MOL0     H90711   9.067   5.482   8.224  1.1592 -0.1676 -0.3735
  672MOL0     H90712   8.994   5.245   8.154  0.4277  2.7165  2.3369
  672MOL0     H90713   9.152   5.279   8.086  0.0808  1.6552  2.4860
  672MOL0     H90714   9.063   5.320   7.877  2.4265  1.2716  2.6311
  672MOL0     H90715   9.033   5.169   7.929  5.3929  1.2438  1.2189
  672MOL0     H90716   8.625   5.313   7.914 -0.1735  0.3993  2.5046
  672MOL0     H90717   8.938   5.579   7.865 -0.9397 -0.5419  1.6482
  672MOL0     H90718   8.718   5.702   7.642  0.9693 -1.4517  0.1838
  672MOL0     H90719   8.743   5.574   7.751 -0.9636 -0.3849  2.0741
  672MOL0     H90720   8.613   5.680   7.784 -0.2180  1.4974 -0.1985
  673MOL0     O90721   2.994   9.077   4.954  0.4989 -0.2116 -0.4637
  673MOL0     C90722   2.932   8.974   4.963 -0.2865  0.1279 -0.0161
  673MOL0     O90723   2.978   8.848   4.910  0.6586  0.7847 -0.6076
  673MOL0     C90724   3.100   8.827   4.859  0.1167 -0.1049  0.3112
  673MOL0     C90725   3.129   8.690   4.846  0.0868  0.4280  0.5801
  673MOL0     C90726   3.237   8.639   4.772 -0.1228 -0.6494 -0.4413
  673MOL0     C90727   3.329   8.724   4.714  0.2676 -0.6459 -0.1201
  673MOL0     O90728   3.442   8.671   4.648 -0.4435 -0.6151  0.2156
  673MOL0     C90729   3.556   8.740   4.592  0.6300  0.5674 -0.0080
  673MOL0     C90730   3.677   8.763   4.693  0.9595  0.5097  0.4643
  673MOL0     C90731   3.718   8.633   4.757 -0.0477  0.6046  0.1162
  673MOL0     C90732   3.832   8.631   4.866 -0.4066  0.1767  0.0146
  673MOL0     C90733   3.979   8.659   4.809  0.3284  0.5832 -0.2937
  673MOL0     C90734   4.084   8.640   4.920  0.0020 -0.1224  0.0049
  673MOL0     C90735   4.224   8.635   4.859  1.4028  1.1157 -0.0775
  673MOL0     C90736   4.312   8.640   4.979  0.0226 -0.5334  0.9962
  673MOL0     N90737   4.453   8.626   4.927 -0.1745 -0.2017 -0.0803
  673MOL0     C90738   4.533   8.517   4.959  0.3096 -0.7809  1.1993
  673MOL0     C90739   4.654   8.553   4.914 -0.5333 -0.5611  0.1699
  673MOL0     C90740   4.789   8.493   4.946 -0.1693  0.2425 -1.1557
  673MOL0     C90741   4.910   8.569   4.894  0.8466  0.2385 -0.0502
  673MOL0     C90742   5.029   8.487   4.856  1.1656  0.1510  0.8626
  673MOL0     C90743   5.015   8.412   4.726  0.5438 -0.1164  0.8851
  673MOL0     O90744   4.997   8.498   4.612  0.4439 -0.0119 -0.0257
  673MOL0     C90745   4.878   8.491   4.531 -0.9596 -0.0716 -0.2446
  673MOL0     C90746   4.890   8.552   4.407  0.4355 -0.0452  0.4517
  673MOL0     C90747   4.774   8.570   4.336 -0.5168 -0.1287  0.2000
  673MOL0     C90748   4.645   8.536   4.381 -0.3511 -0.0774  0.1883
  673MOL0     C90749   4.528   8.561   4.288 -0.0086 -1.1083  0.0593
  673MOL0     O90750   4.552   8.649   4.185 -0.3347 -0.0856 -0.3405
  673MOL0     C90751   4.449   8.715   4.126 -0.3076 -0.5613  0.2178
  673MOL0     C90752   4.336   8.662   4.049  0.5770 -0.6283 -0.6105
  673MOL0     C90753   4.229   8.740   4.009 -0.2711  0.2289  0.9089
  673MOL0     C90754   4.231   8.879   4.026  0.0604  0.2441  0.3942
  673MOL0     O90755   4.125   8.930   3.955  0.2785  0.1475 -0.3563
  673MOL0     C90756   4.054   9.043   4.021 -0.2225  0.1540 -0.2703
  673MOL0     C90757   4.074   9.167   3.939  0.3707 -0.5609 -0.2122
  673MOL0     C90758   3.971   9.164   3.824 -0.2598  0.2388 -0.0332
  673MOL0     C90759   3.986   9.281   3.721  0.0142 -0.2336 -0.3976
  673MOL0     C90760   3.868   9.291   3.618  0.7521  0.6135  0.2394
  673MOL0     C90761   3.872   9.214   3.493 -0.1497  1.3275  0.5413
  673MOL0     C90762   3.943   9.284   3.377 -0.1136 -0.0115  0.2432
  673MOL0     C90763   3.995   9.193   3.262  0.8065  0.4123  0.7931
  673MOL0    Cl90764   3.868   9.122   3.157  0.2794  0.3066  0.1286
  673MOL0     C90765   4.341   8.933   4.083  0.6669  0.6342 -0.2454
  673MOL0     C90766   4.445   8.853   4.133 -0.8540 -0.0820 -0.3977
  673MOL0     O90767   4.415   8.525   4.326 -0.2849 -0.4278 -0.6015
  673MOL0     C90768   4.638   8.468   4.508  0.7098 -0.6630  0.0357
  673MOL0     C90769   4.755   8.439   4.577  0.0398 -0.4780  0.2431
  673MOL0     N90770   4.650   8.674   4.853  0.5744 -0.8830  0.3422
  673MOL0     N90771   4.532   8.709   4.858 -0.0699 -0.3350 -0.0683
  673MOL0     C90772   3.293   8.864   4.723  0.0326  0.0068  0.1274
  673MOL0     C90773   3.190   8.913   4.801 -0.1815  0.8402  0.3028
  673MOL0     C90774   2.814   8.981   5.049  1.2143  0.0315 -0.6962
  673MOL0     C90775   2.749   8.859   5.065 -0.2111 -0.1885 -0.0234
  673MOL0     C90776   2.632   8.853   5.144 -0.7440  1.3735  0.7690
  673MOL0     C90777   2.587   8.967   5.208 -0.4121 -0.3031  0.6085
  673MOL0     O90778   2.480   8.961   5.287  0.4678  0.0795 -0.0544
  673MOL0     C90779   2.505   8.960   5.424  0.2260 -0.0759  0.0868
  673MOL0     C90780   2.375   8.940   5.501 -0.2550 -0.2987  0.4226
  673MOL0     C90781   2.284   9.065   5.467 -0.1287 -0.0323 -0.9516
  673MOL0     C90782   2.158   9.074   5.562  0.6215 -0.2618  0.0089
  673MOL0     C90783   2.034   9.031   5.503 -0.5205 -0.7456  2.1057
  673MOL0     C90784   1.931   8.975   5.459  0.6642  0.2010 -0.5774
  673MOL0     C90785   2.654   9.088   5.197  0.0487  0.0477 -0.5991
  673MOL0     C90786   2.766   9.094   5.126 -0.0341 -0.3933 -0.4768
  673MOL0     C90787   2.834   9.234   5.136 -0.4781 -1.0997 -0.5670
  673MOL0     H90788   3.068   8.616   4.898 -1.4814  1.4164  0.2324
  673MOL0     H90789   3.245   8.531   4.760 -0.5691 -0.8683  1.0049
  673MOL0     H90790   3.588   8.685   4.503  1.3484  0.7847  0.1071
  673MOL0     H90791   3.523   8.841   4.565 -0.7428  0.8102  2.2940
  673MOL0     H90792   3.642   8.838   4.765 -1.2741  0.8230 -0.8627
  673MOL0     H90793   3.752   8.794   4.620 -1.3920 -0.1623 -2.4254
  673MOL0     H90794   3.749   8.567   4.675 -1.3897  2.1305 -1.7125
  673MOL0     H90795   3.630   8.596   4.811 -0.0969  1.8371  0.9254
  673MOL0     H90796   3.793   8.706   4.936 -2.5868 -1.8452  1.0941
  673MOL0     H90797   3.825   8.536   4.921 -0.9246  0.7734  1.0086
  673MOL0     H90798   4.000   8.597   4.721 -1.0651  0.7454 -0.7638
  673MOL0     H90799   3.972   8.762   4.774 -1.4910  0.8574  0.7103
  673MOL0     H90800   4.085   8.720   4.994 -2.9320 -0.7898  0.9195
  673MOL0     H90801   4.067   8.548   4.976  0.9600 -0.4622 -0.2429
  673MOL0     H90802   4.239   8.720   4.791  2.8166 -1.3276 -3.0786
  673MOL0     H90803   4.241   8.547   4.796  0.2236  0.9982 -0.2513
  673MOL0     H90804   4.297   8.737   5.027  1.0137  0.5055 -0.6923
  673MOL0     H90805   4.306   8.561   5.054  2.8924  1.3798  3.4836
  673MOL0     H90806   4.513   8.428   5.019  1.6105 -1.0374  1.2742
  673MOL0     H90807   4.804   8.483   5.054  1.3610 -1.1068 -1.4415
  673MOL0     H90808   4.778   8.390   4.910 -4.0146  0.1685 -0.2188
  673MOL0     H90809   4.879   8.634   4.812 -1.7699 -2.7752 -1.6449
  673MOL0     H90810   4.954   8.618   4.982 -0.4298  2.4539 -0.5589
  673MOL0     H90811   5.077   8.427   4.934 -1.2778 -4.7735 -0.9810
  673MOL0     H90812   5.099   8.567   4.829 -2.1458  2.8900 -0.2799
  673MOL0     H90813   4.934   8.338   4.730 -0.4618  0.9932  1.9025
  673MOL0     H90814   5.110   8.363   4.702  0.9990  1.1550 -0.0603
  673MOL0     H90815   4.984   8.579   4.360 -0.3771 -3.7026 -3.9175
  673MOL0     H90816   4.781   8.625   4.242  0.1939 -1.5506 -0.6119
  673MOL0     H90817   4.327   8.556   4.028  2.5040 -0.5648 -2.0659
  673MOL0     H90818   4.148   8.697   3.952  0.3308  1.6130 -1.1164
  673MOL0     H90819   3.949   9.013   4.035 -0.1148  0.0987  0.4258
  673MOL0     H90820   4.108   9.053   4.115 -1.8100 -1.0216  0.8125
  673MOL0     H90821   4.056   9.254   4.003  2.0262 -0.2710 -0.0934
  673MOL0     H90822   4.180   9.166   3.912  0.3861 -0.2082 -0.1719
  673MOL0     H90823   3.965   9.064   3.781 -2.0673 -0.2905  1.3012
  673MOL0     H90824   3.877   9.171   3.880  0.2867  0.0393  0.9309
  673MOL0     H90825   4.084   9.271   3.673 -0.4321 -2.5797 -0.9534
  673MOL0     H90826   3.985   9.371   3.782 -3.8109 -1.1415  1.1831
  673MOL0     H90827   3.853   9.390   3.574 -0.2683 -0.1222 -1.1658
  673MOL0     H90828   3.781   9.264   3.680  1.1618  0.1233  0.6153
  673MOL0     H90829   3.920   9.116   3.506 -2.7217  0.0857  1.2597
  673MOL0     H90830   3.769   9.186   3.469  0.2054 -1.5541  1.9914
  673MOL0     H90831   4.027   9.343   3.414 -1.3424  1.7709  0.2922
  673MOL0     H90832   3.870   9.353   3.335  0.5060  0.0549 -0.7522
  673MOL0     H90833   4.059   9.253   3.197  1.2364 -1.2993 -0.4320
  673MOL0     H90834   4.070   9.119   3.292 -1.3967 -2.0062  0.6862
  673MOL0     H90835   4.360   9.038   4.101  0.0065  0.7866 -0.4403
  673MOL0     H90836   4.524   8.906   4.185  2.0850 -5.0483  0.8883
  673MOL0     H90837   4.540   8.445   4.549  0.3468 -1.1949 -1.0912
  673MOL0     H90838   4.745   8.395   4.676  2.8085  0.9437  1.2568
  673MOL0     H90839   3.374   8.924   4.685 -0.9724  2.4993  1.6787
  673MOL0     H90840   3.164   9.018   4.792  0.4352  0.8039 -3.5692
  673MOL0     H90841   2.770   8.759   5.029 -0.6326 -0.9976  1.8846
  673MOL0     H90842   2.575   8.761   5.157  0.2316  0.8873  1.6823
  673MOL0     H90843   2.537   9.056   5.466 -0.6556  0.1217  0.3115
  673MOL0     H90844   2.570   8.880   5.458  0.4658 -0.0889 -0.3881
  673MOL0     H90845   2.395   8.932   5.609 -0.1275 -0.0240  0.4214
  673MOL0     H90846   2.327   8.848   5.468 -0.8045  0.0096  0.3447
  673MOL0     H90847   2.250   9.052   5.364 -0.9608 -0.3411 -0.6376
  673MOL0     H90848   2.335   9.159   5.491 -1.6167  0.4548  0.5009
  673MOL0     H90849   2.173   9.023   5.658 -2.5775 -0.5623  0.4691
  673MOL0     H90850   2.127   9.177   5.580 -0.3931  0.0738 -3.1550
  673MOL0     H90851   1.845   8.924   5.421  1.4370 -1.8101  0.2732
  673MOL0     H90852   2.639   9.174   5.261  0.6390  0.4820 -1.0410
  673MOL0     H90853   2.826   9.272   5.238 -0.7075 -3.5877  0.4144
  673MOL0     H90854   2.939   9.224   5.107 -0.0854 -1.9067  1.0073
  673MOL0     H90855   2.781   9.305   5.073  2.6050  0.8365 -1.1848
  674MOL0     O90856   1.559   9.520   7.372  0.1530  0.1276  0.2649
  674MOL0     C90857   1.619   9.520   7.264  0.0357 -0.6611  0.2635
  674MOL0     O90858   1.586   9.605   7.164 -0.4404 -0.2066  0.0294
  674MOL0     C90859   1.466   9.677   7.172  0.2831  0.1368 -0.2011
  674MOL0     C90860   1.338   9.627   7.212 -0.9049 -0.3166  0.6138
  674MOL0     C90861   1.223   9.707   7.195 -0.4047 -0.4897  0.5140
  674MOL0     C90862   1.242   9.838   7.147  0.0976 -0.4825 -0.4924
  674MOL0     O90863   1.147   9.931   7.150  0.2761 -0.3227  1.1196
  674MOL0     C90864   1.092   9.970   7.276 -0.4637 -0.9138  0.2142
  674MOL0     C90865   0.995  10.083   7.258 -0.6675 -1.3382 -0.6356
  674MOL0     C90866   0.963  10.138   7.403  0.1218 -0.3432  0.2981
  674MOL0     C90867   0.888  10.271   7.395 -0.5252  0.9124 -0.0317
  674MOL0     C90868   0.877  10.350   7.528 -0.0883 -0.2439 -1.1737
  674MOL0     C90869   0.781  10.471   7.513 -0.4006 -0.0404 -0.2964
  674MOL0     C90870   0.761  10.561   7.636  0.2342 -0.2299 -0.0308
  674MOL0     C90871   0.648  10.664   7.610  0.5375 -0.4787 -0.0581
  674MOL0     N90872   0.519  10.616   7.651  0.4200 -0.5660 -0.6111
  674MOL0     C90873   0.434  10.664   7.747 -0.6619  0.0080  0.3901
  674MOL0     C90874   0.321  10.587   7.740 -0.1040 -0.5517  0.3844
  674MOL0     C90875   0.191  10.601   7.810  0.2550 -0.7543 -0.6777
  674MOL0     C90876   0.204  10.547   7.953  0.4359  0.2166 -0.5607
  674MOL0     C90877   0.181  10.400   7.953  0.9080  0.5785 -0.1927
  674MOL0     C90878   0.242  10.340   8.078 -0.8390 -0.7870  0.3997
  674MOL0     O90879   0.389  10.365   8.083 -0.2729  0.1799 -0.2218
  674MOL0     C90880   0.457  10.292   8.000  1.1134  0.8693  1.0640
  674MOL0     C90881   0.514  10.336   7.882 -0.1410 -0.3187 -0.4802
  674MOL0     C90882   0.573  10.241   7.798 -0.9930 -0.1209  0.5555
  674MOL0     C90883   0.599  10.106   7.831 -0.3120 -0.7316 -0.5822
  674MOL0     C90884   0.674  10.009   7.742 -0.3882 -0.0473 -0.0497
  674MOL0     O90885   0.711   9.891   7.790  0.4094  0.2543 -1.4232
  674MOL0     C90886   0.772   9.805   7.702 -0.5600 -0.3604  0.6449
  674MOL0     C90887   0.896   9.830   7.632 -0.0400 -0.6697  0.3346
  674MOL0     C90888   0.955   9.730   7.544  0.1069  0.6700 -0.9052
  674MOL0     C90889   0.883   9.602   7.529 -0.0778  0.2160 -0.4000
  674MOL0     O90890   0.934   9.511   7.435 -0.1319  0.1317  0.4352
  674MOL0     C90891   1.032   9.430   7.503  0.9909  0.2399  1.1131
  674MOL0     C90892   1.050   9.299   7.421  1.0408  0.1261 -0.2000
  674MOL0     C90893   1.158   9.215   7.486 -1.0503 -0.6358 -0.6127
  674MOL0     C90894   1.301   9.273   7.504  0.8689 -0.2842 -0.2108
  674MOL0     C90895   1.393   9.169   7.584  0.3644 -0.0788  0.1120
  674MOL0     C90896   1.535   9.242   7.604  0.0986  1.2443 -0.4260
  674MOL0     C90897   1.621   9.155   7.714  0.1961 -0.6630 -0.3321
  674MOL0     C90898   1.754   9.225   7.735 -1.5131  0.0797  0.7602
  674MOL0    Cl90899   1.866   9.113   7.821  0.4484 -0.3903 -0.2918
  674MOL0     C90900   0.754   9.582   7.592 -0.3854 -0.3085 -0.9480
  674MOL0     C90901   0.705   9.687   7.681 -0.1679 -0.0539 -0.0368
  674MOL0     O90902   0.705  10.054   7.634  0.0982 -0.2326  0.0233
  674MOL0     C90903   0.551  10.076   7.955 -0.3583  0.7117 -0.6023
  674MOL0     C90904   0.480  10.161   8.033 -0.8101 -0.2120  0.9354
  674MOL0     N90905   0.340  10.501   7.639  0.3644  0.0875 -0.1085
  674MOL0     N90906   0.457  10.517   7.587  0.7935  0.5766 -0.2015
  674MOL0     C90907   1.370   9.892   7.127  0.6475  0.0318  0.9072
  674MOL0     C90908   1.479   9.812   7.139 -0.1639  0.2208 -0.0239
  674MOL0     C90909   1.738   9.433   7.262 -0.5462  0.4328  0.0902
  674MOL0     C90910   1.802   9.393   7.383  1.0494 -0.4204 -0.1945
  674MOL0     C90911   1.918   9.310   7.376 -0.9010  0.7791  0.4190
  674MOL0     C90912   1.972   9.273   7.255  0.2004  0.5749  0.5273
  674MOL0     O90913   2.090   9.210   7.262  1.0405 -0.2303  0.5382
  674MOL0     C90914   2.180   9.225   7.148 -0.8645  1.0977  0.5290
  674MOL0     C90915   2.164   9.106   7.046 -0.5197 -0.4327 -0.8445
  674MOL0     C90916   2.225   9.153   6.918  0.9907 -0.3880  0.0287
  674MOL0     C90917   2.203   9.064   6.800 -0.1798  0.6551 -0.1650
  674MOL0     C90918   2.261   8.926   6.824  0.2633 -1.1251  0.4058
  674MOL0     C90919   2.287   8.811   6.847  0.3429  0.2026 -0.1436
  674MOL0     C90920   1.920   9.320   7.135 -0.2052  0.1899  0.0866
  674MOL0     C90921   1.807   9.400   7.145  0.2803 -0.4864 -0.0972
  674MOL0     C90922   1.756   9.435   7.005  1.1182  0.8830  0.4317
  674MOL0     H90923   1.336   9.522   7.236  1.3238 -1.0216 -1.8118
  674MOL0     H90924   1.124   9.677   7.228 -1.0670 -0.0719 -1.0124
  674MOL0     H90925   1.042   9.889   7.330 -2.6704 -0.6841 -1.3416
  674MOL0     H90926   1.182  10.000   7.330  0.0014 -0.6035 -0.7125
  674MOL0     H90927   0.903  10.039   7.220 -2.3641 -2.1905  3.8700
  674MOL0     H90928   1.036  10.166   7.199 -0.3548 -0.3741  0.8652
  674MOL0     H90929   1.053  10.150   7.463 -0.6255 -1.9663  1.8408
  674MOL0     H90930   0.896  10.065   7.450 -3.8888  2.1101 -1.0769
  674MOL0     H90931   0.938  10.337   7.324  2.2108 -2.1855 -1.2210
  674MOL0     H90932   0.783  10.246   7.373 -0.2034  0.6474 -1.3460
  674MOL0     H90933   0.836  10.286   7.607 -0.5878 -1.8437 -2.6791
  674MOL0     H90934   0.976  10.375   7.567 -0.5624  1.6539 -1.0755
  674MOL0     H90935   0.825  10.534   7.434  2.9827 -1.4439  0.2736
  674MOL0     H90936   0.682  10.434   7.485  0.1356 -1.9500  0.2018
  674MOL0     H90937   0.858  10.608   7.654  0.3914 -0.2488 -0.7800
  674MOL0     H90938   0.723  10.503   7.720 -1.0380  0.9473  0.2390
  674MOL0     H90939   0.678  10.760   7.653 -2.4864  0.7540 -0.4791
  674MOL0     H90940   0.629  10.694   7.507 -1.1006 -1.2871 -0.0196
  674MOL0     H90941   0.453  10.754   7.805 -0.9885 -0.2350  0.8781
  674MOL0     H90942   0.167  10.708   7.807  1.8402 -0.3341  0.4031
  674MOL0     H90943   0.111  10.548   7.758 -1.1883 -0.3157  0.9770
  674MOL0     H90944   0.308  10.562   7.982  0.4596 -0.7331 -0.0971
  674MOL0     H90945   0.128  10.593   8.016 -1.5505 -2.5905 -0.6974
  674MOL0     H90946   0.216  10.353   7.860  0.8383 -0.3319  0.2291
  674MOL0     H90947   0.072  10.388   7.947  0.8870  1.0491 -0.9212
  674MOL0     H90948   0.230  10.232   8.086  0.9013 -0.8759  2.7656
  674MOL0     H90949   0.192  10.397   8.157 -1.6303  0.7288 -1.1118
  674MOL0     H90950   0.507  10.441   7.855 -1.6946  0.5350  2.7319
  674MOL0     H90951   0.623  10.282   7.710  2.3506 -2.7270  1.0449
  674MOL0     H90952   0.942   9.926   7.653  1.1553 -0.0306 -4.2062
  674MOL0     H90953   1.052   9.745   7.498  0.6435  0.5871  0.1613
  674MOL0     H90954   1.126   9.484   7.516  0.8760  1.3469 -1.8347
  674MOL0     H90955   0.989   9.394   7.597 -2.2790 -0.5532 -0.5207
  674MOL0     H90956   0.961   9.235   7.425 -1.0851  2.8286 -1.2836
  674MOL0     H90957   1.079   9.312   7.317  0.3404  1.8701 -0.2155
  674MOL0     H90958   1.129   9.191   7.589  1.1834  2.0643  0.8029
  674MOL0     H90959   1.178   9.126   7.426 -2.3024 -1.7831  0.5907
  674MOL0     H90960   1.298   9.378   7.535 -0.2531 -0.2005 -0.5479
  674MOL0     H90961   1.342   9.287   7.403  0.4853 -0.2154 -0.3610
  674MOL0     H90962   1.415   9.081   7.522  0.2287  0.1431 -0.2559
  674MOL0     H90963   1.338   9.134   7.672 -0.8014  0.1727 -0.4991
  674MOL0     H90964   1.582   9.243   7.505  6.1917 -1.1523  1.9441
  674MOL0     H90965   1.518   9.342   7.646  0.2530  0.8581  0.5689
  674MOL0     H90966   1.644   9.059   7.666 -0.9872 -0.5688 -1.1394
  674MOL0     H90967   1.563   9.137   7.805 -1.8681  1.3496 -1.1539
  674MOL0     H90968   1.792   9.241   7.634 -0.5580 -0.1270  1.0823
  674MOL0     H90969   1.753   9.326   7.776  3.4687 -0.2298  2.2249
  674MOL0     H90970   0.691   9.496   7.575  0.5025 -1.0928 -0.3354
  674MOL0     H90971   0.605   9.672   7.720 -1.0791  1.0673 -1.8101
  674MOL0     H90972   0.565   9.972   7.982 -0.2785  1.4402  2.5743
  674MOL0     H90973   0.435  10.141   8.130 -0.6019 -1.7318  0.7326
  674MOL0     H90974   1.372   9.992   7.085 -0.5974  0.3049  1.4539
  674MOL0     H90975   1.569   9.863   7.104 -1.4083  2.2140 -0.4675
  674MOL0     H90976   1.750   9.414   7.476  2.5151  2.1759  0.1217
  674MOL0     H90977   1.967   9.285   7.469 -1.8142  3.3755  1.7121
  674MOL0     H90978   2.283   9.213   7.184 -0.7059  0.2504 -0.1579
  674MOL0     H90979   2.193   9.325   7.105 -0.3816  0.6059 -0.5106
  674MOL0     H90980   2.058   9.080   7.032 -1.0090  1.6900 -1.5425
  674MOL0     H90981   2.223   9.022   7.084  2.4973  2.6868  2.0536
  674MOL0     H90982   2.331   9.170   6.938  0.7061  2.2320 -0.2758
  674MOL0     H90983   2.172   9.248   6.908  0.0357 -0.9439 -0.3589
  674MOL0     H90984   2.097   9.059   6.772 -0.9887 -0.9893  2.7133
  674MOL0     H90985   2.259   9.110   6.719 -0.1301  1.1420  0.1415
  674MOL0     H90986   2.320   8.714   6.878  0.5635 -1.0332 -3.8728
  674MOL0     H90987   1.961   9.298   7.037 -2.6936 -0.6119 -0.8728
  674MOL0     H90988   1.773   9.537   6.971 -2.7020  0.4819 -3.6747
  674MOL0     H90989   1.813   9.382   6.928  1.6282  3.0648 -0.7604
  674MOL0     H90990   1.651   9.403   6.994  1.3728  0.5388 -1.2970
  675MOL0     O90991   8.524  11.311   6.429 -0.0453 -0.1500  0.6045
  675MOL0     C90992   8.571  11.203   6.463  0.0077  0.4661  0.3028
  675MOL0     O90993   8.697  11.163   6.461 -0.8606 -1.3146  0.0960
  675MOL0     C90994   8.799  11.261   6.448  0.0357  0.5092  0.8611
  675MOL0     C90995   8.791  11.392   6.501 -0.2791 -0.5673 -0.0447
  675MOL0     C90996   8.893  11.486   6.480 -0.4840 -0.3290 -0.9765
  675MOL0     C90997   9.011  11.453   6.407 -0.5389 -0.2514  0.4275
  675MOL0     O90998   9.122  11.537   6.399  0.1541 -0.0627  0.0356
  675MOL0     C90999   9.252  11.500   6.352  1.0647 -0.2730 -0.9030
  675MOL0     C91000   9.358  11.611   6.361  0.7832  0.3502  0.3410
  675MOL0     C91001   9.497  11.568   6.318  0.4807 -0.1757 -0.2607
  675MOL0     C91002   9.602  11.662   6.382  0.6804 -0.5760  0.2474
  675MOL0     C91003   9.737  11.655   6.290  0.2749  0.6673 -0.4809
  675MOL0     C91004   9.824  11.777   6.302 -0.3419 -0.3955 -0.0668
  675MOL0     C91005   9.970  11.760   6.242  0.6003  0.7508  0.6244
  675MOL0     C91006  10.013  11.862   6.138  0.1419  0.2484 -0.2839
  675MOL0     N91007  10.154  11.839   6.098  0.5864 -0.4493  0.6870
  675MOL0     C91008  10.187  11.828   5.963  0.3354 -0.0792 -0.2239
  675MOL0     C91009  10.320  11.810   5.957 -0.0090  0.7226  0.7915
  675MOL0     C91010  10.394  11.812   5.826  0.2543  0.4610  0.6367
  675MOL0     C91011  10.541  11.862   5.818 -0.2765 -1.0284 -0.3979
  675MOL0     C91012  10.641  11.777   5.899  0.5677 -0.1718 -0.1615
  675MOL0     C91013  10.777  11.815   5.862 -0.3399  0.9684  0.5956
  675MOL0     O91014  10.864  11.741   5.945  0.7223  0.3216  0.2071
  675MOL0     C91015  10.997  11.770   5.970 -0.7233  0.4118 -0.1932
  675MOL0     C91016  11.064  11.859   5.899 -0.2140  0.1233  0.1705
  675MOL0     C91017  11.191  11.898   5.932  0.7862  0.7949  1.3797
  675MOL0     C91018  11.257  11.834   6.038 -0.9324  0.9717  0.0130
  675MOL0     C91019  11.399  11.869   6.070 -0.6384  0.1799  0.0228
  675MOL0     O91020  11.453  11.799   6.173  0.6365  0.0493  0.1919
  675MOL0     C91021  11.570  11.844   6.236  0.1276 -0.3460  0.0647
  675MOL0     C91022  11.685  11.886   6.171  0.0735 -0.0168  0.1267
  675MOL0     C91023  11.788  11.946   6.237 -0.1578 -0.0446 -0.3546
  675MOL0     C91024  11.782  11.973   6.376  0.6605  0.3557  0.0188
  675MOL0     O91025  11.880  12.039   6.451  0.1591  0.2288 -0.9479
  675MOL0     C91026  11.987  12.103   6.383 -0.0883  0.3569  0.1408
  675MOL0     C91027  12.093  12.132   6.484  0.6975 -0.0198  0.3308
  675MOL0     C91028  12.232  12.172   6.426  0.7596  0.6425  0.5642
  675MOL0     C91029  12.337  12.183   6.539  0.1310  0.1658 -0.2775
  675MOL0     C91030  12.470  12.221   6.476 -0.0630 -0.3428 -0.5578
  675MOL0     C91031  12.557  12.287   6.584  0.0417 -0.0021  0.3607
  675MOL0     C91032  12.700  12.256   6.539 -0.1229 -0.5397  0.2159
  675MOL0     C91033  12.797  12.317   6.637 -0.6038 -0.1106 -1.2389
  675MOL0    Cl91034  12.799  12.230   6.794 -0.2795 -0.1402  0.7001
  675MOL0     C91035  11.667  11.927   6.440 -0.4993  0.4577  0.5416
  675MOL0     C91036  11.563  11.864   6.368 -1.1781  1.0771  0.3853
  675MOL0     O91037  11.452  11.964   6.009 -0.7749 -1.0965 -0.2321
  675MOL0     C91038  11.192  11.731   6.104 -0.0887  1.6080 -0.3431
  675MOL0     C91039  11.061  11.703   6.067  0.5487 -0.4042 -1.2450
  675MOL0     N91040  10.367  11.821   6.090  0.1840 -0.3643  0.7193
  675MOL0     N91041  10.267  11.822   6.171  0.5116 -0.6340  0.1585
  675MOL0     C91042   9.021  11.315   6.370  0.2654 -0.4607  0.6847
  675MOL0     C91043   8.913  11.226   6.387  0.2236 -0.4502  0.0180
  675MOL0     C91044   8.470  11.098   6.490  0.5944 -0.4941  0.2313
  675MOL0     C91045   8.488  10.963   6.438  0.4397  0.2684 -0.3237
  675MOL0     C91046   8.397  10.862   6.454  0.1393 -0.1583  1.1363
  675MOL0     C91047   8.275  10.894   6.516  0.0027  0.9455 -0.4645
  675MOL0     O91048   8.180  10.794   6.525 -0.2263 -0.7290  0.0818
  675MOL0     C91049   8.061  10.817   6.600 -0.5380  0.0804 -0.9393
  675MOL0     C91050   7.965  10.899   6.509 -0.3331  0.4800  0.2943
  675MOL0     C91051   7.894  10.818   6.407 -0.5489  0.6792 -0.0194
  675MOL0     C91052   7.769  10.888   6.360 -0.3853  0.5095 -0.0185
  675MOL0     C91053   7.698  10.816   6.256  0.2175  0.9638  0.3477
  675MOL0     C91054   7.652  10.748   6.159  0.1926  0.4884 -0.1079
  675MOL0     C91055   8.265  11.018   6.584 -0.8309 -0.7049  1.0200
  675MOL0     C91056   8.357  11.125   6.577  0.1123 -0.0208  0.3728
  675MOL0     C91057   8.329  11.256   6.651  0.5323  0.4665 -0.3305
  675MOL0     H91058   8.708  11.405   6.570 -0.9755 -0.0271 -0.9561
  675MOL0     H91059   8.887  11.584   6.525  2.2116 -0.5459  0.0254
  675MOL0     H91060   9.275  11.412   6.414 -0.4136  2.0962  3.4094
  675MOL0     H91061   9.237  11.467   6.249 -0.0375 -0.9108 -0.5543
  675MOL0     H91062   9.357  11.652   6.462  2.1312  0.4120  0.3563
  675MOL0     H91063   9.331  11.687   6.287  1.2924 -0.5682 -0.8233
  675MOL0     H91064   9.502  11.580   6.210  3.4431 -4.9288 -0.9187
  675MOL0     H91065   9.527  11.464   6.330 -0.1764 -0.4611 -1.0373
  675MOL0     H91066   9.564  11.764   6.389  1.5351 -0.1635 -0.9242
  675MOL0     H91067   9.626  11.645   6.488  0.4498  0.9665  0.5759
  675MOL0     H91068   9.792  11.566   6.324 -2.7974 -0.4771  2.0536
  675MOL0     H91069   9.709  11.641   6.186 -0.3415 -0.1137 -0.2251
  675MOL0     H91070   9.769  11.851   6.243 -3.8678 -1.4426  1.6566
  675MOL0     H91071   9.843  11.821   6.400 -1.5234 -2.3814  1.1001
  675MOL0     H91072   9.979  11.661   6.197  0.0781 -0.0317  2.1812
  675MOL0     H91073  10.038  11.762   6.328  0.8801 -0.3378  0.4431
  675MOL0     H91074   9.957  11.855   6.045  1.1852 -0.9758 -0.8337
  675MOL0     H91075   9.986  11.965   6.166 -1.2378 -0.3802  0.8289
  675MOL0     H91076  10.118  11.845   5.881 -1.2036 -0.3873  0.9601
  675MOL0     H91077  10.375  11.721   5.767 -2.6202  0.7688  0.9421
  675MOL0     H91078  10.336  11.885   5.769 -0.2172 -1.2566 -1.1889
  675MOL0     H91079  10.565  11.861   5.711 -1.6489 -0.4717 -0.7354
  675MOL0     H91080  10.540  11.965   5.854  2.1262 -0.9510 -0.4032
  675MOL0     H91081  10.619  11.676   5.863  0.0519  0.7177 -2.5129
  675MOL0     H91082  10.617  11.784   6.006  4.5527 -0.2932  0.8792
  675MOL0     H91083  10.783  11.924   5.873 -0.7751  0.8703  2.1316
  675MOL0     H91084  10.793  11.781   5.760 -3.4417 -0.0507  0.3466
  675MOL0     H91085  11.001  11.908   5.825 -3.9268 -0.7838  2.5068
  675MOL0     H91086  11.234  11.980   5.877 -2.8935  1.4813 -0.8269
  675MOL0     H91087  11.685  11.886   6.062 -0.8614 -0.0596  0.1224
  675MOL0     H91088  11.877  11.978   6.184  1.8933 -0.5040  2.5480
  675MOL0     H91089  12.017  12.041   6.299 -2.8685 -1.1381  0.1403
  675MOL0     H91090  11.952  12.198   6.342  4.6459  1.8945 -1.0235
  675MOL0     H91091  12.053  12.211   6.548 -0.7389  0.4635 -1.1124
  675MOL0     H91092  12.102  12.041   6.545 -0.5457 -1.0931 -1.0059
  675MOL0     H91093  12.260  12.082   6.371  0.7986 -0.4043  2.2290
  675MOL0     H91094  12.227  12.249   6.348  0.3571 -2.1822 -2.3902
  675MOL0     H91095  12.342  12.087   6.591 -1.9958  0.6280  0.9198
  675MOL0     H91096  12.309  12.267   6.604 -1.2388 -0.5349  0.0837
  675MOL0     H91097  12.472  12.287   6.388  4.7734  0.6964  0.0494
  675MOL0     H91098  12.506  12.125   6.437  2.7111  0.6673 -0.6682
  675MOL0     H91099  12.539  12.395   6.590 -3.1059 -0.3250 -1.2885
  675MOL0     H91100  12.541  12.236   6.680 -0.1373 -0.1108  0.2736
  675MOL0     H91101  12.732  12.301   6.444  1.7684 -1.1589  0.5327
  675MOL0     H91102  12.702  12.147   6.531 -0.3878 -0.4213 -3.5872
  675MOL0     H91103  12.900  12.315   6.601 -0.5324  1.1610 -1.1547
  675MOL0     H91104  12.773  12.424   6.644 -1.1110 -0.2653 -0.4844
  675MOL0     H91105  11.654  11.941   6.546  2.6155 -1.0915  1.2485
  675MOL0     H91106  11.468  11.836   6.412 -0.2644  1.1312  2.5114
  675MOL0     H91107  11.243  11.664   6.172 -0.8490 -0.2532 -1.5238
  675MOL0     H91108  11.005  11.628   6.122 -1.4360 -2.0962 -5.1562
  675MOL0     H91109   9.105  11.284   6.309  1.1824  1.0655  1.1263
  675MOL0     H91110   8.945  11.129   6.351 -2.2536 -2.3305  2.4328
  675MOL0     H91111   8.580  10.938   6.386  1.0025 -0.0558  0.8027
  675MOL0     H91112   8.428  10.762   6.422 -0.8530 -0.8308  2.2110
  675MOL0     H91113   8.067  10.872   6.695  0.6079 -1.4375 -0.0884
  675MOL0     H91114   8.012  10.723   6.627  0.1877 -0.3349 -1.0702
  675MOL0     H91115   8.006  10.984   6.454 -1.0448 -0.6343 -2.0607
  675MOL0     H91116   7.895  10.944   6.580  0.3017  0.4924  0.9233
  675MOL0     H91117   7.867  10.723   6.453  0.3510 -0.2689 -1.3663
  675MOL0     H91118   7.967  10.807   6.325  1.5348  1.5782  1.6221
  675MOL0     H91119   7.696  10.901   6.440 -1.7271  0.5068 -1.1987
  675MOL0     H91120   7.798  10.988   6.328 -2.1642  1.9650  2.5509
  675MOL0     H91121   7.616  10.695   6.073  0.4619  0.0626  0.0371
  675MOL0     H91122   8.181  11.039   6.648  0.0790  0.6833  1.8111
  675MOL0     H91123   8.250  11.243   6.725  0.7055 -1.9371 -0.4981
  675MOL0     H91124   8.417  11.288   6.707  0.4995  2.3098 -1.2500
  675MOL0     H91125   8.299  11.331   6.578  1.5202  2.1631  0.9252
  676MOL0     O91126   5.346   3.530   6.323 -0.3912  0.2409 -0.1020
  676MOL0     C91127   5.400   3.622   6.262  0.2788 -0.2202  0.2950
  676MOL0     O91128   5.507   3.608   6.179  0.3921 -0.4152  0.2042
  676MOL0     C91129   5.547   3.489   6.120  0.3189 -0.7540  0.0852
  676MOL0     C91130   5.467   3.376   6.106  0.0569 -0.1850  0.6332
  676MOL0     C91131   5.523   3.259   6.049  0.2542  0.2833  0.4926
  676MOL0     C91132   5.651   3.274   5.991 -0.2468  0.1722 -0.6900
  676MOL0     O91133   5.708   3.173   5.924 -0.1115  0.6956  0.3169
  676MOL0     C91134   5.652   3.041   5.898 -0.0333  0.2544  0.3553
  676MOL0     C91135   5.653   2.944   6.025 -1.1009 -0.1487 -0.0404
  676MOL0     C91136   5.782   2.947   6.109  0.5884 -0.1412  1.0863
  676MOL0     C91137   5.778   2.828   6.207  0.2201  0.2853 -0.8555
  676MOL0     C91138   5.907   2.838   6.285  0.0927  1.3624 -0.2017
  676MOL0     C91139   5.927   2.719   6.386 -0.6130 -0.2726  0.3320
  676MOL0     C91140   6.065   2.715   6.449 -0.5861 -0.0667  0.4826
  676MOL0     C91141   6.077   2.635   6.577  0.5661 -0.0699  0.1828
  676MOL0     N91142   6.211   2.601   6.620 -0.5242  0.5859 -0.5740
  676MOL0     C91143   6.290   2.501   6.569 -0.1190  1.2551 -0.2772
  676MOL0     C91144   6.401   2.495   6.646 -0.3457 -0.7563  1.2749
  676MOL0     C91145   6.525   2.417   6.625  0.3634 -0.1456  0.1702
  676MOL0     C91146   6.499   2.305   6.521 -0.3684  0.1749 -0.1722
  676MOL0     C91147   6.629   2.228   6.482 -0.1281 -0.6169 -0.0397
  676MOL0     C91148   6.681   2.159   6.611  1.0376 -0.4596  0.1992
  676MOL0     O91149   6.785   2.071   6.572  0.1290  0.6367 -0.2234
  676MOL0     C91150   6.906   2.122   6.567 -1.4549  0.0778  0.0840
  676MOL0     C91151   6.950   2.253   6.598  0.2270 -0.1117  0.0464
  676MOL0     C91152   7.084   2.292   6.590  0.2156 -0.0779  0.7562
  676MOL0     C91153   7.180   2.195   6.557 -0.1980  0.2761  0.3973
  676MOL0     C91154   7.330   2.230   6.559  0.5410  0.3759  0.6889
  676MOL0     O91155   7.418   2.118   6.557  1.4144 -0.0228  0.0597
  676MOL0     C91156   7.543   2.141   6.514  0.0320 -0.6014  0.0450
  676MOL0     C91157   7.635   2.242   6.553 -0.0617  0.4065  0.2181
  676MOL0     C91158   7.763   2.243   6.502  0.2097  0.0389 -0.7638
  676MOL0     C91159   7.805   2.150   6.417  0.0807 -0.7406 -1.0461
  676MOL0     O91160   7.948   2.151   6.399  0.2217  0.0087  0.7933
  676MOL0     C91161   8.008   2.021   6.385 -0.3733  0.0111  0.3136
  676MOL0     C91162   8.158   2.014   6.394  0.9628 -0.1213  0.1511
  676MOL0     C91163   8.208   1.892   6.312  0.5782  0.2828  0.7145
  676MOL0     C91164   8.344   1.843   6.360  0.3801  0.4698  1.0287
  676MOL0     C91165   8.405   1.734   6.264 -0.3266 -0.3516  0.2234
  676MOL0     C91166   8.471   1.795   6.137 -0.0641  0.5485  0.8302
  676MOL0     C91167   8.501   1.694   6.036  0.9350  0.9529  0.2132
  676MOL0     C91168   8.580   1.580   6.087 -0.1490 -0.6080 -0.3733
  676MOL0    Cl91169   8.719   1.627   6.181  0.1611  0.2783  0.1577
  676MOL0     C91170   7.713   2.057   6.368  0.4364  0.3496 -0.2120
  676MOL0     C91171   7.573   2.053   6.415 -0.5775 -0.7057 -0.3382
  676MOL0     O91172   7.366   2.340   6.585 -0.7912 -0.8360 -0.5394
  676MOL0     C91173   7.138   2.063   6.527  0.2770  1.2407  0.0338
  676MOL0     C91174   7.005   2.029   6.536 -1.2640  0.0538  0.0129
  676MOL0     N91175   6.388   2.594   6.742  0.3101  0.0843  0.1820
  676MOL0     N91176   6.273   2.654   6.724 -0.0849 -0.3851 -0.6166
  676MOL0     C91177   5.740   3.376   6.020  0.7543 -0.4540  0.1808
  676MOL0     C91178   5.684   3.492   6.079 -0.6700 -0.1714 -0.4425
  676MOL0     C91179   5.355   3.772   6.264  0.1144  0.8299  0.0715
  676MOL0     C91180   5.407   3.855   6.166 -0.2790  0.1605  0.8499
  676MOL0     C91181   5.371   3.987   6.150 -0.6193 -0.5345 -0.0821
  676MOL0     C91182   5.272   4.041   6.243 -0.3884 -0.3064  0.6875
  676MOL0     O91183   5.231   4.171   6.222  0.6580  0.3505 -0.4819
  676MOL0     C91184   5.139   4.240   6.314  0.2748 -0.2074 -0.4206
  676MOL0     C91185   5.166   4.388   6.304  0.5590  0.1845  0.3043
  676MOL0     C91186   5.092   4.477   6.406  0.0691 -0.4123  0.0853
  676MOL0     C91187   5.079   4.619   6.341 -0.5021  0.0565  0.5111
  676MOL0     C91188   5.022   4.701   6.445 -0.2021  0.2154 -0.5182
  676MOL0     C91189   4.970   4.751   6.536 -0.2475 -1.4068  0.2021
  676MOL0     C91190   5.219   3.953   6.331  0.2590  0.3864 -0.7809
  676MOL0     C91191   5.260   3.823   6.351  0.6144  0.7959  0.2787
  676MOL0     C91192   5.196   3.744   6.465 -0.3382 -0.2806  0.8346
  676MOL0     H91193   5.363   3.380   6.138  0.3211  2.1580  1.3845
  676MOL0     H91194   5.467   3.168   6.065  0.5791  0.0654  0.4144
  676MOL0     H91195   5.549   3.062   5.868 -1.2971 -1.9361  2.7355
  676MOL0     H91196   5.707   2.999   5.814 -0.4343  0.6881 -0.1274
  676MOL0     H91197   5.627   2.842   5.994 -2.6120 -0.3797  1.7855
  676MOL0     H91198   5.569   2.981   6.084 -3.2572 -0.4027 -2.7399
  676MOL0     H91199   5.767   3.038   6.168 -3.1856 -0.2569  0.5729
  676MOL0     H91200   5.873   2.954   6.049 -1.0598  1.6715 -1.3800
  676MOL0     H91201   5.688   2.853   6.264  0.4543  2.7374 -1.4711
  676MOL0     H91202   5.761   2.732   6.156 -0.5731 -0.4982  0.7994
  676MOL0     H91203   5.985   2.832   6.209  0.4307 -3.8988  0.1975
  676MOL0     H91204   5.913   2.925   6.351 -1.1251 -0.6419  2.8007
  676MOL0     H91205   5.861   2.743   6.469 -2.0794 -0.9871 -0.5922
  676MOL0     H91206   5.909   2.622   6.338  1.2866 -0.8387  0.6683
  676MOL0     H91207   6.086   2.817   6.481 -2.4560  0.3518  0.4918
  676MOL0     H91208   6.134   2.677   6.372 -0.3509 -0.5508  0.9275
  676MOL0     H91209   6.007   2.680   6.648 -6.1865 -1.6204 -4.5205
  676MOL0     H91210   6.029   2.540   6.551 -0.3521  0.1290  1.0902
  676MOL0     H91211   6.264   2.445   6.479  1.4072  3.0434 -1.9114
  676MOL0     H91212   6.610   2.472   6.584  0.5153 -2.0712 -2.3462
  676MOL0     H91213   6.550   2.384   6.726  4.4445 -1.7445 -1.1361
  676MOL0     H91214   6.423   2.227   6.534 -1.0374  0.8143 -0.2133
  676MOL0     H91215   6.453   2.351   6.434 -2.8101 -3.2314 -0.8686
  676MOL0     H91216   6.692   2.311   6.448 -0.9522 -0.3394 -0.9354
  676MOL0     H91217   6.603   2.160   6.401 -1.9725 -0.1578  0.1299
  676MOL0     H91218   6.595   2.112   6.660  1.5546 -0.3596  1.2358
  676MOL0     H91219   6.717   2.226   6.690  1.6565 -1.3248  0.6790
  676MOL0     H91220   6.885   2.334   6.631  4.5079  2.2675  3.7058
  676MOL0     H91221   7.117   2.394   6.605  0.5191 -0.4828  3.0896
  676MOL0     H91222   7.602   2.301   6.638 -1.0618 -2.1893  1.7548
  676MOL0     H91223   7.827   2.323   6.539  0.3704  0.3663 -1.7303
  676MOL0     H91224   7.962   1.943   6.446 -0.1316  1.4601  2.4445
  676MOL0     H91225   7.990   1.985   6.283  2.7350  0.7368 -0.5980
  676MOL0     H91226   8.191   2.106   6.344 -0.3212  1.8470  2.6786
  676MOL0     H91227   8.181   2.020   6.501 -0.4402  2.9426  0.3881
  676MOL0     H91228   8.135   1.811   6.323  0.3910  0.2789 -0.4938
  676MOL0     H91229   8.202   1.924   6.208  0.7701  2.6949  1.3838
  676MOL0     H91230   8.341   1.812   6.465  3.7999  2.4882  1.8688
  676MOL0     H91231   8.406   1.933   6.369 -1.7112  1.9337  1.6721
  676MOL0     H91232   8.327   1.663   6.233  2.0476 -2.8076 -0.5371
  676MOL0     H91233   8.480   1.676   6.319 -3.4165 -1.4084  3.7403
  676MOL0     H91234   8.407   1.868   6.086 -0.6993  0.2117  1.1396
  676MOL0     H91235   8.561   1.849   6.165 -0.2399  1.2024  0.1618
  676MOL0     H91236   8.559   1.744   5.958  2.5051 -2.8995 -1.3271
  676MOL0     H91237   8.403   1.659   6.003  1.9213 -1.8832  0.0742
  676MOL0     H91238   8.524   1.514   6.153  2.0071 -1.2005  0.9620
  676MOL0     H91239   8.619   1.522   6.003  1.5077  0.7189 -0.5886
  676MOL0     H91240   7.749   1.988   6.293 -1.0189  3.5701 -4.2503
  676MOL0     H91241   7.501   1.976   6.387 -0.5718 -1.6418  1.9460
  676MOL0     H91242   7.204   1.979   6.508  0.5844  1.8237 -1.6303
  676MOL0     H91243   6.969   1.928   6.517  2.1620 -1.0681 -1.1619
  676MOL0     H91244   5.844   3.375   5.989  0.9799 -1.4348  0.8969
  676MOL0     H91245   5.741   3.582   6.099 -1.7950 -0.0376  2.7143
  676MOL0     H91246   5.485   3.818   6.101  0.6128  2.6263  0.4159
  676MOL0     H91247   5.408   4.056   6.075  1.2425 -1.7242 -0.3109
  676MOL0     H91248   5.148   4.203   6.416  0.5421 -3.6645 -1.5415
  676MOL0     H91249   5.034   4.223   6.285 -0.2637  2.7923 -0.5486
  676MOL0     H91250   5.147   4.398   6.196 -0.2267 -0.0917  0.4141
  676MOL0     H91251   5.271   4.416   6.320  0.4116  3.0632 -2.6624
  676MOL0     H91252   5.158   4.477   6.493 -0.9489 -3.4992  1.0098
  676MOL0     H91253   5.003   4.421   6.437 -0.6307  0.5640 -0.1057
  676MOL0     H91254   5.181   4.652   6.320 -0.4353  0.7272  1.7940
  676MOL0     H91255   5.016   4.630   6.251 -0.7500 -0.4909  0.6133
  676MOL0     H91256   4.930   4.781   6.631  0.5618  0.1650  0.0701
  676MOL0     H91257   5.139   3.986   6.396  2.4055  6.4902 -0.6783
  676MOL0     H91258   5.134   3.660   6.430 -1.3394 -0.2880  2.4821
  676MOL0     H91259   5.277   3.701   6.525  1.5157  1.9433  0.0359
  676MOL0     H91260   5.130   3.809   6.523 -0.4925  2.1398 -1.8336
  677MOL0     O91261   4.572   1.862   6.622 -0.1000  0.5780  0.2058
  677MOL0     C91262   4.464   1.831   6.675 -0.2331  0.8561  0.2593
  677MOL0     O91263   4.356   1.790   6.594 -0.0123  0.1013  0.4723
  677MOL0     C91264   4.374   1.803   6.457 -0.6501  1.1876  0.1689
  677MOL0     C91265   4.316   1.912   6.392 -0.4874  0.0570 -0.0129
  677MOL0     C91266   4.322   1.924   6.256 -0.0933 -0.0253 -0.5751
  677MOL0     C91267   4.372   1.823   6.175 -0.6210  0.7703  0.9219
  677MOL0     O91268   4.380   1.826   6.034 -0.5153 -1.1596 -0.5597
  677MOL0     C91269   4.301   1.924   5.966 -0.1913 -1.1109  0.4301
  677MOL0     C91270   4.155   1.898   5.952 -0.5395 -0.5874  0.1658
  677MOL0     C91271   4.121   1.757   5.927 -0.9717 -0.1135  0.3352
  677MOL0     C91272   3.966   1.735   5.919  0.3230 -0.2226 -0.0974
  677MOL0     C91273   3.897   1.817   5.808 -0.1415  0.2060  0.2677
  677MOL0     C91274   3.759   1.745   5.777 -0.3981  0.1786  0.4334
  677MOL0     C91275   3.674   1.815   5.668 -0.0400 -0.1266 -0.3078
  677MOL0     C91276   3.600   1.940   5.712  0.4976  0.7957 -0.0843
  677MOL0     N91277   3.498   1.972   5.614  0.4046  0.5199 -0.5239
  677MOL0     C91278   3.511   2.056   5.507  0.7155 -0.6975  0.3603
  677MOL0     C91279   3.382   2.068   5.455 -0.2113  0.0106  0.7661
  677MOL0     C91280   3.328   2.151   5.342 -1.1811  0.5739  0.1217
  677MOL0     C91281   3.356   2.087   5.205 -0.1143  0.8928  1.1305
  677MOL0     C91282   3.337   1.937   5.201 -0.3608 -0.4193 -0.0125
  677MOL0     C91283   3.325   1.890   5.059  0.0363  0.1098 -0.9828
  677MOL0     O91284   3.437   1.946   4.982 -0.0597  0.3995  0.1167
  677MOL0     C91285   3.570   1.894   4.990  0.6073  0.3580  0.2823
  677MOL0     C91286   3.678   1.968   4.927  0.4463  0.1630 -0.0071
  677MOL0     C91287   3.798   1.907   4.925 -0.1858 -0.1525 -0.5575
  677MOL0     C91288   3.824   1.775   4.976 -0.6808 -0.2742  0.0888
  677MOL0     C91289   3.959   1.716   4.990  0.5246 -0.4843 -0.4445
  677MOL0     O91290   4.061   1.781   4.932  0.1152  0.7079  0.2995
  677MOL0     C91291   4.192   1.726   4.931  0.1710  0.3750  0.9895
  677MOL0     C91292   4.294   1.821   4.922 -0.2053 -0.2079  0.3507
  677MOL0     C91293   4.429   1.781   4.906 -0.0046 -0.7161 -0.5548
  677MOL0     C91294   4.459   1.650   4.897 -0.5400 -0.5427  0.1284
  677MOL0     O91295   4.587   1.604   4.865  0.2233  0.1358 -0.1028
  677MOL0     C91296   4.658   1.541   4.974  0.3584 -0.0524 -0.1669
  677MOL0     C91297   4.781   1.631   5.006 -0.0931  0.0977 -0.3191
  677MOL0     C91298   4.877   1.582   5.106 -0.3220  0.5156 -0.2637
  677MOL0     C91299   4.985   1.690   5.132  0.4935 -0.4327  0.3740
  677MOL0     C91300   5.067   1.644   5.253 -0.4761 -0.2939  0.7211
  677MOL0     C91301   5.197   1.730   5.263 -0.2132  0.0270 -0.0167
  677MOL0     C91302   5.304   1.698   5.362 -0.5015  0.4395  0.1056
  677MOL0     C91303   5.420   1.633   5.291 -1.0381  0.0368 -0.8960
  677MOL0    Cl91304   5.506   1.741   5.186 -0.3527  0.1692 -0.1730
  677MOL0     C91305   4.355   1.554   4.901  0.2637 -0.3456 -0.6515
  677MOL0     C91306   4.226   1.586   4.924 -0.1237 -1.2275 -0.3834
  677MOL0     O91307   3.968   1.625   5.069 -1.1042  0.2437 -0.0862
  677MOL0     C91308   3.713   1.707   5.029  0.0516  0.3879 -0.0403
  677MOL0     C91309   3.590   1.771   5.050  1.0129  0.3931  1.3230
  677MOL0     N91310   3.300   2.000   5.530 -0.7564 -0.2590 -0.0999
  677MOL0     N91311   3.367   1.934   5.624  0.5031 -0.2295 -0.1129
  677MOL0     C91312   4.412   1.706   6.241 -0.0725  0.1669  0.6070
  677MOL0     C91313   4.415   1.695   6.379  0.0552  0.3159  0.7640
  677MOL0     C91314   4.453   1.827   6.826 -0.7014  0.5443  0.5962
  677MOL0     C91315   4.340   1.766   6.883  0.7145  0.0807  0.3927
  677MOL0     C91316   4.326   1.756   7.021  0.1170 -0.5456 -0.2830
  677MOL0     C91317   4.422   1.804   7.106 -0.4146 -0.0361 -0.1143
  677MOL0     O91318   4.400   1.784   7.244 -0.6344 -0.3964  0.0530
  677MOL0     C91319   4.495   1.706   7.314  1.1099  0.1606  0.1773
  677MOL0     C91320   4.468   1.713   7.473 -0.6129  0.5088  0.2069
  677MOL0     C91321   4.377   1.595   7.511  0.2082 -0.4258  0.4452
  677MOL0     C91322   4.226   1.606   7.462  0.4744  0.0077 -1.1848
  677MOL0     C91323   4.133   1.630   7.580 -1.1542 -0.5776 -0.8422
  677MOL0     C91324   4.052   1.666   7.665 -0.0276  0.4168  0.9075
  677MOL0     C91325   4.538   1.870   7.053 -0.0583 -0.3890 -0.9279
  677MOL0     C91326   4.554   1.886   6.916  0.9124 -0.5188  0.6721
  677MOL0     C91327   4.684   1.956   6.870  0.2614 -1.0034 -1.3487
  677MOL0     H91328   4.274   1.990   6.454  1.3784 -0.8461  2.5915
  677MOL0     H91329   4.268   2.009   6.216  0.2474  0.0393 -0.9047
  677MOL0     H91330   4.311   2.029   5.994 -2.9258 -0.8426  0.7653
  677MOL0     H91331   4.345   1.919   5.866  0.2637  1.2248  0.4630
  677MOL0     H91332   4.112   1.963   5.874  2.1877  0.0713 -0.8885
  677MOL0     H91333   4.103   1.938   6.040  1.8557  2.7714  0.2796
  677MOL0     H91334   4.156   1.708   6.018 -0.2905  2.9268  1.8342
  677MOL0     H91335   4.176   1.717   5.841 -1.3242  1.7261 -0.7907
  677MOL0     H91336   3.939   1.630   5.907 -0.8903  0.3348 -3.0512
  677MOL0     H91337   3.923   1.769   6.014  2.6937  0.5020  0.7923
  677MOL0     H91338   3.876   1.914   5.855 -1.0419 -1.6513  4.1351
  677MOL0     H91339   3.959   1.828   5.719  0.7484 -2.3124  0.5047
  677MOL0     H91340   3.788   1.645   5.744  0.9461  0.2012  1.4390
  677MOL0     H91341   3.707   1.730   5.872  3.8055 -0.7324  2.8611
  677MOL0     H91342   3.598   1.741   5.641 -1.5139  0.7126  1.3136
  677MOL0     H91343   3.735   1.839   5.580  0.4056  3.5411  0.8486
  677MOL0     H91344   3.549   1.904   5.802 -0.5636 -0.2624 -1.0786
  677MOL0     H91345   3.659   2.032   5.720 -0.4118  1.6053 -1.9346
  677MOL0     H91346   3.594   2.119   5.479 -0.6664  0.6802 -0.8653
  677MOL0     H91347   3.219   2.153   5.355 -1.3543 -0.6155 -0.9903
  677MOL0     H91348   3.364   2.254   5.351  2.1533 -0.6182  2.4443
  677MOL0     H91349   3.294   2.142   5.134  1.3538  1.0809 -0.0790
  677MOL0     H91350   3.459   2.103   5.170 -0.1120 -3.4145 -1.5946
  677MOL0     H91351   3.249   1.910   5.260 -1.2693  0.8375 -0.7333
  677MOL0     H91352   3.422   1.889   5.251 -1.7732 -2.5866  0.4636
  677MOL0     H91353   3.230   1.931   5.022 -1.7271 -1.4774  1.4500
  677MOL0     H91354   3.308   1.782   5.054  1.5162 -0.0870 -2.4366
  677MOL0     H91355   3.655   2.062   4.878 -3.8931  0.0003  1.2998
  677MOL0     H91356   3.882   1.962   4.884  1.6011 -1.1675  1.4929
  677MOL0     H91357   4.281   1.928   4.932  0.4133  0.1837 -2.1474
  677MOL0     H91358   4.512   1.851   4.912  0.0754 -0.7204 -1.4466
  677MOL0     H91359   4.595   1.522   5.061 -0.2740 -1.0527 -0.8270
  677MOL0     H91360   4.688   1.441   4.942  3.3117  2.1762 -5.6007
  677MOL0     H91361   4.832   1.646   4.910  0.7974  1.2772  0.3112
  677MOL0     H91362   4.747   1.730   5.037 -3.1863 -0.1472 -2.5170
  677MOL0     H91363   4.832   1.553   5.201  0.1079 -1.6738 -0.6768
  677MOL0     H91364   4.925   1.493   5.065  0.1273  0.4305  0.4224
  677MOL0     H91365   4.928   1.781   5.154 -0.4277 -0.7307 -0.6893
  677MOL0     H91366   5.049   1.700   5.044 -0.2279  0.3941 -0.0783
  677MOL0     H91367   5.096   1.538   5.244  0.3697  0.0537 -0.8958
  677MOL0     H91368   4.999   1.654   5.338 -0.5549  0.8850  0.5229
  677MOL0     H91369   5.242   1.748   5.165  1.3555  0.3021  0.7282
  677MOL0     H91370   5.159   1.826   5.299 -2.1913  0.1711 -2.2030
  677MOL0     H91371   5.263   1.635   5.441  0.1680  0.6620  0.6363
  677MOL0     H91372   5.343   1.788   5.411 -1.8215  0.8343  0.4838
  677MOL0     H91373   5.494   1.601   5.365 -1.9859  0.9370  0.5025
  677MOL0     H91374   5.387   1.539   5.245  1.7949 -1.8573  0.6319
  677MOL0     H91375   4.371   1.449   4.879  1.7087 -0.1786 -0.5098
  677MOL0     H91376   4.150   1.513   4.951 -1.4477  0.0234 -0.5652
  677MOL0     H91377   3.731   1.612   5.077 -0.4384  1.4843  2.4714
  677MOL0     H91378   3.505   1.715   5.088  0.3216 -0.6497 -1.5256
  677MOL0     H91379   4.433   1.619   6.180  0.3697  1.5719 -1.3214
  677MOL0     H91380   4.435   1.598   6.424 -3.2953 -0.7817  0.1188
  677MOL0     H91381   4.264   1.730   6.815  0.5979  0.8195  0.1254
  677MOL0     H91382   4.238   1.708   7.063 -0.3924 -1.6676 -2.4765
  677MOL0     H91383   4.598   1.743   7.302  0.9770  1.0932  1.6935
  677MOL0     H91384   4.483   1.603   7.279 -4.8330 -0.1073  2.0096
  677MOL0     H91385   4.429   1.806   7.516  1.1190  0.6531  1.5513
  677MOL0     H91386   4.565   1.707   7.522  0.2990  4.1240 -0.8716
  677MOL0     H91387   4.372   1.591   7.620 -0.4849  5.0585  0.8698
  677MOL0     H91388   4.426   1.502   7.479 -0.8473  0.0148 -2.8496
  677MOL0     H91389   4.218   1.685   7.387 -1.9188  0.2053 -0.7815
  677MOL0     H91390   4.190   1.513   7.415 -0.2223 -1.5803  2.1717
  677MOL0     H91391   3.981   1.704   7.735 -1.1852 -0.4003  0.2013
  677MOL0     H91392   4.600   1.929   7.120 -1.6185  0.5112 -0.2364
  677MOL0     H91393   4.666   2.056   6.831  0.2534 -0.7062 -0.6037
  677MOL0     H91394   4.749   1.960   6.958 -0.9388  1.3790 -0.4808
  677MOL0     H91395   4.751   1.913   6.795  3.8216 -1.4920  1.7744
  678MOL0     O91396   3.489   5.331   3.298  0.2311  0.0362 -0.0889
  678MOL0     C91397   3.554   5.401   3.370  0.1249  0.0807 -0.0382
  678MOL0     O91398   3.609   5.353   3.492 -0.4222  0.6102 -0.5175
  678MOL0     C91399   3.562   5.234   3.543  0.1323 -0.6599  1.0009
  678MOL0     C91400   3.426   5.230   3.569  0.3522 -0.2769  0.4635
  678MOL0     C91401   3.367   5.115   3.627  0.4852 -0.9644 -0.6830
  678MOL0     C91402   3.446   5.006   3.662  0.1275  0.1606  0.2368
  678MOL0     O91403   3.408   4.897   3.737 -0.2005 -0.1532 -0.7594
  678MOL0     C91404   3.292   4.824   3.698 -0.0960  0.4494  0.6590
  678MOL0     C91405   3.335   4.674   3.675  0.2268 -0.3737 -1.7216
  678MOL0     C91406   3.420   4.627   3.803 -0.1297  0.2041 -0.5427
  678MOL0     C91407   3.570   4.632   3.767 -0.6027 -1.1689  0.8478
  678MOL0     C91408   3.647   4.648   3.895  0.5792 -0.0196 -0.0166
  678MOL0     C91409   3.793   4.682   3.863  0.2451 -0.1674 -0.3659
  678MOL0     C91410   3.878   4.669   3.985  0.3677  0.1064  0.3181
  678MOL0     C91411   4.026   4.702   3.965  0.5304 -0.6594 -0.6312
  678MOL0     N91412   4.095   4.715   4.094 -0.3946 -0.7171 -0.6476
  678MOL0     C91413   4.206   4.651   4.125 -0.7747  0.7865 -0.2567
  678MOL0     C91414   4.226   4.647   4.255  0.0408 -0.2375  0.7718
  678MOL0     C91415   4.339   4.590   4.342  0.1743  0.3174 -0.5476
  678MOL0     C91416   4.430   4.477   4.295  0.7124  0.1592 -0.4177
  678MOL0     C91417   4.523   4.421   4.400  0.0697  0.4386 -0.1282
  678MOL0     C91418   4.626   4.506   4.465  0.3923 -0.4127  0.1986
  678MOL0     O91419   4.721   4.436   4.561  0.1866  0.2551  0.2848
  678MOL0     C91420   4.824   4.504   4.604 -0.3552 -0.5788 -0.0279
  678MOL0     C91421   4.908   4.436   4.690 -0.5847  0.4031 -0.5677
  678MOL0     C91422   5.032   4.485   4.723 -0.8425  0.3835 -0.5765
  678MOL0     C91423   5.078   4.606   4.675  0.4767 -0.6736  0.6441
  678MOL0     C91424   5.218   4.655   4.693 -0.5551 -0.7568 -0.1853
  678MOL0     O91425   5.321   4.575   4.731  0.5770 -0.0513 -0.0093
  678MOL0     C91426   5.439   4.625   4.738  0.6080 -0.6260 -0.9961
  678MOL0     C91427   5.525   4.640   4.625 -0.3492  0.3086 -1.3346
  678MOL0     C91428   5.658   4.690   4.654 -0.6880 -0.2968  0.3756
  678MOL0     C91429   5.700   4.747   4.774  0.0418 -0.2332 -0.3543
  678MOL0     O91430   5.819   4.802   4.812 -0.1368  0.0869  0.0993
  678MOL0     C91431   5.918   4.826   4.706 -0.3257  1.3231  1.0966
  678MOL0     C91432   6.055   4.833   4.772 -0.2525 -0.4161 -1.2839
  678MOL0     C91433   6.108   4.703   4.837 -0.1120  0.5710 -0.3187
  678MOL0     C91434   6.153   4.597   4.733  0.6826 -0.1226  0.1671
  678MOL0     C91435   6.200   4.471   4.803 -0.2926  1.0123 -0.0457
  678MOL0     C91436   6.258   4.365   4.703 -0.6806  0.9226 -0.0043
  678MOL0     C91437   6.300   4.234   4.779  0.6809 -0.7928 -0.7979
  678MOL0     C91438   6.349   4.124   4.686  1.2491 -0.0883  0.1974
  678MOL0    Cl91439   6.505   4.160   4.611 -0.8657 -0.0239 -0.1576
  678MOL0     C91440   5.615   4.733   4.879  0.1716 -0.6428  0.6239
  678MOL0     C91441   5.480   4.688   4.856  0.0846 -0.2218  0.2074
  678MOL0     O91442   5.229   4.775   4.665  0.2590  0.1461 -0.3066
  678MOL0     C91443   4.981   4.682   4.597 -0.8545  0.3413  0.5585
  678MOL0     C91444   4.861   4.636   4.559  0.9710 -0.0571 -0.1033
  678MOL0     N91445   4.123   4.718   4.309 -0.5135  0.5814 -0.3146
  678MOL0     N91446   4.042   4.752   4.216  0.0642  0.2461 -0.0087
  678MOL0     C91447   3.584   5.007   3.637  0.3724  0.0345  0.1657
  678MOL0     C91448   3.635   5.124   3.577 -0.1070  0.9557  0.2059
  678MOL0     C91449   3.557   5.541   3.352  0.7516 -0.1575 -0.6037
  678MOL0     C91450   3.610   5.621   3.446  0.2748  0.2262 -0.0800
  678MOL0     C91451   3.615   5.759   3.432  0.4210 -0.1557  0.1713
  678MOL0     C91452   3.564   5.821   3.315 -0.2387 -0.3407  0.2116
  678MOL0     O91453   3.569   5.949   3.285  0.1543 -0.2607  0.0710
  678MOL0     C91454   3.665   6.031   3.356 -0.5757 -0.3218  0.4646
  678MOL0     C91455   3.799   6.030   3.281 -0.1185  0.4590  0.1218
  678MOL0     C91456   3.775   6.087   3.149  0.8650 -0.7782  1.8264
  678MOL0     C91457   3.909   6.125   3.074 -0.2905 -0.1844  0.1893
  678MOL0     C91458   3.988   6.229   3.138 -0.4518  0.0816 -0.1096
  678MOL0     C91459   4.046   6.329   3.180  0.2009  0.2794  1.5100
  678MOL0     C91460   3.517   5.736   3.213  0.5632 -0.3623  0.4006
  678MOL0     C91461   3.518   5.604   3.228  0.4921 -0.0462  0.3311
  678MOL0     C91462   3.441   5.528   3.112 -0.4593 -0.0270 -0.2248
  678MOL0     H91463   3.362   5.316   3.550 -2.1420 -1.7771  1.5271
  678MOL0     H91464   3.266   5.126   3.663  0.3312 -2.7378 -0.4707
  678MOL0     H91465   3.230   4.813   3.788  1.8961 -1.9696  1.8759
  678MOL0     H91466   3.226   4.866   3.622  2.9075 -0.4166 -2.6756
  678MOL0     H91467   3.377   4.659   3.575  0.6410  1.7551 -1.9106
  678MOL0     H91468   3.246   4.610   3.678  1.3443 -1.9477  0.0520
  678MOL0     H91469   3.392   4.525   3.830 -0.0670  0.2321 -0.3720
  678MOL0     H91470   3.396   4.692   3.887 -2.7199 -1.8771  0.4607
  678MOL0     H91471   3.613   4.548   3.712 -1.7773 -1.2992  0.0838
  678MOL0     H91472   3.576   4.720   3.702  0.6805 -1.9688 -0.1832
  678MOL0     H91473   3.603   4.716   3.968  0.0402 -1.9979  1.5923
  678MOL0     H91474   3.632   4.554   3.950 -0.7445  1.1460  1.7124
  678MOL0     H91475   3.840   4.609   3.797  2.8332 -0.6606  1.8556
  678MOL0     H91476   3.800   4.778   3.812  3.4565  0.0730  0.3150
  678MOL0     H91477   3.865   4.568   4.026 -2.5969 -0.3645 -1.5007
  678MOL0     H91478   3.837   4.744   4.052 -4.3530 -0.6770 -1.3066
  678MOL0     H91479   4.075   4.621   3.910  1.3810  1.3823 -3.0788
  678MOL0     H91480   4.038   4.794   3.907 -2.1885  0.8774  1.0453
  678MOL0     H91481   4.280   4.613   4.056 -0.6199  2.0535 -0.8182
  678MOL0     H91482   4.389   4.678   4.385 -0.0995  0.4717 -0.5391
  678MOL0     H91483   4.287   4.546   4.428  0.1577  3.4647  1.1952
  678MOL0     H91484   4.373   4.396   4.248 -0.8115  1.7388 -1.4230
  678MOL0     H91485   4.492   4.509   4.211  0.2572  0.8620 -0.4964
  678MOL0     H91486   4.571   4.334   4.354  0.2092 -0.5142  1.7367
  678MOL0     H91487   4.454   4.379   4.474 -1.9709  0.0740 -2.1302
  678MOL0     H91488   4.574   4.584   4.522 -0.8769 -1.6549  0.7821
  678MOL0     H91489   4.679   4.554   4.382  0.8491 -0.7961  0.2618
  678MOL0     H91490   4.882   4.336   4.725  1.0456  1.0205  2.9384
  678MOL0     H91491   5.092   4.417   4.783 -2.2383 -1.4056 -1.0986
  678MOL0     H91492   5.514   4.601   4.525  0.9703  0.0462 -1.3990
  678MOL0     H91493   5.726   4.697   4.570  1.1273 -1.8473  1.6455
  678MOL0     H91494   5.913   4.752   4.626  0.9494 -0.0704  2.2474
  678MOL0     H91495   5.904   4.924   4.660  0.5697  0.7996 -0.3434
  678MOL0     H91496   6.135   4.862   4.703  2.4341 -0.0398  1.7039
  678MOL0     H91497   6.041   4.915   4.843  1.0663  0.8859 -2.4827
  678MOL0     H91498   6.191   4.728   4.903  1.1222 -4.0830  0.2016
  678MOL0     H91499   6.017   4.677   4.892 -1.2207 -0.3930 -2.4854
  678MOL0     H91500   6.234   4.636   4.671 -1.1887 -1.7100 -3.5829
  678MOL0     H91501   6.066   4.570   4.673 -0.4479  2.4375  0.5277
  678MOL0     H91502   6.118   4.423   4.856  1.1644 -0.3636  1.0650
  678MOL0     H91503   6.282   4.491   4.873 -0.0161  1.0479 -0.3728
  678MOL0     H91504   6.188   4.323   4.630 -1.2951 -1.2441  1.7285
  678MOL0     H91505   6.348   4.406   4.655 -1.8512  1.8103 -1.5239
  678MOL0     H91506   6.215   4.191   4.833  0.9425  1.8147  1.9406
  678MOL0     H91507   6.380   4.257   4.850 -0.6598 -0.1467  0.5666
  678MOL0     H91508   6.353   4.025   4.733 -0.9527  1.0978  3.1895
  678MOL0     H91509   6.281   4.114   4.601  0.9644  1.9170  0.1499
  678MOL0     H91510   5.633   4.774   4.978 -1.9390  0.1850  0.7264
  678MOL0     H91511   5.413   4.693   4.942 -2.1645 -2.0244 -1.2934
  678MOL0     H91512   5.005   4.774   4.545  0.4731 -0.4219 -0.2231
  678MOL0     H91513   4.796   4.697   4.497  0.3601 -0.5683  0.0298
  678MOL0     H91514   3.655   4.940   3.683 -1.6001 -0.9113  2.0105
  678MOL0     H91515   3.743   5.117   3.570 -0.0460 -5.1724  1.3009
  678MOL0     H91516   3.644   5.587   3.544 -1.2271 -0.1238  0.3526
  678MOL0     H91517   3.646   5.825   3.513 -0.1319  2.4045 -1.5905
  678MOL0     H91518   3.686   6.008   3.461  1.0746 -2.6506 -0.2845
  678MOL0     H91519   3.629   6.133   3.342 -1.6571 -0.3515  2.6464
  678MOL0     H91520   3.843   5.930   3.279 -0.6050  0.1828  1.5737
  678MOL0     H91521   3.878   6.082   3.338  1.1302 -2.5603  1.3665
  678MOL0     H91522   3.698   6.164   3.160 -0.4595 -1.3390 -2.0345
  678MOL0     H91523   3.726   6.004   3.097  1.1961 -0.8584  1.6371
  678MOL0     H91524   3.963   6.037   3.040 -3.1090 -1.5129 -1.1816
  678MOL0     H91525   3.871   6.166   2.980  1.1755  3.2821  0.9451
  678MOL0     H91526   4.113   6.400   3.225  1.5681 -0.6850  1.0585
  678MOL0     H91527   3.488   5.782   3.119 -0.1662  0.5977  1.0751
  678MOL0     H91528   3.475   5.426   3.097 -1.1723 -0.9849  3.6628
  678MOL0     H91529   3.336   5.529   3.143  0.0306 -3.2867  2.0360
  678MOL0     H91530   3.450   5.591   3.023 -3.0005  1.5304  0.5134
  679MOL0     O91531  11.141   9.072   7.690 -0.5997 -0.3177 -0.0286
  679MOL0     C91532  11.089   8.991   7.758  0.2518  0.2277 -0.0487
  679MOL0     O91533  10.962   9.004   7.824  0.1586 -0.5500  0.3418
  679MOL0     C91534  10.896   9.129   7.838 -0.2155  0.0368  0.1858
  679MOL0     C91535  10.762   9.127   7.869 -0.1815 -0.6805  0.1314
  679MOL0     C91536  10.693   9.247   7.892  0.2345  0.6804 -0.1090
  679MOL0     C91537  10.761   9.370   7.887  0.5228 -0.2732 -0.1733
  679MOL0     O91538  10.696   9.488   7.878 -0.0240 -1.1538 -0.7376
  679MOL0     C91539  10.555   9.492   7.854  0.1986  0.0871  0.0160
  679MOL0     C91540  10.513   9.634   7.827  0.4090  0.7877  0.2359
  679MOL0     C91541  10.567   9.692   7.688 -0.5883  0.1668  0.0374
  679MOL0     C91542  10.695   9.788   7.702  0.4614 -0.2147  0.0494
  679MOL0     C91543  10.721   9.852   7.564  0.0565  0.0815  0.3293
  679MOL0     C91544  10.833   9.951   7.574  0.6423 -1.3885 -0.3858
  679MOL0     C91545  10.881   9.995   7.435 -0.1582 -1.4180 -0.4457
  679MOL0     C91546  10.955   9.879   7.361 -0.2030 -0.0638 -0.5814
  679MOL0     N91547  11.088   9.828   7.425 -0.2850  0.1048 -0.1897
  679MOL0     C91548  11.205   9.901   7.436  0.0579  0.4250 -0.1123
  679MOL0     C91549  11.285   9.823   7.511 -0.4477  0.6490 -0.9651
  679MOL0     C91550  11.437   9.826   7.531 -0.5322  0.1120  0.4545
  679MOL0     C91551  11.485   9.744   7.415  0.5102  0.7235 -0.2076
  679MOL0     C91552  11.627   9.771   7.376 -0.3657 -0.4211  0.3788
  679MOL0     C91553  11.742   9.706   7.463  0.4618  0.0970  0.1661
  679MOL0     O91554  11.873   9.760   7.408 -0.5409  0.7388 -0.5969
  679MOL0     C91555  11.963   9.675   7.342  0.8941 -0.9433 -0.7034
  679MOL0     C91556  12.086   9.723   7.315  1.1702  0.1480  0.7373
  679MOL0     C91557  12.180   9.653   7.234  1.2617  0.3376  0.6838
  679MOL0     C91558  12.152   9.524   7.182 -0.2282  0.1376 -0.6029
  679MOL0     C91559  12.253   9.443   7.109 -1.1900  0.0036 -0.4042
  679MOL0     O91560  12.362   9.514   7.060  0.3170  0.1127 -0.3138
  679MOL0     C91561  12.461   9.461   6.980 -0.4827  0.0802  0.9856
  679MOL0     C91562  12.501   9.329   6.969  0.1662 -0.0583  0.0265
  679MOL0     C91563  12.614   9.286   6.890  1.1203 -0.2630  0.7091
  679MOL0     C91564  12.695   9.381   6.825  0.1766  0.3894 -0.2391
  679MOL0     O91565  12.802   9.326   6.757 -0.0453 -0.4238  0.1521
  679MOL0     C91566  12.891   9.421   6.706 -0.3029 -0.1250 -0.7415
  679MOL0     C91567  12.998   9.329   6.643  0.0875 -0.5605 -0.4728
  679MOL0     C91568  13.109   9.406   6.583  0.1646 -0.1770  0.2435
  679MOL0     C91569  13.172   9.333   6.464  0.3232 -0.6046  1.2019
  679MOL0     C91570  13.279   9.428   6.396 -0.1355  0.2217  0.2037
  679MOL0     C91571  13.427   9.428   6.438 -0.6636  0.2614 -0.0350
  679MOL0     C91572  13.487   9.292   6.424 -0.6012 -0.5847  0.2818
  679MOL0     C91573  13.618   9.291   6.496  0.2020  0.7919  0.4106
  679MOL0    Cl91574  13.737   9.394   6.413 -0.1713 -0.0947 -0.0318
  679MOL0     C91575  12.644   9.514   6.838 -0.4746 -0.3032  0.2314
  679MOL0     C91576  12.542   9.559   6.921 -0.7983  0.2853 -0.0796
  679MOL0     O91577  12.228   9.327   7.084  0.6975 -0.7027 -0.9925
  679MOL0     C91578  12.028   9.466   7.216 -0.4036 -0.9191 -0.0542
  679MOL0     C91579  11.939   9.547   7.288  0.5172 -0.4500  0.1675
  679MOL0     N91580  11.212   9.721   7.577  0.8265 -0.0906  0.1102
  679MOL0     N91581  11.097   9.726   7.510  0.1854 -0.1527 -0.5576
  679MOL0     C91582  10.893   9.375   7.853  0.2653 -0.4551 -0.7115
  679MOL0     C91583  10.962   9.253   7.841 -0.1994  0.4400  0.3847
  679MOL0     C91584  11.122   8.848   7.752  0.4729  1.3736 -0.2680
  679MOL0     C91585  11.029   8.758   7.812 -0.5431 -0.3514 -0.0663
  679MOL0     C91586  11.069   8.631   7.830  0.3370 -0.5532  0.3754
  679MOL0     C91587  11.200   8.587   7.802  0.4326 -0.2845 -0.3689
  679MOL0     O91588  11.247   8.459   7.822  0.2332 -0.5669  0.4786
  679MOL0     C91589  11.143   8.358   7.829 -0.4449 -0.7352  0.5266
  679MOL0     C91590  11.224   8.227   7.830 -0.9960  1.1012  0.3096
  679MOL0     C91591  11.131   8.102   7.807 -0.0850 -0.5070 -0.6590
  679MOL0     C91592  11.189   7.967   7.771 -0.2829  0.5293 -0.4262
  679MOL0     C91593  11.082   7.867   7.760  0.3866 -0.3597 -0.4346
  679MOL0     C91594  10.992   7.791   7.756  0.8559  0.6695  0.1187
  679MOL0     C91595  11.286   8.674   7.741 -0.5959  0.0109 -0.3617
  679MOL0     C91596  11.244   8.802   7.707 -1.1275 -0.8071  0.1407
  679MOL0     C91597  11.351   8.886   7.633 -0.3293 -0.2126 -0.4342
  679MOL0     H91598  10.723   9.026   7.872 -2.1672  0.0265 -0.0281
  679MOL0     H91599  10.587   9.236   7.909  0.4567 -3.4528 -0.3817
  679MOL0     H91600  10.529   9.442   7.760 -2.6947  1.3161  0.0933
  679MOL0     H91601  10.514   9.450   7.946  2.8177  1.5809  2.0268
  679MOL0     H91602  10.550   9.703   7.904  0.7929 -0.5472  1.2731
  679MOL0     H91603  10.404   9.639   7.823  0.3647  1.1595  1.4823
  679MOL0     H91604  10.486   9.747   7.638 -2.1499 -1.6530  0.4149
  679MOL0     H91605  10.583   9.604   7.625  0.2956  1.6857 -1.9601
  679MOL0     H91606  10.671   9.857   7.784 -1.8215 -1.2545  0.3489
  679MOL0     H91607  10.779   9.722   7.725 -0.5395 -1.9838 -1.1708
  679MOL0     H91608  10.733   9.774   7.488 -0.2226  1.5717 -1.2908
  679MOL0     H91609  10.638   9.915   7.530 -0.2715  1.0294  2.7073
  679MOL0     H91610  10.803  10.037   7.635 -0.0472 -3.3804  2.2853
  679MOL0     H91611  10.917   9.910   7.631 -0.1899 -0.1059  1.9092
  679MOL0     H91612  10.950  10.080   7.432 -1.5650 -0.0187  2.2463
  679MOL0     H91613  10.794  10.035   7.381  0.2929 -1.2997 -1.0877
  679MOL0     H91614  10.890   9.793   7.343 -1.1529 -0.0467  2.3504
  679MOL0     H91615  10.988   9.923   7.266 -1.5557 -0.4687 -1.2524
  679MOL0     H91616  11.249   9.964   7.359 -0.7390  2.2317  0.8629
  679MOL0     H91617  11.485   9.924   7.526  2.5577 -1.3102 -0.0589
  679MOL0     H91618  11.455   9.775   7.626 -1.6215 -0.1617  0.5271
  679MOL0     H91619  11.472   9.637   7.431  2.2462  0.7047  1.4200
  679MOL0     H91620  11.439   9.765   7.318  0.8956 -0.5358 -0.6796
  679MOL0     H91621  11.650   9.878   7.374 -2.5696  0.1791  2.6977
  679MOL0     H91622  11.630   9.727   7.276 -1.5879  0.7257 -0.2045
  679MOL0     H91623  11.734   9.597   7.467 -1.1116  0.2289  1.5053
  679MOL0     H91624  11.737   9.748   7.563 -1.4930 -1.9508  1.0052
  679MOL0     H91625  12.104   9.826   7.343 -1.5789  0.9507 -0.1798
  679MOL0     H91626  12.273   9.701   7.206  1.2744  1.2444  2.1249
  679MOL0     H91627  12.443   9.254   7.023 -1.9297  2.7356  1.9047
  679MOL0     H91628  12.641   9.182   6.873  0.1416 -0.0625 -3.0003
  679MOL0     H91629  12.832   9.467   6.626 -0.6419 -1.5723 -1.3659
  679MOL0     H91630  12.931   9.489   6.781  0.4747 -3.5857  2.2618
  679MOL0     H91631  13.046   9.265   6.718 -0.7895 -1.5356 -0.7221
  679MOL0     H91632  12.964   9.272   6.556  1.6338  0.6639 -1.9379
  679MOL0     H91633  13.070   9.499   6.538 -0.0851 -1.3597 -2.1447
  679MOL0     H91634  13.190   9.435   6.651  4.1433 -2.5142 -3.0223
  679MOL0     H91635  13.087   9.330   6.395  1.1824  1.3347 -0.0289
  679MOL0     H91636  13.202   9.230   6.482  1.6803 -0.9368 -2.2311
  679MOL0     H91637  13.251   9.533   6.411  1.1389  0.4079  1.4536
  679MOL0     H91638  13.279   9.398   6.291 -0.0788  1.2324 -0.0977
  679MOL0     H91639  13.484   9.504   6.384  2.5326 -0.7664  1.6091
  679MOL0     H91640  13.439   9.458   6.543  2.1373 -0.3001 -0.1345
  679MOL0     H91641  13.503   9.272   6.318  2.8732  0.4169  0.4884
  679MOL0     H91642  13.434   9.206   6.468 -0.8542  0.4182  2.0352
  679MOL0     H91643  13.604   9.320   6.600 -1.4413  0.8801  0.1896
  679MOL0     H91644  13.659   9.190   6.486  1.4792  1.2923  0.3482
  679MOL0     H91645  12.705   9.594   6.799 -1.6635  1.0308  1.0169
  679MOL0     H91646  12.510   9.663   6.920  1.0559  0.9628 -2.6760
  679MOL0     H91647  11.988   9.371   7.182 -2.4967  0.3653 -1.4484
  679MOL0     H91648  11.839   9.507   7.280  0.1408  0.6588 -0.8835
  679MOL0     H91649  10.943   9.469   7.834  3.8362 -2.2655 -1.0751
  679MOL0     H91650  11.069   9.257   7.827 -0.2544  2.7644  0.2601
  679MOL0     H91651  10.929   8.790   7.840 -0.0841  0.2507  0.9356
  679MOL0     H91652  10.987   8.562   7.848 -0.1703 -1.2559 -3.6061
  679MOL0     H91653  11.073   8.364   7.746 -0.6214  1.7380  0.7757
  679MOL0     H91654  11.085   8.364   7.922 -2.4806  0.9145 -0.7488
  679MOL0     H91655  11.278   8.218   7.924  2.6707 -0.2326 -1.6970
  679MOL0     H91656  11.301   8.239   7.753 -0.6540  0.4462  0.5451
  679MOL0     H91657  11.059   8.121   7.727  0.1656  0.3337 -0.6957
  679MOL0     H91658  11.077   8.087   7.901 -3.0412  4.1540 -1.3297
  679MOL0     H91659  11.232   7.983   7.672  0.3112  0.7855 -0.1331
  679MOL0     H91660  11.260   7.938   7.849  0.2996 -0.0395 -1.1522
  679MOL0     H91661  10.910   7.723   7.763 -0.5434  2.4936  3.4210
  679MOL0     H91662  11.372   8.621   7.703 -1.1405 -2.5425  1.6911
  679MOL0     H91663  11.313   8.921   7.537 -0.2130 -0.3739 -0.5395
  679MOL0     H91664  11.380   8.963   7.705  2.1374 -0.3789 -1.1357
  679MOL0     H91665  11.449   8.837   7.624  0.2511  0.5242  1.3932
  680MOL0     O91666  11.295   0.730   7.847  0.2535  0.3845 -0.7566
  680MOL0     C91667  11.374   0.773   7.760  0.3633 -0.2726  0.3995
  680MOL0     O91668  11.348   0.877   7.674 -0.3220  0.0913 -1.1621
  680MOL0     C91669  11.248   0.965   7.722  0.0351  0.1955 -0.2148
  680MOL0     C91670  11.116   0.939   7.709  0.5977 -0.3873 -0.7202
  680MOL0     C91671  11.012   1.019   7.762  0.8470 -0.5912 -0.2152
  680MOL0     C91672  11.050   1.138   7.828 -0.7993  0.5102  0.2085
  680MOL0     O91673  10.966   1.237   7.870 -0.5800 -0.2277  0.3697
  680MOL0     C91674  10.901   1.316   7.775  0.1457 -0.2214 -0.6111
  680MOL0     C91675  10.962   1.453   7.790  0.1427  0.2977 -0.0780
  680MOL0     C91676  10.916   1.527   7.912 -0.2720  0.4608  0.3145
  680MOL0     C91677  10.768   1.570   7.894  0.0233 -0.3728 -0.8733
  680MOL0     C91678  10.703   1.654   8.010  0.4123  0.1143  0.1256
  680MOL0     C91679  10.569   1.715   7.971  1.0578  0.0260  0.3652
  680MOL0     C91680  10.471   1.778   8.083 -0.5316  0.2720 -0.2954
  680MOL0     C91681  10.404   1.673   8.175 -0.5551  0.3364 -0.3647
  680MOL0     N91682  10.481   1.601   8.275  0.0134  0.8167  0.0079
  680MOL0     C91683  10.577   1.656   8.356  0.0174 -0.2694  1.1834
  680MOL0     C91684  10.656   1.556   8.407  0.1109 -0.5160 -0.5621
  680MOL0     C91685  10.772   1.581   8.504  0.0923  0.8155  0.0990
  680MOL0     C91686  10.895   1.501   8.482  0.5081  0.2110 -0.2165
  680MOL0     C91687  10.932   1.488   8.327 -0.0199 -0.5426  0.8111
  680MOL0     C91688  11.067   1.425   8.310 -0.7622 -0.0216 -0.9812
  680MOL0     O91689  11.153   1.487   8.406 -0.2759  0.5194 -0.0639
  680MOL0     C91690  11.278   1.424   8.441  0.0232 -0.6804  0.3795
  680MOL0     C91691  11.321   1.287   8.421  0.0419 -0.5000 -0.2383
  680MOL0     C91692  11.454   1.257   8.432 -0.7677 -0.1016  0.1033
  680MOL0     C91693  11.557   1.347   8.466  0.1983 -0.0677 -0.0563
  680MOL0     C91694  11.698   1.309   8.491  0.0302 -0.3428  0.6940
  680MOL0     O91695  11.767   1.385   8.574 -0.4878  0.0074 -0.2180
  680MOL0     C91696  11.903   1.364   8.606  0.3569 -0.5611 -0.5869
  680MOL0     C91697  11.990   1.258   8.570  0.5983  1.1157 -0.0488
  680MOL0     C91698  12.121   1.253   8.612  0.4475 -0.4123 -1.0579
  680MOL0     C91699  12.172   1.348   8.694 -0.3295  0.1014  0.6162
  680MOL0     O91700  12.304   1.359   8.743 -0.3961 -0.8017  0.3154
  680MOL0     C91701  12.398   1.250   8.716  0.7755 -0.1105  0.1757
  680MOL0     C91702  12.481   1.231   8.841 -0.0036 -0.7452  0.4134
  680MOL0     C91703  12.396   1.198   8.969  0.1545 -0.0312 -0.6537
  680MOL0     C91704  12.303   1.081   8.952  0.4169 -0.7971  0.2560
  680MOL0     C91705  12.197   1.091   9.063  0.0684  0.4052 -0.8369
  680MOL0     C91706  12.071   1.006   9.051  0.9438 -1.0375 -0.3667
  680MOL0     C91707  12.106   0.863   9.039  0.2173  0.3072  0.7672
  680MOL0     C91708  12.165   0.800   9.153 -1.3476  0.0513 -0.5717
  680MOL0    Cl91709  12.156   0.631   9.148 -0.2011  0.6801 -0.3799
  680MOL0     C91710  12.090   1.454   8.722 -0.4294 -0.1885  0.2212
  680MOL0     C91711  11.953   1.461   8.692 -0.3525 -0.5135  0.4314
  680MOL0     O91712  11.743   1.211   8.426 -0.4564  0.0463  0.6472
  680MOL0     C91713  11.500   1.466   8.506  0.6079  0.4844 -1.1531
  680MOL0     C91714  11.365   1.504   8.507  0.1388 -0.2144 -0.5911
  680MOL0     N91715  10.590   1.439   8.385 -1.1408 -0.1776  0.1996
  680MOL0     N91716  10.488   1.466   8.304  0.3593  0.0824  0.6595
  680MOL0     C91717  11.186   1.169   7.845  0.5372  0.4484  0.3138
  680MOL0     C91718  11.280   1.077   7.790  1.0276 -0.7301 -1.3631
  680MOL0     C91719  11.497   0.702   7.710  0.9744 -0.6731 -0.2671
  680MOL0     C91720  11.574   0.746   7.589  0.4340  0.5601  0.5284
  680MOL0     C91721  11.688   0.678   7.539  0.0082 -0.2129 -0.1387
  680MOL0     C91722  11.725   0.558   7.599 -0.9576 -0.5425  0.7800
  680MOL0     O91723  11.828   0.503   7.528 -0.6067  0.0801 -0.1551
  680MOL0     C91724  11.854   0.371   7.554 -0.2045  0.1460  1.2905
  680MOL0     C91725  11.935   0.340   7.672  0.3143 -0.4144  0.8426
  680MOL0     C91726  12.049   0.442   7.689  0.0425 -0.1376  0.0321
  680MOL0     C91727  12.142   0.406   7.801 -0.4496 -0.6696  0.1501
  680MOL0     C91728  12.066   0.392   7.927 -0.2195 -0.9010  0.5155
  680MOL0     C91729  12.019   0.388   8.038  0.1838  0.5619  0.7671
  680MOL0     C91730  11.656   0.518   7.718  0.2141  0.3166  0.1994
  680MOL0     C91731  11.556   0.593   7.778  0.0703  0.9136 -0.6088
  680MOL0     C91732  11.508   0.549   7.922 -0.4357  0.2002 -0.4158
  680MOL0     H91733  11.082   0.854   7.651  0.3057 -0.7336 -0.0493
  680MOL0     H91734  10.907   1.008   7.734 -0.1263  1.7624  1.9694
  680MOL0     H91735  10.914   1.280   7.672  1.5888 -1.9253  0.1229
  680MOL0     H91736  10.794   1.321   7.800  0.3679  1.0738  0.1805
  680MOL0     H91737  10.921   1.506   7.704 -3.2371 -1.6191  0.1855
  680MOL0     H91738  11.072   1.457   7.784  0.0955 -0.4427 -2.5224
  680MOL0     H91739  10.993   1.601   7.934  1.2707 -1.4190  1.6406
  680MOL0     H91740  10.916   1.457   7.996 -1.3496  0.9881  0.7696
  680MOL0     H91741  10.759   1.627   7.801  1.7302 -0.1646 -0.9405
  680MOL0     H91742  10.707   1.480   7.885 -1.8080  0.7556 -0.2443
  680MOL0     H91743  10.674   1.593   8.096  1.4992  0.6938  0.9243
  680MOL0     H91744  10.779   1.725   8.045  2.3885 -1.8780  0.0667
  680MOL0     H91745  10.589   1.784   7.888  0.4111  0.3544  0.4718
  680MOL0     H91746  10.511   1.631   7.931  0.9269 -0.3887  1.3978
  680MOL0     H91747  10.397   1.839   8.031 -1.1363 -0.1349  0.0831
  680MOL0     H91748  10.530   1.845   8.145  4.3771 -3.1553 -0.5921
  680MOL0     H91749  10.329   1.724   8.236  0.8977 -0.7379  2.5288
  680MOL0     H91750  10.363   1.600   8.105  2.7080 -1.8804 -0.1941
  680MOL0     H91751  10.604   1.761   8.358  1.6662 -0.5380 -1.8738
  680MOL0     H91752  10.800   1.687   8.502  2.5890  0.2104  0.1615
  680MOL0     H91753  10.743   1.558   8.607  4.6907 -2.4470  0.9469
  680MOL0     H91754  10.971   1.545   8.547  0.8190  1.8286 -1.5977
  680MOL0     H91755  10.873   1.396   8.506 -0.0281  0.9696  3.0775
  680MOL0     H91756  10.958   1.586   8.285  3.8554 -1.2421  1.1884
  680MOL0     H91757  10.855   1.445   8.263 -0.1915  0.8831  0.0011
  680MOL0     H91758  11.092   1.439   8.205  1.2646 -3.4294 -1.0965
  680MOL0     H91759  11.060   1.317   8.323  1.5065 -0.0305  0.6811
  680MOL0     H91760  11.252   1.210   8.390 -0.6519  0.2742 -0.6565
  680MOL0     H91761  11.481   1.154   8.416 -0.5124 -0.3302  1.8125
  680MOL0     H91762  11.964   1.173   8.507  2.1343 -0.7668  1.7195
  680MOL0     H91763  12.177   1.160   8.604 -0.5022 -1.3166  1.5616
  680MOL0     H91764  12.347   1.155   8.696 -2.1683  1.3058  0.5149
  680MOL0     H91765  12.466   1.271   8.633  0.4935 -0.6215 -0.1960
  680MOL0     H91766  12.561   1.158   8.827  3.3272  2.5879  0.4480
  680MOL0     H91767  12.548   1.317   8.853 -2.9049  1.6855  0.3192
  680MOL0     H91768  12.457   1.198   9.060  3.8315 -1.3524 -2.9015
  680MOL0     H91769  12.341   1.289   8.992  0.1233  0.4763 -2.5641
  680MOL0     H91770  12.364   0.993   8.974  0.2205 -0.2595  3.3247
  680MOL0     H91771  12.255   1.067   8.855  1.6961  2.6640 -1.0143
  680MOL0     H91772  12.157   1.193   9.068 -2.5064 -0.5830  3.3392
  680MOL0     H91773  12.244   1.070   9.160 -0.5947 -0.0809 -0.6190
  680MOL0     H91774  12.011   1.012   9.142  1.6905  2.1064  0.0306
  680MOL0     H91775  12.011   1.043   8.968 -2.8106 -2.5451  1.4639
  680MOL0     H91776  12.172   0.839   8.955 -2.7777 -1.2773 -1.3430
  680MOL0     H91777  12.012   0.809   9.022  1.3413 -1.7901  0.9544
  680MOL0     H91778  12.269   0.831   9.167 -0.7045 -1.8635 -0.8747
  680MOL0     H91779  12.109   0.827   9.243 -3.3002 -2.2188 -1.0220
  680MOL0     H91780  12.144   1.531   8.775 -2.4719  2.5347 -1.3518
  680MOL0     H91781  11.893   1.544   8.727 -0.6489 -0.2845 -0.6065
  680MOL0     H91782  11.568   1.537   8.552  0.6034 -0.9388  1.1710
  680MOL0     H91783  11.330   1.598   8.550  3.2550  0.3492  0.9979
  680MOL0     H91784  11.223   1.252   7.904  0.6392 -1.4797  3.1297
  680MOL0     H91785  11.385   1.087   7.818  0.2835 -1.2822  2.0550
  680MOL0     H91786  11.544   0.836   7.537 -0.4506  0.6590  1.1984
  680MOL0     H91787  11.739   0.717   7.452  1.0863  3.2101  1.8267
  680MOL0     H91788  11.890   0.325   7.461 -1.9858 -1.7732  1.4684
  680MOL0     H91789  11.761   0.315   7.567  0.4718 -1.5032 -0.5068
  680MOL0     H91790  11.986   0.247   7.647  1.0093 -0.3500  1.9675
  680MOL0     H91791  11.880   0.342   7.767  1.0631  1.8052  1.2876
  680MOL0     H91792  11.997   0.536   7.709  1.6024  1.4467 -2.7164
  680MOL0     H91793  12.106   0.453   7.596 -2.4720 -3.0085 -2.0423
  680MOL0     H91794  12.179   0.307   7.773 -0.8477 -0.4129 -1.3698
  680MOL0     H91795  12.226   0.475   7.810  0.3703 -1.6132 -0.0705
  680MOL0     H91796  11.982   0.410   8.136  0.8514 -1.1152  1.4262
  680MOL0     H91797  11.679   0.428   7.773 -1.2290 -0.4722 -0.4424
  680MOL0     H91798  11.401   0.540   7.941 -0.1633  1.7541  2.4665
  680MOL0     H91799  11.551   0.452   7.951 -0.3717  0.0943 -0.8620
  680MOL0     H91800  11.561   0.617   7.989  2.4111 -1.4414 -0.8086
  681MOL0     O91801   7.456   4.994   5.291  0.8468  0.0154 -0.4888
  681MOL0     C91802   7.422   4.989   5.413  0.0018 -0.9478  0.6937
  681MOL0     O91803   7.431   5.094   5.500 -0.6187  0.0671  0.0314
  681MOL0     C91804   7.502   5.204   5.479  0.3036  0.0116  0.2518
  681MOL0     C91805   7.594   5.232   5.378  0.1913  0.3675  1.2125
  681MOL0     C91806   7.664   5.358   5.377  0.2107  0.6376  1.7205
  681MOL0     C91807   7.643   5.455   5.469  0.4682  0.0520 -0.4052
  681MOL0     O91808   7.729   5.562   5.461 -0.3554 -0.8446 -0.3216
  681MOL0     C91809   7.780   5.614   5.582 -0.4083 -0.4484  0.6065
  681MOL0     C91810   7.858   5.741   5.550 -0.1448  0.0367  0.9620
  681MOL0     C91811   7.929   5.785   5.678 -0.5743 -0.7576  0.4737
  681MOL0     C91812   7.959   5.685   5.790 -0.3565  0.3977 -0.4086
  681MOL0     C91813   8.080   5.607   5.764  0.7001 -0.1720 -0.4360
  681MOL0     C91814   8.214   5.680   5.816 -0.0158  0.0269 -0.2501
  681MOL0     C91815   8.332   5.665   5.715 -0.5570  0.0808 -0.8702
  681MOL0     C91816   8.377   5.514   5.680  0.1706  0.5716  0.6895
  681MOL0     N91817   8.393   5.443   5.801 -0.4941  0.3186 -0.0095
  681MOL0     C91818   8.310   5.346   5.851 -1.5745 -0.4259 -1.1563
  681MOL0     C91819   8.355   5.334   5.973  0.4702  0.6055  0.2534
  681MOL0     C91820   8.273   5.256   6.074 -0.7189 -0.0377 -0.0183
  681MOL0     C91821   8.164   5.173   6.017  0.3862 -0.2914  0.5814
  681MOL0     C91822   8.199   5.036   5.963 -0.7662 -0.7624 -0.0491
  681MOL0     C91823   8.257   4.941   6.062  0.0193  1.9192  0.3868
  681MOL0     O91824   8.247   4.801   6.018 -0.2190  0.2060 -0.9444
  681MOL0     C91825   8.328   4.709   6.093 -0.2297  0.6439  0.0242
  681MOL0     C91826   8.388   4.600   6.035 -0.2060 -0.3932 -0.7498
  681MOL0     C91827   8.474   4.523   6.115 -0.7164 -0.2888 -0.2040
  681MOL0     C91828   8.504   4.553   6.247 -0.0266  0.8676 -0.7359
  681MOL0     C91829   8.588   4.466   6.326 -0.3443  0.4833 -0.3692
  681MOL0     O91830   8.611   4.497   6.458 -0.5681 -0.0049 -0.0993
  681MOL0     C91831   8.721   4.440   6.516 -0.4528  1.1214  0.3122
  681MOL0     C91832   8.853   4.491   6.500  0.8163 -0.5746 -0.0809
  681MOL0     C91833   8.959   4.412   6.552  0.1984  0.3574 -0.7272
  681MOL0     C91834   8.936   4.295   6.620  0.0034  1.0990  0.5762
  681MOL0     O91835   9.036   4.216   6.671 -0.2145 -0.2941  0.3174
  681MOL0     C91836   9.179   4.244   6.663  1.1540  0.7714 -0.2692
  681MOL0     C91837   9.218   4.207   6.522 -0.2167  0.6888 -0.5911
  681MOL0     C91838   9.357   4.134   6.525 -0.3293 -0.3919 -0.0902
  681MOL0     C91839   9.468   4.202   6.604  0.7631 -0.2762  0.0616
  681MOL0     C91840   9.531   4.316   6.516  0.5722 -0.4815 -0.2937
  681MOL0     C91841   9.636   4.272   6.408  0.2098  0.6661 -0.3890
  681MOL0     C91842   9.754   4.200   6.474 -0.3989  0.3875 -0.1109
  681MOL0     C91843   9.872   4.189   6.378 -0.5803 -0.0043  0.2379
  681MOL0    Cl91844   9.985   4.063   6.434  0.4199 -0.1114  0.2180
  681MOL0     C91845   8.806   4.247   6.630  0.1285  1.1555  0.4922
  681MOL0     C91846   8.697   4.319   6.583  0.8083  1.0109  0.8746
  681MOL0     O91847   8.635   4.374   6.271  0.1540 -0.2369  0.4741
  681MOL0     C91848   8.447   4.660   6.313  0.0049 -0.3415 -0.1157
  681MOL0     C91849   8.369   4.745   6.226  1.1853  0.5592 -0.6045
  681MOL0     N91850   8.469   5.406   6.006 -0.5171  0.6588 -0.3936
  681MOL0     N91851   8.489   5.478   5.895  0.2071 -0.6627 -0.3997
  681MOL0     C91852   7.550   5.432   5.572 -0.3546  0.8626 -0.4755
  681MOL0     C91853   7.477   5.308   5.568 -0.0684 -0.1496  0.1514
  681MOL0     C91854   7.343   4.876   5.464 -0.4205 -0.3900 -0.4625
  681MOL0     C91855   7.235   4.895   5.548  0.2971 -0.0318  0.0561
  681MOL0     C91856   7.132   4.798   5.559  0.3623  0.0717 -0.0578
  681MOL0     C91857   7.151   4.678   5.500 -0.2279 -0.7869  0.3427
  681MOL0     O91858   7.048   4.587   5.490  0.7927 -0.0248  0.4518
  681MOL0     C91859   7.037   4.477   5.592  0.5515 -1.0256  0.1772
  681MOL0     C91860   7.135   4.367   5.563  0.3599  0.1568 -0.3160
  681MOL0     C91861   7.089   4.300   5.429  0.1023 -0.4160  0.0719
  681MOL0     C91862   6.955   4.233   5.416 -0.4189  0.3253 -0.5150
  681MOL0     C91863   6.883   4.279   5.296 -0.5195 -0.1862 -0.7093
  681MOL0     C91864   6.834   4.318   5.198  0.1084  0.4998  0.2183
  681MOL0     C91865   7.266   4.640   5.435  0.0074  0.0758 -0.7328
  681MOL0     C91866   7.358   4.746   5.407 -0.6599 -0.1248 -1.0973
  681MOL0     C91867   7.478   4.717   5.314 -0.5930  0.2466 -0.7327
  681MOL0     H91868   7.611   5.156   5.303 -3.5691  1.4502 -1.0063
  681MOL0     H91869   7.735   5.371   5.295 -3.1450  0.5085 -1.4391
  681MOL0     H91870   7.705   5.640   5.657 -0.6438 -2.4130  1.1192
  681MOL0     H91871   7.854   5.547   5.627  0.7188  0.0346 -0.4640
  681MOL0     H91872   7.789   5.822   5.527  1.3972  1.2233  0.3668
  681MOL0     H91873   7.934   5.729   5.473 -0.6235 -3.6647  0.8662
  681MOL0     H91874   7.856   5.851   5.726 -1.5476 -0.3707 -1.4442
  681MOL0     H91875   8.017   5.843   5.648 -3.1084  1.5490 -3.2658
  681MOL0     H91876   7.983   5.742   5.881  1.2949 -1.5341  0.4377
  681MOL0     H91877   7.872   5.623   5.814 -0.2370 -0.3984 -1.9049
  681MOL0     H91878   8.069   5.511   5.816 -0.6988  0.2991  0.1980
  681MOL0     H91879   8.080   5.582   5.657  1.1306  2.0255 -0.9917
  681MOL0     H91880   8.200   5.788   5.814  0.2182  0.0497 -0.8600
  681MOL0     H91881   8.238   5.629   5.910 -0.0578  1.5199  0.5991
  681MOL0     H91882   8.424   5.714   5.748  1.7222 -3.2134 -1.8279
  681MOL0     H91883   8.300   5.713   5.623 -1.7844  2.5323  0.7156
  681MOL0     H91884   8.297   5.463   5.625  0.6114 -0.0979  0.6608
  681MOL0     H91885   8.456   5.514   5.604 -1.4782 -1.6870 -1.1834
  681MOL0     H91886   8.225   5.299   5.803 -0.7499 -0.1158 -3.0131
  681MOL0     H91887   8.347   5.195   6.125  0.2205  0.9924 -0.1039
  681MOL0     H91888   8.234   5.326   6.149  0.4804  0.4436  0.1750
  681MOL0     H91889   8.091   5.161   6.098  1.1171  0.0927  1.3137
  681MOL0     H91890   8.103   5.226   5.943 -0.9170 -0.6916  1.3234
  681MOL0     H91891   8.269   5.059   5.882  0.0099  2.7142  1.4482
  681MOL0     H91892   8.105   4.993   5.927  0.1018 -0.1098 -3.5018
  681MOL0     H91893   8.201   4.950   6.156 -0.3675 -0.9820  0.5362
  681MOL0     H91894   8.361   4.967   6.080  1.4573 -2.6370  0.0719
  681MOL0     H91895   8.364   4.586   5.930 -2.3619 -0.3742 -0.2967
  681MOL0     H91896   8.511   4.429   6.076  2.5146  0.7523  0.0450
  681MOL0     H91897   8.883   4.584   6.454 -1.1241  1.0978  1.8566
  681MOL0     H91898   9.059   4.447   6.528  0.6181  1.0149  1.7471
  681MOL0     H91899   9.202   4.349   6.685 -0.3885  0.3861  4.1669
  681MOL0     H91900   9.218   4.179   6.742  2.0276  0.8185 -0.6424
  681MOL0     H91901   9.138   4.142   6.485 -0.0710  0.6301 -0.8089
  681MOL0     H91902   9.230   4.295   6.459  3.4025  0.6292 -0.2099
  681MOL0     H91903   9.347   4.034   6.569  3.1558 -1.6991 -1.8657
  681MOL0     H91904   9.395   4.126   6.423 -1.9455  2.0741 -0.9574
  681MOL0     H91905   9.534   4.129   6.651  1.8880  1.1269  0.7414
  681MOL0     H91906   9.414   4.245   6.689 -0.9318  0.5354 -1.3650
  681MOL0     H91907   9.560   4.400   6.579 -1.5428 -0.2195  0.4059
  681MOL0     H91908   9.455   4.353   6.447  0.8668 -1.0976 -0.9649
  681MOL0     H91909   9.586   4.198   6.345 -0.2493 -1.6749  2.4683
  681MOL0     H91910   9.668   4.350   6.338 -0.0871  0.5900 -0.6084
  681MOL0     H91911   9.718   4.098   6.492 -1.5768 -0.0583 -4.0875
  681MOL0     H91912   9.773   4.248   6.570 -5.6598  2.7473  0.0682
  681MOL0     H91913   9.829   4.158   6.282 -1.4606 -0.4990  0.7734
  681MOL0     H91914   9.925   4.284   6.370  1.3280 -0.8305  2.2456
  681MOL0     H91915   8.795   4.147   6.671 -1.2513  1.2842  0.4692
  681MOL0     H91916   8.600   4.272   6.594  1.6510 -0.4827  2.2826
  681MOL0     H91917   8.453   4.692   6.417 -3.5605 -0.7826  0.3582
  681MOL0     H91918   8.328   4.834   6.273  1.3303  0.1795  0.2662
  681MOL0     H91919   7.527   5.508   5.646 -2.6841  0.3515 -0.5999
  681MOL0     H91920   7.408   5.286   5.649  1.3907 -1.1549  1.1808
  681MOL0     H91921   7.220   4.996   5.584  1.1194  1.3229 -3.0233
  681MOL0     H91922   7.037   4.829   5.602  0.3022  3.3821 -2.1924
  681MOL0     H91923   6.934   4.439   5.589 -0.1165  0.6802  0.0175
  681MOL0     H91924   7.064   4.517   5.690 -0.2505 -3.9790  1.7107
  681MOL0     H91925   7.134   4.290   5.640 -5.2462  0.1682  0.0579
  681MOL0     H91926   7.231   4.409   5.532 -0.7198  0.3787 -3.8341
  681MOL0     H91927   7.165   4.226   5.401  2.2964  0.7591  2.4049
  681MOL0     H91928   7.100   4.372   5.347  0.7473 -0.9511 -0.3183
  681MOL0     H91929   6.966   4.126   5.397 -0.2971  0.5871 -2.0555
  681MOL0     H91930   6.896   4.237   5.508  1.1091  2.5829  0.4669
  681MOL0     H91931   6.768   4.345   5.118  0.0967  4.3366  1.3303
  681MOL0     H91932   7.252   4.552   5.373  3.0266 -0.4229 -0.8327
  681MOL0     H91933   7.448   4.747   5.213 -2.1559  0.1162 -0.3388
  681MOL0     H91934   7.567   4.774   5.341  0.1724 -0.6024 -1.3949
  681MOL0     H91935   7.516   4.614   5.311 -1.0417  0.0740 -3.2700
  682MOL0     O91936   5.813   8.224   2.668  0.1561  0.0560 -0.8675
  682MOL0     C91937   5.870   8.306   2.598  0.1443 -0.5356  0.7494
  682MOL0     O91938   6.002   8.320   2.583  1.2612  0.6158 -0.1063
  682MOL0     C91939   6.085   8.246   2.667 -1.1038 -0.0398 -0.1873
  682MOL0     C91940   6.201   8.195   2.610 -0.0200  0.2974 -0.1544
  682MOL0     C91941   6.306   8.127   2.682 -0.4602 -1.0192  0.4883
  682MOL0     C91942   6.287   8.113   2.815 -0.6865  0.0630  0.0216
  682MOL0     O91943   6.389   8.049   2.874 -0.7245 -1.1373  0.1901
  682MOL0     C91944   6.379   8.014   3.017  0.3635  0.0603 -0.2405
  682MOL0     C91945   6.501   7.926   3.047 -1.2409  0.4380  0.3480
  682MOL0     C91946   6.510   7.923   3.204 -0.2936 -0.2189  0.5854
  682MOL0     C91947   6.646   7.862   3.243 -0.3533 -0.3840 -0.5912
  682MOL0     C91948   6.764   7.965   3.242  0.1858  1.0581 -0.2918
  682MOL0     C91949   6.898   7.900   3.280 -0.2167  0.2990 -0.6578
  682MOL0     C91950   6.920   7.834   3.415  0.0627 -0.3401  0.2321
  682MOL0     C91951   7.062   7.815   3.464 -0.2154 -0.9284 -0.3651
  682MOL0     N91952   7.130   7.709   3.392 -0.3458  0.4162 -0.2015
  682MOL0     C91953   7.175   7.590   3.439  0.4376 -0.1948 -0.7014
  682MOL0     C91954   7.242   7.533   3.337  0.8508  0.7942  0.4052
  682MOL0     C91955   7.341   7.415   3.339 -0.6090 -0.3624  0.5774
  682MOL0     C91956   7.485   7.463   3.322  1.3453 -0.5376 -0.5764
  682MOL0     C91957   7.599   7.380   3.396  0.3192  0.5852 -0.1435
  682MOL0     C91958   7.691   7.467   3.489 -0.1131 -0.3233  0.6598
  682MOL0     O91959   7.777   7.570   3.423 -0.0242  0.0698  1.1566
  682MOL0     C91960   7.876   7.528   3.347  0.2108  0.2005  1.0362
  682MOL0     C91961   7.923   7.620   3.248 -0.9917 -0.8443 -0.5996
  682MOL0     C91962   8.026   7.597   3.155 -0.9880  0.6034  0.1197
  682MOL0     C91963   8.080   7.465   3.160 -0.2072  0.4468  0.0529
  682MOL0     C91964   8.176   7.429   3.052  0.7603 -0.9124 -0.5080
  682MOL0     O91965   8.272   7.330   3.077  0.3434 -0.4562  0.8550
  682MOL0     C91966   8.380   7.308   2.993 -0.3432 -0.0521  1.4604
  682MOL0     C91967   8.383   7.192   2.906 -1.0538  0.1038 -0.8951
  682MOL0     C91968   8.508   7.156   2.832 -0.8462 -0.3055 -0.7595
  682MOL0     C91969   8.612   7.254   2.821  0.3346 -0.4617 -0.0495
  682MOL0     O91970   8.710   7.228   2.735 -1.1917 -0.3200 -0.2063
  682MOL0     C91971   8.804   7.320   2.685  0.1411 -1.4652 -0.5550
  682MOL0     C91972   8.886   7.265   2.566 -1.2297 -0.3532  0.1136
  682MOL0     C91973   9.002   7.361   2.539 -0.2288  0.6555 -0.0454
  682MOL0     C91974   9.112   7.287   2.453 -0.3532  0.6418  0.8436
  682MOL0     C91975   9.243   7.367   2.423  0.1813  0.1726 -0.5655
  682MOL0     C91976   9.224   7.478   2.315  0.6724  0.3882 -0.3409
  682MOL0     C91977   9.351   7.551   2.286  0.7850 -0.4918  0.3106
  682MOL0     C91978   9.324   7.668   2.205  0.0158  0.6968 -0.1518
  682MOL0    Cl91979   9.479   7.746   2.147  0.1422 -0.0092 -0.0934
  682MOL0     C91980   8.607   7.362   2.908  0.7464  0.2758  0.6658
  682MOL0     C91981   8.493   7.390   2.993 -0.1970 -0.3375  0.4525
  682MOL0     O91982   8.159   7.494   2.949 -0.0560  0.0775 -0.7870
  682MOL0     C91983   8.043   7.376   3.262  0.4716  1.0376 -0.3343
  682MOL0     C91984   7.933   7.401   3.348 -0.6073  0.1052 -0.6926
  682MOL0     N91985   7.218   7.611   3.224  0.3187 -0.5555 -0.0712
  682MOL0     N91986   7.157   7.719   3.257 -0.0506 -0.5269  0.4291
  682MOL0     C91987   6.170   8.156   2.879 -0.0257  0.7273  1.0619
  682MOL0     C91988   6.085   8.239   2.809  0.3427  0.0024  0.7781
  682MOL0     C91989   5.794   8.434   2.573 -0.3695  0.3125  0.4040
  682MOL0     C91990   5.864   8.566   2.565 -0.0999  0.6334  0.6763
  682MOL0     C91991   5.798   8.682   2.532 -0.1647  0.6968  0.9176
  682MOL0     C91992   5.661   8.674   2.509  0.2617  0.3109  0.3699
  682MOL0     O91993   5.583   8.781   2.478 -0.1032 -0.5202 -0.2015
  682MOL0     C91994   5.636   8.912   2.499  0.2620 -0.4206 -0.7734
  682MOL0     C91995   5.624   8.947   2.655  0.1319 -1.1045  0.1338
  682MOL0     C91996   5.481   8.969   2.708  0.4114 -0.0824 -0.1088
  682MOL0     C91997   5.410   8.837   2.746 -0.1299  0.0191  0.2277
  682MOL0     C91998   5.274   8.867   2.792  0.9209  0.0040  0.6653
  682MOL0     C91999   5.160   8.873   2.838 -0.3871 -0.3972 -1.7444
  682MOL0     C92000   5.587   8.553   2.507 -0.5296 -0.0078 -0.1765
  682MOL0     C92001   5.655   8.431   2.533  1.0554  0.1671 -0.1864
  682MOL0     C92002   5.568   8.306   2.506 -0.0685 -0.5079 -0.4406
  682MOL0     H92003   6.208   8.228   2.507  1.1330 -1.0766 -0.5510
  682MOL0     H92004   6.388   8.087   2.623  0.1520 -0.5919  1.0364
  682MOL0     H92005   6.376   8.099   3.086 -1.7558 -1.3234  1.5082
  682MOL0     H92006   6.287   7.961   3.043  1.0583 -0.3553  1.5042
  682MOL0     H92007   6.586   7.962   2.988 -0.7330 -0.1650  0.6968
  682MOL0     H92008   6.493   7.820   3.018 -1.9257  1.2776 -2.9476
  682MOL0     H92009   6.439   7.849   3.242  1.8130 -3.2967 -1.1190
  682MOL0     H92010   6.484   8.022   3.244  0.0934 -0.6534  1.9636
  682MOL0     H92011   6.639   7.826   3.346 -0.6127  0.4551 -0.3002
  682MOL0     H92012   6.677   7.777   3.183 -1.0154 -0.6539 -0.5529
  682MOL0     H92013   6.780   8.003   3.141 -1.5670 -1.1207 -1.4747
  682MOL0     H92014   6.732   8.051   3.301 -4.1895 -1.0506  0.8038
  682MOL0     H92015   6.929   7.827   3.205  0.2968 -0.6902  0.4926
  682MOL0     H92016   6.978   7.974   3.285  0.2946 -0.3381  2.3868
  682MOL0     H92017   6.876   7.734   3.408  1.3115 -0.7754 -3.6798
  682MOL0     H92018   6.869   7.898   3.488 -1.2891 -1.5620  0.3943
  682MOL0     H92019   7.117   7.910   3.455  0.3321 -1.1192  0.8051
  682MOL0     H92020   7.056   7.795   3.571  0.1550  1.4929  0.1816
  682MOL0     H92021   7.193   7.560   3.542 -1.3208  0.0735 -0.2764
  682MOL0     H92022   7.324   7.341   3.418  1.4047 -1.4167  0.0821
  682MOL0     H92023   7.321   7.371   3.241 -0.3239  1.2913 -0.2535
  682MOL0     H92024   7.505   7.470   3.214  0.9698 -0.1201 -0.6175
  682MOL0     H92025   7.486   7.562   3.367  0.3391 -0.9306  0.3460
  682MOL0     H92026   7.667   7.341   3.320  2.0965  1.9385  0.6706
  682MOL0     H92027   7.555   7.296   3.452  0.8152  0.0750 -0.5182
  682MOL0     H92028   7.759   7.394   3.534 -0.9453 -2.6898 -1.6692
  682MOL0     H92029   7.619   7.502   3.563 -2.8031 -1.5034 -1.2486
  682MOL0     H92030   7.872   7.715   3.238 -0.3377 -0.6251 -2.0499
  682MOL0     H92031   8.060   7.681   3.096  1.2981 -0.5661 -0.3482
  682MOL0     H92032   8.299   7.124   2.920 -1.5389  1.2958  3.5121
  682MOL0     H92033   8.511   7.065   2.771 -1.1509 -0.5251 -0.4518
  682MOL0     H92034   8.747   7.404   2.645 -2.8060 -2.9859  0.1274
  682MOL0     H92035   8.866   7.360   2.765 -1.2370  1.6031 -0.9058
  682MOL0     H92036   8.921   7.164   2.588 -1.5710 -1.1430 -2.5842
  682MOL0     H92037   8.824   7.259   2.477 -0.0628  0.3703 -0.7793
  682MOL0     H92038   8.972   7.450   2.484 -1.2934  1.4619  1.7524
  682MOL0     H92039   9.054   7.386   2.632  1.8519  2.4156 -1.5959
  682MOL0     H92040   9.063   7.255   2.360  4.8916 -1.2306 -1.6962
  682MOL0     H92041   9.132   7.195   2.507 -0.9933  0.2959  0.5058
  682MOL0     H92042   9.317   7.298   2.381  1.2939  0.3883  0.9478
  682MOL0     H92043   9.281   7.419   2.512 -1.1632  1.5301 -0.7500
  682MOL0     H92044   9.182   7.444   2.221  1.8370  2.2979 -1.6181
  682MOL0     H92045   9.146   7.547   2.351  0.3791 -0.3820  0.5514
  682MOL0     H92046   9.411   7.486   2.222 -0.1172 -0.8740 -0.1727
  682MOL0     H92047   9.389   7.584   2.383  1.3299 -0.2682  0.0218
  682MOL0     H92048   9.258   7.647   2.121  0.7446  0.1114 -0.5911
  682MOL0     H92049   9.276   7.735   2.277 -1.2995 -0.2082 -0.1503
  682MOL0     H92050   8.693   7.429   2.908 -1.3143  3.2054 -1.3773
  682MOL0     H92051   8.496   7.464   3.072 -1.9986 -1.5208  1.6919
  682MOL0     H92052   8.086   7.277   3.260 -4.4594 -1.5212  2.0745
  682MOL0     H92053   7.926   7.332   3.431  0.6856  0.1869 -0.4996
  682MOL0     H92054   6.144   8.144   2.983 -2.0763 -0.7939  0.4493
  682MOL0     H92055   5.996   8.273   2.861  0.8949 -0.6149  2.1657
  682MOL0     H92056   5.970   8.545   2.575 -0.6647 -1.7061  3.1157
  682MOL0     H92057   5.862   8.769   2.520 -0.8922  1.0209 -0.9102
  682MOL0     H92058   5.584   8.980   2.431 -0.0324 -1.4450 -1.5970
  682MOL0     H92059   5.742   8.916   2.475  0.4278 -2.7322 -0.6921
  682MOL0     H92060   5.680   9.039   2.677 -1.0085 -0.7646  1.8109
  682MOL0     H92061   5.666   8.869   2.719 -1.3651 -0.4743  1.9960
  682MOL0     H92062   5.428   9.027   2.632  0.8418  0.4103 -0.0395
  682MOL0     H92063   5.484   9.033   2.797  1.4422 -0.0203 -0.1794
  682MOL0     H92064   5.418   8.765   2.664  1.0891  1.6503 -1.1484
  682MOL0     H92065   5.463   8.791   2.830  0.3932  3.1986  1.7995
  682MOL0     H92066   5.071   8.868   2.897 -0.3548  0.5120 -1.6048
  682MOL0     H92067   5.483   8.557   2.476 -0.6954  0.5479  0.4371
  682MOL0     H92068   5.460   8.321   2.511 -0.5730 -2.8997 -2.2304
  682MOL0     H92069   5.596   8.265   2.409  1.8970 -0.3382  0.0040
  682MOL0     H92070   5.597   8.224   2.572 -0.2546 -0.4227 -0.2525
  683MOL0     O92071   0.886   7.718   2.932  0.3991 -0.4299 -0.1839
  683MOL0     C92072   0.970   7.637   2.952 -0.0528 -0.1468 -0.5959
  683MOL0     O92073   1.095   7.659   3.009 -0.2326 -0.4326  0.0342
  683MOL0     C92074   1.131   7.794   3.038 -0.0188  1.1297 -0.5219
  683MOL0     C92075   1.189   7.880   2.941  0.3428 -0.1710 -0.1719
  683MOL0     C92076   1.228   8.011   2.976 -0.0137 -0.1278  0.0340
  683MOL0     C92077   1.205   8.061   3.107  0.5428  0.7684 -0.8964
  683MOL0     O92078   1.252   8.195   3.123  0.0460  0.0312  0.6380
  683MOL0     C92079   1.266   8.250   3.252  1.2082  0.0253 -0.1859
  683MOL0     C92080   1.247   8.396   3.234  0.1347  1.0871  0.5129
  683MOL0     C92081   1.249   8.454   3.373 -0.5851  1.1406  0.1861
  683MOL0     C92082   1.194   8.602   3.396 -1.0300  0.2524  0.7068
  683MOL0     C92083   1.044   8.595   3.380 -0.8701  0.2514  0.0315
  683MOL0     C92084   0.975   8.734   3.398 -0.0770  0.3371 -0.2676
  683MOL0     C92085   1.011   8.811   3.526 -0.1632  1.0905  0.4163
  683MOL0     C92086   0.956   8.747   3.651 -0.5926  0.6431 -0.5233
  683MOL0     N92087   0.968   8.841   3.773  0.6071  0.3206  0.4216
  683MOL0     C92088   0.916   8.970   3.772  0.0883  0.2928  0.1572
  683MOL0     C92089   0.912   8.999   3.904 -0.1279 -0.0334 -0.2043
  683MOL0     C92090   0.834   9.117   3.955 -0.1144 -0.2011 -0.8302
  683MOL0     C92091   0.685   9.091   3.981  0.1831 -0.2469  0.4632
  683MOL0     C92092   0.600   8.998   3.890  1.1621  0.1411  0.5250
  683MOL0     C92093   0.447   9.002   3.918 -0.0564  1.0930  0.7184
  683MOL0     O92094   0.390   9.125   3.875 -0.3443 -0.0262  0.2104
  683MOL0     C92095   0.267   9.167   3.934 -0.6319  0.3521  0.4877
  683MOL0     C92096   0.234   9.306   3.956  0.4463  1.0044  0.5631
  683MOL0     C92097   0.112   9.344   4.011 -0.7527  0.3011  0.1153
  683MOL0     C92098   0.016   9.249   4.049  0.1163 -0.0836  0.2545
  683MOL0     C92099  -0.115   9.310   4.101  0.4860  0.2517  0.6286
  683MOL0     O92100  -0.216   9.226   4.097  0.1927 -0.8484  0.7527
  683MOL0     C92101  -0.329   9.266   4.167 -1.7905  0.2975  0.0778
  683MOL0     C92102  -0.455   9.274   4.099 -0.3644 -0.0644 -0.4474
  683MOL0     C92103  -0.574   9.305   4.172  0.0155 -0.1713 -0.5134
  683MOL0     C92104  -0.564   9.330   4.311 -0.4236 -0.1340 -0.0995
  683MOL0     O92105  -0.679   9.374   4.373 -0.1495  0.3964  0.0622
  683MOL0     C92106  -0.711   9.316   4.506  0.3856  0.3617 -0.1065
  683MOL0     C92107  -0.825   9.401   4.571 -0.8424  0.0191  0.4952
  683MOL0     C92108  -0.837   9.388   4.717 -0.3204  0.3519  0.6460
  683MOL0     C92109  -0.952   9.473   4.763 -0.1950  0.1535 -0.3825
  683MOL0     C92110  -0.976   9.461   4.918  0.2200 -0.4618 -0.0011
  683MOL0     C92111  -0.858   9.527   4.997  0.0220 -0.1471  0.1733
  683MOL0     C92112  -0.888   9.555   5.142  0.0527 -0.2880  0.2430
  683MOL0     C92113  -0.780   9.471   5.222  0.4284 -0.7986 -0.0926
  683MOL0    Cl92114  -0.821   9.426   5.388  0.3137 -0.3143  0.1069
  683MOL0     C92115  -0.438   9.336   4.378  0.2466  0.4668 -0.0453
  683MOL0     C92116  -0.325   9.295   4.307 -0.1764 -0.3140  0.8829
  683MOL0     O92117  -0.121   9.428   4.129 -0.4527  0.2015 -0.0624
  683MOL0     C92118   0.042   9.115   4.011  0.3029 -1.0705  0.5348
  683MOL0     C92119   0.167   9.077   3.971  0.6265 -0.8095 -1.0206
  683MOL0     N92120   0.965   8.899   3.985 -0.4430 -0.5684  0.3908
  683MOL0     N92121   1.010   8.815   3.901 -0.1338  1.0301 -0.4868
  683MOL0     C92122   1.143   7.978   3.204  0.8864 -0.5116  0.0100
  683MOL0     C92123   1.110   7.849   3.174  0.1993  0.4997 -0.2042
  683MOL0     C92124   0.933   7.501   2.916 -0.2277  0.2579  1.0938
  683MOL0     C92125   0.799   7.463   2.916  0.5494 -0.1107 -0.8569
  683MOL0     C92126   0.756   7.337   2.908 -0.1772  0.2084 -0.1496
  683MOL0     C92127   0.848   7.232   2.913  0.5206 -0.6320  0.5298
  683MOL0     O92128   0.806   7.099   2.910 -0.0775 -0.4559 -0.1442
  683MOL0     C92129   0.859   7.009   3.004 -0.3575  0.3427 -0.2455
  683MOL0     C92130   0.789   6.873   2.983  0.0976 -0.0708  0.2367
  683MOL0     C92131   0.852   6.803   2.867 -0.2869  0.1992 -0.4527
  683MOL0     C92132   0.994   6.732   2.901  0.3848 -0.1651 -0.2324
  683MOL0     C92133   1.042   6.671   2.779 -0.7452 -0.7853  0.1574
  683MOL0     C92134   1.083   6.606   2.683 -0.3844  1.0554  0.4436
  683MOL0     C92135   0.981   7.257   2.924  0.7852 -0.5942 -0.3541
  683MOL0     C92136   1.030   7.394   2.912  0.4823  0.0584  0.2130
  683MOL0     C92137   1.180   7.422   2.903  0.0289  0.7083  0.0691
  683MOL0     H92138   1.208   7.831   2.846 -1.7567  0.5996 -1.0428
  683MOL0     H92139   1.289   8.064   2.903 -0.2120  1.2495  0.8442
  683MOL0     H92140   1.196   8.214   3.327  1.7595 -0.2082  0.2240
  683MOL0     H92141   1.366   8.229   3.291  0.9975  1.3088  1.1225
  683MOL0     H92142   1.155   8.425   3.183  0.1144  1.5663  0.8164
  683MOL0     H92143   1.333   8.436   3.179 -0.1995  4.1029  2.0263
  683MOL0     H92144   1.349   8.441   3.415  1.1741  2.1717 -3.2684
  683MOL0     H92145   1.194   8.399   3.450 -3.2093 -1.5781 -3.3003
  683MOL0     H92146   1.212   8.632   3.499 -1.2005 -0.0118  0.8154
  683MOL0     H92147   1.246   8.666   3.324  1.5076 -0.9951  1.3321
  683MOL0     H92148   1.007   8.545   3.290 -1.9274  0.0786  0.5437
  683MOL0     H92149   1.005   8.530   3.460  0.6266  0.4038  0.9295
  683MOL0     H92150   0.994   8.795   3.309 -0.8242  0.3692 -0.4146
  683MOL0     H92151   0.867   8.714   3.396  0.0505 -0.4347  0.0358
  683MOL0     H92152   0.974   8.913   3.510 -2.2934  0.3352  0.3242
  683MOL0     H92153   1.120   8.825   3.529  0.4891 -2.8951  1.3744
  683MOL0     H92154   0.853   8.718   3.631  0.3379 -2.9140 -0.8857
  683MOL0     H92155   1.008   8.657   3.685  0.0579  1.5713  1.0560
  683MOL0     H92156   0.871   9.024   3.689  0.5314  1.7984  0.8439
  683MOL0     H92157   0.892   9.147   4.043  0.7017  0.9293 -1.7231
  683MOL0     H92158   0.859   9.190   3.877  6.4388 -0.4286  0.5020
  683MOL0     H92159   0.685   9.049   4.082 -0.3289  0.7641  0.8999
  683MOL0     H92160   0.630   9.186   3.985 -0.9301 -0.9027  1.8351
  683MOL0     H92161   0.641   8.897   3.900  4.0048  1.1700  0.2895
  683MOL0     H92162   0.615   9.028   3.786 -2.1385 -0.1228 -0.1374
  683MOL0     H92163   0.430   8.989   4.025 -1.3460  0.0226  0.4041
  683MOL0     H92164   0.397   8.918   3.871 -2.2450  2.6165  0.1744
  683MOL0     H92165   0.309   9.380   3.928  0.9677 -0.3736 -2.0605
  683MOL0     H92166   0.091   9.451   4.015  1.3151  0.7910 -0.5766
  683MOL0     H92167  -0.463   9.239   3.997 -1.6608  0.5690 -0.5730
  683MOL0     H92168  -0.670   9.310   4.122 -0.1615  0.7601 -0.1085
  683MOL0     H92169  -0.738   9.211   4.497 -0.9273  0.5714  0.9847
  683MOL0     H92170  -0.629   9.326   4.579 -0.5442 -0.3608  1.0835
  683MOL0     H92171  -0.788   9.502   4.551  0.2297 -0.5283 -0.4576
  683MOL0     H92172  -0.920   9.381   4.520 -1.5508 -2.2764  2.5640
  683MOL0     H92173  -0.839   9.282   4.743  2.0858 -0.7083 -2.7892
  683MOL0     H92174  -0.743   9.423   4.759 -0.1513 -1.9483  2.3184
  683MOL0     H92175  -1.046   9.431   4.726 -0.3437 -1.4053  1.5908
  683MOL0     H92176  -0.944   9.573   4.719  0.7193  0.3151  0.1234
  683MOL0     H92177  -0.994   9.355   4.935 -0.7856 -0.4178 -0.7268
  683MOL0     H92178  -1.068   9.513   4.944  1.2938  1.2514  0.5549
  683MOL0     H92179  -0.772   9.461   4.985 -1.4296 -2.3406  0.9633
  683MOL0     H92180  -0.847   9.624   4.948  1.3277 -0.9181 -1.1288
  683MOL0     H92181  -0.987   9.520   5.174  0.1504  0.6838  1.6940
  683MOL0     H92182  -0.891   9.662   5.163 -0.8880 -0.5236  1.4453
  683MOL0     H92183  -0.774   9.371   5.177  0.5789 -1.5082  1.4608
  683MOL0     H92184  -0.684   9.522   5.213 -0.9125  2.4565  2.2767
  683MOL0     H92185  -0.435   9.366   4.482  0.2393  3.6627 -0.8675
  683MOL0     H92186  -0.223   9.298   4.345  0.3962 -0.6585 -0.5676
  683MOL0     H92187  -0.045   9.049   4.012 -0.5449  0.0067  0.1338
  683MOL0     H92188   0.174   8.974   3.939 -0.8230 -1.1423 -0.3775
  683MOL0     H92189   1.128   8.011   3.306  1.0672 -0.2160 -0.0569
  683MOL0     H92190   1.067   7.777   3.243 -1.6193 -0.1098 -1.8555
  683MOL0     H92191   0.721   7.536   2.935  0.4569 -0.5537  0.6089
  683MOL0     H92192   0.649   7.322   2.892 -0.2894  1.2570 -0.4731
  683MOL0     H92193   0.825   7.040   3.103 -4.3491 -2.7620 -0.4007
  683MOL0     H92194   0.968   6.993   3.003 -0.6570 -2.0135 -0.2961
  683MOL0     H92195   0.686   6.897   2.958  0.7550  2.1194 -0.6419
  683MOL0     H92196   0.801   6.800   3.063  2.0902 -1.2204 -1.0329
  683MOL0     H92197   0.849   6.866   2.777 -2.3321  4.4710  2.2923
  683MOL0     H92198   0.785   6.720   2.845 -0.0862 -0.6818  1.9905
  683MOL0     H92199   1.070   6.806   2.925  2.2673 -2.3091  0.7332
  683MOL0     H92200   0.975   6.656   2.977  0.2026 -0.8956 -0.9967
  683MOL0     H92201   1.107   6.547   2.597 -2.2572 -1.9703  1.8243
  683MOL0     H92202   1.059   7.181   2.927 -1.6267 -3.4161 -2.7032
  683MOL0     H92203   1.219   7.342   2.839 -1.6379  0.1131 -0.2346
  683MOL0     H92204   1.205   7.517   2.855 -0.3261  1.2057  0.8482
  683MOL0     H92205   1.227   7.420   3.002 -1.7244  0.3039  0.9259
  684MOL0     O92206   8.347   5.553   7.748  0.5010  0.0238  0.1197
  684MOL0     C92207   8.362   5.634   7.828  0.7531 -1.4198 -0.4682
  684MOL0     O92208   8.323   5.767   7.817 -0.5740 -0.1130 -1.1148
  684MOL0     C92209   8.264   5.797   7.701 -0.3699 -0.3158  0.6011
  684MOL0     C92210   8.335   5.833   7.588  0.1567 -0.5797  0.7961
  684MOL0     C92211   8.286   5.863   7.462  0.2213 -0.1789  0.3078
  684MOL0     C92212   8.136   5.874   7.450  0.1175 -0.0507 -0.4828
  684MOL0     O92213   8.066   5.923   7.339  0.2693  0.0058 -0.0448
  684MOL0     C92214   8.130   5.930   7.214  0.2617 -0.3807  0.5754
  684MOL0     C92215   8.039   6.022   7.115  0.2316 -0.0666  0.3173
  684MOL0     C92216   7.913   5.941   7.052 -0.0409 -0.3872  0.1807
  684MOL0     C92217   7.811   5.921   7.162  1.2766 -0.1114 -1.2715
  684MOL0     C92218   7.683   5.856   7.104  0.2491 -0.1409  0.6322
  684MOL0     C92219   7.567   5.821   7.202 -0.7065  0.0396 -0.5228
  684MOL0     C92220   7.467   5.735   7.125  1.2305 -0.1059  0.2652
  684MOL0     C92221   7.338   5.710   7.206 -0.5617  0.7459  0.7925
  684MOL0     N92222   7.275   5.830   7.262 -0.5848 -0.5553 -0.3806
  684MOL0     C92223   7.273   5.869   7.397  0.8286 -0.5222 -0.1421
  684MOL0     C92224   7.221   5.992   7.394 -0.3571  0.7228  0.1318
  684MOL0     C92225   7.198   6.084   7.510  0.4062  0.7761  0.9340
  684MOL0     C92226   7.050   6.136   7.504 -0.4880 -0.1673 -0.2887
  684MOL0     C92227   7.030   6.246   7.610 -0.3325  0.1606 -0.6287
  684MOL0     C92228   6.890   6.301   7.619  0.1633  0.0967  0.2194
  684MOL0     O92229   6.884   6.429   7.688  0.1590  0.5290  0.1934
  684MOL0     C92230   6.918   6.435   7.818 -0.0974  0.0018  0.2032
  684MOL0     C92231   6.940   6.566   7.866 -0.2464 -0.7248  0.3613
  684MOL0     C92232   6.958   6.596   8.003 -0.0371  0.8195  0.0899
  684MOL0     C92233   6.921   6.496   8.096 -0.5635 -0.2095 -0.1720
  684MOL0     C92234   6.915   6.532   8.239 -0.1578 -0.0232 -0.4842
  684MOL0     O92235   6.938   6.656   8.272  0.7556  0.2372 -0.0453
  684MOL0     C92236   6.935   6.701   8.405  0.3833 -0.6267  0.6048
  684MOL0     C92237   7.007   6.822   8.427 -0.1342 -0.1997  0.0943
  684MOL0     C92238   7.004   6.875   8.548  0.8087 -0.9898  0.2214
  684MOL0     C92239   6.941   6.807   8.655  0.3210  0.5089  0.2152
  684MOL0     O92240   6.942   6.843   8.784  0.0078 -0.0620 -0.0310
  684MOL0     C92241   7.033   6.950   8.818  0.6468  1.1326 -0.8370
  684MOL0     C92242   7.057   6.955   8.967  0.5139 -0.7667  0.0612
  684MOL0     C92243   6.926   6.927   9.034  0.4328 -0.0032  0.1990
  684MOL0     C92244   6.894   6.988   9.164 -0.1670 -0.6804 -0.7234
  684MOL0     C92245   6.755   6.957   9.202 -0.0366 -0.8013  0.8287
  684MOL0     C92246   6.724   6.818   9.249  0.4374 -0.2507 -0.3629
  684MOL0     C92247   6.581   6.798   9.312 -0.1699  0.1738  0.4952
  684MOL0     C92248   6.504   6.730   9.204  0.3891 -0.3593 -0.3792
  684MOL0    Cl92249   6.549   6.563   9.182 -0.3184 -0.2621  0.2818
  684MOL0     C92250   6.887   6.681   8.639  0.4389  0.2843 -0.4460
  684MOL0     C92251   6.873   6.634   8.513  0.4185  0.6639 -0.6624
  684MOL0     O92252   6.882   6.435   8.310  0.9279 -0.3949  0.5334
  684MOL0     C92253   6.911   6.367   8.054 -0.6951 -0.0652  0.2552
  684MOL0     C92254   6.897   6.331   7.915  0.7696  0.4766  0.2408
  684MOL0     N92255   7.183   6.018   7.264 -1.4923  0.1152 -0.0622
  684MOL0     N92256   7.217   5.929   7.188  0.2312  0.5020  0.7164
  684MOL0     C92257   8.063   5.847   7.562  0.1211 -0.3619 -0.3146
  684MOL0     C92258   8.131   5.811   7.685  1.4489 -0.5256  0.6339
  684MOL0     C92259   8.404   5.599   7.965 -0.2171 -0.9004 -0.2271
  684MOL0     C92260   8.484   5.696   8.032 -0.4205  1.0877 -0.3731
  684MOL0     C92261   8.519   5.659   8.168 -0.8136  0.5764  0.2475
  684MOL0     C92262   8.487   5.537   8.232  0.6885 -0.2845  0.5835
  684MOL0     O92263   8.513   5.489   8.353  1.2111  0.0456  0.8592
  684MOL0     C92264   8.572   5.579   8.447  0.0800  0.1843 -0.8896
  684MOL0     C92265   8.575   5.516   8.590 -0.5826 -0.2447 -0.1443
  684MOL0     C92266   8.676   5.387   8.606  0.0838 -0.4127 -0.0303
  684MOL0     C92267   8.814   5.421   8.641 -0.3413 -0.0748  0.9034
  684MOL0     C92268   8.883   5.500   8.542 -0.3447 -0.8820  0.3051
  684MOL0     C92269   8.961   5.568   8.476 -0.4315 -0.4782 -0.2685
  684MOL0     C92270   8.425   5.445   8.152  0.4193 -0.9230  0.1912
  684MOL0     C92271   8.382   5.476   8.023  0.0968  0.3945  0.1694
  684MOL0     C92272   8.306   5.359   7.952  0.1775 -0.0749  0.0926
  684MOL0     H92273   8.443   5.832   7.597  0.6767 -2.2899 -3.5124
  684MOL0     H92274   8.349   5.879   7.375  0.1241 -1.0520  0.0665
  684MOL0     H92275   8.224   5.984   7.226  0.6888 -1.1559  0.8317
  684MOL0     H92276   8.143   5.829   7.174 -2.2400 -0.4836 -0.1475
  684MOL0     H92277   8.098   6.048   7.027  0.7580 -0.8850  0.4204
  684MOL0     H92278   8.003   6.117   7.157  0.6521  0.3996 -0.3615
  684MOL0     H92279   7.956   5.843   7.032 -1.4836 -0.9779 -0.1301
  684MOL0     H92280   7.869   5.995   6.967  0.4486  0.1625  0.2693
  684MOL0     H92281   7.852   5.855   7.239 -3.3166  0.1977  1.9075
  684MOL0     H92282   7.776   6.012   7.213  0.2887 -1.3988  0.4723
  684MOL0     H92283   7.634   5.913   7.025 -2.8340 -2.3584  0.7285
  684MOL0     H92284   7.718   5.765   7.053 -2.5072 -2.9952  3.3373
  684MOL0     H92285   7.610   5.766   7.286  0.4340  0.6440 -0.6914
  684MOL0     H92286   7.516   5.911   7.238 -0.3580  0.6246 -1.4459
  684MOL0     H92287   7.523   5.644   7.101  1.6194  0.1606  0.1583
  684MOL0     H92288   7.443   5.788   7.033 -0.4655 -3.8531 -1.7060
  684MOL0     H92289   7.275   5.658   7.133 -0.5561  1.8337 -0.0168
  684MOL0     H92290   7.363   5.641   7.287 -0.2229  0.0035  0.0707
  684MOL0     H92291   7.316   5.838   7.492  1.5906  3.2029  0.8940
  684MOL0     H92292   7.214   6.033   7.605  1.6265  2.0426  1.4455
  684MOL0     H92293   7.262   6.173   7.503 -2.1932  2.8656  1.9956
  684MOL0     H92294   7.013   6.168   7.406 -1.3104  0.8116  0.3180
  684MOL0     H92295   6.985   6.050   7.527  2.1133 -1.3984  3.4415
  684MOL0     H92296   7.097   6.331   7.595 -1.7497  1.4833  0.2006
  684MOL0     H92297   7.048   6.198   7.706 -0.8152  2.6238  0.7755
  684MOL0     H92298   6.813   6.233   7.657 -1.4148  0.9934 -1.2341
  684MOL0     H92299   6.862   6.308   7.514 -2.2044 -4.0071  0.3586
  684MOL0     H92300   6.937   6.646   7.793 -0.4773  0.5021  1.6552
  684MOL0     H92301   6.968   6.701   8.032  2.4724  0.2909  1.3583
  684MOL0     H92302   7.064   6.879   8.354  2.1736  1.1059  2.7074
  684MOL0     H92303   7.048   6.973   8.568 -2.1868  0.0760  2.3142
  684MOL0     H92304   7.129   6.931   8.768  1.1351 -0.7891  0.7214
  684MOL0     H92305   6.995   7.044   8.777  0.4817  0.7451 -1.5880
  684MOL0     H92306   7.128   6.879   9.000 -1.3576 -2.9692 -0.7120
  684MOL0     H92307   7.098   7.056   8.972 -1.0376 -0.1573  2.5457
  684MOL0     H92308   6.856   6.967   8.959 -0.0024 -0.1224  0.5384
  684MOL0     H92309   6.896   6.823   9.046  1.5934 -0.2247  1.2525
  684MOL0     H92310   6.905   7.095   9.143  2.4576 -0.7221  0.0027
  684MOL0     H92311   6.970   6.956   9.236 -1.5230 -1.0968  0.5685
  684MOL0     H92312   6.692   6.978   9.115 -1.7322  1.5835  2.4741
  684MOL0     H92313   6.725   7.032   9.276  1.0164 -1.2718  1.7582
  684MOL0     H92314   6.736   6.741   9.172 -1.6228 -3.5805  2.2957
  684MOL0     H92315   6.801   6.787   9.320  4.7394  4.1544 -2.5869
  684MOL0     H92316   6.533   6.894   9.329 -2.9067 -0.6337 -1.7730
  684MOL0     H92317   6.569   6.749   9.409 -3.5710 -0.0426  0.1054
  684MOL0     H92318   6.401   6.718   9.239 -0.4726 -3.1025 -3.4223
  684MOL0     H92319   6.504   6.788   9.111 -1.4720  1.7728  0.8347
  684MOL0     H92320   6.835   6.627   8.718 -1.6478  0.7948 -1.4137
  684MOL0     H92321   6.799   6.556   8.499 -0.0820  1.0045  0.0267
  684MOL0     H92322   6.898   6.286   8.125  0.4107  0.5179  1.1694
  684MOL0     H92323   6.878   6.225   7.900 -0.7581  0.5909  1.1245
  684MOL0     H92324   7.954   5.846   7.565  0.0485  2.0688 -0.0837
  684MOL0     H92325   8.062   5.798   7.768 -0.7437  1.4523 -0.7401
  684MOL0     H92326   8.508   5.796   7.996  2.5189  0.6292  0.0764
  684MOL0     H92327   8.562   5.746   8.217 -0.9127  2.0239 -2.0649
  684MOL0     H92328   8.513   5.671   8.455  1.0799  0.6853  2.1760
  684MOL0     H92329   8.671   5.608   8.413  2.2479 -3.5435  1.4873
  684MOL0     H92330   8.475   5.478   8.611 -0.5404 -0.5572 -0.5058
  684MOL0     H92331   8.612   5.583   8.668  2.0515 -2.8307  1.0252
  684MOL0     H92332   8.667   5.325   8.516  4.8817 -1.9198  0.2896
  684MOL0     H92333   8.654   5.322   8.692  2.5801 -0.1558  0.8633
  684MOL0     H92334   8.822   5.486   8.728  1.3276  2.3029 -0.9137
  684MOL0     H92335   8.874   5.331   8.657  0.9238  0.7472  0.9160
  684MOL0     H92336   9.039   5.622   8.426 -2.0494  0.4783 -1.9001
  684MOL0     H92337   8.398   5.347   8.189 -1.2013 -0.6861 -0.2778
  684MOL0     H92338   8.255   5.296   8.024  1.3466 -0.1818  0.8556
  684MOL0     H92339   8.223   5.388   7.887 -2.2614 -2.2194  2.0834
  684MOL0     H92340   8.383   5.301   7.901 -0.4129 -0.7607 -0.0249
  685MOL0     O92341   9.634  11.218   6.069 -0.6019 -0.0407  0.2853
  685MOL0     C92342   9.579  11.284   5.982 -0.2625 -0.6665 -0.3183
  685MOL0     O92343   9.645  11.379   5.907 -0.1735 -0.2324 -0.0468
  685MOL0     C92344   9.783  11.381   5.889 -0.0300  0.3876 -0.8595
  685MOL0     C92345   9.858  11.272   5.831 -1.0036  0.7129  0.0824
  685MOL0     C92346   9.997  11.272   5.824 -0.5092  0.6431  0.3421
  685MOL0     C92347  10.063  11.368   5.891  0.5659 -0.2234 -0.2994
  685MOL0     O92348  10.199  11.342   5.906  0.1179  0.0039  0.5805
  685MOL0     C92349  10.292  11.443   5.941 -0.1956  0.6931 -0.1410
  685MOL0     C92350  10.429  11.385   5.991  0.4009  0.1200  0.5008
  685MOL0     C92351  10.480  11.290   5.882 -0.4791  0.9330  0.1250
  685MOL0     C92352  10.488  11.363   5.750  0.4629 -0.0858 -0.1815
  685MOL0     C92353  10.546  11.265   5.650 -0.0796  0.2569 -0.4852
  685MOL0     C92354  10.537  11.317   5.511  0.1743 -0.2039 -0.0005
  685MOL0     C92355  10.639  11.420   5.486  0.2858 -1.1626 -0.2702
  685MOL0     C92356  10.603  11.488   5.357 -0.2230 -0.1597 -0.1612
  685MOL0     N92357  10.717  11.576   5.319 -0.2531 -0.0370  0.1889
  685MOL0     C92358  10.738  11.701   5.378 -0.1254  0.4141 -0.5884
  685MOL0     C92359  10.852  11.743   5.323 -0.1511  0.1976  0.0937
  685MOL0     C92360  10.929  11.866   5.347  0.1350 -0.9754 -0.7183
  685MOL0     C92361  11.066  11.839   5.416 -0.5847 -0.2000  0.1010
  685MOL0     C92362  11.151  11.970   5.430 -0.6105  0.0069  0.0884
  685MOL0     C92363  11.275  11.944   5.537  1.0414 -0.2669  0.5383
  685MOL0     O92364  11.344  11.829   5.490  0.4667  0.3408 -0.1690
  685MOL0     C92365  11.476  11.803   5.523  0.9155  0.5417  0.5605
  685MOL0     C92366  11.528  11.849   5.644 -0.0889  1.1281  0.9282
  685MOL0     C92367  11.663  11.818   5.682  0.6200 -0.3028 -0.2128
  685MOL0     C92368  11.746  11.747   5.589  0.5514  0.3917  0.7573
  685MOL0     C92369  11.887  11.710   5.623  0.0748 -0.1118  0.4323
  685MOL0     O92370  11.938  11.736   5.743 -0.0049  1.2627 -0.7814
  685MOL0     C92371  12.068  11.674   5.765 -0.1085 -0.5714 -0.5679
  685MOL0     C92372  12.182  11.748   5.732  0.2130  0.2607 -0.5644
  685MOL0     C92373  12.312  11.691   5.744  0.9973 -0.6260  0.0537
  685MOL0     C92374  12.312  11.558   5.787  0.0263  0.0873  0.7211
  685MOL0     O92375  12.428  11.486   5.813 -0.1500  0.2973 -0.3605
  685MOL0     C92376  12.544  11.497   5.732  0.3131  0.0109  0.5703
  685MOL0     C92377  12.521  11.468   5.592 -0.9405  0.3663  0.5650
  685MOL0     C92378  12.649  11.499   5.502  0.1864  0.0789  0.2171
  685MOL0     C92379  12.595  11.536   5.361  0.7617 -0.2391 -1.3367
  685MOL0     C92380  12.704  11.582   5.264  0.0318 -0.2172 -0.7521
  685MOL0     C92381  12.652  11.614   5.124 -1.2089  0.2139  0.6902
  685MOL0     C92382  12.583  11.750   5.110 -0.4758  1.4752 -0.0309
  685MOL0     C92383  12.547  11.781   4.967 -0.0475  0.4596 -0.9781
  685MOL0    Cl92384  12.515  11.952   4.935  0.6781  0.2716 -0.0891
  685MOL0     C92385  12.199  11.482   5.809  0.4228  0.2015 -0.6883
  685MOL0     C92386  12.074  11.540   5.801 -0.5599 -0.6692 -0.3559
  685MOL0     O92387  11.949  11.660   5.528  0.2190  0.4833  0.1684
  685MOL0     C92388  11.685  11.695   5.469 -0.1382 -0.5187 -0.5987
  685MOL0     C92389  11.553  11.723   5.439  0.5252  0.5615 -0.3133
  685MOL0     N92390  10.902  11.641   5.241  0.5283 -0.9280  1.2180
  685MOL0     N92391  10.827  11.541   5.249  0.5067  0.1203  0.6640
  685MOL0     C92392   9.994  11.476   5.946  0.0232  0.0632  0.4015
  685MOL0     C92393   9.862  11.484   5.933  0.9072 -0.1642 -0.0759
  685MOL0     C92394   9.436  11.279   5.953  0.2050  0.0933 -0.7715
  685MOL0     C92395   9.395  11.326   5.822 -0.2902 -0.2048  0.0520
  685MOL0     C92396   9.257  11.316   5.794  0.8376 -0.3268 -0.2241
  685MOL0     C92397   9.159  11.278   5.888 -0.3815 -0.4446 -0.4380
  685MOL0     O92398   9.030  11.286   5.850  0.6463 -0.5830  0.2591
  685MOL0     C92399   8.923  11.220   5.916  0.4495  0.0743  0.1329
  685MOL0     C92400   8.788  11.228   5.831  0.8436 -0.2181  0.9150
  685MOL0     C92401   8.781  11.143   5.703 -0.5520  0.0853  0.3687
  685MOL0     C92402   8.650  11.122   5.623  0.3265 -0.3304  0.1927
  685MOL0     C92403   8.541  11.100   5.717 -0.5691  0.0687  0.9869
  685MOL0     C92404   8.440  11.089   5.778 -0.1785  0.1755  0.0205
  685MOL0     C92405   9.195  11.239   6.013 -0.2434 -0.8030 -0.8566
  685MOL0     C92406   9.336  11.235   6.048  0.2562 -0.9266 -0.4863
  685MOL0     C92407   9.384  11.184   6.182  0.0217  0.0009 -0.7146
  685MOL0     H92408   9.805  11.184   5.796 -0.5290  0.3989  0.1472
  685MOL0     H92409  10.068  11.198   5.789 -0.8356  0.9938 -1.1139
  685MOL0     H92410  10.311  11.509   5.856  0.9683 -3.9557 -3.8663
  685MOL0     H92411  10.248  11.511   6.015 -0.6268  0.0607  0.1861
  685MOL0     H92412  10.412  11.320   6.077 -1.5276 -0.6101 -0.3820
  685MOL0     H92413  10.496  11.466   6.022  2.2884 -1.7992  1.6974
  685MOL0     H92414  10.406  11.210   5.875 -2.3220  2.5632 -0.1216
  685MOL0     H92415  10.577  11.248   5.908 -0.2198  0.5783 -1.3134
  685MOL0     H92416  10.396  11.409   5.712  1.2577 -0.0068 -2.1704
  685MOL0     H92417  10.551  11.451   5.767  1.0274 -0.9621  2.8188
  685MOL0     H92418  10.650  11.259   5.684  0.3383 -0.0052 -1.7376
  685MOL0     H92419  10.509  11.162   5.651 -2.9188  1.0360 -4.3605
  685MOL0     H92420  10.571  11.235   5.447  1.6906  0.4573 -0.0949
  685MOL0     H92421  10.436  11.356   5.495 -0.6776 -2.0405  0.6723
  685MOL0     H92422  10.739  11.377   5.483  0.4350 -0.8286 -0.0586
  685MOL0     H92423  10.649  11.498   5.561  2.6810 -0.9953 -0.7001
  685MOL0     H92424  10.585  11.415   5.276 -0.8379 -0.1454 -0.0416
  685MOL0     H92425  10.512  11.548   5.369 -0.0847  0.2697 -1.1070
  685MOL0     H92426  10.676  11.739   5.458 -2.1034 -2.9959 -0.3499
  685MOL0     H92427  10.952  11.928   5.260  4.0334 -1.2597 -0.0722
  685MOL0     H92428  10.860  11.919   5.413  2.1729  1.2613 -0.2342
  685MOL0     H92429  11.056  11.796   5.516  0.6881  0.3700  0.4923
  685MOL0     H92430  11.122  11.777   5.346 -0.8668 -1.0140  0.5886
  685MOL0     H92431  11.084  12.047   5.469 -1.9721 -1.6943  1.2220
  685MOL0     H92432  11.194  11.992   5.332  0.6263 -2.7125 -0.0571
  685MOL0     H92433  11.233  11.937   5.637 -2.2236  1.5812 -0.5280
  685MOL0     H92434  11.340  12.032   5.542 -0.4332  0.8687  0.6316
  685MOL0     H92435  11.461  11.898   5.714 -1.1466  2.5583 -1.0076
  685MOL0     H92436  11.697  11.855   5.778  0.1777 -2.3680  0.7786
  685MOL0     H92437  12.176  11.845   5.685  1.3934 -0.2467 -1.8127
  685MOL0     H92438  12.405  11.743   5.722  1.2010  0.1722  2.4572
  685MOL0     H92439  12.566  11.604   5.739  3.1005 -0.4643  0.0719
  685MOL0     H92440  12.621  11.429   5.770 -2.2045 -2.5372  1.4726
  685MOL0     H92441  12.503  11.361   5.588 -3.2254  0.7275 -1.2878
  685MOL0     H92442  12.427  11.508   5.554 -0.2990  1.6791  0.2566
  685MOL0     H92443  12.710  11.579   5.542  1.0209 -1.0048  1.1850
  685MOL0     H92444  12.713  11.410   5.496 -0.7196 -0.5424 -0.6917
  685MOL0     H92445  12.514  11.609   5.368 -0.8307 -2.0909  1.3934
  685MOL0     H92446  12.541  11.448   5.325 -6.3739  3.1929 -0.6398
  685MOL0     H92447  12.765  11.491   5.260 -0.1026 -0.3532  0.0950
  685MOL0     H92448  12.774  11.661   5.292 -0.2908  0.1574 -0.9905
  685MOL0     H92449  12.738  11.607   5.056 -2.0334  0.0395 -0.3761
  685MOL0     H92450  12.595  11.530   5.083  0.8503 -0.0317 -2.0257
  685MOL0     H92451  12.657  11.821   5.148  0.6749 -0.2041  1.0130
  685MOL0     H92452  12.499  11.749   5.181 -0.4557  1.4228 -0.0078
  685MOL0     H92453  12.615  11.745   4.890  0.6000 -2.1582  0.6806
  685MOL0     H92454  12.453  11.728   4.949 -1.3812  2.1436  0.5829
  685MOL0     H92455  12.204  11.376   5.830 -0.0465  0.6068  1.8725
  685MOL0     H92456  11.988  11.475   5.808  0.9593 -3.0969 -2.2423
  685MOL0     H92457  11.741  11.638   5.396 -0.7715  1.2364 -2.5628
  685MOL0     H92458  11.499  11.679   5.355 -1.1315 -0.2165  1.0930
  685MOL0     H92459  10.042  11.561   5.994 -0.4416  0.6123 -0.0886
  685MOL0     H92460   9.803  11.562   5.980 -0.2852  0.7246 -2.8348
  685MOL0     H92461   9.463  11.343   5.739  1.0859 -0.7252  1.0290
  685MOL0     H92462   9.218  11.341   5.695 -1.5256  0.2560  0.7820
  685MOL0     H92463   8.895  11.256   6.016  2.7226 -2.6343  1.9077
  685MOL0     H92464   8.937  11.112   5.924 -1.6045 -0.2540 -0.1306
  685MOL0     H92465   8.768  11.332   5.803 -1.1432 -1.0282 -0.9970
  685MOL0     H92466   8.707  11.202   5.901  0.2015 -0.1460  0.2091
  685MOL0     H92467   8.810  11.046   5.743  3.0514  0.8937  0.0790
  685MOL0     H92468   8.853  11.181   5.630 -0.6218 -0.7111 -0.1273
  685MOL0     H92469   8.630  11.210   5.562 -0.5523  0.0176  0.9431
  685MOL0     H92470   8.652  11.041   5.550 -3.5472  1.1482 -1.8092
  685MOL0     H92471   8.344  11.094   5.826 -0.7638 -1.2796 -0.9090
  685MOL0     H92472   9.114  11.209   6.079  0.1167 -1.0677 -0.5313
  685MOL0     H92473   9.427  11.268   6.237  0.9393 -0.3765 -0.8435
  685MOL0     H92474   9.295  11.143   6.230 -0.5350  2.7603  0.8019
  685MOL0     H92475   9.461  11.107   6.170 -0.3233 -0.3084 -0.9773
  686MOL0     O92476   6.905   5.568   5.921  0.0853  0.6921  0.3256
  686MOL0     C92477   6.908   5.455   5.879 -0.4024  0.5045 -0.2060
  686MOL0     O92478   6.856   5.341   5.946  0.2507  0.4622 -0.9070
  686MOL0     C92479   6.811   5.368   6.075  0.7784  0.2734  0.9501
  686MOL0     C92480   6.898   5.345   6.181 -0.4183  0.1584 -1.0148
  686MOL0     C92481   6.858   5.383   6.312 -0.1150  0.5874  0.1149
  686MOL0     C92482   6.726   5.411   6.344 -0.9267 -0.9883  0.8094
  686MOL0     O92483   6.681   5.439   6.470  0.2024  0.2996 -0.7848
  686MOL0     C92484   6.546   5.436   6.524 -0.8869  0.3087  0.7627
  686MOL0     C92485   6.544   5.518   6.654  0.2740 -0.0993  0.5602
  686MOL0     C92486   6.650   5.477   6.754  0.2702 -0.3715 -0.0366
  686MOL0     C92487   6.680   5.588   6.860  0.1607  0.8343  1.3450
  686MOL0     C92488   6.558   5.634   6.943 -0.3629 -0.1803  1.3014
  686MOL0     C92489   6.593   5.768   7.007  0.4107  0.4706 -0.2559
  686MOL0     C92490   6.466   5.818   7.085 -0.2637  0.7125  0.1197
  686MOL0     C92491   6.490   5.967   7.140 -0.3661  0.7885  0.6548
  686MOL0     N92492   6.595   5.968   7.239  1.1243 -0.1706  0.3273
  686MOL0     C92493   6.583   5.912   7.364  0.3396  0.4312 -0.9812
  686MOL0     C92494   6.657   5.981   7.451  0.5658 -0.2091  0.4161
  686MOL0     C92495   6.659   5.968   7.601  0.6045 -0.3206 -0.0107
  686MOL0     C92496   6.569   6.070   7.667  0.2230 -0.3281  0.2203
  686MOL0     C92497   6.597   6.053   7.823 -0.5732  0.5935  0.6222
  686MOL0     C92498   6.538   6.172   7.903 -0.2881  0.4468 -0.0632
  686MOL0     O92499   6.584   6.138   8.038  0.5550  0.7295  0.1982
  686MOL0     C92500   6.552   6.227   8.143 -0.0972  0.4422  0.1469
  686MOL0     C92501   6.620   6.217   8.260 -0.7762 -0.3376 -0.3440
  686MOL0     C92502   6.594   6.305   8.372 -0.2016 -0.0938 -0.2639
  686MOL0     C92503   6.478   6.387   8.363 -0.7043 -0.3655 -0.1633
  686MOL0     C92504   6.448   6.465   8.488 -0.4237  1.0781 -0.8604
  686MOL0     O92505   6.338   6.547   8.494  0.0939  1.6785 -0.6522
  686MOL0     C92506   6.282   6.587   8.620 -0.2079 -0.6173  0.7994
  686MOL0     C92507   6.247   6.724   8.631  0.1855 -0.6563  0.4604
  686MOL0     C92508   6.183   6.773   8.744  0.0756  0.0593 -0.0133
  686MOL0     C92509   6.154   6.691   8.857  0.1640 -0.3193 -0.2460
  686MOL0     O92510   6.102   6.752   8.973 -0.7988 -0.2167  0.1436
  686MOL0     C92511   6.102   6.686   9.097  1.0706  0.2286  0.0118
  686MOL0     C92512   6.021   6.760   9.197  0.3522 -0.3980  0.5017
  686MOL0     C92513   6.054   6.715   9.348 -0.2599  0.0341  0.6594
  686MOL0     C92514   5.940   6.661   9.428  0.9243 -0.2782  0.7931
  686MOL0     C92515   5.973   6.647   9.583  0.8389  0.6658 -0.4635
  686MOL0     C92516   5.837   6.607   9.650 -0.1193  0.8512 -0.3788
  686MOL0     C92517   5.753   6.727   9.686  0.5338 -0.8155 -0.2346
  686MOL0     C92518   5.600   6.705   9.700 -0.3436 -0.9084  0.2612
  686MOL0    Cl92519   5.515   6.858   9.760  0.2405 -0.1532 -0.5162
  686MOL0     C92520   6.191   6.556   8.842  0.7510  0.8402  0.1709
  686MOL0     C92521   6.242   6.502   8.721 -0.1498  0.2127 -0.4824
  686MOL0     O92522   6.535   6.468   8.575 -0.2228 -0.3608 -0.9226
  686MOL0     C92523   6.404   6.394   8.246 -0.2393 -0.5669  0.8948
  686MOL0     C92524   6.445   6.324   8.136  0.7852 -0.5349 -0.6907
  686MOL0     N92525   6.725   6.075   7.381  0.8937 -0.6486  0.4537
  686MOL0     N92526   6.693   6.057   7.253  0.5731  0.4399 -0.3099
  686MOL0     C92527   6.644   5.430   6.234  0.1697  0.3100 -0.9534
  686MOL0     C92528   6.679   5.404   6.100  0.7072 -0.2528 -0.1856
  686MOL0     C92529   6.979   5.430   5.749 -0.3342 -0.4184 -0.3613
  686MOL0     C92530   7.003   5.301   5.707  0.3217  0.5614 -0.4464
  686MOL0     C92531   7.065   5.270   5.593  0.2043  0.0759 -0.9500
  686MOL0     C92532   7.121   5.365   5.514  0.4866  0.0242  0.2957
  686MOL0     O92533   7.187   5.314   5.403 -0.1989 -0.4228 -0.5899
  686MOL0     C92534   7.234   5.403   5.305  0.0989  0.4952  0.2780
  686MOL0     C92535   7.274   5.328   5.191  0.4986 -0.1660  0.2726
  686MOL0     C92536   7.166   5.284   5.087  1.2473  0.1292 -0.2239
  686MOL0     C92537   7.239   5.227   4.965 -0.2736  0.4617  0.3429
  686MOL0     C92538   7.144   5.185   4.857 -0.1410 -0.2047 -0.0171
  686MOL0     C92539   7.066   5.168   4.766 -0.1671 -0.3503 -0.5723
  686MOL0     C92540   7.103   5.506   5.551 -1.2447  0.1290 -0.1422
  686MOL0     C92541   7.038   5.535   5.673 -0.1060  0.0241  0.4864
  686MOL0     C92542   7.028   5.685   5.708  0.4980 -0.5935 -0.1401
  686MOL0     H92543   6.999   5.310   6.164 -1.0320 -1.2166 -1.9471
  686MOL0     H92544   6.924   5.372   6.398 -1.1121  1.3617  1.0059
  686MOL0     H92545   6.472   5.474   6.454  1.4397  1.1061 -1.4415
  686MOL0     H92546   6.515   5.335   6.553  3.3679 -0.4934  3.5944
  686MOL0     H92547   6.443   5.512   6.695 -0.8334  4.7093 -0.7858
  686MOL0     H92548   6.565   5.624   6.638  0.0283 -0.0135  0.7989
  686MOL0     H92549   6.742   5.456   6.699 -0.5965 -0.3707 -1.5431
  686MOL0     H92550   6.611   5.385   6.797  1.5484 -0.3367  1.2370
  686MOL0     H92551   6.758   5.542   6.922  0.0394  0.5447  1.2861
  686MOL0     H92552   6.737   5.675   6.825  1.2229 -0.9906 -1.9504
  686MOL0     H92553   6.466   5.647   6.885 -0.9789 -0.5187  2.1778
  686MOL0     H92554   6.537   5.553   7.013 -0.2606 -0.8210  0.6157
  686MOL0     H92555   6.682   5.751   7.069 -0.0278  2.8396  1.1660
  686MOL0     H92556   6.610   5.842   6.928  1.0915 -0.2986 -0.8491
  686MOL0     H92557   6.433   5.749   7.163  0.1443 -0.0460 -0.3697
  686MOL0     H92558   6.379   5.820   7.018  1.0879 -3.6260 -2.1339
  686MOL0     H92559   6.522   6.031   7.058 -1.8247  1.1466  0.3475
  686MOL0     H92560   6.397   6.004   7.182  0.5053  3.9140  0.0907
  686MOL0     H92561   6.501   5.846   7.388  0.8850  0.9535  3.0719
  686MOL0     H92562   6.636   5.862   7.615  4.0973 -1.1944  0.1093
  686MOL0     H92563   6.761   5.958   7.641  0.5073  1.1331  0.6802
  686MOL0     H92564   6.583   6.173   7.634 -1.7052  0.3463  1.3411
  686MOL0     H92565   6.464   6.049   7.643 -0.0541  0.4986  0.6956
  686MOL0     H92566   6.703   6.068   7.844 -0.9135 -1.3835  4.8310
  686MOL0     H92567   6.576   5.952   7.860  2.5581 -0.2905  0.2311
  686MOL0     H92568   6.432   6.198   7.897 -0.0425  1.6753  0.6356
  686MOL0     H92569   6.591   6.264   7.877 -1.4773  1.2358  0.2160
  686MOL0     H92570   6.708   6.153   8.264  1.0428  1.9722 -1.0034
  686MOL0     H92571   6.667   6.291   8.451  0.0422 -2.7492 -0.8498
  686MOL0     H92572   6.273   6.794   8.552  2.8299  2.8902  4.0535
  686MOL0     H92573   6.165   6.880   8.746 -0.8022 -0.0818 -0.0905
  686MOL0     H92574   6.063   6.584   9.088  1.0122  0.4039 -2.4414
  686MOL0     H92575   6.208   6.684   9.126  1.3191  0.3581 -0.8603
  686MOL0     H92576   6.050   6.866   9.191 -3.9679  0.9845  0.5716
  686MOL0     H92577   5.916   6.748   9.170  0.4123  0.9056 -0.4120
  686MOL0     H92578   6.141   6.649   9.341  0.0185  0.4434  0.2573
  686MOL0     H92579   6.090   6.803   9.403 -0.5110 -0.7746  2.1901
  686MOL0     H92580   5.919   6.561   9.388  1.9106  0.0218 -0.5711
  686MOL0     H92581   5.850   6.723   9.430  1.7877  0.9944  2.3198
  686MOL0     H92582   6.015   6.742   9.618  2.2702  0.3379 -1.2186
  686MOL0     H92583   6.047   6.570   9.607 -1.5146 -1.1508  1.5429
  686MOL0     H92584   5.773   6.550   9.582 -0.3478  1.0763 -0.3506
  686MOL0     H92585   5.845   6.549   9.743 -1.0010  0.7799 -0.3373
  686MOL0     H92586   5.759   6.797   9.602 -5.1167  0.5178  0.0428
  686MOL0     H92587   5.783   6.778   9.778 -1.8913 -1.7232  1.1718
  686MOL0     H92588   5.570   6.667   9.602  0.4044 -1.1537  0.1206
  686MOL0     H92589   5.592   6.628   9.777  0.0617  0.3882  1.6493
  686MOL0     H92590   6.172   6.489   8.925 -1.8719  0.1504 -0.8657
  686MOL0     H92591   6.259   6.395   8.716  3.8001  0.7517 -3.1169
  686MOL0     H92592   6.321   6.463   8.233  0.5387 -0.2297 -5.2942
  686MOL0     H92593   6.380   6.330   8.049  0.3382 -1.9057 -0.4724
  686MOL0     H92594   6.541   5.448   6.262  0.7165  2.9531 -0.3660
  686MOL0     H92595   6.610   5.412   6.016  1.0825 -1.8983 -0.6857
  686MOL0     H92596   6.961   5.220   5.767  1.2404 -0.8418 -1.6119
  686MOL0     H92597   7.072   5.166   5.564 -1.6242 -0.7421  1.2181
  686MOL0     H92598   7.320   5.452   5.351  0.7300  0.1156 -0.4708
  686MOL0     H92599   7.166   5.482   5.270  0.4617 -0.2019 -2.2063
  686MOL0     H92600   7.338   5.252   5.235  0.4616  0.7682  2.0435
  686MOL0     H92601   7.339   5.398   5.138  0.5620  1.0579  1.8827
  686MOL0     H92602   7.108   5.370   5.053  1.4983  0.2755 -0.2828
  686MOL0     H92603   7.103   5.206   5.131  0.2617  0.4166 -1.1034
  686MOL0     H92604   7.307   5.301   4.921 -3.0602  1.4955 -2.6415
  686MOL0     H92605   7.300   5.140   4.994  0.6216  0.3275 -1.7640
  686MOL0     H92606   6.992   5.149   4.691  0.3227  0.4491 -1.2845
  686MOL0     H92607   7.150   5.592   5.504 -2.0385  0.5396 -0.2089
  686MOL0     H92608   7.085   5.712   5.798 -1.3666  1.0174  0.6135
  686MOL0     H92609   7.061   5.747   5.624 -2.0922 -1.6127 -2.0332
  686MOL0     H92610   6.929   5.722   5.735  1.6758  1.8947  1.1339
  687MOL0     O92611   0.879   5.901   5.864 -0.3319 -0.6639  0.8424
  687MOL0     C92612   0.971   5.915   5.782 -0.4035  0.0590 -0.6642
  687MOL0     O92613   0.979   6.001   5.679 -0.2569 -0.2223  0.1646
  687MOL0     C92614   0.881   6.097   5.679  1.1338 -0.4892  0.5560
  687MOL0     C92615   0.744   6.077   5.671 -0.1770  0.0608 -0.4558
  687MOL0     C92616   0.648   6.177   5.675 -0.3743  0.6214  0.7876
  687MOL0     C92617   0.686   6.308   5.675  0.1278  0.0963  0.8359
  687MOL0     O92618   0.595   6.416   5.655 -0.0068  0.1169  0.3041
  687MOL0     C92619   0.458   6.392   5.683  0.4447 -0.2332 -0.2474
  687MOL0     C92620   0.410   6.533   5.729  0.2612  0.2503 -0.6932
  687MOL0     C92621   0.273   6.544   5.771  0.1055 -0.4054  1.0764
  687MOL0     C92622   0.240   6.624   5.890 -0.7250  0.4368  0.3366
  687MOL0     C92623   0.093   6.614   5.913 -0.5523 -0.7555 -0.5689
  687MOL0     C92624   0.037   6.694   6.025 -0.5346 -1.1627  0.8828
  687MOL0     C92625  -0.103   6.676   6.045 -0.0793 -0.6274  0.6930
  687MOL0     C92626  -0.162   6.784   6.132 -0.5857  0.6610  0.9155
  687MOL0     N92627  -0.311   6.774   6.133  0.7564  0.6603  0.4523
  687MOL0     C92628  -0.377   6.651   6.127  0.4204  0.3842 -0.5696
  687MOL0     C92629  -0.498   6.687   6.171  0.2384  0.3468  0.2977
  687MOL0     C92630  -0.626   6.613   6.185 -0.1532 -0.1843  0.6724
  687MOL0     C92631  -0.756   6.692   6.153  0.2061 -0.8876  0.3666
  687MOL0     C92632  -0.878   6.605   6.135 -0.2083  0.8561  0.4904
  687MOL0     C92633  -0.971   6.614   6.261  0.7298  0.6471 -0.7873
  687MOL0     O92634  -1.019   6.746   6.282 -0.1476 -0.5269 -0.2478
  687MOL0     C92635  -1.107   6.782   6.379  0.7407 -0.0959  0.0766
  687MOL0     C92636  -1.150   6.916   6.394  0.2300  0.2716 -0.1201
  687MOL0     C92637  -1.235   6.951   6.506 -0.1654  0.2173  0.9461
  687MOL0     C92638  -1.284   6.862   6.602  0.9718  0.0794 -0.2100
  687MOL0     C92639  -1.352   6.909   6.716 -0.0294  0.2549 -0.0231
  687MOL0     O92640  -1.417   6.809   6.785  0.3717 -0.0874  0.1110
  687MOL0     C92641  -1.514   6.845   6.877  1.3750  0.4153  0.2407
  687MOL0     C92642  -1.473   6.873   7.008  0.9107  1.2261  0.1491
  687MOL0     C92643  -1.580   6.900   7.098 -0.0429  0.4218  0.4904
  687MOL0     C92644  -1.709   6.875   7.058  0.8792 -0.2216  0.4981
  687MOL0     O92645  -1.794   6.893   7.162  0.3961 -0.1435 -0.7030
  687MOL0     C92646  -1.934   6.876   7.149 -0.4500  0.5328  0.1974
  687MOL0     C92647  -2.004   7.009   7.090  0.4675 -0.0812  0.4315
  687MOL0     C92648  -2.148   6.984   7.066 -0.0007  0.6220 -0.3291
  687MOL0     C92649  -2.175   6.894   6.943 -0.6266  0.0196  0.1043
  687MOL0     C92650  -2.333   6.898   6.914  0.2377 -0.3407 -0.1274
  687MOL0     C92651  -2.385   6.812   6.793 -0.2597  0.1991 -0.1058
  687MOL0     C92652  -2.536   6.811   6.789 -0.1050 -0.0099 -1.2154
  687MOL0     C92653  -2.586   6.790   6.647 -0.5172 -1.0205 -0.9436
  687MOL0    Cl92654  -2.549   6.640   6.572  0.0827 -0.4465 -0.5715
  687MOL0     C92655  -1.743   6.858   6.923 -0.1817  0.2332  0.2203
  687MOL0     C92656  -1.638   6.840   6.832  0.5076  0.0897 -0.9653
  687MOL0     O92657  -1.352   7.026   6.737 -0.4301 -0.5384 -0.5334
  687MOL0     C92658  -1.240   6.725   6.580  0.0711  0.5072 -0.1752
  687MOL0     C92659  -1.160   6.686   6.465  0.6576 -0.6495 -0.1507
  687MOL0     N92660  -0.503   6.824   6.205  0.0717  0.5293 -0.5548
  687MOL0     N92661  -0.388   6.864   6.191  0.4146  0.0126 -0.3914
  687MOL0     C92662   0.819   6.335   5.688 -0.5790  0.0242  0.1079
  687MOL0     C92663   0.920   6.228   5.684 -0.0476  0.3581 -0.2023
  687MOL0     C92664   1.094   5.820   5.795  0.9459 -0.2141 -0.3456
  687MOL0     C92665   1.179   5.817   5.686  0.3516  0.2583 -0.2493
  687MOL0     C92666   1.295   5.734   5.688  0.1385  0.5589 -0.8424
  687MOL0     C92667   1.321   5.659   5.802  0.4596  0.0105 -0.1088
  687MOL0     O92668   1.431   5.581   5.821 -0.4127  0.4526  1.1051
  687MOL0     C92669   1.540   5.568   5.722 -0.5991  0.0605 -0.0536
  687MOL0     C92670   1.650   5.490   5.793 -0.4128  0.1774  0.6944
  687MOL0     C92671   1.715   5.569   5.897 -0.0771 -0.4306 -0.6288
  687MOL0     C92672   1.777   5.488   6.004 -0.8930  0.3114 -0.0753
  687MOL0     C92673   1.894   5.406   5.973  0.0783 -0.6317 -0.5748
  687MOL0     C92674   1.976   5.324   5.948 -0.3720  0.2657 -0.1336
  687MOL0     C92675   1.234   5.659   5.916  1.0838 -0.1932  0.6353
  687MOL0     C92676   1.122   5.740   5.913  0.3998  0.1211  0.3472
  687MOL0     C92677   1.028   5.719   6.037 -0.3658  0.0122 -0.7549
  687MOL0     H92678   0.704   5.976   5.664 -3.6166  1.3172 -0.6437
  687MOL0     H92679   0.547   6.141   5.655 -0.8315  1.7881  0.9336
  687MOL0     H92680   0.424   6.361   5.584  0.6628  1.3621 -0.8630
  687MOL0     H92681   0.442   6.317   5.761  2.6893  0.3772  0.8729
  687MOL0     H92682   0.431   6.605   5.650  0.3855  0.5530 -0.3819
  687MOL0     H92683   0.472   6.562   5.813 -0.2347  0.4202 -0.3807
  687MOL0     H92684   0.235   6.442   5.781  1.3772 -1.4010 -2.5825
  687MOL0     H92685   0.215   6.591   5.691  0.0697  0.9234  1.8430
  687MOL0     H92686   0.293   6.567   5.967 -4.6940 -4.4369 -0.0203
  687MOL0     H92687   0.263   6.728   5.866  3.9129 -0.1119  1.3760
  687MOL0     H92688   0.044   6.643   5.819 -0.8360 -1.2239 -0.5673
  687MOL0     H92689   0.058   6.511   5.923 -2.0323 -0.2660 -0.5485
  687MOL0     H92690   0.094   6.662   6.113  0.5154 -1.5882  0.0677
  687MOL0     H92691   0.064   6.797   5.999  0.0827 -1.7950 -1.1113
  687MOL0     H92692  -0.119   6.579   6.094 -0.2571 -1.6656 -1.3204
  687MOL0     H92693  -0.158   6.684   5.951  1.0526 -5.8346 -0.7182
  687MOL0     H92694  -0.109   6.770   6.227 -0.9507  0.1650  1.0520
  687MOL0     H92695  -0.143   6.884   6.093 -1.0242 -0.8885 -3.9277
  687MOL0     H92696  -0.333   6.552   6.127 -3.4432 -1.5727  1.8201
  687MOL0     H92697  -0.617   6.523   6.123  0.9114  0.4670 -0.1335
  687MOL0     H92698  -0.634   6.569   6.285 -3.3860  2.6727  1.8760
  687MOL0     H92699  -0.781   6.758   6.237 -0.8253  0.2693 -0.7911
  687MOL0     H92700  -0.734   6.749   6.062 -2.6980 -0.7309 -0.3342
  687MOL0     H92701  -0.841   6.502   6.134  0.0467  0.8956  2.3131
  687MOL0     H92702  -0.932   6.607   6.040 -0.7442 -0.8135  0.7201
  687MOL0     H92703  -0.913   6.582   6.348  3.2109 -0.6956 -2.8230
  687MOL0     H92704  -1.051   6.541   6.247  0.7785  0.5087 -0.3662
  687MOL0     H92705  -1.102   6.978   6.319  0.7911 -1.6928 -1.4653
  687MOL0     H92706  -1.263   7.056   6.510 -0.9197  0.0625  0.0614
  687MOL0     H92707  -1.365   6.881   7.011  0.9297  0.8078  1.7870
  687MOL0     H92708  -1.559   6.945   7.195  2.5695  3.6987 -1.3858
  687MOL0     H92709  -1.949   6.782   7.095 -2.6581  0.2192  1.2640
  687MOL0     H92710  -1.980   6.852   7.245 -0.1108 -2.3619 -0.2634
  687MOL0     H92711  -2.008   7.086   7.168 -1.3941  0.1012  0.2120
  687MOL0     H92712  -1.961   7.047   6.998 -1.0043  0.6340  0.0100
  687MOL0     H92713  -2.193   6.948   7.159 -0.2871 -1.9270 -1.3642
  687MOL0     H92714  -2.188   7.085   7.054 -0.2464  0.6983  1.0065
  687MOL0     H92715  -2.139   6.793   6.963  2.6722  0.8444 -1.0448
  687MOL0     H92716  -2.107   6.931   6.865  1.0135  1.6213  2.1569
  687MOL0     H92717  -2.349   7.004   6.893  0.9110 -0.5955 -2.1223
  687MOL0     H92718  -2.391   6.859   6.998 -0.1624 -1.6192 -0.9543
  687MOL0     H92719  -2.343   6.847   6.699  0.0916 -0.5295 -0.2287
  687MOL0     H92720  -2.345   6.711   6.808  2.5829  1.1186 -0.7750
  687MOL0     H92721  -2.576   6.911   6.807 -2.3471 -1.0232 -0.0657
  687MOL0     H92722  -2.579   6.735   6.855  2.9462 -2.7362 -2.0796
  687MOL0     H92723  -2.692   6.814   6.649  0.4777  5.4368  2.5650
  687MOL0     H92724  -2.537   6.864   6.583 -0.2203 -0.3878 -0.0009
  687MOL0     H92725  -1.843   6.858   6.882  0.7964 -2.5402 -2.5273
  687MOL0     H92726  -1.654   6.828   6.725  0.5246  4.1466 -1.5954
  687MOL0     H92727  -1.274   6.650   6.651  0.0429  0.6750 -0.0132
  687MOL0     H92728  -1.152   6.579   6.453 -1.3051 -0.6043 -2.9310
  687MOL0     H92729   0.857   6.436   5.685 -4.5632  1.9583  3.5855
  687MOL0     H92730   1.026   6.252   5.687 -0.2083  1.0264  0.3671
  687MOL0     H92731   1.168   5.875   5.595  2.3482 -1.6728 -1.8452
  687MOL0     H92732   1.370   5.745   5.611 -1.9990 -1.3382 -3.3666
  687MOL0     H92733   1.582   5.668   5.714  0.1538  0.0888  2.9324
  687MOL0     H92734   1.515   5.528   5.623 -1.4453 -1.3367  0.6849
  687MOL0     H92735   1.728   5.455   5.725 -0.3762  0.0661  0.7942
  687MOL0     H92736   1.598   5.402   5.832 -3.6992  2.7007  2.5310
  687MOL0     H92737   1.640   5.637   5.939 -0.5514 -2.3612  1.8248
  687MOL0     H92738   1.786   5.640   5.853  0.4660  0.9919  2.3184
  687MOL0     H92739   1.819   5.559   6.076  1.1601  0.7615 -1.6035
  687MOL0     H92740   1.709   5.416   6.050  1.4578 -1.4811  0.7875
  687MOL0     H92741   2.055   5.258   5.918 -1.4202 -0.8337 -0.5239
  687MOL0     H92742   1.263   5.589   5.993  2.7699  0.1645  0.3782
  687MOL0     H92743   0.998   5.819   6.071 -2.7326 -1.1246  0.7966
  687MOL0     H92744   0.938   5.659   6.023  0.2769 -0.6580 -2.1488
  687MOL0     H92745   1.081   5.687   6.128  0.4974  1.4374 -0.7231
  688MOL0     O92746  10.251  10.791   4.150  0.0853  0.0105  0.3550
  688MOL0     C92747  10.234  10.756   4.269  0.0742  0.1796  0.1046
  688MOL0     O92748  10.121  10.702   4.320  0.2871 -0.0119  0.2376
  688MOL0     C92749  10.020  10.659   4.233 -0.3704 -0.1243 -0.5029
  688MOL0     C92750   9.980  10.718   4.111  0.0200 -0.3381  0.3268
  688MOL0     C92751   9.891  10.641   4.037  0.0318 -0.2364 -0.2638
  688MOL0     C92752   9.832  10.527   4.089 -0.2537  0.0194  0.1644
  688MOL0     O92753   9.745  10.455   4.006 -0.1587 -1.2094  0.7673
  688MOL0     C92754   9.629  10.390   4.063  0.2820 -0.0248  0.6425
  688MOL0     C92755   9.529  10.351   3.948 -0.4314  0.0732 -0.0075
  688MOL0     C92756   9.451  10.477   3.918  0.4728  0.2266  0.4587
  688MOL0     C92757   9.365  10.477   3.793 -0.9208  0.3542  0.2923
  688MOL0     C92758   9.353  10.613   3.731  0.8189  0.6060 -0.1051
  688MOL0     C92759   9.286  10.608   3.594  0.0711 -0.0411  0.1525
  688MOL0     C92760   9.326  10.492   3.497 -0.4688 -0.4000 -0.2292
  688MOL0     C92761   9.476  10.511   3.461 -0.2471 -0.2356  0.4593
  688MOL0     N92762   9.520  10.425   3.346  0.2379 -0.4852 -1.2740
  688MOL0     C92763   9.595  10.468   3.247 -0.4676 -0.4841  0.5820
  688MOL0     C92764   9.646  10.352   3.196 -0.4427 -0.7034  0.0592
  688MOL0     C92765   9.741  10.350   3.075  0.6201 -0.0689 -0.3725
  688MOL0     C92766   9.880  10.382   3.106 -0.4376 -0.2252  1.0566
  688MOL0     C92767   9.958  10.394   2.973 -0.7540 -0.4567 -0.1471
  688MOL0     C92768  10.092  10.447   3.003  0.5093 -0.6482  0.7656
  688MOL0     O92769  10.072  10.589   3.001 -0.0864  0.0544  0.6276
  688MOL0     C92770  10.178  10.655   2.949  0.6243  0.1744  0.7603
  688MOL0     C92771  10.299  10.671   3.017  0.6853  0.2683 -0.0578
  688MOL0     C92772  10.400  10.748   2.973  0.0348  0.3754  1.0177
  688MOL0     C92773  10.380  10.835   2.860 -0.0294 -0.5819  0.1078
  688MOL0     C92774  10.494  10.911   2.809  0.3579 -0.1021  0.9574
  688MOL0     O92775  10.471  10.970   2.686 -0.1787  0.2281 -0.0725
  688MOL0     C92776  10.574  11.028   2.614 -0.8464  0.2521  0.0409
  688MOL0     C92777  10.690  10.948   2.575 -0.1528  0.3763 -0.1047
  688MOL0     C92778  10.800  11.010   2.525  0.3570 -0.2377  0.6222
  688MOL0     C92779  10.789  11.138   2.473 -0.6992  0.0103 -0.5019
  688MOL0     O92780  10.891  11.179   2.388 -0.1477  0.1564  0.3766
  688MOL0     C92781  10.906  11.321   2.359 -0.4850  0.5853  0.5703
  688MOL0     C92782  11.046  11.338   2.312 -0.0185 -0.0949 -0.1191
  688MOL0     C92783  11.099  11.480   2.322  0.7101  0.6623  0.2984
  688MOL0     C92784  11.081  11.568   2.199  0.1070 -0.1355  0.3155
  688MOL0     C92785  11.172  11.536   2.078  0.3752 -0.5637  0.2388
  688MOL0     C92786  11.307  11.481   2.113 -0.1157  0.6268 -0.0086
  688MOL0     C92787  11.421  11.500   2.010 -0.0098  0.6191 -0.6098
  688MOL0     C92788  11.531  11.409   2.056 -0.4867  0.3153 -0.5937
  688MOL0    Cl92789  11.664  11.509   2.126 -0.2376 -0.4073  0.0045
  688MOL0     C92790  10.666  11.207   2.488  0.1614 -1.0106 -0.1710
  688MOL0     C92791  10.560  11.153   2.566 -0.3906 -0.2585 -1.4763
  688MOL0     O92792  10.601  10.905   2.872  0.5037 -0.5639  0.1384
  688MOL0     C92793  10.261  10.816   2.783 -0.5204  0.6963  1.0098
  688MOL0     C92794  10.160  10.726   2.822 -0.0509  0.4991  0.0985
  688MOL0     N92795   9.573  10.249   3.248  0.5039  0.8408 -0.2175
  688MOL0     N92796   9.502  10.296   3.337 -0.0282 -0.1833 -0.4518
  688MOL0     C92797   9.871  10.472   4.221  0.5747  0.3184  0.6364
  688MOL0     C92798   9.963  10.547   4.284  0.2529 -0.0767  0.6968
  688MOL0     C92799  10.340  10.789   4.369  0.3218  0.3986 -0.7111
  688MOL0     C92800  10.304  10.790   4.507 -0.1151 -1.0201 -1.3863
  688MOL0     C92801  10.401  10.829   4.599  0.4848 -0.1393  0.1187
  688MOL0     C92802  10.536  10.834   4.567  0.2504 -0.8469 -0.3686
  688MOL0     O92803  10.636  10.852   4.662 -0.1173  0.1297 -0.3244
  688MOL0     C92804  10.768  10.790   4.638 -0.5247  0.0715  0.8288
  688MOL0     C92805  10.839  10.761   4.781  0.2390  0.9613  0.4515
  688MOL0     C92806  10.876  10.875   4.863 -0.1449 -0.3247 -0.3322
  688MOL0     C92807  10.772  10.910   4.969  0.3048 -0.4498 -0.2112
  688MOL0     C92808  10.806  11.035   5.049 -0.3070  0.9943  0.0183
  688MOL0     C92809  10.817  11.135   5.134  0.2495  0.2555 -0.8051
  688MOL0     C92810  10.573  10.821   4.431 -0.3127 -0.0361  0.7481
  688MOL0     C92811  10.476  10.804   4.333  0.4328  1.2540 -0.7496
  688MOL0     C92812  10.528  10.828   4.190  0.3436  0.3845 -0.0556
  688MOL0     H92813  10.025  10.806   4.065  2.8483 -1.9940 -0.3084
  688MOL0     H92814   9.873  10.676   3.936  2.4170  2.6899  0.1931
  688MOL0     H92815   9.658  10.296   4.110 -1.8084 -0.2475  1.5771
  688MOL0     H92816   9.595  10.458   4.141  0.8902  1.9956 -0.7569
  688MOL0     H92817   9.459  10.287   4.002 -0.2266  1.3743  1.9155
  688MOL0     H92818   9.581  10.292   3.871 -0.5641 -0.6895  0.4831
  688MOL0     H92819   9.533  10.547   3.903 -0.9541  1.3277 -3.7132
  688MOL0     H92820   9.377  10.493   3.997 -1.1749 -0.0853 -0.9357
  688MOL0     H92821   9.420  10.406   3.730 -0.0082 -0.4915  1.9711
  688MOL0     H92822   9.267  10.431   3.808 -0.7504  0.0681  0.5521
  688MOL0     H92823   9.290  10.680   3.791  0.4967  1.7679 -1.6566
  688MOL0     H92824   9.448  10.665   3.719  1.4788 -0.5613  0.0044
  688MOL0     H92825   9.180  10.625   3.613 -0.0047  1.4556 -1.4098
  688MOL0     H92826   9.326  10.696   3.544  2.0680 -2.2601 -2.4021
  688MOL0     H92827   9.261  10.494   3.409 -0.2257  2.2807 -0.4235
  688MOL0     H92828   9.304  10.400   3.552 -1.1481 -0.1475 -0.0626
  688MOL0     H92829   9.482  10.614   3.426 -2.9461  0.9123  2.9809
  688MOL0     H92830   9.544  10.496   3.545 -1.6112 -2.9312  1.2005
  688MOL0     H92831   9.616  10.572   3.223 -1.0593 -0.3418  0.6756
  688MOL0     H92832   9.721  10.247   3.040 -4.4874 -0.2298  2.0862
  688MOL0     H92833   9.706  10.421   3.000  1.9253  1.2942  0.2723
  688MOL0     H92834   9.884  10.482   3.150  1.5893 -0.7303  2.1434
  688MOL0     H92835   9.931  10.308   3.168 -0.2603 -2.0717 -1.1305
  688MOL0     H92836   9.907  10.455   2.898  2.6398  2.8923  0.0128
  688MOL0     H92837   9.979  10.298   2.925  0.0264 -0.2378 -0.2537
  688MOL0     H92838  10.162  10.417   2.924  0.9407  0.4460  0.7129
  688MOL0     H92839  10.136  10.409   3.096  0.7977  1.8748  1.7480
  688MOL0     H92840  10.317  10.619   3.111 -2.2665 -4.0031 -1.5472
  688MOL0     H92841  10.493  10.758   3.028 -0.7270 -0.8524  2.6140
  688MOL0     H92842  10.697  10.844   2.603 -2.9910  1.1391  4.5268
  688MOL0     H92843  10.891  10.958   2.495  0.4303  0.9622 -1.4403
  688MOL0     H92844  10.834  11.359   2.286  1.8904  1.3150 -1.5228
  688MOL0     H92845  10.898  11.365   2.459  1.0459  1.5825  0.2782
  688MOL0     H92846  11.106  11.275   2.378 -1.0859 -0.7778  0.2250
  688MOL0     H92847  11.073  11.301   2.212  1.6652  1.5919 -0.3307
  688MOL0     H92848  11.045  11.528   2.404 -0.1158 -1.4401  1.0702
  688MOL0     H92849  11.203  11.463   2.353  0.7175  0.3637  0.1176
  688MOL0     H92850  11.118  11.664   2.236 -1.6736  0.9276 -0.5350
  688MOL0     H92851  10.978  11.566   2.162  0.1305 -1.7386  0.2536
  688MOL0     H92852  11.195  11.630   2.027  1.7824 -0.7331  0.5065
  688MOL0     H92853  11.111  11.473   2.012  0.6551  1.0422 -1.6336
  688MOL0     H92854  11.342  11.522   2.208  0.3049 -1.1453  0.6567
  688MOL0     H92855  11.284  11.373   2.114 -1.7195  0.9312 -0.6670
  688MOL0     H92856  11.458  11.601   2.027  0.5529 -0.0598  2.8685
  688MOL0     H92857  11.377  11.479   1.912 -0.6539 -2.5684  0.2511
  688MOL0     H92858  11.496  11.326   2.118  1.6107 -1.4215 -1.6024
  688MOL0     H92859  11.568  11.367   1.962  0.1319  1.2846 -0.7962
  688MOL0     H92860  10.653  11.299   2.432  1.0788 -1.2193 -0.7482
  688MOL0     H92861  10.472  11.212   2.590 -0.8600 -0.5863 -2.3596
  688MOL0     H92862  10.241  10.876   2.696 -4.5424  0.1131  1.3435
  688MOL0     H92863  10.070  10.716   2.763 -1.0959 -0.0930  1.7159
  688MOL0     H92864   9.817  10.381   4.243 -2.8725  1.5814 -1.6606
  688MOL0     H92865   9.979  10.524   4.389  0.6498 -0.6104  0.5260
  688MOL0     H92866  10.201  10.780   4.541  0.2063 -0.3487 -0.1641
  688MOL0     H92867  10.374  10.833   4.704  0.8209  0.1208  0.1954
  688MOL0     H92868  10.842  10.841   4.576  0.9197 -1.7436  0.9523
  688MOL0     H92869  10.747  10.693   4.591  0.1616 -0.4550  1.5676
  688MOL0     H92870  10.929  10.705   4.755  0.3842 -0.0202  2.7847
  688MOL0     H92871  10.777  10.683   4.828 -0.0721 -3.1727 -5.5972
  688MOL0     H92872  10.898  10.960   4.798 -1.3154  0.8213  0.7220
  688MOL0     H92873  10.968  10.843   4.913  2.4476  1.2748 -3.7035
  688MOL0     H92874  10.678  10.919   4.913 -0.0767  0.5366  0.5565
  688MOL0     H92875  10.769  10.822   5.034  1.6767  0.3835  1.0325
  688MOL0     H92876  10.784  11.204   5.209  3.2077 -0.8227  1.7043
  688MOL0     H92877  10.678  10.823   4.402  0.6501 -1.9159  3.6288
  688MOL0     H92878  10.501  10.747   4.122 -4.1754  2.8633 -1.5597
  688MOL0     H92879  10.483  10.918   4.149  0.2413  0.8326  1.0132
  688MOL0     H92880  10.638  10.823   4.196  0.2981 -0.4145  0.2103
  689MOL0     O92881   8.040  10.403   7.230 -0.0983 -0.0740  0.4090
  689MOL0     C92882   7.933  10.346   7.255 -1.1961 -0.3496 -0.6796
  689MOL0     O92883   7.923  10.238   7.335  1.4398 -0.5993  0.0549
  689MOL0     C92884   8.027  10.162   7.380 -0.5561 -0.6556  0.8045
  689MOL0     C92885   8.139  10.217   7.453  1.1531  0.2168 -0.3574
  689MOL0     C92886   8.233  10.127   7.499 -0.7470 -0.0197  0.6815
  689MOL0     C92887   8.234   9.990   7.467  0.0297 -0.3412  0.0278
  689MOL0     O92888   8.340   9.922   7.518 -0.9636  1.0529 -0.2131
  689MOL0     C92889   8.362   9.794   7.457 -0.0174 -0.8252  0.1050
  689MOL0     C92890   8.487   9.722   7.514  0.2136 -0.3101 -0.2860
  689MOL0     C92891   8.613   9.810   7.481  0.5259  0.3143  0.0248
  689MOL0     C92892   8.709   9.746   7.378  1.2567  0.3709 -0.9136
  689MOL0     C92893   8.844   9.817   7.380  0.3785  0.0416  0.8005
  689MOL0     C92894   8.817   9.950   7.310 -0.6347  1.6816  0.4836
  689MOL0     C92895   8.952  10.017   7.266 -0.1984 -0.0826 -0.9781
  689MOL0     C92896   8.919  10.154   7.209  0.2344 -0.5131 -0.3302
  689MOL0     N92897   9.041  10.230   7.177 -0.0720 -0.4751 -0.5891
  689MOL0     C92898   9.050  10.375   7.180  0.5319 -0.1642  0.5103
  689MOL0     C92899   9.187  10.398   7.169 -0.0000  0.7664 -0.0336
  689MOL0     C92900   9.248  10.533   7.170  0.5312  0.1062 -0.4390
  689MOL0     C92901   9.226  10.609   7.299 -0.6737  0.6841 -0.5716
  689MOL0     C92902   9.305  10.542   7.423 -0.0513 -0.1288 -0.2037
  689MOL0     C92903   9.447  10.498   7.407  0.2986 -1.0803  0.2208
  689MOL0     O92904   9.514  10.601   7.330 -0.6546 -0.4057 -0.3834
  689MOL0     C92905   9.595  10.699   7.377  0.3687 -0.2727 -0.7199
  689MOL0     C92906   9.612  10.723   7.518  1.0063 -0.5192  0.1011
  689MOL0     C92907   9.701  10.825   7.562  0.4551 -0.0862 -0.1445
  689MOL0     C92908   9.789  10.889   7.473 -0.6736 -0.0335  0.3568
  689MOL0     C92909   9.896  10.971   7.519  0.9565 -0.6895 -0.0133
  689MOL0     O92910   9.907  10.985   7.652  0.1504 -1.0533 -0.3311
  689MOL0     C92911  10.006  11.057   7.710 -1.1136 -0.3995  0.6488
  689MOL0     C92912   9.979  11.156   7.810  0.7830 -0.2383  0.5008
  689MOL0     C92913  10.081  11.209   7.885 -0.7334 -0.4459  0.5129
  689MOL0     C92914  10.215  11.183   7.854 -0.3297 -0.1505  0.5288
  689MOL0     O92915  10.309  11.242   7.932 -0.0398 -0.0310  0.2357
  689MOL0     C92916  10.371  11.149   8.024  0.2030  0.4200  0.0657
  689MOL0     C92917  10.472  11.219   8.125 -0.3330  0.0895  0.7422
  689MOL0     C92918  10.603  11.251   8.063 -0.0182  0.9463  0.0520
  689MOL0     C92919  10.701  11.141   8.106  0.8176  0.3885  1.0120
  689MOL0     C92920  10.818  11.123   8.024  0.0065  1.0181  1.0017
  689MOL0     C92921  10.931  11.226   8.030  0.5781  0.0572 -0.9940
  689MOL0     C92922  11.068  11.170   7.982  0.1984 -0.5350  0.2813
  689MOL0     C92923  11.074  11.136   7.823 -0.1916 -0.1207 -0.5551
  689MOL0    Cl92924  11.228  11.077   7.767 -0.1937 -0.4216  0.3693
  689MOL0     C92925  10.244  11.099   7.747  0.6621  0.3730 -0.2060
  689MOL0     C92926  10.139  11.029   7.679  0.0786  0.1533 -0.4251
  689MOL0     O92927   9.971  11.026   7.436  0.4673 -1.0483  0.4047
  689MOL0     C92928   9.779  10.855   7.333 -0.2430 -0.4947 -0.2349
  689MOL0     C92929   9.681  10.765   7.292 -0.5342  1.3152 -0.5394
  689MOL0     N92930   9.244  10.277   7.134 -0.0633  0.3130  0.0795
  689MOL0     N92931   9.163  10.178   7.141  0.4514  0.1494  0.3553
  689MOL0     C92932   8.131   9.938   7.381  1.2609  0.2013 -0.0236
  689MOL0     C92933   8.031  10.030   7.339 -0.5312 -0.1754  1.2717
  689MOL0     C92934   7.800  10.394   7.191 -0.4473 -0.0436  0.0507
  689MOL0     C92935   7.683  10.304   7.182 -0.0031  0.1335  0.5261
  689MOL0     C92936   7.561  10.343   7.138  0.8192 -0.2789  0.9366
  689MOL0     C92937   7.538  10.469   7.088  0.3622 -0.6428 -0.9161
  689MOL0     O92938   7.415  10.540   7.056 -0.1876  0.1539  0.2647
  689MOL0     C92939   7.286  10.481   7.071 -0.4342 -0.0115 -0.2285
  689MOL0     C92940   7.174  10.579   7.032 -0.3137  0.1997 -0.5366
  689MOL0     C92941   7.049  10.506   6.988  0.8977  1.0821  0.3020
  689MOL0     C92942   6.925  10.560   7.070  0.5355 -0.3675 -0.2371
  689MOL0     C92943   6.798  10.533   7.002 -0.8861 -0.2450  0.2542
  689MOL0     C92944   6.706  10.511   6.932 -0.8882  0.5489  1.0366
  689MOL0     C92945   7.640  10.559   7.108  0.6273 -0.2047  0.7675
  689MOL0     C92946   7.774  10.525   7.146 -0.1987  0.5132  0.1712
  689MOL0     C92947   7.874  10.635   7.172 -0.2179  0.0559 -0.0354
  689MOL0     H92948   8.146  10.320   7.487  1.4319  0.3278 -0.7496
  689MOL0     H92949   8.316  10.168   7.557  1.4458 -3.2452  0.0928
  689MOL0     H92950   8.275   9.729   7.468  0.4801 -1.4756  0.2525
  689MOL0     H92951   8.388   9.803   7.351 -1.1684  2.8813 -0.0118
  689MOL0     H92952   8.502   9.617   7.488 -0.5415 -0.6045  0.4017
  689MOL0     H92953   8.469   9.706   7.621  0.3646 -0.9195 -0.3449
  689MOL0     H92954   8.665   9.823   7.577 -1.0846  2.6089  0.6645
  689MOL0     H92955   8.593   9.911   7.446  1.1482  0.9038  1.2643
  689MOL0     H92956   8.719   9.641   7.407  0.2152  0.5195  0.0571
  689MOL0     H92957   8.664   9.768   7.281  1.2650  1.6319 -0.6588
  689MOL0     H92958   8.884   9.823   7.481  4.7463 -0.0044 -0.7170
  689MOL0     H92959   8.903   9.746   7.321 -0.4113  0.2472 -0.2646
  689MOL0     H92960   8.755   9.935   7.220  3.3821  1.3143 -2.5169
  689MOL0     H92961   8.762  10.010   7.383 -0.9922  0.3654  1.3363
  689MOL0     H92962   9.006   9.946   7.202  0.3046 -1.3442  0.7747
  689MOL0     H92963   9.019  10.021   7.352  2.4531 -1.4044 -2.8389
  689MOL0     H92964   8.848  10.144   7.126  1.0684  1.8398 -1.4136
  689MOL0     H92965   8.868  10.221   7.279  1.1634  0.8136 -0.9037
  689MOL0     H92966   8.967  10.442   7.193 -1.4507 -1.9351 -2.0836
  689MOL0     H92967   9.356  10.534   7.156  0.4457  1.9820 -1.2300
  689MOL0     H92968   9.201  10.591   7.090 -0.6452  1.5465  1.2152
  689MOL0     H92969   9.265  10.711   7.292  0.5587  0.3508  0.6792
  689MOL0     H92970   9.120  10.616   7.324 -0.5032  1.5836 -0.0468
  689MOL0     H92971   9.249  10.451   7.446 -0.3850  0.0293 -0.3911
  689MOL0     H92972   9.291  10.606   7.510 -0.7095  0.0660 -0.4463
  689MOL0     H92973   9.437  10.404   7.352 -1.9242 -0.1640 -1.0701
  689MOL0     H92974   9.505  10.477   7.498  0.7480 -1.1016 -0.0690
  689MOL0     H92975   9.558  10.664   7.592  3.0343  0.6641  2.7093
  689MOL0     H92976   9.698  10.836   7.670 -2.5280  2.5839 -0.3605
  689MOL0     H92977   9.874  11.183   7.818  0.4356 -0.0954 -2.7814
  689MOL0     H92978  10.071  11.283   7.963  2.4516  0.9704 -0.2503
  689MOL0     H92979  10.289  11.104   8.081  0.4299 -0.5912 -0.3861
  689MOL0     H92980  10.432  11.071   7.978 -0.3908  0.7716 -1.3729
  689MOL0     H92981  10.414  11.300   8.170 -1.1633 -0.2249  0.2465
  689MOL0     H92982  10.495  11.153   8.210  2.4489  0.4195  0.3348
  689MOL0     H92983  10.589  11.256   7.955  2.0968  4.0715 -0.2315
  689MOL0     H92984  10.630  11.352   8.094 -1.0359  0.6149  2.2509
  689MOL0     H92985  10.642  11.049   8.103  1.3155  0.0822 -0.9319
  689MOL0     H92986  10.740  11.168   8.205  3.2937  1.9413 -0.2906
  689MOL0     H92987  10.783  11.125   7.921 -0.3907  0.1983  1.1112
  689MOL0     H92988  10.864  11.027   8.048 -0.7718  0.4277  0.1756
  689MOL0     H92989  10.894  11.319   7.987 -0.2618 -0.8801 -2.3860
  689MOL0     H92990  10.947  11.249   8.136  0.3670 -1.6087 -0.5624
  689MOL0     H92991  11.117  11.093   8.043  0.1262  0.4159  1.5889
  689MOL0     H92992  11.130  11.260   7.990  0.0691 -0.4763  0.6524
  689MOL0     H92993  10.992  11.076   7.781  0.1420  1.1297 -3.1965
  689MOL0     H92994  11.066  11.234   7.776 -2.3895 -0.2228 -0.5111
  689MOL0     H92995  10.348  11.081   7.721  0.2533 -0.9276 -1.0391
  689MOL0     H92996  10.162  10.959   7.598 -0.1049 -2.1983  1.4459
  689MOL0     H92997   9.847  10.901   7.262  0.1787  0.8012  0.9691
  689MOL0     H92998   9.673  10.744   7.185 -2.3789  0.9660 -0.3752
  689MOL0     H92999   8.122   9.831   7.363  1.4422 -0.2686  2.2650
  689MOL0     H93000   7.940   9.993   7.292 -0.4885 -0.0792  1.1128
  689MOL0     H93001   7.706  10.203   7.215  2.0257  0.2048 -0.4892
  689MOL0     H93002   7.473  10.282   7.158 -0.2871  1.4843  1.6009
  689MOL0     H93003   7.265  10.456   7.176 -1.5942  0.5874 -0.3005
  689MOL0     H93004   7.285  10.392   7.007  0.5472  0.2200 -0.5686
  689MOL0     H93005   7.197  10.640   6.944 -1.9372  1.3679 -0.2112
  689MOL0     H93006   7.142  10.645   7.114 -1.2816 -1.6912  0.6864
  689MOL0     H93007   7.055  10.397   6.987  0.7612  0.9463  3.3079
  689MOL0     H93008   7.036  10.524   6.881 -0.4337 -2.1313 -0.1979
  689MOL0     H93009   6.913  10.521   7.172  0.8272 -1.7984 -0.7217
  689MOL0     H93010   6.939  10.666   7.092 -3.2588  0.4040 -0.7876
  689MOL0     H93011   6.627  10.463   6.878  1.2245 -0.5647 -1.2789
  689MOL0     H93012   7.614  10.662   7.088  0.6380 -0.5952 -1.4782
  689MOL0     H93013   7.891  10.655   7.279 -0.0459  0.2126 -0.0908
  689MOL0     H93014   7.972  10.607   7.132  0.4832 -0.6383  2.0268
  689MOL0     H93015   7.843  10.730   7.128 -1.8169 -0.1566  0.5473
  690MOL0     O93016  10.704   8.526   5.638  0.4876 -0.3827  0.2347
  690MOL0     C93017  10.633   8.472   5.556 -0.1247 -0.3557 -0.1156
  690MOL0     O93018  10.667   8.452   5.421  0.3577  0.6346  0.7407
  690MOL0     C93019  10.761   8.514   5.347 -0.5966  0.4584  0.2476
  690MOL0     C93020  10.782   8.456   5.222 -0.0890  0.4503  0.0746
  690MOL0     C93021  10.860   8.516   5.121 -0.3865 -1.4697 -0.0432
  690MOL0     C93022  10.908   8.643   5.151  0.3237 -0.1243 -0.1521
  690MOL0     O93023  10.982   8.713   5.059  0.7335  0.7974 -0.3124
  690MOL0     C93024  11.119   8.679   5.076  0.3756  0.8716 -0.5861
  690MOL0     C93025  11.199   8.736   4.960 -0.6188 -0.5374 -0.7672
  690MOL0     C93026  11.195   8.637   4.849  0.4066  0.4571 -0.1602
  690MOL0     C93027  11.257   8.686   4.721  0.8790  0.7906  0.5337
  690MOL0     C93028  11.409   8.705   4.736  0.2291  0.8359  0.4914
  690MOL0     C93029  11.497   8.571   4.782  0.1558  0.3341 -0.2782
  690MOL0     C93030  11.642   8.605   4.771 -0.2506  0.7015  0.4976
  690MOL0     C93031  11.749   8.492   4.777  0.8042 -0.3285 -0.1765
  690MOL0     N93032  11.798   8.452   4.645 -0.8687 -0.4515 -0.3268
  690MOL0     C93033  11.742   8.453   4.522  0.7649 -0.2285  0.0788
  690MOL0     C93034  11.830   8.410   4.432  0.6860 -0.5302  0.8157
  690MOL0     C93035  11.834   8.415   4.283  0.0690 -1.2444  0.8993
  690MOL0     C93036  11.786   8.286   4.213 -1.1063  0.0664  0.0466
  690MOL0     C93037  11.820   8.280   4.063 -0.4149  0.5589  0.5168
  690MOL0     C93038  11.785   8.151   3.999  0.8225 -0.6064  1.3054
  690MOL0     O93039  11.784   8.145   3.854  0.3840  0.3454 -0.9090
  690MOL0     C93040  11.868   8.046   3.812  1.2450 -0.6031  0.3775
  690MOL0     C93041  12.002   8.074   3.798 -0.1012 -0.3901  0.7000
  690MOL0     C93042  12.084   7.972   3.741  1.2603 -0.2659  0.8466
  690MOL0     C93043  12.045   7.840   3.716 -0.7503  0.2269  0.6855
  690MOL0     C93044  12.145   7.736   3.672  0.3220 -1.0093 -0.8797
  690MOL0     O93045  12.093   7.638   3.597 -0.0004  0.3689  0.3696
  690MOL0     C93046  12.166   7.526   3.547 -0.6707  1.0118 -0.5579
  690MOL0     C93047  12.136   7.489   3.415 -0.1268  0.1650  1.2796
  690MOL0     C93048  12.204   7.383   3.349 -0.1640 -0.7584  0.2591
  690MOL0     C93049  12.309   7.324   3.414 -0.9599  0.3883  0.1161
  690MOL0     O93050  12.372   7.227   3.344  0.1658  0.4292 -0.2860
  690MOL0     C93051  12.462   7.134   3.407  0.4654 -0.5088  0.4810
  690MOL0     C93052  12.522   7.057   3.287 -0.0965 -0.3207  0.2067
  690MOL0     C93053  12.624   6.953   3.336 -0.0078  0.3190  0.1605
  690MOL0     C93054  12.653   6.864   3.204 -0.3301 -0.2348 -0.9014
  690MOL0     C93055  12.740   6.740   3.241  0.8672 -1.0065 -0.1452
  690MOL0     C93056  12.768   6.666   3.116  0.3922  0.3029  0.5451
  690MOL0     C93057  12.843   6.540   3.163  0.4958  0.5346 -0.5805
  690MOL0     C93058  12.900   6.452   3.066  0.5762 -0.9689 -0.3594
  690MOL0    Cl93059  12.766   6.387   2.968 -0.2881  0.0409 -0.0889
  690MOL0     C93060  12.344   7.359   3.546  0.1679  0.4729  0.3289
  690MOL0     C93061  12.275   7.456   3.615  0.3184  0.4693  1.4056
  690MOL0     O93062  12.263   7.751   3.709 -0.7482 -0.1450 -0.6083
  690MOL0     C93063  11.907   7.808   3.731 -1.2301 -0.8346  0.2284
  690MOL0     C93064  11.822   7.912   3.777  0.3724  0.8009  0.1955
  690MOL0     N93065  11.940   8.374   4.508 -0.3546  0.5760  0.0905
  690MOL0     N93066  11.922   8.401   4.631  0.2439 -0.5484  0.5073
  690MOL0     C93067  10.883   8.706   5.270  0.5730  0.4933 -0.2023
  690MOL0     C93068  10.821   8.636   5.378  0.3016 -0.8410 -0.3247
  690MOL0     C93069  10.508   8.410   5.623 -0.1725 -1.2498 -0.1148
  690MOL0     C93070  10.397   8.413   5.545  0.2774  0.5363 -0.0052
  690MOL0     C93071  10.267   8.362   5.586 -0.6250 -0.7441 -0.1903
  690MOL0     C93072  10.256   8.309   5.722 -0.6492 -0.4708 -0.2403
  690MOL0     O93073  10.142   8.252   5.778  0.4933  0.4029  0.1374
  690MOL0     C93074  10.026   8.207   5.696 -0.1636  0.4889  0.1275
  690MOL0     C93075   9.930   8.321   5.668 -0.1715  0.5697 -0.1098
  690MOL0     C93076   9.848   8.334   5.792  0.4026  0.3244 -0.6286
  690MOL0     C93077   9.700   8.327   5.761  0.1725  1.2265 -1.0802
  690MOL0     C93078   9.629   8.325   5.889 -0.3350 -0.7777 -0.4549
  690MOL0     C93079   9.583   8.331   6.004  0.4811 -0.2919 -0.0457
  690MOL0     C93080  10.372   8.316   5.809  0.7743 -0.1291 -0.2189
  690MOL0     C93081  10.502   8.353   5.758 -1.2055  0.1447 -0.4972
  690MOL0     C93082  10.617   8.345   5.844  0.7576  0.3841  0.1521
  690MOL0     H93083  10.727   8.366   5.198  2.1173 -0.1269 -3.3370
  690MOL0     H93084  10.886   8.468   5.027  4.6136 -1.6653  1.1749
  690MOL0     H93085  11.152   8.721   5.172  0.3514  1.2749 -0.7491
  690MOL0     H93086  11.130   8.571   5.090  3.2196  0.9833 -1.4184
  690MOL0     H93087  11.303   8.751   4.990 -1.2887  0.2557  1.3755
  690MOL0     H93088  11.154   8.829   4.923 -0.1298 -0.3866 -1.0018
  690MOL0     H93089  11.088   8.624   4.830 -0.0640  1.9693  1.2723
  690MOL0     H93090  11.249   8.544   4.870  1.1131  0.2101 -2.6948
  690MOL0     H93091  11.227   8.614   4.644  0.5957 -1.0591  2.2778
  690MOL0     H93092  11.222   8.784   4.686 -0.3829  0.2994  0.3763
  690MOL0     H93093  11.455   8.732   4.641 -0.0160  0.4385  0.2541
  690MOL0     H93094  11.432   8.784   4.807 -1.0607  0.7731  1.0150
  690MOL0     H93095  11.476   8.537   4.884  4.7360  0.7924  1.0347
  690MOL0     H93096  11.469   8.492   4.712 -0.0622  1.6338 -1.7088
  690MOL0     H93097  11.659   8.661   4.863 -0.6679 -1.6533  2.1083
  690MOL0     H93098  11.659   8.669   4.685 -1.0827  0.8509  0.4423
  690MOL0     H93099  11.828   8.531   4.842  2.5360 -1.0373 -1.7579
  690MOL0     H93100  11.712   8.403   4.830  0.9776 -0.6310 -0.5584
  690MOL0     H93101  11.639   8.484   4.509  1.1052  0.7424 -0.3800
  690MOL0     H93102  11.768   8.493   4.243  1.0406 -3.3957 -6.3757
  690MOL0     H93103  11.938   8.426   4.250 -0.5923  0.3197 -0.8685
  690MOL0     H93104  11.823   8.199   4.269 -2.7638 -0.2142  0.7512
  690MOL0     H93105  11.679   8.273   4.227 -1.3292  1.0549 -0.6927
  690MOL0     H93106  11.926   8.294   4.040 -0.4083 -1.9836 -1.3813
  690MOL0     H93107  11.756   8.357   4.018  1.9020  1.1337 -2.0737
  690MOL0     H93108  11.686   8.114   4.027  0.5701 -2.5112 -1.6664
  690MOL0     H93109  11.862   8.085   4.040  3.6046  1.4954 -0.2570
  690MOL0     H93110  12.054   8.166   3.823  2.5788 -1.8419  0.8907
  690MOL0     H93111  12.186   8.001   3.719  0.8323  2.1110  1.6895
  690MOL0     H93112  12.053   7.538   3.365 -1.8219 -3.0785  0.6399
  690MOL0     H93113  12.178   7.337   3.254  0.1109 -1.7304  0.6466
  690MOL0     H93114  12.542   7.192   3.454  0.0423  1.0425 -0.6007
  690MOL0     H93115  12.421   7.073   3.488  0.6335  2.7096  3.2577
  690MOL0     H93116  12.436   7.022   3.228 -0.6102  0.7609  0.2997
  690MOL0     H93117  12.574   7.132   3.228  1.2525 -1.3629  0.0088
  690MOL0     H93118  12.704   7.014   3.377 -0.2828  3.1258 -3.0552
  690MOL0     H93119  12.581   6.891   3.416 -0.9320 -3.1779 -2.7724
  690MOL0     H93120  12.690   6.936   3.130 -0.6290  0.9157  0.0223
  690MOL0     H93121  12.560   6.825   3.162 -1.3595 -1.4392  2.2027
  690MOL0     H93122  12.688   6.679   3.315 -0.2130 -0.7789 -0.6942
  690MOL0     H93123  12.836   6.776   3.281  1.5648 -2.7337 -0.1934
  690MOL0     H93124  12.678   6.645   3.058  1.4973  0.1422 -1.1855
  690MOL0     H93125  12.820   6.728   3.043  0.1538  0.5373  0.5732
  690MOL0     H93126  12.792   6.479   3.238  3.4500 -0.9361  0.3785
  690MOL0     H93127  12.931   6.579   3.216  1.6789  0.5026 -2.4297
  690MOL0     H93128  12.977   6.494   3.000  2.5049  0.8805  2.7853
  690MOL0     H93129  12.941   6.367   3.122  4.2438 -0.8766 -2.5786
  690MOL0     H93130  12.416   7.318   3.616 -0.7840  1.2250  1.8238
  690MOL0     H93131  12.290   7.472   3.721 -0.0555 -1.1655  1.7317
  690MOL0     H93132  11.866   7.710   3.705 -2.7931  0.3461 -2.1070
  690MOL0     H93133  11.715   7.895   3.788  0.4900  1.1815  2.3317
  690MOL0     H93134  10.915   8.810   5.278 -1.4277  1.1387 -0.0028
  690MOL0     H93135  10.805   8.685   5.473  1.5134 -0.0419 -0.5099
  690MOL0     H93136  10.401   8.465   5.450 -2.5196 -1.2167 -1.2149
  690MOL0     H93137  10.177   8.366   5.526 -0.4077  2.4643 -0.4493
  690MOL0     H93138   9.987   8.116   5.743  1.5752 -0.3331  0.0814
  690MOL0     H93139  10.067   8.171   5.601 -1.6085  3.3862 -1.7245
  690MOL0     H93140   9.863   8.285   5.591 -1.3869 -1.4900  1.7977
  690MOL0     H93141   9.966   8.419   5.636  0.2108  0.7369  0.8006
  690MOL0     H93142   9.880   8.426   5.844 -0.5125 -0.9972  2.5344
  690MOL0     H93143   9.877   8.262   5.869 -0.3176  1.1879  0.4933
  690MOL0     H93144   9.666   8.415   5.706  0.1532  0.5974 -2.1120
  690MOL0     H93145   9.690   8.237   5.699 -1.6282  0.1631  0.6106
  690MOL0     H93146   9.543   8.344   6.102 -1.1649  2.4046 -0.9663
  690MOL0     H93147  10.372   8.275   5.910 -1.0228  2.8060  1.1164
  690MOL0     H93148  10.710   8.309   5.799  0.9958  1.7380 -0.4786
  690MOL0     H93149  10.633   8.438   5.898 -0.2155 -0.8879  2.8213
  690MOL0     H93150  10.586   8.264   5.911  0.4422 -0.6708 -1.2126
  691MOL0     O93151   0.969   0.676   9.418  0.4119 -0.2709  0.4915
  691MOL0     C93152   1.004   0.570   9.375  0.4249  0.4483  0.1434
  691MOL0     O93153   1.062   0.556   9.252  1.2466  0.0194 -0.0394
  691MOL0     C93154   1.142   0.656   9.197  0.3888 -0.1844 -1.6037
  691MOL0     C93155   1.275   0.653   9.237 -0.0440 -0.0556  0.0152
  691MOL0     C93156   1.377   0.727   9.184 -1.0748 -0.1086  0.3154
  691MOL0     C93157   1.338   0.809   9.075 -0.4117  0.2587 -0.4427
  691MOL0     O93158   1.433   0.892   9.020  0.4949  0.2331 -0.3879
  691MOL0     C93159   1.394   0.984   8.911 -0.6283  0.0324  0.2917
  691MOL0     C93160   1.517   1.072   8.872  0.3587  0.5367  0.5996
  691MOL0     C93161   1.488   1.156   8.747  0.2365 -0.7879  0.2924
  691MOL0     C93162   1.600   1.243   8.721 -0.9500 -0.2545  0.4076
  691MOL0     C93163   1.582   1.327   8.590  0.2711  0.3705 -0.1611
  691MOL0     C93164   1.506   1.451   8.631  0.0386 -0.6094  0.3370
  691MOL0     C93165   1.480   1.551   8.526 -0.8460  0.4800 -0.2495
  691MOL0     C93166   1.361   1.644   8.545 -0.4913  0.1621 -1.1277
  691MOL0     N93167   1.350   1.732   8.424 -0.2374 -0.0347 -0.0890
  691MOL0     C93168   1.279   1.710   8.304 -0.2124  0.6250 -0.1552
  691MOL0     C93169   1.324   1.808   8.215  0.2427 -0.5425 -0.5206
  691MOL0     C93170   1.276   1.823   8.076 -0.7157 -0.1895 -0.9048
  691MOL0     C93171   1.374   1.758   7.984  0.1571  1.2151  0.2700
  691MOL0     C93172   1.504   1.829   7.936  0.0687 -0.7958 -0.4655
  691MOL0     C93173   1.582   1.748   7.823  0.8007  0.2496 -0.5917
  691MOL0     O93174   1.616   1.620   7.868 -0.1853 -0.6764  0.2455
  691MOL0     C93175   1.735   1.602   7.929 -0.6760 -0.6206  0.0151
  691MOL0     C93176   1.763   1.469   7.954 -0.3068  0.0323  0.1356
  691MOL0     C93177   1.884   1.423   8.003 -0.0579 -0.5869  0.9624
  691MOL0     C93178   1.979   1.517   8.038  0.2750 -0.2847 -0.0728
  691MOL0     C93179   2.119   1.478   8.098 -0.6996  0.4857  0.6304
  691MOL0     O93180   2.163   1.345   8.080  0.5252  0.4123 -0.2667
  691MOL0     C93181   2.295   1.319   8.108  0.4914  0.2110  0.4104
  691MOL0     C93182   2.324   1.197   8.171  0.4213 -0.2820  0.1942
  691MOL0     C93183   2.455   1.150   8.176  0.1794 -0.4610 -0.6185
  691MOL0     C93184   2.560   1.235   8.140 -0.8467 -0.3372 -0.3508
  691MOL0     O93185   2.683   1.185   8.168  0.1353 -0.1295  0.3700
  691MOL0     C93186   2.791   1.264   8.127 -0.7433 -0.4335 -0.5933
  691MOL0     C93187   2.927   1.212   8.176 -0.6258 -0.2057  0.7857
  691MOL0     C93188   3.033   1.303   8.098 -0.2515 -0.6029 -0.2072
  691MOL0     C93189   3.171   1.238   8.099 -0.0624 -0.0451 -0.8253
  691MOL0     C93190   3.231   1.201   8.230 -0.3934  0.6131 -0.0870
  691MOL0     C93191   3.240   1.285   8.357  0.2225 -0.4126  0.2444
  691MOL0     C93192   3.333   1.407   8.330 -0.0697 -0.9660  0.6194
  691MOL0     C93193   3.393   1.463   8.463  1.6058 -0.4835 -0.7156
  691MOL0    Cl93194   3.264   1.473   8.590  0.4058  0.2087 -0.0236
  691MOL0     C93195   2.529   1.360   8.093 -0.2664 -0.2574  0.2975
  691MOL0     C93196   2.400   1.394   8.058 -1.3442 -0.4492 -0.1405
  691MOL0     O93197   2.183   1.557   8.167 -0.2022 -0.4915  0.6347
  691MOL0     C93198   1.950   1.654   8.021 -0.1635  0.0025 -0.9817
  691MOL0     C93199   1.835   1.699   7.968  0.1521 -0.0540  0.4536
  691MOL0     N93200   1.417   1.887   8.280  1.5727  1.4926  0.1078
  691MOL0     N93201   1.430   1.839   8.401 -1.0889 -0.8270  0.5346
  691MOL0     C93202   1.208   0.806   9.027 -0.0460  0.8062  1.3239
  691MOL0     C93203   1.108   0.723   9.089  0.1041  1.0101 -0.1869
  691MOL0     C93204   0.969   0.447   9.452 -0.5778  0.2676  0.1923
  691MOL0     C93205   0.970   0.463   9.594  0.3224  0.6768  0.3407
  691MOL0     C93206   0.942   0.348   9.673 -0.8522 -0.6034  0.1832
  691MOL0     C93207   0.916   0.220   9.620 -0.2836  0.6698 -0.2737
  691MOL0     O93208   0.878   0.124   9.703  0.7425  0.1644 -0.3633
  691MOL0     C93209   0.825  -0.004   9.637 -0.0265 -0.3004 -0.1291
  691MOL0     C93210   0.762  -0.087   9.749  0.2559 -1.1050  0.1620
  691MOL0     C93211   0.845  -0.118   9.884  0.2371 -0.0855  0.4936
  691MOL0     C93212   0.786  -0.232   9.965  0.0737 -0.0193  0.1715
  691MOL0     C93213   0.654  -0.198   9.998  0.3858 -0.7073  0.0634
  691MOL0     C93214   0.543  -0.169  10.033 -0.2975  0.3133  0.1590
  691MOL0     C93215   0.910   0.213   9.482  0.5249  0.3361 -0.5144
  691MOL0     C93216   0.931   0.326   9.399  0.3740 -0.4546  0.1659
  691MOL0     C93217   0.915   0.295   9.253  0.0089 -0.0686 -0.2574
  691MOL0     H93218   1.277   0.589   9.324 -1.9472 -0.9236 -0.5240
  691MOL0     H93219   1.482   0.725   9.212 -0.6423 -0.9921 -1.2661
  691MOL0     H93220   1.369   0.931   8.819 -3.5353  3.1239 -0.8719
  691MOL0     H93221   1.319   1.058   8.941  0.2347  1.1101 -0.1544
  691MOL0     H93222   1.608   1.016   8.848 -0.7816 -1.7162  1.2603
  691MOL0     H93223   1.531   1.137   8.959 -0.2402  0.2040  0.9576
  691MOL0     H93224   1.406   1.228   8.747  0.3643 -0.6013 -1.5498
  691MOL0     H93225   1.465   1.084   8.668 -0.2824  2.0116 -2.3161
  691MOL0     H93226   1.627   1.315   8.798 -0.7243  1.1454 -0.9299
  691MOL0     H93227   1.692   1.183   8.710 -1.5637 -0.9515 -1.2909
  691MOL0     H93228   1.678   1.352   8.543  0.8757 -0.2993  0.6761
  691MOL0     H93229   1.539   1.274   8.504 -0.1269  1.8831 -0.9298
  691MOL0     H93230   1.407   1.416   8.664 -1.0729  1.2300 -0.8642
  691MOL0     H93231   1.554   1.509   8.710 -1.2784 -0.4925  1.0971
  691MOL0     H93232   1.459   1.503   8.430  2.0579 -0.5526 -0.4520
  691MOL0     H93233   1.572   1.608   8.510  0.7044 -1.1199  2.3957
  691MOL0     H93234   1.269   1.591   8.570 -0.2650  0.3339  0.1087
  691MOL0     H93235   1.401   1.698   8.631  4.3251 -1.3672 -2.1123
  691MOL0     H93236   1.203   1.634   8.292 -0.5950  0.9919 -0.0881
  691MOL0     H93237   1.174   1.787   8.063 -0.9194  0.2484 -0.5497
  691MOL0     H93238   1.279   1.927   8.044  1.5524 -0.2495 -1.0424
  691MOL0     H93239   1.397   1.658   8.021 -1.9023  0.4871 -0.2722
  691MOL0     H93240   1.321   1.738   7.890  2.9542 -0.0298 -1.1919
  691MOL0     H93241   1.573   1.846   8.019  0.7420  1.2511 -1.3756
  691MOL0     H93242   1.488   1.929   7.893  2.0554 -0.2223  0.0391
  691MOL0     H93243   1.668   1.805   7.786 -1.1456  2.3135 -2.2302
  691MOL0     H93244   1.516   1.743   7.735 -2.6814 -1.1794  1.8917
  691MOL0     H93245   1.691   1.396   7.918 -0.6689  0.1782  0.5537
  691MOL0     H93246   1.917   1.320   8.010  2.4593  0.0400 -0.3944
  691MOL0     H93247   2.243   1.139   8.214 -0.6930  1.4786  0.6077
  691MOL0     H93248   2.478   1.054   8.222  0.9558 -1.9210 -3.7464
  691MOL0     H93249   2.785   1.247   8.019  2.4012 -0.7111 -0.8177
  691MOL0     H93250   2.779   1.368   8.157  0.2183  0.0215 -1.7115
  691MOL0     H93251   2.936   1.229   8.284  1.1338 -0.6739  0.7437
  691MOL0     H93252   2.943   1.105   8.159  0.5915  0.0506  0.2491
  691MOL0     H93253   3.006   1.327   7.995  0.5973  0.0110 -0.3051
  691MOL0     H93254   3.048   1.404   8.138 -2.7451 -0.5899  0.8853
  691MOL0     H93255   3.229   1.315   8.047 -0.0508  0.1996 -0.4538
  691MOL0     H93256   3.166   1.154   8.029 -0.0249 -1.4528  0.7807
  691MOL0     H93257   3.332   1.162   8.212  0.7205  4.0573 -2.4174
  691MOL0     H93258   3.174   1.113   8.261  2.2338 -0.6204  1.6414
  691MOL0     H93259   3.146   1.331   8.390 -0.7346 -1.4555 -0.9186
  691MOL0     H93260   3.290   1.215   8.425  1.6985 -0.1900 -0.5664
  691MOL0     H93261   3.279   1.486   8.277 -0.1546 -0.7738  0.9859
  691MOL0     H93262   3.422   1.389   8.269 -0.7754  1.7236 -1.3901
  691MOL0     H93263   3.477   1.406   8.503  1.4102 -0.2785  0.0045
  691MOL0     H93264   3.439   1.562   8.450  0.8788 -0.0823 -0.3171
  691MOL0     H93265   2.613   1.428   8.080  0.9614 -1.9573 -1.2863
  691MOL0     H93266   2.378   1.493   8.020  1.5741  1.1500  1.9060
  691MOL0     H93267   2.019   1.730   8.057  0.8632  0.4554 -3.6897
  691MOL0     H93268   1.812   1.805   7.964  0.5806  0.0517  0.7845
  691MOL0     H93269   1.173   0.860   8.940  3.3660 -0.3840 -0.9721
  691MOL0     H93270   1.005   0.724   9.057  0.6748  1.0425 -2.1391
  691MOL0     H93271   0.978   0.562   9.638 -2.3817  1.4645 -0.7193
  691MOL0     H93272   0.939   0.379   9.777  0.4640 -2.6503  0.8955
  691MOL0     H93273   0.910  -0.055   9.590  1.6044  2.2169 -0.0622
  691MOL0     H93274   0.745  -0.001   9.562 -0.1765  1.5505  0.0610
  691MOL0     H93275   0.716  -0.173   9.699 -0.8753 -0.1699 -0.4463
  691MOL0     H93276   0.672  -0.035   9.784  1.8576  0.0311  2.9669
  691MOL0     H93277   0.865  -0.021   9.931  2.4844  0.4115 -1.2874
  691MOL0     H93278   0.945  -0.145   9.851  0.6740  0.5789  1.2369
  691MOL0     H93279   0.792  -0.327   9.912 -1.8723 -1.0713  1.7027
  691MOL0     H93280   0.832  -0.247  10.063  2.4681  0.1259 -0.8482
  691MOL0     H93281   0.445  -0.140  10.064 -2.5835 -2.2764 -3.8301
  691MOL0     H93282   0.893   0.120   9.430  0.7356 -1.8821  3.0503
  691MOL0     H93283   0.984   0.339   9.180  0.5568 -0.0242  0.2754
  691MOL0     H93284   0.916   0.186   9.245 -4.9028 -0.5833  2.3100
  691MOL0     H93285   0.814   0.331   9.230  0.2035  0.4364 -0.3432
  692MOL0     O93286   4.088   7.160   0.707  0.3287  0.5828  0.2619
  692MOL0     C93287   4.113   7.096   0.603  0.9793  0.6967 -0.1369
  692MOL0     O93288   4.029   7.097   0.495 -0.1086  0.3357  0.5532
  692MOL0     C93289   3.902   7.156   0.485 -0.1665 -0.3740 -0.2373
  692MOL0     C93290   3.824   7.169   0.599  0.4051 -0.1210 -0.6377
  692MOL0     C93291   3.696   7.229   0.594  0.5063  0.3637 -1.3186
  692MOL0     C93292   3.641   7.286   0.482 -0.9922  0.7018 -0.7900
  692MOL0     O93293   3.530   7.360   0.495  0.1728  1.0173 -0.1235
  692MOL0     C93294   3.409   7.283   0.525 -0.4426  0.6901  0.1580
  692MOL0     C93295   3.278   7.329   0.460  0.4345  1.5314 -0.2875
  692MOL0     C93296   3.168   7.289   0.559 -0.8572 -0.4057  0.7251
  692MOL0     C93297   3.033   7.310   0.500 -0.0108 -0.4965  0.5667
  692MOL0     C93298   2.993   7.453   0.453  0.0808  0.1596 -0.6238
  692MOL0     C93299   2.875   7.434   0.360 -0.2462  0.0929 -0.3907
  692MOL0     C93300   2.849   7.552   0.266  0.3779  0.3426  0.3004
  692MOL0     C93301   2.807   7.673   0.353 -0.1445 -0.1363  0.1117
  692MOL0     N93302   2.893   7.783   0.351 -0.8073 -0.9187 -0.3218
  692MOL0     C93303   2.959   7.826   0.465 -0.2997 -0.1788  0.0724
  692MOL0     C93304   3.058   7.908   0.424  0.7448 -0.3702 -0.3280
  692MOL0     C93305   3.151   7.974   0.525  0.2888 -0.0686 -0.1886
  692MOL0     C93306   3.230   8.067   0.439 -0.2085 -0.9846  0.1355
  692MOL0     C93307   3.320   8.155   0.532 -0.4322  0.4455  0.6533
  692MOL0     C93308   3.264   8.282   0.605  0.0202  0.6259  0.0500
  692MOL0     O93309   3.173   8.236   0.700 -0.0503 -0.2772  0.2877
  692MOL0     C93310   3.099   8.329   0.761 -0.1179 -0.4121  1.0939
  692MOL0     C93311   3.013   8.409   0.692  0.1222 -0.1087 -0.0253
  692MOL0     C93312   2.934   8.500   0.765  0.1915  0.8796 -0.4675
  692MOL0     C93313   2.940   8.494   0.909  0.4457  0.2173 -0.0163
  692MOL0     C93314   2.869   8.604   0.987  0.4446  0.0014  0.0598
  692MOL0     O93315   2.886   8.607   1.116  0.7189  0.1170 -0.5252
  692MOL0     C93316   2.776   8.644   1.196 -0.3418 -0.8306  0.3062
  692MOL0     C93317   2.804   8.659   1.328  0.0499  0.3731 -0.0222
  692MOL0     C93318   2.721   8.711   1.425  0.4960  0.7214 -0.2830
  692MOL0     C93319   2.594   8.738   1.394  0.3336  0.7203  0.6334
  692MOL0     O93320   2.494   8.782   1.476 -0.1832 -0.2573 -0.2872
  692MOL0     C93321   2.527   8.762   1.616 -0.2856 -0.0137 -0.8562
  692MOL0     C93322   2.409   8.788   1.706 -0.0077  0.0075 -0.9625
  692MOL0     C93323   2.455   8.905   1.810  0.6526  0.5147 -0.5614
  692MOL0     C93324   2.349   8.945   1.917  0.1558  0.0604 -0.1528
  692MOL0     C93325   2.378   9.060   2.021 -0.5409 -0.6118 -0.0255
  692MOL0     C93326   2.283   9.035   2.140  0.7522 -0.2720  0.4802
  692MOL0     C93327   2.214   9.168   2.185 -0.5390 -0.5191 -0.5050
  692MOL0     C93328   2.183   9.161   2.340  0.0057  0.0478 -0.2811
  692MOL0    Cl93329   2.009   9.143   2.351 -0.0820 -0.2089 -0.0016
  692MOL0     C93330   2.548   8.717   1.258  0.1943 -0.7187 -0.2291
  692MOL0     C93331   2.646   8.675   1.161 -0.1724 -0.0016 -0.1599
  692MOL0     O93332   2.801   8.688   0.924 -0.1215  0.0032 -0.1326
  692MOL0     C93333   3.026   8.410   0.971  0.1992 -0.1780 -0.5627
  692MOL0     C93334   3.108   8.322   0.897  0.3641  0.7049  0.4150
  692MOL0     N93335   3.053   7.913   0.289 -0.4125 -0.8275 -0.3076
  692MOL0     N93336   2.959   7.838   0.242 -0.3613  0.6113  0.0843
  692MOL0     C93337   3.731   7.287   0.366  0.3038  0.1935  0.5342
  692MOL0     C93338   3.855   7.217   0.371 -0.0443 -0.0615 -0.1281
  692MOL0     C93339   4.252   7.035   0.584 -0.1438 -1.0338  1.2744
  692MOL0     C93340   4.339   7.020   0.690  1.0714  0.5790 -0.3230
  692MOL0     C93341   4.464   6.955   0.678 -0.2032 -0.7794  0.1816
  692MOL0     C93342   4.516   6.933   0.550  0.0875  0.3016  0.7682
  692MOL0     O93343   4.639   6.875   0.550  0.2870  0.3408 -0.3620
  692MOL0     C93344   4.736   6.875   0.435 -0.5993 -0.0916 -0.4875
  692MOL0     C93345   4.869   6.844   0.503  0.3549  0.5790  0.1131
  692MOL0     C93346   4.882   6.717   0.589 -0.1948 -0.8398  0.1674
  692MOL0     C93347   4.891   6.589   0.503 -0.1128 -0.4185  0.2307
  692MOL0     C93348   5.017   6.558   0.436 -0.4656  0.8289  0.3957
  692MOL0     C93349   5.119   6.535   0.381  0.0407 -0.3724  0.3124
  692MOL0     C93350   4.439   6.959   0.435 -0.4918  0.4379  0.1062
  692MOL0     C93351   4.313   7.003   0.449  0.0326 -0.5412 -0.7443
  692MOL0     C93352   4.234   7.023   0.320  0.2567  0.5321  0.4468
  692MOL0     H93353   3.862   7.112   0.682  0.2163  0.3299 -0.2398
  692MOL0     H93354   3.637   7.249   0.683  1.3745  1.0614 -0.8774
  692MOL0     H93355   3.427   7.177   0.507  1.1161  0.3994  2.9975
  692MOL0     H93356   3.389   7.276   0.632  0.4979 -0.6182  0.2682
  692MOL0     H93357   3.264   7.284   0.361  0.0444 -1.8761  1.1832
  692MOL0     H93358   3.272   7.438   0.456  0.5771  1.6401  1.5891
  692MOL0     H93359   3.176   7.342   0.655 -1.3112  0.0771  0.5006
  692MOL0     H93360   3.168   7.181   0.573 -1.2985 -0.7095 -1.3401
  692MOL0     H93361   3.037   7.244   0.413  1.8832  2.9967 -2.2336
  692MOL0     H93362   2.950   7.279   0.565 -2.6313  0.9918 -1.8524
  692MOL0     H93363   2.956   7.513   0.536 -1.8681 -2.2062  0.3325
  692MOL0     H93364   3.081   7.494   0.402  0.9638 -0.4285  0.3995
  692MOL0     H93365   2.913   7.355   0.294  0.6163  1.2396 -1.3182
  692MOL0     H93366   2.781   7.395   0.399  1.1709 -1.4613  1.6867
  692MOL0     H93367   2.772   7.519   0.196 -0.0358  1.6490  0.1127
  692MOL0     H93368   2.942   7.567   0.210 -0.5347 -1.7139 -1.9615
  692MOL0     H93369   2.704   7.701   0.330  0.8085  3.2625 -0.6204
  692MOL0     H93370   2.796   7.621   0.449  1.1107 -0.4567  0.1031
  692MOL0     H93371   2.954   7.786   0.566  1.4591  1.4966  0.8878
  692MOL0     H93372   3.094   8.028   0.601  1.3807 -0.9250  1.2903
  692MOL0     H93373   3.223   7.901   0.563  0.4209  0.4775  0.6163
  692MOL0     H93374   3.299   8.003   0.384  0.3841  1.3914 -2.0684
  692MOL0     H93375   3.171   8.129   0.372  1.6899 -0.9859 -1.6308
  692MOL0     H93376   3.398   8.198   0.468 -1.2317  0.8637 -0.0590
  692MOL0     H93377   3.376   8.098   0.607 -2.4443 -0.0949  1.8100
  692MOL0     H93378   3.218   8.346   0.530 -0.9839  0.6792  0.6971
  692MOL0     H93379   3.336   8.340   0.664 -0.4369  1.5443 -0.2894
  692MOL0     H93380   2.992   8.388   0.587  0.1901  1.4515 -0.3766
  692MOL0     H93381   2.861   8.561   0.712  1.0145  1.6818 -0.7033
  692MOL0     H93382   2.898   8.614   1.358 -1.9561 -2.4077  2.7299
  692MOL0     H93383   2.760   8.728   1.524  0.7671 -0.8491 -0.0987
  692MOL0     H93384   2.556   8.658   1.637  1.7049  0.8697  1.1690
  692MOL0     H93385   2.608   8.828   1.647 -0.0239 -0.2937 -0.9434
  692MOL0     H93386   2.325   8.818   1.643  1.5422 -1.0328 -3.7350
  692MOL0     H93387   2.388   8.705   1.774  0.3421  2.1024  1.8833
  692MOL0     H93388   2.545   8.879   1.866 -0.7013 -1.1694  0.9683
  692MOL0     H93389   2.474   8.986   1.738  2.0687  0.1678 -0.6011
  692MOL0     H93390   2.327   8.859   1.981 -0.0624  1.4768  1.7476
  692MOL0     H93391   2.262   8.974   1.857 -0.4174  2.4519  1.7166
  692MOL0     H93392   2.356   9.152   1.967 -2.5432 -1.4663 -0.7918
  692MOL0     H93393   2.484   9.055   2.044 -0.6001  1.7396  1.0864
  692MOL0     H93394   2.199   8.971   2.110 -0.8687  1.5170  0.9795
  692MOL0     H93395   2.333   8.984   2.223  0.0994  0.1360  1.1288
  692MOL0     H93396   2.134   9.196   2.116 -2.0591  0.0945  1.4259
  692MOL0     H93397   2.287   9.250   2.187  0.8178 -1.6621  2.0359
  692MOL0     H93398   2.242   9.086   2.394 -0.6485  0.0583  0.4586
  692MOL0     H93399   2.213   9.252   2.393  4.6818 -3.1610  3.4735
  692MOL0     H93400   2.442   8.738   1.245 -0.0081 -0.2848  1.8496
  692MOL0     H93401   2.597   8.667   1.065 -0.2304  0.7843 -0.2043
  692MOL0     H93402   3.030   8.397   1.079 -0.9428  1.6466 -0.2661
  692MOL0     H93403   3.171   8.248   0.944 -0.7209 -2.1544 -2.2969
  692MOL0     H93404   3.711   7.336   0.271 -1.1270 -0.4542  0.4824
  692MOL0     H93405   3.916   7.201   0.283  2.3611 -2.4115  1.8296
  692MOL0     H93406   4.302   7.058   0.785  0.6314 -0.0148 -0.2474
  692MOL0     H93407   4.527   6.920   0.759 -1.4588 -1.5006  0.8740
  692MOL0     H93408   4.731   6.963   0.370  2.0642 -0.2030 -0.9599
  692MOL0     H93409   4.712   6.793   0.366 -3.6300 -0.3622  0.7309
  692MOL0     H93410   4.893   6.927   0.570 -1.6800  2.6459 -1.5558
  692MOL0     H93411   4.946   6.848   0.425 -0.7359 -1.1279 -1.1418
  692MOL0     H93412   4.793   6.705   0.651 -1.6442 -2.4298 -2.0551
  692MOL0     H93413   4.968   6.726   0.656  3.6957 -3.0607 -4.0178
  692MOL0     H93414   4.872   6.508   0.574 -0.1790  0.4990  1.2893
  692MOL0     H93415   4.820   6.594   0.419  1.6172  1.3019 -1.2118
  692MOL0     H93416   5.219   6.529   0.343  0.7076 -1.6911  2.1564
  692MOL0     H93417   4.469   6.914   0.342 -2.0742  0.8755 -0.6450
  692MOL0     H93418   4.146   6.958   0.329 -1.4771  2.5277 -0.9207
  692MOL0     H93419   4.200   7.127   0.323  1.2736  0.9716 -1.4759
  692MOL0     H93420   4.290   6.997   0.230 -1.1063 -0.0365 -0.2685
  693MOL0     O93421  11.377   2.785   2.336 -0.6567  0.0452 -0.2003
  693MOL0     C93422  11.277   2.835   2.380  0.1439  0.0627  0.2484
  693MOL0     O93423  11.150   2.814   2.322  0.5709  0.3230  0.5323
  693MOL0     C93424  11.134   2.701   2.235 -0.3461  0.0094  0.6755
  693MOL0     C93425  11.060   2.582   2.260 -0.1508  0.1744 -0.7996
  693MOL0     C93426  11.044   2.485   2.160 -0.0536 -0.1971  0.0379
  693MOL0     C93427  11.103   2.507   2.032 -1.2425 -0.1436 -0.1456
  693MOL0     O93428  11.090   2.414   1.930 -0.2138 -0.0791 -0.4584
  693MOL0     C93429  11.014   2.289   1.942  0.0406  0.1032 -0.2790
  693MOL0     C93430  11.046   2.192   1.834 -0.0799  0.5628 -0.1569
  693MOL0     C93431  11.086   2.270   1.701 -0.4783  0.0195 -0.5676
  693MOL0     C93432  11.232   2.256   1.670  0.4197  0.2517  0.0087
  693MOL0     C93433  11.284   2.334   1.549 -0.6334  0.1027 -0.4694
  693MOL0     C93434  11.241   2.280   1.413 -0.3795  0.6422  0.2832
  693MOL0     C93435  11.284   2.373   1.297  1.3740  0.1027  0.8356
  693MOL0     C93436  11.426   2.432   1.299 -0.3622  0.8958 -0.1862
  693MOL0     N93437  11.525   2.318   1.309 -0.0235 -0.1196  0.1466
  693MOL0     C93438  11.527   2.203   1.232  1.1546 -0.6507  0.6331
  693MOL0     C93439  11.647   2.151   1.249 -0.7919 -0.0277 -0.3020
  693MOL0     C93440  11.694   2.029   1.170  0.3508  0.1365 -0.2084
  693MOL0     C93441  11.629   1.900   1.219  0.1823 -0.3445  0.2881
  693MOL0     C93442  11.706   1.778   1.151 -0.2501 -0.5922 -0.2853
  693MOL0     C93443  11.802   1.717   1.252  0.6506 -0.5144 -0.6268
  693MOL0     O93444  11.879   1.629   1.174 -0.2235  0.0443 -0.8291
  693MOL0     C93445  12.018   1.637   1.182  0.2054  0.6004 -0.1490
  693MOL0     C93446  12.092   1.756   1.172 -1.1057  0.2080  0.2653
  693MOL0     C93447  12.229   1.745   1.173  0.7214 -0.8003 -0.5004
  693MOL0     C93448  12.298   1.630   1.155  0.6285  1.0772  0.5990
  693MOL0     C93449  12.449   1.610   1.153  0.0828 -0.8655 -0.9654
  693MOL0     O93450  12.498   1.480   1.172 -0.2378 -0.1614  0.0426
  693MOL0     C93451  12.631   1.466   1.166  0.1856 -0.4038  0.3758
  693MOL0     C93452  12.689   1.458   1.035 -0.3744  0.1901 -1.0370
  693MOL0     C93453  12.828   1.437   1.027 -0.5528 -0.3490 -0.4999
  693MOL0     C93454  12.913   1.438   1.136  1.4428 -1.0670  0.0386
  693MOL0     O93455  13.046   1.448   1.111 -0.1276 -0.6217 -1.2648
  693MOL0     C93456  13.136   1.447   1.223  0.9010  0.3370 -0.2013
  693MOL0     C93457  13.279   1.451   1.166 -0.3875 -0.3646 -1.2517
  693MOL0     C93458  13.314   1.332   1.075 -0.0050  0.3546 -0.0125
  693MOL0     C93459  13.264   1.192   1.119 -0.5137 -0.0524 -0.4773
  693MOL0     C93460  13.330   1.070   1.043 -0.0175 -0.3037  0.6781
  693MOL0     C93461  13.216   0.971   1.016  0.2165  0.0318 -0.3315
  693MOL0     C93462  13.238   0.845   0.933 -0.1879  0.1006 -0.5231
  693MOL0     C93463  13.157   0.724   0.985 -0.5748  0.4298 -0.2883
  693MOL0    Cl93464  12.982   0.739   0.950 -0.1702 -0.1852 -0.2783
  693MOL0     C93465  12.850   1.447   1.260  0.2600 -0.2686  0.2997
  693MOL0     C93466  12.714   1.464   1.277  0.4139 -0.2815 -0.9166
  693MOL0     O93467  12.516   1.713   1.161  0.4066  0.0445  1.1836
  693MOL0     C93468  12.224   1.509   1.154 -0.1613  0.4989 -0.1731
  693MOL0     C93469  12.086   1.517   1.183  0.4250  0.2236 -0.1313
  693MOL0     N93470  11.725   2.223   1.342  0.2056  0.3363 -0.3404
  693MOL0     N93471  11.647   2.322   1.376 -0.4896  0.4154 -0.4517
  693MOL0     C93472  11.175   2.617   2.009 -0.4685  0.0732  1.0954
  693MOL0     C93473  11.182   2.716   2.099  0.7621  0.7807 -0.5673
  693MOL0     C93474  11.277   2.940   2.485 -0.1972 -0.3001  0.8139
  693MOL0     C93475  11.154   3.002   2.519 -0.4246  0.1331  0.2569
  693MOL0     C93476  11.149   3.090   2.618 -1.0583 -0.6190  0.0111
  693MOL0     C93477  11.266   3.132   2.686 -0.2556 -0.0883  0.5151
  693MOL0     O93478  11.278   3.217   2.788 -0.8148 -0.0116 -0.7679
  693MOL0     C93479  11.174   3.305   2.819  0.2037 -0.1873  0.3088
  693MOL0     C93480  11.224   3.434   2.904  0.6973  0.5913 -0.5974
  693MOL0     C93481  11.104   3.509   2.941 -0.1619  0.1674  0.6499
  693MOL0     C93482  11.131   3.636   3.021  0.2934 -0.5061  0.3428
  693MOL0     C93483  11.221   3.730   2.946  0.4320 -0.1710 -0.0561
  693MOL0     C93484  11.297   3.805   2.893 -0.2070 -0.5654  0.5743
  693MOL0     C93485  11.389   3.075   2.656  0.5820  0.8388 -0.3121
  693MOL0     C93486  11.396   2.986   2.554  0.2270  0.6868  0.2732
  693MOL0     C93487  11.528   2.918   2.543 -0.1240  0.7103 -0.9065
  693MOL0     H93488  11.022   2.552   2.357  0.9642  1.0430 -0.0726
  693MOL0     H93489  10.999   2.390   2.188  0.5906 -0.4296  0.3077
  693MOL0     H93490  11.034   2.245   2.040  1.1857  0.7170 -0.2177
  693MOL0     H93491  10.910   2.323   1.936  0.6829  1.9455 -2.9185
  693MOL0     H93492  10.953   2.139   1.810  1.4337 -1.2403 -2.3446
  693MOL0     H93493  11.128   2.124   1.857  0.3780  1.5278  1.2672
  693MOL0     H93494  11.054   2.375   1.694 -0.3749  0.1243  0.4765
  693MOL0     H93495  11.034   2.233   1.612  1.1179 -0.1240 -1.4777
  693MOL0     H93496  11.291   2.304   1.749  2.0491 -2.6023  0.6922
  693MOL0     H93497  11.255   2.149   1.666 -2.5761 -0.6036  2.1532
  693MOL0     H93498  11.259   2.440   1.560 -0.0298  0.1962  0.0748
  693MOL0     H93499  11.393   2.332   1.561 -0.7860  2.3127  2.2675
  693MOL0     H93500  11.288   2.187   1.380 -1.5951  0.0595  0.1294
  693MOL0     H93501  11.132   2.267   1.408 -0.0773 -5.1384  1.4842
  693MOL0     H93502  11.225   2.465   1.298  0.0047 -0.7193 -0.4891
  693MOL0     H93503  11.261   2.322   1.203  0.4102 -0.2195  1.2368
  693MOL0     H93504  11.449   2.489   1.209  0.7632  1.4103  0.4047
  693MOL0     H93505  11.442   2.503   1.380  3.2955 -1.1406  1.1323
  693MOL0     H93506  11.444   2.173   1.170  0.2956  0.7105  1.0740
  693MOL0     H93507  11.658   2.040   1.068  2.2855  4.8193 -0.6346
  693MOL0     H93508  11.803   2.018   1.170  0.3156 -0.2754  0.0759
  693MOL0     H93509  11.648   1.900   1.326  0.2021  2.1549  0.3441
  693MOL0     H93510  11.524   1.902   1.189  0.3774 -1.1811 -0.5105
  693MOL0     H93511  11.764   1.810   1.064 -0.0008  1.0741  0.4525
  693MOL0     H93512  11.644   1.699   1.107  1.0855 -0.8307 -1.8760
  693MOL0     H93513  11.735   1.662   1.319  1.0054  1.4051  1.4482
  693MOL0     H93514  11.856   1.794   1.309 -3.8534  2.4005  0.2105
  693MOL0     H93515  12.047   1.854   1.155 -1.7594  0.0753  1.1687
  693MOL0     H93516  12.285   1.837   1.158 -1.8039  0.8624 -0.3352
  693MOL0     H93517  12.618   1.457   0.953 -0.3766  1.9622 -1.0869
  693MOL0     H93518  12.864   1.429   0.925  0.2924 -0.1123 -0.2263
  693MOL0     H93519  13.125   1.535   1.286 -0.8042  1.0500 -1.4177
  693MOL0     H93520  13.126   1.367   1.297 -1.3938  1.7346  1.1413
  693MOL0     H93521  13.296   1.545   1.114  0.4683  1.6368  2.2988
  693MOL0     H93522  13.354   1.461   1.245 -0.3536  1.0662 -1.4354
  693MOL0     H93523  13.264   1.342   0.978 -0.4571 -2.6078 -0.1861
  693MOL0     H93524  13.420   1.341   1.051 -0.1921 -1.0675 -1.4920
  693MOL0     H93525  13.155   1.193   1.117 -0.5310 -0.0936  0.3480
  693MOL0     H93526  13.286   1.159   1.221 -1.0765 -0.8017 -0.5863
  693MOL0     H93527  13.395   1.021   1.116 -0.8914 -0.6560  1.2473
  693MOL0     H93528  13.375   1.095   0.947 -0.1925  1.3850  1.0052
  693MOL0     H93529  13.178   0.936   1.113 -0.0631 -0.6452 -0.6798
  693MOL0     H93530  13.146   1.031   0.957  0.9648  2.0376  0.7068
  693MOL0     H93531  13.344   0.822   0.918 -0.0132  1.2369 -1.1741
  693MOL0     H93532  13.194   0.868   0.835 -2.0257  2.9428  0.8511
  693MOL0     H93533  13.192   0.639   0.926  2.0633  0.0396  1.6283
  693MOL0     H93534  13.188   0.699   1.088  0.3982  1.1256 -0.3990
  693MOL0     H93535  12.914   1.456   1.348 -0.5533  2.0553  0.7033
  693MOL0     H93536  12.660   1.465   1.370 -0.9318 -1.4307 -1.6423
  693MOL0     H93537  12.271   1.411   1.147 -2.3307 -0.6966  0.8087
  693MOL0     H93538  12.020   1.432   1.196  1.9934 -1.3412 -1.7582
  693MOL0     H93539  11.213   2.639   1.910 -3.6627  0.8591 -0.0752
  693MOL0     H93540  11.204   2.819   2.075 -1.5390  1.2008 -1.1121
  693MOL0     H93541  11.058   2.989   2.470 -1.0201  1.1325  1.1207
  693MOL0     H93542  11.053   3.138   2.630  0.6668  3.3675 -0.6712
  693MOL0     H93543  11.080   3.268   2.862 -2.0064  2.4479 -1.8191
  693MOL0     H93544  11.142   3.352   2.725 -0.3258  3.9964  2.3522
  693MOL0     H93545  11.291   3.492   2.839  1.0236 -2.0632 -2.8405
  693MOL0     H93546  11.263   3.393   2.998  0.9744 -0.7832 -1.2713
  693MOL0     H93547  11.050   3.449   3.015  0.8287 -1.0248  0.4241
  693MOL0     H93548  11.035   3.535   2.860  0.3974  0.5335  0.2806
  693MOL0     H93549  11.040   3.687   3.053 -0.2214 -0.4277 -1.1873
  693MOL0     H93550  11.187   3.612   3.112 -0.1968 -1.1467  0.4827
  693MOL0     H93551  11.361   3.878   2.848 -0.6727 -1.2614 -1.3079
  693MOL0     H93552  11.476   3.108   2.712  1.5340 -0.2598 -1.1105
  693MOL0     H93553  11.602   2.960   2.612 -1.4515 -1.0547  1.7452
  693MOL0     H93554  11.518   2.812   2.569 -1.6046  1.5368  2.3850
  693MOL0     H93555  11.565   2.911   2.440  1.0701 -0.8480 -0.4106
  694MOL0     O93556   6.477   2.337   7.371 -0.3003  0.0421 -0.4655
  694MOL0     C93557   6.464   2.428   7.293  0.0001  0.3479  0.2135
  694MOL0     O93558   6.367   2.515   7.301  0.4153  0.6764  0.2370
  694MOL0     C93559   6.311   2.538   7.424 -0.4106  0.4680  0.7344
  694MOL0     C93560   6.369   2.630   7.514  0.4519  0.6321  1.4771
  694MOL0     C93561   6.303   2.652   7.629 -0.4667 -0.2706 -0.7875
  694MOL0     C93562   6.180   2.594   7.654 -0.2643  0.0070  0.6501
  694MOL0     O93563   6.107   2.617   7.773 -0.1790  0.6328  0.9098
  694MOL0     C93564   6.143   2.734   7.845 -0.6192 -0.6279  1.3262
  694MOL0     C93565   6.037   2.776   7.937 -0.1428  0.5286  0.0453
  694MOL0     C93566   5.929   2.864   7.873 -0.0958 -0.1385  0.2895
  694MOL0     C93567   5.852   2.921   7.991 -0.2867  0.3441  0.1284
  694MOL0     C93568   5.727   2.992   7.933  1.0335 -0.2243  0.2523
  694MOL0     C93569   5.640   3.073   8.034 -0.4141 -0.3597  0.1524
  694MOL0     C93570   5.591   2.980   8.150  0.0973 -0.2096 -0.5617
  694MOL0     C93571   5.515   3.066   8.251 -0.8382 -0.0568  0.0047
  694MOL0     N93572   5.505   2.988   8.375  0.2400  0.3888  0.4328
  694MOL0     C93573   5.555   3.042   8.492 -0.1492 -0.4789  0.3051
  694MOL0     C93574   5.538   2.937   8.577  0.1041  0.4768 -0.7491
  694MOL0     C93575   5.564   2.946   8.722 -1.0838  0.7441 -0.4697
  694MOL0     C93576   5.459   3.037   8.784  0.5674  0.6055 -1.0317
  694MOL0     C93577   5.509   3.175   8.796 -0.1878 -0.8856  0.2775
  694MOL0     C93578   5.399   3.272   8.822 -0.1857 -0.0529 -0.4607
  694MOL0     O93579   5.341   3.279   8.693 -0.2785 -0.1582  0.0244
  694MOL0     C93580   5.216   3.337   8.682 -0.1155 -0.5398 -0.0509
  694MOL0     C93581   5.186   3.405   8.569  0.4163  0.4753  0.0443
  694MOL0     C93582   5.062   3.463   8.560 -0.7206 -0.5547 -0.8342
  694MOL0     C93583   4.969   3.478   8.660  0.0673  0.0430 -0.2205
  694MOL0     C93584   4.856   3.577   8.647 -0.0965 -0.0005 -0.5876
  694MOL0     O93585   4.829   3.631   8.525 -0.4507  0.3056  0.4450
  694MOL0     C93586   4.742   3.733   8.510 -0.0404 -0.3726 -0.2819
  694MOL0     C93587   4.672   3.740   8.391  0.0534  0.1487 -0.9181
  694MOL0     C93588   4.591   3.853   8.372 -0.5090  0.6360  0.3732
  694MOL0     C93589   4.579   3.964   8.458 -0.2748 -0.5406 -0.3670
  694MOL0     O93590   4.519   4.081   8.432 -0.2297 -0.1264  0.1310
  694MOL0     C93591   4.388   4.064   8.386 -0.6025  0.1414 -0.6568
  694MOL0     C93592   4.355   4.187   8.289  0.1772 -0.2364 -0.3543
  694MOL0     C93593   4.203   4.203   8.274 -0.5952 -0.2880 -0.3331
  694MOL0     C93594   4.138   4.083   8.208  0.4045 -0.2851 -0.5272
  694MOL0     C93595   3.992   4.093   8.189  0.1859 -0.3719 -0.0360
  694MOL0     C93596   3.928   4.037   8.313 -1.0028  0.3991 -0.0819
  694MOL0     C93597   3.772   4.053   8.313  0.7377  0.2021 -0.0275
  694MOL0     C93598   3.708   4.185   8.265 -0.0070 -0.4273 -0.3720
  694MOL0    Cl93599   3.534   4.205   8.317 -0.0943  0.4654 -0.0224
  694MOL0     C93600   4.664   3.964   8.575  0.6978 -0.2113 -0.2188
  694MOL0     C93601   4.738   3.842   8.607 -0.0105 -0.6013  0.3301
  694MOL0     O93602   4.782   3.595   8.749  0.6034 -0.6928 -0.0360
  694MOL0     C93603   4.999   3.409   8.775  0.2773 -0.0301  0.0478
  694MOL0     C93604   5.116   3.333   8.787  0.4689 -0.2275 -0.3424
  694MOL0     N93605   5.467   2.836   8.511 -0.6229  0.4943  0.3117
  694MOL0     N93606   5.439   2.874   8.393  0.1831  0.8237 -0.2644
  694MOL0     C93607   6.130   2.503   7.574  0.0835  0.3369  0.4797
  694MOL0     C93608   6.197   2.470   7.457  0.1878 -0.2428  1.3615
  694MOL0     C93609   6.565   2.462   7.184  0.5290 -0.2117 -0.6020
  694MOL0     C93610   6.523   2.555   7.084  0.8130 -1.0833 -0.3537
  694MOL0     C93611   6.613   2.604   6.988  0.5487  0.1617  0.6932
  694MOL0     C93612   6.742   2.542   6.979  1.3033 -0.5476  0.2196
  694MOL0     O93613   6.835   2.584   6.890 -0.7192  0.9679  0.2742
  694MOL0     C93614   6.807   2.691   6.805 -0.6126 -0.2132  0.5884
  694MOL0     C93615   6.935   2.719   6.710 -0.0197 -0.1427  0.4544
  694MOL0     C93616   7.055   2.782   6.786 -0.3289 -0.0394 -0.9532
  694MOL0     C93617   7.193   2.793   6.711  0.5424 -0.4155 -0.6973
  694MOL0     C93618   7.185   2.880   6.603  0.5312 -0.3019 -0.0022
  694MOL0     C93619   7.193   2.949   6.510 -0.2413 -0.2645  0.5206
  694MOL0     C93620   6.774   2.447   7.073  1.0091  0.5603  0.0687
  694MOL0     C93621   6.692   2.404   7.177  0.8995 -0.7693  0.7555
  694MOL0     C93622   6.733   2.294   7.277 -0.3356 -0.2017  0.1771
  694MOL0     H93623   6.453   2.684   7.471 -1.5753  1.2276 -2.0797
  694MOL0     H93624   6.357   2.721   7.693 -0.8981  0.2080 -0.9326
  694MOL0     H93625   6.239   2.725   7.897  0.8153  2.3099 -0.5190
  694MOL0     H93626   6.168   2.820   7.783 -4.3714  0.3702  0.9463
  694MOL0     H93627   6.089   2.847   8.002  0.4331 -1.2245  1.5633
  694MOL0     H93628   5.998   2.686   7.986 -0.1285 -1.7233 -3.7024
  694MOL0     H93629   5.859   2.804   7.814 -1.3906  1.0503  0.5702
  694MOL0     H93630   5.981   2.933   7.807 -1.8724  1.2859  0.3021
  694MOL0     H93631   5.828   2.844   8.066  0.9499  0.3338  0.5340
  694MOL0     H93632   5.906   3.003   8.040 -3.1531  1.0006  2.4734
  694MOL0     H93633   5.760   3.062   7.855 -2.7459  0.7095 -0.6853
  694MOL0     H93634   5.665   2.918   7.881  1.0506 -1.0769  1.4116
  694MOL0     H93635   5.703   3.153   8.075  0.9713 -2.1931  1.8095
  694MOL0     H93636   5.552   3.108   7.980 -0.1857  0.4993  0.3125
  694MOL0     H93637   5.676   2.947   8.209  2.5540  3.8397 -1.4478
  694MOL0     H93638   5.526   2.898   8.117  0.8851 -0.7852 -0.6883
  694MOL0     H93639   5.573   3.158   8.265  0.8483 -1.0033 -0.3658
  694MOL0     H93640   5.420   3.101   8.211  0.2456  1.2461 -1.5179
  694MOL0     H93641   5.594   3.142   8.503 -0.0727 -0.2677 -1.4965
  694MOL0     H93642   5.562   2.848   8.770 -0.2672  1.9534  2.2343
  694MOL0     H93643   5.668   2.974   8.742 -1.4594  1.0059  1.2056
  694MOL0     H93644   5.368   3.025   8.724 -0.5878 -1.5876  0.9660
  694MOL0     H93645   5.435   2.998   8.884 -1.4915 -0.8629 -2.0253
  694MOL0     H93646   5.565   3.208   8.708 -0.3595  2.5796  1.3054
  694MOL0     H93647   5.583   3.182   8.877 -1.6049  1.6170  1.4819
  694MOL0     H93648   5.433   3.366   8.867 -3.9844  0.7142  1.1916
  694MOL0     H93649   5.326   3.234   8.893 -1.8396  0.6752 -1.7016
  694MOL0     H93650   5.255   3.433   8.491  0.9694 -0.1596  0.2968
  694MOL0     H93651   5.045   3.524   8.472 -0.4939 -0.4903 -0.8334
  694MOL0     H93652   4.704   3.674   8.312 -1.5984 -0.1376 -1.4004
  694MOL0     H93653   4.550   3.885   8.277  0.1047  3.9190  1.0727
  694MOL0     H93654   4.372   3.969   8.335 -4.4493 -0.2691  0.9270
  694MOL0     H93655   4.324   4.057   8.475 -0.8822  1.6414 -0.7070
  694MOL0     H93656   4.389   4.277   8.341 -2.3494  0.5920 -0.0100
  694MOL0     H93657   4.397   4.176   8.189 -1.7122 -1.4970 -1.0535
  694MOL0     H93658   4.168   4.208   8.377 -2.3401 -0.4483 -0.8847
  694MOL0     H93659   4.182   4.296   8.221  1.6629 -2.1890 -5.1998
  694MOL0     H93660   4.162   3.986   8.252  3.5837  1.0148  0.8656
  694MOL0     H93661   4.182   4.083   8.107  1.8911  0.0901  0.0961
  694MOL0     H93662   3.944   4.042   8.105 -2.8604  1.1920  0.6208
  694MOL0     H93663   3.968   4.199   8.177 -0.5715 -0.6593 -1.3210
  694MOL0     H93664   3.947   3.929   8.321 -1.8271  0.2519  0.0531
  694MOL0     H93665   3.978   4.078   8.401 -0.0240 -0.1468 -0.3684
  694MOL0     H93666   3.729   4.015   8.406 -1.9806 -1.2010 -1.7369
  694MOL0     H93667   3.737   3.975   8.246  0.6122 -0.9331  1.3235
  694MOL0     H93668   3.755   4.272   8.312 -1.1230  0.3162 -0.5708
  694MOL0     H93669   3.717   4.194   8.156 -1.7528  0.2884 -0.5038
  694MOL0     H93670   4.669   4.056   8.632 -0.2507  0.9892 -1.9905
  694MOL0     H93671   4.805   3.851   8.693  2.6709  1.8022 -1.8233
  694MOL0     H93672   4.932   3.423   8.859  0.1198  2.9521 -0.4714
  694MOL0     H93673   5.128   3.278   8.879  1.5778  0.4622 -0.0576
  694MOL0     H93674   6.037   2.457   7.606 -0.5776 -0.5616 -2.4058
  694MOL0     H93675   6.169   2.386   7.395  1.2648 -1.7837  2.8719
  694MOL0     H93676   6.421   2.592   7.088  0.8769 -0.9779  0.5061
  694MOL0     H93677   6.575   2.675   6.915 -4.4438 -2.3495  0.4665
  694MOL0     H93678   6.787   2.775   6.873  0.6867 -0.8340  1.7675
  694MOL0     H93679   6.710   2.677   6.755 -2.1725  2.1662  2.6697
  694MOL0     H93680   6.908   2.776   6.621 -1.9905 -0.5934  0.7157
  694MOL0     H93681   6.978   2.622   6.685 -0.5126  0.2165 -2.0669
  694MOL0     H93682   7.071   2.735   6.883  2.7293 -0.7745 -1.7031
  694MOL0     H93683   7.031   2.885   6.814 -0.2233 -0.4219  0.6526
  694MOL0     H93684   7.269   2.833   6.779 -0.4081  2.5352 -1.2501
  694MOL0     H93685   7.218   2.692   6.676  3.0076  0.3704 -1.4064
  694MOL0     H93686   7.203   3.010   6.423  3.2956 -1.5355 -0.1441
  694MOL0     H93687   6.870   2.397   7.065  0.4303 -0.7333  0.7734
  694MOL0     H93688   6.740   2.312   7.384 -2.2476 -2.4630  0.7605
  694MOL0     H93689   6.663   2.211   7.280 -1.6897  0.9410  2.3378
  694MOL0     H93690   6.820   2.255   7.223 -0.5164 -1.1230  0.5416
  695MOL0     O93691   4.276   1.326   2.243  0.3033 -0.0331  0.5028
  695MOL0     C93692   4.242   1.293   2.351 -0.3948 -0.6883  0.1936
  695MOL0     O93693   4.303   1.331   2.469  0.4771  0.2757  0.2034
  695MOL0     C93694   4.436   1.356   2.489  0.4591 -0.6541 -0.3416
  695MOL0     C93695   4.536   1.369   2.399 -0.6834 -0.4149 -0.1660
  695MOL0     C93696   4.669   1.387   2.438 -0.0482 -0.3705 -0.5196
  695MOL0     C93697   4.700   1.416   2.563  0.0530  0.3177  0.1371
  695MOL0     O93698   4.838   1.442   2.590  0.4326  0.1761  0.3631
  695MOL0     C93699   4.882   1.479   2.718 -0.1909  0.2662 -0.1809
  695MOL0     C93700   4.897   1.625   2.742  0.4945  0.5244 -0.2841
  695MOL0     C93701   4.989   1.654   2.868  1.0977  0.7660 -0.4516
  695MOL0     C93702   4.964   1.798   2.904  0.3650 -0.2407 -0.8471
  695MOL0     C93703   5.024   1.850   3.034 -0.5855  0.1505  0.6479
  695MOL0     C93704   5.023   2.007   3.032 -0.1286 -0.7106  0.0794
  695MOL0     C93705   5.066   2.054   3.172 -0.4789 -0.1920 -0.3939
  695MOL0     C93706   5.050   2.203   3.194  0.5752 -0.5573 -0.0880
  695MOL0     N93707   5.070   2.279   3.078  0.1150 -0.2218  1.0571
  695MOL0     C93708   4.975   2.336   2.999  0.0850  0.2067  1.1003
  695MOL0     C93709   5.053   2.400   2.908  0.2955  0.0481 -0.3842
  695MOL0     C93710   5.003   2.469   2.786 -0.9042 -0.5263  0.0332
  695MOL0     C93711   5.010   2.622   2.820  0.0552  0.6197 -0.8321
  695MOL0     C93712   4.952   2.692   2.703 -0.5985  0.0529  0.2765
  695MOL0     C93713   4.803   2.699   2.712  0.0068  0.3063  0.7159
  695MOL0     O93714   4.755   2.802   2.626 -0.4509 -0.0757 -0.2364
  695MOL0     C93715   4.627   2.792   2.580  0.2253  1.1482  0.1086
  695MOL0     C93716   4.542   2.718   2.656  0.1947  0.3234  0.7382
  695MOL0     C93717   4.410   2.700   2.602  0.5580 -0.7645 -0.6338
  695MOL0     C93718   4.361   2.762   2.481 -0.8717 -0.3772  0.3501
  695MOL0     C93719   4.221   2.749   2.433  0.7890 -1.1145 -1.0810
  695MOL0     O93720   4.141   2.665   2.510 -0.3136  0.0242 -0.0398
  695MOL0     C93721   4.000   2.653   2.481  0.1086 -0.2415 -1.2197
  695MOL0     C93722   3.929   2.530   2.498  0.0557  0.4430  0.5390
  695MOL0     C93723   3.797   2.516   2.474  0.2782  0.1188 -0.4547
  695MOL0     C93724   3.726   2.624   2.429 -0.2768 -0.3676 -0.1756
  695MOL0     O93725   3.589   2.613   2.398  0.5528 -0.0695  0.3638
  695MOL0     C93726   3.503   2.676   2.487 -0.9525  0.1568  0.3449
  695MOL0     C93727   3.361   2.687   2.427 -0.5587 -0.2835 -0.9465
  695MOL0     C93728   3.278   2.554   2.437 -0.6396 -0.5068  0.5833
  695MOL0     C93729   3.308   2.457   2.331 -0.4820 -0.0912 -0.2216
  695MOL0     C93730   3.207   2.340   2.347  0.1863 -0.4831 -0.3301
  695MOL0     C93731   3.060   2.360   2.319  0.3158 -0.0511  0.6430
  695MOL0     C93732   2.983   2.226   2.321  0.4520 -0.3711  0.6404
  695MOL0     C93733   2.829   2.249   2.318 -0.2396  0.2474 -0.3795
  695MOL0    Cl93734   2.741   2.095   2.307 -0.2231 -0.3765 -0.2229
  695MOL0     C93735   3.792   2.749   2.419 -0.0765 -0.0666 -0.6635
  695MOL0     C93736   3.930   2.765   2.442  0.6735  0.7729 -1.0706
  695MOL0     O93737   4.186   2.806   2.330 -0.1921  1.3151  0.1600
  695MOL0     C93738   4.459   2.845   2.414  1.0127  0.8588 -0.0292
  695MOL0     C93739   4.595   2.857   2.457  0.8658  0.3871  0.6581
  695MOL0     N93740   5.186   2.389   2.946 -0.5842 -0.5058  0.4568
  695MOL0     N93741   5.196   2.322   3.050  0.0407 -0.5601 -1.0024
  695MOL0     C93742   4.605   1.411   2.663  0.1959  0.3314  0.2539
  695MOL0     C93743   4.472   1.383   2.630 -0.4808  0.1776 -0.2947
  695MOL0     C93744   4.118   1.209   2.354  0.5073  0.2504  0.1327
  695MOL0     C93745   4.033   1.200   2.239 -0.4359  0.1035  0.0306
  695MOL0     C93746   3.921   1.120   2.238 -0.0587  0.3142  0.2911
  695MOL0     C93747   3.888   1.042   2.349  0.4838  0.3706  0.3913
  695MOL0     O93748   3.765   0.972   2.365 -0.2196  0.1027  0.7205
  695MOL0     C93749   3.673   0.994   2.264 -0.4914 -0.2113  0.1790
  695MOL0     C93750   3.546   0.900   2.296  0.2976  0.3983  1.0901
  695MOL0     C93751   3.444   0.895   2.184 -1.0371 -0.2204 -0.0243
  695MOL0     C93752   3.326   0.811   2.219 -0.3636  0.6369  0.7522
  695MOL0     C93753   3.214   0.838   2.128 -0.6031  0.2657  1.0727
  695MOL0     C93754   3.128   0.858   2.042 -0.7458  0.3173  0.7976
  695MOL0     C93755   3.959   1.047   2.459 -0.4983  0.7826  0.1424
  695MOL0     C93756   4.069   1.135   2.473  0.2485  0.4611  0.4801
  695MOL0     C93757   4.149   1.122   2.594 -0.0758  0.0991 -0.8278
  695MOL0     H93758   4.520   1.348   2.294 -2.0854  3.8233 -0.9756
  695MOL0     H93759   4.745   1.389   2.361  2.4564  2.2630  1.8190
  695MOL0     H93760   4.823   1.428   2.795  0.4093  2.0415  1.5465
  695MOL0     H93761   4.978   1.426   2.717 -0.3786 -0.3144 -4.2704
  695MOL0     H93762   4.798   1.668   2.764  0.4441  0.4402 -0.3444
  695MOL0     H93763   4.946   1.671   2.655 -0.7495 -0.6699 -1.6628
  695MOL0     H93764   5.093   1.636   2.842  1.0503  1.3391 -1.0428
  695MOL0     H93765   4.957   1.585   2.948 -3.4699  1.4210 -1.3999
  695MOL0     H93766   5.009   1.861   2.827 -2.1240 -0.2995 -2.4368
  695MOL0     H93767   4.857   1.818   2.908  0.8192  2.5792 -0.5945
  695MOL0     H93768   4.970   1.821   3.124 -0.7704 -0.3299  0.3849
  695MOL0     H93769   5.122   1.806   3.055 -1.6784 -2.3255  0.8224
  695MOL0     H93770   5.091   2.033   2.950  0.7078 -1.2935  0.5662
  695MOL0     H93771   4.925   2.053   3.021  1.3914  2.9288  0.2225
  695MOL0     H93772   5.167   2.021   3.197 -0.6422  0.9453  1.9912
  695MOL0     H93773   5.005   2.016   3.254 -0.0875  1.1368  0.5325
  695MOL0     H93774   4.953   2.220   3.242  0.7447 -0.5394  0.2538
  695MOL0     H93775   5.122   2.247   3.264 -0.0515 -0.6603  0.6434
  695MOL0     H93776   4.867   2.327   3.001 -0.2009  0.3304 -3.5422
  695MOL0     H93777   5.058   2.457   2.692 -1.8141  1.2156 -0.7773
  695MOL0     H93778   4.897   2.445   2.768 -1.6058  0.6631  2.2592
  695MOL0     H93779   4.946   2.639   2.908 -2.2504  0.3492 -2.3596
  695MOL0     H93780   5.113   2.652   2.837  0.8180 -2.4645  0.5943
  695MOL0     H93781   4.987   2.641   2.613  1.3478  2.7381 -0.5778
  695MOL0     H93782   4.998   2.789   2.685 -1.1880 -0.0516 -2.0376
  695MOL0     H93783   4.775   2.731   2.813  1.3654  1.1087  0.8654
  695MOL0     H93784   4.761   2.607   2.669  3.0477 -0.8017 -0.1444
  695MOL0     H93785   4.557   2.665   2.750  0.0722  0.0053  0.5824
  695MOL0     H93786   4.338   2.657   2.671  1.5020  2.4312  2.6799
  695MOL0     H93787   3.981   2.447   2.545 -0.2305  0.5845  1.1175
  695MOL0     H93788   3.737   2.428   2.494 -1.6714  1.1425 -1.4922
  695MOL0     H93789   3.516   2.629   2.585  0.7429  1.6515  0.8776
  695MOL0     H93790   3.533   2.781   2.496 -0.8908  0.0973  0.8323
  695MOL0     H93791   3.300   2.768   2.467  0.9732  1.1611 -1.4253
  695MOL0     H93792   3.384   2.705   2.321  1.3618 -0.0319 -0.5137
  695MOL0     H93793   3.283   2.504   2.534 -0.1708 -0.4942  0.5676
  695MOL0     H93794   3.172   2.582   2.429 -0.0467  2.3852  1.5282
  695MOL0     H93795   3.410   2.424   2.353 -1.3312 -0.4303  4.2279
  695MOL0     H93796   3.293   2.509   2.236  1.3990 -1.2894 -1.2397
  695MOL0     H93797   3.211   2.305   2.451 -1.3296  2.4420  0.8120
  695MOL0     H93798   3.235   2.255   2.284  0.0055 -1.0799  0.3829
  695MOL0     H93799   3.019   2.417   2.403  1.6580  0.6092  0.8718
  695MOL0     H93800   3.056   2.413   2.223  0.5737  1.1800  1.2919
  695MOL0     H93801   3.005   2.167   2.410 -2.6683 -3.5420 -0.4752
  695MOL0     H93802   3.008   2.167   2.232 -2.2235  1.6123 -1.6143
  695MOL0     H93803   2.803   2.291   2.416 -0.4396  0.0648 -0.3536
  695MOL0     H93804   2.796   2.310   2.233 -2.8385 -1.0930 -0.4533
  695MOL0     H93805   3.747   2.842   2.386  0.3443  1.1617  1.9626
  695MOL0     H93806   3.974   2.864   2.427  1.7087  0.1611 -2.2559
  695MOL0     H93807   4.424   2.900   2.327 -1.1437 -0.5097 -0.1207
  695MOL0     H93808   4.668   2.928   2.420  2.2709  0.1053  2.7613
  695MOL0     H93809   4.637   1.426   2.765  1.3224 -1.6131  0.2255
  695MOL0     H93810   4.396   1.368   2.705 -1.6921  0.2195 -1.4766
  695MOL0     H93811   4.060   1.248   2.145 -2.3579  0.2640 -0.4817
  695MOL0     H93812   3.847   1.134   2.159  0.4579  1.6403  0.0258
  695MOL0     H93813   3.712   0.964   2.166 -3.2032 -2.1818 -0.3913
  695MOL0     H93814   3.655   1.101   2.249  1.8763  0.4521  1.5656
  695MOL0     H93815   3.505   0.935   2.391 -0.6696  0.4091  0.6700
  695MOL0     H93816   3.576   0.796   2.305  3.3385  1.2891  3.0820
  695MOL0     H93817   3.487   0.854   2.092  1.9522  1.4749  0.4519
  695MOL0     H93818   3.415   0.998   2.158  0.7618 -0.0560 -1.6272
  695MOL0     H93819   3.361   0.707   2.221  2.9999  1.6490  3.3638
  695MOL0     H93820   3.306   0.839   2.322  0.6893 -0.8419  1.3975
  695MOL0     H93821   3.055   0.862   1.965  3.1426  4.1298 -3.2203
  695MOL0     H93822   3.930   0.987   2.545  1.4677  0.1161  0.3968
  695MOL0     H93823   4.255   1.105   2.571  0.1135  1.9311 -1.4373
  695MOL0     H93824   4.149   1.215   2.652 -0.0956 -0.9168  0.8841
  695MOL0     H93825   4.120   1.036   2.655  0.7481  0.4068  0.0384
  696MOL0     O93826   8.182   9.648   3.525  0.2960 -0.6459 -0.0377
  696MOL0     C93827   8.178   9.634   3.407  0.0183  0.3613 -0.3748
  696MOL0     O93828   8.067   9.585   3.339  0.1144  0.0775 -0.0461
  696MOL0     C93829   7.963   9.526   3.423 -0.1352 -0.4830  0.8267
  696MOL0     C93830   7.831   9.566   3.419 -1.9476  0.3718  0.3160
  696MOL0     C93831   7.741   9.494   3.494 -0.1128 -0.4864 -0.3437
  696MOL0     C93832   7.773   9.384   3.571  1.6516  0.8258  0.2106
  696MOL0     O93833   7.683   9.314   3.641  0.0789  0.4443 -0.0426
  696MOL0     C93834   7.537   9.343   3.639  0.1847  0.9181  0.1055
  696MOL0     C93835   7.473   9.244   3.737 -0.0611 -0.2688 -0.3209
  696MOL0     C93836   7.318   9.255   3.730  0.9808 -0.9590  0.5359
  696MOL0     C93837   7.258   9.375   3.817  0.1535 -0.4614  0.3871
  696MOL0     C93838   7.111   9.386   3.804 -0.9743  0.5945 -1.1545
  696MOL0     C93839   7.050   9.273   3.881  0.0377  0.2749  0.2353
  696MOL0     C93840   6.905   9.249   3.844  0.4290  0.0606 -0.6020
  696MOL0     C93841   6.812   9.360   3.873 -0.5779  0.7139  1.2338
  696MOL0     N93842   6.784   9.396   4.016 -0.0908 -0.2220 -0.3153
  696MOL0     C93843   6.879   9.468   4.087  0.3949  0.6233 -0.1352
  696MOL0     C93844   6.858   9.443   4.219 -0.3887  0.5559  0.1917
  696MOL0     C93845   6.918   9.525   4.327 -0.4384  0.0358 -0.1458
  696MOL0     C93846   7.072   9.550   4.324 -0.6699 -0.3090  0.4427
  696MOL0     C93847   7.146   9.419   4.369 -0.4179 -1.5096  0.5377
  696MOL0     C93848   7.302   9.417   4.333  0.2947  0.7752  0.2566
  696MOL0     O93849   7.374   9.511   4.423 -0.2390  0.2253  0.5325
  696MOL0     C93850   7.500   9.532   4.372 -1.3432 -0.1222 -0.6439
  696MOL0     C93851   7.518   9.631   4.272 -0.6079 -0.8541 -0.5194
  696MOL0     C93852   7.635   9.671   4.221 -0.3421  0.1219  0.1132
  696MOL0     C93853   7.755   9.612   4.274  0.2842 -0.0296 -0.3633
  696MOL0     C93854   7.884   9.657   4.227  0.3999  0.7347 -0.5316
  696MOL0     O93855   7.878   9.698   4.096 -0.8048  0.9227  0.7491
  696MOL0     C93856   7.981   9.754   4.026  0.7205  0.9287 -0.1297
  696MOL0     C93857   8.026   9.885   4.066 -0.3072  0.6723  0.5281
  696MOL0     C93858   8.127   9.942   3.987 -0.6732  0.1804 -0.5624
  696MOL0     C93859   8.189   9.880   3.877  0.9385 -0.9182 -0.8387
  696MOL0     O93860   8.267   9.954   3.784 -0.2334  0.3716 -0.0810
  696MOL0     C93861   8.185  10.018   3.688  0.5313  0.7068 -0.1372
  696MOL0     C93862   8.252  10.117   3.602 -0.8812  0.7389  0.9321
  696MOL0     C93863   8.390  10.073   3.571  0.1064 -0.4566  0.1738
  696MOL0     C93864   8.465  10.191   3.490  1.0579  0.7400  0.2475
  696MOL0     C93865   8.541  10.135   3.367 -0.6234  1.0172 -0.3623
  696MOL0     C93866   8.653  10.232   3.314 -0.3249 -0.4368  0.0030
  696MOL0     C93867   8.602  10.345   3.233 -0.2673 -0.4306 -1.1310
  696MOL0     C93868   8.697  10.457   3.189 -0.0527  0.2321  0.1158
  696MOL0    Cl93869   8.637  10.608   3.254  0.3423  0.1063  0.3726
  696MOL0     C93870   8.138   9.758   3.844 -0.3691 -0.5007 -1.2164
  696MOL0     C93871   8.036   9.691   3.917 -0.0847 -0.7162 -0.2716
  696MOL0     O93872   7.982   9.653   4.297 -0.2045 -0.4537  0.4808
  696MOL0     C93873   7.746   9.526   4.386  0.2643  0.6624 -0.4168
  696MOL0     C93874   7.621   9.488   4.436 -0.5684  0.0766 -0.9078
  696MOL0     N93875   6.766   9.345   4.218  0.7778  0.4259 -0.1144
  696MOL0     N93876   6.734   9.307   4.102 -0.0481 -0.5196 -0.1634
  696MOL0     C93877   7.907   9.345   3.576  0.4972  0.7011 -0.7968
  696MOL0     C93878   8.000   9.414   3.498  0.1623  0.0426  0.3829
  696MOL0     C93879   8.293   9.676   3.325 -0.2726 -0.1053  0.1704
  696MOL0     C93880   8.277   9.693   3.181  0.0549 -0.9293  0.3743
  696MOL0     C93881   8.380   9.714   3.090  0.1632 -0.0881 -0.9447
  696MOL0     C93882   8.508   9.733   3.143  0.7828 -0.5003 -0.4896
  696MOL0     O93883   8.618   9.778   3.064 -0.6057 -1.2904  0.4596
  696MOL0     C93884   8.614   9.792   2.917 -0.0763 -0.6323 -0.3270
  696MOL0     C93885   8.760   9.820   2.870 -0.1577 -0.4128  0.4073
  696MOL0     C93886   8.815   9.939   2.941  0.4984 -0.7219 -0.6169
  696MOL0     C93887   8.728  10.070   2.949  0.0729 -0.8918  0.4727
  696MOL0     C93888   8.810  10.183   2.990 -0.0784 -0.1195 -0.1336
  696MOL0     C93889   8.875  10.285   3.004  0.2694 -0.1166  0.5253
  696MOL0     C93890   8.532   9.715   3.280 -0.8822 -0.1839 -0.7532
  696MOL0     C93891   8.423   9.692   3.368  0.0181 -0.0876 -0.1653
  696MOL0     C93892   8.459   9.694   3.515 -0.1255  0.0897  0.1441
  696MOL0     H93893   7.813   9.649   3.351  1.7950  1.1339  0.0335
  696MOL0     H93894   7.640   9.531   3.493  0.1531  0.4379  1.4983
  696MOL0     H93895   7.522   9.451   3.649 -0.0941  1.4339 -4.1434
  696MOL0     H93896   7.491   9.316   3.543 -3.4999  0.0453  1.9290
  696MOL0     H93897   7.493   9.268   3.841 -0.6531  2.9218 -0.8622
  696MOL0     H93898   7.497   9.138   3.719  0.6425 -0.1566 -0.0824
  696MOL0     H93899   7.279   9.160   3.767 -1.4740 -0.5216 -0.6795
  696MOL0     H93900   7.291   9.260   3.624  2.2538 -0.7236  0.2086
  696MOL0     H93901   7.283   9.353   3.921 -1.3730 -2.0011  0.4559
  696MOL0     H93902   7.314   9.468   3.799 -1.4020  0.2423 -1.0980
  696MOL0     H93903   7.086   9.477   3.859  1.6227  1.6030 -1.5245
  696MOL0     H93904   7.074   9.388   3.701 -1.2234 -4.5406 -1.3937
  696MOL0     H93905   7.097   9.177   3.862 -2.6308 -1.7409  2.8276
  696MOL0     H93906   7.065   9.292   3.988 -0.3488  1.0581  0.1609
  696MOL0     H93907   6.873   9.167   3.909  1.2209 -0.7087 -1.1729
  696MOL0     H93908   6.884   9.220   3.741 -2.2358 -0.7397  0.0947
  696MOL0     H93909   6.846   9.446   3.815  1.5479 -0.7828  0.1332
  696MOL0     H93910   6.722   9.319   3.827  1.6884 -5.0950  1.1848
  696MOL0     H93911   6.948   9.543   4.048  2.0400  0.2990  1.9306
  696MOL0     H93912   6.860   9.617   4.318 -1.8024 -0.7971 -0.2647
  696MOL0     H93913   6.888   9.473   4.419 -1.0156 -2.7087 -1.7865
  696MOL0     H93914   7.094   9.576   4.220 -0.1827 -0.4468  0.5113
  696MOL0     H93915   7.099   9.640   4.379 -2.2776  0.5451 -0.0808
  696MOL0     H93916   7.114   9.333   4.311  3.7969 -2.3997 -0.7497
  696MOL0     H93917   7.134   9.407   4.477 -1.9404  1.4233  0.8101
  696MOL0     H93918   7.318   9.446   4.229 -0.4642 -1.0614 -0.4111
  696MOL0     H93919   7.353   9.321   4.339  2.4089  1.8619  0.3828
  696MOL0     H93920   7.420   9.657   4.233 -1.5172 -3.9089 -0.4777
  696MOL0     H93921   7.619   9.738   4.137 -1.0892 -1.0104 -0.6745
  696MOL0     H93922   7.988   9.939   4.152  0.4126  0.3044  1.0810
  696MOL0     H93923   8.162  10.043   4.007  3.9643 -1.5993  2.0206
  696MOL0     H93924   8.121   9.955   3.626 -1.0584  2.7322 -0.6575
  696MOL0     H93925   8.110  10.079   3.739 -0.0600  0.1454 -0.3287
  696MOL0     H93926   8.188  10.141   3.517  0.1017  0.4880  0.0991
  696MOL0     H93927   8.269  10.213   3.652 -1.7369  0.1310  2.4489
  696MOL0     H93928   8.444  10.052   3.663 -0.5488 -1.1937  0.4049
  696MOL0     H93929   8.381   9.983   3.510 -2.4228 -1.5207  1.9193
  696MOL0     H93930   8.529  10.254   3.551  1.4030  1.5530 -0.9249
  696MOL0     H93931   8.390  10.255   3.443  0.5230 -0.7046 -0.9400
  696MOL0     H93932   8.470  10.102   3.291 -0.8040  0.9051 -0.1475
  696MOL0     H93933   8.598  10.049   3.406  1.8721  2.6271 -0.2101
  696MOL0     H93934   8.707  10.262   3.404  0.1329 -2.4740  0.4449
  696MOL0     H93935   8.721  10.179   3.247  0.8688  1.2907 -0.2062
  696MOL0     H93936   8.525  10.393   3.294  0.1085 -0.5711 -0.5465
  696MOL0     H93937   8.547  10.308   3.145 -2.3115 -0.1131 -0.0627
  696MOL0     H93938   8.797  10.439   3.230  0.2598 -1.3536 -1.2249
  696MOL0     H93939   8.722  10.461   3.082  0.9430  1.0534  0.3603
  696MOL0     H93940   8.183   9.705   3.760 -1.0135 -0.5909 -1.5085
  696MOL0     H93941   7.990   9.599   3.882 -0.3506 -0.3469 -0.9224
  696MOL0     H93942   7.833   9.468   4.415 -2.8327 -2.3727  4.2757
  696MOL0     H93943   7.628   9.410   4.511  3.6594  1.1885  0.0740
  696MOL0     H93944   7.928   9.259   3.638 -2.5487  0.5114  0.1183
  696MOL0     H93945   8.102   9.378   3.492 -0.0047 -0.3006 -4.3472
  696MOL0     H93946   8.183   9.669   3.132 -0.8426  2.8920 -0.0908
  696MOL0     H93947   8.362   9.702   2.984 -1.4022  1.0409 -0.8459
  696MOL0     H93948   8.540   9.863   2.880 -0.5253 -1.3240 -0.7904
  696MOL0     H93949   8.567   9.700   2.880  0.7049 -0.8265 -0.8833
  696MOL0     H93950   8.762   9.854   2.766 -2.7023  2.6372  1.1741
  696MOL0     H93951   8.829   9.737   2.855 -0.4486 -0.6835  0.5474
  696MOL0     H93952   8.911   9.968   2.895  0.1813  2.9520  0.7274
  696MOL0     H93953   8.833   9.913   3.045 -1.0840  1.6775  0.3472
  696MOL0     H93954   8.673  10.091   2.856  2.2925  0.2733 -0.6760
  696MOL0     H93955   8.646  10.064   3.021 -0.1044 -0.7820  0.2803
  696MOL0     H93956   8.921  10.381   3.014  0.6609 -0.3207  0.7122
  696MOL0     H93957   8.631   9.743   3.316 -1.6295  0.9824  0.4839
  696MOL0     H93958   8.472   9.593   3.556  0.0014 -0.5564 -1.4110
  696MOL0     H93959   8.560   9.734   3.528  0.2140 -1.1341  1.5385
  696MOL0     H93960   8.388   9.743   3.582 -0.3333 -2.5007  2.0022
  697MOL0     O93961   9.704  11.334   1.008 -0.6774  0.7809 -0.4440
  697MOL0     C93962   9.735  11.231   1.071  0.2720 -0.2646  0.4114
  697MOL0     O93963   9.853  11.212   1.139 -0.3053 -0.6418 -0.3988
  697MOL0     C93964   9.954  11.307   1.124 -0.4147  0.6820  0.3750
  697MOL0     C93965   9.960  11.426   1.200 -0.2006 -0.3430 -0.1533
  697MOL0     C93966  10.052  11.522   1.178  0.2288 -0.1466  0.7323
  697MOL0     C93967  10.155  11.498   1.087 -0.2475 -0.6317 -0.2007
  697MOL0     O93968  10.263  11.585   1.085  0.4913  0.2635 -0.7662
  697MOL0     C93969  10.264  11.670   0.973  0.1726  0.1491  0.2879
  697MOL0     C93970  10.407  11.685   0.907  0.9416  0.8088  0.7999
  697MOL0     C93971  10.409  11.760   0.773 -0.7434  0.2176 -0.7536
  697MOL0     C93972  10.559  11.745   0.718  0.9257  0.1821 -0.1686
  697MOL0     C93973  10.585  11.827   0.583 -0.1054 -0.0750  0.5790
  697MOL0     C93974  10.464  11.846   0.491  0.4943 -0.3670 -0.4126
  697MOL0     C93975  10.449  11.709   0.417 -0.2196 -0.4823 -0.2235
  697MOL0     C93976  10.309  11.687   0.362 -0.2096  0.2623 -0.4943
  697MOL0     N93977  10.266  11.800   0.275 -0.0047  0.4643 -0.1415
  697MOL0     C93978  10.133  11.863   0.274 -0.6656 -0.3316  0.2055
  697MOL0     C93979  10.142  11.953   0.169  0.8799  0.2139  0.1808
  697MOL0     C93980  10.022  12.031   0.114 -0.1263  0.0192  0.9038
  697MOL0     C93981  10.023  12.057  -0.036  0.0246  0.0785 -0.0637
  697MOL0     C93982  10.085  12.189  -0.084  0.2073 -0.7807 -0.6129
  697MOL0     C93983  10.229  12.217  -0.043  0.0712 -0.7307 -0.0299
  697MOL0     O93984  10.272  12.349  -0.099 -0.1729  0.1060 -0.5517
  697MOL0     C93985  10.398  12.394  -0.078 -0.0134 -0.0010 -0.2156
  697MOL0     C93986  10.508  12.310  -0.092  0.4433  0.1433  0.1305
  697MOL0     C93987  10.645  12.350  -0.079  0.4577 -0.2841  0.0593
  697MOL0     C93988  10.673  12.488  -0.072 -0.4357 -0.2872 -0.3860
  697MOL0     C93989  10.811  12.543  -0.086  0.4387  0.1600  0.2689
  697MOL0     O93990  10.823  12.671  -0.026 -0.0013  0.0714  0.3323
  697MOL0     C93991  10.950  12.721  -0.027  1.8376 -0.4893 -0.4336
  697MOL0     C93992  11.002  12.758   0.093 -0.2604 -0.7159 -0.1002
  697MOL0     C93993  11.120  12.839   0.101  0.5116 -0.6470  0.7567
  697MOL0     C93994  11.191  12.866  -0.013 -0.1048 -0.1913 -0.4716
  697MOL0     O93995  11.309  12.956   0.005  0.1437 -0.0992 -0.9216
  697MOL0     C93996  11.359  13.039  -0.100 -0.3031  0.0000 -0.0298
  697MOL0     C93997  11.248  13.139  -0.136  0.5619 -1.6277  0.2350
  697MOL0     C93998  11.233  13.247  -0.032  1.1525  0.3879  0.1103
  697MOL0     C93999  11.089  13.300  -0.013  0.6045 -0.5085 -0.4366
  697MOL0     C94000  11.091  13.412   0.096 -0.2551  0.6848  0.2732
  697MOL0     C94001  10.963  13.478   0.123 -0.0105 -0.0034  0.3873
  697MOL0     C94002  10.878  13.530   0.010 -0.3097 -1.0877 -0.0018
  697MOL0     C94003  10.945  13.631  -0.083 -0.4590  0.7510  0.0430
  697MOL0    Cl94004  10.985  13.786   0.008  0.2973  0.2759 -0.0941
  697MOL0     C94005  11.135  12.829  -0.132  0.5434 -0.4353  0.3756
  697MOL0     C94006  11.016  12.760  -0.141  1.3723 -0.0250  0.3185
  697MOL0     O94007  10.901  12.470  -0.119 -0.3000  1.1087 -0.2963
  697MOL0     C94008  10.561  12.573  -0.063  0.3445  0.4248 -0.2528
  697MOL0     C94009  10.426  12.528  -0.060 -0.5038 -0.3006 -0.3604
  697MOL0     N94010  10.268  11.943   0.117  0.3929  0.4649  1.0440
  697MOL0     N94011  10.343  11.852   0.175 -0.0070  0.3597  1.2166
  697MOL0     C94012  10.158  11.385   1.010  0.0131 -0.5362  0.9019
  697MOL0     C94013  10.050  11.291   1.023 -0.9586  0.6626  0.6507
  697MOL0     C94014   9.627  11.131   1.099  0.2275 -0.0518  0.5765
  697MOL0     C94015   9.645  11.029   1.191  0.2529  0.7156 -0.1522
  697MOL0     C94016   9.551  10.934   1.224  0.4037  0.1807  0.3822
  697MOL0     C94017   9.428  10.936   1.153  0.5469 -0.4008 -0.3213
  697MOL0     O94018   9.334  10.835   1.151 -0.9922  0.2874  0.7701
  697MOL0     C94019   9.322  10.751   1.270  0.3989 -0.6793  0.1379
  697MOL0     C94020   9.174  10.736   1.276  0.0521  0.4787  1.0130
  697MOL0     C94021   9.127  10.647   1.393 -0.8061  0.6932 -0.2381
  697MOL0     C94022   8.981  10.609   1.399  0.2812 -0.0463 -0.3809
  697MOL0     C94023   8.895  10.715   1.438 -0.3333  0.1397  0.2673
  697MOL0     C94024   8.843  10.824   1.452  0.4074  0.4896  0.9609
  697MOL0     C94025   9.407  11.028   1.056 -0.2811 -0.3357 -0.0327
  697MOL0     C94026   9.505  11.118   1.027 -0.4029 -0.8882 -0.5907
  697MOL0     C94027   9.489  11.195   0.903  0.4876 -0.0616  0.6991
  697MOL0     H94028   9.888  11.460   1.275 -0.8139 -1.9740  0.0267
  697MOL0     H94029  10.041  11.605   1.248 -0.0240  0.0353  0.4781
  697MOL0     H94030  10.195  11.642   0.893  3.3021  0.6921 -2.8795
  697MOL0     H94031  10.223  11.760   1.020 -0.2438 -0.9523  2.1448
  697MOL0     H94032  10.437  11.581   0.888 -0.8474  0.2538  0.7665
  697MOL0     H94033  10.475  11.724   0.983 -1.6222  0.6112  3.3858
  697MOL0     H94034  10.386  11.866   0.786  3.1725  0.8611  3.7162
  697MOL0     H94035  10.338  11.710   0.706  0.0375 -1.1480 -0.6090
  697MOL0     H94036  10.632  11.780   0.791 -0.2087  0.9145  0.6459
  697MOL0     H94037  10.581  11.639   0.705 -0.9771 -0.1402 -1.2499
  697MOL0     H94038  10.618  11.923   0.624  0.9389  0.2923 -1.0459
  697MOL0     H94039  10.668  11.786   0.525  1.1652  0.8865  1.6716
  697MOL0     H94040  10.373  11.876   0.544 -0.3096 -2.6960 -0.3251
  697MOL0     H94041  10.471  11.928   0.419 -1.9203  0.0474 -0.2582
  697MOL0     H94042  10.471  11.627   0.486 -2.5840 -0.5015  0.5828
  697MOL0     H94043  10.526  11.720   0.340  0.0831  1.9258  0.3347
  697MOL0     H94044  10.314  11.592   0.308  3.3017  0.2023 -0.3078
  697MOL0     H94045  10.246  11.683   0.451  1.1673  0.7027  0.5403
  697MOL0     H94046  10.044  11.834   0.328 -1.1624  0.5237 -0.1468
  697MOL0     H94047   9.928  11.980   0.137 -0.0214  0.0104  1.3300
  697MOL0     H94048  10.018  12.130   0.162 -0.8680  0.4277  0.0368
  697MOL0     H94049  10.059  11.985  -0.110  0.5668  3.1085 -2.9814
  697MOL0     H94050   9.917  12.072  -0.059  0.1854  1.3208 -0.0424
  697MOL0     H94051  10.036  12.274  -0.036  4.1173  0.5224  1.5653
  697MOL0     H94052  10.071  12.214  -0.190 -2.7442  0.4279 -0.0355
  697MOL0     H94053  10.293  12.141  -0.088  0.5323 -0.9915  1.0336
  697MOL0     H94054  10.235  12.240   0.064  0.2235  1.2854 -0.4369
  697MOL0     H94055  10.487  12.206  -0.115  2.0773 -0.4143  0.9734
  697MOL0     H94056  10.728  12.280  -0.077  2.3232  1.7676 -0.7608
  697MOL0     H94057  10.948  12.744   0.186  0.9919  3.1142  1.4127
  697MOL0     H94058  11.158  12.875   0.196 -2.1809  1.0885  1.2972
  697MOL0     H94059  11.458  13.082  -0.082  1.9933 -3.7898 -2.4640
  697MOL0     H94060  11.379  12.973  -0.184  3.1193 -1.2579  1.5924
  697MOL0     H94061  11.276  13.198  -0.225  0.1259  1.7430  2.1601
  697MOL0     H94062  11.155  13.090  -0.165  1.3162 -2.7241 -0.4452
  697MOL0     H94063  11.270  13.203   0.061 -0.8357 -4.0363 -0.9330
  697MOL0     H94064  11.297  13.332  -0.058  0.2976  1.0500  0.1072
  697MOL0     H94065  11.022  13.222   0.024 -0.0725  0.2335 -0.0699
  697MOL0     H94066  11.046  13.347  -0.102  0.2841 -0.4264 -0.2423
  697MOL0     H94067  11.163  13.484   0.055 -2.2337  3.3092  1.1074
  697MOL0     H94068  11.135  13.372   0.188  0.8663  0.9256 -0.1447
  697MOL0     H94069  10.910  13.402   0.181  0.9230 -2.2686 -1.5408
  697MOL0     H94070  10.978  13.562   0.191 -4.4299  2.1657 -0.9486
  697MOL0     H94071  10.781  13.571   0.041  0.0637  1.5019 -1.9294
  697MOL0     H94072  10.837  13.448  -0.049  0.4762 -1.2504 -0.3296
  697MOL0     H94073  11.041  13.587  -0.112 -1.4779 -1.2841 -0.4717
  697MOL0     H94074  10.881  13.669  -0.163  0.0348  2.8424  0.5992
  697MOL0     H94075  11.178  12.849  -0.230  0.3677  0.0890  0.4049
  697MOL0     H94076  10.974  12.734  -0.238 -0.9268  1.4302  0.8432
  697MOL0     H94077  10.579  12.680  -0.054 -1.7094  0.7008  1.3490
  697MOL0     H94078  10.347  12.602  -0.059 -0.2284 -0.0036  1.0113
  697MOL0     H94079  10.224  11.366   0.926 -0.5702  1.2539 -0.0058
  697MOL0     H94080  10.040  11.217   0.944  0.2182  3.1716 -2.0763
  697MOL0     H94081   9.735  11.026   1.253  0.3968  0.0040 -0.3835
  697MOL0     H94082   9.570  10.852   1.293 -2.7929 -0.5787  0.5619
  697MOL0     H94083   9.349  10.812   1.357 -2.8757  1.5564 -0.2099
  697MOL0     H94084   9.380  10.659   1.261 -2.6490 -2.6944 -0.0834
  697MOL0     H94085   9.122  10.702   1.185 -3.6959  0.3618  2.9847
  697MOL0     H94086   9.142  10.838   1.300  0.3706  1.0787 -0.8863
  697MOL0     H94087   9.151  10.705   1.482  0.9205  0.1530 -0.3146
  697MOL0     H94088   9.184  10.554   1.390 -3.3596 -1.0744  1.8365
  697MOL0     H94089   8.953  10.573   1.299 -0.4963  0.6928 -0.4405
  697MOL0     H94090   8.977  10.527   1.471  1.4538  1.8033  1.9057
  697MOL0     H94091   8.784  10.911   1.472  0.7033  1.1180 -0.7216
  697MOL0     H94092   9.304  11.026   1.021 -0.8928  1.1632  1.5103
  697MOL0     H94093   9.581  11.185   0.844  0.2698  1.1026  0.1213
  697MOL0     H94094   9.404  11.170   0.840  0.1225 -2.7007  2.1247
  697MOL0     H94095   9.469  11.300   0.930 -0.5808  0.8488 -3.1129
  698MOL0     O94096   0.252   1.964   0.612  0.5024  0.0103 -0.4832
  698MOL0     C94097   0.179   1.870   0.648 -0.1237 -0.8882 -1.0937
  698MOL0     O94098   0.217   1.739   0.662  0.0607 -1.1047  0.1371
  698MOL0     C94099   0.346   1.719   0.694  0.0875 -0.0184 -0.4770
  698MOL0     C94100   0.376   1.653   0.808  0.5084 -0.4585  0.1817
  698MOL0     C94101   0.507   1.612   0.831 -0.4126 -0.2836 -0.9306
  698MOL0     C94102   0.615   1.649   0.747 -0.5918  0.5278 -0.5410
  698MOL0     O94103   0.738   1.602   0.775  0.2173 -0.3176  0.3671
  698MOL0     C94104   0.839   1.707   0.775 -0.0468 -0.4260 -0.2314
  698MOL0     C94105   0.970   1.641   0.819  0.5434 -0.3700  1.0516
  698MOL0     C94106   1.098   1.718   0.822 -0.5879  1.0172 -0.0800
  698MOL0     C94107   1.156   1.762   0.681  0.4891  1.0086 -0.0920
  698MOL0     C94108   1.288   1.839   0.665 -0.1446  0.2984 -0.2088
  698MOL0     C94109   1.389   1.767   0.752 -0.2104  0.2022  0.3877
  698MOL0     C94110   1.526   1.830   0.763 -1.2220  0.8915  0.9028
  698MOL0     C94111   1.609   1.737   0.853  0.1022  0.3782 -0.2807
  698MOL0     N94112   1.741   1.785   0.881  0.0799 -0.2252  0.7630
  698MOL0     C94113   1.849   1.742   0.807  0.2165 -0.0088 -1.0005
  698MOL0     C94114   1.951   1.802   0.865 -0.9050 -0.8061 -0.7185
  698MOL0     C94115   2.090   1.755   0.826 -0.0050 -1.1634  0.1071
  698MOL0     C94116   2.188   1.878   0.835 -0.4482 -0.0396 -0.4031
  698MOL0     C94117   2.325   1.848   0.769 -0.2605  0.4540 -0.0257
  698MOL0     C94118   2.408   1.970   0.755  0.6484 -0.3552  0.0741
  698MOL0     O94119   2.549   1.934   0.727 -0.5950  0.6215 -0.0385
  698MOL0     C94120   2.656   2.015   0.756 -0.5128  0.5265 -0.3008
  698MOL0     C94121   2.645   2.158   0.754  0.6559 -0.0105  0.4694
  698MOL0     C94122   2.764   2.232   0.780  0.4081 -0.6030  0.8706
  698MOL0     C94123   2.886   2.168   0.818  0.3367 -0.1142  0.0850
  698MOL0     C94124   3.006   2.243   0.849  0.3939 -0.4302 -0.0037
  698MOL0     O94125   3.015   2.374   0.804  0.4099  0.3814  0.4498
  698MOL0     C94126   3.136   2.438   0.799  0.4992 -0.1483  1.0852
  698MOL0     C94127   3.167   2.538   0.884 -0.0107  0.1656  0.2994
  698MOL0     C94128   3.281   2.613   0.881 -0.7694  0.1009 -0.7230
  698MOL0     C94129   3.379   2.573   0.796 -0.5520 -0.1667  0.3349
  698MOL0     O94130   3.506   2.635   0.794 -0.6123 -0.3814 -0.6028
  698MOL0     C94131   3.564   2.700   0.912  0.5584  0.6143  0.5787
  698MOL0     C94132   3.713   2.704   0.927 -0.2907 -0.3910  0.9573
  698MOL0     C94133   3.774   2.565   0.932  0.2807 -0.3587 -0.3088
  698MOL0     C94134   3.891   2.572   1.033 -0.1244 -0.1333  0.3285
  698MOL0     C94135   3.956   2.431   1.020 -0.3505 -0.6598 -0.3382
  698MOL0     C94136   4.085   2.421   1.102 -0.7751 -0.3020  0.1602
  698MOL0     C94137   4.087   2.460   1.250 -0.6478 -0.5237 -0.0748
  698MOL0     C94138   4.207   2.422   1.342  0.5123  0.1026  0.7651
  698MOL0    Cl94139   4.177   2.250   1.383  0.0512 -0.4297 -0.4370
  698MOL0     C94140   3.355   2.477   0.702  0.3620  1.3146  0.1576
  698MOL0     C94141   3.233   2.402   0.706 -0.3105 -0.1248  0.2005
  698MOL0     O94142   3.098   2.182   0.907 -0.1399 -0.2776  0.5298
  698MOL0     C94143   2.891   2.028   0.814 -0.3819 -0.3261  0.4399
  698MOL0     C94144   2.774   1.958   0.779  0.5634  1.1096 -0.0366
  698MOL0     N94145   1.908   1.879   0.976  0.4464  0.1832  0.7036
  698MOL0     N94146   1.782   1.867   0.980  0.2156  0.7003  0.7606
  698MOL0     C94147   0.584   1.725   0.638  0.4130  0.3242 -0.0809
  698MOL0     C94148   0.456   1.754   0.608  0.8976 -0.3171 -0.2428
  698MOL0     C94149   0.035   1.920   0.666 -0.8520  0.1071  0.4427
  698MOL0     C94150  -0.018   2.010   0.565 -0.0178 -0.4438  0.8505
  698MOL0     C94151  -0.155   2.050   0.562 -0.9553 -0.2934  0.7076
  698MOL0     C94152  -0.249   1.982   0.639  1.3429 -0.5173  0.2174
  698MOL0     O94153  -0.388   1.997   0.627 -0.0168 -0.2673 -0.4433
  698MOL0     C94154  -0.435   2.111   0.561 -0.5417  0.1596  0.2690
  698MOL0     C94155  -0.585   2.143   0.579 -0.3844 -0.4727  0.2162
  698MOL0     C94156  -0.646   2.110   0.719 -0.0991  0.3425  0.2200
  698MOL0     C94157  -0.790   2.143   0.725 -0.0622  0.0614  0.2992
  698MOL0     C94158  -0.821   2.285   0.697  0.2343 -0.2979 -0.6531
  698MOL0     C94159  -0.849   2.401   0.698  0.0713  0.0584 -0.3726
  698MOL0     C94160  -0.195   1.893   0.737  0.0591  0.0092  0.9860
  698MOL0     C94161  -0.061   1.859   0.753  0.3698 -1.5543  0.6953
  698MOL0     C94162  -0.018   1.755   0.843 -0.5065  0.0259  0.0602
  698MOL0     H94163   0.302   1.619   0.880 -0.9510 -3.0003 -2.3161
  698MOL0     H94164   0.545   1.549   0.912  0.7017 -2.1403 -2.8040
  698MOL0     H94165   0.843   1.740   0.671 -1.0433 -1.1337 -0.5170
  698MOL0     H94166   0.817   1.790   0.844 -0.5659 -1.7929  1.3162
  698MOL0     H94167   0.990   1.562   0.746  1.4089 -1.3583  2.3234
  698MOL0     H94168   0.955   1.585   0.912  1.0837 -2.5638 -0.1120
  698MOL0     H94169   1.168   1.650   0.873  1.3678  2.9205 -0.0775
  698MOL0     H94170   1.085   1.801   0.891 -0.4779  0.7829  0.2236
  698MOL0     H94171   1.173   1.668   0.627  2.2192  0.8226  0.7215
  698MOL0     H94172   1.079   1.817   0.627  0.5879  1.0682 -0.1740
  698MOL0     H94173   1.328   1.843   0.563  2.8139 -0.5985  0.8153
  698MOL0     H94174   1.274   1.941   0.702 -2.1652 -0.2256  0.6202
  698MOL0     H94175   1.347   1.769   0.852  0.3115 -1.0843  0.6479
  698MOL0     H94176   1.401   1.668   0.707 -0.7053  0.9245 -1.4456
  698MOL0     H94177   1.517   1.930   0.805 -4.0030  1.3623 -0.5591
  698MOL0     H94178   1.574   1.826   0.665  0.5240 -1.4063  1.7407
  698MOL0     H94179   1.553   1.716   0.945  4.0853 -0.7499  2.1330
  698MOL0     H94180   1.627   1.639   0.808  2.0345  0.5482  0.0498
  698MOL0     H94181   1.864   1.666   0.731  2.2991  0.6006 -1.2705
  698MOL0     H94182   2.130   1.685   0.900  1.8924  1.8796  2.1985
  698MOL0     H94183   2.090   1.701   0.731  1.4426  0.5378 -0.9201
  698MOL0     H94184   2.142   1.973   0.805 -0.5133  0.3032  0.7486
  698MOL0     H94185   2.208   1.898   0.940 -4.0919 -4.3143  1.4117
  698MOL0     H94186   2.307   1.790   0.678  1.6979 -0.3922  0.0736
  698MOL0     H94187   2.384   1.777   0.827  1.9535  2.4408  0.3113
  698MOL0     H94188   2.414   2.034   0.844 -1.9597  2.4844 -1.6116
  698MOL0     H94189   2.362   2.022   0.670 -0.9040 -0.1046  1.0282
  698MOL0     H94190   2.549   2.205   0.735  0.7341  0.3395  0.9433
  698MOL0     H94191   2.763   2.340   0.794  1.5341 -0.8048  2.7492
  698MOL0     H94192   3.086   2.578   0.945 -1.0150 -2.2813  0.6821
  698MOL0     H94193   3.306   2.703   0.936  2.0036  0.0550 -1.7402
  698MOL0     H94194   3.532   2.805   0.906 -2.5687 -0.3153 -0.7868
  698MOL0     H94195   3.517   2.672   1.006 -2.4098  4.7942  0.5918
  698MOL0     H94196   3.760   2.747   0.839  0.7545  0.0187  1.6902
  698MOL0     H94197   3.732   2.777   1.007 -1.4049  1.7442 -0.6291
  698MOL0     H94198   3.694   2.496   0.961 -3.0736  2.5771 -1.8166
  698MOL0     H94199   3.805   2.540   0.831  1.4417 -0.8636  0.1497
  698MOL0     H94200   3.861   2.579   1.138  0.7462 -0.9122  0.6439
  698MOL0     H94201   3.971   2.645   1.015 -0.7187  0.6528  0.7871
  698MOL0     H94202   3.977   2.418   0.914 -2.4605 -0.3157 -0.8450
  698MOL0     H94203   3.890   2.347   1.045 -0.8427 -0.5725 -1.3062
  698MOL0     H94204   4.118   2.317   1.102  0.1167 -0.0598  2.4058
  698MOL0     H94205   4.165   2.484   1.061 -1.5896  2.2769  2.2186
  698MOL0     H94206   4.004   2.426   1.312  0.7787 -4.6723 -0.1301
  698MOL0     H94207   4.077   2.569   1.253 -2.4505 -0.6829  0.7382
  698MOL0     H94208   4.294   2.440   1.278 -1.5125 -1.7661 -2.8593
  698MOL0     H94209   4.204   2.479   1.435 -0.8211  2.8602 -0.8197
  698MOL0     H94210   3.426   2.456   0.622 -1.3447  3.7355 -2.1482
  698MOL0     H94211   3.210   2.327   0.630 -0.3929 -1.1229  1.1851
  698MOL0     H94212   2.983   1.976   0.838  0.8126  1.1855 -0.6564
  698MOL0     H94213   2.783   1.850   0.781  0.8159  1.1249 -0.2147
  698MOL0     H94214   0.655   1.761   0.565  0.4436 -1.2063 -0.8186
  698MOL0     H94215   0.437   1.812   0.519 -0.1038 -0.6838 -0.2750
  698MOL0     H94216   0.054   2.038   0.489  3.8085 -0.7568  4.0592
  698MOL0     H94217  -0.189   2.116   0.483  0.3658  1.8352  1.8161
  698MOL0     H94218  -0.412   2.099   0.455 -1.3468  1.7522 -0.1246
  698MOL0     H94219  -0.373   2.198   0.585  1.3374 -0.7312 -1.0729
  698MOL0     H94220  -0.644   2.084   0.508 -1.8414  2.2322 -0.9711
  698MOL0     H94221  -0.599   2.248   0.551  0.0568 -1.0338 -2.4438
  698MOL0     H94222  -0.582   2.152   0.797 -0.0357 -2.0514  1.5571
  698MOL0     H94223  -0.635   2.002   0.735 -1.2309  0.1609 -0.0981
  698MOL0     H94224  -0.850   2.083   0.657 -0.8673  1.3542 -0.1798
  698MOL0     H94225  -0.833   2.134   0.826  1.9296  0.4291  1.2206
  698MOL0     H94226  -0.879   2.504   0.703  1.2566  0.4450 -1.0223
  698MOL0     H94227  -0.275   1.837   0.786 -1.0032  2.4255  2.1618
  698MOL0     H94228   0.085   1.774   0.878 -0.6628 -0.2345  0.6790
  698MOL0     H94229  -0.080   1.754   0.933 -1.8725 -0.5619 -0.8647
  698MOL0     H94230  -0.028   1.654   0.802 -0.7768  0.6787 -1.5639
  699MOL0     O94231   0.080   7.236  11.417  0.3468  0.6482 -0.3563
  699MOL0     C94232   0.180   7.258  11.358 -0.2348  0.1318  0.2512
  699MOL0     O94233   0.189   7.253  11.223  0.2489 -0.6264 -0.6988
  699MOL0     C94234   0.289   7.315  11.162 -0.2612  0.0703  0.2942
  699MOL0     C94235   0.366   7.259  11.055  0.5527 -0.2235  0.0970
  699MOL0     C94236   0.451   7.341  10.972 -0.1380 -0.5548 -0.5794
  699MOL0     C94237   0.473   7.467  11.019  0.6371  0.3961  0.0426
  699MOL0     O94238   0.571   7.547  10.982 -0.5242 -0.0552 -0.0074
  699MOL0     C94239   0.520   7.649  10.896  0.2990  0.1286  0.2095
  699MOL0     C94240   0.559   7.620  10.741 -0.0289 -0.7396 -0.2866
  699MOL0     C94241   0.534   7.474  10.696  0.3609 -0.7822  0.4940
  699MOL0     C94242   0.548   7.463  10.546 -0.3546 -0.0034 -0.5291
  699MOL0     C94243   0.491   7.331  10.478 -0.6243  0.6954 -0.4251
  699MOL0     C94244   0.537   7.197  10.549  0.3404 -0.4257 -0.2717
  699MOL0     C94245   0.448   7.084  10.502  0.0284  0.2996 -0.3876
  699MOL0     C94246   0.321   7.064  10.577  1.0310 -0.1865 -0.8393
  699MOL0     N94247   0.211   7.020  10.482  0.5742 -0.6887 -0.6000
  699MOL0     C94248   0.097   7.086  10.448 -0.5815 -0.9306 -0.7079
  699MOL0     C94249   0.033   7.008  10.365  0.5737  0.0879  0.0795
  699MOL0     C94250  -0.089   7.035  10.282 -0.6306  0.0787 -0.1856
  699MOL0     C94251  -0.213   7.107  10.356  0.0130 -0.3242  0.0022
  699MOL0     C94252  -0.320   7.140  10.251  0.5029  0.5681 -0.1317
  699MOL0     C94253  -0.288   7.283  10.202 -0.6106 -0.0150  0.3582
  699MOL0     O94254  -0.377   7.320  10.086  0.8746 -0.1177  0.3031
  699MOL0     C94255  -0.359   7.239   9.978  0.4416 -0.4157 -0.3056
  699MOL0     C94256  -0.467   7.175   9.903 -0.7318 -0.6818 -0.5723
  699MOL0     C94257  -0.440   7.107   9.780  1.2050  0.4903 -0.2262
  699MOL0     C94258  -0.311   7.095   9.732  0.4370  0.2635  0.3959
  699MOL0     C94259  -0.271   7.026   9.602  0.5625  0.3945 -0.8531
  699MOL0     O94260  -0.159   6.945   9.601  0.2529 -0.3080 -0.1997
  699MOL0     C94261  -0.115   6.855   9.506  0.8832 -1.3964 -0.1471
  699MOL0     C94262   0.026   6.834   9.498 -0.6335 -0.1579 -0.1850
  699MOL0     C94263   0.077   6.749   9.400 -0.6717  0.1675  0.4924
  699MOL0     C94264  -0.013   6.700   9.304  0.5560 -0.5836  0.5880
  699MOL0     O94265   0.035   6.626   9.198  0.7187  0.5465 -0.0995
  699MOL0     C94266   0.036   6.695   9.068  0.1727 -0.7663 -0.5876
  699MOL0     C94267  -0.047   6.616   8.975 -0.4576 -0.1789  0.3524
  699MOL0     C94268   0.017   6.476   8.962 -0.2775  0.4460  0.0454
  699MOL0     C94269  -0.087   6.381   8.917 -0.0214  0.6713  0.4238
  699MOL0     C94270  -0.147   6.410   8.780  0.9063  0.4154 -0.2143
  699MOL0     C94271  -0.048   6.390   8.659 -0.8249 -1.0200  0.3667
  699MOL0     C94272  -0.003   6.248   8.644  0.3826 -0.0245  0.4725
  699MOL0     C94273   0.017   6.206   8.496 -0.2508  0.9742  0.5971
  699MOL0    Cl94274   0.081   6.033   8.473 -0.2339  0.2666  0.3016
  699MOL0     C94275  -0.149   6.721   9.308  0.1910  0.4895 -0.4205
  699MOL0     C94276  -0.199   6.792   9.417 -0.2600  0.1753  0.0091
  699MOL0     O94277  -0.353   7.043   9.508 -1.0117 -0.4778  0.0858
  699MOL0     C94278  -0.206   7.141   9.817 -0.2221  0.1521 -0.2464
  699MOL0     C94279  -0.225   7.210   9.931 -0.0718  0.6152 -0.2642
  699MOL0     N94280   0.103   6.889  10.364 -0.3218  0.6625  0.0346
  699MOL0     N94281   0.198   6.891  10.441 -0.3115  0.4729 -0.3070
  699MOL0     C94282   0.398   7.519  11.127  0.1109  0.4467  0.1563
  699MOL0     C94283   0.301   7.452  11.202  0.2384  0.1075  0.4913
  699MOL0     C94284   0.283   7.294  11.453 -0.3106  0.0341  0.3524
  699MOL0     C94285   0.283   7.420  11.524 -0.2574  1.0237 -0.0762
  699MOL0     C94286   0.391   7.448  11.609 -0.5079 -0.1737 -0.5910
  699MOL0     C94287   0.494   7.352  11.632 -0.0214 -0.0964  0.0194
  699MOL0     O94288   0.596   7.393  11.708 -0.2550  0.1251 -0.4304
  699MOL0     C94289   0.712   7.316  11.734 -0.1056  0.3552  0.1871
  699MOL0     C94290   0.760   7.357  11.871  0.3450 -0.1187  0.1814
  699MOL0     C94291   0.874   7.270  11.919 -0.1828 -1.7064 -0.4573
  699MOL0     C94292   0.873   7.116  11.915  0.1655 -0.5585 -0.7918
  699MOL0     C94293   0.757   7.057  11.986  0.8173 -0.3500 -0.5171
  699MOL0     C94294   0.674   7.006  12.062 -0.2501  0.0524  1.0257
  699MOL0     C94295   0.497   7.230  11.549  0.2432 -0.5712 -0.2513
  699MOL0     C94296   0.392   7.200  11.468  0.4034  0.5484  1.1937
  699MOL0     C94297   0.404   7.061  11.402  0.7260  0.0991  1.0129
  699MOL0     H94298   0.349   7.153  11.036  1.4791 -0.6749  1.6121
  699MOL0     H94299   0.502   7.295  10.888  2.2826 -1.3204  1.1717
  699MOL0     H94300   0.412   7.661  10.905  0.2535 -0.2979  0.2516
  699MOL0     H94301   0.563   7.748  10.915 -1.1863  0.6284  1.0983
  699MOL0     H94302   0.663   7.646  10.723 -1.1202  2.2180 -3.4542
  699MOL0     H94303   0.518   7.700  10.679  0.2695  1.3525  2.0598
  699MOL0     H94304   0.432   7.441  10.717 -0.5223  1.3927 -0.0787
  699MOL0     H94305   0.610   7.410  10.741 -0.0778 -1.1462  0.7236
  699MOL0     H94306   0.488   7.545  10.505 -1.6598  1.4796  3.7512
  699MOL0     H94307   0.655   7.478  10.529 -0.2122  0.2015  0.4637
  699MOL0     H94308   0.383   7.321  10.480 -0.5192 -3.8985 -3.3439
  699MOL0     H94309   0.527   7.328  10.374 -0.5759  1.5591 -0.4396
  699MOL0     H94310   0.641   7.164  10.542  0.6248  0.4851 -0.4759
  699MOL0     H94311   0.520   7.206  10.656 -1.2619 -0.3976 -0.5134
  699MOL0     H94312   0.518   7.003  10.523 -0.4832 -0.3574 -1.1650
  699MOL0     H94313   0.424   7.107  10.398 -0.4717  1.6529  0.0136
  699MOL0     H94314   0.343   6.993  10.657  0.9477  0.0210 -0.6303
  699MOL0     H94315   0.294   7.146  10.644 -1.2318 -0.9758 -0.6965
  699MOL0     H94316   0.071   7.186  10.481 -1.5999 -0.0982 -3.6902
  699MOL0     H94317  -0.056   7.112  10.211  1.7818 -0.5261  0.1783
  699MOL0     H94318  -0.120   6.938  10.242 -0.7870 -0.2400  0.6670
  699MOL0     H94319  -0.257   7.040  10.430 -2.8630  1.3076 -0.0971
  699MOL0     H94320  -0.174   7.194  10.410 -2.4639  1.9188 -1.6034
  699MOL0     H94321  -0.421   7.126  10.292  0.6106 -1.1785 -0.4059
  699MOL0     H94322  -0.330   7.063  10.174 -2.0295 -0.0549  0.7034
  699MOL0     H94323  -0.182   7.285  10.178 -0.6105 -1.1829  0.1918
  699MOL0     H94324  -0.301   7.361  10.278 -0.9626 -0.1204  0.4096
  699MOL0     H94325  -0.565   7.161   9.946 -1.1671 -3.4100 -2.2275
  699MOL0     H94326  -0.524   7.076   9.720  1.5404  2.7516 -2.0253
  699MOL0     H94327   0.095   6.889   9.561 -0.6723 -0.5325  0.1944
  699MOL0     H94328   0.182   6.723   9.393 -1.2275 -2.5353  0.8298
  699MOL0     H94329  -0.008   6.795   9.080 -1.7161 -1.8271  2.9504
  699MOL0     H94330   0.143   6.695   9.046  1.5612  4.0188  3.9768
  699MOL0     H94331  -0.146   6.599   9.018 -1.1643 -1.6833 -1.7189
  699MOL0     H94332  -0.063   6.663   8.878  0.1446  0.9804  0.7911
  699MOL0     H94333   0.083   6.489   8.875 -1.0499  1.4855 -0.4081
  699MOL0     H94334   0.075   6.445   9.049  0.1023 -0.0864 -0.3916
  699MOL0     H94335  -0.171   6.390   8.986  1.2154  2.6269  1.7612
  699MOL0     H94336  -0.047   6.279   8.919 -1.5301  0.0152 -0.6922
  699MOL0     H94337  -0.190   6.510   8.766  0.7348  0.5338  1.0063
  699MOL0     H94338  -0.226   6.336   8.765  0.3724  0.2323  2.8324
  699MOL0     H94339  -0.091   6.428   8.566  1.1344  2.1734  0.6210
  699MOL0     H94340   0.042   6.451   8.666 -0.8743 -0.9806  0.6464
  699MOL0     H94341  -0.072   6.184   8.700 -1.0773  0.9939 -0.1184
  699MOL0     H94342   0.099   6.242   8.684  0.7762 -0.0330 -0.5000
  699MOL0     H94343  -0.081   6.217   8.448  0.0808  0.4939 -0.2128
  699MOL0     H94344   0.074   6.283   8.442 -3.7401  1.0666 -3.5198
  699MOL0     H94345  -0.215   6.679   9.233  0.7308 -2.7090  0.7230
  699MOL0     H94346  -0.307   6.799   9.416 -0.4474 -0.7434 -3.7297
  699MOL0     H94347  -0.103   7.126   9.785 -0.3037 -1.6664  0.2194
  699MOL0     H94348  -0.134   7.249   9.975 -0.4590 -0.8215  1.9611
  699MOL0     H94349   0.443   7.613  11.159 -0.1695  0.7056 -0.2025
  699MOL0     H94350   0.249   7.513  11.275  1.0121 -1.0939  2.1120
  699MOL0     H94351   0.205   7.493  11.503  1.1338  2.5462 -0.1218
  699MOL0     H94352   0.396   7.540  11.667 -1.1482 -0.7030  0.3268
  699MOL0     H94353   0.791   7.348  11.665 -0.9351  2.6817  0.2194
  699MOL0     H94354   0.694   7.209  11.738  1.7095  0.0609  1.9982
  699MOL0     H94355   0.679   7.358  11.945  0.1269  1.2226 -0.0531
  699MOL0     H94356   0.789   7.461  11.856  1.4767 -0.2831  1.1206
  699MOL0     H94357   0.876   7.311  12.021 -3.7321  1.5438 -1.4375
  699MOL0     H94358   0.967   7.301  11.871 -1.4339  2.0238 -0.7689
  699MOL0     H94359   0.880   7.080  11.812  1.6681 -1.8137 -0.2821
  699MOL0     H94360   0.957   7.078  11.974 -2.9592  0.3326  5.0873
  699MOL0     H94361   0.603   6.968  12.133  1.3934  1.0093  3.3038
  699MOL0     H94362   0.585   7.167  11.537  1.4428  1.2970 -2.0480
  699MOL0     H94363   0.365   6.978  11.462 -0.5392  1.2401  1.8401
  699MOL0     H94364   0.335   7.057  11.317 -0.7008  0.6692  2.0931
  699MOL0     H94365   0.508   7.036  11.382  1.7936 -0.3101  5.8375
  700MOL0     O94366   3.199   1.394  10.952  0.6725  0.0953 -1.0089
  700MOL0     C94367   3.132   1.442  11.049 -0.5859  0.2638  0.8299
  700MOL0     O94368   3.193   1.510  11.148 -0.0876 -0.6565 -0.1070
  700MOL0     C94369   3.335   1.519  11.153  0.5170  0.1899 -0.3429
  700MOL0     C94370   3.385   1.432  11.251 -0.7861  0.1050  0.3294
  700MOL0     C94371   3.531   1.420  11.261 -0.6600 -0.6072  0.1541
  700MOL0     C94372   3.612   1.474  11.162 -0.2557  0.2770 -1.1779
  700MOL0     O94373   3.746   1.444  11.171  0.5893  0.2466  0.5227
  700MOL0     C94374   3.836   1.503  11.078  0.4732  0.5294 -0.2224
  700MOL0     C94375   3.979   1.466  11.121 -0.3935 -0.2703  0.2285
  700MOL0     C94376   4.029   1.541  11.248 -1.3693  0.3380 -0.2538
  700MOL0     C94377   4.183   1.516  11.276  0.2829  0.7944 -0.1765
  700MOL0     C94378   4.222   1.567  11.415  0.3487  0.4946  0.7455
  700MOL0     C94379   4.251   1.712  11.404  0.2209 -0.6543  0.0922
  700MOL0     C94380   4.275   1.776  11.541 -0.1647 -0.3389  0.1862
  700MOL0     C94381   4.319   1.927  11.537 -0.2590  0.3505  0.1002
  700MOL0     N94382   4.213   2.002  11.464 -0.5867  1.3839 -0.1009
  700MOL0     C94383   4.083   2.006  11.494 -0.7552  0.1634  0.4724
  700MOL0     C94384   4.025   2.073  11.389  0.6071 -0.3230  0.2999
  700MOL0     C94385   3.877   2.110  11.389  1.3234 -0.3457  1.2514
  700MOL0     C94386   3.785   2.054  11.276  0.2974  0.8570 -0.5120
  700MOL0     C94387   3.846   1.929  11.210  0.0630 -0.7997 -0.2785
  700MOL0     C94388   3.895   1.964  11.073  0.1635 -0.2259 -0.5577
  700MOL0     O94389   3.922   1.858  10.982 -0.2091  0.7745  0.4349
  700MOL0     C94390   4.053   1.812  10.981 -0.2359 -1.2941  0.3125
  700MOL0     C94391   4.097   1.771  10.856  0.1993 -0.6055 -0.0034
  700MOL0     C94392   4.224   1.726  10.831  0.1703  0.0063  0.3699
  700MOL0     C94393   4.320   1.733  10.932  0.0760  0.1097 -0.1811
  700MOL0     C94394   4.458   1.700  10.903 -0.2657 -0.4487  0.0220
  700MOL0     O94395   4.487   1.657  10.784 -0.5340  0.1595 -0.0231
  700MOL0     C94396   4.620   1.628  10.745  0.4354  0.2631  0.1670
  700MOL0     C94397   4.733   1.716  10.762  0.8421  0.0414 -0.0034
  700MOL0     C94398   4.862   1.673  10.737 -0.1427  0.0326  0.6665
  700MOL0     C94399   4.894   1.538  10.694  0.3872  0.1565 -0.1044
  700MOL0     O94400   5.011   1.484  10.675 -0.3104  0.0367 -0.3288
  700MOL0     C94401   5.123   1.563  10.691 -0.0639 -0.0525 -0.0519
  700MOL0     C94402   5.243   1.473  10.674  1.0487 -0.3724  0.2150
  700MOL0     C94403   5.247   1.369  10.788  0.2703 -0.4184 -0.1174
  700MOL0     C94404   5.310   1.232  10.748  0.1817  0.1279 -0.1914
  700MOL0     C94405   5.319   1.143  10.873 -0.7256  0.6889 -0.0156
  700MOL0     C94406   5.435   1.173  10.968 -0.7440  1.3168 -0.0370
  700MOL0     C94407   5.446   1.041  11.055  0.3498 -0.3119  0.5045
  700MOL0     C94408   5.535   1.069  11.165  0.5207 -0.2021 -0.1251
  700MOL0    Cl94409   5.541   0.927  11.277  0.8275 -0.0192 -0.3159
  700MOL0     C94410   4.779   1.464  10.665  0.5399 -0.4724  0.3070
  700MOL0     C94411   4.647   1.499  10.698 -0.4110 -0.4031 -0.2745
  700MOL0     O94412   4.537   1.727  10.992 -0.0362 -0.1520  0.4732
  700MOL0     C94413   4.277   1.782  11.061  0.5967  0.6736 -0.2360
  700MOL0     C94414   4.149   1.827  11.081  0.1692  0.5731 -1.0440
  700MOL0     N94415   4.127   2.117  11.308  0.8805 -0.2208 -0.9320
  700MOL0     N94416   4.233   2.075  11.349  0.1293 -0.1575 -0.5135
  700MOL0     C94417   3.547   1.546  11.057 -0.0265 -0.8531  0.2275
  700MOL0     C94418   3.405   1.577  11.060  0.1904 -0.0396 -0.1591
  700MOL0     C94419   2.987   1.418  11.073  0.7021  0.3812  0.0446
  700MOL0     C94420   2.932   1.395  11.202  0.3248 -0.6044 -0.4825
  700MOL0     C94421   2.805   1.347  11.212 -0.8818 -0.5765 -0.5189
  700MOL0     C94422   2.727   1.326  11.103 -0.0369 -1.2355  0.3807
  700MOL0     O94423   2.600   1.273  11.130  0.1159 -0.3406  1.0017
  700MOL0     C94424   2.497   1.379  11.114  0.7637 -0.0640 -0.7996
  700MOL0     C94425   2.368   1.318  11.157 -0.1220 -0.2361  0.5670
  700MOL0     C94426   2.362   1.295  11.309  0.0133 -0.2821 -0.3925
  700MOL0     C94427   2.228   1.295  11.372 -0.6763  0.3947  0.1741
  700MOL0     C94428   2.176   1.434  11.366 -0.1762 -0.2815  0.2308
  700MOL0     C94429   2.123   1.546  11.360 -1.3953 -0.0396 -0.1802
  700MOL0     C94430   2.769   1.369  10.977  0.4281 -0.2411 -0.2866
  700MOL0     C94431   2.900   1.412  10.958 -0.0832  0.3840 -0.5387
  700MOL0     C94432   2.940   1.435  10.816  0.2061  0.6549  0.5131
  700MOL0     H94433   3.323   1.370  11.315 -1.3316  1.5353  1.2180
  700MOL0     H94434   3.576   1.355  11.335  0.1158 -0.5053 -0.2234
  700MOL0     H94435   3.811   1.458  10.982 -1.1253 -0.0913  0.4354
  700MOL0     H94436   3.817   1.611  11.078  2.3608  0.9176  1.4087
  700MOL0     H94437   4.053   1.481  11.042  0.8231  0.5741  1.4938
  700MOL0     H94438   3.976   1.364  11.161 -1.2896  0.3020  1.7135
  700MOL0     H94439   3.971   1.505  11.333 -0.1649 -0.3592  0.3009
  700MOL0     H94440   4.015   1.650  11.251  1.8637  0.8299  1.7943
  700MOL0     H94441   4.202   1.410  11.298  4.1269  1.9005  2.9773
  700MOL0     H94442   4.245   1.548  11.192  0.6035 -2.6772 -1.4341
  700MOL0     H94443   4.135   1.549  11.478 -2.9630  0.4489 -3.3499
  700MOL0     H94444   4.310   1.511  11.447  1.8685 -0.1294 -3.7603
  700MOL0     H94445   4.333   1.739  11.337  1.2270 -1.2759  1.0395
  700MOL0     H94446   4.157   1.759  11.373  0.5851  1.2808  1.7019
  700MOL0     H94447   4.347   1.714  11.596 -1.7333  0.1274  2.8948
  700MOL0     H94448   4.185   1.773  11.603  0.7298 -3.3779  1.5133
  700MOL0     H94449   4.341   1.970  11.635  2.5912 -2.8330  1.0369
  700MOL0     H94450   4.413   1.920  11.483 -0.9084 -2.5171 -0.8398
  700MOL0     H94451   4.032   1.970  11.582 -1.2300 -0.7827 -0.1774
  700MOL0     H94452   3.833   2.077  11.483 -1.5831 -3.1826 -0.9041
  700MOL0     H94453   3.867   2.219  11.387 -1.7279 -0.5449 -1.1959
  700MOL0     H94454   3.686   2.025  11.311  0.9402 -2.9079 -1.3030
  700MOL0     H94455   3.773   2.129  11.198 -0.4328  2.3894  1.0161
  700MOL0     H94456   3.767   1.855  11.200 -0.7319  0.2894 -2.6059
  700MOL0     H94457   3.932   1.885  11.261  1.1200 -1.0509 -2.1920
  700MOL0     H94458   3.974   2.040  11.075 -1.6349  1.8326 -2.4728
  700MOL0     H94459   3.809   2.014  11.027 -1.9802 -1.9584  1.3413
  700MOL0     H94460   4.024   1.769  10.775 -0.7564 -2.0400  0.8442
  700MOL0     H94461   4.248   1.685  10.733 -0.8545 -0.2794  0.2353
  700MOL0     H94462   4.723   1.821  10.790  2.1289 -0.3826  2.2525
  700MOL0     H94463   4.936   1.745  10.769  0.0699  1.1745 -2.1070
  700MOL0     H94464   5.120   1.634  10.608  0.5597 -2.1329 -1.9767
  700MOL0     H94465   5.127   1.615  10.787 -1.1864 -1.3511  0.7332
  700MOL0     H94466   5.230   1.425  10.576  1.3849 -0.1994  0.0810
  700MOL0     H94467   5.335   1.533  10.671 -0.2723  1.7416 -2.7303
  700MOL0     H94468   5.280   1.398  10.888 -0.6741  1.0217 -0.1885
  700MOL0     H94469   5.143   1.339  10.807 -1.2113  2.3055 -2.8746
  700MOL0     H94470   5.414   1.235  10.714  0.2905 -2.0947 -0.1611
  700MOL0     H94471   5.240   1.187  10.677 -0.9620 -1.1179  1.6400
  700MOL0     H94472   5.341   1.040  10.845 -1.1115  0.7882 -0.7158
  700MOL0     H94473   5.230   1.144  10.938  0.2243 -0.8494  1.3890
  700MOL0     H94474   5.529   1.189  10.915 -0.2614 -1.2633 -0.0815
  700MOL0     H94475   5.414   1.269  11.016 -0.5144  1.1401  0.4285
  700MOL0     H94476   5.496   0.958  11.003  1.0970  1.2017 -1.2844
  700MOL0     H94477   5.347   1.019  11.096 -0.1992  0.9347 -0.1001
  700MOL0     H94478   5.637   1.087  11.129  0.3765  0.8528 -0.0218
  700MOL0     H94479   5.505   1.154  11.227 -1.6265 -1.2675  0.3940
  700MOL0     H94480   4.790   1.361  10.632  1.6239 -1.1585  2.6290
  700MOL0     H94481   4.566   1.431  10.673 -0.9627  0.1460  0.0112
  700MOL0     H94482   4.351   1.798  11.139 -0.9974 -1.1309  1.7704
  700MOL0     H94483   4.117   1.870  11.175 -1.8647  1.2883 -2.0019
  700MOL0     H94484   3.609   1.559  10.969  0.6387 -4.1109  0.0752
  700MOL0     H94485   3.350   1.634  10.986 -0.8677  0.3791  0.9265
  700MOL0     H94486   2.990   1.412  11.293 -3.2993  1.5546  1.6531
  700MOL0     H94487   2.757   1.329  11.308 -1.4795 -0.5652 -0.8132
  700MOL0     H94488   2.480   1.419  11.014 -2.3105  3.0894  0.7693
  700MOL0     H94489   2.526   1.467  11.172  1.3202 -1.7161  1.5486
  700MOL0     H94490   2.352   1.229  11.094  1.2209  0.4636 -0.8502
  700MOL0     H94491   2.286   1.381  11.124  1.1330  0.5008 -1.3427
  700MOL0     H94492   2.431   1.364  11.358  1.2485 -1.5170 -0.3057
  700MOL0     H94493   2.408   1.196  11.325 -0.2166 -0.4759 -0.8975
  700MOL0     H94494   2.166   1.224  11.317  1.2404 -1.5845  0.4097
  700MOL0     H94495   2.233   1.256  11.474  0.2141 -0.0320 -0.0224
  700MOL0     H94496   2.082   1.644  11.373 -0.0116  0.2611  2.8189
  700MOL0     H94497   2.694   1.356  10.900 -3.4094  1.4310  2.8396
  700MOL0     H94498   3.025   1.372  10.789  2.7278  3.6193  0.9407
  700MOL0     H94499   2.861   1.409  10.744 -1.3858 -0.0605  2.3990
  700MOL0     H94500   2.968   1.539  10.799  2.0647  0.0247 -0.6303
  701MOL0     O94501   3.094   8.690  10.867  0.5739  0.3753 -0.9328
  701MOL0     C94502   3.193   8.684  10.926  0.3268  0.7167 -0.4440
  701MOL0     O94503   3.299   8.604  10.891  0.2650 -1.2788  0.2786
  701MOL0     C94504   3.361   8.625  10.771  0.6034  0.3447  0.7892
  701MOL0     C94505   3.461   8.536  10.741 -0.3145  0.7238  0.3468
  701MOL0     C94506   3.550   8.552  10.630 -0.4447 -0.5643  0.6648
  701MOL0     C94507   3.517   8.654  10.540  0.3059  0.1635  0.2579
  701MOL0     O94508   3.595   8.686  10.432  0.5207 -0.4425 -0.5941
  701MOL0     C94509   3.671   8.575  10.372 -0.8328 -1.4074 -0.1237
  701MOL0     C94510   3.763   8.643  10.276 -0.0330 -0.7749  0.5459
  701MOL0     C94511   3.844   8.542  10.194 -0.6808  0.4433 -0.1988
  701MOL0     C94512   3.900   8.610  10.076 -0.5410 -0.7949  0.1719
  701MOL0     C94513   3.967   8.503   9.986  1.1113 -0.2800 -1.1132
  701MOL0     C94514   4.039   8.554   9.869  0.0367 -0.0686  0.2485
  701MOL0     C94515   3.939   8.594   9.764 -0.3451 -0.6571  0.6911
  701MOL0     C94516   4.007   8.626   9.638  0.3744 -0.8029  0.7062
  701MOL0     N94517   3.949   8.725   9.550  0.4962 -0.0874 -0.0185
  701MOL0     C94518   3.951   8.865   9.564 -0.6411 -1.0714  0.2750
  701MOL0     C94519   3.899   8.911   9.445 -0.0861 -0.3754 -0.3569
  701MOL0     C94520   3.900   9.050   9.395  0.2009 -0.4144  0.6939
  701MOL0     C94521   4.028   9.097   9.349 -0.0041 -0.1092 -0.8371
  701MOL0     C94522   4.036   9.074   9.196 -0.1094 -0.1025  0.6161
  701MOL0     C94523   4.147   9.160   9.128 -0.7025 -0.0318 -0.1809
  701MOL0     O94524   4.289   9.131   9.160  0.4395 -0.2904  0.1570
  701MOL0     C94525   4.351   9.025   9.107  0.2712 -0.0411 -0.5105
  701MOL0     C94526   4.300   8.941   9.019 -0.5241 -0.9177  1.2245
  701MOL0     C94527   4.374   8.837   8.973  0.6728  0.9688  0.9665
  701MOL0     C94528   4.508   8.809   9.011 -0.2827  0.2025  0.3385
  701MOL0     C94529   4.592   8.690   8.969  0.1704  0.2078  0.3953
  701MOL0     O94530   4.699   8.662   9.051 -0.2744  0.3136  0.2056
  701MOL0     C94531   4.760   8.543   9.057  0.3136 -0.4155 -0.8756
  701MOL0     C94532   4.894   8.545   9.092  0.2731 -0.2537  0.3106
  701MOL0     C94533   4.967   8.426   9.125  0.3569 -0.4363  0.5068
  701MOL0     C94534   4.900   8.306   9.109 -0.3730  0.3936  0.4747
  701MOL0     O94535   4.973   8.197   9.129 -0.4107  0.0047  0.4469
  701MOL0     C94536   4.926   8.083   9.190 -0.4224 -0.5204 -0.5625
  701MOL0     C94537   5.041   8.009   9.252  0.0068  0.8710 -0.6485
  701MOL0     C94538   5.127   7.943   9.145 -0.6642  0.3148 -0.1363
  701MOL0     C94539   5.164   8.019   9.007  1.2012 -0.3816  0.1794
  701MOL0     C94540   5.263   7.945   8.921 -0.3817 -0.0751 -0.0159
  701MOL0     C94541   5.421   7.960   8.955  0.6075 -0.3639 -0.5350
  701MOL0     C94542   5.526   7.917   8.849 -0.3876 -0.7576  0.5965
  701MOL0     C94543   5.666   7.944   8.916 -0.1482 -0.4716  0.1595
  701MOL0    Cl94544   5.693   7.822   9.040 -0.2500 -0.0774  0.1042
  701MOL0     C94545   4.762   8.301   9.072  0.2278 -0.1853  0.1891
  701MOL0     C94546   4.696   8.419   9.040 -0.2839 -0.7447 -0.2443
  701MOL0     O94547   4.546   8.619   8.880  0.6340 -0.3057  0.3443
  701MOL0     C94548   4.558   8.896   9.110 -0.0549  0.6005  0.0758
  701MOL0     C94549   4.481   9.000   9.153 -0.1387  0.2213  0.3110
  701MOL0     N94550   3.862   8.803   9.369  0.3044 -0.2781 -0.2336
  701MOL0     N94551   3.895   8.691   9.430 -1.1196 -0.0928 -0.2039
  701MOL0     C94552   3.400   8.733  10.559 -0.4427  0.8351 -0.1196
  701MOL0     C94553   3.330   8.729  10.680 -0.2976 -0.3405  0.3345
  701MOL0     C94554   3.179   8.727  11.073 -0.3543 -0.5807  0.6648
  701MOL0     C94555   3.049   8.709  11.127 -0.5933  0.1514 -0.6743
  701MOL0     C94556   3.037   8.746  11.263 -0.4776 -0.3112  0.1189
  701MOL0     C94557   3.139   8.799  11.331 -0.7149 -0.4429 -1.2950
  701MOL0     O94558   3.134   8.840  11.467 -0.7472 -0.0307  0.4242
  701MOL0     C94559   3.020   8.805  11.548 -0.4288 -0.0980 -0.3689
  701MOL0     C94560   3.035   8.863  11.687  0.1709  0.3935  0.0389
  701MOL0     C94561   2.914   8.960  11.719  0.2610  0.5321  0.6453
  701MOL0     C94562   2.946   9.039  11.845  0.3145  0.7993  0.0020
  701MOL0     C94563   2.953   8.947  11.962 -0.1342  0.5497 -0.1284
  701MOL0     C94564   2.945   8.880  12.063 -0.1817 -0.4665 -0.0431
  701MOL0     C94565   3.270   8.806  11.278  0.4278 -0.7518  0.2887
  701MOL0     C94566   3.282   8.777  11.141 -0.9990 -0.1237 -0.3712
  701MOL0     C94567   3.422   8.792  11.083 -0.0124  0.4487 -0.3334
  701MOL0     H94568   3.490   8.454  10.805  0.9471  1.7164  1.0968
  701MOL0     H94569   3.642   8.493  10.625 -0.2370 -0.1804 -0.3021
  701MOL0     H94570   3.744   8.544  10.448 -1.5804  1.6200  2.0211
  701MOL0     H94571   3.609   8.494  10.333 -0.2998 -1.8843 -0.0115
  701MOL0     H94572   3.832   8.713  10.324 -0.1211 -0.9927  0.9982
  701MOL0     H94573   3.699   8.704  10.212 -1.5652 -0.1046  2.5983
  701MOL0     H94574   3.804   8.446  10.162  1.7857 -0.7898  0.2055
  701MOL0     H94575   3.925   8.519  10.263  1.4051  3.2798 -1.4781
  701MOL0     H94576   3.823   8.664  10.020  1.8772  1.6599 -1.0303
  701MOL0     H94577   3.983   8.675  10.106  1.0777 -0.7251 -3.7905
  701MOL0     H94578   4.034   8.451  10.055  0.8247  1.8898  0.9239
  701MOL0     H94579   3.885   8.440   9.952 -2.4314  1.6621  2.8765
  701MOL0     H94580   4.099   8.638   9.906 -1.2772  0.3943  1.4192
  701MOL0     H94581   4.113   8.482   9.834 -1.1000 -1.9489  1.5879
  701MOL0     H94582   3.900   8.690   9.797 -1.5959 -0.5334 -1.0421
  701MOL0     H94583   3.869   8.512   9.746 -0.0642 -1.2049  1.9922
  701MOL0     H94584   4.112   8.656   9.647  0.1175 -0.0182  1.1760
  701MOL0     H94585   3.999   8.531   9.584  0.0687 -2.3221  3.2963
  701MOL0     H94586   4.007   8.921   9.639  0.0490 -0.5916 -0.5817
  701MOL0     H94587   3.820   9.078   9.326 -0.1177  0.5347  1.4240
  701MOL0     H94588   3.864   9.111   9.479 -1.4960  0.9441 -0.9497
  701MOL0     H94589   4.036   9.205   9.365 -0.1925 -0.2975  0.7409
  701MOL0     H94590   4.110   9.046   9.402 -1.2549 -0.5137  0.7786
  701MOL0     H94591   3.937   9.102   9.157 -0.4590  0.0274  1.5472
  701MOL0     H94592   4.053   8.969   9.170  4.5671  0.5450  0.2854
  701MOL0     H94593   4.132   9.264   9.158  1.6753  0.6415 -1.1435
  701MOL0     H94594   4.131   9.150   9.020 -2.1647  1.3605 -0.1337
  701MOL0     H94595   4.202   8.941   8.972 -0.9758 -2.3997  2.0776
  701MOL0     H94596   4.341   8.781   8.886  0.3851  0.8011  1.1834
  701MOL0     H94597   4.954   8.632   9.114  0.0670  0.1586 -0.7359
  701MOL0     H94598   5.072   8.424   9.154  0.4736 -0.6933  0.0808
  701MOL0     H94599   4.861   8.116   9.272  0.4824  0.7209 -0.3193
  701MOL0     H94600   4.866   8.027   9.118 -0.8108  1.2536 -1.6707
  701MOL0     H94601   5.099   8.077   9.316 -0.6683  0.0470  0.8746
  701MOL0     H94602   5.006   7.926   9.314  0.5430  1.0690 -0.0635
  701MOL0     H94603   5.219   7.910   9.193 -1.7614 -1.0147  1.1694
  701MOL0     H94604   5.090   7.842   9.125  0.0536 -0.5395  2.4989
  701MOL0     H94605   5.203   8.121   9.022 -0.9356  0.6366 -0.7210
  701MOL0     H94606   5.069   8.019   8.954  1.1142  1.8855  0.2047
  701MOL0     H94607   5.246   7.989   8.822 -0.3845  3.2116  1.3261
  701MOL0     H94608   5.244   7.838   8.914 -1.7485  0.0806  0.9633
  701MOL0     H94609   5.443   8.066   8.969 -2.5366  0.2275  0.6637
  701MOL0     H94610   5.446   7.905   9.046 -0.3416  3.6409  2.4317
  701MOL0     H94611   5.522   7.976   8.757  1.1757  5.6066  4.0400
  701MOL0     H94612   5.523   7.809   8.831  0.5810 -0.3464 -2.6447
  701MOL0     H94613   5.743   7.949   8.838 -2.4756  0.2800 -2.2577
  701MOL0     H94614   5.666   8.038   8.972  0.8415  0.3131 -1.1018
  701MOL0     H94615   4.733   8.198   9.057  2.0348 -1.2136  3.0152
  701MOL0     H94616   4.593   8.420   9.007 -0.7823  3.2274  0.9493
  701MOL0     H94617   4.648   8.865   9.161 -0.6019 -1.8472 -0.3035
  701MOL0     H94618   4.527   9.069   9.224  0.6965  0.1849 -0.1820
  701MOL0     H94619   3.369   8.816  10.496  0.2799  0.6961 -0.6696
  701MOL0     H94620   3.260   8.806  10.710 -0.4820 -0.7734  1.0641
  701MOL0     H94621   2.969   8.659  11.073  1.0090 -2.0103 -1.2175
  701MOL0     H94622   2.946   8.738  11.322 -2.6218  3.0748 -2.3284
  701MOL0     H94623   3.023   8.697  11.565  1.3970 -0.5454 -3.0231
  701MOL0     H94624   2.930   8.829  11.490  0.9771 -0.5361 -2.8692
  701MOL0     H94625   3.123   8.929  11.692 -0.6157  1.5281 -0.7002
  701MOL0     H94626   3.040   8.775  11.752  1.6988 -0.7897 -1.5730
  701MOL0     H94627   2.816   8.913  11.721  1.8282 -3.1991 -0.3372
  701MOL0     H94628   2.920   9.031  11.637  0.4393 -0.0122  0.1778
  701MOL0     H94629   3.041   9.090  11.828  0.8693 -0.1097  0.2907
  701MOL0     H94630   2.861   9.104  11.866 -0.4456 -0.3073  0.5037
  701MOL0     H94631   2.935   8.815  12.148 -3.7596 -0.8983 -0.6363
  701MOL0     H94632   3.332   8.840  11.360 -1.0619 -0.2959  1.2770
  701MOL0     H94633   3.491   8.862  11.131 -0.9040  2.2307 -1.5265
  701MOL0     H94634   3.468   8.692  11.079 -2.7676 -0.9629  0.9107
  701MOL0     H94635   3.412   8.826  10.979  0.3357  2.3621  0.2145
  702MOL0     O94636   4.719   7.128   0.184  0.0053  0.0447  0.4687
  702MOL0     C94637   4.799   7.217   0.185 -0.8572 -0.0929  0.5788
  702MOL0     O94638   4.776   7.344   0.224 -0.3339 -0.5590 -0.2949
  702MOL0     C94639   4.659   7.380   0.291 -0.0381 -1.2204  0.1732
  702MOL0     C94640   4.625   7.513   0.297 -0.2113 -1.0730 -0.7122
  702MOL0     C94641   4.496   7.565   0.346 -0.2022 -0.2198 -0.1679
  702MOL0     C94642   4.410   7.471   0.411 -0.8470 -0.5101  0.7311
  702MOL0     O94643   4.299   7.504   0.488  0.4980  1.1488 -0.2242
  702MOL0     C94644   4.230   7.628   0.473  0.4295  1.1148 -0.4669
  702MOL0     C94645   4.120   7.628   0.598 -0.4936  0.4627 -0.3160
  702MOL0     C94646   4.036   7.496   0.598 -0.3237  0.0831 -0.0635
  702MOL0     C94647   3.892   7.518   0.652  1.6209  0.2093  0.6562
  702MOL0     C94648   3.869   7.582   0.785  0.4810  0.2769 -0.8035
  702MOL0     C94649   3.945   7.517   0.895 -0.3528 -0.7950  0.3528
  702MOL0     C94650   3.909   7.378   0.930 -0.6702 -0.1183  0.6768
  702MOL0     C94651   3.977   7.316   1.044 -0.6249 -0.0101  0.7980
  702MOL0     N94652   4.120   7.348   1.056 -0.6792 -0.3002  0.1490
  702MOL0     C94653   4.223   7.276   1.002  0.2233  0.8116 -0.3854
  702MOL0     C94654   4.339   7.347   1.030  1.1057 -0.1413 -0.3655
  702MOL0     C94655   4.472   7.302   0.999 -0.0216 -0.2319 -0.3205
  702MOL0     C94656   4.514   7.344   0.861  0.4307 -0.4778 -0.3658
  702MOL0     C94657   4.525   7.498   0.826  0.4394  0.9297 -1.0788
  702MOL0     C94658   4.603   7.589   0.918 -0.8164 -0.5903  1.0710
  702MOL0     O94659   4.732   7.541   0.945  0.2688  1.6400  0.5552
  702MOL0     C94660   4.818   7.497   0.857 -0.2344  0.1775  0.1969
  702MOL0     C94661   4.878   7.380   0.891 -0.0503  0.2436 -0.9089
  702MOL0     C94662   4.959   7.313   0.804 -0.5049 -0.9881  0.8157
  702MOL0     C94663   4.966   7.351   0.670 -0.1812  1.4900 -0.3089
  702MOL0     C94664   5.044   7.270   0.568 -0.3108  0.0474 -0.1876
  702MOL0     O94665   5.111   7.162   0.605  0.5317 -0.3870 -0.7016
  702MOL0     C94666   5.171   7.065   0.522 -0.7286 -1.1368  0.2081
  702MOL0     C94667   5.178   7.060   0.384 -0.2169 -0.3670  0.5758
  702MOL0     C94668   5.223   6.942   0.325 -0.0589 -0.5294  0.5969
  702MOL0     C94669   5.287   6.845   0.399 -0.0089  0.6281 -0.4715
  702MOL0     O94670   5.336   6.741   0.328  0.0752 -0.7716  0.4601
  702MOL0     C94671   5.449   6.686   0.391  0.2556 -0.2297 -0.7135
  702MOL0     C94672   5.521   6.574   0.313  0.1855  0.6423 -0.0340
  702MOL0     C94673   5.641   6.639   0.236  0.5220  0.5073  0.1341
  702MOL0     C94674   5.726   6.519   0.182 -0.4966 -0.0261 -0.1625
  702MOL0     C94675   5.867   6.568   0.171 -0.0063 -0.1903  0.1421
  702MOL0     C94676   5.971   6.475   0.111  0.0316  0.0670  1.2919
  702MOL0     C94677   6.001   6.343   0.186  0.0731  0.7313 -0.4611
  702MOL0     C94678   6.098   6.259   0.102  0.8249 -0.5596 -0.5951
  702MOL0    Cl94679   6.118   6.120   0.215 -0.4823 -0.1118  0.1782
  702MOL0     C94680   5.295   6.863   0.539  0.2796  0.1771  0.8550
  702MOL0     C94681   5.233   6.967   0.600  1.0905  0.4085  0.5348
  702MOL0     O94682   5.039   7.305   0.455 -0.5588 -0.7472  0.3764
  702MOL0     C94683   4.903   7.470   0.629 -0.2143  0.3988  0.2303
  702MOL0     C94684   4.828   7.546   0.720 -0.4189  0.2169 -0.8936
  702MOL0     N94685   4.307   7.455   1.108  0.7802 -0.2624 -0.1090
  702MOL0     N94686   4.175   7.454   1.126 -0.8928 -0.4323  0.3029
  702MOL0     C94687   4.454   7.340   0.415  0.4556  0.2516  0.8328
  702MOL0     C94688   4.566   7.291   0.353  0.8685  0.7548 -0.7049
  702MOL0     C94689   4.933   7.202   0.121  0.1908  0.2477 -0.8348
  702MOL0     C94690   5.012   7.317   0.107  0.6371  0.4122 -0.2615
  702MOL0     C94691   5.140   7.313   0.056  0.3379  0.3818 -0.4284
  702MOL0     C94692   5.196   7.187   0.018 -0.6811 -0.6802  0.7240
  702MOL0     O94693   5.331   7.178  -0.012  0.0317 -0.2771  0.7621
  702MOL0     C94694   5.424   7.174   0.095 -0.3251 -0.0549  0.5562
  702MOL0     C94695   5.566   7.189   0.033 -1.1289 -0.6413  0.5763
  702MOL0     C94696   5.583   7.337  -0.010 -0.4562 -0.9178 -0.2136
  702MOL0     C94697   5.723   7.374  -0.058  0.5011 -0.2378 -0.5125
  702MOL0     C94698   5.761   7.334  -0.188  0.6402 -1.2984  1.0120
  702MOL0     C94699   5.792   7.327  -0.309  0.3845 -0.7396  0.5059
  702MOL0     C94700   5.112   7.075   0.012  0.7562 -0.5515 -0.2534
  702MOL0     C94701   4.983   7.079   0.070 -0.3031 -0.1753  0.3480
  702MOL0     C94702   4.922   6.933   0.077 -0.4983 -0.1711  0.6401
  702MOL0     H94703   4.697   7.570   0.238 -0.3363 -1.0223 -0.8149
  702MOL0     H94704   4.466   7.668   0.333 -0.8965 -0.0880  2.0630
  702MOL0     H94705   4.291   7.718   0.483  0.9006  0.6549  1.2513
  702MOL0     H94706   4.175   7.622   0.379 -0.5978 -1.7336  0.2175
  702MOL0     H94707   4.050   7.711   0.592 -1.8198 -0.4801  1.3187
  702MOL0     H94708   4.170   7.640   0.694 -3.4605  0.6387  1.3197
  702MOL0     H94709   4.086   7.424   0.664  2.8432  0.7705 -1.5192
  702MOL0     H94710   4.036   7.450   0.499 -0.5842 -1.4595  0.6144
  702MOL0     H94711   3.846   7.590   0.583  2.0485  0.9850  1.1714
  702MOL0     H94712   3.847   7.418   0.657  3.6415 -0.9413 -1.6082
  702MOL0     H94713   3.896   7.688   0.788  0.1463  0.3474 -0.0051
  702MOL0     H94714   3.762   7.575   0.806  0.7425  0.0929  0.5774
  702MOL0     H94715   4.052   7.522   0.869 -0.7188 -1.2256 -1.3440
  702MOL0     H94716   3.939   7.588   0.978 -0.3606  0.5146 -0.7145
  702MOL0     H94717   3.932   7.314   0.845  0.3377  0.1174  0.7529
  702MOL0     H94718   3.802   7.382   0.949 -0.5383  0.6206  1.3437
  702MOL0     H94719   3.930   7.360   1.133  0.5209  1.7674  0.5888
  702MOL0     H94720   3.970   7.208   1.029  0.7391  0.2830 -2.7882
  702MOL0     H94721   4.204   7.191   0.936 -3.8471 -1.9876  3.7415
  702MOL0     H94722   4.537   7.347   1.075  1.5825 -1.4571 -0.8943
  702MOL0     H94723   4.469   7.193   1.006 -0.1427 -0.1743  0.6998
  702MOL0     H94724   4.611   7.300   0.832  0.7487 -1.4767  2.0044
  702MOL0     H94725   4.431   7.310   0.799 -2.0660 -0.3768  2.6680
  702MOL0     H94726   4.421   7.533   0.830 -0.5747 -1.8601 -0.8049
  702MOL0     H94727   4.558   7.505   0.722  2.2701 -1.6544 -0.7796
  702MOL0     H94728   4.550   7.588   1.014  0.8983 -0.5232  2.0538
  702MOL0     H94729   4.616   7.685   0.867 -0.3374 -0.6655  1.0527
  702MOL0     H94730   4.858   7.329   0.985  3.2656 -0.5662 -0.5027
  702MOL0     H94731   5.015   7.225   0.836  0.9932 -0.6185 -0.6541
  702MOL0     H94732   5.141   7.144   0.327  0.0056 -0.3541  0.4505
  702MOL0     H94733   5.240   6.928   0.219  2.8966  1.6308  0.6521
  702MOL0     H94734   5.513   6.765   0.430 -0.2264 -0.4369  0.5376
  702MOL0     H94735   5.393   6.628   0.465 -0.9184 -1.0356 -2.1714
  702MOL0     H94736   5.565   6.496   0.374  0.5031  0.5878 -0.3301
  702MOL0     H94737   5.452   6.524   0.244  1.7166 -1.8247  0.1073
  702MOL0     H94738   5.610   6.693   0.146 -1.0833 -0.7724 -0.1348
  702MOL0     H94739   5.704   6.703   0.298  3.2563  0.5450 -2.4567
  702MOL0     H94740   5.681   6.483   0.089 -0.0548 -0.9573 -0.0212
  702MOL0     H94741   5.729   6.435   0.251  0.7370  0.9360  1.0207
  702MOL0     H94742   5.914   6.599   0.265  1.6389  2.7315 -1.5099
  702MOL0     H94743   5.867   6.657   0.108  1.3949  0.0416  0.4399
  702MOL0     H94744   5.946   6.440   0.011 -0.1246 -0.9233  1.6583
  702MOL0     H94745   6.067   6.527   0.099  1.4571 -2.5141  0.6628
  702MOL0     H94746   5.917   6.277   0.209  3.5741 -4.2258 -0.0034
  702MOL0     H94747   6.046   6.364   0.284 -0.2290 -2.1717  0.4126
  702MOL0     H94748   6.051   6.224   0.010 -0.9743 -0.4547  0.2400
  702MOL0     H94749   6.194   6.309   0.092 -0.6526  2.3610 -1.2016
  702MOL0     H94750   5.349   6.786   0.593 -1.8677 -2.4996 -0.5272
  702MOL0     H94751   5.226   6.968   0.708  0.9101 -0.6620  0.5406
  702MOL0     H94752   4.898   7.505   0.526  2.6635  2.9073  0.8065
  702MOL0     H94753   4.776   7.637   0.690 -1.2556  0.0248 -0.0665
  702MOL0     H94754   4.388   7.272   0.467 -0.8934  2.5818  2.3899
  702MOL0     H94755   4.588   7.186   0.372  2.8107  1.7778  4.0336
  702MOL0     H94756   4.995   7.413   0.153  1.6640  0.2792  0.4173
  702MOL0     H94757   5.203   7.401   0.058 -1.3673  1.7077 -1.8219
  702MOL0     H94758   5.410   7.077   0.143 -1.3711 -0.9155 -1.3953
  702MOL0     H94759   5.399   7.244   0.176  0.1593 -0.6961  1.2693
  702MOL0     H94760   5.598   7.122  -0.047  1.0777  2.5201 -1.4461
  702MOL0     H94761   5.634   7.167   0.116 -2.0832 -1.2127  1.2281
  702MOL0     H94762   5.557   7.400   0.075  0.7864 -1.4942  0.6132
  702MOL0     H94763   5.512   7.361  -0.090  0.7656  0.9806 -0.7960
  702MOL0     H94764   5.718   7.483  -0.072 -2.1798 -0.2916 -0.3604
  702MOL0     H94765   5.795   7.333   0.013 -0.6028 -2.2671 -0.5178
  702MOL0     H94766   5.812   7.314  -0.414 -2.3981  0.1169 -0.2265
  702MOL0     H94767   5.138   6.980  -0.032 -0.6844 -0.8362 -0.5502
  702MOL0     H94768   4.854   6.913  -0.006  1.4911 -2.6257 -0.5453
  702MOL0     H94769   5.006   6.863   0.071  0.1803  0.6127  0.9628
  702MOL0     H94770   4.869   6.909   0.170  0.2817  1.3960  1.5322
  703MOL0     O94771   0.026   6.709   6.738  0.2800 -0.4484  0.4581
  703MOL0     C94772  -0.056   6.691   6.647  0.0527 -0.1247  0.0496
  703MOL0     O94773  -0.022   6.626   6.523 -0.3832 -0.6043 -0.1682
  703MOL0     C94774   0.117   6.595   6.505  0.3837 -1.3045 -0.6993
  703MOL0     C94775   0.169   6.464   6.532  0.6743  0.0993 -0.7995
  703MOL0     C94776   0.315   6.438   6.525  0.8121 -0.8839 -0.2501
  703MOL0     C94777   0.405   6.540   6.504 -0.3192 -0.5523 -0.7316
  703MOL0     O94778   0.535   6.509   6.474  0.4874  0.1173  0.1793
  703MOL0     C94779   0.630   6.543   6.577  0.2641 -0.0737  0.6378
  703MOL0     C94780   0.605   6.469   6.702  0.7070  0.4763 -0.2195
  703MOL0     C94781   0.709   6.485   6.813  0.3354 -0.0362 -0.4097
  703MOL0     C94782   0.751   6.632   6.833 -1.0937  0.7744 -0.2291
  703MOL0     C94783   0.809   6.648   6.981 -0.2344  0.2252 -0.2205
  703MOL0     C94784   0.960   6.615   6.992 -0.7786  0.1453 -0.3928
  703MOL0     C94785   1.010   6.649   7.129  0.5411 -0.5515 -0.2749
  703MOL0     C94786   1.164   6.647   7.148  0.5013  1.4608 -0.3391
  703MOL0     N94787   1.212   6.526   7.222 -0.2240  0.4037 -0.5768
  703MOL0     C94788   1.251   6.408   7.163  0.5523 -0.5958  0.7478
  703MOL0     C94789   1.284   6.327   7.273 -0.5881 -0.4407  0.0075
  703MOL0     C94790   1.373   6.209   7.260  0.1325  0.3095 -0.2728
  703MOL0     C94791   1.281   6.094   7.286 -0.1811 -0.2920  0.1815
  703MOL0     C94792   1.349   5.957   7.298  0.1970 -0.3059  0.7785
  703MOL0     C94793   1.389   5.912   7.438  0.9279 -0.8256  0.7148
  703MOL0     O94794   1.468   6.026   7.484  0.0619  0.5323 -0.1114
  703MOL0     C94795   1.604   6.011   7.485 -0.2841  0.3337 -0.7200
  703MOL0     C94796   1.662   5.998   7.615 -0.1815 -0.0488  0.2321
  703MOL0     C94797   1.801   5.981   7.616  0.9921  0.0913  0.0521
  703MOL0     C94798   1.887   6.002   7.497  0.4776 -0.1995 -0.0463
  703MOL0     C94799   2.031   6.019   7.513 -0.3331  0.5127  0.5510
  703MOL0     O94800   2.080   6.008   7.641 -0.4090 -1.0959  0.0466
  703MOL0     C94801   2.212   6.043   7.667  0.1955  0.2854 -0.1058
  703MOL0     C94802   2.289   5.951   7.751  0.4473 -0.3884 -0.8394
  703MOL0     C94803   2.421   5.970   7.764 -0.0526 -0.2565 -0.3306
  703MOL0     C94804   2.501   6.072   7.712  0.9374  0.1327 -0.3038
  703MOL0     O94805   2.631   6.111   7.758  0.3909 -0.7941  0.0143
  703MOL0     C94806   2.723   6.009   7.791 -1.0568  0.1307 -0.1290
  703MOL0     C94807   2.741   5.914   7.670 -0.6362  0.6415 -0.0617
  703MOL0     C94808   2.837   5.968   7.561 -0.4255 -0.0755 -0.2911
  703MOL0     C94809   2.847   5.858   7.455 -0.4991 -0.7818 -0.0566
  703MOL0     C94810   2.970   5.884   7.359 -0.3084  0.4969 -0.0555
  703MOL0     C94811   3.012   5.748   7.311  0.2236 -0.9866 -1.0006
  703MOL0     C94812   3.129   5.769   7.215  0.1125  0.5445 -0.6860
  703MOL0     C94813   3.168   5.633   7.154 -0.1982 -0.3735 -0.0164
  703MOL0    Cl94814   3.036   5.586   7.046  0.1850  0.2401  0.1023
  703MOL0     C94815   2.427   6.161   7.638  0.5973 -0.9281 -0.2124
  703MOL0     C94816   2.289   6.158   7.610  0.4309  1.3684  0.8036
  703MOL0     O94817   2.092   6.043   7.406  0.2597 -0.4928 -0.5400
  703MOL0     C94818   1.820   6.025   7.379 -0.9863  0.4326  0.5802
  703MOL0     C94819   1.682   6.030   7.363  0.2013  0.3788 -0.2468
  703MOL0     N94820   1.241   6.393   7.384  0.0733 -0.3319 -0.1139
  703MOL0     N94821   1.190   6.508   7.352 -0.2711  0.2829  0.5340
  703MOL0     C94822   0.347   6.667   6.474  0.9424  0.6787  0.3093
  703MOL0     C94823   0.208   6.691   6.471  0.4036 -0.1018 -0.7235
  703MOL0     C94824  -0.196   6.754   6.655 -0.3408  0.4458 -0.4705
  703MOL0     C94825  -0.286   6.744   6.541 -0.4424  0.4004 -0.1614
  703MOL0     C94826  -0.423   6.769   6.560 -0.3967 -0.2937  0.9737
  703MOL0     C94827  -0.479   6.810   6.687 -0.3520 -0.6404  0.1427
  703MOL0     O94828  -0.611   6.826   6.721  0.0725  0.1168  0.1724
  703MOL0     C94829  -0.716   6.823   6.618 -0.3136 -0.3103  0.0862
  703MOL0     C94830  -0.839   6.892   6.668  0.3722 -1.2767 -0.6170
  703MOL0     C94831  -0.799   7.038   6.702  1.0129  0.0558  0.4014
  703MOL0     C94832  -0.921   7.135   6.703 -0.0382 -0.2286  0.4982
  703MOL0     C94833  -0.884   7.278   6.707 -0.0213  0.5645 -0.1073
  703MOL0     C94834  -0.849   7.398   6.705 -0.5777 -0.3289  0.9253
  703MOL0     C94835  -0.388   6.826   6.792  0.6152  0.9031 -0.1627
  703MOL0     C94836  -0.251   6.800   6.783  0.1317 -0.1038  0.7380
  703MOL0     C94837  -0.171   6.822   6.907 -0.2611  0.0337  0.6421
  703MOL0     H94838   0.093   6.389   6.552 -0.3101  1.4179  0.6019
  703MOL0     H94839   0.347   6.341   6.561 -0.3222 -1.2365 -0.1554
  703MOL0     H94840   0.731   6.511   6.550  0.1038 -0.5467  0.5900
  703MOL0     H94841   0.640   6.651   6.589  0.2309 -0.1330  1.2399
  703MOL0     H94842   0.610   6.365   6.667 -1.7014  0.9172 -2.1432
  703MOL0     H94843   0.516   6.505   6.753  2.2474 -0.0322  3.0633
  703MOL0     H94844   0.804   6.441   6.783 -0.3598 -2.4654  0.7010
  703MOL0     H94845   0.680   6.423   6.898 -1.1508  1.0656 -0.0578
  703MOL0     H94846   0.825   6.653   6.755 -1.4159 -3.8860 -2.0964
  703MOL0     H94847   0.662   6.696   6.825 -0.3723  1.6481 -1.5681
  703MOL0     H94848   0.808   6.753   7.012 -0.3057  0.1247  0.1229
  703MOL0     H94849   0.764   6.594   7.064  1.6151  1.1563  1.4771
  703MOL0     H94850   0.983   6.510   6.973 -0.3723  0.4944 -1.8969
  703MOL0     H94851   1.021   6.677   6.926 -1.1877  1.2220  0.2121
  703MOL0     H94852   0.966   6.576   7.199 -1.7767  0.5939 -0.4411
  703MOL0     H94853   0.981   6.751   7.154 -1.1394 -1.5244  2.1486
  703MOL0     H94854   1.208   6.634   7.049 -0.1203 -3.9421 -0.2043
  703MOL0     H94855   1.202   6.738   7.195  0.7523  1.4846 -0.5817
  703MOL0     H94856   1.271   6.391   7.058 -2.4203 -1.5501  0.2437
  703MOL0     H94857   1.413   6.201   7.159  1.9673  1.4101  0.3188
  703MOL0     H94858   1.452   6.213   7.336  0.2644  0.6285 -0.4295
  703MOL0     H94859   1.227   6.120   7.377 -2.1847  2.3884 -1.6502
  703MOL0     H94860   1.205   6.099   7.208  0.2072  0.3513 -0.1586
  703MOL0     H94861   1.426   5.955   7.220 -0.9885  2.5161 -0.6183
  703MOL0     H94862   1.272   5.886   7.267  0.5620 -0.3264 -0.1122
  703MOL0     H94863   1.446   5.819   7.442 -0.9453 -1.9717  3.2212
  703MOL0     H94864   1.305   5.903   7.507  2.0398 -0.8319  2.1172
  703MOL0     H94865   1.615   5.989   7.712 -1.6656 -1.3273 -0.5437
  703MOL0     H94866   1.849   5.957   7.710  1.1128 -0.9076 -0.2530
  703MOL0     H94867   2.241   5.859   7.785  0.4776 -0.5737 -1.2950
  703MOL0     H94868   2.463   5.886   7.819  0.1539 -0.1818 -0.3707
  703MOL0     H94869   2.822   6.055   7.802 -1.2083  0.1893  1.1019
  703MOL0     H94870   2.704   5.954   7.883  2.3667 -0.4892  0.3265
  703MOL0     H94871   2.781   5.819   7.709 -1.1986  0.1027 -0.7714
  703MOL0     H94872   2.647   5.891   7.619  0.0870  0.1218 -1.1975
  703MOL0     H94873   2.807   6.063   7.515  1.1967  0.9715  0.7321
  703MOL0     H94874   2.938   5.984   7.600 -1.7723  1.6039  2.7825
  703MOL0     H94875   2.752   5.841   7.404 -1.6954  0.3658  1.6797
  703MOL0     H94876   2.865   5.766   7.512  0.3543 -0.7356 -0.2395
  703MOL0     H94877   3.054   5.913   7.423 -1.4442 -2.9592  3.4228
  703MOL0     H94878   2.960   5.955   7.277 -2.3473  0.1301 -0.1728
  703MOL0     H94879   3.048   5.677   7.386  1.3987  0.2753 -0.3194
  703MOL0     H94880   2.936   5.693   7.255 -1.6809 -0.0394  0.5481
  703MOL0     H94881   3.218   5.811   7.265  1.1386 -1.0665 -1.0698
  703MOL0     H94882   3.100   5.841   7.138 -1.6477  2.3760  1.5460
  703MOL0     H94883   3.261   5.643   7.097 -0.4840 -0.1431 -0.4397
  703MOL0     H94884   3.193   5.561   7.232 -0.9820 -1.3740 -0.6772
  703MOL0     H94885   2.491   6.233   7.589  0.5607 -0.7937 -0.0652
  703MOL0     H94886   2.237   6.235   7.553 -1.0259 -0.4989 -0.4910
  703MOL0     H94887   1.888   6.028   7.295  4.3178  0.2635  4.3987
  703MOL0     H94888   1.637   6.042   7.265 -0.4881 -2.0055 -0.2802
  703MOL0     H94889   0.412   6.752   6.455  0.5728  0.6246 -1.3436
  703MOL0     H94890   0.178   6.794   6.456  0.4075  0.0944  0.5118
  703MOL0     H94891  -0.245   6.710   6.447 -0.9391 -1.0863  0.1358
  703MOL0     H94892  -0.490   6.744   6.479  0.7732  0.6339 -0.3400
  703MOL0     H94893  -0.740   6.720   6.590  1.5076 -1.0619  1.1030
  703MOL0     H94894  -0.660   6.874   6.539  1.9839 -3.9056 -0.9136
  703MOL0     H94895  -0.873   6.855   6.765  1.3418  1.1994  0.7673
  703MOL0     H94896  -0.921   6.886   6.595 -1.5439 -2.5604  1.5117
  703MOL0     H94897  -0.726   7.065   6.626  1.1652 -0.9808  0.1713
  703MOL0     H94898  -0.757   7.031   6.803  0.2074 -1.2423  0.6750
  703MOL0     H94899  -0.979   7.107   6.615  1.8062  1.7567 -1.4893
  703MOL0     H94900  -0.973   7.118   6.797  1.5659  0.8181  1.6411
  703MOL0     H94901  -0.814   7.497   6.685 -0.2497 -0.6851 -0.4101
  703MOL0     H94902  -0.441   6.841   6.885 -2.3037 -0.4158 -1.4981
  703MOL0     H94903  -0.083   6.878   6.874 -0.7606  1.2616  1.3323
  703MOL0     H94904  -0.216   6.896   6.973 -0.7834  1.2296 -0.9804
  703MOL0     H94905  -0.128   6.733   6.955  3.0279  0.2220 -1.5492
  704MOL0     O94906  10.999  11.226   9.858 -0.2677  0.2732 -0.1036
  704MOL0     C94907  10.964  11.302   9.764 -0.8856 -0.6755  0.7190
  704MOL0     O94908  10.843  11.342   9.732 -0.1708  0.7294 -0.3991
  704MOL0     C94909  10.722  11.285   9.766 -0.0922  0.3851 -0.4032
  704MOL0     C94910  10.700  11.153   9.810  0.2942  0.0661  0.2540
  704MOL0     C94911  10.571  11.111   9.845  0.9457  0.3239 -0.6556
  704MOL0     C94912  10.460  11.200   9.816  0.5142  0.5414  0.7491
  704MOL0     O94913  10.320  11.176   9.828 -0.7166 -0.1617  0.2320
  704MOL0     C94914  10.288  11.081   9.927 -0.2799  0.1792  0.0271
  704MOL0     C94915  10.282  11.149  10.062  0.1017 -0.1313 -1.3594
  704MOL0     C94916  10.295  11.039  10.180 -0.3369  0.7588 -0.3791
  704MOL0     C94917  10.408  11.064  10.272  0.5297  0.0028 -0.0741
  704MOL0     C94918  10.530  10.977  10.239  0.7301 -0.5782 -0.5053
  704MOL0     C94919  10.645  11.022  10.333 -0.1064  0.2563 -0.2487
  704MOL0     C94920  10.775  10.955  10.289  0.5888  0.7632 -0.0016
  704MOL0     C94921  10.884  10.950  10.407  0.2043  0.2969 -0.3793
  704MOL0     N94922  11.020  10.939  10.355  0.1362 -0.0588  0.4890
  704MOL0     C94923  11.065  10.878  10.233 -0.4082 -0.4190  0.4415
  704MOL0     C94924  11.202  10.885  10.238 -0.2588 -0.4358  0.2965
  704MOL0     C94925  11.299  10.827  10.136 -0.1773 -0.2306 -0.0962
  704MOL0     C94926  11.323  10.929  10.018  0.2204 -0.3094  0.1270
  704MOL0     C94927  11.416  11.047  10.058 -0.4498  0.2423  0.0817
  704MOL0     C94928  11.551  11.003  10.105  0.3036  0.3126 -0.0194
  704MOL0     O94929  11.638  11.111  10.131  0.0498 -0.2981 -0.3339
  704MOL0     C94930  11.675  11.185  10.023  0.1602  0.2633 -0.0214
  704MOL0     C94931  11.639  11.317  10.022 -0.0037 -0.8075  0.0734
  704MOL0     C94932  11.696  11.397   9.926  0.8940  0.1625  0.4096
  704MOL0     C94933  11.755  11.346   9.809  0.4953 -0.0970  0.0100
  704MOL0     C94934  11.811  11.430   9.702  0.4818 -0.4477  0.5023
  704MOL0     O94935  11.778  11.565   9.711 -0.1668  0.3562 -0.0241
  704MOL0     C94936  11.816  11.657   9.618 -0.7311  0.6483 -0.6281
  704MOL0     C94937  11.716  11.728   9.553  0.1076  0.8597 -0.4009
  704MOL0     C94938  11.744  11.810   9.443  0.0458  0.4265 -0.5640
  704MOL0     C94939  11.877  11.810   9.404 -0.5910  0.5397  0.3278
  704MOL0     O94940  11.914  11.883   9.290  0.5588 -0.0511  0.1651
  704MOL0     C94941  11.828  11.980   9.230  0.0280  0.1672 -0.5702
  704MOL0     C94942  11.762  11.932   9.096  0.2987  0.8824 -0.0829
  704MOL0     C94943  11.688  12.049   9.013 -0.1600  0.2853  0.3991
  704MOL0     C94944  11.653  12.020   8.865  1.5962 -0.1408  1.4991
  704MOL0     C94945  11.575  12.143   8.788  1.2365  0.0109 -0.5298
  704MOL0     C94946  11.663  12.261   8.754  0.0553 -0.6886 -0.1943
  704MOL0     C94947  11.807  12.223   8.702  0.0866  0.0957  0.2271
  704MOL0     C94948  11.853  12.349   8.626  0.6433 -0.2309 -0.1802
  704MOL0    Cl94949  12.028  12.341   8.582  0.1284 -0.1534  0.3501
  704MOL0     C94950  11.985  11.749   9.474  0.0745  0.2103  0.5986
  704MOL0     C94951  11.950  11.665   9.583  0.1428 -0.2420  0.0557
  704MOL0     O94952  11.883  11.383   9.610  0.5904  0.7294  0.4014
  704MOL0     C94953  11.760  11.208   9.796  0.2616 -0.4443  0.5560
  704MOL0     C94954  11.714  11.129   9.903 -0.7953  0.5345  1.0804
  704MOL0     N94955  11.235  10.949  10.347  1.4272  0.5122  0.0514
  704MOL0     N94956  11.128  10.975  10.426 -0.4057 -0.0718 -0.0713
  704MOL0     C94957  10.489  11.323   9.762 -0.3186 -1.0516  1.0475
  704MOL0     C94958  10.616  11.365   9.734  0.7953 -0.2217  0.5135
  704MOL0     C94959  11.077  11.359   9.682  0.4662  0.4593  0.4776
  704MOL0     C94960  11.046  11.421   9.564  0.7018 -0.2311 -0.1044
  704MOL0     C94961  11.150  11.480   9.483  0.1789  0.1450 -0.3987
  704MOL0     C94962  11.292  11.466   9.517  0.3906 -0.3564  0.1085
  704MOL0     O94963  11.388  11.537   9.444  0.4343  1.0814  0.3580
  704MOL0     C94964  11.495  11.443   9.407  0.0964  0.2107  0.4054
  704MOL0     C94965  11.514  11.460   9.254  0.0330 -0.0288  0.1315
  704MOL0     C94966  11.382  11.481   9.172 -0.0866  0.6070  0.0403
  704MOL0     C94967  11.406  11.457   9.020  0.0539 -0.9188  0.5105
  704MOL0     C94968  11.509  11.546   8.963 -0.3155 -0.1764  0.4371
  704MOL0     C94969  11.596  11.622   8.929 -0.2588  0.3707 -0.2584
  704MOL0     C94970  11.317  11.391   9.636  0.3876  0.2411  0.4095
  704MOL0     C94971  11.217  11.337   9.718  0.5691 -0.4695 -0.4598
  704MOL0     C94972  11.267  11.282   9.845 -0.4637  0.7829 -0.5481
  704MOL0     H94973  10.783  11.085   9.824 -0.1127 -0.8162 -1.3473
  704MOL0     H94974  10.553  11.012   9.884 -2.9191  0.7316 -1.0325
  704MOL0     H94975  10.185  11.052   9.903  0.3657 -1.6504 -0.8101
  704MOL0     H94976  10.350  10.991   9.922 -0.5390  0.0209 -0.4545
  704MOL0     H94977  10.189  11.205  10.076  0.4637  0.1983 -0.1415
  704MOL0     H94978  10.365  11.220  10.072 -1.2783  1.5768 -1.4095
  704MOL0     H94979  10.307  10.943  10.131 -0.3441 -0.2286  1.4690
  704MOL0     H94980  10.203  11.052  10.238  0.1731 -0.2271  0.6995
  704MOL0     H94981  10.432  11.171  10.268 -0.5135  0.2595 -4.2886
  704MOL0     H94982  10.370  11.044  10.373  1.8741 -1.1184  0.2483
  704MOL0     H94983  10.514  10.871  10.259  0.8107 -0.3593  0.7595
  704MOL0     H94984  10.561  10.994  10.135 -0.5820 -0.9668 -0.9791
  704MOL0     H94985  10.663  11.130  10.336 -2.5555  0.9387 -4.0211
  704MOL0     H94986  10.624  10.976  10.430 -1.6968 -2.0416 -1.5968
  704MOL0     H94987  10.800  11.003  10.194  0.7005 -3.7027 -2.4813
  704MOL0     H94988  10.754  10.851  10.263  3.5695  0.1704 -0.3888
  704MOL0     H94989  10.873  11.037  10.472  1.1263  0.5477 -0.5460
  704MOL0     H94990  10.857  10.868  10.474 -0.8622  0.5366 -0.4926
  704MOL0     H94991  11.004  10.838  10.153 -4.2629 -0.2892  3.0719
  704MOL0     H94992  11.385  10.808  10.201  0.6005  0.8432 -0.7735
  704MOL0     H94993  11.262  10.732  10.097  3.0095 -1.8886  0.5828
  704MOL0     H94994  11.379  10.882   9.937 -0.8358 -1.6444  0.1405
  704MOL0     H94995  11.232  10.978   9.982 -0.5376 -1.3536  0.5665
  704MOL0     H94996  11.370  11.107  10.137 -3.9277  1.8298 -2.8597
  704MOL0     H94997  11.429  11.113   9.972 -1.6777  1.4391  0.7688
  704MOL0     H94998  11.584  10.927  10.033 -1.1830 -1.3274  0.9688
  704MOL0     H94999  11.535  10.956  10.202  0.7527 -3.0241 -1.4446
  704MOL0     H95000  11.597  11.360  10.112  0.7271 -0.9988  0.5222
  704MOL0     H95001  11.697  11.505   9.937 -0.3529  0.3012 -0.5672
  704MOL0     H95002  11.614  11.726   9.590  0.5307 -1.4043  0.8322
  704MOL0     H95003  11.663  11.860   9.391  0.5209  1.6462 -0.1443
  704MOL0     H95004  11.749  12.032   9.284 -0.2795  0.5822 -1.3983
  704MOL0     H95005  11.891  12.069   9.221 -0.2806  0.7165  1.8759
  704MOL0     H95006  11.839  11.881   9.037 -2.1029 -1.0146 -1.7756
  704MOL0     H95007  11.685  11.859   9.120 -1.7965  2.7590 -0.7997
  704MOL0     H95008  11.593  12.069   9.062 -0.5231  2.4763 -1.1024
  704MOL0     H95009  11.751  12.138   9.011  1.6294 -0.8269  2.2610
  704MOL0     H95010  11.598  11.925   8.861 -2.1293  1.7818  2.3028
  704MOL0     H95011  11.750  11.996   8.821  0.5268  0.9385 -1.6809
  704MOL0     H95012  11.485  12.174   8.841  1.4895  0.2278 -0.2297
  704MOL0     H95013  11.541  12.093   8.697 -0.7720 -0.1373  0.2699
  704MOL0     H95014  11.618  12.320   8.674  1.8997  0.4447 -0.4545
  704MOL0     H95015  11.672  12.319   8.847 -0.6703  0.9577 -1.1102
  704MOL0     H95016  11.790  12.130   8.647 -2.8830 -1.1526  2.9374
  704MOL0     H95017  11.872  12.210   8.789 -0.5765  0.9484  0.8599
  704MOL0     H95018  11.798  12.366   8.533  0.7264  1.1857  0.0087
  704MOL0     H95019  11.851  12.438   8.688  1.2342  0.2991 -0.9016
  704MOL0     H95020  12.087  11.759   9.440  1.0118  0.1990  3.1676
  704MOL0     H95021  12.017  11.604   9.643  0.9782  0.1622 -0.4517
  704MOL0     H95022  11.801  11.159   9.708 -0.8574  0.1135 -0.3045
  704MOL0     H95023  11.724  11.021   9.897 -1.5985  0.5069 -0.1999
  704MOL0     H95024  10.406  11.390   9.737 -2.0755 -2.2570  3.3431
  704MOL0     H95025  10.640  11.464   9.696  0.1383  0.1370  1.0146
  704MOL0     H95026  10.945  11.413   9.525  0.5453  0.4593  0.1482
  704MOL0     H95027  11.119  11.536   9.395  0.6089 -0.2442 -0.8010
  704MOL0     H95028  11.475  11.336   9.422 -1.1383 -0.3716 -4.0132
  704MOL0     H95029  11.591  11.461   9.457 -0.1422 -1.6534  1.6743
  704MOL0     H95030  11.567  11.374   9.213 -0.2042 -0.4493  0.7039
  704MOL0     H95031  11.573  11.550   9.234  1.0032 -0.3297  1.4469
  704MOL0     H95032  11.336  11.580   9.185  1.3682  1.5599 -1.6090
  704MOL0     H95033  11.318  11.399   9.207  0.9694 -2.4337 -4.2993
  704MOL0     H95034  11.442  11.354   9.014  0.7716 -0.8830  3.1919
  704MOL0     H95035  11.310  11.463   8.968  1.4129 -0.1974 -2.1032
  704MOL0     H95036  11.665  11.701   8.908 -2.3432  1.7558 -2.4322
  704MOL0     H95037  11.420  11.392   9.672  0.2725 -1.3085  0.8455
  704MOL0     H95038  11.226  11.182   9.861 -0.9947  0.2062 -4.5552
  704MOL0     H95039  11.376  11.272   9.851 -0.5451 -1.8450 -2.2676
  704MOL0     H95040  11.229  11.353   9.919 -1.4937  2.4210 -2.5489
  705MOL0     O95041   4.767   4.486   8.575 -0.0900  0.1964 -0.4957
  705MOL0     C95042   4.874   4.445   8.626  1.0333 -1.0876 -0.8991
  705MOL0     O95043   4.894   4.403   8.754 -0.7711  0.0111 -0.4370
  705MOL0     C95044   4.788   4.374   8.835  0.6216 -0.5034  0.1255
  705MOL0     C95045   4.783   4.419   8.964  0.0752 -0.2667  0.5229
  705MOL0     C95046   4.674   4.394   9.052 -0.2403  0.1044 -0.0607
  705MOL0     C95047   4.567   4.316   9.008  1.4288 -0.5262  0.4569
  705MOL0     O95048   4.449   4.288   9.066  0.3124 -0.4718  0.9016
  705MOL0     C95049   4.414   4.356   9.191 -0.2610 -1.3184  0.2723
  705MOL0     C95050   4.300   4.293   9.259  0.3935  0.3209 -0.8471
  705MOL0     C95051   4.253   4.373   9.376 -0.3419 -0.8545 -0.2209
  705MOL0     C95052   4.165   4.496   9.335  0.1244  0.1025 -0.5786
  705MOL0     C95053   4.099   4.544   9.470 -0.1815 -0.5832 -0.1739
  705MOL0     C95054   4.005   4.664   9.448 -0.5752 -0.0893 -0.3832
  705MOL0     C95055   4.090   4.790   9.441  0.2193  0.2347  0.2298
  705MOL0     C95056   4.012   4.917   9.477  0.7761 -0.1286  0.6060
  705MOL0     N95057   4.085   5.037   9.427  0.2543 -0.0825 -0.2749
  705MOL0     C95058   4.188   5.097   9.492  0.0507  0.6516  0.0396
  705MOL0     C95059   4.220   5.204   9.423  0.2617 -0.6378  0.8171
  705MOL0     C95060   4.316   5.316   9.473  0.6047 -0.0894 -0.1568
  705MOL0     C95061   4.430   5.334   9.376  0.7573  0.7217 -0.6276
  705MOL0     C95062   4.509   5.462   9.407 -1.1595 -0.0901 -1.1511
  705MOL0     C95063   4.587   5.458   9.534 -0.1424 -0.2581  0.5738
  705MOL0     O95064   4.654   5.586   9.548 -0.7655  0.3732 -1.0051
  705MOL0     C95065   4.762   5.596   9.633  0.6196 -0.8036  0.4545
  705MOL0     C95066   4.850   5.702   9.616 -0.3149  0.6671  0.1265
  705MOL0     C95067   4.960   5.730   9.698  0.9328  0.1518  0.2096
  705MOL0     C95068   4.996   5.629   9.791  1.0897 -0.5271 -0.8932
  705MOL0     C95069   5.111   5.655   9.877 -0.3780 -0.6020 -1.4032
  705MOL0     O95070   5.215   5.731   9.825 -0.4129  0.5976 -0.2198
  705MOL0     C95071   5.336   5.758   9.882 -0.0808 -0.1515  0.2884
  705MOL0     C95072   5.380   5.726  10.007 -0.0921  0.2503  0.3426
  705MOL0     C95073   5.515   5.751  10.034 -0.5857 -0.1511 -0.2643
  705MOL0     C95074   5.601   5.811   9.938  0.7123  0.3024  0.5183
  705MOL0     O95075   5.732   5.827   9.953  0.1220  0.6211  0.0586
  705MOL0     C95076   5.784   5.764  10.065  0.2144 -0.2493  0.0149
  705MOL0     C95077   5.941   5.782  10.073  0.2537 -0.8456 -0.1523
  705MOL0     C95078   6.005   5.730   9.946  0.2679  0.4585 -0.2158
  705MOL0     C95079   5.960   5.588   9.902  0.2856 -0.0803 -0.3928
  705MOL0     C95080   6.003   5.541   9.760  0.5628  0.5423 -1.0737
  705MOL0     C95081   6.149   5.514   9.748  0.7240  0.3440 -0.1740
  705MOL0     C95082   6.193   5.436   9.615  0.2074  0.2733  1.0189
  705MOL0     C95083   6.140   5.483   9.483 -1.2091 -0.2983 -0.2552
  705MOL0    Cl95084   6.165   5.655   9.452  0.0351 -0.0323 -0.2459
  705MOL0     C95085   5.558   5.849   9.814  0.7091 -0.2899 -0.1151
  705MOL0     C95086   5.422   5.818   9.782  0.3339 -0.2998  0.0386
  705MOL0     O95087   5.123   5.587   9.981  0.9096  1.0273  0.5919
  705MOL0     C95088   4.905   5.520   9.802 -0.0804  0.8213 -0.2359
  705MOL0     C95089   4.787   5.511   9.735 -0.0265  0.7037  0.0051
  705MOL0     N95090   4.151   5.201   9.296 -0.6934  0.0459  0.2193
  705MOL0     N95091   4.068   5.103   9.309  0.1790  0.7406  0.6388
  705MOL0     C95092   4.580   4.260   8.877 -0.1585 -0.1981  0.2541
  705MOL0     C95093   4.683   4.292   8.791 -0.6811 -0.0046  1.1451
  705MOL0     C95094   4.992   4.467   8.548 -0.6973  0.2286 -0.2096
  705MOL0     C95095   5.009   4.590   8.485  0.2703 -0.4196  0.4562
  705MOL0     C95096   5.120   4.616   8.402 -0.4478 -0.3131  0.0232
  705MOL0     C95097   5.222   4.515   8.393  0.0329 -0.0137  0.3827
  705MOL0     O95098   5.338   4.532   8.323 -0.6859  0.5710  0.5273
  705MOL0     C95099   5.401   4.651   8.357 -0.7671 -0.1408 -0.7962
  705MOL0     C95100   5.463   4.658   8.500  0.4623  0.1254  0.1086
  705MOL0     C95101   5.379   4.639   8.625  0.4126 -0.0965 -0.1283
  705MOL0     C95102   5.452   4.687   8.748  0.1013  0.9462 -0.4744
  705MOL0     C95103   5.570   4.593   8.777  0.0103 -0.1403  0.0280
  705MOL0     C95104   5.650   4.503   8.786 -0.3604  0.1778 -1.2324
  705MOL0     C95105   5.202   4.397   8.454  0.5836 -0.1333  1.1282
  705MOL0     C95106   5.089   4.367   8.527  0.1617  0.2106 -0.8515
  705MOL0     C95107   5.080   4.222   8.565 -0.3180 -0.4115  1.0470
  705MOL0     H95108   4.864   4.481   9.004  0.6886  1.2140 -2.6653
  705MOL0     H95109   4.673   4.441   9.149  1.3225  2.0030 -0.8840
  705MOL0     H95110   4.499   4.369   9.259 -0.9887  1.8113  0.7516
  705MOL0     H95111   4.378   4.454   9.159  1.1056 -0.7861  0.2978
  705MOL0     H95112   4.326   4.194   9.299  3.0793  1.4683  0.5007
  705MOL0     H95113   4.225   4.279   9.181 -1.1001 -2.6153  0.9574
  705MOL0     H95114   4.336   4.414   9.434  1.5464 -1.3428 -2.4637
  705MOL0     H95115   4.198   4.304   9.441  0.6764 -2.4224 -0.9755
  705MOL0     H95116   4.226   4.567   9.278 -1.3861  0.4262 -1.8573
  705MOL0     H95117   4.074   4.467   9.281 -1.7654  1.7052  1.5477
  705MOL0     H95118   4.052   4.470   9.535  1.1450 -0.1985  1.3098
  705MOL0     H95119   4.177   4.588   9.534 -0.1621  2.5220 -2.1050
  705MOL0     H95120   3.942   4.652   9.360  2.6501  0.6950 -3.0127
  705MOL0     H95121   3.944   4.669   9.539 -0.0784  1.7281 -0.1066
  705MOL0     H95122   4.130   4.800   9.340  0.0203  3.3829  0.3439
  705MOL0     H95123   4.170   4.790   9.515 -1.2342 -1.2529  1.8942
  705MOL0     H95124   3.918   4.923   9.420 -0.1416  1.5468  2.1843
  705MOL0     H95125   3.984   4.920   9.583  0.0252  0.4762  0.4048
  705MOL0     H95126   4.224   5.070   9.591  0.2804 -0.1662 -0.2585
  705MOL0     H95127   4.250   5.403   9.488 -2.9450 -2.6525  0.4398
  705MOL0     H95128   4.350   5.291   9.574 -1.2333  1.3406  0.9066
  705MOL0     H95129   4.502   5.252   9.389  0.6141  0.8963  1.7038
  705MOL0     H95130   4.394   5.346   9.274  0.8455 -1.2983 -0.9533
  705MOL0     H95131   4.440   5.545   9.425 -4.5841 -3.2589  1.8376
  705MOL0     H95132   4.578   5.478   9.323  0.2177 -0.2937 -0.0951
  705MOL0     H95133   4.661   5.379   9.523 -0.0882  0.0409 -1.5915
  705MOL0     H95134   4.523   5.427   9.618 -0.8667  0.0132  0.1313
  705MOL0     H95135   4.825   5.774   9.538  1.7271 -2.5009 -3.7859
  705MOL0     H95136   5.016   5.822   9.684 -1.8911  1.6247 -2.6540
  705MOL0     H95137   5.327   5.668  10.082 -0.0454 -2.9295 -1.9183
  705MOL0     H95138   5.537   5.710  10.132  0.8023  1.2745  0.0639
  705MOL0     H95139   5.754   5.810  10.160  2.8075  1.0755  0.2861
  705MOL0     H95140   5.745   5.662  10.072 -3.7403  1.2240  3.0765
  705MOL0     H95141   5.969   5.886  10.089  0.7509 -1.0320  0.2176
  705MOL0     H95142   5.985   5.730  10.159  0.6425  0.2907  0.3516
  705MOL0     H95143   5.989   5.804   9.868 -2.5167 -0.1300 -0.2985
  705MOL0     H95144   6.114   5.728   9.950  0.3530 -0.3862 -1.9777
  705MOL0     H95145   5.853   5.599   9.886 -0.6549 -3.5458  2.2969
  705MOL0     H95146   5.978   5.523   9.988  2.4510 -2.4121 -2.4321
  705MOL0     H95147   5.968   5.617   9.688 -0.7256  0.2175 -0.8251
  705MOL0     H95148   5.947   5.448   9.749 -1.2119  1.3880  0.2853
  705MOL0     H95149   6.194   5.613   9.753 -0.4435  0.8939 -0.1669
  705MOL0     H95150   6.192   5.465   9.836 -1.1605  2.1344  1.8690
  705MOL0     H95151   6.160   5.333   9.631 -1.7260  1.0988  2.8235
  705MOL0     H95152   6.302   5.443   9.607  0.2697  1.2895  2.4013
  705MOL0     H95153   6.182   5.429   9.397  0.4548  1.0400 -0.3278
  705MOL0     H95154   6.034   5.457   9.479 -1.1315 -0.6847  0.2044
  705MOL0     H95155   5.622   5.893   9.738 -1.0315 -0.7242 -1.9235
  705MOL0     H95156   5.379   5.852   9.688 -3.6473  0.2922  1.8848
  705MOL0     H95157   4.932   5.442   9.873 -0.2473  1.4634  0.5466
  705MOL0     H95158   4.709   5.443   9.767 -1.9322  1.4345 -2.6762
  705MOL0     H95159   4.504   4.190   8.843  1.8433 -1.4114 -2.0237
  705MOL0     H95160   4.678   4.272   8.685 -1.2653 -1.3319  1.4092
  705MOL0     H95161   4.947   4.678   8.495 -0.0357 -0.2733 -2.1151
  705MOL0     H95162   5.126   4.706   8.342 -2.3784 -0.7127 -0.8384
  705MOL0     H95163   5.343   4.744   8.356  2.2858  2.4685  5.4594
  705MOL0     H95164   5.482   4.667   8.285  1.9632  1.8494  2.3810
  705MOL0     H95165   5.498   4.762   8.497 -2.6048  1.2857 -3.7409
  705MOL0     H95166   5.539   4.580   8.495 -1.2679 -1.5642 -2.6401
  705MOL0     H95167   5.354   4.533   8.637 -2.6952  0.0872 -3.4551
  705MOL0     H95168   5.287   4.694   8.607 -0.1729 -1.3562 -1.1219
  705MOL0     H95169   5.490   4.789   8.734  1.0230  0.9268  1.4841
  705MOL0     H95170   5.393   4.687   8.840  1.0626 -3.0291  0.3143
  705MOL0     H95171   5.726   4.428   8.779 -1.4565 -1.1214  0.0218
  705MOL0     H95172   5.285   4.328   8.447  0.7710  0.2906 -2.4262
  705MOL0     H95173   4.975   4.193   8.576  0.0984 -0.9746  4.6766
  705MOL0     H95174   5.120   4.151   8.492 -1.7337 -5.5059  4.6378
  705MOL0     H95175   5.131   4.222   8.662  4.6805  2.7460 -1.1972
  706MOL0     O95176   2.858   0.537   4.106 -0.6052  1.0348 -0.5850
  706MOL0     C95177   2.958   0.610   4.088  0.6376  0.2830  0.8176
  706MOL0     O95178   2.980   0.684   3.984 -0.2783 -0.1233  0.5968
  706MOL0     C95179   2.889   0.683   3.884 -0.5845 -0.4826 -0.8554
  706MOL0     C95180   2.758   0.697   3.902  0.7230 -0.0657  0.2072
  706MOL0     C95181   2.669   0.710   3.786 -0.8567 -0.1570  0.5040
  706MOL0     C95182   2.717   0.687   3.651 -0.3786 -0.1561 -0.4705
  706MOL0     O95183   2.627   0.697   3.546  0.6654 -0.6856  0.2317
  706MOL0     C95184   2.666   0.750   3.419  0.8435 -0.0602 -0.0085
  706MOL0     C95185   2.536   0.756   3.337  0.5328  0.0802  0.2947
  706MOL0     C95186   2.425   0.840   3.394 -1.2181  0.7134 -0.5365
  706MOL0     C95187   2.458   0.983   3.426 -0.7809 -0.8434  0.2907
  706MOL0     C95188   2.328   1.071   3.424 -0.1139 -0.7486  0.1985
  706MOL0     C95189   2.361   1.214   3.447  0.3625  0.0362  0.4938
  706MOL0     C95190   2.258   1.301   3.501 -0.1913 -0.2773  0.1908
  706MOL0     C95191   2.154   1.308   3.400  0.3419 -0.6404  0.3979
  706MOL0     N95192   2.045   1.389   3.459  0.4885 -0.2796 -1.1114
  706MOL0     C95193   1.967   1.355   3.570 -0.2397  0.6911  0.1205
  706MOL0     C95194   1.859   1.444   3.575 -0.2003 -0.3910 -0.6689
  706MOL0     C95195   1.764   1.440   3.684  0.5293  0.3344  0.4575
  706MOL0     C95196   1.828   1.449   3.824 -0.3294  0.3137 -0.4755
  706MOL0     C95197   1.918   1.580   3.840 -0.2199  0.4831 -0.3494
  706MOL0     C95198   1.846   1.706   3.807  0.4009  0.3252  0.8235
  706MOL0     O95199   1.922   1.807   3.875 -0.3676  0.9631 -0.0049
  706MOL0     C95200   2.046   1.850   3.826  0.1636  0.3820  0.6451
  706MOL0     C95201   2.095   1.841   3.689 -1.0617 -0.3645 -0.3757
  706MOL0     C95202   2.223   1.898   3.659  0.4407  0.3580  0.4768
  706MOL0     C95203   2.305   1.960   3.758  0.2681 -0.5216  0.8134
  706MOL0     C95204   2.435   2.022   3.728 -0.2102 -0.3772  0.7904
  706MOL0     O95205   2.521   2.044   3.827  0.6499 -0.3028  0.2552
  706MOL0     C95206   2.645   2.089   3.787 -1.0173 -0.0812  0.1764
  706MOL0     C95207   2.682   2.221   3.806 -0.8314  0.1912 -0.6701
  706MOL0     C95208   2.803   2.272   3.751  0.1259 -0.1496  0.5405
  706MOL0     C95209   2.887   2.186   3.668  0.1021  0.0578  0.4588
  706MOL0     O95210   3.003   2.237   3.609  0.5129 -0.8611 -0.3016
  706MOL0     C95211   3.062   2.167   3.503  0.5696 -0.5445  0.9756
  706MOL0     C95212   3.175   2.255   3.453  0.6079  0.9004  0.1487
  706MOL0     C95213   3.242   2.208   3.317 -0.3063  0.8830  0.6910
  706MOL0     C95214   3.358   2.292   3.273 -1.1260 -0.2311  0.5581
  706MOL0     C95215   3.393   2.267   3.121  0.0190 -0.1090 -1.0717
  706MOL0     C95216   3.432   2.117   3.105  0.0439 -0.0101 -0.0075
  706MOL0     C95217   3.544   2.059   3.192  0.0137  0.5608 -0.1693
  706MOL0     C95218   3.607   1.926   3.155  0.2161  0.3041  0.2807
  706MOL0    Cl95219   3.662   1.944   2.989 -0.5903  0.0743  0.3644
  706MOL0     C95220   2.839   2.046   3.656  0.5312 -0.3751  0.8560
  706MOL0     C95221   2.724   2.000   3.708  0.3297  0.1343 -0.8812
  706MOL0     O95222   2.444   2.067   3.611 -0.1445  0.6331 -0.0177
  706MOL0     C95223   2.252   1.973   3.886 -0.3491  0.2785  0.1509
  706MOL0     C95224   2.125   1.924   3.916  0.0717  0.1504 -0.3064
  706MOL0     N95225   1.879   1.532   3.472  0.1076 -0.3508  0.2114
  706MOL0     N95226   1.979   1.486   3.392  0.8513  0.4532 -0.6131
  706MOL0     C95227   2.858   0.681   3.645 -1.2818 -0.5601  0.7895
  706MOL0     C95228   2.940   0.683   3.754 -0.2770  0.0390  0.5527
  706MOL0     C95229   3.047   0.629   4.204  0.0901  0.8021  0.6167
  706MOL0     C95230   3.159   0.536   4.206  0.3887 -0.0461  0.1722
  706MOL0     C95231   3.260   0.527   4.304  0.1007 -0.1937  0.3559
  706MOL0     C95232   3.243   0.608   4.423  0.2595  0.2821  0.4920
  706MOL0     O95233   3.343   0.617   4.512 -0.3997  0.0031  0.0713
  706MOL0     C95234   3.320   0.670   4.640  0.4516 -0.2204  0.2413
  706MOL0     C95235   3.434   0.605   4.718 -0.7427 -0.1069  0.5901
  706MOL0     C95236   3.404   0.622   4.866 -0.1910 -0.2592 -0.0266
  706MOL0     C95237   3.499   0.556   4.966  0.3789  0.3569 -1.0102
  706MOL0     C95238   3.492   0.403   4.958 -1.0523 -0.3971 -0.8029
  706MOL0     C95239   3.498   0.286   4.950 -0.7088  0.3592 -0.3292
  706MOL0     C95240   3.131   0.701   4.422  0.3591 -0.6627  1.1999
  706MOL0     C95241   3.041   0.721   4.315 -0.1193  0.0412  1.0453
  706MOL0     C95242   2.945   0.837   4.318  0.4742 -0.5754  0.4296
  706MOL0     H95243   2.715   0.709   4.001  0.7113 -2.2995  0.5278
  706MOL0     H95244   2.562   0.725   3.801 -0.8096  0.5845  0.1466
  706MOL0     H95245   2.716   0.847   3.421  2.7676 -1.0099  2.2211
  706MOL0     H95246   2.734   0.684   3.365  0.5884 -0.6195  0.3524
  706MOL0     H95247   2.501   0.654   3.320 -0.4882 -0.2117  3.4062
  706MOL0     H95248   2.572   0.790   3.240 -0.5848 -0.9428 -0.5095
  706MOL0     H95249   2.377   0.779   3.471  0.8483  0.6130  0.7536
  706MOL0     H95250   2.356   0.838   3.309 -3.1693 -2.0149  0.9560
  706MOL0     H95251   2.502   0.995   3.525 -0.9831  3.3073  0.0350
  706MOL0     H95252   2.530   1.020   3.352 -2.0496  0.5357 -0.2892
  706MOL0     H95253   2.266   1.056   3.335 -2.2565 -1.2365  1.6832
  706MOL0     H95254   2.260   1.044   3.506 -0.0343 -1.1971  0.1187
  706MOL0     H95255   2.443   1.210   3.519  0.4338 -1.3820  0.3664
  706MOL0     H95256   2.402   1.258   3.356 -2.8365  2.1900 -0.0518
  706MOL0     H95257   2.292   1.400   3.532 -0.5386  0.0342 -0.4155
  706MOL0     H95258   2.225   1.260   3.597 -0.0044  0.8269  0.7456
  706MOL0     H95259   2.186   1.353   3.305 -1.5757 -3.2005 -1.6375
  706MOL0     H95260   2.106   1.211   3.383 -1.9896  0.6138 -0.6116
  706MOL0     H95261   1.989   1.270   3.634 -0.4101 -0.5112 -1.3528
  706MOL0     H95262   1.693   1.521   3.668  2.0615  1.8295  0.9437
  706MOL0     H95263   1.716   1.343   3.669 -3.5936  2.2516 -0.0491
  706MOL0     H95264   1.745   1.453   3.896 -1.7389  0.2278 -2.0449
  706MOL0     H95265   1.877   1.355   3.849  1.3045  0.7883 -1.7676
  706MOL0     H95266   2.006   1.571   3.776 -0.5234  0.5069 -0.7722
  706MOL0     H95267   1.957   1.583   3.942  1.5810 -0.5385 -0.9593
  706MOL0     H95268   1.744   1.716   3.845  0.0743  1.0175 -0.1704
  706MOL0     H95269   1.826   1.714   3.699 -0.1099  1.8927  1.0095
  706MOL0     H95270   2.028   1.793   3.619 -1.8914 -1.4607  1.1132
  706MOL0     H95271   2.259   1.882   3.558  1.6218  2.3952  0.5275
  706MOL0     H95272   2.617   2.287   3.862  1.0251  0.7959  0.8990
  706MOL0     H95273   2.839   2.374   3.759  0.4985 -0.3254  1.0904
  706MOL0     H95274   3.108   2.071   3.530  1.6776 -0.8381 -1.6005
  706MOL0     H95275   2.984   2.134   3.434  0.4409 -0.0316  0.8743
  706MOL0     H95276   3.128   2.354   3.446  0.7027  0.8677 -1.0882
  706MOL0     H95277   3.243   2.252   3.539  0.9023  1.7874 -0.0344
  706MOL0     H95278   3.280   2.111   3.351 -2.4030  0.3725  1.7694
  706MOL0     H95279   3.172   2.199   3.232 -0.9133  0.2708  1.2410
  706MOL0     H95280   3.443   2.282   3.341 -0.2473 -0.2014 -0.4967
  706MOL0     H95281   3.329   2.395   3.293  0.3198  0.1967  0.6176
  706MOL0     H95282   3.473   2.335   3.091  1.9038 -0.0500  3.3214
  706MOL0     H95283   3.310   2.297   3.057  1.5440  2.0094 -2.1581
  706MOL0     H95284   3.339   2.065   3.128 -0.2133  0.4363 -0.0226
  706MOL0     H95285   3.453   2.104   2.999 -2.0393  1.1399 -0.6346
  706MOL0     H95286   3.500   2.053   3.292 -2.4816  0.0524 -1.2136
  706MOL0     H95287   3.631   2.126   3.193 -0.8960  1.8054  1.7300
  706MOL0     H95288   3.699   1.900   3.208  1.4179 -1.7229 -2.5491
  706MOL0     H95289   3.536   1.844   3.164  0.6615 -0.2207 -0.7760
  706MOL0     H95290   2.895   1.967   3.606  0.3126 -0.4911  0.7952
  706MOL0     H95291   2.697   1.897   3.688 -0.0023 -0.4420  2.0814
  706MOL0     H95292   2.313   2.018   3.963  3.1557 -2.1745 -0.9367
  706MOL0     H95293   2.087   1.943   4.016  1.7949 -1.0069  0.6308
  706MOL0     H95294   2.914   0.673   3.553 -1.0862 -0.3501  0.8899
  706MOL0     H95295   3.046   0.671   3.735 -0.1378 -1.1339  1.9112
  706MOL0     H95296   3.166   0.464   4.125 -1.4941  2.2854 -2.2392
  706MOL0     H95297   3.325   0.439   4.300  1.0350  0.4752  0.5423
  706MOL0     H95298   3.226   0.640   4.688  0.0301  2.5052  1.2816
  706MOL0     H95299   3.326   0.779   4.643  1.4806 -0.2526 -0.0760
  706MOL0     H95300   3.522   0.651   4.673 -2.0989  2.2436  0.1639
  706MOL0     H95301   3.436   0.500   4.689 -1.2675 -0.1316  0.6262
  706MOL0     H95302   3.306   0.578   4.886 -0.0435 -0.1139  1.0889
  706MOL0     H95303   3.401   0.724   4.905  1.5400 -1.1637  2.7457
  706MOL0     H95304   3.602   0.590   4.963  0.4816  0.7615  2.7965
  706MOL0     H95305   3.475   0.582   5.069  1.0255  1.8603 -1.2080
  706MOL0     H95306   3.499   0.179   4.947  1.6645  0.3545 -2.5207
  706MOL0     H95307   3.119   0.782   4.492  0.6641  2.4368 -2.0371
  706MOL0     H95308   2.869   0.821   4.395 -2.3558  5.2305 -0.6395
  706MOL0     H95309   2.995   0.927   4.353  1.1705 -0.4809 -0.7955
  706MOL0     H95310   2.891   0.868   4.228  0.7838  0.1320  0.4861
  707MOL0     O95311   0.487   1.150   4.343 -0.3895 -0.3067  1.3769
  707MOL0     C95312   0.537   1.260   4.364 -0.0942 -0.2332 -0.9805
  707MOL0     O95313   0.667   1.296   4.382 -0.4698 -0.4726  0.2098
  707MOL0     C95314   0.767   1.202   4.360 -0.4194  0.1332 -0.7120
  707MOL0     C95315   0.763   1.062   4.383 -0.1692  0.0972  0.7752
  707MOL0     C95316   0.858   0.975   4.343 -0.5359 -0.3971 -0.5008
  707MOL0     C95317   0.967   1.030   4.264 -0.0762  0.7224  0.0170
  707MOL0     O95318   1.070   0.946   4.222 -0.4112 -0.4227  0.6190
  707MOL0     C95319   1.038   0.825   4.147  0.8596 -1.3690  0.6223
  707MOL0     C95320   1.165   0.746   4.108  0.3442 -0.7133 -0.0951
  707MOL0     C95321   1.255   0.704   4.224  0.1958  0.3162  0.2818
  707MOL0     C95322   1.391   0.642   4.178  0.4067 -0.0938 -0.8689
  707MOL0     C95323   1.452   0.553   4.288 -0.1049 -0.4824 -0.3897
  707MOL0     C95324   1.558   0.449   4.242  0.3230 -0.6356 -0.5391
  707MOL0     C95325   1.596   0.365   4.365 -0.1480  0.3402 -0.0597
  707MOL0     C95326   1.671   0.227   4.331 -0.4055 -1.1928  0.6971
  707MOL0     N95327   1.720   0.146   4.437  0.8377  0.1036  1.0341
  707MOL0     C95328   1.638   0.089   4.531 -0.1430 -0.1180 -1.6476
  707MOL0     C95329   1.723   0.053   4.632  0.1193 -0.4640 -0.3878
  707MOL0     C95330   1.690  -0.014   4.765 -0.1147 -0.6917 -0.1559
  707MOL0     C95331   1.763   0.059   4.884  0.5447  0.2548  0.7782
  707MOL0     C95332   1.743  -0.016   5.015  0.3754  0.1717  0.1359
  707MOL0     C95333   1.857   0.016   5.115  0.0051 -0.1072  0.6604
  707MOL0     O95334   1.847   0.151   5.166 -0.2541  0.3726  0.4891
  707MOL0     C95335   1.758   0.173   5.264  1.3844 -0.7921  0.4241
  707MOL0     C95336   1.671   0.083   5.328  0.2129 -0.7890 -0.1064
  707MOL0     C95337   1.583   0.124   5.428 -0.5396  0.4475  0.1463
  707MOL0     C95338   1.577   0.261   5.473 -1.8596 -1.1185  0.4169
  707MOL0     C95339   1.489   0.301   5.578  0.1387  1.1593 -0.2953
  707MOL0     O95340   1.458   0.432   5.579 -0.2510 -0.0220  0.2525
  707MOL0     C95341   1.366   0.466   5.672  0.1754  0.9196  0.5203
  707MOL0     C95342   1.396   0.480   5.812  0.8763  0.0549  0.7779
  707MOL0     C95343   1.289   0.513   5.900  0.6201  0.8401  0.6812
  707MOL0     C95344   1.163   0.539   5.855  0.5061  0.3283  0.3549
  707MOL0     O95345   1.051   0.561   5.931 -0.5124  0.2442 -0.3617
  707MOL0     C95346   1.063   0.619   6.069 -0.1530 -0.3299  0.3384
  707MOL0     C95347   0.935   0.674   6.124  0.0731 -0.3653  0.1131
  707MOL0     C95348   0.872   0.770   6.022  0.2697  0.4441  1.0226
  707MOL0     C95349   0.741   0.840   6.070 -0.3025  1.5996 -0.6502
  707MOL0     C95350   0.665   0.921   5.960 -0.3255 -0.3530 -0.4241
  707MOL0     C95351   0.644   0.850   5.831  0.5592 -0.3948  0.4037
  707MOL0     C95352   0.534   0.737   5.835 -0.6316 -0.5096  0.5929
  707MOL0     C95353   0.478   0.696   5.702  0.7265  0.0330 -0.8060
  707MOL0    Cl95354   0.370   0.801   5.607 -0.3717  0.2768 -0.2888
  707MOL0     C95355   1.134   0.506   5.721 -1.0134 -0.4260 -0.3910
  707MOL0     C95356   1.233   0.471   5.627 -1.0053  0.9147  0.1159
  707MOL0     O95357   1.444   0.209   5.657 -0.0614 -0.5374 -0.4268
  707MOL0     C95358   1.671   0.345   5.413  0.1546 -1.5106  0.4501
  707MOL0     C95359   1.750   0.303   5.312 -0.0929  0.2483 -0.0758
  707MOL0     N95360   1.848   0.073   4.589 -0.2660  0.4069 -1.3674
  707MOL0     N95361   1.851   0.132   4.470 -0.2409  1.1140  0.2924
  707MOL0     C95362   0.977   1.168   4.239  0.4609  0.9497  0.2348
  707MOL0     C95363   0.880   1.250   4.292 -1.1011 -0.4638  0.7511
  707MOL0     C95364   0.445   1.372   4.398 -0.0473 -0.9339 -0.6626
  707MOL0     C95365   0.469   1.468   4.492 -0.3117  0.2293  0.2403
  707MOL0     C95366   0.374   1.574   4.517 -0.9516 -0.5628  0.3620
  707MOL0     C95367   0.256   1.586   4.447  0.8723  0.6954 -0.4247
  707MOL0     O95368   0.175   1.686   4.484 -0.3514 -0.7536  0.1897
  707MOL0     C95369   0.070   1.721   4.394  0.6314  0.2803  0.2926
  707MOL0     C95370  -0.063   1.714   4.464  0.1696 -0.0797  0.0055
  707MOL0     C95371  -0.107   1.571   4.486 -0.6240 -0.2471  0.5372
  707MOL0     C95372  -0.261   1.579   4.512 -0.2099  0.6247  0.4538
  707MOL0     C95373  -0.315   1.458   4.582 -0.7104  0.5555 -0.0500
  707MOL0     C95374  -0.375   1.367   4.645 -0.0295  0.4962  0.5934
  707MOL0     C95375   0.226   1.482   4.357 -1.1908  0.0325  0.6413
  707MOL0     C95376   0.319   1.384   4.328 -0.7396 -0.5611 -0.1617
  707MOL0     C95377   0.271   1.291   4.223  0.8883  0.1952  0.7679
  707MOL0     H95378   0.681   1.024   4.443  1.5022  0.9785  3.8530
  707MOL0     H95379   0.858   0.869   4.363 -4.9704 -0.5729 -0.5457
  707MOL0     H95380   0.964   0.769   4.204  1.7523  1.2513  4.8780
  707MOL0     H95381   1.000   0.860   4.050  1.5456 -0.8741  0.5226
  707MOL0     H95382   1.232   0.811   4.051 -0.7818  2.0194  1.4703
  707MOL0     H95383   1.130   0.654   4.060 -0.6090  0.0075 -0.8009
  707MOL0     H95384   1.196   0.641   4.291 -0.2301  1.0543  0.6044
  707MOL0     H95385   1.279   0.789   4.289  0.0600  0.0884  0.6358
  707MOL0     H95386   1.358   0.583   4.092 -0.7768  1.2651 -1.3866
  707MOL0     H95387   1.469   0.712   4.145  0.5659  1.8554  3.0136
  707MOL0     H95388   1.499   0.616   4.363  0.2021 -1.2610  0.0872
  707MOL0     H95389   1.369   0.497   4.332 -0.0077 -0.2104  0.1394
  707MOL0     H95390   1.522   0.392   4.156 -0.0120 -1.3928  0.0865
  707MOL0     H95391   1.650   0.503   4.219  0.3691 -1.0102 -1.2564
  707MOL0     H95392   1.497   0.336   4.402  0.5935 -0.0849  1.7315
  707MOL0     H95393   1.643   0.424   4.444 -0.2088 -0.5816  0.6902
  707MOL0     H95394   1.597   0.164   4.281  0.2709  0.2161 -2.2375
  707MOL0     H95395   1.754   0.245   4.262 -0.7503  0.1961  0.6176
  707MOL0     H95396   1.530   0.084   4.528 -0.2097  0.6353 -0.9355
  707MOL0     H95397   1.585  -0.027   4.792  0.0407  0.1718  0.9217
  707MOL0     H95398   1.751  -0.105   4.760  1.9905  0.5967  0.5097
  707MOL0     H95399   1.868   0.078   4.859  0.2239  2.7732  1.0538
  707MOL0     H95400   1.710   0.154   4.899 -2.9677 -1.4834  0.2677
  707MOL0     H95401   1.749  -0.124   4.995 -3.6974 -0.2447  0.3260
  707MOL0     H95402   1.643  -0.004   5.059  1.4759  0.1564  2.8702
  707MOL0     H95403   1.958   0.002   5.075  0.8500 -0.8983  2.9081
  707MOL0     H95404   1.846  -0.056   5.197 -0.5875  0.0609  0.7361
  707MOL0     H95405   1.665  -0.021   5.298 -4.0884 -1.3334  1.9304
  707MOL0     H95406   1.517   0.054   5.478 -0.2404  2.3451  3.5294
  707MOL0     H95407   1.497   0.463   5.850  0.7006 -0.9940  0.8134
  707MOL0     H95408   1.321   0.514   6.004  2.1786 -3.7961  0.4834
  707MOL0     H95409   1.089   0.545   6.144 -1.9051  0.8026  2.1771
  707MOL0     H95410   1.126   0.709   6.069 -2.9507  1.9033 -2.8413
  707MOL0     H95411   0.876   0.584   6.142 -0.8514  0.0944 -0.5267
  707MOL0     H95412   0.953   0.720   6.222 -3.7040  1.3670  0.1968
  707MOL0     H95413   0.937   0.848   5.982 -4.0375  3.0817 -1.6549
  707MOL0     H95414   0.840   0.709   5.937  0.6807  0.5928  0.7611
  707MOL0     H95415   0.762   0.912   6.150  1.6815  1.7210 -1.2203
  707MOL0     H95416   0.668   0.767   6.107 -2.0441  1.5513 -3.8958
  707MOL0     H95417   0.725   1.011   5.946 -1.9878  0.7052 -1.0751
  707MOL0     H95418   0.563   0.937   5.995 -0.3526 -0.4743 -0.4480
  707MOL0     H95419   0.592   0.916   5.761 -2.9003 -3.8653 -0.6443
  707MOL0     H95420   0.737   0.811   5.789 -0.0316 -0.2532 -1.0752
  707MOL0     H95421   0.445   0.763   5.894 -1.1625  0.7708 -0.7077
  707MOL0     H95422   0.580   0.647   5.876 -0.7809 -1.5824 -1.4784
  707MOL0     H95423   0.569   0.689   5.643 -0.5841  2.1664 -3.2788
  707MOL0     H95424   0.426   0.600   5.711 -1.6922  1.4210  1.4910
  707MOL0     H95425   1.035   0.527   5.681 -0.9100 -1.5725 -1.3056
  707MOL0     H95426   1.225   0.458   5.519  2.4717  1.6963 -0.3574
  707MOL0     H95427   1.676   0.449   5.442 -0.6988 -0.4426 -2.8192
  707MOL0     H95428   1.821   0.378   5.277 -0.0078 -0.1663 -0.8088
  707MOL0     H95429   1.067   1.209   4.193  0.5913  1.5652  1.0040
  707MOL0     H95430   0.895   1.356   4.274 -0.4509 -0.7024 -0.1605
  707MOL0     H95431   0.563   1.476   4.545  0.8895  0.4686 -1.7991
  707MOL0     H95432   0.402   1.639   4.599  0.6800 -1.8910  0.9413
  707MOL0     H95433   0.061   1.666   4.300  1.1877  0.7228 -0.0279
  707MOL0     H95434   0.087   1.823   4.358 -3.1698  0.6538 -0.8426
  707MOL0     H95435  -0.128   1.760   4.390  4.8508 -0.8832 -5.2511
  707MOL0     H95436  -0.059   1.776   4.554 -2.0412  1.6643 -1.0055
  707MOL0     H95437  -0.053   1.518   4.565 -3.1304 -4.5902 -0.3055
  707MOL0     H95438  -0.091   1.511   4.396  3.0116 -1.7011  1.9576
  707MOL0     H95439  -0.291   1.671   4.562 -0.4959  1.3038 -0.9015
  707MOL0     H95440  -0.320   1.583   4.419  0.2120 -1.7343  0.0204
  707MOL0     H95441  -0.416   1.285   4.700 -1.9447 -1.2396 -3.0640
  707MOL0     H95442   0.126   1.487   4.315 -1.4908  1.2453  1.4573
  707MOL0     H95443   0.345   1.290   4.142  0.1561 -0.9983  0.0735
  707MOL0     H95444   0.260   1.190   4.264  1.2401  0.0927  0.6175
  707MOL0     H95445   0.178   1.319   4.173  0.4998 -1.2988  0.6045
  708MOL0     O95446   6.590   4.557   0.315 -0.5180 -0.3343  0.6431
  708MOL0     C95447   6.717   4.577   0.297  0.2257 -0.1758 -0.2856
  708MOL0     O95448   6.785   4.670   0.365  0.5879 -0.6335 -0.5718
  708MOL0     C95449   6.737   4.714   0.492  0.7727  0.0788  0.6688
  708MOL0     C95450   6.693   4.844   0.491  0.4281 -0.1818 -0.6393
  708MOL0     C95451   6.626   4.885   0.605 -0.1281  0.2875 -1.1218
  708MOL0     C95452   6.641   4.816   0.734  0.5549  0.2981 -0.4093
  708MOL0     O95453   6.591   4.868   0.852 -0.3348  0.6162  0.7050
  708MOL0     C95454   6.552   5.003   0.854 -0.1229  0.2362 -0.2846
  708MOL0     C95455   6.530   5.047   0.992 -0.2408 -0.5959 -0.8607
  708MOL0     C95456   6.657   5.056   1.080  0.1134  0.5587  0.0903
  708MOL0     C95457   6.732   5.192   1.054 -0.1770  0.5079 -0.0353
  708MOL0     C95458   6.851   5.210   1.154  0.8344 -0.7568 -0.5532
  708MOL0     C95459   6.989   5.158   1.110  0.3900  0.7475 -0.4542
  708MOL0     C95460   7.109   5.231   1.173 -0.0772 -0.0482 -0.2408
  708MOL0     C95461   7.236   5.141   1.168  1.2359  0.5076  0.1826
  708MOL0     N95462   7.363   5.207   1.173  0.2010 -0.1961 -0.7571
  708MOL0     C95463   7.446   5.253   1.077 -0.8907 -1.3054  0.4536
  708MOL0     C95464   7.555   5.298   1.143  0.5825  0.8188 -0.1702
  708MOL0     C95465   7.688   5.329   1.087 -0.5164 -0.5866  0.5776
  708MOL0     C95466   7.693   5.481   1.037 -0.1403 -0.1724  0.0227
  708MOL0     C95467   7.834   5.512   0.982  0.4136  1.1864 -0.6243
  708MOL0     C95468   7.851   5.623   0.883 -0.5978 -0.1368 -0.1304
  708MOL0     O95469   7.799   5.590   0.753  0.1066  0.1156 -0.4038
  708MOL0     C95470   7.789   5.698   0.671 -0.4348  1.0842 -0.4789
  708MOL0     C95471   7.670   5.705   0.591  0.1264 -0.7338  0.5555
  708MOL0     C95472   7.663   5.805   0.496  0.1071 -0.0614  0.7668
  708MOL0     C95473   7.757   5.905   0.491  0.9138 -0.1962 -0.1557
  708MOL0     C95474   7.735   6.020   0.404 -0.0727  0.4610 -0.0974
  708MOL0     O95475   7.818   6.131   0.421  0.6662  0.2673 -0.6552
  708MOL0     C95476   7.775   6.245   0.357 -0.7348  0.0672 -0.7921
  708MOL0     C95477   7.744   6.343   0.446  0.0176 -0.7047 -0.2618
  708MOL0     C95478   7.720   6.473   0.396 -0.0786 -0.3279  0.2020
  708MOL0     C95479   7.729   6.500   0.257  0.3515  0.6185  0.1835
  708MOL0     O95480   7.716   6.622   0.198  0.6945  0.5361 -0.2547
  708MOL0     C95481   7.701   6.730   0.291 -0.3781 -0.2732  0.0760
  708MOL0     C95482   7.664   6.861   0.216 -0.7687 -0.0754 -0.1232
  708MOL0     C95483   7.689   6.983   0.311  0.7878 -1.1697 -0.0338
  708MOL0     C95484   7.681   7.123   0.248  1.1332 -0.6401 -0.1877
  708MOL0     C95485   7.649   7.227   0.364  0.2383  1.1245  0.5031
  708MOL0     C95486   7.608   7.367   0.305 -0.0159  0.0702  0.0894
  708MOL0     C95487   7.723   7.423   0.222 -0.2837 -0.5496 -0.6472
  708MOL0     C95488   7.701   7.558   0.164 -0.9739  0.0614 -0.1850
  708MOL0    Cl95489   7.588   7.543   0.028 -0.2564 -0.3068 -0.3598
  708MOL0     C95490   7.740   6.394   0.174 -0.2768 -0.6105  0.5264
  708MOL0     C95491   7.757   6.269   0.225 -1.1683 -0.2187  0.8605
  708MOL0     O95492   7.648   6.008   0.317  0.4593  0.3070 -0.1111
  708MOL0     C95493   7.863   5.901   0.581 -0.4952 -0.3502  0.0778
  708MOL0     C95494   7.882   5.801   0.673  0.2913  0.1285 -0.2394
  708MOL0     N95495   7.541   5.289   1.277 -0.5388  0.4548  0.3740
  708MOL0     N95496   7.425   5.233   1.291 -0.9906 -0.4759 -0.3557
  708MOL0     C95497   6.703   4.688   0.726 -0.1025  0.1638 -0.1886
  708MOL0     C95498   6.747   4.634   0.608 -0.0994  0.3219  0.3895
  708MOL0     C95499   6.784   4.505   0.181 -0.3351 -0.0626 -0.6224
  708MOL0     C95500   6.900   4.560   0.113 -0.8877  0.2460 -0.4001
  708MOL0     C95501   6.961   4.495   0.001  0.3939  0.5854 -0.2842
  708MOL0     C95502   6.906   4.374  -0.060  0.7052  0.6774  0.4635
  708MOL0     O95503   6.965   4.319  -0.173  0.6005 -0.6621  0.8637
  708MOL0     C95504   6.889   4.249  -0.272  0.6475 -0.2932  0.4490
  708MOL0     C95505   6.879   4.345  -0.392 -0.3796 -1.0984 -0.1887
  708MOL0     C95506   6.765   4.443  -0.351 -0.1582 -0.2183  0.6898
  708MOL0     C95507   6.725   4.516  -0.479  0.4235 -0.7146 -0.3737
  708MOL0     C95508   6.825   4.614  -0.519 -1.1234  0.5103  1.1663
  708MOL0     C95509   6.900   4.715  -0.542  0.1011  0.1275  0.6512
  708MOL0     C95510   6.793   4.323   0.007  0.5029 -0.3937 -0.1206
  708MOL0     C95511   6.739   4.380   0.129  0.9641  0.8126  0.8652
  708MOL0     C95512   6.633   4.305   0.191 -0.3534  1.0598 -0.5492
  708MOL0     H95513   6.693   4.899   0.397 -0.3885  0.5827 -0.2119
  708MOL0     H95514   6.573   4.978   0.592 -1.8837 -0.4039  0.5842
  708MOL0     H95515   6.632   5.062   0.809  0.2072  1.8470  2.2051
  708MOL0     H95516   6.460   5.023   0.798 -0.9510  1.1339  1.3053
  708MOL0     H95517   6.450   4.995   1.046 -2.0388  0.9625 -1.9203
  708MOL0     H95518   6.496   5.148   0.971 -1.2431 -0.4633  1.1981
  708MOL0     H95519   6.718   4.973   1.044 -0.0761  1.5793 -2.8963
  708MOL0     H95520   6.629   5.038   1.184  1.0728  0.1218  0.2816
  708MOL0     H95521   6.768   5.177   0.952 -1.8252 -4.3266 -0.2046
  708MOL0     H95522   6.670   5.281   1.066  3.3519  2.8912  2.3561
  708MOL0     H95523   6.857   5.318   1.171 -0.8494 -0.8541  0.9639
  708MOL0     H95524   6.821   5.164   1.249 -1.3770 -0.6312 -1.1529
  708MOL0     H95525   6.979   5.051   1.129  3.0280  0.4832 -0.1335
  708MOL0     H95526   7.002   5.173   1.002 -0.2857 -1.9315 -0.9899
  708MOL0     H95527   7.089   5.271   1.273  0.3354  0.2699 -0.2818
  708MOL0     H95528   7.138   5.319   1.115  2.7040  1.9669  3.7735
  708MOL0     H95529   7.248   5.061   1.241  3.8282 -0.9043 -1.6047
  708MOL0     H95530   7.235   5.081   1.076  0.5855 -0.9433  1.0948
  708MOL0     H95531   7.430   5.232   0.972 -0.0138 -2.9117  0.5969
  708MOL0     H95532   7.765   5.308   1.161 -1.0894 -2.9255  0.5905
  708MOL0     H95533   7.714   5.260   1.006  1.6006 -1.9521  2.3194
  708MOL0     H95534   7.612   5.483   0.964 -0.8075  1.5615  0.7731
  708MOL0     H95535   7.681   5.541   1.128  3.3792 -1.7693  1.7321
  708MOL0     H95536   7.874   5.420   0.938  0.7149 -2.0300  5.3027
  708MOL0     H95537   7.900   5.537   1.066 -1.7274  1.1322  1.1812
  708MOL0     H95538   7.960   5.638   0.877 -0.8949  1.7500 -1.8625
  708MOL0     H95539   7.805   5.715   0.919  1.2588  1.5723 -1.8303
  708MOL0     H95540   7.582   5.643   0.607 -1.4772  0.5741 -2.4662
  708MOL0     H95541   7.576   5.806   0.432  0.7646  2.3481 -0.1924
  708MOL0     H95542   7.733   6.334   0.554  1.1486  0.8433  0.0144
  708MOL0     H95543   7.699   6.547   0.472 -0.4680 -2.0550  1.8461
  708MOL0     H95544   7.625   6.715   0.369  0.4594  1.4697  1.2684
  708MOL0     H95545   7.796   6.740   0.344 -0.3169 -0.7699  0.0721
  708MOL0     H95546   7.719   6.867   0.122  1.0644 -1.7073  0.7627
  708MOL0     H95547   7.557   6.869   0.199 -0.4275 -0.5061 -2.9329
  708MOL0     H95548   7.611   6.982   0.388 -0.6550  5.9467 -0.7342
  708MOL0     H95549   7.789   6.979   0.357 -0.1447  1.2512  2.4949
  708MOL0     H95550   7.589   7.120   0.188  1.6762  0.3908 -1.1161
  708MOL0     H95551   7.772   7.138   0.189 -0.3320 -0.9074 -2.6412
  708MOL0     H95552   7.736   7.232   0.430 -1.0910 -0.1573  2.4621
  708MOL0     H95553   7.574   7.190   0.434  1.4575  3.6280  3.3537
  708MOL0     H95554   7.523   7.348   0.238  0.0671 -0.6958  0.1925
  708MOL0     H95555   7.561   7.435   0.376 -3.7497  0.3218 -2.3067
  708MOL0     H95556   7.743   7.359   0.136  0.9995  0.4587 -1.1284
  708MOL0     H95557   7.817   7.411   0.278 -0.0115 -2.9680 -1.4947
  708MOL0     H95558   7.650   7.609   0.247  1.7335  3.2177 -0.2659
  708MOL0     H95559   7.798   7.606   0.149 -1.7978  2.1157  0.7534
  708MOL0     H95560   7.748   6.408   0.067  1.0527  1.2075  0.8166
  708MOL0     H95561   7.766   6.183   0.159  0.9652 -0.4525  1.3945
  708MOL0     H95562   7.933   5.983   0.570  0.3666 -1.3413 -2.7875
  708MOL0     H95563   7.968   5.816   0.738 -0.0097 -2.6856  0.9131
  708MOL0     H95564   6.705   4.639   0.823  1.2188  0.0253 -0.2664
  708MOL0     H95565   6.789   4.534   0.606  0.2925  0.4204 -3.4327
  708MOL0     H95566   6.946   4.654   0.143 -2.0525  1.3439 -1.9001
  708MOL0     H95567   7.051   4.536  -0.043  0.5303 -1.5325 -2.1970
  708MOL0     H95568   6.791   4.222  -0.232 -0.9847  0.8419 -2.4791
  708MOL0     H95569   6.942   4.160  -0.308 -2.7688 -2.2354 -0.1446
  708MOL0     H95570   6.836   4.303  -0.483 -1.5120  1.2233 -0.7869
  708MOL0     H95571   6.967   4.404  -0.418  2.2779 -5.4501 -2.2216
  708MOL0     H95572   6.819   4.507  -0.280  3.3227 -2.3903  0.2668
  708MOL0     H95573   6.678   4.388  -0.316 -2.0108  1.2410 -1.3549
  708MOL0     H95574   6.679   4.449  -0.552 -2.6382 -0.8197  1.4591
  708MOL0     H95575   6.637   4.578  -0.458 -0.0523 -2.0793  2.0850
  708MOL0     H95576   6.967   4.789  -0.581 -0.4460 -0.5728 -1.8023
  708MOL0     H95577   6.747   4.234  -0.035 -0.6826  1.8757 -4.0897
  708MOL0     H95578   6.532   4.332   0.157 -1.7136 -2.0954  0.5871
  708MOL0     H95579   6.655   4.203   0.158  0.7374  1.6840 -1.8309
  708MOL0     H95580   6.643   4.320   0.299 -2.0727 -1.1222  0.0057
  709MOL0     O95581   4.507   8.900   2.574 -0.8951  0.0542 -0.2654
  709MOL0     C95582   4.484   8.817   2.666 -0.8444 -0.1482 -0.2139
  709MOL0     O95583   4.553   8.809   2.782 -0.4171 -0.7961  0.1669
  709MOL0     C95584   4.650   8.896   2.812  0.1208 -0.3088 -0.2090
  709MOL0     C95585   4.660   8.941   2.945 -0.0724 -1.1460 -1.3069
  709MOL0     C95586   4.760   9.034   2.977 -0.1795 -0.7123  0.9730
  709MOL0     C95587   4.861   9.072   2.889 -0.5272  0.0754 -0.1134
  709MOL0     O95588   4.957   9.162   2.916  0.5609  0.5012  0.1714
  709MOL0     C95589   4.946   9.242   3.036  0.8353  0.0876 -0.1710
  709MOL0     C95590   5.090   9.306   3.048 -0.1571 -0.5443  0.7240
  709MOL0     C95591   5.194   9.203   3.084  0.6298  0.1490  0.4952
  709MOL0     C95592   5.328   9.241   3.023 -0.7425 -0.0137 -0.1870
  709MOL0     C95593   5.445   9.137   3.063 -0.0928 -0.4157  0.3133
  709MOL0     C95594   5.582   9.194   3.017  0.5356  0.0267  0.3384
  709MOL0     C95595   5.648   9.298   3.107  0.5473 -0.0901 -0.6351
  709MOL0     C95596   5.700   9.420   3.044  0.2206 -0.1273 -0.4316
  709MOL0     N95597   5.781   9.499   3.136 -0.2811  0.9532 -0.1948
  709MOL0     C95598   5.832   9.461   3.256 -0.0809  0.6640  0.1632
  709MOL0     C95599   5.940   9.542   3.277  0.9262  0.7949 -1.0655
  709MOL0     C95600   6.051   9.529   3.378 -0.5742  0.4903 -0.2483
  709MOL0     C95601   6.028   9.572   3.526 -0.0444 -0.2045 -0.5063
  709MOL0     C95602   5.958   9.711   3.539  0.5692 -0.5680  0.4401
  709MOL0     C95603   6.054   9.833   3.524  0.9436  0.3148 -0.3842
  709MOL0     O95604   5.977   9.950   3.578 -0.3390 -0.7700  0.1787
  709MOL0     C95605   5.880  10.015   3.502 -1.1938 -1.0580 -0.1394
  709MOL0     C95606   5.810  10.113   3.556  0.5807  0.8922 -0.3181
  709MOL0     C95607   5.698  10.178   3.500 -0.0707  0.2333 -0.8716
  709MOL0     C95608   5.664  10.153   3.369 -0.6908  0.2491 -0.3093
  709MOL0     C95609   5.547  10.225   3.311 -0.3003 -0.0832 -0.1795
  709MOL0     O95610   5.500  10.184   3.187 -0.1900  0.1690  0.6449
  709MOL0     C95611   5.379  10.225   3.135  0.2746  0.2777  0.4802
  709MOL0     C95612   5.284  10.138   3.089  0.5294 -0.0324  0.1897
  709MOL0     C95613   5.158  10.172   3.033 -0.6038 -0.6301 -0.5421
  709MOL0     C95614   5.132  10.311   3.012  0.1707  0.0580 -0.0634
  709MOL0     O95615   5.026  10.352   2.932 -0.7681 -0.9495 -0.0293
  709MOL0     C95616   4.980  10.480   2.914  1.1886 -0.2271  0.4667
  709MOL0     C95617   4.832  10.477   2.865 -0.5547 -0.2998  0.5557
  709MOL0     C95618   4.739  10.414   2.971  0.5734  0.9630  0.2216
  709MOL0     C95619   4.638  10.326   2.895  0.1652 -0.6418 -0.7495
  709MOL0     C95620   4.714  10.209   2.821  1.1473 -0.1103  0.3873
  709MOL0     C95621   4.614  10.096   2.788  1.4599  0.6393 -0.9229
  709MOL0     C95622   4.683   9.961   2.776 -0.0904 -0.3268 -0.1778
  709MOL0     C95623   4.746   9.945   2.647  0.0066  0.1399  0.8572
  709MOL0    Cl95624   4.795   9.773   2.620 -0.0167 -0.4424  0.0583
  709MOL0     C95625   5.238  10.402   3.042  0.1233  0.4749 -0.6625
  709MOL0     C95626   5.353  10.360   3.111  0.8134 -0.4049 -0.1450
  709MOL0     O95627   5.490  10.316   3.378 -0.0143 -0.7922  0.4395
  709MOL0     C95628   5.740  10.056   3.303  1.0535 -0.5087  0.1734
  709MOL0     C95629   5.847   9.992   3.367  1.3321 -0.6722  1.0926
  709MOL0     N95630   5.945   9.629   3.171  0.4763 -0.1562 -0.7178
  709MOL0     N95631   5.854   9.603   3.083  0.0563  0.6076  0.0642
  709MOL0     C95632   4.863   9.017   2.765 -1.0042  0.8593  0.5264
  709MOL0     C95633   4.758   8.941   2.715 -0.6860  0.3041  0.4045
  709MOL0     C95634   4.360   8.735   2.647 -0.0870  0.2592 -0.3391
  709MOL0     C95635   4.281   8.707   2.766 -0.0466  0.0598  0.4661
  709MOL0     C95636   4.163   8.645   2.744  0.3354 -0.5247 -0.0220
  709MOL0     C95637   4.111   8.610   2.623  0.3218  0.0312  0.2115
  709MOL0     O95638   3.987   8.549   2.603  0.2512 -1.0078 -0.9473
  709MOL0     C95639   3.895   8.657   2.576  0.5368  0.2558  1.0108
  709MOL0     C95640   3.761   8.588   2.525  0.2002 -0.2076 -0.5737
  709MOL0     C95641   3.807   8.504   2.409 -0.4895 -0.3349  0.6392
  709MOL0     C95642   3.691   8.471   2.316 -0.3742 -0.3555 -0.0345
  709MOL0     C95643   3.735   8.384   2.200 -0.2400 -0.1477 -0.4001
  709MOL0     C95644   3.793   8.305   2.124 -1.2152 -0.2057 -0.0209
  709MOL0     C95645   4.184   8.642   2.510 -0.6141  0.4392  1.4961
  709MOL0     C95646   4.310   8.704   2.518 -1.3571  0.5862  0.1252
  709MOL0     C95647   4.389   8.706   2.394  0.0778  0.9075  0.8248
  709MOL0     H95648   4.578   8.898   3.001 -0.0392 -1.0180 -1.1554
  709MOL0     H95649   4.765   9.088   3.070 -1.4498  1.0489  0.0826
  709MOL0     H95650   4.863   9.313   3.027 -0.0515 -1.1205 -2.0413
  709MOL0     H95651   4.935   9.185   3.129 -3.9336  0.0594 -0.5464
  709MOL0     H95652   5.097   9.383   3.124  0.0017  0.8532 -0.6559
  709MOL0     H95653   5.120   9.358   2.956 -1.5871  0.1962  0.6589
  709MOL0     H95654   5.165   9.102   3.055 -0.5132  0.3531  0.8605
  709MOL0     H95655   5.202   9.198   3.193 -0.9481  0.5126  0.6553
  709MOL0     H95656   5.330   9.235   2.914  2.5502  0.1312 -0.2373
  709MOL0     H95657   5.364   9.335   3.067  0.8631 -0.5766 -0.2449
  709MOL0     H95658   5.436   9.128   3.171  0.6276  0.5610  0.4715
  709MOL0     H95659   5.433   9.040   3.013  0.8712  0.3398 -1.4844
  709MOL0     H95660   5.661   9.118   3.013  2.6867  2.1422  0.2365
  709MOL0     H95661   5.572   9.236   2.917  0.9291  2.1890  1.1602
  709MOL0     H95662   5.736   9.248   3.148  1.0955  1.0286 -0.4063
  709MOL0     H95663   5.579   9.325   3.186 -2.8839 -2.6131 -2.5106
  709MOL0     H95664   5.758   9.402   2.953 -1.0954 -1.0971 -1.1080
  709MOL0     H95665   5.622   9.488   3.009 -0.1836 -1.4436 -2.2458
  709MOL0     H95666   5.809   9.381   3.326  2.6514 -0.4567 -0.1019
  709MOL0     H95667   6.085   9.425   3.377  1.7836  1.1735  1.3819
  709MOL0     H95668   6.128   9.598   3.342  1.0729 -1.8890 -1.5766
  709MOL0     H95669   5.964   9.499   3.576  0.9710 -0.6431  0.2130
  709MOL0     H95670   6.128   9.577   3.570 -0.4444  0.6209  0.3308
  709MOL0     H95671   5.910   9.709   3.637 -2.7902 -0.8545 -1.0728
  709MOL0     H95672   5.872   9.722   3.472  0.5031  2.1130  0.8445
  709MOL0     H95673   6.096   9.853   3.425  2.2775 -1.0694 -0.1266
  709MOL0     H95674   6.139   9.824   3.592  0.3233  0.8342  0.4870
  709MOL0     H95675   5.843  10.132   3.658  4.8913 -2.2797 -0.8481
  709MOL0     H95676   5.638  10.248   3.558 -2.1709 -1.7626 -0.4850
  709MOL0     H95677   5.301  10.031   3.096 -3.7435 -1.1138 -2.3090
  709MOL0     H95678   5.095  10.094   2.993 -1.9843  0.3496 -0.3437
  709MOL0     H95679   4.984  10.545   3.003 -0.2145  1.0040 -0.3314
  709MOL0     H95680   5.041  10.525   2.835  1.3981 -2.5297 -0.7476
  709MOL0     H95681   4.793  10.579   2.864 -1.4097 -0.6244  0.1869
  709MOL0     H95682   4.839  10.427   2.768 -0.0888 -1.9687  1.3966
  709MOL0     H95683   4.798  10.347   3.034 -2.6895 -2.0291  0.4317
  709MOL0     H95684   4.689  10.488   3.033  3.2395 -0.6534  4.7985
  709MOL0     H95685   4.588  10.395   2.826  0.0120  2.6969  2.3686
  709MOL0     H95686   4.557  10.287   2.957 -1.7910  4.6274  0.5903
  709MOL0     H95687   4.804  10.180   2.875  0.3185 -3.3238  0.2434
  709MOL0     H95688   4.737  10.236   2.717 -2.5911  0.2271 -0.4974
  709MOL0     H95689   4.553  10.081   2.878  3.0025 -3.5604 -0.3257
  709MOL0     H95690   4.552  10.124   2.702 -0.7617  1.5449  0.8594
  709MOL0     H95691   4.612   9.879   2.791  0.2167 -0.1406  3.1739
  709MOL0     H95692   4.749   9.952   2.864 -3.2802 -3.7611  2.1751
  709MOL0     H95693   4.690   9.973   2.558 -1.0089 -1.8497  0.8283
  709MOL0     H95694   4.825  10.020   2.639 -0.3783  0.4584 -0.0430
  709MOL0     H95695   5.233  10.509   3.022  0.0666  0.6644  0.3280
  709MOL0     H95696   5.422  10.441   3.137 -0.6011  0.3053  1.6216
  709MOL0     H95697   5.713  10.023   3.203  0.9063 -2.3186  0.7852
  709MOL0     H95698   5.918   9.925   3.318 -0.2740 -1.1489 -0.6998
  709MOL0     H95699   4.943   9.040   2.694 -1.3634 -3.2827 -1.5071
  709MOL0     H95700   4.770   8.897   2.616  1.1027 -0.5781  0.9645
  709MOL0     H95701   4.316   8.731   2.865  2.1318 -1.3967  0.1168
  709MOL0     H95702   4.098   8.632   2.830  1.1147  2.8011  1.2379
  709MOL0     H95703   3.934   8.737   2.511  2.2090  1.1280  2.9762
  709MOL0     H95704   3.870   8.709   2.669 -0.3239 -2.7561  2.5881
  709MOL0     H95705   3.680   8.655   2.494 -0.3843 -1.1998 -1.2037
  709MOL0     H95706   3.717   8.521   2.600 -1.6782  1.6871  0.1199
  709MOL0     H95707   3.861   8.416   2.443 -2.7544 -1.0338  2.7074
  709MOL0     H95708   3.882   8.554   2.347 -1.3506 -1.1207 -1.1255
  709MOL0     H95709   3.612   8.423   2.375 -1.5029  2.3038  0.7652
  709MOL0     H95710   3.649   8.567   2.284  2.9352  1.0281 -0.6706
  709MOL0     H95711   3.850   8.230   2.074  0.2119  0.0187  1.1754
  709MOL0     H95712   4.144   8.608   2.415  2.1634  0.6902  0.1238
  709MOL0     H95713   4.492   8.743   2.392  1.2986 -1.9594 -3.0292
  709MOL0     H95714   4.390   8.605   2.352  0.1648  0.9759  0.6586
  709MOL0     H95715   4.340   8.774   2.324 -2.0877 -0.7522  0.6080
  710MOL0     O95716  10.410   9.040   3.220  0.6929 -0.5657  0.5281
  710MOL0     C95717  10.428   9.081   3.331 -0.8578 -0.0486 -1.1478
  710MOL0     O95718  10.493   9.018   3.438  0.4034 -0.1629 -0.2150
  710MOL0     C95719  10.570   8.910   3.422  0.8967 -0.0015 -0.1783
  710MOL0     C95720  10.632   8.868   3.541 -0.8834 -0.4420  0.2583
  710MOL0     C95721  10.701   8.753   3.556 -0.4818  0.0086 -0.4338
  710MOL0     C95722  10.724   8.667   3.452  0.7685 -0.1832 -0.4220
  710MOL0     O95723  10.794   8.544   3.453 -0.0004 -0.6676  0.0516
  710MOL0     C95724  10.897   8.526   3.558  0.4828  0.5939  1.3347
  710MOL0     C95725  10.940   8.374   3.570 -0.2539  0.4904 -1.5722
  710MOL0     C95726  10.822   8.296   3.645  0.1624  0.5482  0.7143
  710MOL0     C95727  10.826   8.329   3.794 -1.1759  0.2010 -0.2958
  710MOL0     C95728  10.686   8.330   3.856 -0.8812  1.4103  0.0717
  710MOL0     C95729  10.604   8.457   3.816  0.3349  0.8845 -0.4449
  710MOL0     C95730  10.459   8.452   3.864  0.7533 -0.6340 -0.0857
  710MOL0     C95731  10.382   8.584   3.852  0.1062 -0.7983  0.2499
  710MOL0     N95732  10.314   8.585   3.715 -0.3347  0.7273  0.0571
  710MOL0     C95733  10.375   8.597   3.594 -0.1835 -0.7560  0.1191
  710MOL0     C95734  10.274   8.576   3.501 -0.6408  0.1520 -0.5714
  710MOL0     C95735  10.279   8.579   3.350  0.5615 -0.2113 -0.4434
  710MOL0     C95736  10.202   8.705   3.297  0.0431  0.0755 -0.3294
  710MOL0     C95737  10.236   8.716   3.140 -0.0922  0.2828  0.1984
  710MOL0     C95738  10.134   8.791   3.059 -0.8734 -0.1036 -0.6750
  710MOL0     O95739  10.161   8.777   2.921  0.1291  0.0632  0.6317
  710MOL0     C95740  10.236   8.875   2.864 -1.0055 -0.2866 -0.3301
  710MOL0     C95741  10.285   9.004   2.908 -0.4331  0.0451  0.2855
  710MOL0     C95742  10.370   9.087   2.827 -0.1155  1.2551 -0.4967
  710MOL0     C95743  10.399   9.054   2.690  0.3495  0.1493 -0.1652
  710MOL0     C95744  10.480   9.131   2.585  0.9615 -0.8723  0.2461
  710MOL0     O95745  10.486   9.085   2.455 -0.0039 -0.3238  0.4065
  710MOL0     C95746  10.552   9.166   2.359 -0.3878 -0.0195  0.0904
  710MOL0     C95747  10.473   9.182   2.243  0.0616  0.4163  0.7362
  710MOL0     C95748  10.501   9.277   2.146 -0.8220  0.0157 -0.5313
  710MOL0     C95749  10.628   9.333   2.148 -0.5873 -0.0051 -0.2224
  710MOL0     O95750  10.672   9.418   2.045 -0.1621 -0.2359 -0.7783
  710MOL0     C95751  10.694   9.555   2.083 -0.6784 -0.6095  0.1251
  710MOL0     C95752  10.827   9.590   2.017 -0.1125  0.4672 -0.0581
  710MOL0     C95753  10.953   9.595   2.106 -0.0180  0.0786  0.2497
  710MOL0     C95754  11.067   9.652   2.031  0.4508 -0.2603  0.6058
  710MOL0     C95755  11.192   9.656   2.121  0.5439 -0.2654 -0.0348
  710MOL0     C95756  11.293   9.752   2.065  0.9801  0.6611 -0.3509
  710MOL0     C95757  11.425   9.747   2.132  0.3044  0.3721 -0.1709
  710MOL0     C95758  11.515   9.636   2.090  0.2196 -0.0574 -0.8218
  710MOL0    Cl95759  11.550   9.670   1.911  0.0857 -0.0599  0.0793
  710MOL0     C95760  10.712   9.307   2.251 -0.0833  0.4780  0.0872
  710MOL0     C95761  10.668   9.235   2.365 -0.7574  0.7320  0.2727
  710MOL0     O95762  10.528   9.239   2.617  0.3075 -0.1805 -0.3073
  710MOL0     C95763  10.344   8.924   2.644  0.3253 -0.7457 -0.8218
  710MOL0     C95764  10.275   8.846   2.730 -0.3398 -0.4770  0.2639
  710MOL0     N95765  10.157   8.568   3.562 -0.5687  0.5673 -0.4595
  710MOL0     N95766  10.184   8.570   3.693  0.3484  0.3759  0.5415
  710MOL0     C95767  10.663   8.704   3.331  0.0422  0.0520  0.5710
  710MOL0     C95768  10.585   8.822   3.315  0.2086 -0.1714 -0.0493
  710MOL0     C95769  10.360   9.210   3.363  0.5230  0.3950  0.6818
  710MOL0     C95770  10.333   9.237   3.500  0.6943  0.1031  0.0380
  710MOL0     C95771  10.251   9.344   3.540  0.3390  0.0315  1.4401
  710MOL0     C95772  10.218   9.445   3.441 -0.6620 -0.5466  0.0641
  710MOL0     O95773  10.159   9.565   3.472  0.7723 -0.4606  1.8300
  710MOL0     C95774  10.174   9.618   3.602 -1.1922 -0.1962 -0.1188
  710MOL0     C95775  10.168   9.771   3.606 -0.6589  0.5600 -0.2604
  710MOL0     C95776  10.021   9.822   3.592 -0.1753 -0.5784  0.3012
  710MOL0     C95777   9.963   9.805   3.449 -0.1222 -0.0211  0.5173
  710MOL0     C95778   9.867   9.915   3.425  0.1126 -0.0720 -0.0861
  710MOL0     C95779   9.805  10.011   3.387 -0.4389  0.0092 -0.2356
  710MOL0     C95780  10.270   9.438   3.312 -0.3882  0.3434  0.2441
  710MOL0     C95781  10.327   9.320   3.270  0.2926 -0.4370  0.3694
  710MOL0     C95782  10.364   9.325   3.130 -0.4203  0.5406  0.6989
  710MOL0     H95783  10.617   8.939   3.622 -0.4417  1.8584 -1.5462
  710MOL0     H95784  10.737   8.761   3.658  0.7710 -0.8844 -0.7827
  710MOL0     H95785  10.981   8.582   3.517 -0.0210 -0.8430 -2.0162
  710MOL0     H95786  10.863   8.562   3.656 -5.1276  0.2389 -0.1061
  710MOL0     H95787  11.037   8.354   3.615  0.2861  2.9376 -1.4946
  710MOL0     H95788  10.944   8.313   3.479 -0.5029 -2.2676  0.1332
  710MOL0     H95789  10.836   8.188   3.638  1.5676  0.6469  1.7630
  710MOL0     H95790  10.728   8.329   3.599 -0.7431 -1.2634  1.1974
  710MOL0     H95791  10.895   8.251   3.828 -0.8269 -0.1377 -1.6980
  710MOL0     H95792  10.872   8.426   3.815  0.6466 -1.1620  2.7893
  710MOL0     H95793  10.634   8.245   3.811 -0.3703  0.9001  0.4316
  710MOL0     H95794  10.685   8.311   3.964 -4.6059  3.4918  0.5869
  710MOL0     H95795  10.653   8.540   3.868  1.0346  0.5179 -0.5040
  710MOL0     H95796  10.611   8.498   3.714 -0.3615  5.1071  1.0015
  710MOL0     H95797  10.456   8.418   3.968 -3.9605  2.7635  1.2576
  710MOL0     H95798  10.408   8.378   3.801  0.5053 -0.7877  0.2928
  710MOL0     H95799  10.299   8.582   3.924 -0.8400 -0.8840 -0.8264
  710MOL0     H95800  10.456   8.664   3.860 -1.8225  0.9863  0.9825
  710MOL0     H95801  10.478   8.632   3.586 -0.4795  0.3115  0.7913
  710MOL0     H95802  10.384   8.577   3.320  1.2981  4.0024  1.1124
  710MOL0     H95803  10.248   8.487   3.299 -1.1611  0.6981 -1.1055
  710MOL0     H95804  10.095   8.682   3.301 -0.1246  0.6847 -1.0945
  710MOL0     H95805  10.229   8.786   3.365  1.9998 -2.6222  2.4076
  710MOL0     H95806  10.247   8.620   3.089  2.3071  0.6036 -0.0367
  710MOL0     H95807  10.334   8.763   3.123  1.6987 -2.9858  0.7922
  710MOL0     H95808  10.149   8.893   3.097  4.6449 -1.0515  0.6102
  710MOL0     H95809  10.032   8.759   3.081  0.4675 -3.1064  1.9664
  710MOL0     H95810  10.258   9.049   3.002 -1.6134 -0.7739  0.3618
  710MOL0     H95811  10.411   9.178   2.868  0.5405  0.5503  0.4663
  710MOL0     H95812  10.371   9.146   2.236 -0.0199  0.9620 -2.1660
  710MOL0     H95813  10.435   9.321   2.073  1.7076  4.5228 -0.4515
  710MOL0     H95814  10.613   9.617   2.043  0.6295  0.3542 -1.1355
  710MOL0     H95815  10.704   9.585   2.188  0.1791  0.7809 -0.3188
  710MOL0     H95816  10.827   9.524   1.930 -3.6833  1.9716 -1.3557
  710MOL0     H95817  10.821   9.691   1.977  1.9111  0.1712 -1.2228
  710MOL0     H95818  10.925   9.660   2.189 -0.5088 -0.7234  0.7287
  710MOL0     H95819  10.987   9.498   2.144  2.7835  0.0590 -1.9743
  710MOL0     H95820  11.036   9.755   2.016  1.0605 -0.5346 -4.1020
  710MOL0     H95821  11.092   9.606   1.935  3.3288 -0.5634  1.4157
  710MOL0     H95822  11.230   9.554   2.113  0.8552 -0.0914 -0.8822
  710MOL0     H95823  11.177   9.680   2.227  0.5740  2.5157 -0.5922
  710MOL0     H95824  11.304   9.728   1.959 -0.4282 -0.0640 -0.3555
  710MOL0     H95825  11.241   9.847   2.079 -1.9941 -0.5676 -2.3451
  710MOL0     H95826  11.394   9.738   2.237 -0.5445 -0.7516 -0.5000
  710MOL0     H95827  11.473   9.841   2.104 -3.6997  2.8963  0.6727
  710MOL0     H95828  11.603   9.624   2.154 -1.2538  0.2732  1.3662
  710MOL0     H95829  11.451   9.547   2.100 -2.1207  1.5577 -0.7320
  710MOL0     H95830  10.808   9.354   2.268 -0.8364  1.4138  2.0893
  710MOL0     H95831  10.740   9.226   2.446  0.7478  1.5015 -0.9184
  710MOL0     H95832  10.370   8.888   2.545 -0.7069 -0.5731 -1.1669
  710MOL0     H95833  10.247   8.746   2.698 -1.7459 -0.3043  0.8599
  710MOL0     H95834  10.669   8.641   3.243 -0.5797 -1.7870  1.7983
  710MOL0     H95835  10.556   8.839   3.211 -1.0122 -0.6268  0.2129
  710MOL0     H95836  10.378   9.184   3.583  3.5977 -1.7641 -2.5215
  710MOL0     H95837  10.227   9.363   3.644  0.6817 -0.3949  1.5981
  710MOL0     H95838  10.276   9.598   3.639 -0.4530  4.0592  0.6676
  710MOL0     H95839  10.097   9.570   3.663  0.8685  0.1444  2.9927
  710MOL0     H95840  10.233   9.800   3.523  2.0075  2.6754  2.3132
  710MOL0     H95841  10.218   9.808   3.697 -1.6266 -0.5502  0.7538
  710MOL0     H95842  10.028   9.929   3.615  1.0241 -0.4531 -0.4994
  710MOL0     H95843   9.959   9.755   3.651 -0.4900 -0.8876 -0.3647
  710MOL0     H95844  10.034   9.831   3.370 -3.2337  3.4887 -1.4346
  710MOL0     H95845   9.925   9.704   3.430  1.4660 -0.5738  0.1033
  710MOL0     H95846   9.750  10.100   3.363 -1.0444  0.0941  1.3426
  710MOL0     H95847  10.255   9.529   3.256 -0.3313  0.1893 -0.0275
  710MOL0     H95848  10.274   9.304   3.072  0.1892 -1.1231  0.2903
  710MOL0     H95849  10.398   9.422   3.093  1.8949 -1.3855 -2.7835
  710MOL0     H95850  10.448   9.257   3.109 -1.7276 -1.0014  0.2863
  711MOL0     O95851   0.298   4.762   7.054  0.4396 -0.2157  0.5367
  711MOL0     C95852   0.310   4.795   7.172 -0.4574  0.6349 -0.8751
  711MOL0     O95853   0.209   4.810   7.257  0.3565 -0.0213  0.0970
  711MOL0     C95854   0.085   4.792   7.210  0.5900  0.3825 -0.7379
  711MOL0     C95855   0.020   4.687   7.286 -0.4309 -0.9136  0.5241
  711MOL0     C95856  -0.106   4.648   7.244 -0.2829 -0.1130 -0.3541
  711MOL0     C95857  -0.163   4.711   7.135 -0.1578  0.4272  0.4302
  711MOL0     O95858  -0.290   4.669   7.098 -0.2894 -0.1946  0.6462
  711MOL0     C95859  -0.331   4.661   6.962  0.2518  0.5084  0.8687
  711MOL0     C95860  -0.459   4.579   6.957 -0.0391  0.5441  0.4664
  711MOL0     C95861  -0.576   4.629   7.049 -0.3746 -0.4619  0.0596
  711MOL0     C95862  -0.661   4.732   6.981 -0.4794 -0.3360  0.7113
  711MOL0     C95863  -0.783   4.767   7.076 -0.3857  0.6101  0.5173
  711MOL0     C95864  -0.889   4.837   6.988 -0.1266  0.6512 -0.9190
  711MOL0     C95865  -1.021   4.864   7.075  0.6859  0.3399 -0.1013
  711MOL0     C95866  -1.015   4.996   7.148  0.3727  0.6315 -0.7947
  711MOL0     N95867  -0.989   5.122   7.066  0.1619  0.5893 -0.2615
  711MOL0     C95868  -1.072   5.158   6.966  0.1701 -0.0927 -0.4668
  711MOL0     C95869  -1.024   5.280   6.919 -1.0908  0.2369 -0.1281
  711MOL0     C95870  -1.089   5.387   6.839  0.1993 -0.0959  0.8077
  711MOL0     C95871  -1.135   5.343   6.703  0.3573 -0.0649  0.5709
  711MOL0     C95872  -1.168   5.455   6.605 -0.2050 -0.8189 -0.0961
  711MOL0     C95873  -1.153   5.391   6.465 -0.0305 -1.0897 -0.2871
  711MOL0     O95874  -1.234   5.278   6.431 -0.2919 -0.4395 -0.3313
  711MOL0     C95875  -1.201   5.217   6.313  0.6935 -0.2036  0.7611
  711MOL0     C95876  -1.068   5.193   6.269  0.6513 -0.1928  0.5487
  711MOL0     C95877  -1.055   5.132   6.145  0.5123  0.3267 -0.1959
  711MOL0     C95878  -1.164   5.078   6.066  0.1796 -0.6178  1.0660
  711MOL0     C95879  -1.150   5.005   5.941 -0.7276  0.1461  0.3845
  711MOL0     O95880  -1.266   4.964   5.873 -0.7125  0.8140  0.1887
  711MOL0     C95881  -1.254   4.905   5.749 -0.1454  0.6124 -0.2175
  711MOL0     C95882  -1.303   4.771   5.732 -0.2353 -0.3336 -0.2342
  711MOL0     C95883  -1.276   4.703   5.615 -0.0850 -0.9810  0.2004
  711MOL0     C95884  -1.196   4.758   5.511 -0.1804  0.7128 -0.6790
  711MOL0     O95885  -1.171   4.688   5.396  0.3984 -0.2582  0.5994
  711MOL0     C95886  -1.024   4.668   5.371 -0.2733 -0.5785  0.0164
  711MOL0     C95887  -1.015   4.539   5.298 -0.7433  0.3512  0.5753
  711MOL0     C95888  -0.874   4.527   5.233 -0.0451 -0.2461 -0.2870
  711MOL0     C95889  -0.881   4.427   5.119  0.0095  0.0632 -0.3340
  711MOL0     C95890  -0.772   4.419   5.014 -0.7209 -0.2938 -0.7029
  711MOL0     C95891  -0.791   4.297   4.927 -0.3387  0.9119 -0.2192
  711MOL0     C95892  -0.875   4.315   4.793  0.7238  0.3986 -0.6178
  711MOL0     C95893  -0.798   4.269   4.664 -1.0237  0.0263 -0.3577
  711MOL0    Cl95894  -0.707   4.403   4.598  0.2350  0.2472 -0.1081
  711MOL0     C95895  -1.160   4.895   5.522 -0.0306  0.2146  0.0527
  711MOL0     C95896  -1.185   4.965   5.640  0.5833  0.5264 -0.2034
  711MOL0     O95897  -1.033   4.982   5.906  0.6292  0.0535 -0.6956
  711MOL0     C95898  -1.294   5.095   6.123 -0.0395 -0.2492 -1.0667
  711MOL0     C95899  -1.313   5.155   6.246 -0.1256 -1.2239 -0.2848
  711MOL0     N95900  -0.893   5.290   6.981 -0.1204 -0.0267 -0.3897
  711MOL0     N95901  -0.873   5.194   7.065 -0.2637 -0.0077  0.0743
  711MOL0     C95902  -0.097   4.796   7.045  0.3262 -0.1381  0.4151
  711MOL0     C95903   0.030   4.833   7.084 -0.2237 -1.0604 -0.8061
  711MOL0     C95904   0.441   4.809   7.227 -0.0489 -0.2671 -0.7045
  711MOL0     C95905   0.551   4.727   7.189 -0.0414 -0.2873 -0.0183
  711MOL0     C95906   0.678   4.728   7.251  0.0782  0.3656  0.2116
  711MOL0     C95907   0.704   4.830   7.347 -0.4160  1.3232  0.0307
  711MOL0     O95908   0.818   4.833   7.414 -0.9376 -0.1694  0.0571
  711MOL0     C95909   0.918   4.730   7.406 -0.5115 -1.1085 -0.2561
  711MOL0     C95910   1.053   4.760   7.468 -1.0651  0.5436  0.4167
  711MOL0     C95911   1.129   4.862   7.382 -0.2747  0.8229 -0.7221
  711MOL0     C95912   1.062   5.003   7.361 -0.4944  0.4076 -0.3659
  711MOL0     C95913   1.164   5.106   7.340 -0.2861  0.3434 -0.3147
  711MOL0     C95914   1.251   5.192   7.324 -0.0145  0.4277  0.1788
  711MOL0     C95915   0.597   4.911   7.384 -0.6011 -0.1083 -0.4722
  711MOL0     C95916   0.470   4.903   7.337 -0.2077  0.0392  0.1422
  711MOL0     C95917   0.371   5.006   7.392 -0.1617  0.2893  0.7887
  711MOL0     H95918   0.067   4.630   7.366  4.1110  0.6614 -0.7321
  711MOL0     H95919  -0.166   4.576   7.298  0.5175 -1.4025 -1.1195
  711MOL0     H95920  -0.347   4.759   6.916 -0.3705 -1.1669 -2.8883
  711MOL0     H95921  -0.269   4.596   6.900 -0.5351  1.2150 -0.7304
  711MOL0     H95922  -0.430   4.490   7.013  0.4984  1.3898  1.5908
  711MOL0     H95923  -0.490   4.550   6.856 -0.3073 -0.9368  0.9606
  711MOL0     H95924  -0.541   4.679   7.140  1.4734  2.4965 -2.0783
  711MOL0     H95925  -0.622   4.538   7.087 -1.2501  0.4026  1.1465
  711MOL0     H95926  -0.599   4.818   6.954  0.7508 -1.3491  0.2095
  711MOL0     H95927  -0.689   4.696   6.881 -0.9032 -1.7990  1.3215
  711MOL0     H95928  -0.830   4.681   7.124 -1.5589 -0.7953 -2.8667
  711MOL0     H95929  -0.747   4.833   7.155  0.2153  0.8054  0.0907
  711MOL0     H95930  -0.850   4.930   6.946  0.4113  0.6874 -0.3379
  711MOL0     H95931  -0.900   4.787   6.891  0.2611 -0.3069 -0.4815
  711MOL0     H95932  -1.039   4.779   7.141 -0.9445 -3.2019 -4.5518
  711MOL0     H95933  -1.101   4.864   7.001 -1.8790 -1.1588  2.4976
  711MOL0     H95934  -1.103   5.013   7.212  0.7565  2.0280 -0.6021
  711MOL0     H95935  -0.925   4.991   7.210  1.1800  3.8665 -1.5070
  711MOL0     H95936  -1.164   5.109   6.936  0.9197 -1.1485 -1.1041
  711MOL0     H95937  -1.171   5.436   6.893  0.9912  0.8682  1.1563
  711MOL0     H95938  -1.018   5.468   6.819 -1.2284  0.2341 -4.7145
  711MOL0     H95939  -1.056   5.284   6.655  1.1464  0.4753  1.1766
  711MOL0     H95940  -1.223   5.281   6.721  0.6652 -0.5870  0.3033
  711MOL0     H95941  -1.097   5.537   6.615 -0.9093 -0.2066 -0.0341
  711MOL0     H95942  -1.268   5.494   6.625  1.0174  1.9058  1.0664
  711MOL0     H95943  -1.045   5.382   6.452  0.7266  2.6465  2.0388
  711MOL0     H95944  -1.188   5.471   6.399  0.3430  0.0392  0.8412
  711MOL0     H95945  -0.976   5.223   6.317 -0.0375  1.9818  0.6058
  711MOL0     H95946  -0.954   5.119   6.108  0.2341 -0.4506 -0.7136
  711MOL0     H95947  -1.355   4.718   5.811 -0.2959 -0.8540 -0.6198
  711MOL0     H95948  -1.311   4.601   5.600  4.5283 -2.6813 -0.6478
  711MOL0     H95949  -1.009   4.753   5.304 -1.1651  0.8705  1.5646
  711MOL0     H95950  -0.962   4.675   5.461  0.8137  0.5187 -0.7854
  711MOL0     H95951  -1.032   4.451   5.361  2.3152 -1.0498 -0.3291
  711MOL0     H95952  -1.093   4.542   5.222 -0.6843  4.2570  0.4730
  711MOL0     H95953  -0.839   4.621   5.191  3.0671 -0.7020  1.0165
  711MOL0     H95954  -0.801   4.497   5.309 -0.0693 -4.0224 -1.5343
  711MOL0     H95955  -0.973   4.434   5.061 -0.4482 -1.2187  0.2044
  711MOL0     H95956  -0.894   4.327   5.160 -1.8947 -0.4968 -2.1414
  711MOL0     H95957  -0.671   4.428   5.056 -0.9099  2.4762 -0.6948
  711MOL0     H95958  -0.795   4.505   4.952 -0.5169 -1.1060 -1.9487
  711MOL0     H95959  -0.690   4.264   4.901 -0.9502 -2.7029  1.5077
  711MOL0     H95960  -0.839   4.214   4.978  2.8687  0.1635  1.8326
  711MOL0     H95961  -0.906   4.419   4.787  1.5876  0.7046 -0.0142
  711MOL0     H95962  -0.960   4.247   4.803  2.0525 -1.2064  0.2832
  711MOL0     H95963  -0.746   4.173   4.680 -0.8451  0.4335  1.8317
  711MOL0     H95964  -0.873   4.242   4.590 -0.2439 -0.2077 -1.0804
  711MOL0     H95965  -1.090   4.938   5.451  1.2702 -1.0314  0.5134
  711MOL0     H95966  -1.125   5.054   5.657  0.9393 -0.1664  2.7030
  711MOL0     H95967  -1.384   5.066   6.069 -0.8149 -1.4355  0.7570
  711MOL0     H95968  -1.408   5.169   6.297  0.8402 -0.5550  1.4316
  711MOL0     H95969  -0.137   4.849   6.959 -1.3882  3.1455  3.0060
  711MOL0     H95970   0.094   4.892   7.018  0.0046 -0.0276  0.2994
  711MOL0     H95971   0.536   4.663   7.102 -1.0746  0.3676 -0.3440
  711MOL0     H95972   0.751   4.656   7.216 -1.0753 -0.3314 -0.8176
  711MOL0     H95973   0.922   4.704   7.300 -3.6991 -4.6937  0.2856
  711MOL0     H95974   0.884   4.641   7.460  0.4878 -2.1636 -1.3230
  711MOL0     H95975   1.108   4.668   7.488 -3.2582 -0.9906 -0.3229
  711MOL0     H95976   1.030   4.794   7.569 -2.7163 -2.4187  1.1531
  711MOL0     H95977   1.150   4.823   7.282 -1.3824  1.0649 -1.0683
  711MOL0     H95978   1.224   4.880   7.432 -2.2756  2.0663  3.0472
  711MOL0     H95979   1.001   5.007   7.271  1.3736  0.6454 -1.6835
  711MOL0     H95980   1.016   5.034   7.456  0.3131  1.7902 -0.3947
  711MOL0     H95981   1.324   5.270   7.323  0.3014  0.1616  1.0125
  711MOL0     H95982   0.615   4.985   7.461 -2.1986 -1.7573  1.6336
  711MOL0     H95983   0.420   5.060   7.474  1.5797  1.8022 -1.1616
  711MOL0     H95984   0.348   5.077   7.313  1.9485  0.3304  0.1504
  711MOL0     H95985   0.279   4.957   7.428 -0.8212 -1.1005 -2.4363
  712MOL0     O95986  10.417   1.402   0.095  1.0344  0.3741 -0.2356
  712MOL0     C95987  10.406   1.481   0.183  1.0772  0.2017 -0.8872
  712MOL0     O95988  10.461   1.604   0.190 -0.5452 -0.0345 -0.1240
  712MOL0     C95989  10.549   1.653   0.095 -0.4713 -0.3630 -0.1172
  712MOL0     C95990  10.649   1.575   0.033  0.0736 -0.1408  0.3437
  712MOL0     C95991  10.736   1.629  -0.064 -0.5802  0.1595 -0.7787
  712MOL0     C95992  10.729   1.760  -0.105  0.7134  0.1179  0.5532
  712MOL0     O95993  10.809   1.808  -0.207  0.3009  0.7162 -0.4689
  712MOL0     C95994  10.734   1.883  -0.312  0.5699  0.2045  0.1953
  712MOL0     C95995  10.836   1.894  -0.425 -0.1588  0.7991  0.2936
  712MOL0     C95996  10.918   2.018  -0.422 -0.0260 -0.7087 -0.2442
  712MOL0     C95997  11.062   1.996  -0.464 -0.4011 -0.2764 -0.0916
  712MOL0     C95998  11.153   2.127  -0.470  0.3168  0.4518  0.2513
  712MOL0     C95999  11.271   2.117  -0.567 -0.6137  0.0113 -0.6036
  712MOL0     C96000  11.368   2.240  -0.540  0.0961  0.6821  1.0858
  712MOL0     C96001  11.474   2.236  -0.649  0.0443 -0.1142  0.3924
  712MOL0     N96002  11.565   2.348  -0.626  0.8518 -0.1213  0.5526
  712MOL0     C96003  11.540   2.484  -0.631  0.1519 -0.3594  0.2037
  712MOL0     C96004  11.656   2.544  -0.600 -0.5707 -0.1844  0.7813
  712MOL0     C96005  11.672   2.688  -0.604  1.1023 -0.0186 -0.2286
  712MOL0     C96006  11.807   2.751  -0.623 -0.6699  0.3126  0.2039
  712MOL0     C96007  11.895   2.751  -0.498 -0.2872 -0.4205 -0.2250
  712MOL0     C96008  12.034   2.822  -0.519 -0.0861 -0.8771 -0.1968
  712MOL0     O96009  12.122   2.784  -0.414  0.9114  0.7520  0.4414
  712MOL0     C96010  12.211   2.880  -0.372 -0.1157  0.1265  0.0383
  712MOL0     C96011  12.279   2.968  -0.465 -0.5500 -0.9882  0.1849
  712MOL0     C96012  12.365   3.067  -0.419 -1.5229  0.0553  0.7062
  712MOL0     C96013  12.391   3.079  -0.287 -0.9347  0.3458 -0.0036
  712MOL0     C96014  12.484   3.187  -0.235  0.5960  0.7362  0.6049
  712MOL0     O96015  12.511   3.181  -0.106 -0.0446  0.1728  0.1616
  712MOL0     C96016  12.581   3.287  -0.045 -0.1771  0.6934  0.6268
  712MOL0     C96017  12.716   3.300  -0.080 -0.1563  0.2638  0.1449
  712MOL0     C96018  12.788   3.395  -0.018 -0.6256 -0.3119  0.2447
  712MOL0     C96019  12.730   3.484   0.073  0.0559  0.1592  0.3912
  712MOL0     O96020  12.813   3.575   0.135  0.2081  0.3251 -0.2654
  712MOL0     C96021  12.765   3.710   0.135  0.5819  0.7124  0.0898
  712MOL0     C96022  12.871   3.804   0.169 -0.3892  0.0836  0.6615
  712MOL0     C96023  13.010   3.778   0.096 -0.3136  0.8564  0.4895
  712MOL0     C96024  13.109   3.899   0.118  0.8037  0.8927 -0.0126
  712MOL0     C96025  13.165   3.922   0.257  0.2986  0.9696 -0.1814
  712MOL0     C96026  13.220   3.783   0.310 -0.0191 -0.3717  0.7383
  712MOL0     C96027  13.275   3.790   0.455  0.2419 -0.7517  0.6959
  712MOL0     C96028  13.157   3.745   0.544 -0.4461 -0.5883  0.3848
  712MOL0    Cl96029  13.217   3.764   0.712  0.2878  0.2814 -0.1622
  712MOL0     C96030  12.596   3.463   0.106 -0.2219  0.2376 -0.9420
  712MOL0     C96031  12.522   3.369   0.045  0.0948  0.2828  0.6493
  712MOL0     O96032  12.531   3.272  -0.308 -0.4908  0.5497 -0.0126
  712MOL0     C96033  12.351   2.977  -0.196  1.1567 -0.0298 -0.4630
  712MOL0     C96034  12.260   2.879  -0.240  0.3917 -0.5432  0.9559
  712MOL0     N96035  11.748   2.439  -0.566  0.3786 -0.3164  0.7576
  712MOL0     N96036  11.683   2.335  -0.575 -0.0563  0.4335  0.2521
  712MOL0     C96037  10.632   1.839  -0.034 -0.0792 -1.4849 -0.8920
  712MOL0     C96038  10.545   1.782   0.057 -0.3463  0.0148 -1.4189
  712MOL0     C96039  10.322   1.452   0.306  0.0641 -0.3146  1.3373
  712MOL0     C96040  10.326   1.548   0.413  0.3141 -0.2176  0.3254
  712MOL0     C96041  10.247   1.529   0.521  0.3225 -0.4745  0.7280
  712MOL0     C96042  10.170   1.418   0.549  0.5234 -0.2406 -1.0059
  712MOL0     O96043  10.100   1.391   0.670 -0.0652 -0.5744  0.7709
  712MOL0     C96044   9.985   1.478   0.695  0.3410 -0.7588  0.1575
  712MOL0     C96045   9.859   1.387   0.721 -0.2710  0.9099  0.8796
  712MOL0     C96046   9.846   1.288   0.607 -0.2934  0.6159 -0.5490
  712MOL0     C96047   9.797   1.341   0.476 -0.4722 -0.1306 -0.3355
  712MOL0     C96048   9.725   1.247   0.388 -0.1950 -0.2284 -0.1892
  712MOL0     C96049   9.674   1.174   0.301  0.2657 -0.6533  0.1565
  712MOL0     C96050  10.170   1.317   0.447  0.8201 -0.6526  0.5732
  712MOL0     C96051  10.242   1.332   0.325 -0.4343 -0.6921 -0.2718
  712MOL0     C96052  10.236   1.225   0.222  0.2867 -0.0657  1.6337
  712MOL0     H96053  10.647   1.468   0.046  0.6544 -0.1991 -0.0254
  712MOL0     H96054  10.819   1.579  -0.113  1.9532  3.9849 -0.8015
  712MOL0     H96055  10.654   1.811  -0.333  0.1869  0.4312  0.8463
  712MOL0     H96056  10.700   1.981  -0.278  2.4318  0.5186  1.2688
  712MOL0     H96057  10.781   1.886  -0.520  0.2886 -0.6118  0.1273
  712MOL0     H96058  10.899   1.805  -0.428 -2.3844 -0.8536  0.0514
  712MOL0     H96059  10.930   2.054  -0.319 -2.2193  1.1801 -0.5712
  712MOL0     H96060  10.857   2.094  -0.472 -0.9574 -0.9613  0.4877
  712MOL0     H96061  11.112   1.928  -0.395  1.7293  1.0885 -0.1805
  712MOL0     H96062  11.058   1.948  -0.562 -2.7043 -1.6579  0.6141
  712MOL0     H96063  11.094   2.209  -0.510  1.1161  1.4019  0.9613
  712MOL0     H96064  11.189   2.152  -0.369  4.6203 -1.2794 -0.6462
  712MOL0     H96065  11.325   2.022  -0.556  1.2439  0.7077 -2.7785
  712MOL0     H96066  11.231   2.122  -0.669 -1.1904  2.6037 -0.3105
  712MOL0     H96067  11.408   2.216  -0.442  0.4326 -1.1519  0.5424
  712MOL0     H96068  11.313   2.334  -0.533  0.1234  0.8182 -0.1827
  712MOL0     H96069  11.532   2.144  -0.636 -1.2784 -1.0362  0.0179
  712MOL0     H96070  11.429   2.225  -0.748 -0.5739 -1.3022  0.7794
  712MOL0     H96071  11.451   2.537  -0.664 -0.3017 -0.3216  1.4572
  712MOL0     H96072  11.604   2.716  -0.685 -0.0593 -1.6314  0.1545
  712MOL0     H96073  11.616   2.731  -0.520  1.8536 -2.8355  1.8520
  712MOL0     H96074  11.858   2.700  -0.706 -1.9868  0.1727 -0.5569
  712MOL0     H96075  11.794   2.853  -0.659 -1.5887  0.4381  0.8579
  712MOL0     H96076  11.913   2.645  -0.475  0.8169 -1.1821 -3.9894
  712MOL0     H96077  11.841   2.801  -0.417 -3.0426  0.7648 -2.6333
  712MOL0     H96078  12.014   2.929  -0.510 -1.1209 -0.8489 -2.1495
  712MOL0     H96079  12.082   2.798  -0.614  2.5859 -1.2056  1.1437
  712MOL0     H96080  12.266   2.959  -0.572  1.1070 -1.9006  0.0343
  712MOL0     H96081  12.415   3.128  -0.494 -1.2802  1.6432  2.1234
  712MOL0     H96082  12.762   3.233  -0.152  0.9874 -1.6357  2.5043
  712MOL0     H96083  12.894   3.412  -0.032 -0.5533 -0.8965  0.0429
  712MOL0     H96084  12.718   3.747   0.043  1.5102  0.3039 -0.5609
  712MOL0     H96085  12.683   3.722   0.207 -0.8095  2.3311 -1.6694
  712MOL0     H96086  12.834   3.904   0.145 -2.9674 -0.5296  1.7043
  712MOL0     H96087  12.884   3.808   0.277  2.8728  3.4245  0.3529
  712MOL0     H96088  13.056   3.682   0.121  0.0323  0.9739  0.3173
  712MOL0     H96089  12.998   3.759  -0.012  1.8289 -3.9201  0.8457
  712MOL0     H96090  13.048   3.987   0.096 -0.9029 -0.7933 -2.4660
  712MOL0     H96091  13.198   3.891   0.054  1.7128 -1.8965  1.4321
  712MOL0     H96092  13.082   3.949   0.323 -0.6087 -0.7649 -0.5546
  712MOL0     H96093  13.247   3.994   0.256 -0.1830  1.5246 -1.1475
  712MOL0     H96094  13.147   3.703   0.298  1.6295 -1.7080 -1.0000
  712MOL0     H96095  13.302   3.746   0.247 -0.7454 -1.4439  0.3972
  712MOL0     H96096  13.303   3.894   0.474 -1.1114 -0.3086  0.3895
  712MOL0     H96097  13.359   3.722   0.470  2.6196  2.0574  1.1427
  712MOL0     H96098  13.060   3.795   0.543 -0.1548  0.0107  1.0664
  712MOL0     H96099  13.133   3.644   0.510  0.4459 -0.9881  0.9020
  712MOL0     H96100  12.536   3.520   0.177 -2.3285 -2.4062 -0.4662
  712MOL0     H96101  12.416   3.353   0.064  0.3781 -1.5005  0.9681
  712MOL0     H96102  12.381   2.969  -0.092  1.5107 -1.1970 -0.6458
  712MOL0     H96103  12.213   2.813  -0.167 -1.0580  0.6972  1.1811
  712MOL0     H96104  10.618   1.946  -0.047 -2.1579 -1.2376  2.1154
  712MOL0     H96105  10.462   1.836   0.102 -1.5967 -3.1753  0.4097
  712MOL0     H96106  10.381   1.642   0.421  1.4160 -0.9426  1.6784
  712MOL0     H96107  10.247   1.604   0.600 -0.2550 -0.4978  0.7507
  712MOL0     H96108   9.963   1.541   0.608 -3.5974 -2.5787 -0.3906
  712MOL0     H96109   9.992   1.539   0.786 -1.7493 -0.3890  0.1056
  712MOL0     H96110   9.768   1.447   0.735 -0.8564  0.3369 -0.3589
  712MOL0     H96111   9.868   1.317   0.804  0.9204 -0.6162 -0.4763
  712MOL0     H96112   9.776   1.215   0.650  1.2433  0.0685  1.1633
  712MOL0     H96113   9.942   1.236   0.591 -1.0759 -0.3402 -2.4740
  712MOL0     H96114   9.723   1.418   0.500  1.3579  1.8858 -0.8614
  712MOL0     H96115   9.881   1.393   0.430 -0.6258  1.3376  0.9364
  712MOL0     H96116   9.623   1.118   0.226 -3.4755  2.6561 -0.1006
  712MOL0     H96117  10.111   1.229   0.468  0.9641 -0.7193  0.6960
  712MOL0     H96118  10.202   1.271   0.129 -0.5391  5.3833  4.2114
  712MOL0     H96119  10.336   1.188   0.199  0.1298  0.5883 -0.2476
  712MOL0     H96120  10.171   1.146   0.261 -2.2231  0.5162 -1.0014
  713MOL0     O96121   3.518  10.514   1.486 -0.9096 -0.1497  0.0038
  713MOL0     C96122   3.410  10.540   1.434  0.2302 -0.3609 -0.4110
  713MOL0     O96123   3.293  10.522   1.497  0.4309  0.1488 -0.5011
  713MOL0     C96124   3.299  10.482   1.631  0.1839  0.6419 -0.0229
  713MOL0     C96125   3.247  10.572   1.724  0.0410 -0.0053 -0.1911
  713MOL0     C96126   3.231  10.526   1.861  0.2225  0.5516 -0.1610
  713MOL0     C96127   3.271  10.395   1.892 -0.5566 -0.3696  1.0335
  713MOL0     O96128   3.261  10.357   2.025 -0.2676 -0.3792  0.9745
  713MOL0     C96129   3.398  10.355   2.073  0.3345  0.2658 -1.3705
  713MOL0     C96130   3.412  10.286   2.203 -0.0807  0.5967 -0.4331
  713MOL0     C96131   3.390  10.133   2.174 -0.1182 -0.1495  0.0355
  713MOL0     C96132   3.393  10.038   2.298  0.0954  0.4708 -0.4652
  713MOL0     C96133   3.350   9.889   2.269 -1.1319  0.4256  0.3167
  713MOL0     C96134   3.272   9.844   2.391  0.3202 -0.2960 -0.2928
  713MOL0     C96135   3.366   9.836   2.512  0.0897 -0.5356  0.9260
  713MOL0     C96136   3.284   9.792   2.634 -0.2968 -0.4840  0.0093
  713MOL0     N96137   3.379   9.796   2.748 -0.6720  0.4507  1.1763
  713MOL0     C96138   3.461   9.691   2.781 -1.2521 -0.0927  0.1597
  713MOL0     C96139   3.580   9.738   2.841  1.2190  0.1061  1.0054
  713MOL0     C96140   3.705   9.664   2.861  0.3391  0.2780  0.3768
  713MOL0     C96141   3.673   9.551   2.958  0.7203 -0.6625  0.1060
  713MOL0     C96142   3.794   9.491   3.040 -0.1222  0.5898 -0.1736
  713MOL0     C96143   3.884   9.410   2.943  0.3329 -1.2257 -0.7838
  713MOL0     O96144   4.009   9.394   3.012  0.2404  0.7318  1.2375
  713MOL0     C96145   4.098   9.497   3.018 -1.3428  0.1944  0.3445
  713MOL0     C96146   4.085   9.626   2.960  0.5980  0.8663  0.8581
  713MOL0     C96147   4.185   9.725   2.966 -0.4252  0.2016 -0.2018
  713MOL0     C96148   4.303   9.708   3.045  0.9913 -0.1018 -0.5071
  713MOL0     C96149   4.390   9.819   3.085 -0.5510  0.1883  0.5404
  713MOL0     O96150   4.447   9.808   3.207  0.1943 -0.2593  0.0120
  713MOL0     C96151   4.539   9.906   3.249  1.4266  0.3391 -0.2073
  713MOL0     C96152   4.544  10.046   3.221  0.9225  0.5961 -0.4315
  713MOL0     C96153   4.646  10.123   3.272  0.5960  0.1252 -0.0816
  713MOL0     C96154   4.742  10.060   3.351 -0.7011 -1.2524  0.4131
  713MOL0     O96155   4.840  10.136   3.401 -0.0288  0.2014 -0.1995
  713MOL0     C96156   4.941  10.164   3.304  1.1855 -0.3963 -0.1471
  713MOL0     C96157   5.046  10.241   3.373 -0.1653  0.1778 -0.7914
  713MOL0     C96158   5.113  10.158   3.485  0.4490 -0.0592 -0.0747
  713MOL0     C96159   5.113  10.231   3.616  0.6793 -0.8013  0.2892
  713MOL0     C96160   5.192  10.157   3.725 -0.1829 -0.9762  0.1016
  713MOL0     C96161   5.319  10.226   3.755 -0.1321 -0.8823  0.4355
  713MOL0     C96162   5.394  10.166   3.873 -0.3034 -0.1348  0.3462
  713MOL0     C96163   5.492  10.262   3.922 -0.4357 -0.0799 -0.2760
  713MOL0    Cl96164   5.591  10.194   4.065 -0.5418 -0.0158  0.4261
  713MOL0     C96165   4.739   9.929   3.385  0.0146 -0.7414 -0.7492
  713MOL0     C96166   4.628   9.857   3.345  0.0502  0.1921  0.6185
  713MOL0     O96167   4.403   9.914   3.007 -0.1240  0.1299 -0.6802
  713MOL0     C96168   4.322   9.576   3.100  0.5845  0.0967  0.1057
  713MOL0     C96169   4.224   9.471   3.077  0.4659 -0.0417 -0.7062
  713MOL0     N96170   3.570   9.875   2.855  0.3638 -0.0304 -0.6867
  713MOL0     N96171   3.455   9.902   2.795 -0.6151 -0.3750 -0.3594
  713MOL0     C96172   3.338  10.315   1.796  0.4842 -1.7882 -0.2222
  713MOL0     C96173   3.344  10.351   1.668 -0.3197 -0.3620  0.4030
  713MOL0     C96174   3.406  10.569   1.293  0.3711  0.0698  0.2358
  713MOL0     C96175   3.280  10.550   1.231  0.3906  0.5509 -0.6750
  713MOL0     C96176   3.251  10.595   1.104  0.0839  0.6213  0.1142
  713MOL0     C96177   3.351  10.645   1.026  1.7202  0.4389  0.8751
  713MOL0     O96178   3.334  10.688   0.895  0.6980 -0.4036  0.4767
  713MOL0     C96179   3.200  10.719   0.851  0.1476 -0.1343 -0.0851
  713MOL0     C96180   3.210  10.756   0.707  0.1250 -1.1462  0.4909
  713MOL0     C96181   3.086  10.843   0.678 -0.9708  1.2888  0.6624
  713MOL0     C96182   3.052  10.862   0.525 -0.0160  0.5537 -0.2668
  713MOL0     C96183   3.165  10.932   0.447 -0.6268  0.2840 -0.5811
  713MOL0     C96184   3.242  11.013   0.401  0.8264 -0.5150 -0.5920
  713MOL0     C96185   3.477  10.646   1.079 -0.6280  0.2546  0.6761
  713MOL0     C96186   3.511  10.616   1.216 -0.6581  0.3107  0.9069
  713MOL0     C96187   3.643  10.660   1.276  0.0996  0.0466  0.2190
  713MOL0     H96188   3.217  10.674   1.701  4.0519  1.3696 -0.2167
  713MOL0     H96189   3.185  10.579   1.944  0.8614 -1.3525  1.5005
  713MOL0     H96190   3.472  10.314   2.004  1.3484 -1.5298  0.6746
  713MOL0     H96191   3.435  10.457   2.076 -1.9370  1.1185  0.0270
  713MOL0     H96192   3.335  10.320   2.273 -3.7077 -2.9829 -2.2254
  713MOL0     H96193   3.515  10.306   2.232 -0.5172  1.9556  0.2661
  713MOL0     H96194   3.463  10.093   2.103 -0.9896  0.4620 -1.2434
  713MOL0     H96195   3.293  10.117   2.126 -0.0822 -2.5850  0.5910
  713MOL0     H96196   3.488  10.054   2.350 -1.1826 -0.7714  2.4727
  713MOL0     H96197   3.321  10.079   2.369 -1.1140  0.7641 -1.8322
  713MOL0     H96198   3.292   9.873   2.178 -1.9085 -1.3030  1.0698
  713MOL0     H96199   3.442   9.840   2.237  0.4111  3.1420  0.2606
  713MOL0     H96200   3.182   9.903   2.410 -0.3445 -0.2872 -3.0854
  713MOL0     H96201   3.233   9.744   2.372  0.2372  0.1044 -2.4898
  713MOL0     H96202   3.402   9.937   2.535  0.8908 -0.3656 -0.8689
  713MOL0     H96203   3.448   9.770   2.481 -1.2652 -1.2188 -1.4495
  713MOL0     H96204   3.195   9.854   2.646 -1.2780 -2.2578  2.9136
  713MOL0     H96205   3.252   9.690   2.614  2.0492 -1.3479  0.4076
  713MOL0     H96206   3.438   9.592   2.742 -0.0940  0.3511 -1.7735
  713MOL0     H96207   3.750   9.625   2.769 -0.4301  2.1716 -0.8569
  713MOL0     H96208   3.776   9.738   2.901  0.4417  2.5686 -3.5145
  713MOL0     H96209   3.610   9.589   3.040  0.7625 -1.3798  0.4849
  713MOL0     H96210   3.612   9.474   2.910  1.1385 -0.1872 -1.2065
  713MOL0     H96211   3.773   9.414   3.115  3.7363 -0.7052 -0.1968
  713MOL0     H96212   3.843   9.572   3.096 -2.7842  3.1163 -1.2110
  713MOL0     H96213   3.889   9.446   2.840  2.2893  1.7976  0.2529
  713MOL0     H96214   3.835   9.312   2.934 -0.9259 -0.9009  1.8395
  713MOL0     H96215   4.010   9.657   2.888  2.4822  2.7010 -0.4260
  713MOL0     H96216   4.166   9.826   2.931 -0.6577  0.3415  0.3180
  713MOL0     H96217   4.463  10.094   3.168 -2.5304 -2.3066  1.6981
  713MOL0     H96218   4.648  10.229   3.249 -0.4037  0.2663  0.4185
  713MOL0     H96219   4.992  10.077   3.262  1.4712 -1.4897  2.2732
  713MOL0     H96220   4.892  10.218   3.223  0.0920  0.3177  0.9436
  713MOL0     H96221   5.127  10.268   3.305  1.0946  1.0947  0.9918
  713MOL0     H96222   5.002  10.338   3.398  1.5854  1.1832 -1.4562
  713MOL0     H96223   5.060  10.063   3.500  1.1488 -0.4730 -0.1737
  713MOL0     H96224   5.212  10.120   3.462 -0.6372 -3.4835  0.2732
  713MOL0     H96225   5.008  10.253   3.638  0.6502  0.6036 -1.1071
  713MOL0     H96226   5.154  10.329   3.591 -0.5195 -0.4785 -0.5175
  713MOL0     H96227   5.214  10.056   3.688 -0.3809 -0.7084 -0.7689
  713MOL0     H96228   5.130  10.148   3.815 -1.4195  0.4095 -0.5796
  713MOL0     H96229   5.386  10.218   3.669 -0.6490 -3.1740  0.1957
  713MOL0     H96230   5.298  10.330   3.782 -0.7952 -1.5892  2.9246
  713MOL0     H96231   5.433  10.066   3.852  0.4116 -0.6594  3.5937
  713MOL0     H96232   5.326  10.159   3.959 -1.4432 -2.5220 -0.6525
  713MOL0     H96233   5.561  10.297   3.844 -2.2752  5.9870  0.2550
  713MOL0     H96234   5.446  10.352   3.963 -0.8275 -1.0541  1.4984
  713MOL0     H96235   4.821   9.897   3.448  1.4984 -0.3493 -2.3995
  713MOL0     H96236   4.614   9.753   3.371  0.0820  0.0425  0.0476
  713MOL0     H96237   4.410   9.546   3.157  0.7592  0.4349  0.0161
  713MOL0     H96238   4.224   9.369   3.115 -5.0297 -0.3061 -0.7026
  713MOL0     H96239   3.373  10.218   1.830  0.6112 -1.4978  0.4833
  713MOL0     H96240   3.373  10.280   1.590 -2.5419 -0.6738 -0.1995
  713MOL0     H96241   3.192  10.521   1.289  0.7754  2.4760  0.9973
  713MOL0     H96242   3.153  10.577   1.062  0.2492  3.6752 -1.8494
  713MOL0     H96243   3.159  10.809   0.897 -2.0685 -0.0707 -1.9916
  713MOL0     H96244   3.133  10.634   0.866 -0.2076  0.0073 -0.7946
  713MOL0     H96245   3.216  10.670   0.640 -0.1540 -1.1419  0.4635
  713MOL0     H96246   3.300  10.814   0.685  0.3099 -1.2376  0.9897
  713MOL0     H96247   3.089  10.940   0.728  0.1335  0.8321  1.5139
  713MOL0     H96248   2.996  10.797   0.721 -0.9425 -0.1374 -0.6863
  713MOL0     H96249   3.014  10.771   0.479 -2.4377  1.1080  0.5025
  713MOL0     H96250   2.962  10.924   0.526  0.1317  0.9127 -2.8589
  713MOL0     H96251   3.306  11.092   0.366 -1.7834  1.1354 -1.8926
  713MOL0     H96252   3.550  10.666   1.002 -0.9570 -1.1945 -0.0468
  713MOL0     H96253   3.715  10.713   1.214 -0.8800  0.6013 -0.4762
  713MOL0     H96254   3.629  10.714   1.370  1.5665 -0.1300  0.5575
  713MOL0     H96255   3.698  10.570   1.306 -2.1228 -1.5768 -0.3471
  714MOL0     O96256   8.780   9.062   8.500  0.2280  0.1201  0.6799
  714MOL0     C96257   8.894   9.026   8.476 -0.5072 -0.7985  1.0498
  714MOL0     O96258   8.936   8.956   8.362 -0.1909  0.0927 -0.9028
  714MOL0     C96259   8.862   8.917   8.251  0.0656 -0.4552  0.8795
  714MOL0     C96260   8.882   8.802   8.178 -0.4376 -0.1667 -0.7360
  714MOL0     C96261   8.805   8.782   8.060  0.0001  0.2422 -0.2707
  714MOL0     C96262   8.710   8.863   8.002  0.4505  0.7034  0.5442
  714MOL0     O96263   8.651   8.820   7.888  0.9100  0.1748 -0.2334
  714MOL0     C96264   8.581   8.927   7.823  0.0199  0.6039 -0.0587
  714MOL0     C96265   8.500   8.910   7.687 -0.0770 -0.6268 -0.5583
  714MOL0     C96266   8.583   8.956   7.567  0.2941 -0.0576 -0.2967
  714MOL0     C96267   8.522   8.949   7.424  0.0939  0.3742 -0.9997
  714MOL0     C96268   8.496   8.806   7.374  0.5704 -0.5305  0.5484
  714MOL0     C96269   8.407   8.810   7.251  0.1990  0.1716 -0.6073
  714MOL0     C96270   8.347   8.669   7.215 -0.6357  0.5162  0.7750
  714MOL0     C96271   8.453   8.576   7.152 -0.2639 -0.9180 -0.4129
  714MOL0     N96272   8.404   8.438   7.140  0.5594 -0.8427  0.0833
  714MOL0     C96273   8.412   8.345   7.243  0.7986  0.0238 -0.3376
  714MOL0     C96274   8.386   8.228   7.178  0.1236  0.9928 -0.2525
  714MOL0     C96275   8.392   8.085   7.236  0.2848  0.2249  1.1501
  714MOL0     C96276   8.257   8.011   7.211 -0.2299 -0.3622 -0.2937
  714MOL0     C96277   8.145   8.059   7.290 -0.9828 -0.6369 -0.0941
  714MOL0     C96278   8.177   8.063   7.438  0.8584  0.3380  0.2899
  714MOL0     O96279   8.201   7.930   7.478  0.7198 -0.0984 -0.0436
  714MOL0     C96280   8.243   7.903   7.612 -0.2944  0.0055  0.4092
  714MOL0     C96281   8.289   8.008   7.707 -0.8082  0.9737  0.4323
  714MOL0     C96282   8.339   7.973   7.832  0.8732 -0.0249  0.9620
  714MOL0     C96283   8.364   7.842   7.866 -0.3516 -0.6575 -0.3638
  714MOL0     C96284   8.424   7.811   8.002  0.0293 -0.5778 -0.6325
  714MOL0     O96285   8.495   7.906   8.073  0.4460 -0.2141  0.3476
  714MOL0     C96286   8.567   7.852   8.182 -0.3631 -0.6213  1.0097
  714MOL0     C96287   8.699   7.909   8.208  1.1311  0.1320  1.0627
  714MOL0     C96288   8.765   7.884   8.328  0.6652 -0.2455 -0.3344
  714MOL0     C96289   8.711   7.795   8.422  0.1421  0.0946 -0.1670
  714MOL0     O96290   8.768   7.784   8.546  1.2599 -0.1818 -0.4324
  714MOL0     C96291   8.733   7.674   8.638  0.3882 -0.0637 -0.1526
  714MOL0     C96292   8.821   7.671   8.772 -0.3608  0.6724 -0.2632
  714MOL0     C96293   8.966   7.623   8.754  0.1088  0.2042 -0.0455
  714MOL0     C96294   9.038   7.647   8.884  0.1806 -0.1356 -0.6457
  714MOL0     C96295   9.176   7.597   8.877  0.1944  0.2723  0.3633
  714MOL0     C96296   9.224   7.561   9.015 -0.6905 -0.0602  0.8864
  714MOL0     C96297   9.376   7.538   9.019 -0.2782 -1.2427  0.1663
  714MOL0     C96298   9.423   7.551   9.165 -0.4502  0.5754 -0.2503
  714MOL0    Cl96299   9.591   7.501   9.161  0.1009  0.4851 -0.3922
  714MOL0     C96300   8.579   7.750   8.402 -0.0682  0.2984 -0.1379
  714MOL0     C96301   8.509   7.769   8.286  0.0213 -0.3111  0.2453
  714MOL0     O96302   8.391   7.698   8.042  0.7548 -0.1515  0.1961
  714MOL0     C96303   8.330   7.745   7.773 -0.2803  0.4037 -0.8194
  714MOL0     C96304   8.262   7.773   7.658 -0.3911 -0.1889 -1.0664
  714MOL0     N96305   8.354   8.258   7.047 -0.3268 -0.1922 -0.2296
  714MOL0     N96306   8.357   8.383   7.029  0.1741 -0.0030  1.3114
  714MOL0     C96307   8.695   8.987   8.072  0.5457 -0.2703 -0.0550
  714MOL0     C96308   8.769   9.012   8.193  0.0741  0.3219  0.0301
  714MOL0     C96309   8.987   9.088   8.562  0.2064 -0.1940  0.3107
  714MOL0     C96310   9.005   9.031   8.686  0.7526 -0.8201  0.6375
  714MOL0     C96311   9.084   9.091   8.785  0.0818  0.9825 -0.1015
  714MOL0     C96312   9.174   9.197   8.749  0.5075  0.0976 -0.3538
  714MOL0     O96313   9.263   9.259   8.828 -0.2930  0.3543 -0.0516
  714MOL0     C96314   9.297   9.195   8.948  0.7334  0.3389  0.0915
  714MOL0     C96315   9.369   9.299   9.040 -0.5036 -0.5890  0.2225
  714MOL0     C96316   9.512   9.309   9.010 -0.2684 -0.5880 -0.2841
  714MOL0     C96317   9.565   9.420   9.102  0.0284 -0.5804 -0.0368
  714MOL0     C96318   9.708   9.454   9.079  0.3568 -0.5014 -0.6049
  714MOL0     C96319   9.820   9.498   9.044  0.0333  0.2423 -0.2625
  714MOL0     C96320   9.148   9.253   8.615  0.0520  0.1787  0.4018
  714MOL0     C96321   9.057   9.201   8.517 -0.1653  0.1287 -0.3728
  714MOL0     C96322   9.030   9.261   8.373  0.3286  0.1881 -0.0390
  714MOL0     H96323   8.944   8.721   8.213 -3.0919 -1.3607  1.5766
  714MOL0     H96324   8.844   8.699   8.002 -0.8777 -1.7755  1.8538
  714MOL0     H96325   8.505   8.967   7.890 -5.2363 -2.7617 -3.3103
  714MOL0     H96326   8.656   9.005   7.803 -0.8613  1.5301  0.1566
  714MOL0     H96327   8.402   8.956   7.705  1.1255  1.2451  1.7720
  714MOL0     H96328   8.466   8.806   7.684 -0.7807 -0.4024 -0.6163
  714MOL0     H96329   8.670   8.890   7.558 -0.4421 -0.8091 -2.5242
  714MOL0     H96330   8.614   9.061   7.579  1.8955 -0.0655 -3.3335
  714MOL0     H96331   8.432   9.011   7.413 -1.1595 -1.4618 -1.5726
  714MOL0     H96332   8.597   8.996   7.359  1.3709  2.6100  1.8894
  714MOL0     H96333   8.587   8.750   7.349  0.0404 -1.9833  1.6823
  714MOL0     H96334   8.439   8.757   7.454  0.1350 -0.6701  0.1606
  714MOL0     H96335   8.325   8.877   7.275  1.3978  2.0475 -1.5508
  714MOL0     H96336   8.457   8.859   7.167  1.9530 -0.3288  0.0942
  714MOL0     H96337   8.263   8.678   7.145  0.3739  0.8883 -0.4174
  714MOL0     H96338   8.316   8.616   7.305  3.3164 -2.4461  0.6615
  714MOL0     H96339   8.474   8.614   7.051 -1.1174  1.7969  0.3496
  714MOL0     H96340   8.545   8.592   7.209  0.5631 -1.5492 -1.5199
  714MOL0     H96341   8.433   8.367   7.348 -4.7990  0.0490  1.0593
  714MOL0     H96342   8.450   8.017   7.172  0.5192  1.1861  0.3111
  714MOL0     H96343   8.437   8.078   7.335  3.3062 -3.0442 -0.2455
  714MOL0     H96344   8.227   8.031   7.107 -1.2013  3.0036  0.4916
  714MOL0     H96345   8.286   7.908   7.231  0.4159 -0.3788 -1.2459
  714MOL0     H96346   8.068   7.983   7.274  0.9352 -2.3248 -2.0579
  714MOL0     H96347   8.109   8.157   7.256  0.9314  0.7813  1.7179
  714MOL0     H96348   8.089   8.100   7.493 -0.9818  1.0083 -2.8317
  714MOL0     H96349   8.263   8.127   7.459 -1.1623  4.4614 -2.4545
  714MOL0     H96350   8.264   8.113   7.697 -0.8295  1.0188  0.9551
  714MOL0     H96351   8.365   8.048   7.905  0.8747 -0.4104  1.3671
  714MOL0     H96352   8.750   7.978   8.141 -3.1313  2.3980 -0.2369
  714MOL0     H96353   8.855   7.941   8.348 -1.5406  2.5087  2.9713
  714MOL0     H96354   8.631   7.676   8.678  0.2303 -0.7552 -0.5099
  714MOL0     H96355   8.734   7.582   8.579 -0.2473  0.4832 -1.0389
  714MOL0     H96356   8.824   7.771   8.816  1.3457  0.4775  0.1528
  714MOL0     H96357   8.784   7.588   8.832 -0.2952  0.1406 -0.9359
  714MOL0     H96358   8.966   7.514   8.744  3.4473  0.0824  0.3609
  714MOL0     H96359   9.019   7.673   8.674 -2.2721 -0.0266 -1.8858
  714MOL0     H96360   8.979   7.603   8.964 -0.2467 -0.5282 -1.1689
  714MOL0     H96361   9.033   7.753   8.910 -4.2877 -0.6814  1.6453
  714MOL0     H96362   9.240   7.673   8.831 -0.0911  0.0756 -0.3794
  714MOL0     H96363   9.193   7.511   8.811  2.4038  1.5250 -0.8174
  714MOL0     H96364   9.194   7.642   9.082  1.1287 -0.6082  2.4719
  714MOL0     H96365   9.176   7.465   9.037 -0.5098 -0.9798 -2.1985
  714MOL0     H96366   9.429   7.596   8.942 -2.6128 -1.2720 -1.6006
  714MOL0     H96367   9.388   7.434   8.987  0.9876 -0.4762 -2.1078
  714MOL0     H96368   9.416   7.657   9.192  2.7345  1.2789 -1.7594
  714MOL0     H96369   9.359   7.487   9.227  0.8443  1.3446  1.9982
  714MOL0     H96370   8.534   7.707   8.491  3.0813 -0.0976  1.4014
  714MOL0     H96371   8.409   7.729   8.271 -1.0624  2.6440 -1.1534
  714MOL0     H96372   8.364   7.645   7.796  0.3000  0.9416  0.7845
  714MOL0     H96373   8.243   7.686   7.595 -0.6982  1.7448 -3.8148
  714MOL0     H96374   8.614   9.056   8.049  0.6328 -0.0351  0.3486
  714MOL0     H96375   8.748   9.103   8.248  2.8043  2.1365 -1.6923
  714MOL0     H96376   8.956   8.937   8.708 -0.1239 -0.1970  1.4771
  714MOL0     H96377   9.078   9.040   8.881  1.9079 -0.7480 -0.8441
  714MOL0     H96378   9.361   9.112   8.917  0.0263  0.0497 -0.6299
  714MOL0     H96379   9.217   9.143   9.002  0.8852  0.5738  0.5466
  714MOL0     H96380   9.358   9.279   9.147 -2.3293 -0.1595  0.1463
  714MOL0     H96381   9.322   9.391   9.006 -1.1274 -1.6984 -2.1565
  714MOL0     H96382   9.525   9.333   8.904  0.3973 -5.8791 -1.6660
  714MOL0     H96383   9.573   9.220   9.030  1.6387  0.8193  0.4668
  714MOL0     H96384   9.521   9.514   9.067  1.8585  0.1524 -0.5205
  714MOL0     H96385   9.544   9.402   9.208 -1.5268  1.2933  0.0096
  714MOL0     H96386   9.912   9.541   9.010  0.7007 -1.1667 -0.3082
  714MOL0     H96387   9.205   9.338   8.580 -0.9741  1.8746  2.5935
  714MOL0     H96388   8.999   9.365   8.389 -0.2515 -0.1393  1.0655
  714MOL0     H96389   9.107   9.268   8.296  2.0874 -1.4704  1.4685
  714MOL0     H96390   8.941   9.210   8.333 -1.0845  0.7397  2.1926
  715MOL0     O96391   9.587   4.623   9.151 -0.2644  0.9671  0.2436
  715MOL0     C96392   9.625   4.526   9.222 -0.9088 -0.2818 -0.6350
  715MOL0     O96393   9.741   4.526   9.292  0.0693 -0.5294 -0.1729
  715MOL0     C96394   9.822   4.634   9.281 -0.4091 -0.7100 -0.6803
  715MOL0     C96395   9.859   4.706   9.391 -0.3392 -0.7922 -0.5415
  715MOL0     C96396   9.960   4.810   9.389 -0.4943  0.5439 -0.0619
  715MOL0     C96397  10.019   4.846   9.268 -0.6562 -0.0786  0.3595
  715MOL0     O96398  10.116   4.947   9.264 -0.1552 -0.4585  0.7622
  715MOL0     C96399  10.117   5.038   9.147 -0.5684  0.2179  0.4693
  715MOL0     C96400   9.981   5.109   9.133 -1.6440  0.3194 -0.8170
  715MOL0     C96401   9.973   5.234   9.036 -0.3336 -0.6205  0.0751
  715MOL0     C96402  10.015   5.370   9.098 -0.3685  0.0596  0.7252
  715MOL0     C96403  10.019   5.471   8.984 -0.0638 -0.9224 -0.0998
  715MOL0     C96404  10.013   5.617   9.038 -0.3872 -0.1482  1.0380
  715MOL0     C96405  10.134   5.654   9.124  0.0590  0.1759 -0.7910
  715MOL0     C96406  10.113   5.625   9.276 -0.2173  0.1807 -0.2306
  715MOL0     N96407  10.221   5.703   9.347  0.5123  0.2094  0.1334
  715MOL0     C96408  10.355   5.674   9.351  0.2532 -0.4422  0.1662
  715MOL0     C96409  10.413   5.751   9.451 -0.0782  0.7141  0.7636
  715MOL0     C96410  10.560   5.765   9.503  0.6450 -0.0258  0.1399
  715MOL0     C96411  10.639   5.864   9.425 -0.7147 -0.5099  0.4216
  715MOL0     C96412  10.592   6.016   9.422 -0.2055  0.0671 -0.1965
  715MOL0     C96413  10.591   6.078   9.551 -0.1060 -1.0601  0.1429
  715MOL0     O96414  10.723   6.074   9.610 -0.0756 -0.3893 -0.3043
  715MOL0     C96415  10.741   6.085   9.738 -0.6766 -0.3298 -1.2819
  715MOL0     C96416  10.870   6.055   9.795  0.4567 -0.3115 -0.2539
  715MOL0     C96417  10.891   6.067   9.934  0.3724 -0.0207 -0.0852
  715MOL0     C96418  10.782   6.101  10.019 -0.7616 -0.7625  0.4177
  715MOL0     C96419  10.785   6.094  10.162  0.3248 -1.1314  0.6305
  715MOL0     O96420  10.845   5.980  10.216  0.4227 -0.0928 -0.4290
  715MOL0     C96421  10.854   5.985  10.353 -0.8837  0.5710  0.2646
  715MOL0     C96422  10.739   6.002  10.428  0.8023  0.1675 -0.7044
  715MOL0     C96423  10.745   5.987  10.572  0.8581  0.5944  0.3835
  715MOL0     C96424  10.862   5.930  10.635 -0.1242 -0.2591 -0.8046
  715MOL0     O96425  10.872   5.912  10.772  0.0603  0.5111 -0.5825
  715MOL0     C96426  10.777   5.974  10.859 -0.5197 -0.0587 -0.6890
  715MOL0     C96427  10.801   6.130  10.867  0.8510  0.7904 -0.1910
  715MOL0     C96428  10.927   6.150  10.940 -0.5895 -0.2848 -0.0728
  715MOL0     C96429  10.939   6.296  10.962 -1.0278  0.9033  0.1747
  715MOL0     C96430  11.086   6.321  10.983  0.4851  0.1076 -0.2281
  715MOL0     C96431  11.110   6.472  11.002 -0.0887 -0.3243  0.1539
  715MOL0     C96432  11.080   6.513  11.144 -0.5933  0.0195 -0.5823
  715MOL0     C96433  11.005   6.645  11.152 -0.6615 -0.7302  0.0689
  715MOL0    Cl96434  10.837   6.620  11.169  0.4226  0.1474  0.1030
  715MOL0     C96435  10.972   5.895  10.551  0.3680 -0.0511  0.2305
  715MOL0     C96436  10.963   5.936  10.412 -0.3096  0.5053  0.3107
  715MOL0     O96437  10.739   6.191  10.230  0.1171  0.4706 -0.8256
  715MOL0     C96438  10.667   6.159   9.969  0.2920  0.4258 -0.0165
  715MOL0     C96439  10.654   6.151   9.826  0.1333 -0.2012  0.2490
  715MOL0     N96440  10.318   5.833   9.493  0.1252 -0.2074 -0.8589
  715MOL0     N96441  10.206   5.807   9.435  0.8675 -0.3126  0.4877
  715MOL0     C96442   9.981   4.773   9.157 -0.7880  0.6515  0.0207
  715MOL0     C96443   9.878   4.683   9.160 -0.1206  0.0211 -0.1038
  715MOL0     C96444   9.531   4.415   9.215 -0.3612  0.1417  0.5275
  715MOL0     C96445   9.453   4.384   9.094  0.0959  0.1364 -0.0323
  715MOL0     C96446   9.356   4.281   9.093 -0.2257  0.7290 -0.1176
  715MOL0     C96447   9.337   4.201   9.203 -0.5756  0.2681  0.7767
  715MOL0     O96448   9.249   4.099   9.210 -0.3750  0.6895  0.4115
  715MOL0     C96449   9.145   4.091   9.119 -0.4685 -0.3028  0.0339
  715MOL0     C96450   9.190   4.003   9.000  0.0631 -0.3945  1.3350
  715MOL0     C96451   9.094   4.043   8.888  0.6323  0.4013 -0.1669
  715MOL0     C96452   9.071   3.942   8.775  0.4010  0.0148  0.0245
  715MOL0     C96453   9.019   3.812   8.807  0.1221 -0.4188 -0.4917
  715MOL0     C96454   8.994   3.698   8.829 -0.7091  0.6149 -0.2497
  715MOL0     C96455   9.414   4.226   9.309 -1.0160 -0.2636 -1.0138
  715MOL0     C96456   9.503   4.327   9.324 -0.1278  0.1628  0.2121
  715MOL0     C96457   9.579   4.328   9.461 -0.2655 -0.0027  0.1994
  715MOL0     H96458   9.821   4.669   9.486 -1.3948  1.0156 -0.1934
  715MOL0     H96459   9.999   4.859   9.478  0.6147  0.0742 -0.2664
  715MOL0     H96460  10.193   5.116   9.157  0.9614 -0.8696 -1.7360
  715MOL0     H96461  10.118   4.998   9.045 -0.5176 -0.2683  0.6588
  715MOL0     H96462   9.964   5.130   9.239 -2.4015  0.1098 -0.8926
  715MOL0     H96463   9.911   5.031   9.102 -1.1406  0.7997 -3.3586
  715MOL0     H96464   9.869   5.238   9.002 -1.0316 -1.3615  1.9821
  715MOL0     H96465  10.041   5.223   8.951  1.0729  2.6610  0.6051
  715MOL0     H96466   9.934   5.404   9.163  0.1678 -0.7720  1.8646
  715MOL0     H96467  10.100   5.358   9.165 -0.7095  1.7970  1.5163
  715MOL0     H96468  10.109   5.451   8.925 -0.3592 -0.9440 -0.5516
  715MOL0     H96469   9.932   5.457   8.919 -0.2495  1.1811 -0.3422
  715MOL0     H96470  10.006   5.680   8.949 -2.2875  0.6726  1.7273
  715MOL0     H96471   9.918   5.638   9.087 -1.2248 -1.8835  0.2693
  715MOL0     H96472  10.150   5.762   9.125 -1.6070  0.4521 -0.3854
  715MOL0     H96473  10.227   5.608   9.090  0.1924 -0.1215 -0.0599
  715MOL0     H96474  10.015   5.672   9.287  0.2985  1.8798 -2.2746
  715MOL0     H96475  10.113   5.520   9.308  4.6821  0.4553  1.4978
  715MOL0     H96476  10.407   5.603   9.288  0.1203 -0.9468  0.6204
  715MOL0     H96477  10.548   5.793   9.608  0.7689 -4.2641  1.4499
  715MOL0     H96478  10.611   5.669   9.509  0.5991 -0.1140 -0.8237
  715MOL0     H96479  10.746   5.855   9.447 -0.1902 -0.0880 -1.7283
  715MOL0     H96480  10.640   5.833   9.320  2.1912  2.8223 -0.7481
  715MOL0     H96481  10.493   6.020   9.376  1.4476 -0.7709 -4.2033
  715MOL0     H96482  10.666   6.067   9.359 -0.1861 -0.0943 -0.3035
  715MOL0     H96483  10.515   6.038   9.620 -2.8160  0.9441 -1.4629
  715MOL0     H96484  10.565   6.184   9.543  2.5914 -0.2919  0.5482
  715MOL0     H96485  10.949   6.017   9.729  1.4302 -0.5794  1.0329
  715MOL0     H96486  10.985   6.024   9.968  0.6156  0.3963 -0.2078
  715MOL0     H96487  10.647   6.019  10.373  0.2372 -0.6237 -0.0378
  715MOL0     H96488  10.655   6.011  10.628  1.4834 -0.9059  2.1059
  715MOL0     H96489  10.675   5.952  10.826  0.4935 -3.8031 -1.7992
  715MOL0     H96490  10.792   5.933  10.960  1.2977  3.2104  0.5182
  715MOL0     H96491  10.809   6.175  10.767  0.9236  0.7052 -0.2217
  715MOL0     H96492  10.717   6.176  10.921 -1.9808 -2.6966 -1.2038
  715MOL0     H96493  10.932   6.096  11.035 -1.6458 -0.4654 -0.1042
  715MOL0     H96494  11.011   6.126  10.873 -0.0692  2.5220 -0.5462
  715MOL0     H96495  10.878   6.322  11.049 -1.3742 -2.8368  1.2512
  715MOL0     H96496  10.913   6.338  10.865  1.1914 -0.5507 -1.1737
  715MOL0     H96497  11.147   6.288  10.899 -0.9702  1.7620 -2.0285
  715MOL0     H96498  11.119   6.262  11.069 -0.1421 -2.6913 -1.8170
  715MOL0     H96499  11.218   6.483  10.991 -0.2739  1.1465 -0.4636
  715MOL0     H96500  11.074   6.541  10.925  1.0759  1.7166  1.3481
  715MOL0     H96501  11.172   6.522  11.202 -0.1411  1.4725 -1.4865
  715MOL0     H96502  11.012   6.439  11.188 -2.9995  2.3429 -0.1114
  715MOL0     H96503  11.033   6.703  11.241  0.2571  0.3124 -0.8713
  715MOL0     H96504  11.045   6.699  11.065  3.4641 -0.8321  1.6447
  715MOL0     H96505  11.055   5.844  10.600 -0.0649  0.5406  1.6434
  715MOL0     H96506  11.053   5.930  10.352 -0.1497  0.9748  0.4988
  715MOL0     H96507  10.592   6.210  10.028 -1.7773 -1.8308 -0.5701
  715MOL0     H96508  10.562   6.190   9.784  0.2951 -1.0548 -0.9461
  715MOL0     H96509  10.018   4.795   9.057  3.1293  2.8984  1.7112
  715MOL0     H96510   9.849   4.647   9.062 -0.5991  1.2954 -0.4493
  715MOL0     H96511   9.476   4.447   9.009  0.7871  4.0694  2.7636
  715MOL0     H96512   9.300   4.250   9.005  1.4458 -0.4297 -0.8165
  715MOL0     H96513   9.126   4.194   9.088  0.6032  0.9940  3.2848
  715MOL0     H96514   9.047   4.067   9.161 -1.6313  1.0295 -1.7510
  715MOL0     H96515   9.192   3.897   9.026  0.9178 -0.3477  1.4731
  715MOL0     H96516   9.290   4.035   8.972 -1.3147  4.1692  0.7840
  715MOL0     H96517   9.137   4.124   8.830  0.6634 -0.4645 -1.3810
  715MOL0     H96518   8.995   4.075   8.923  1.1474  2.3055 -0.3721
  715MOL0     H96519   8.989   3.982   8.713  0.0595 -3.0964 -1.7608
  715MOL0     H96520   9.158   3.910   8.717 -1.4818 -1.0903 -2.3934
  715MOL0     H96521   8.966   3.596   8.846  2.6692 -0.6776 -1.4620
  715MOL0     H96522   9.377   4.167   9.392  1.1976  1.1316  1.1262
  715MOL0     H96523   9.546   4.264   9.543  2.5948 -0.6166  0.9741
  715MOL0     H96524   9.687   4.310   9.453 -0.4750 -3.4492  3.0472
  715MOL0     H96525   9.566   4.433   9.488 -0.4518 -0.5642  2.4626
  716MOL0     O96526  10.183   2.594   2.935 -0.0977 -0.3980  0.7059
  716MOL0     C96527  10.236   2.651   2.840  0.2993 -1.1151 -0.4249
  716MOL0     O96528  10.291   2.778   2.848 -0.7512  0.2234 -0.1895
  716MOL0     C96529  10.221   2.878   2.907 -0.0205 -0.6140  0.5255
  716MOL0     C96530  10.285   2.977   2.980 -0.6037  0.6285  0.7095
  716MOL0     C96531  10.213   3.079   3.033 -0.4697 -0.1092 -0.3739
  716MOL0     C96532  10.073   3.085   3.030 -0.6726  0.4302 -0.0441
  716MOL0     O96533  10.020   3.191   3.087 -0.0637 -0.1958  0.0054
  716MOL0     C96534   9.887   3.166   3.137  0.0195 -0.2330 -0.0368
  716MOL0     C96535   9.835   3.281   3.218  0.2153  0.2935  0.0155
  716MOL0     C96536   9.778   3.402   3.135 -0.5977  0.0210 -0.3281
  716MOL0     C96537   9.668   3.354   3.047 -0.2171 -0.2874  0.0510
  716MOL0     C96538   9.587   3.482   2.996 -0.8011 -0.0600 -0.3119
  716MOL0     C96539   9.455   3.433   2.940 -0.2589 -0.3092  0.5855
  716MOL0     C96540   9.390   3.562   2.893  0.4182  0.3263 -0.1049
  716MOL0     C96541   9.232   3.551   2.898  0.3616  0.3272 -0.4766
  716MOL0     N96542   9.184   3.517   3.031 -0.2912  0.0177  0.0046
  716MOL0     C96543   9.194   3.588   3.143  0.5938  0.0317  0.2517
  716MOL0     C96544   9.104   3.541   3.231  0.3124 -0.1157  1.1434
  716MOL0     C96545   9.071   3.590   3.367  0.4871 -0.0613 -0.0800
  716MOL0     C96546   8.932   3.639   3.380 -0.1952 -0.0582  0.5438
  716MOL0     C96547   8.894   3.775   3.319 -0.3890  0.0775  0.2111
  716MOL0     C96548   8.740   3.791   3.329 -0.1658  0.1498 -0.4085
  716MOL0     O96549   8.692   3.804   3.460  0.6651 -0.9697  0.2055
  716MOL0     C96550   8.591   3.713   3.498  0.4783 -0.3199 -1.2653
  716MOL0     C96551   8.584   3.653   3.632 -0.5701 -0.3123  0.0525
  716MOL0     C96552   8.483   3.567   3.675  1.2468 -0.6278  0.3572
  716MOL0     C96553   8.373   3.548   3.594 -0.0096  0.7325  0.7459
  716MOL0     C96554   8.256   3.471   3.647 -0.6268 -0.5557 -0.3483
  716MOL0     O96555   8.263   3.434   3.781 -0.1453 -0.3119 -0.8522
  716MOL0     C96556   8.152   3.366   3.826 -0.0401 -0.4276  0.2028
  716MOL0     C96557   8.165   3.232   3.838  0.6633  0.8515  0.0435
  716MOL0     C96558   8.059   3.155   3.874 -0.1255  0.4512  1.3304
  716MOL0     C96559   7.929   3.207   3.869  0.6541  0.0092  0.7341
  716MOL0     O96560   7.831   3.127   3.914  0.5294  0.4381 -0.7568
  716MOL0     C96561   7.756   3.070   3.811 -0.4531  0.1553 -0.3814
  716MOL0     C96562   7.634   3.008   3.871 -0.7819 -0.4757 -0.0118
  716MOL0     C96563   7.534   3.099   3.949  0.0052 -0.2352  0.1266
  716MOL0     C96564   7.398   3.028   3.976  0.8252  0.4888  0.1926
  716MOL0     C96565   7.294   3.020   3.865  0.8848 -0.0634  0.6747
  716MOL0     C96566   7.162   2.971   3.927 -0.1731 -0.1091  0.0993
  716MOL0     C96567   7.166   2.817   3.940  0.1293 -0.2162 -0.3134
  716MOL0     C96568   7.044   2.762   3.996  0.7331  0.5595  0.4424
  716MOL0    Cl96569   7.027   2.767   4.178 -0.2656  0.3481  0.3784
  716MOL0     C96570   7.906   3.345   3.858 -0.2233  0.2350 -0.2441
  716MOL0     C96571   8.022   3.431   3.835  0.1213  0.0623  0.0117
  716MOL0     O96572   8.162   3.450   3.572 -0.0470 -0.0271 -0.3495
  716MOL0     C96573   8.383   3.594   3.462  0.4383  0.3274  0.8379
  716MOL0     C96574   8.485   3.672   3.414  1.3206 -0.2082 -0.5919
  716MOL0     N96575   9.046   3.432   3.175  1.1968  0.6260 -0.3266
  716MOL0     N96576   9.091   3.421   3.057 -0.0175  0.3546 -0.0246
  716MOL0     C96577  10.011   2.990   2.949  0.3977 -0.0944 -0.0919
  716MOL0     C96578  10.079   2.884   2.886 -0.5375 -0.2231  0.0206
  716MOL0     C96579  10.260   2.569   2.719  0.1817 -0.3455  0.0479
  716MOL0     C96580  10.369   2.609   2.640 -0.0855  0.1973  0.6556
  716MOL0     C96581  10.402   2.541   2.519  0.2984 -1.1486  0.4559
  716MOL0     C96582  10.345   2.421   2.494 -0.6271  0.2655  0.4051
  716MOL0     O96583  10.409   2.360   2.383 -0.1580 -0.5758 -0.1302
  716MOL0     C96584  10.371   2.221   2.366 -1.2576  0.1839  0.4426
  716MOL0     C96585  10.452   2.137   2.464 -0.6533 -0.1968  0.1803
  716MOL0     C96586  10.604   2.180   2.468 -0.4422  0.1921  0.1082
  716MOL0     C96587  10.672   2.148   2.344 -0.8485  0.0560 -0.4908
  716MOL0     C96588  10.808   2.182   2.361  0.2228 -0.0885  0.3060
  716MOL0     C96589  10.922   2.209   2.372 -0.5072 -0.5462  0.1548
  716MOL0     C96590  10.244   2.366   2.579  0.5853  0.0579 -0.2276
  716MOL0     C96591  10.194   2.443   2.690 -0.4555  0.5598  0.4605
  716MOL0     C96592  10.078   2.390   2.772 -0.8859  0.4387 -0.4623
  716MOL0     H96593  10.391   2.995   2.996 -0.8468  2.5873  0.3678
  716MOL0     H96594  10.253   3.163   3.089 -3.9881  1.3431  0.2347
  716MOL0     H96595   9.814   3.137   3.060 -0.9278 -1.0965  1.1565
  716MOL0     H96596   9.885   3.075   3.197 -0.1443 -1.4320 -1.7679
  716MOL0     H96597   9.925   3.319   3.268  0.4746 -0.1919 -0.0777
  716MOL0     H96598   9.758   3.251   3.289 -0.6883  1.8951 -0.2379
  716MOL0     H96599   9.841   3.470   3.077 -2.5374  0.2062 -2.4074
  716MOL0     H96600   9.736   3.471   3.209  1.0095  1.9684 -1.1247
  716MOL0     H96601   9.716   3.310   2.959  2.4836 -2.3997  2.3638
  716MOL0     H96602   9.611   3.276   3.099  1.3111 -1.0420  0.6581
  716MOL0     H96603   9.571   3.549   3.081  1.0811  0.3487 -0.2421
  716MOL0     H96604   9.644   3.537   2.922  0.3301  0.3085  0.8030
  716MOL0     H96605   9.463   3.363   2.856  0.5117  1.3802 -0.8252
  716MOL0     H96606   9.404   3.385   3.024 -1.9373  0.9623  0.3449
  716MOL0     H96607   9.430   3.580   2.793  0.3710  0.6894 -0.0595
  716MOL0     H96608   9.423   3.641   2.961  2.7886 -1.0410  0.4393
  716MOL0     H96609   9.187   3.646   2.869  1.4530  0.7723 -0.7702
  716MOL0     H96610   9.202   3.480   2.820  1.6878  0.2391 -0.9384
  716MOL0     H96611   9.246   3.683   3.155 -0.2214  0.9276 -2.4686
  716MOL0     H96612   9.091   3.509   3.438  1.5084  1.0471  0.9560
  716MOL0     H96613   9.155   3.656   3.391  0.2204 -0.5370  2.4251
  716MOL0     H96614   8.864   3.563   3.340  1.9713 -1.4596 -0.6533
  716MOL0     H96615   8.917   3.659   3.487  0.5250  0.6848  0.5127
  716MOL0     H96616   8.911   3.767   3.211  2.3193  1.3166  0.4694
  716MOL0     H96617   8.947   3.860   3.363 -1.6766  0.2849  1.4370
  716MOL0     H96618   8.703   3.708   3.268  2.0349 -0.6239 -0.7709
  716MOL0     H96619   8.711   3.884   3.279 -0.8271  0.1345 -0.0591
  716MOL0     H96620   8.672   3.675   3.692 -0.4874 -0.6737  0.0677
  716MOL0     H96621   8.470   3.520   3.772 -2.9424  0.3237  0.4627
  716MOL0     H96622   8.261   3.184   3.823  0.2312  0.7319 -3.0110
  716MOL0     H96623   8.080   3.051   3.893  1.4878  0.4332 -0.4015
  716MOL0     H96624   7.715   3.148   3.747 -3.4610 -1.6487 -0.8491
  716MOL0     H96625   7.814   2.990   3.764 -0.6697 -0.2074 -0.0344
  716MOL0     H96626   7.597   2.950   3.786 -0.2620 -2.4751  1.0388
  716MOL0     H96627   7.665   2.934   3.946  1.3641 -1.0151 -1.3634
  716MOL0     H96628   7.573   3.112   4.051  0.2189 -1.9340  0.3006
  716MOL0     H96629   7.519   3.188   3.889  1.1401 -1.3996 -1.9837
  716MOL0     H96630   7.357   3.083   4.061 -1.5897 -0.0705 -0.5266
  716MOL0     H96631   7.428   2.926   4.001 -0.2707 -0.7622 -3.0163
  716MOL0     H96632   7.325   2.945   3.791  0.6986  1.8123 -1.4390
  716MOL0     H96633   7.272   3.116   3.817  2.2563  0.3757  0.8619
  716MOL0     H96634   7.154   3.016   4.027 -0.4865  0.9354 -0.3784
  716MOL0     H96635   7.073   3.010   3.876  0.3460  0.2773 -0.5178
  716MOL0     H96636   7.246   2.790   4.009  0.3962  0.6397 -0.2832
  716MOL0     H96637   7.179   2.776   3.839  0.3708  1.7694 -1.1249
  716MOL0     H96638   6.961   2.819   3.954  1.2842 -0.0624 -1.6146
  716MOL0     H96639   7.040   2.657   3.964 -1.4549 -0.2766  3.0702
  716MOL0     H96640   7.805   3.385   3.863 -0.2630  0.4377 -1.9194
  716MOL0     H96641   8.001   3.535   3.814 -2.5756 -0.6876 -1.5222
  716MOL0     H96642   8.306   3.571   3.389  0.4485 -0.2523  1.0012
  716MOL0     H96643   8.481   3.687   3.306 -3.7492 -0.1256 -0.6236
  716MOL0     H96644   9.904   3.001   2.936  0.3831 -0.1058  0.0213
  716MOL0     H96645  10.037   2.803   2.827 -0.7809 -1.1756  1.4257
  716MOL0     H96646  10.421   2.700   2.668  1.2804 -1.0390  2.3631
  716MOL0     H96647  10.474   2.585   2.451  0.9281 -0.3899  1.5768
  716MOL0     H96648  10.394   2.190   2.264 -0.2005  2.3305 -0.0226
  716MOL0     H96649  10.264   2.201   2.382 -1.1152 -2.0342 -0.9793
  716MOL0     H96650  10.430   2.037   2.426  1.1540 -0.5506 -0.0327
  716MOL0     H96651  10.413   2.126   2.566 -0.6717  0.7214  0.2851
  716MOL0     H96652  10.648   2.113   2.542 -2.0563 -0.8733  0.1672
  716MOL0     H96653  10.607   2.287   2.489 -0.3609  0.0213  1.0134
  716MOL0     H96654  10.672   2.042   2.317  0.4083 -0.1602  0.2499
  716MOL0     H96655  10.630   2.215   2.268  0.5753  1.6747  0.0589
  716MOL0     H96656  11.025   2.240   2.381 -1.2430  1.5677  2.2551
  716MOL0     H96657  10.199   2.269   2.558 -0.3305  0.0188  1.6863
  716MOL0     H96658  10.012   2.477   2.784  0.0620  1.3256 -1.5325
  716MOL0     H96659  10.032   2.305   2.720  2.3824 -1.8622  0.1378
  716MOL0     H96660  10.109   2.343   2.866  2.0589  1.8035 -0.6429
  717MOL0     O96661   4.528   5.280   2.806  0.3525  0.6558  0.0431
  717MOL0     C96662   4.544   5.203   2.713 -0.2686 -0.4260 -0.4014
  717MOL0     O96663   4.441   5.156   2.632  0.3968  0.4140 -0.4707
  717MOL0     C96664   4.316   5.219   2.639  0.4196  0.0971 -1.1614
  717MOL0     C96665   4.304   5.354   2.607  0.3126 -0.0673 -0.1635
  717MOL0     C96666   4.186   5.420   2.624  0.0382  0.8502  0.6716
  717MOL0     C96667   4.066   5.360   2.667  0.3065 -0.0579  0.0334
  717MOL0     O96668   3.943   5.412   2.660  0.9663  0.2203 -0.2131
  717MOL0     C96669   3.881   5.402   2.530  0.8604 -0.4956  0.3210
  717MOL0     C96670   3.731   5.397   2.566  0.8406 -0.0871  0.4334
  717MOL0     C96671   3.634   5.430   2.460  0.6471 -0.4697 -0.0220
  717MOL0     C96672   3.493   5.439   2.517  1.2590 -0.1507  0.4593
  717MOL0     C96673   3.406   5.478   2.395 -0.8995 -0.4643  0.0215
  717MOL0     C96674   3.255   5.461   2.413  0.9423 -0.0357 -0.3050
  717MOL0     C96675   3.176   5.578   2.470 -0.0725  0.0191  0.6960
  717MOL0     C96676   3.196   5.709   2.382 -0.0954 -0.6849 -0.0463
  717MOL0     N96677   3.149   5.826   2.456  0.1506  0.2156 -0.2537
  717MOL0     C96678   3.015   5.861   2.481  0.1174  0.9151  0.1605
  717MOL0     C96679   3.014   5.978   2.555 -0.3334  0.7187  0.3987
  717MOL0     C96680   2.889   6.066   2.585  0.5132  0.2676 -0.8524
  717MOL0     C96681   2.932   6.189   2.658 -0.4572 -0.0097  0.1855
  717MOL0     C96682   2.819   6.260   2.729  0.3534  0.4893 -0.0900
  717MOL0     C96683   2.805   6.220   2.878  0.4144  1.1173  0.1756
  717MOL0     O96684   2.770   6.078   2.884 -0.7935 -0.3706  0.2238
  717MOL0     C96685   2.743   6.019   3.006 -0.0673  0.0139  0.5430
  717MOL0     C96686   2.681   5.891   3.010 -0.7746 -0.1306 -0.7392
  717MOL0     C96687   2.656   5.830   3.134 -1.0591  0.6125 -0.1344
  717MOL0     C96688   2.691   5.891   3.253  0.2258 -0.0005 -0.6284
  717MOL0     C96689   2.669   5.815   3.377 -0.3303 -0.5004 -0.4951
  717MOL0     O96690   2.615   5.682   3.366 -0.4907 -0.2088  1.0603
  717MOL0     C96691   2.604   5.623   3.481  0.0296  0.5517 -0.9811
  717MOL0     C96692   2.703   5.527   3.521  0.4864 -0.0566  0.7091
  717MOL0     C96693   2.686   5.453   3.640  0.2609 -1.3176 -0.8005
  717MOL0     C96694   2.579   5.490   3.725 -0.6570 -0.1459 -0.3762
  717MOL0     O96695   2.564   5.424   3.847 -0.2499  0.2391  0.3669
  717MOL0     C96696   2.542   5.511   3.960 -0.6919 -0.8859  0.4036
  717MOL0     C96697   2.568   5.436   4.101  0.1323  0.0087  1.2197
  717MOL0     C96698   2.513   5.524   4.214 -0.6670  0.3862 -0.7668
  717MOL0     C96699   2.570   5.458   4.352  0.5683 -0.2846 -0.3494
  717MOL0     C96700   2.474   5.514   4.462  0.2398  0.4975  0.6983
  717MOL0     C96701   2.494   5.462   4.598  0.3670  0.4501  0.3907
  717MOL0     C96702   2.396   5.523   4.706 -0.5360  0.2413 -0.0575
  717MOL0     C96703   2.457   5.503   4.850  0.1303 -0.3145  0.0905
  717MOL0    Cl96704   2.354   5.537   4.990  0.3937 -0.1300  0.3506
  717MOL0     C96705   2.485   5.583   3.685  0.3259  0.5660  0.6062
  717MOL0     C96706   2.506   5.647   3.561  0.4572 -0.8928  0.7872
  717MOL0     O96707   2.701   5.868   3.484  0.5347 -0.3417 -0.3771
  717MOL0     C96708   2.744   6.018   3.248  0.1120 -0.2259 -0.5392
  717MOL0     C96709   2.777   6.074   3.128 -0.3005 -0.7864 -0.4933
  717MOL0     N96710   3.147   6.004   2.591 -1.0487  0.8083  0.8081
  717MOL0     N96711   3.220   5.909   2.531 -0.7602  1.0116  0.3348
  717MOL0     C96712   4.079   5.223   2.704  0.6298  0.4887 -0.6342
  717MOL0     C96713   4.209   5.152   2.695  0.7726  0.2572 -0.5190
  717MOL0     C96714   4.690   5.169   2.674  0.3788  0.1700  0.7963
  717MOL0     C96715   4.717   5.050   2.607  0.2954  0.1775 -0.3821
  717MOL0     C96716   4.842   5.025   2.555 -0.1069  0.1930  0.1645
  717MOL0     C96717   4.952   5.118   2.557  0.8316  0.4667 -0.5315
  717MOL0     O96718   5.069   5.089   2.494  0.3008 -0.3529 -0.2567
  717MOL0     C96719   5.141   5.205   2.449 -0.2842  0.5818  0.3436
  717MOL0     C96720   5.227   5.185   2.319  0.2803 -0.1385  0.3840
  717MOL0     C96721   5.324   5.066   2.330 -0.2048  0.0062  0.0458
  717MOL0     C96722   5.454   5.110   2.405 -0.6465  0.1451  0.5901
  717MOL0     C96723   5.549   5.198   2.334 -1.0321  0.7223 -0.9166
  717MOL0     C96724   5.632   5.269   2.282 -0.1392 -0.3229 -0.0136
  717MOL0     C96725   4.921   5.235   2.631  0.3190 -0.4364 -0.8004
  717MOL0     C96726   4.790   5.268   2.677 -0.2947  0.1413 -0.6940
  717MOL0     C96727   4.775   5.408   2.733 -0.0003  0.8303 -0.0552
  717MOL0     H96728   4.393   5.389   2.556 -0.7663  0.0993 -2.0105
  717MOL0     H96729   4.174   5.524   2.596  0.7002  0.6933 -0.2558
  717MOL0     H96730   3.903   5.494   2.474  0.1276  0.5316  1.6448
  717MOL0     H96731   3.906   5.317   2.466 -2.1841  0.3697 -2.2575
  717MOL0     H96732   3.714   5.467   2.648 -0.6027 -0.1256  0.1915
  717MOL0     H96733   3.721   5.306   2.626 -0.1854 -0.2357  0.0608
  717MOL0     H96734   3.643   5.352   2.384  2.3616 -0.4809  0.1672
  717MOL0     H96735   3.666   5.526   2.418 -1.6620 -0.6288 -2.4529
  717MOL0     H96736   3.460   5.346   2.565  1.5571  0.1013  1.1644
  717MOL0     H96737   3.476   5.502   2.605 -2.8456 -0.0712 -0.1656
  717MOL0     H96738   3.436   5.582   2.377 -0.6643 -0.6986 -1.0503
  717MOL0     H96739   3.438   5.428   2.303 -1.2337  0.3512 -0.5536
  717MOL0     H96740   3.203   5.449   2.317  1.3797 -1.7632 -0.3648
  717MOL0     H96741   3.239   5.372   2.475  1.1196 -0.5469 -0.9854
  717MOL0     H96742   3.200   5.590   2.575  0.6437  2.4847  0.3175
  717MOL0     H96743   3.072   5.547   2.456  0.2742 -1.1402  0.6203
  717MOL0     H96744   3.303   5.723   2.367 -0.0966 -0.2183  0.3617
  717MOL0     H96745   3.154   5.707   2.281 -0.6439  1.3339  0.0946
  717MOL0     H96746   2.929   5.811   2.436 -0.3238  0.4264  1.4987
  717MOL0     H96747   2.832   6.096   2.496 -0.9926  1.5053  0.4552
  717MOL0     H96748   2.819   6.008   2.646  1.0396 -0.2176 -0.7052
  717MOL0     H96749   3.019   6.171   2.723 -0.6576 -1.5531  0.0819
  717MOL0     H96750   2.964   6.259   2.581  4.7805 -3.8629 -1.7778
  717MOL0     H96751   2.723   6.231   2.686 -0.5768 -0.7170  2.5935
  717MOL0     H96752   2.821   6.370   2.732 -1.6064  0.5342  1.4625
  717MOL0     H96753   2.731   6.278   2.935  1.3604  2.0554  0.4941
  717MOL0     H96754   2.898   6.232   2.934 -0.0929 -1.2065  1.6495
  717MOL0     H96755   2.666   5.842   2.914 -0.5948  2.6026 -2.2545
  717MOL0     H96756   2.623   5.728   3.149  0.3984  0.0599 -0.5473
  717MOL0     H96757   2.791   5.514   3.457  0.1704  1.4501 -0.0723
  717MOL0     H96758   2.759   5.382   3.677  3.6592  2.2595  0.0752
  717MOL0     H96759   2.602   5.601   3.948 -1.3793 -0.5663 -0.8705
  717MOL0     H96760   2.436   5.539   3.962 -0.2952  0.6601  1.2235
  717MOL0     H96761   2.513   5.341   4.098 -0.0843  0.1358  1.0562
  717MOL0     H96762   2.674   5.411   4.104  0.0815 -0.6259 -0.6934
  717MOL0     H96763   2.556   5.624   4.217  0.2669  0.0072  2.3330
  717MOL0     H96764   2.406   5.542   4.214 -0.8131 -0.0165  2.2358
  717MOL0     H96765   2.674   5.482   4.376 -0.5016  2.6559  1.9283
  717MOL0     H96766   2.555   5.349   4.349  0.2195 -0.3180  1.2830
  717MOL0     H96767   2.372   5.489   4.428  0.3516 -1.2705  1.5499
  717MOL0     H96768   2.468   5.623   4.455  0.4908  0.4097 -2.3578
  717MOL0     H96769   2.481   5.353   4.591  0.8596  0.5004 -2.2726
  717MOL0     H96770   2.596   5.474   4.636 -0.3213  2.2764  1.7754
  717MOL0     H96771   2.302   5.467   4.700  0.2845 -1.1916 -0.1849
  717MOL0     H96772   2.376   5.630   4.697 -1.1465  0.1505  0.1623
  717MOL0     H96773   2.493   5.401   4.863 -0.8185 -1.1231 -2.7809
  717MOL0     H96774   2.547   5.565   4.855 -1.0513  1.6430 -1.2267
  717MOL0     H96775   2.388   5.598   3.731  1.2809  2.7008  2.0509
  717MOL0     H96776   2.425   5.715   3.536  1.6024  0.2535  0.1045
  717MOL0     H96777   2.764   6.075   3.338 -0.5166  0.2256 -0.6745
  717MOL0     H96778   2.818   6.174   3.123 -0.6559 -0.5659  0.6955
  717MOL0     H96779   3.990   5.173   2.744  0.8021 -0.6161 -1.5933
  717MOL0     H96780   4.213   5.048   2.726  0.0388  1.5716  4.8963
  717MOL0     H96781   4.634   4.981   2.597  1.9148 -1.7285 -1.4831
  717MOL0     H96782   4.862   4.929   2.508 -2.5638 -1.0165  1.3801
  717MOL0     H96783   5.211   5.229   2.530  0.7438 -1.4586  0.1066
  717MOL0     H96784   5.074   5.287   2.421  0.5394  0.3936 -2.5391
  717MOL0     H96785   5.277   5.278   2.290  1.7313 -0.7247  0.9237
  717MOL0     H96786   5.152   5.152   2.247  1.0981  1.1533 -1.1356
  717MOL0     H96787   5.335   5.022   2.230  0.2649  0.8786 -0.2987
  717MOL0     H96788   5.268   4.989   2.385 -1.6828  0.9243 -0.1261
  717MOL0     H96789   5.430   5.156   2.501 -2.2597 -1.9949  1.2800
  717MOL0     H96790   5.500   5.014   2.429 -2.9015 -0.9638  0.7268
  717MOL0     H96791   5.700   5.322   2.218  1.0854 -3.5989 -1.6413
  717MOL0     H96792   4.997   5.311   2.647  0.9564 -0.2216 -4.1230
  717MOL0     H96793   4.852   5.468   2.683  0.5894  0.2080  0.0938
  717MOL0     H96794   4.683   5.467   2.729  0.0810  1.0166 -4.0274
  717MOL0     H96795   4.800   5.404   2.839 -0.2532  2.9562  0.1409
  718MOL0     O96796   2.432  11.359   3.152  0.4148  0.0033  0.3466
  718MOL0     C96797   2.443  11.477   3.110  0.4079  0.0068 -0.8854
  718MOL0     O96798   2.339  11.544   3.056 -0.4247  0.1688 -0.1424
  718MOL0     C96799   2.214  11.500   3.066  0.8164 -0.2613 -0.7782
  718MOL0     C96800   2.132  11.476   2.955  0.4106 -0.2790  0.3786
  718MOL0     C96801   1.995  11.458   2.972 -0.3143 -0.2647 -0.5094
  718MOL0     C96802   1.938  11.461   3.105  0.2090  1.3159  0.4265
  718MOL0     O96803   1.800  11.433   3.128 -0.0490 -0.3835 -0.1476
  718MOL0     C96804   1.706  11.407   3.024 -1.0053 -0.8923 -0.3710
  718MOL0     C96805   1.601  11.312   3.067  0.6131 -0.1014 -0.6695
  718MOL0     C96806   1.654  11.172   3.091  0.5927  0.3732  0.9504
  718MOL0     C96807   1.549  11.091   3.165 -0.5307  0.6746 -0.6894
  718MOL0     C96808   1.610  10.958   3.218  1.1199  0.2173 -0.5730
  718MOL0     C96809   1.517  10.894   3.317  0.4298  0.2320  0.4417
  718MOL0     C96810   1.579  10.766   3.380 -0.7456  0.6602 -0.5567
  718MOL0     C96811   1.486  10.678   3.463 -0.0560 -0.7552  0.6794
  718MOL0     N96812   1.568  10.585   3.536 -0.2113  0.1246  0.0641
  718MOL0     C96813   1.636  10.467   3.501  1.0048 -0.4608 -0.0064
  718MOL0     C96814   1.700  10.419   3.617  0.4834 -0.4880 -0.7592
  718MOL0     C96815   1.784  10.304   3.631  0.7065  0.0580 -0.1100
  718MOL0     C96816   1.904  10.316   3.541 -0.7145  0.1007 -0.0135
  718MOL0     C96817   2.012  10.205   3.571  1.1932 -0.4975  1.3188
  718MOL0     C96818   2.141  10.226   3.499 -1.1392 -0.7103  0.4720
  718MOL0     O96819   2.241  10.160   3.572 -0.4128 -0.4594  0.3148
  718MOL0     C96820   2.365  10.152   3.517  1.1198  0.1087  0.1814
  718MOL0     C96821   2.412  10.260   3.437 -0.1166  0.7225  0.5793
  718MOL0     C96822   2.553  10.248   3.398  0.6977  0.5948 -0.3742
  718MOL0     C96823   2.629  10.146   3.447  0.6828 -0.1333  0.0855
  718MOL0     C96824   2.771  10.146   3.411  0.0454 -0.1806  0.6220
  718MOL0     O96825   2.837  10.267   3.361  0.7778  0.4086 -0.0948
  718MOL0     C96826   2.967  10.260   3.322  0.0684 -0.5610 -0.8906
  718MOL0     C96827   3.076  10.270   3.418  0.3476 -1.0355  0.2264
  718MOL0     C96828   3.207  10.283   3.378 -0.2518  1.0223  0.1292
  718MOL0     C96829   3.232  10.286   3.235 -0.1342 -0.7367  0.2052
  718MOL0     O96830   3.362  10.297   3.198 -0.0201 -0.4726  0.3167
  718MOL0     C96831   3.399  10.265   3.071  0.2519  0.1206 -0.8025
  718MOL0     C96832   3.545  10.222   3.040  0.3659 -0.2916  0.2814
  718MOL0     C96833   3.637  10.344   3.052 -0.1402  0.3490  0.8990
  718MOL0     C96834   3.668  10.407   3.189 -0.7559  1.3243  0.0310
  718MOL0     C96835   3.668  10.307   3.303 -0.5570 -0.2288  0.1570
  718MOL0     C96836   3.720  10.378   3.423 -0.7130 -0.3264 -0.1271
  718MOL0     C96837   3.763  10.279   3.530  0.8499  0.8991 -0.2857
  718MOL0     C96838   3.807  10.342   3.667 -0.7347 -0.3664  0.2178
  718MOL0    Cl96839   3.874  10.221   3.788 -0.0204  0.6663  0.4084
  718MOL0     C96840   3.123  10.275   3.137 -0.7055 -0.0891  0.1129
  718MOL0     C96841   2.992  10.260   3.186  0.8575  0.0257  0.1877
  718MOL0     O96842   2.825  10.044   3.430  0.0582  0.1465 -0.3068
  718MOL0     C96843   2.565  10.042   3.517 -0.0432 -1.0645  0.3713
  718MOL0     C96844   2.438  10.047   3.554  0.3024  0.2701  1.1328
  718MOL0     N96845   1.671  10.508   3.721 -0.4153 -0.1386  0.3315
  718MOL0     N96846   1.592  10.599   3.667  0.1727 -0.7765  0.3613
  718MOL0     C96847   2.020  11.463   3.218  0.0495  1.2559  0.3973
  718MOL0     C96848   2.154  11.487   3.201  0.2688 -0.5526 -0.0285
  718MOL0     C96849   2.575  11.529   3.095 -0.1807 -0.7110  0.6911
  718MOL0     C96850   2.661  11.548   3.208 -0.1864 -0.1534 -0.1946
  718MOL0     C96851   2.790  11.615   3.190  0.7479  0.0154 -0.4020
  718MOL0     C96852   2.831  11.663   3.068  0.0425 -0.3111 -0.0570
  718MOL0     O96853   2.961  11.707   3.051 -0.1020 -0.3279 -0.2326
  718MOL0     C96854   3.030  11.674   2.938  0.1201  0.7783 -0.1746
  718MOL0     C96855   3.183  11.677   2.977 -0.3620  0.0890 -0.8048
  718MOL0     C96856   3.222  11.822   3.007  0.1407 -0.4880  0.2960
  718MOL0     C96857   3.371  11.829   3.050  0.0355  0.5696  0.2011
  718MOL0     C96858   3.458  11.855   2.937 -0.3284 -0.0385  0.2752
  718MOL0     C96859   3.540  11.909   2.864  0.1498 -0.2930  0.7014
  718MOL0     C96860   2.748  11.639   2.957 -0.7773  0.9222 -0.2686
  718MOL0     C96861   2.626  11.573   2.973  0.3209  0.3758  0.2750
  718MOL0     C96862   2.536  11.563   2.848 -0.8230  0.1564 -0.1478
  718MOL0     H96863   2.170  11.494   2.855  0.7398  0.0296  0.5568
  718MOL0     H96864   1.930  11.450   2.885  0.0974  1.1187 -0.9678
  718MOL0     H96865   1.662  11.502   2.996  0.4731  1.0555  3.1960
  718MOL0     H96866   1.761  11.365   2.939  0.0785 -0.3650  0.0542
  718MOL0     H96867   1.512  11.315   3.002 -0.1049 -2.1439  0.1063
  718MOL0     H96868   1.567  11.350   3.164  0.4913 -0.9960 -0.3463
  718MOL0     H96869   1.746  11.179   3.149  0.9728 -0.9592  0.5372
  718MOL0     H96870   1.661  11.118   2.996 -2.5350  2.1742 -0.4801
  718MOL0     H96871   1.507  11.144   3.251  0.2253  0.4973 -0.2020
  718MOL0     H96872   1.468  11.064   3.097 -1.2527 -1.0213  0.7507
  718MOL0     H96873   1.629  10.905   3.124 -0.0326  0.5534 -1.0106
  718MOL0     H96874   1.704  10.988   3.265  1.3310  0.2976 -1.0389
  718MOL0     H96875   1.496  10.970   3.393  0.2617 -1.4018  2.1247
  718MOL0     H96876   1.423  10.858   3.275 -0.3818  0.4574  1.9822
  718MOL0     H96877   1.652  10.809   3.450  0.5546 -3.1193  0.6734
  718MOL0     H96878   1.635  10.704   3.310  0.6445 -0.0472  1.1052
  718MOL0     H96879   1.435  10.748   3.530 -0.4540  2.1081 -2.3155
  718MOL0     H96880   1.418  10.625   3.396  0.9692  0.0811 -1.1144
  718MOL0     H96881   1.651  10.439   3.398  1.6378 -0.7048  0.1452
  718MOL0     H96882   1.808  10.310   3.737  1.8680  1.2742 -0.4191
  718MOL0     H96883   1.727  10.213   3.609 -1.7067  0.8211  2.4112
  718MOL0     H96884   1.861  10.309   3.440  0.2895  0.0334 -0.4486
  718MOL0     H96885   1.952  10.413   3.553  0.3504 -0.3752 -0.3044
  718MOL0     H96886   1.967  10.107   3.556  2.1382 -0.9230  1.1874
  718MOL0     H96887   2.014  10.212   3.680 -2.6687 -0.0034  1.4999
  718MOL0     H96888   2.158  10.334   3.508  2.4497 -1.0330 -0.6529
  718MOL0     H96889   2.136  10.199   3.394  1.6339  3.6067 -1.0387
  718MOL0     H96890   2.352  10.345   3.403  1.1141  1.1144 -0.7184
  718MOL0     H96891   2.603  10.330   3.347  0.3325  0.7503 -0.4892
  718MOL0     H96892   3.046  10.271   3.523  1.7756  1.7697  0.7037
  718MOL0     H96893   3.293  10.274   3.443  0.5170  0.4747 -0.9270
  718MOL0     H96894   3.340  10.178   3.041 -1.8584  1.6239 -1.2343
  718MOL0     H96895   3.370  10.350   3.009 -3.1794 -1.4068 -1.4886
  718MOL0     H96896   3.589  10.135   3.090  3.0042  1.4723  1.2637
  718MOL0     H96897   3.531  10.204   2.933 -1.7381  1.0308  0.2892
  718MOL0     H96898   3.727  10.326   2.993 -1.1145 -1.0153 -0.2245
  718MOL0     H96899   3.569  10.417   3.008 -0.6724 -0.4064  0.4356
  718MOL0     H96900   3.588  10.476   3.215 -1.5162  0.1582  0.8828
  718MOL0     H96901   3.763  10.462   3.179  2.7230 -3.9342  0.1554
  718MOL0     H96902   3.735  10.228   3.267 -0.6109  0.0782 -0.6518
  718MOL0     H96903   3.575  10.252   3.323 -0.0007 -1.6897 -1.0174
  718MOL0     H96904   3.802  10.448   3.403 -0.0295 -1.0007  0.2619
  718MOL0     H96905   3.633  10.433   3.460 -1.4579 -0.3408 -1.7651
  718MOL0     H96906   3.847  10.225   3.484 -0.5275 -1.9136  0.2611
  718MOL0     H96907   3.678  10.215   3.556 -0.1013  2.9059  1.8769
  718MOL0     H96908   3.889  10.412   3.652 -2.1890  1.5213  0.6228
  718MOL0     H96909   3.717  10.399   3.695 -0.6819  1.4130 -2.7464
  718MOL0     H96910   3.140  10.271   3.030  0.9233  2.3152  0.2206
  718MOL0     H96911   2.912  10.269   3.113  0.6833  1.9223  0.5642
  718MOL0     H96912   2.622   9.953   3.542  2.4897 -1.1244 -4.4961
  718MOL0     H96913   2.394   9.973   3.619 -0.2643  0.7795  1.3386
  718MOL0     H96914   1.990  11.462   3.323 -0.8310  0.6389  0.1506
  718MOL0     H96915   2.215  11.512   3.288 -2.7999  1.7687  1.6649
  718MOL0     H96916   2.619  11.542   3.308 -3.3259  7.4318 -0.4070
  718MOL0     H96917   2.861  11.608   3.272  1.7951 -2.6652 -1.4164
  718MOL0     H96918   3.012  11.752   2.863 -0.8063  0.6187 -0.1250
  718MOL0     H96919   2.995  11.583   2.889  2.7479  0.2302 -1.1971
  718MOL0     H96920   3.255  11.648   2.899  5.2678  0.5737  3.5626
  718MOL0     H96921   3.199  11.605   3.058 -0.4993  0.6697 -0.2526
  718MOL0     H96922   3.160  11.843   3.095 -0.0873  0.1672 -0.0102
  718MOL0     H96923   3.214  11.889   2.921 -0.1759  1.5546  1.8323
  718MOL0     H96924   3.382  11.897   3.135  4.2534 -0.9438  1.1523
  718MOL0     H96925   3.390  11.726   3.081  1.6665  1.0290  0.8252
  718MOL0     H96926   3.604  11.953   2.789 -1.3794 -2.8516 -2.3261
  718MOL0     H96927   2.771  11.680   2.859  0.0729  0.8253 -0.1257
  718MOL0     H96928   2.592  11.582   2.756  1.6417 -3.5169  0.3772
  718MOL0     H96929   2.487  11.467   2.833 -0.6544  0.3397 -2.1757
  718MOL0     H96930   2.460  11.642   2.859 -0.3493  0.2970  2.9099
  719MOL0     O96931   8.583   4.197   8.271  0.3141  0.3435  0.5162
  719MOL0     C96932   8.499   4.250   8.191  0.2667  0.1431 -1.8972
  719MOL0     O96933   8.536   4.330   8.085  0.5343  0.1315 -0.3016
  719MOL0     C96934   8.646   4.412   8.088 -0.4341 -0.4443 -0.3813
  719MOL0     C96935   8.644   4.527   8.012 -0.6125  0.9002  0.0158
  719MOL0     C96936   8.752   4.611   8.004  0.7654 -0.2653  0.2467
  719MOL0     C96937   8.871   4.588   8.064 -1.1921 -0.4347 -0.4701
  719MOL0     O96938   8.983   4.665   8.056 -0.7014  0.0755  0.0229
  719MOL0     C96939   8.969   4.806   8.042  0.3683  0.4568 -0.4383
  719MOL0     C96940   9.098   4.885   8.027 -0.3347 -0.6087  0.6106
  719MOL0     C96941   9.190   4.857   8.145 -0.7590 -0.0375  0.2965
  719MOL0     C96942   9.210   4.972   8.250 -0.3569  0.0752  1.6655
  719MOL0     C96943   9.314   4.946   8.365  1.4965 -0.2155 -0.3325
  719MOL0     C96944   9.287   4.823   8.454 -0.6576 -0.0131  0.0689
  719MOL0     C96945   9.410   4.802   8.546  0.0388 -0.4621 -0.7038
  719MOL0     C96946   9.417   4.890   8.672 -0.0863  0.1400  0.2152
  719MOL0     N96947   9.300   4.880   8.763 -0.0196 -0.8132  1.0509
  719MOL0     C96948   9.292   4.779   8.859 -0.1325 -0.5234  0.1179
  719MOL0     C96949   9.187   4.822   8.941  0.1676  0.1783  0.7695
  719MOL0     C96950   9.157   4.741   9.065 -0.5012 -0.4268 -0.1497
  719MOL0     C96951   9.010   4.695   9.081  0.4579  0.2148 -0.4827
  719MOL0     C96952   8.978   4.645   9.221 -0.6231 -0.7006  0.8713
  719MOL0     C96953   8.843   4.574   9.227  0.9520 -0.6198  0.0515
  719MOL0     O96954   8.846   4.454   9.154  0.2013 -1.0975 -0.9159
  719MOL0     C96955   8.725   4.383   9.167  0.2964  0.9779  0.2983
  719MOL0     C96956   8.732   4.239   9.147 -0.9031 -0.0763 -0.2267
  719MOL0     C96957   8.615   4.160   9.150  0.5538  0.2597  0.1826
  719MOL0     C96958   8.497   4.217   9.192  0.8228 -0.4173  0.3511
  719MOL0     C96959   8.374   4.143   9.205  0.7505 -0.3978 -0.3792
  719MOL0     O96960   8.255   4.209   9.253 -0.1607  0.2015  0.5671
  719MOL0     C96961   8.126   4.145   9.242 -0.2013  0.0798 -0.0665
  719MOL0     C96962   8.016   4.229   9.222  0.3431 -0.5791 -0.3714
  719MOL0     C96963   7.882   4.167   9.214  0.4156 -0.6847 -0.4738
  719MOL0     C96964   7.864   4.037   9.252  0.3901 -0.0169 -0.6186
  719MOL0     O96965   7.735   3.982   9.265  0.4892 -0.3027 -0.0881
  719MOL0     C96966   7.703   3.846   9.237 -0.4406 -0.7365 -0.3462
  719MOL0     C96967   7.553   3.815   9.250  0.1075  0.2935 -0.2825
  719MOL0     C96968   7.509   3.884   9.376  0.7359  0.0387  0.1860
  719MOL0     C96969   7.357   3.907   9.366 -0.2567 -0.3578 -0.2233
  719MOL0     C96970   7.289   3.959   9.489 -0.5285  0.3506 -0.3368
  719MOL0     C96971   7.253   3.841   9.581 -0.8325  0.1656  0.1971
  719MOL0     C96972   7.169   3.888   9.702  0.9699  0.4501 -0.1775
  719MOL0     C96973   7.134   3.770   9.786  0.5703  0.8408  0.0094
  719MOL0    Cl96974   7.246   3.685   9.893  0.2414  0.0417 -0.2309
  719MOL0     C96975   7.970   3.949   9.270  0.2801 -0.0137 -0.7284
  719MOL0     C96976   8.105   4.008   9.272  0.3359  1.0886 -0.9450
  719MOL0     O96977   8.390   4.026   9.172 -0.1688 -0.6439 -0.2413
  719MOL0     C96978   8.482   4.358   9.202 -0.7782 -0.0640  0.5274
  719MOL0     C96979   8.595   4.437   9.190  0.5831 -0.5729  0.0987
  719MOL0     N96980   9.138   4.941   8.893  0.5588  0.1800  0.3197
  719MOL0     N96981   9.193   4.970   8.778  0.3431  0.0603  0.2333
  719MOL0     C96982   8.885   4.465   8.127  0.9267 -0.2860 -0.2762
  719MOL0     C96983   8.770   4.378   8.142  0.3522  0.2357  0.2479
  719MOL0     C96984   8.351   4.209   8.195 -0.6228 -0.2783  0.0902
  719MOL0     C96985   8.319   4.136   8.308 -0.8771  0.4588  0.3065
  719MOL0     C96986   8.187   4.085   8.316 -0.1685  0.5290 -0.5678
  719MOL0     C96987   8.094   4.106   8.218  0.4061  0.4192 -0.8775
  719MOL0     O96988   7.962   4.052   8.224 -0.1899 -0.6660 -0.1306
  719MOL0     C96989   7.917   3.948   8.309 -0.1534  0.1615 -0.1077
  719MOL0     C96990   8.004   3.821   8.278  0.1123  0.3009 -0.2316
  719MOL0     C96991   7.948   3.770   8.140  0.5588  0.0672  0.4305
  719MOL0     C96992   8.002   3.630   8.119 -0.0205  0.2815  0.6949
  719MOL0     C96993   8.152   3.620   8.098  1.0380 -0.4099  0.4347
  719MOL0     C96994   8.267   3.627   8.111  0.0420 -0.4628  0.5891
  719MOL0     C96995   8.125   4.184   8.111 -0.1686  0.3963 -0.1387
  719MOL0     C96996   8.252   4.228   8.097  0.0829 -0.0346  0.1848
  719MOL0     C96997   8.285   4.299   7.965  0.5168  0.1761 -0.8653
  719MOL0     H96998   8.551   4.544   7.960  0.6440 -0.9441 -3.0922
  719MOL0     H96999   8.740   4.705   7.950 -1.4770 -1.3128 -1.2815
  719MOL0     H97000   8.910   4.832   7.953 -1.9316 -1.4823  0.3969
  719MOL0     H97001   8.908   4.841   8.126  0.7220 -0.6541  0.3046
  719MOL0     H97002   9.081   4.993   8.015 -0.0944 -0.6620 -0.3181
  719MOL0     H97003   9.152   4.847   7.940  0.6114  0.4353  0.7263
  719MOL0     H97004   9.287   4.845   8.097 -0.4037  2.0316  0.4113
  719MOL0     H97005   9.162   4.771   8.205  1.6234 -1.9886 -1.2094
  719MOL0     H97006   9.251   5.052   8.187  0.3898 -2.0929 -0.7465
  719MOL0     H97007   9.109   4.991   8.287 -1.1857 -1.3919  0.2282
  719MOL0     H97008   9.418   4.944   8.331  2.5763  1.9670  2.4362
  719MOL0     H97009   9.297   5.031   8.432 -1.5973 -1.9631  1.3448
  719MOL0     H97010   9.184   4.819   8.492 -1.6851 -0.3858 -2.5332
  719MOL0     H97011   9.296   4.735   8.389  3.7819  2.2393 -2.9191
  719MOL0     H97012   9.500   4.812   8.485 -1.0170  1.8234 -2.0104
  719MOL0     H97013   9.410   4.698   8.579 -1.1565  0.6456  3.4597
  719MOL0     H97014   9.507   4.857   8.724 -2.6175 -2.3549  3.4360
  719MOL0     H97015   9.432   4.995   8.644 -2.6841  0.1805 -1.3942
  719MOL0     H97016   9.349   4.687   8.866 -2.2426 -2.2523 -3.0573
  719MOL0     H97017   9.236   4.668   9.079 -0.0653  0.5419  3.4641
  719MOL0     H97018   9.189   4.813   9.141  3.5253 -0.7335 -1.3283
  719MOL0     H97019   8.939   4.776   9.063  1.5832  1.6196  1.0572
  719MOL0     H97020   8.986   4.609   9.019 -3.1359 -1.2926  2.6252
  719MOL0     H97021   8.961   4.727   9.292 -2.2165  0.0517 -0.3382
  719MOL0     H97022   9.050   4.571   9.257 -2.0031 -2.5124  0.0439
  719MOL0     H97023   8.765   4.640   9.186  0.6469 -0.1447  1.3500
  719MOL0     H97024   8.815   4.559   9.332  1.8696 -1.1924  0.2228
  719MOL0     H97025   8.830   4.193   9.138 -1.5850 -1.3885 -1.2848
  719MOL0     H97026   8.618   4.052   9.135  0.1317  0.1093  1.1345
  719MOL0     H97027   8.021   4.337   9.210  1.2560 -0.4418  0.9374
  719MOL0     H97028   7.796   4.228   9.190 -0.7179 -1.6188  1.0665
  719MOL0     H97029   7.743   3.805   9.143  2.6166  2.0286 -0.4357
  719MOL0     H97030   7.750   3.795   9.321 -0.9619  3.8930  3.1025
  719MOL0     H97031   7.499   3.849   9.161 -0.6074 -0.4242 -0.1333
  719MOL0     H97032   7.540   3.707   9.265 -0.1946  0.1405 -1.5737
  719MOL0     H97033   7.535   3.812   9.455 -3.2867  0.7826  2.4295
  719MOL0     H97034   7.558   3.980   9.393 -0.3653  0.1111  3.9698
  719MOL0     H97035   7.310   3.812   9.337  0.1485 -0.9853  1.0817
  719MOL0     H97036   7.342   3.967   9.276 -1.9771 -1.5744 -0.8035
  719MOL0     H97037   7.202   4.021   9.465  0.0015  2.1704  2.0432
  719MOL0     H97038   7.366   4.020   9.536 -0.8386 -0.7131  1.6626
  719MOL0     H97039   7.185   3.785   9.516  0.3014 -2.7279  1.3540
  719MOL0     H97040   7.334   3.775   9.612  0.3464  1.9728  1.0967
  719MOL0     H97041   7.079   3.945   9.674  1.5636  1.4364 -0.1247
  719MOL0     H97042   7.223   3.950   9.774 -0.9982  2.6920 -0.4952
  719MOL0     H97043   7.054   3.802   9.853 -0.9384 -0.0157 -1.3221
  719MOL0     H97044   7.088   3.694   9.722 -0.4761  0.2736  1.3954
  719MOL0     H97045   7.948   3.844   9.289 -3.1627 -0.1250 -4.1458
  719MOL0     H97046   8.195   3.951   9.291  0.1127  1.2709  0.8209
  719MOL0     H97047   8.390   4.405   9.236 -0.4741  1.3788 -0.5376
  719MOL0     H97048   8.580   4.543   9.205  1.4635 -0.6525  1.9538
  719MOL0     H97049   8.988   4.447   8.155  1.1044  0.7707 -0.2122
  719MOL0     H97050   8.792   4.285   8.192  1.5057  0.7382  0.7033
  719MOL0     H97051   8.386   4.110   8.390 -1.3456 -0.4041  0.4300
  719MOL0     H97052   8.167   4.030   8.408 -0.4326 -0.6005 -1.2901
  719MOL0     H97053   7.812   3.922   8.291  0.2694 -1.8204  0.0194
  719MOL0     H97054   7.935   3.975   8.413 -1.2682 -0.3019  0.2250
  719MOL0     H97055   7.983   3.751   8.359  1.1957  0.1601 -0.0656
  719MOL0     H97056   8.109   3.850   8.273  1.1127 -2.6422  1.6236
  719MOL0     H97057   7.983   3.840   8.064  1.6171 -2.1669 -1.2619
  719MOL0     H97058   7.840   3.755   8.129  0.7940 -3.3874  1.5320
  719MOL0     H97059   7.971   3.574   8.207 -1.8664  1.5885  0.9302
  719MOL0     H97060   7.952   3.588   8.031 -1.4305 -0.5271  1.8512
  719MOL0     H97061   8.372   3.643   8.122  0.5784 -2.0645 -1.5864
  719MOL0     H97062   8.053   4.210   8.034  1.3807  1.1762 -1.3958
  719MOL0     H97063   8.357   4.237   7.912 -1.2952 -2.7405 -0.1096
  719MOL0     H97064   8.191   4.292   7.910  0.6436 -2.5237 -0.8467
  719MOL0     H97065   8.314   4.404   7.975 -0.6641  0.3378  1.6998
  720MOL0     O97066   6.284   6.011   6.145  0.4038 -0.1472  0.4179
  720MOL0     C97067   6.184   5.933   6.146  0.0225  0.8901 -0.7698
  720MOL0     O97068   6.176   5.821   6.073 -0.0445  0.6849  0.0319
  720MOL0     C97069   6.274   5.777   5.981  0.1886  0.0489 -0.7952
  720MOL0     C97070   6.404   5.751   6.024  0.2068  0.2949  0.3289
  720MOL0     C97071   6.498   5.685   5.947  0.2452  1.2757 -0.0134
  720MOL0     C97072   6.462   5.667   5.812 -0.2590 -0.0391  0.2886
  720MOL0     O97073   6.564   5.621   5.728 -0.5105  0.1350  0.0292
  720MOL0     C97074   6.565   5.651   5.581 -0.6075  0.6261 -0.0082
  720MOL0     C97075   6.678   5.576   5.513 -0.3685 -0.1675  0.7416
  720MOL0     C97076   6.698   5.623   5.363  0.0156 -0.3703  0.4798
  720MOL0     C97077   6.835   5.563   5.306 -0.1747  0.4182  0.6675
  720MOL0     C97078   6.841   5.547   5.149 -0.0827 -0.1842 -0.3539
  720MOL0     C97079   6.773   5.414   5.109  0.7206  0.1108  0.8466
  720MOL0     C97080   6.786   5.386   4.955  0.3302  0.1176 -1.0829
  720MOL0     C97081   6.689   5.273   4.937 -0.2283  0.9387  1.0116
  720MOL0     N97082   6.710   5.222   4.797  0.7687  0.2201 -1.0856
  720MOL0     C97083   6.692   5.299   4.682 -0.0381  0.1323  0.0337
  720MOL0     C97084   6.697   5.213   4.581  1.3283  0.1084 -1.1473
  720MOL0     C97085   6.689   5.239   4.440  0.6222 -0.3080  0.1504
  720MOL0     C97086   6.639   5.380   4.395 -0.2366 -0.4869  0.2642
  720MOL0     C97087   6.649   5.397   4.239  0.5811 -0.1701  0.6407
  720MOL0     C97088   6.533   5.318   4.177 -0.4937 -0.1791  0.2594
  720MOL0     O97089   6.417   5.390   4.197  0.7053 -0.0610  0.1274
  720MOL0     C97090   6.324   5.344   4.284 -0.2402  0.7083  0.1010
  720MOL0     C97091   6.203   5.410   4.272 -0.1944 -0.0500 -0.4233
  720MOL0     C97092   6.092   5.380   4.347 -0.0456 -0.8360 -0.2077
  720MOL0     C97093   6.094   5.264   4.436 -0.2903 -0.8140 -0.1354
  720MOL0     C97094   5.973   5.225   4.501  0.3761 -0.0028 -1.7554
  720MOL0     O97095   5.857   5.294   4.484  0.7917  0.1474 -0.5266
  720MOL0     C97096   5.734   5.241   4.533 -0.8360  0.4008 -0.9861
  720MOL0     C97097   5.697   5.106   4.547 -0.1049 -0.1987 -0.6502
  720MOL0     C97098   5.582   5.071   4.610  0.5937 -0.1531  0.4345
  720MOL0     C97099   5.501   5.159   4.681 -0.9468  0.1789  0.8269
  720MOL0     O97100   5.394   5.118   4.750 -0.4580  0.2420  0.6022
  720MOL0     C97101   5.428   5.029   4.863 -0.0825 -0.3510  0.6717
  720MOL0     C97102   5.328   5.037   4.980  0.5065  0.2529 -0.2997
  720MOL0     C97103   5.400   5.052   5.108  0.2483  0.2422  0.9366
  720MOL0     C97104   5.320   5.011   5.238 -0.6899 -0.5027  0.0254
  720MOL0     C97105   5.433   4.966   5.341 -0.0634 -1.0504  0.0871
  720MOL0     C97106   5.380   4.912   5.482 -0.5738 -0.1201 -0.4597
  720MOL0     C97107   5.277   4.804   5.478  0.0526 -1.1805 -0.1819
  720MOL0     C97108   5.258   4.726   5.610 -0.7697  0.0444  0.3712
  720MOL0    Cl97109   5.089   4.669   5.612 -0.2149  0.1068 -0.1137
  720MOL0     C97110   5.527   5.293   4.669  0.0749 -0.0651 -0.5908
  720MOL0     C97111   5.641   5.325   4.592 -1.1763  0.1332 -0.0520
  720MOL0     O97112   5.984   5.135   4.588 -0.0058  0.4950  0.1251
  720MOL0     C97113   6.221   5.197   4.449 -0.3726  0.6536  0.2995
  720MOL0     C97114   6.334   5.235   4.379  0.0579 -0.3233 -0.9450
  720MOL0     N97115   6.734   5.085   4.630  0.5673 -0.1733 -1.2506
  720MOL0     N97116   6.738   5.089   4.766  0.7429  0.2606  0.4543
  720MOL0     C97117   6.333   5.696   5.761  0.3177  0.3711 -0.4476
  720MOL0     C97118   6.244   5.743   5.850  0.6193  0.1379 -0.8896
  720MOL0     C97119   6.046   5.967   6.203  0.5287 -0.5015  0.0836
  720MOL0     C97120   5.937   5.891   6.159  0.4787 -0.2808 -0.2266
  720MOL0     C97121   5.799   5.908   6.195  0.4163 -0.2523  0.4459
  720MOL0     C97122   5.772   6.017   6.281  1.1284 -0.8961 -0.1129
  720MOL0     O97123   5.649   6.055   6.323  0.2533  0.1292 -1.1736
  720MOL0     C97124   5.545   5.955   6.357 -0.1951  0.0224  0.9301
  720MOL0     C97125   5.590   5.851   6.454 -0.6002 -0.3868 -1.3570
  720MOL0     C97126   5.486   5.748   6.493  0.5416 -0.0445  0.8069
  720MOL0     C97127   5.453   5.650   6.376  0.1793  0.4420 -0.9050
  720MOL0     C97128   5.321   5.590   6.402  0.7466 -0.6243 -1.0832
  720MOL0     C97129   5.208   5.542   6.427 -0.0371  0.9566 -0.4453
  720MOL0     C97130   5.876   6.089   6.335 -0.2121  0.4482 -0.2917
  720MOL0     C97131   6.014   6.068   6.301  0.8262 -0.2791  0.3610
  720MOL0     C97132   6.124   6.148   6.367  0.5254  0.2363 -0.2519
  720MOL0     H97133   6.446   5.779   6.119  1.7949 -3.1912  0.7825
  720MOL0     H97134   6.590   5.666   6.001 -1.7119  1.2765  3.6571
  720MOL0     H97135   6.466   5.622   5.545 -1.8231  4.3310 -0.0767
  720MOL0     H97136   6.567   5.758   5.555 -1.0875  0.9076  1.0629
  720MOL0     H97137   6.652   5.470   5.525  0.0862 -0.2138  1.3532
  720MOL0     H97138   6.766   5.591   5.576 -0.7412  1.4096  0.9322
  720MOL0     H97139   6.722   5.729   5.358 -0.4667 -0.2449  0.7904
  720MOL0     H97140   6.614   5.592   5.300 -0.5013  3.7931 -1.2178
  720MOL0     H97141   6.911   5.632   5.344 -1.5409  0.9576  2.6041
  720MOL0     H97142   6.857   5.464   5.348  1.2371 -1.7405 -4.3734
  720MOL0     H97143   6.790   5.632   5.103  1.1192  0.8484  0.1928
  720MOL0     H97144   6.943   5.541   5.111 -0.4688  1.5355 -1.7793
  720MOL0     H97145   6.814   5.334   5.171  0.4596 -0.8222 -0.1616
  720MOL0     H97146   6.666   5.419   5.134  0.7937  2.7238  0.8905
  720MOL0     H97147   6.883   5.375   4.906  0.5791  1.9497 -1.0785
  720MOL0     H97148   6.732   5.465   4.902  2.0091  0.7922 -1.8657
  720MOL0     H97149   6.698   5.196   5.014 -0.0617  1.9112  1.9902
  720MOL0     H97150   6.585   5.303   4.955  0.4435  2.4388  2.6341
  720MOL0     H97151   6.686   5.408   4.679 -0.8212  0.0931  0.1658
  720MOL0     H97152   6.789   5.215   4.404  0.2475 -1.9429  0.1221
  720MOL0     H97153   6.625   5.162   4.395 -1.1123 -0.4328  2.6398
  720MOL0     H97154   6.539   5.401   4.434 -0.1264 -1.0784  0.8908
  720MOL0     H97155   6.712   5.454   4.432  0.2063 -0.0342 -1.4427
  720MOL0     H97156   6.741   5.362   4.192 -0.8549 -2.7554 -0.4596
  720MOL0     H97157   6.628   5.501   4.213  1.8562  0.6248  2.5477
  720MOL0     H97158   6.526   5.211   4.196  0.9389 -0.7736 -2.1389
  720MOL0     H97159   6.547   5.314   4.069  0.5941 -0.7875  0.4102
  720MOL0     H97160   6.194   5.498   4.210 -0.3172  0.3481  0.1458
  720MOL0     H97161   6.011   5.449   4.331  2.7227  2.4950 -1.0833
  720MOL0     H97162   5.756   5.028   4.501 -0.2055 -2.4039  2.6098
  720MOL0     H97163   5.558   4.966   4.602  2.3463 -0.5777  0.5565
  720MOL0     H97164   5.425   4.929   4.819  1.8024  0.6978 -2.0823
  720MOL0     H97165   5.527   5.054   4.902 -0.6746  2.5402  0.5718
  720MOL0     H97166   5.269   5.127   4.960 -0.7729 -0.8991 -1.9687
  720MOL0     H97167   5.254   4.957   4.983  0.0460  0.6210 -1.2588
  720MOL0     H97168   5.493   4.994   5.110 -0.4552 -0.9264  1.0933
  720MOL0     H97169   5.410   5.160   5.117  0.0835  0.3764 -0.3500
  720MOL0     H97170   5.245   4.932   5.225  0.0551 -1.4765  1.3665
  720MOL0     H97171   5.278   5.108   5.266 -0.3175  0.6555 -3.0828
  720MOL0     H97172   5.506   5.046   5.357 -0.3221 -0.3513 -1.8959
  720MOL0     H97173   5.502   4.894   5.296  2.9264  0.2007  2.3140
  720MOL0     H97174   5.470   4.882   5.537  0.0725  0.8657 -0.9566
  720MOL0     H97175   5.347   4.995   5.544  5.5642  1.1385  1.8677
  720MOL0     H97176   5.310   4.737   5.398  3.5605 -0.9146  0.8655
  720MOL0     H97177   5.182   4.854   5.457  0.5428 -0.1457 -0.0057
  720MOL0     H97178   5.332   4.646   5.611  0.3313  1.0330  0.2427
  720MOL0     H97179   5.274   4.777   5.706  1.6510 -1.4425  0.8443
  720MOL0     H97180   5.478   5.369   4.728  0.6989 -1.3211  1.7140
  720MOL0     H97181   5.669   5.429   4.581  1.3639 -0.3300  1.2347
  720MOL0     H97182   6.229   5.108   4.509  0.9158  0.5788  0.0362
  720MOL0     H97183   6.417   5.166   4.389 -2.0032 -2.7036  1.1588
  720MOL0     H97184   6.294   5.685   5.660  0.1829  1.2185 -0.4983
  720MOL0     H97185   6.140   5.764   5.826  0.7128  2.1154  0.2537
  720MOL0     H97186   5.960   5.803   6.099  2.8658  1.1966 -1.6490
  720MOL0     H97187   5.713   5.853   6.158 -1.1030  1.3105  1.5100
  720MOL0     H97188   5.506   5.900   6.270  0.6694  1.6132 -0.5206
  720MOL0     H97189   5.460   6.005   6.404 -0.7998 -1.4904  1.5208
  720MOL0     H97190   5.619   5.908   6.542 -4.8139 -0.6903  0.4343
  720MOL0     H97191   5.675   5.799   6.407 -0.4289  0.0945 -1.5868
  720MOL0     H97192   5.394   5.803   6.516  1.5213  1.8327  0.4460
  720MOL0     H97193   5.508   5.696   6.587 -0.1782 -0.2427  0.8728
  720MOL0     H97194   5.449   5.706   6.282  0.5134 -0.4315 -1.4483
  720MOL0     H97195   5.523   5.565   6.378 -1.7753 -1.3693  3.5808
  720MOL0     H97196   5.121   5.505   6.476  0.7458  2.2594  2.1535
  720MOL0     H97197   5.858   6.170   6.405  1.1415 -0.1829  0.8405
  720MOL0     H97198   6.203   6.077   6.394  1.8199  1.0978 -1.6112
  720MOL0     H97199   6.169   6.228   6.307 -0.0565  0.3635 -0.5231
  720MOL0     H97200   6.078   6.194   6.455 -0.8206  0.9497 -1.2970
  721MOL0     O97201   1.936   0.971  10.639 -0.4781  0.3620 -0.9044
  721MOL0     C97202   2.018   0.972  10.551  0.3211 -0.5370 -0.2700
  721MOL0     O97203   2.071   1.084  10.489  0.5589  0.0047 -0.4774
  721MOL0     C97204   2.039   1.216  10.520 -0.5930  0.5664 -0.4814
  721MOL0     C97205   2.146   1.306  10.511  1.0255  0.4529  0.8074
  721MOL0     C97206   2.121   1.447  10.527  1.1143 -0.0948 -0.3160
  721MOL0     C97207   1.990   1.496  10.549 -0.5010  0.5779 -0.3908
  721MOL0     O97208   1.966   1.635  10.561  0.1450  0.5020 -0.2184
  721MOL0     C97209   1.849   1.684  10.637  0.3270 -0.0866 -0.8640
  721MOL0     C97210   1.738   1.741  10.557 -0.0904 -0.0455 -0.0474
  721MOL0     C97211   1.633   1.810  10.651  0.2757 -0.1874 -0.4110
  721MOL0     C97212   1.522   1.880  10.563 -1.0015 -0.1020  0.3530
  721MOL0     C97213   1.420   1.947  10.651 -0.7284 -0.9318  1.6748
  721MOL0     C97214   1.325   2.034  10.567 -0.0582  0.6404  0.0883
  721MOL0     C97215   1.251   1.957  10.461 -0.9298  0.3180  1.1459
  721MOL0     C97216   1.147   1.854  10.495 -0.1907  0.0837  0.4618
  721MOL0     N97217   1.207   1.720  10.509  0.0067 -0.1223 -0.5828
  721MOL0     C97218   1.247   1.643  10.417 -0.2988  0.1336 -0.2792
  721MOL0     C97219   1.316   1.544  10.481 -0.3361 -0.0877  0.0370
  721MOL0     C97220   1.400   1.424  10.418  1.1238  0.0231  0.4337
  721MOL0     C97221   1.523   1.473  10.338  0.4613  0.3649 -0.5750
  721MOL0     C97222   1.563   1.360  10.239 -0.8487  0.4815  0.4150
  721MOL0     C97223   1.649   1.248  10.305  0.3986 -0.5116  0.9873
  721MOL0     O97224   1.699   1.156  10.203 -0.2867 -0.0663 -0.3119
  721MOL0     C97225   1.791   1.203  10.115  0.2287  0.1271 -0.2106
  721MOL0     C97226   1.901   1.295  10.133  0.5614  0.2423  0.3711
  721MOL0     C97227   2.001   1.297  10.040  0.3675 -0.2430 -1.6045
  721MOL0     C97228   2.002   1.225   9.921 -0.1222 -0.4066  1.0004
  721MOL0     C97229   2.113   1.242   9.819 -0.6574 -0.3085  0.2078
  721MOL0     O97230   2.186   1.359   9.841 -0.0394  0.4729  0.8862
  721MOL0     C97231   2.293   1.406   9.765 -0.6640 -0.2738  0.5951
  721MOL0     C97232   2.333   1.539   9.767 -0.3071  0.2068 -0.7433
  721MOL0     C97233   2.449   1.585   9.707  0.0838  0.1348  1.1521
  721MOL0     C97234   2.514   1.501   9.608 -0.4221  0.1560  1.1957
  721MOL0     O97235   2.623   1.535   9.534 -0.6342 -0.7639  0.5800
  721MOL0     C97236   2.721   1.621   9.597  0.7393 -0.1038  0.7967
  721MOL0     C97237   2.826   1.657   9.476  0.4842 -1.1900 -0.5525
  721MOL0     C97238   2.915   1.767   9.525 -1.1063  1.0225  0.4658
  721MOL0     C97239   3.043   1.781   9.438  0.6853  0.4421  0.6145
  721MOL0     C97240   3.145   1.882   9.487  0.3794 -0.1470 -0.3366
  721MOL0     C97241   3.261   1.896   9.390 -0.5851  0.3577 -0.1764
  721MOL0     C97242   3.353   2.006   9.439 -0.0746 -0.0518  0.8103
  721MOL0     C97243   3.480   2.031   9.357 -0.5713  0.5514 -0.1364
  721MOL0    Cl97244   3.595   2.138   9.432 -0.3481 -0.1301  0.4660
  721MOL0     C97245   2.470   1.371   9.593  0.2821 -0.5878 -1.4407
  721MOL0     C97246   2.367   1.318   9.676 -0.7619 -1.2146 -0.5781
  721MOL0     O97247   2.108   1.179   9.715  0.1638  0.6306 -0.4126
  721MOL0     C97248   1.878   1.154   9.893  0.2624  0.2315 -0.4708
  721MOL0     C97249   1.783   1.137   9.999  0.0533 -0.0435 -0.5631
  721MOL0     N97250   1.311   1.569  10.614  0.6604  0.3937  0.3670
  721MOL0     N97251   1.233   1.668  10.630 -0.4828  1.2803  0.1601
  721MOL0     C97252   1.894   1.408  10.558  0.8570 -0.0047  0.3305
  721MOL0     C97253   1.916   1.268  10.559  0.7929 -0.2937  0.5571
  721MOL0     C97254   2.053   0.848  10.501 -0.3230 -0.0474 -0.1892
  721MOL0     C97255   1.967   0.772  10.415  0.1323 -0.6662 -0.8044
  721MOL0     C97256   2.007   0.661  10.353  0.2719  1.4695  0.3422
  721MOL0     C97257   2.128   0.606  10.375  0.2995 -0.0231  0.1449
  721MOL0     O97258   2.154   0.496  10.294  0.1974 -0.4204  0.2787
  721MOL0     C97259   2.280   0.434  10.296 -1.2399 -0.0159  0.0814
  721MOL0     C97260   2.371   0.491  10.183 -0.4253  0.6855  0.2138
  721MOL0     C97261   2.347   0.411  10.050 -1.1326 -0.6726  0.6670
  721MOL0     C97262   2.383   0.500   9.932  0.6323 -0.8720  0.1052
  721MOL0     C97263   2.516   0.566   9.942  0.8870 -1.0679  0.2302
  721MOL0     C97264   2.633   0.600   9.957 -1.0620 -0.0331  0.6585
  721MOL0     C97265   2.220   0.679  10.450  1.0702 -0.1330 -0.0760
  721MOL0     C97266   2.183   0.795  10.515 -0.2011 -0.4106 -0.6961
  721MOL0     C97267   2.279   0.859  10.621  0.7941 -0.4791 -0.3527
  721MOL0     H97268   2.238   1.252  10.495 -0.5899 -1.8449 -1.5867
  721MOL0     H97269   2.202   1.520  10.524  2.6553 -1.7238 -2.9089
  721MOL0     H97270   1.816   1.602  10.701  1.4455 -0.4661 -0.7441
  721MOL0     H97271   1.884   1.763  10.705  1.6214  0.3207 -1.9497
  721MOL0     H97272   1.702   1.658  10.496  2.2103  0.0350 -1.6137
  721MOL0     H97273   1.776   1.815  10.486 -0.6292  0.5697  0.2895
  721MOL0     H97274   1.684   1.895  10.696  0.2807  0.7504 -2.1050
  721MOL0     H97275   1.591   1.732  10.715  2.2175  1.1846  2.7086
  721MOL0     H97276   1.565   1.963  10.507 -2.6497  3.4150  3.8166
  721MOL0     H97277   1.468   1.804  10.506 -0.6765 -1.1913  1.4442
  721MOL0     H97278   1.364   1.879  10.716 -2.5796 -2.1349 -1.0015
  721MOL0     H97279   1.476   2.020  10.711 -0.7819 -0.2490  0.9087
  721MOL0     H97280   1.257   2.086  10.636 -0.3839 -2.3814  2.2090
  721MOL0     H97281   1.395   2.105  10.521  0.4667  2.2994  3.2174
  721MOL0     H97282   1.319   1.906  10.392 -1.6294  0.3717  0.4040
  721MOL0     H97283   1.204   2.042  10.411  1.7445  0.3668 -1.5910
  721MOL0     H97284   1.096   1.881  10.587 -4.1608 -1.7867 -0.9860
  721MOL0     H97285   1.084   1.858  10.406  0.5866 -1.4333 -0.2059
  721MOL0     H97286   1.223   1.634  10.312  0.2297 -4.1062 -0.2087
  721MOL0     H97287   1.433   1.358  10.499  0.2147 -0.7351  0.1945
  721MOL0     H97288   1.333   1.367  10.354  0.8886 -3.4235  3.4016
  721MOL0     H97289   1.491   1.569  10.297 -3.7894 -1.8871 -3.2359
  721MOL0     H97290   1.608   1.488  10.406 -0.4134 -1.1171  0.9489
  721MOL0     H97291   1.617   1.399  10.152  0.6547  0.3532  1.2520
  721MOL0     H97292   1.479   1.317  10.184  1.1685  1.2894 -3.6997
  721MOL0     H97293   1.580   1.193  10.370  0.5406  0.9723  2.4558
  721MOL0     H97294   1.724   1.292  10.370  0.6814  1.0814 -0.3555
  721MOL0     H97295   1.909   1.358  10.221 -0.0459  0.4254  0.2952
  721MOL0     H97296   2.074   1.375  10.059 -1.7651  1.5637 -0.3647
  721MOL0     H97297   2.277   1.603   9.835 -0.9601 -0.7998 -0.3130
  721MOL0     H97298   2.484   1.683   9.736 -1.6237  2.1450 -2.8071
  721MOL0     H97299   2.663   1.703   9.641 -0.6714 -1.2174  1.0757
  721MOL0     H97300   2.759   1.547   9.667 -1.8323 -1.9418  0.4128
  721MOL0     H97301   2.895   1.574   9.454  2.9916  0.1775  1.5770
  721MOL0     H97302   2.767   1.683   9.388 -0.4524 -0.7728  0.1893
  721MOL0     H97303   2.873   1.868   9.525 -1.0179  1.0806  1.9018
  721MOL0     H97304   2.964   1.739   9.619  4.2196  1.9944 -1.6141
  721MOL0     H97305   3.012   1.795   9.334  0.7776 -0.7484  0.4033
  721MOL0     H97306   3.097   1.686   9.435  1.3423  0.7592  1.8517
  721MOL0     H97307   3.178   1.858   9.588 -1.6422 -0.4159  0.2978
  721MOL0     H97308   3.100   1.981   9.495 -1.1628 -0.8808  0.6541
  721MOL0     H97309   3.321   1.805   9.393  0.6789  1.1706 -0.0733
  721MOL0     H97310   3.227   1.914   9.288 -0.5492 -1.9980 -0.6647
  721MOL0     H97311   3.383   1.988   9.542  4.8384  0.7126 -0.2628
  721MOL0     H97312   3.298   2.101   9.438  2.2401  1.3377  0.3389
  721MOL0     H97313   3.517   1.931   9.332 -1.3627  0.3654 -0.6001
  721MOL0     H97314   3.454   2.080   9.263 -0.7728  1.5472  0.4251
  721MOL0     H97315   2.521   1.306   9.522 -3.3778 -1.3354 -3.6501
  721MOL0     H97316   2.353   1.212   9.657  1.3131 -0.9785 -4.4559
  721MOL0     H97317   1.866   1.112   9.794 -1.9605  0.0735 -0.1964
  721MOL0     H97318   1.686   1.096   9.975 -0.6439 -0.0392  1.9375
  721MOL0     H97319   1.792   1.439  10.578  0.2617 -0.7019 -1.4161
  721MOL0     H97320   1.832   1.199  10.568  0.7522 -0.3153  0.0345
  721MOL0     H97321   1.863   0.803  10.406  0.8093  1.4857 -1.8310
  721MOL0     H97322   1.932   0.607  10.297  0.7800 -0.7109  1.6620
  721MOL0     H97323   2.267   0.328  10.272  0.6183 -0.3491  0.3969
  721MOL0     H97324   2.328   0.439  10.394 -3.1666  0.1446  1.0480
  721MOL0     H97325   2.476   0.476  10.211 -0.4442 -1.6510 -0.7152
  721MOL0     H97326   2.360   0.600  10.183  5.1758  1.5627 -0.3849
  721MOL0     H97327   2.244   0.375  10.037 -1.3509 -0.8154  2.4898
  721MOL0     H97328   2.414   0.326  10.039 -0.5811 -0.0157 -1.5016
  721MOL0     H97329   2.391   0.433   9.846  3.1123 -1.9363  1.0699
  721MOL0     H97330   2.312   0.574   9.895  2.0353  0.7060  0.4287
  721MOL0     H97331   2.736   0.627   9.959 -0.1343 -3.0276 -0.7954
  721MOL0     H97332   2.319   0.640  10.469  0.5553 -1.7283 -0.5177
  721MOL0     H97333   2.344   0.940  10.587 -0.2851 -0.3060 -2.1316
  721MOL0     H97334   2.218   0.896  10.704  0.6928  0.1776 -0.7114
  721MOL0     H97335   2.340   0.783  10.671 -0.1308 -2.0222 -1.4696
  722MOL0     O97336   0.413   5.652   8.438 -0.5277  0.0928 -0.5007
  722MOL0     C97337   0.527   5.690   8.411  0.5199  0.5407  0.4991
  722MOL0     O97338   0.616   5.610   8.355  0.0828  0.3295  0.2614
  722MOL0     C97339   0.582   5.528   8.253  0.1338  1.1149  0.4279
  722MOL0     C97340   0.517   5.404   8.277 -0.3145  0.3162 -1.0281
  722MOL0     C97341   0.513   5.313   8.178 -0.3645  0.6413 -0.8768
  722MOL0     C97342   0.583   5.333   8.058  0.6221  0.2071  1.0670
  722MOL0     O97343   0.593   5.243   7.948  0.6345 -0.3689 -0.4434
  722MOL0     C97344   0.485   5.146   7.926  0.2036  0.4426  0.6930
  722MOL0     C97345   0.533   5.054   7.816  0.1181 -1.0010  0.2166
  722MOL0     C97346   0.638   4.958   7.871 -0.1507 -0.4207 -0.5527
  722MOL0     C97347   0.731   4.911   7.761 -0.5479  0.2045  1.3394
  722MOL0     C97348   0.858   4.847   7.826  0.7509  0.1347  0.7887
  722MOL0     C97349   0.842   4.726   7.917 -0.4104 -0.1280 -1.1633
  722MOL0     C97350   0.979   4.667   7.926  0.1447 -0.4578  1.3408
  722MOL0     C97351   1.086   4.760   7.991 -0.4617 -1.4537  0.7764
  722MOL0     N97352   1.224   4.726   7.949 -0.0029  0.4318  0.7103
  722MOL0     C97353   1.292   4.613   7.992  0.7612 -0.4154  0.3718
  722MOL0     C97354   1.411   4.616   7.915 -0.6266  0.9936 -0.4148
  722MOL0     C97355   1.513   4.510   7.921  0.0166  0.1687 -0.6231
  722MOL0     C97356   1.629   4.549   7.829  0.3545 -0.1667  0.2868
  722MOL0     C97357   1.732   4.444   7.791  0.1977  0.0598 -0.7722
  722MOL0     C97358   1.792   4.364   7.911  0.1107  0.4485 -0.9960
  722MOL0     O97359   1.702   4.271   7.966  0.4159 -0.1292  0.3146
  722MOL0     C97360   1.751   4.175   8.047 -0.0502 -0.1546 -0.0034
  722MOL0     C97361   1.674   4.051   8.061 -0.1248 -0.4002 -0.2908
  722MOL0     C97362   1.731   3.936   8.122  0.5984 -1.1584 -0.3522
  722MOL0     C97363   1.852   3.947   8.189  0.0659 -0.2202 -0.5791
  722MOL0     C97364   1.920   3.827   8.247  1.0810  0.6677 -0.0475
  722MOL0     O97365   2.040   3.854   8.313  0.5664  0.0923  0.1583
  722MOL0     C97366   2.094   3.763   8.407 -0.7800  0.6693 -0.3570
  722MOL0     C97367   2.075   3.622   8.423  0.0276  0.1506  0.2174
  722MOL0     C97368   2.133   3.542   8.535  0.8245 -0.1420  0.5188
  722MOL0     C97369   2.196   3.620   8.636  0.0369  0.2523 -0.5995
  722MOL0     O97370   2.266   3.568   8.736  0.0186  0.1672 -0.2110
  722MOL0     C97371   2.264   3.429   8.748 -0.3809  0.0816  1.0649
  722MOL0     C97372   2.341   3.392   8.877 -0.4669  0.1602  0.9540
  722MOL0     C97373   2.486   3.402   8.852  0.1013 -0.5459 -0.9180
  722MOL0     C97374   2.575   3.367   8.979 -0.1918  0.5802 -0.0707
  722MOL0     C97375   2.727   3.390   8.965 -0.2393  0.3834 -0.4557
  722MOL0     C97376   2.783   3.335   9.107  0.9656  0.1966  0.0987
  722MOL0     C97377   2.936   3.316   9.126  0.9064  0.9020  0.6614
  722MOL0     C97378   2.992   3.435   9.196  0.6185 -0.5908  0.6805
  722MOL0    Cl97379   3.166   3.416   9.217 -0.1156 -0.2287  0.1288
  722MOL0     C97380   2.208   3.761   8.615 -0.2700  0.8534  0.0420
  722MOL0     C97381   2.155   3.828   8.507  0.8469 -0.9863 -0.5810
  722MOL0     O97382   1.846   3.726   8.261 -0.0046 -0.1860 -0.7862
  722MOL0     C97383   1.918   4.074   8.181  0.8246  0.5469 -0.6468
  722MOL0     C97384   1.868   4.183   8.111 -0.1312 -0.2611  0.6968
  722MOL0     N97385   1.393   4.723   7.828  0.0029 -0.1404 -0.6604
  722MOL0     N97386   1.296   4.797   7.858  0.5120  0.2750 -0.8062
  722MOL0     C97387   0.621   5.463   8.027 -0.5316 -0.3309  0.1958
  722MOL0     C97388   0.623   5.568   8.120  1.0032 -0.3174  0.6948
  722MOL0     C97389   0.564   5.827   8.468 -0.6301  1.7422  0.7759
  722MOL0     C97390   0.465   5.912   8.525 -0.2455 -0.5987  0.1395
  722MOL0     C97391   0.500   6.039   8.588 -0.0980  0.2905 -0.0557
  722MOL0     C97392   0.630   6.073   8.605 -0.0018 -0.1591  0.6385
  722MOL0     O97393   0.688   6.181   8.667  0.5076  0.6771  0.1700
  722MOL0     C97394   0.617   6.300   8.680 -0.6702 -0.2098  0.5730
  722MOL0     C97395   0.532   6.314   8.810 -0.6459  0.3574  0.1355
  722MOL0     C97396   0.523   6.460   8.855  0.3311 -0.1853 -0.2511
  722MOL0     C97397   0.461   6.472   8.993 -0.0110  0.1781 -0.8670
  722MOL0     C97398   0.431   6.607   9.028  0.8899  0.1681 -0.5081
  722MOL0     C97399   0.426   6.719   9.056  0.3661 -0.4524 -0.3601
  722MOL0     C97400   0.726   5.983   8.557  0.8340 -0.7228 -0.2022
  722MOL0     C97401   0.691   5.871   8.480 -0.1893  0.6655 -0.4487
  722MOL0     C97402   0.809   5.814   8.401  0.7394  0.2372 -0.2722
  722MOL0     H97403   0.480   5.389   8.378 -4.7430  1.8250 -2.2113
  722MOL0     H97404   0.484   5.210   8.193  3.3342 -0.5291 -0.5470
  722MOL0     H97405   0.475   5.074   8.008  1.3752 -1.8450 -1.0751
  722MOL0     H97406   0.389   5.198   7.917 -0.5738 -0.8150  1.4802
  722MOL0     H97407   0.566   5.104   7.725 -2.6550 -1.7658 -1.3407
  722MOL0     H97408   0.446   4.996   7.782 -1.0464  1.1679 -0.7060
  722MOL0     H97409   0.591   4.878   7.929 -2.8596 -0.3518 -2.4537
  722MOL0     H97410   0.699   5.014   7.942  0.9203 -1.5293 -0.5575
  722MOL0     H97411   0.686   4.834   7.698  2.8901 -1.0889  0.2542
  722MOL0     H97412   0.769   4.991   7.698  0.3631 -0.8385  0.5234
  722MOL0     H97413   0.924   4.820   7.744  0.2446  1.8896 -0.2531
  722MOL0     H97414   0.902   4.931   7.882  2.3975  0.9901 -1.6344
  722MOL0     H97415   0.817   4.771   8.014 -1.0083 -2.0997 -0.3615
  722MOL0     H97416   0.767   4.656   7.878 -0.8381  0.5589 -1.6030
  722MOL0     H97417   1.011   4.643   7.824 -3.6258  1.9827 -0.6635
  722MOL0     H97418   0.966   4.576   7.986 -2.0847 -0.4536  0.9510
  722MOL0     H97419   1.064   4.862   7.956 -3.0375 -1.7664  1.2580
  722MOL0     H97420   1.083   4.770   8.100  1.7261  1.0900  0.7164
  722MOL0     H97421   1.259   4.537   8.062  1.2242 -0.7866  0.1881
  722MOL0     H97422   1.548   4.506   8.024 -0.4043 -4.4449 -0.4354
  722MOL0     H97423   1.479   4.408   7.900 -2.5917 -0.2303  4.1749
  722MOL0     H97424   1.578   4.575   7.736  3.3751 -3.0352 -2.4489
  722MOL0     H97425   1.681   4.637   7.867  3.2910 -2.0283  0.8948
  722MOL0     H97426   1.806   4.497   7.730 -0.3983  0.4757 -1.1529
  722MOL0     H97427   1.673   4.376   7.728 -0.2773  1.9016 -2.4114
  722MOL0     H97428   1.825   4.422   7.997  1.7612  1.2332 -2.1025
  722MOL0     H97429   1.882   4.308   7.884  0.3342  0.2290  0.1539
  722MOL0     H97430   1.578   4.032   8.014  0.3538 -2.3782 -0.5478
  722MOL0     H97431   1.680   3.841   8.132 -2.1467  0.3683  1.4066
  722MOL0     H97432   2.013   3.573   8.349  2.3016  0.2052 -1.8339
  722MOL0     H97433   2.132   3.434   8.532  2.1126 -0.1529 -2.5287
  722MOL0     H97434   2.161   3.393   8.751  0.0050 -1.2914 -0.7688
  722MOL0     H97435   2.320   3.382   8.667  1.7183  4.2516 -0.1890
  722MOL0     H97436   2.311   3.448   8.966 -1.3122  1.4480 -0.1022
  722MOL0     H97437   2.328   3.285   8.895  1.3523  0.1278  2.3301
  722MOL0     H97438   2.535   3.351   8.769  2.2336 -2.6927  1.4847
  722MOL0     H97439   2.513   3.508   8.850 -0.5025 -0.3307  0.8833
  722MOL0     H97440   2.559   3.261   9.003 -1.2414  0.4324 -1.2923
  722MOL0     H97441   2.545   3.438   9.056  0.0863 -1.5132  2.0853
  722MOL0     H97442   2.744   3.496   8.948 -0.0761  0.3170 -0.6978
  722MOL0     H97443   2.766   3.323   8.888 -1.9053 -1.0208 -0.1639
  722MOL0     H97444   2.737   3.396   9.185  3.6336  2.5510 -0.0238
  722MOL0     H97445   2.736   3.237   9.120  0.3602  0.5856  0.9467
  722MOL0     H97446   2.981   3.304   9.027 -1.3517  0.2243 -0.3409
  722MOL0     H97447   2.962   3.220   9.172  1.5150 -1.0520 -3.3557
  722MOL0     H97448   2.960   3.527   9.148  0.9463 -0.5869  0.4697
  722MOL0     H97449   2.960   3.428   9.301 -3.3223  0.1112 -0.3129
  722MOL0     H97450   2.244   3.827   8.693  0.0227  0.0403  0.5956
  722MOL0     H97451   2.168   3.935   8.506 -0.1141 -0.7848  1.8648
  722MOL0     H97452   2.003   4.095   8.245 -0.0205 -2.5531  1.7498
  722MOL0     H97453   1.929   4.272   8.103  0.4956 -0.7620 -0.3288
  722MOL0     H97454   0.650   5.478   7.924 -1.0333  1.5155  0.2740
  722MOL0     H97455   0.667   5.664   8.100  0.7602 -0.8082 -2.8010
  722MOL0     H97456   0.365   5.874   8.542 -0.5606  1.4540  4.1663
  722MOL0     H97457   0.423   6.088   8.646 -1.0280  1.3237 -2.0616
  722MOL0     H97458   0.559   6.315   8.589  0.3579  3.1263  0.3572
  722MOL0     H97459   0.700   6.370   8.692 -0.1775 -1.1228  3.1696
  722MOL0     H97460   0.590   6.265   8.888 -0.3035  0.7396  0.1293
  722MOL0     H97461   0.429   6.279   8.800 -1.7749  2.7265  2.2627
  722MOL0     H97462   0.465   6.519   8.783  2.8003  0.5939 -1.7326
  722MOL0     H97463   0.624   6.503   8.854  0.9892 -1.6208 -2.1383
  722MOL0     H97464   0.373   6.408   9.003  1.3377 -1.5985  0.4166
  722MOL0     H97465   0.531   6.429   9.065 -1.1572 -0.0448  0.1402
  722MOL0     H97466   0.425   6.823   9.080  0.3749 -0.0111 -2.1759
  722MOL0     H97467   0.830   6.014   8.557  0.5853  0.1501 -0.7770
  722MOL0     H97468   0.777   5.802   8.297  1.4022 -1.2483 -0.3190
  722MOL0     H97469   0.899   5.877   8.400  0.6796  0.3351 -1.7461
  722MOL0     H97470   0.831   5.712   8.434 -0.2938  0.3816  0.9462
  723MOL0     O97471   3.988  11.234   6.042  0.2157  0.8618 -0.0612
  723MOL0     C97472   3.997  11.352   6.002  0.7664  0.7765  0.7746
  723MOL0     O97473   3.892  11.438   5.973 -0.1978  0.2221  0.1404
  723MOL0     C97474   3.767  11.432   6.033  0.0567 -0.3584 -0.1495
  723MOL0     C97475   3.704  11.316   6.074  0.7361  0.4752 -0.6981
  723MOL0     C97476   3.592  11.326   6.148  1.0345  0.2103 -0.7410
  723MOL0     C97477   3.535  11.454   6.177 -0.2555  0.8382  0.3830
  723MOL0     O97478   3.443  11.456   6.268  0.6495 -0.5175 -0.1677
  723MOL0     C97479   3.408  11.567   6.352  0.0411 -0.4771 -0.4102
  723MOL0     C97480   3.354  11.557   6.497 -0.1457  0.3535  0.7515
  723MOL0     C97481   3.231  11.473   6.509  0.1613 -0.5557  0.5118
  723MOL0     C97482   3.172  11.483   6.647  0.4589 -0.1111 -0.1988
  723MOL0     C97483   3.030  11.416   6.666  0.6275  1.2770  0.4205
  723MOL0     C97484   3.041  11.264   6.633 -0.8392 -0.3332 -0.1253
  723MOL0     C97485   3.140  11.178   6.713  0.5390  0.3004 -0.2343
  723MOL0     C97486   3.121  11.032   6.702 -0.1054 -0.0626  0.3261
  723MOL0     N97487   3.145  10.980   6.564 -0.8079  0.5591  0.2490
  723MOL0     C97488   3.257  11.017   6.488  0.2219 -0.2365  0.7837
  723MOL0     C97489   3.227  10.978   6.367  1.2160  0.7381  0.4366
  723MOL0     C97490   3.311  11.021   6.247  0.6234  0.4438 -1.1041
  723MOL0     C97491   3.236  11.105   6.152 -0.0873  0.1304 -0.4469
  723MOL0     C97492   3.285  11.130   6.003 -0.2772  0.6056 -0.1658
  723MOL0     C97493   3.227  11.251   5.922 -0.2063 -0.7645  0.1683
  723MOL0     O97494   3.261  11.239   5.783 -0.1363  0.5800  0.2555
  723MOL0     C97495   3.383  11.289   5.751  0.0052  0.3634 -0.5507
  723MOL0     C97496   3.460  11.202   5.665  0.4995 -0.2408  0.8689
  723MOL0     C97497   3.583  11.234   5.610 -0.0186  0.6351 -0.4452
  723MOL0     C97498   3.634  11.363   5.647  0.8772 -0.1811 -0.3947
  723MOL0     C97499   3.767  11.403   5.613  0.4632 -1.1708  1.0154
  723MOL0     O97500   3.831  11.297   5.547 -0.2452 -0.1224  0.0287
  723MOL0     C97501   3.953  11.332   5.489 -0.3300  0.6408 -0.7004
  723MOL0     C97502   4.070  11.265   5.535 -0.9928 -0.3072  0.4753
  723MOL0     C97503   4.193  11.285   5.472  0.7019  0.5353 -0.0084
  723MOL0     C97504   4.202  11.379   5.371 -0.3522  0.2095 -0.0032
  723MOL0     O97505   4.324  11.388   5.305  0.1147  0.1299 -0.0596
  723MOL0     C97506   4.367  11.523   5.292  1.0460  0.1747 -0.5043
  723MOL0     C97507   4.516  11.526   5.252  0.5333  0.0329 -0.1890
  723MOL0     C97508   4.521  11.486   5.103  0.2022 -0.1827 -0.5795
  723MOL0     C97509   4.655  11.463   5.046 -0.9242 -0.7330  1.0680
  723MOL0     C97510   4.653  11.461   4.889 -0.4898  0.2476 -0.1150
  723MOL0     C97511   4.790  11.420   4.828  0.6129  0.2557 -0.9604
  723MOL0     C97512   4.910  11.433   4.923 -0.4493  0.4522  1.2224
  723MOL0     C97513   5.036  11.399   4.832 -0.8286  0.1025 -0.5736
  723MOL0    Cl97514   5.058  11.225   4.833  0.1402  0.0881  0.2604
  723MOL0     C97515   4.084  11.445   5.323  0.0121  0.8688  0.4090
  723MOL0     C97516   3.960  11.415   5.379  0.6496 -0.7850 -0.4983
  723MOL0     O97517   3.813  11.518   5.630  0.1472 -0.9842  0.0584
  723MOL0     C97518   3.562  11.450   5.734  0.0889 -0.0015  0.2810
  723MOL0     C97519   3.439  11.407   5.792 -1.1128 -0.3672  0.3796
  723MOL0     N97520   3.094  10.931   6.363  0.6015 -1.4750 -0.2055
  723MOL0     N97521   3.048  10.936   6.484  0.6347 -0.2059  0.2271
  723MOL0     C97522   3.596  11.574   6.123  0.7108 -0.8459  0.0014
  723MOL0     C97523   3.713  11.559   6.051 -0.0330  0.0253 -0.4119
  723MOL0     C97524   4.123  11.410   5.956 -0.0821  0.3941 -0.9469
  723MOL0     C97525   4.134  11.468   5.834 -0.5497 -0.0960  1.1551
  723MOL0     C97526   4.265  11.478   5.778 -1.2089  0.3028  0.7909
  723MOL0     C97527   4.390  11.459   5.848  0.0407 -1.0872 -0.4043
  723MOL0     O97528   4.507  11.488   5.789  0.2762 -0.2593 -0.1710
  723MOL0     C97529   4.622  11.527   5.868  0.0093  1.0447  0.8464
  723MOL0     C97530   4.711  11.622   5.793 -0.6165  0.3442  0.3996
  723MOL0     C97531   4.740  11.593   5.646  0.8547  0.2643  0.3682
  723MOL0     C97532   4.808  11.713   5.579 -0.1189 -0.4208  0.0539
  723MOL0     C97533   4.849  11.685   5.438  0.1351  0.2710  0.7078
  723MOL0     C97534   4.878  11.665   5.323 -0.0885  1.1831  0.0520
  723MOL0     C97535   4.374  11.420   5.985 -0.4277  0.9449 -1.3105
  723MOL0     C97536   4.244  11.390   6.035  0.3539  0.5333  0.2133
  723MOL0     C97537   4.240  11.366   6.185  0.0191 -0.5599 -0.3618
  723MOL0     H97538   3.751  11.220   6.063 -0.7495 -0.2928 -0.6313
  723MOL0     H97539   3.547  11.237   6.191  0.0628  1.1531  0.2685
  723MOL0     H97540   3.502  11.622   6.361 -0.9268  1.2765 -0.5412
  723MOL0     H97541   3.347  11.639   6.297  3.4837  1.7592 -1.6170
  723MOL0     H97542   3.348  11.661   6.530  2.3171  0.9332 -0.4383
  723MOL0     H97543   3.428  11.502   6.556 -0.3180 -1.8421 -0.9517
  723MOL0     H97544   3.255  11.369   6.487  0.8182 -0.0390 -1.3953
  723MOL0     H97545   3.152  11.496   6.437 -2.2170 -2.4231  2.3476
  723MOL0     H97546   3.230  11.446   6.732  0.2492 -0.0413 -0.0230
  723MOL0     H97547   3.145  11.585   6.676 -1.1667 -0.5521 -0.0679
  723MOL0     H97548   2.990  11.430   6.767 -0.9668 -1.0630  0.1686
  723MOL0     H97549   2.956  11.463   6.600 -0.2891  0.4001  0.8025
  723MOL0     H97550   2.942  11.223   6.657  0.3597 -2.8505  0.8943
  723MOL0     H97551   3.054  11.236   6.528 -3.2767 -0.8763 -0.3657
  723MOL0     H97552   3.138  11.208   6.818  1.3754 -0.9903  0.1662
  723MOL0     H97553   3.236  11.199   6.664  0.5680 -0.2814 -0.4381
  723MOL0     H97554   3.203  10.987   6.759 -0.9201  1.6911  3.1398
  723MOL0     H97555   3.028  10.995   6.745 -0.9220 -0.1735 -1.4579
  723MOL0     H97556   3.347  11.065   6.523  0.2394 -0.8827  1.6798
  723MOL0     H97557   3.404  11.070   6.276 -0.4569  3.1348 -1.8634
  723MOL0     H97558   3.340  10.928   6.196 -0.0610 -0.0953 -0.5369
  723MOL0     H97559   3.135  11.062   6.155  0.2764 -0.6970  0.2031
  723MOL0     H97560   3.213  11.203   6.194  2.2661  0.3054  0.6013
  723MOL0     H97561   3.261  11.042   5.944 -0.9587  1.2091 -0.8097
  723MOL0     H97562   3.391  11.156   6.005 -0.4578  1.3889  1.5765
  723MOL0     H97563   3.276  11.338   5.967 -0.9446 -1.3459  2.1862
  723MOL0     H97564   3.121  11.273   5.931 -0.5491 -3.0478  3.1423
  723MOL0     H97565   3.408  11.111   5.641 -1.4337  0.2240  2.9472
  723MOL0     H97566   3.630  11.148   5.562  1.3402  1.6136 -0.9286
  723MOL0     H97567   4.071  11.198   5.621  0.8431  1.9243  2.3236
  723MOL0     H97568   4.276  11.225   5.509 -1.7342 -1.4258  2.7193
  723MOL0     H97569   4.302  11.560   5.213 -1.1584  2.4899  2.1911
  723MOL0     H97570   4.355  11.575   5.387  3.2390 -0.4303  0.1726
  723MOL0     H97571   4.569  11.619   5.271 -0.6624  0.8936 -0.9058
  723MOL0     H97572   4.573  11.445   5.298  2.8804  1.6267 -0.1305
  723MOL0     H97573   4.468  11.393   5.082  1.9877 -1.3618 -0.1503
  723MOL0     H97574   4.474  11.569   5.050  0.4231 -1.5271 -3.0357
  723MOL0     H97575   4.675  11.360   5.076 -0.6524 -1.3763 -1.1857
  723MOL0     H97576   4.722  11.539   5.087  0.0640 -1.1890  0.3249
  723MOL0     H97577   4.647  11.567   4.863  3.0994  0.9976  1.5138
  723MOL0     H97578   4.571  11.406   4.842 -0.7669  1.8071 -1.5501
  723MOL0     H97579   4.794  11.317   4.792  1.1906 -0.2447  0.4476
  723MOL0     H97580   4.798  11.490   4.744  2.8278  0.7748 -0.3808
  723MOL0     H97581   4.902  11.368   5.011 -5.0593  1.7463  2.0272
  723MOL0     H97582   4.912  11.538   4.954  0.7911  0.2860  1.7416
  723MOL0     H97583   5.016  11.443   4.734 -2.2191  0.8516  0.0169
  723MOL0     H97584   5.129  11.450   4.862 -2.1492  2.2591  0.1445
  723MOL0     H97585   4.090  11.504   5.232  3.9692  1.5080  0.9227
  723MOL0     H97586   3.868  11.463   5.346 -1.2570 -6.1226 -4.2376
  723MOL0     H97587   3.600  11.550   5.753  1.3584 -0.2183 -0.9772
  723MOL0     H97588   3.380  11.472   5.856 -0.1826 -0.0927  0.9785
  723MOL0     H97589   3.559  11.673   6.147 -0.3270 -1.4075  0.7819
  723MOL0     H97590   3.773  11.643   6.019 -0.7924  0.3627 -0.9836
  723MOL0     H97591   4.044  11.478   5.773  0.1370 -0.5307  0.0485
  723MOL0     H97592   4.279  11.504   5.674 -0.7161 -2.1673  0.1883
  723MOL0     H97593   4.674  11.432   5.883 -2.6575 -1.3190 -3.0929
  723MOL0     H97594   4.599  11.570   5.965 -3.1809 -0.1201  0.7272
  723MOL0     H97595   4.812  11.613   5.835 -0.3427  0.2946 -0.2622
  723MOL0     H97596   4.669  11.722   5.807  0.9795  1.2255 -0.7653
  723MOL0     H97597   4.649  11.573   5.590  1.9554 -3.9816 -0.2837
  723MOL0     H97598   4.803  11.503   5.637  1.5687  0.8279 -0.4981
  723MOL0     H97599   4.759  11.809   5.591 -1.1041 -0.7735 -0.9619
  723MOL0     H97600   4.899  11.717   5.640  0.0832  0.6879 -0.3016
  723MOL0     H97601   4.924  11.655   5.227  0.1326 -2.4453  0.4078
  723MOL0     H97602   4.468  11.408   6.037  0.0454 -1.4513 -2.5570
  723MOL0     H97603   4.304  11.281   6.210 -1.8795 -1.5388  1.4838
  723MOL0     H97604   4.284  11.449   6.241 -0.3091 -1.4092  1.2115
  723MOL0     H97605   4.138  11.349   6.222  0.2314  3.2157  2.5758
  724MOL0     O97606   2.004   0.549   5.135  0.2071 -0.6449  0.2250
  724MOL0     C97607   2.061   0.601   5.046 -0.3903 -0.7491 -0.5949
  724MOL0     O97608   2.027   0.714   4.982 -0.8100 -0.6991 -0.5259
  724MOL0     C97609   1.931   0.797   5.038 -0.0190 -0.9019  0.1187
  724MOL0     C97610   1.863   0.889   4.950 -0.2645  1.4642 -0.7021
  724MOL0     C97611   1.776   0.981   4.997  0.1244  0.9476  0.4352
  724MOL0     C97612   1.739   0.999   5.129 -0.1269 -0.5127  1.1200
  724MOL0     O97613   1.639   1.091   5.164  0.3579 -1.1377  0.6920
  724MOL0     C97614   1.562   1.172   5.070 -0.0729 -0.7086 -0.8429
  724MOL0     C97615   1.505   1.285   5.156  0.4179  0.2431 -0.3762
  724MOL0     C97616   1.428   1.392   5.086 -0.4360  0.2785  0.0623
  724MOL0     C97617   1.511   1.452   4.977 -0.8856 -0.3625 -0.8490
  724MOL0     C97618   1.453   1.575   4.909 -0.1223  0.2319 -0.9454
  724MOL0     C97619   1.416   1.697   4.994 -0.0270  0.5444 -0.7184
  724MOL0     C97620   1.395   1.831   4.912 -0.4461  0.2135 -0.7532
  724MOL0     C97621   1.426   1.955   4.992 -0.2738  0.5082 -0.5409
  724MOL0     N97622   1.332   1.978   5.104 -0.4693  0.1901  0.7399
  724MOL0     C97623   1.234   2.077   5.096 -0.2692 -0.4522 -0.6469
  724MOL0     C97624   1.159   2.051   5.209 -0.5501 -0.2431  0.8286
  724MOL0     C97625   1.030   2.119   5.245 -0.6096 -0.3276  0.9659
  724MOL0     C97626   0.942   2.171   5.129 -0.2797  0.1615  0.6227
  724MOL0     C97627   0.909   2.058   5.022  0.4540  0.1641 -0.0853
  724MOL0     C97628   0.840   2.119   4.898  0.0413  0.5624 -0.4352
  724MOL0     O97629   0.930   2.170   4.802  0.9567 -0.3844 -0.7744
  724MOL0     C97630   0.869   2.202   4.690 -0.2301  0.7707  0.4664
  724MOL0     C97631   0.808   2.330   4.669 -0.0009  0.2337 -0.0488
  724MOL0     C97632   0.725   2.350   4.567 -0.1052 -0.3436  0.4637
  724MOL0     C97633   0.712   2.256   4.461 -0.4608 -0.3155 -0.6496
  724MOL0     C97634   0.623   2.278   4.348  0.3462 -1.5769 -0.6656
  724MOL0     O97635   0.593   2.171   4.277 -0.1948 -0.0943 -0.2277
  724MOL0     C97636   0.531   2.196   4.161  0.1087  0.0211 -0.8948
  724MOL0     C97637   0.402   2.256   4.148  0.3353 -0.3948 -0.1808
  724MOL0     C97638   0.329   2.268   4.028  0.5710 -0.6136  0.0940
  724MOL0     C97639   0.395   2.227   3.909  0.0697  0.1013  0.4353
  724MOL0     O97640   0.309   2.235   3.802  0.0651  0.2375  0.0342
  724MOL0     C97641   0.379   2.251   3.677  1.2784  0.5271 -0.1963
  724MOL0     C97642   0.442   2.381   3.659  0.0091  0.6923 -0.5652
  724MOL0     C97643   0.344   2.500   3.674  0.0213 -0.1585  0.1531
  724MOL0     C97644   0.421   2.632   3.671  0.8580  0.2425 -0.3791
  724MOL0     C97645   0.513   2.661   3.796  0.6530  0.0737 -0.5564
  724MOL0     C97646   0.417   2.720   3.902  0.7154 -0.6662  0.4641
  724MOL0     C97647   0.492   2.762   4.032 -0.3802  0.4422 -0.0071
  724MOL0     C97648   0.395   2.838   4.118  0.1948 -0.4685 -0.1182
  724MOL0    Cl97649   0.504   2.909   4.251  0.1905 -0.0573  0.1953
  724MOL0     C97650   0.523   2.164   3.920  0.1554 -0.7090  0.2323
  724MOL0     C97651   0.597   2.156   4.042  0.2869 -0.4638 -0.3566
  724MOL0     O97652   0.581   2.394   4.324 -0.1953 -1.0028 -0.1432
  724MOL0     C97653   0.788   2.141   4.472 -0.8844 -1.2584  0.1153
  724MOL0     C97654   0.853   2.100   4.585 -0.3721  0.6682 -0.0702
  724MOL0     N97655   1.220   1.947   5.280 -0.0471 -0.4081 -0.8106
  724MOL0     N97656   1.313   1.900   5.211 -0.2653  0.0763  0.5166
  724MOL0     C97657   1.813   0.916   5.224  0.5723 -0.8117  0.3475
  724MOL0     C97658   1.905   0.823   5.178 -0.1130  0.3070 -1.0770
  724MOL0     C97659   2.189   0.526   5.019  0.0597  0.1783 -0.3757
  724MOL0     C97660   2.188   0.378   5.016 -0.2506  0.3047  0.4523
  724MOL0     C97661   2.306   0.308   5.010 -0.1866  0.0358  0.4310
  724MOL0     C97662   2.420   0.380   4.990  0.0594 -0.5598 -0.0391
  724MOL0     O97663   2.546   0.329   4.979  0.1247 -0.3275 -0.1898
  724MOL0     C97664   2.578   0.191   5.008  0.1736  0.1719 -0.1887
  724MOL0     C97665   2.585   0.109   4.870  0.1242  1.0166 -0.1511
  724MOL0     C97666   2.614  -0.038   4.877 -0.3953 -0.2919 -0.0951
  724MOL0     C97667   2.763  -0.071   4.898  0.6717 -0.2814 -0.0267
  724MOL0     C97668   2.807  -0.056   5.040 -1.9646 -0.3638  0.7338
  724MOL0     C97669   2.849  -0.058   5.154  0.4363 -0.0495 -0.2666
  724MOL0     C97670   2.419   0.522   4.992  0.9426  0.2876 -1.0013
  724MOL0     C97671   2.305   0.592   5.008 -0.6240 -0.5166 -0.1287
  724MOL0     C97672   2.303   0.733   4.988  0.4716 -0.2555 -0.5052
  724MOL0     H97673   1.863   0.864   4.844 -0.0836 -3.2770  0.1728
  724MOL0     H97674   1.726   1.037   4.919  2.2804  1.6238 -0.5088
  724MOL0     H97675   1.619   1.216   4.988  2.3516 -0.7519  0.7295
  724MOL0     H97676   1.481   1.110   5.028 -0.7554  0.3222 -1.0929
  724MOL0     H97677   1.588   1.333   5.208  0.9305  2.3303 -2.9131
  724MOL0     H97678   1.425   1.248   5.220 -0.9547 -0.2242 -2.2642
  724MOL0     H97679   1.404   1.467   5.161 -0.5814  1.2234 -0.8996
  724MOL0     H97680   1.337   1.355   5.037 -0.0270  0.6917 -1.0482
  724MOL0     H97681   1.602   1.476   5.034 -0.0746 -1.8317 -1.4744
  724MOL0     H97682   1.539   1.385   4.896 -0.8897 -0.1400 -1.0329
  724MOL0     H97683   1.526   1.615   4.837 -1.5286 -0.8011 -3.0705
  724MOL0     H97684   1.376   1.548   4.836 -0.5406 -1.7040  0.1626
  724MOL0     H97685   1.327   1.671   5.052  1.2527 -1.3464  0.5090
  724MOL0     H97686   1.499   1.711   5.065  0.1024  1.1003 -0.9737
  724MOL0     H97687   1.288   1.833   4.889 -1.0358 -0.4612  1.6021
  724MOL0     H97688   1.454   1.843   4.821  0.4605  0.2253 -0.1790
  724MOL0     H97689   1.529   1.933   5.020  0.7230  0.2402 -3.9477
  724MOL0     H97690   1.429   2.047   4.933 -0.3712  0.4658 -0.6120
  724MOL0     H97691   1.209   2.159   5.030  1.1315 -1.4577 -2.5323
  724MOL0     H97692   0.976   2.044   5.304  0.2589  1.1792  3.8571
  724MOL0     H97693   1.053   2.204   5.310 -0.4929 -1.9224  3.1113
  724MOL0     H97694   0.844   2.211   5.156 -1.3156 -0.9002 -1.3296
  724MOL0     H97695   0.993   2.252   5.077 -2.6711 -0.7842 -3.6576
  724MOL0     H97696   0.844   1.998   5.086  1.4611  0.3118  1.1037
  724MOL0     H97697   0.989   1.996   4.980  0.3678 -1.0059  1.3966
  724MOL0     H97698   0.777   2.204   4.924 -2.6917 -0.1224 -3.9879
  724MOL0     H97699   0.777   2.047   4.844  0.6859  1.7175 -2.8994
  724MOL0     H97700   0.808   2.411   4.741  0.6454  1.1202 -1.0174
  724MOL0     H97701   0.688   2.451   4.555 -1.4564 -0.6787  1.4772
  724MOL0     H97702   0.358   2.291   4.241 -0.9996  0.3990 -1.0850
  724MOL0     H97703   0.226   2.301   4.037  0.6980 -0.3205  0.5704
  724MOL0     H97704   0.448   2.173   3.645  1.6483  0.7182  0.1336
  724MOL0     H97705   0.297   2.231   3.607  2.2167 -0.8098 -0.9731
  724MOL0     H97706   0.526   2.389   3.729  0.8990  0.6685 -1.6033
  724MOL0     H97707   0.484   2.387   3.557 -0.4279  0.9000 -0.7359
  724MOL0     H97708   0.270   2.517   3.596  0.1415  1.7504  0.3994
  724MOL0     H97709   0.297   2.481   3.771 -1.8484 -1.8094 -0.9982
  724MOL0     H97710   0.336   2.701   3.666 -1.0530 -1.7801  1.6665
  724MOL0     H97711   0.491   2.647   3.588  0.7891  0.0884 -0.4646
  724MOL0     H97712   0.578   2.743   3.766  1.7721  0.0179  1.6047
  724MOL0     H97713   0.578   2.583   3.837  2.5626  1.6899 -0.3695
  724MOL0     H97714   0.356   2.800   3.859 -0.2559 -1.1265  0.9444
  724MOL0     H97715   0.352   2.638   3.935 -0.2097 -0.0220  0.2926
  724MOL0     H97716   0.576   2.828   4.010 -0.1542  0.5120  1.0323
  724MOL0     H97717   0.516   2.670   4.086  0.3643  0.4220 -0.3641
  724MOL0     H97718   0.345   2.920   4.066 -0.7097 -0.3407  0.9173
  724MOL0     H97719   0.321   2.767   4.156 -0.3884  1.3149  2.3237
  724MOL0     H97720   0.566   2.122   3.830 -0.4073 -1.2051  0.1861
  724MOL0     H97721   0.696   2.112   4.057  0.4279 -0.9576 -2.4542
  724MOL0     H97722   0.795   2.068   4.392 -1.2397  0.0611 -1.1909
  724MOL0     H97723   0.910   2.008   4.595 -0.6544  0.7416  2.9141
  724MOL0     H97724   1.794   0.919   5.331  4.2716 -0.0355  1.1306
  724MOL0     H97725   1.967   0.768   5.248  1.0856  0.8345 -1.6740
  724MOL0     H97726   2.092   0.327   5.020  0.3410 -0.8108  0.9268
  724MOL0     H97727   2.293   0.201   5.019 -4.0643  0.5157  2.7171
  724MOL0     H97728   2.502   0.148   5.074  1.1833 -1.4308  0.0077
  724MOL0     H97729   2.680   0.177   5.046  1.1517  2.0100 -1.9373
  724MOL0     H97730   2.667   0.162   4.821  1.0188  1.2351  1.5074
  724MOL0     H97731   2.483   0.109   4.830 -0.3081 -2.6304  0.5513
  724MOL0     H97732   2.573  -0.086   4.787 -0.6135 -1.6018  0.6806
  724MOL0     H97733   2.568  -0.074   4.968 -0.6219  4.3938  1.9143
  724MOL0     H97734   2.767  -0.175   4.867  0.6708 -1.8298  4.4808
  724MOL0     H97735   2.822  -0.003   4.836  0.5169 -0.7549 -0.7030
  724MOL0     H97736   2.880  -0.057   5.257 -0.4460 -1.9345  0.0507
  724MOL0     H97737   2.516   0.567   4.975  0.5783  1.1470 -0.8461
  724MOL0     H97738   2.408   0.763   4.995  0.5040 -0.0463 -1.6808
  724MOL0     H97739   2.258   0.757   4.891  0.6186 -3.6975 -1.5793
  724MOL0     H97740   2.253   0.787   5.069  1.0384 -0.5609  0.0542
  725MOL0     O97741   5.454   4.914   6.588  0.0254  0.0316 -0.0457
  725MOL0     C97742   5.443   4.843   6.485 -0.6807 -0.0657 -1.2638
  725MOL0     O97743   5.336   4.853   6.392 -0.9438 -0.0890  0.3208
  725MOL0     C97744   5.337   4.981   6.338  0.0440  0.3552  0.2374
  725MOL0     C97745   5.219   5.056   6.343 -0.8553  0.0263 -0.2397
  725MOL0     C97746   5.210   5.175   6.269  0.0448  0.6420 -0.1639
  725MOL0     C97747   5.316   5.229   6.195 -0.4930 -0.1164  1.5099
  725MOL0     O97748   5.302   5.349   6.126  0.0591 -0.4228  0.2370
  725MOL0     C97749   5.416   5.411   6.061 -0.0136  0.1817 -0.7161
  725MOL0     C97750   5.381   5.548   5.998 -0.7440 -0.6746  0.8012
  725MOL0     C97751   5.280   5.542   5.881 -0.1564  0.1386 -0.6226
  725MOL0     C97752   5.329   5.479   5.747 -0.8459  0.0807 -0.3183
  725MOL0     C97753   5.254   5.516   5.621  0.2687  0.6661 -0.5797
  725MOL0     C97754   5.102   5.502   5.646  0.0726 -0.1077  0.1045
  725MOL0     C97755   5.024   5.489   5.512 -0.1655 -0.6428 -0.4863
  725MOL0     C97756   5.045   5.364   5.435 -0.3162  1.1774  0.6370
  725MOL0     N97757   5.011   5.255   5.528 -0.0308 -0.1850 -0.4192
  725MOL0     C97758   4.888   5.205   5.553  0.1801  0.8220  0.7030
  725MOL0     C97759   4.909   5.090   5.623  0.7009 -0.6541  0.3928
  725MOL0     C97760   4.805   4.999   5.680  0.2477  0.4059  0.3902
  725MOL0     C97761   4.781   4.862   5.604  0.5302  0.2937 -0.6394
  725MOL0     C97762   4.716   4.759   5.684  0.8480 -0.4286  0.2636
  725MOL0     C97763   4.795   4.720   5.810 -0.2430 -0.4807 -0.2369
  725MOL0     O97764   4.772   4.806   5.927  0.4608  0.6769  0.5540
  725MOL0     C97765   4.648   4.814   5.990 -0.0305 -0.3595  0.5227
  725MOL0     C97766   4.541   4.724   5.969 -0.2126  0.4939  0.0753
  725MOL0     C97767   4.422   4.738   6.040  0.2096 -0.7878 -0.1434
  725MOL0     C97768   4.405   4.836   6.143 -0.6711  0.6805 -0.8018
  725MOL0     C97769   4.294   4.836   6.233  0.7032  0.7370 -0.1469
  725MOL0     O97770   4.219   4.725   6.233  0.3481  0.0842  0.1448
  725MOL0     C97771   4.089   4.759   6.277 -0.0978  0.9989  0.2121
  725MOL0     C97772   4.044   4.727   6.404 -0.7791 -0.0743 -0.7799
  725MOL0     C97773   3.915   4.761   6.440  0.3704  0.2450 -0.5082
  725MOL0     C97774   3.819   4.821   6.358  0.1026  0.1859  0.3710
  725MOL0     O97775   3.685   4.853   6.390  0.3063  0.3983 -0.6015
  725MOL0     C97776   3.634   4.837   6.530 -1.0167  0.2006  0.1284
  725MOL0     C97777   3.494   4.892   6.562 -0.2777 -0.1540  0.3785
  725MOL0     C97778   3.387   4.818   6.484 -0.9506 -0.1835 -0.2049
  725MOL0     C97779   3.233   4.860   6.529 -0.1864 -0.1250  0.7139
  725MOL0     C97780   3.136   4.794   6.427 -0.9594 -0.0340 -0.1327
  725MOL0     C97781   3.135   4.634   6.417  0.7638 -0.1548 -0.9178
  725MOL0     C97782   3.058   4.591   6.548 -0.1379  0.1024 -0.1791
  725MOL0     C97783   3.075   4.438   6.560 -0.1008 -1.6969 -0.8238
  725MOL0    Cl97784   3.021   4.390   6.730  0.1729 -0.2873  0.1875
  725MOL0     C97785   3.863   4.848   6.226  0.3162 -0.7524 -0.6358
  725MOL0     C97786   3.998   4.819   6.191  1.0416 -1.0681  0.4597
  725MOL0     O97787   4.279   4.940   6.298  0.0246  0.0239 -0.1154
  725MOL0     C97788   4.513   4.929   6.158  0.3893  0.9245  0.4060
  725MOL0     C97789   4.632   4.906   6.092  0.8123  0.4000 -0.5868
  725MOL0     N97790   5.042   5.068   5.630  0.6174 -0.1015 -0.4160
  725MOL0     N97791   5.103   5.162   5.571  0.4386 -0.1155 -0.0565
  725MOL0     C97792   5.431   5.153   6.189  0.5285 -0.4585  0.3142
  725MOL0     C97793   5.447   5.033   6.265 -0.0393  1.0962  0.1187
  725MOL0     C97794   5.556   4.742   6.443  0.4229 -0.4350  0.1295
  725MOL0     C97795   5.534   4.661   6.329  0.0782 -0.1955  0.6060
  725MOL0     C97796   5.644   4.590   6.276  0.7013  0.6860  0.2337
  725MOL0     C97797   5.767   4.574   6.339  1.1676 -0.5464 -0.3313
  725MOL0     O97798   5.876   4.517   6.281 -0.3923  0.9325 -0.2346
  725MOL0     C97799   5.955   4.441   6.380 -0.2293  0.7716 -0.4198
  725MOL0     C97800   6.028   4.318   6.302 -0.1250 -1.4888 -0.1458
  725MOL0     C97801   6.106   4.373   6.175  0.4058 -0.3985 -0.2911
  725MOL0     C97802   6.210   4.482   6.221 -0.1003 -0.1604 -0.4155
  725MOL0     C97803   6.304   4.522   6.120  0.8041  0.3829 -0.7864
  725MOL0     C97804   6.374   4.553   6.025 -0.4236 -0.0180 -0.7909
  725MOL0     C97805   5.775   4.650   6.461 -0.4146  0.8057  0.6856
  725MOL0     C97806   5.677   4.732   6.512  0.2625  0.3666 -0.7666
  725MOL0     C97807   5.716   4.804   6.641  0.0110 -0.1807  0.8018
  725MOL0     H97808   5.130   5.014   6.388 -2.1581  0.2662 -2.4521
  725MOL0     H97809   5.118   5.232   6.272 -0.0405  0.4721  0.7815
  725MOL0     H97810   5.503   5.428   6.125 -1.0922 -1.0571  1.1697
  725MOL0     H97811   5.460   5.354   5.979 -1.7210  0.1559 -1.6742
  725MOL0     H97812   5.472   5.606   5.979 -0.6020 -1.4649 -1.1205
  725MOL0     H97813   5.339   5.612   6.076  2.9267  1.9601  0.8661
  725MOL0     H97814   5.251   5.646   5.865  1.3473  1.3376  3.2900
  725MOL0     H97815   5.188   5.486   5.902  0.1676 -3.0664 -5.7887
  725MOL0     H97816   5.435   5.500   5.734 -0.0511 -2.5570  1.0688
  725MOL0     H97817   5.316   5.370   5.756 -0.7250 -0.2807 -3.5886
  725MOL0     H97818   5.282   5.616   5.589  1.0190 -0.3446 -3.3957
  725MOL0     H97819   5.289   5.442   5.549  2.3696 -1.5476  2.4604
  725MOL0     H97820   5.081   5.417   5.711  0.2292 -1.3406 -1.4109
  725MOL0     H97821   5.069   5.589   5.704 -2.2585 -1.3155  0.7233
  725MOL0     H97822   5.046   5.567   5.439 -1.1920 -0.9702 -1.1673
  725MOL0     H97823   4.918   5.504   5.536  0.4020 -0.2713  2.1524
  725MOL0     H97824   4.972   5.361   5.353 -0.7306  0.1476  1.0307
  725MOL0     H97825   5.145   5.354   5.393 -0.8531 -2.0755 -0.1325
  725MOL0     H97826   4.787   5.242   5.539  0.0130 -0.0741 -0.5446
  725MOL0     H97827   4.836   4.993   5.785 -0.2497 -0.1000  0.5163
  725MOL0     H97828   4.713   5.059   5.679 -0.2588 -0.2767  1.9159
  725MOL0     H97829   4.719   4.877   5.515 -5.0875  2.4671  3.0783
  725MOL0     H97830   4.875   4.825   5.561  0.7843 -0.7794  0.7848
  725MOL0     H97831   4.719   4.674   5.615 -2.4367 -0.0043 -0.5405
  725MOL0     H97832   4.608   4.772   5.693  0.1330 -1.9298 -3.8056
  725MOL0     H97833   4.904   4.724   5.799  0.1768  3.1594  3.1071
  725MOL0     H97834   4.767   4.618   5.840  1.5132 -1.6434 -2.2638
  725MOL0     H97835   4.539   4.642   5.899  0.8518 -0.8710  1.5842
  725MOL0     H97836   4.342   4.669   6.014 -0.4189 -0.1193 -0.0329
  725MOL0     H97837   4.100   4.704   6.494 -2.9616  2.2892  1.3136
  725MOL0     H97838   3.889   4.736   6.542  1.0188  0.2506 -0.3359
  725MOL0     H97839   3.627   4.733   6.561 -0.3527  0.4843  1.2831
  725MOL0     H97840   3.706   4.893   6.591 -3.3217  0.3150  2.9298
  725MOL0     H97841   3.473   4.867   6.666 -1.3658 -4.3394 -0.6592
  725MOL0     H97842   3.481   4.996   6.529 -2.4751 -1.3761 -3.2257
  725MOL0     H97843   3.394   4.842   6.377 -1.9093 -1.0954 -0.4931
  725MOL0     H97844   3.396   4.710   6.489 -0.2866 -0.2450 -2.0318
  725MOL0     H97845   3.208   4.966   6.518 -2.3414 -0.4151  2.0255
  725MOL0     H97846   3.225   4.828   6.634  0.4642 -1.6582  0.3214
  725MOL0     H97847   3.157   4.835   6.328 -0.6840 -3.1209 -1.4894
  725MOL0     H97848   3.034   4.824   6.453 -0.7656 -1.3042  2.4246
  725MOL0     H97849   3.079   4.621   6.324 -1.0029 -1.2872  0.2417
  725MOL0     H97850   3.230   4.580   6.416 -0.3081 -2.1082 -0.9307
  725MOL0     H97851   2.952   4.617   6.552  0.1534  1.2165  1.0375
  725MOL0     H97852   3.113   4.629   6.635  0.4931 -2.2254  0.5185
  725MOL0     H97853   3.006   4.393   6.488  0.0722 -2.6391 -0.4135
  725MOL0     H97854   3.180   4.413   6.545  0.7523  0.3810  1.0623
  725MOL0     H97855   3.796   4.881   6.148 -3.5074 -0.8562  2.2913
  725MOL0     H97856   4.031   4.851   6.093 -1.0900  0.9633  0.2993
  725MOL0     H97857   4.517   5.013   6.227 -1.1864  0.9881  0.4353
  725MOL0     H97858   4.720   4.961   6.122  0.3046  0.0329  1.8377
  725MOL0     H97859   5.505   5.185   6.117 -3.2894  5.8920 -1.6061
  725MOL0     H97860   5.537   4.972   6.260 -1.3636 -1.1577  1.7811
  725MOL0     H97861   5.443   4.663   6.271  1.7423  0.9587 -2.1549
  725MOL0     H97862   5.637   4.543   6.178 -1.1451  3.1170 -0.9208
  725MOL0     H97863   5.890   4.409   6.462  1.7114  0.8376  1.2016
  725MOL0     H97864   6.032   4.503   6.428 -1.2152  0.7595  1.2666
  725MOL0     H97865   5.948   4.250   6.270 -0.7493 -0.5488 -0.6125
  725MOL0     H97866   6.095   4.267   6.371  2.1164  1.1442 -0.2469
  725MOL0     H97867   6.045   4.425   6.102  1.3577 -0.7203 -1.3435
  725MOL0     H97868   6.156   4.287   6.130  0.4190 -1.5616  1.7887
  725MOL0     H97869   6.152   4.571   6.246 -1.8187 -1.5014  0.5946
  725MOL0     H97870   6.264   4.447   6.310 -1.9674  1.9742  1.6753
  725MOL0     H97871   6.419   4.574   5.930 -3.5050  0.3745 -2.3177
  725MOL0     H97872   5.870   4.651   6.515  0.3684 -0.3154 -0.5982
  725MOL0     H97873   5.817   4.782   6.680 -0.2593 -0.2505  1.4812
  725MOL0     H97874   5.710   4.912   6.628  1.3297 -0.2648 -0.8698
  725MOL0     H97875   5.648   4.767   6.718 -0.4444  0.6022  0.7801
  726MOL0     O97876   9.911   3.532   6.074  0.4368 -0.4369  0.5540
  726MOL0     C97877   9.894   3.623   6.155  0.9219  1.0326  0.4948
  726MOL0     O97878   9.995   3.689   6.215  0.0975  0.5836  0.4953
  726MOL0     C97879  10.125   3.660   6.180 -0.2190 -0.2171  0.0776
  726MOL0     C97880  10.209   3.767   6.139  0.2943  0.3561 -0.5694
  726MOL0     C97881  10.342   3.734   6.103  0.3485 -1.3878  0.2566
  726MOL0     C97882  10.393   3.609   6.104  0.1390  0.6396 -0.3806
  726MOL0     O97883  10.529   3.607   6.070  0.0895  0.1289  0.7791
  726MOL0     C97884  10.574   3.482   6.002  0.1686  0.0928  0.7606
  726MOL0     C97885  10.668   3.529   5.895 -0.4164 -0.4474 -0.4371
  726MOL0     C97886  10.615   3.528   5.753  0.5341  0.6467 -0.6286
  726MOL0     C97887  10.689   3.604   5.653 -0.2365  0.2484  0.4022
  726MOL0     C97888  10.652   3.583   5.505 -0.4596 -0.6051  0.9594
  726MOL0     C97889  10.694   3.447   5.456  0.6808 -0.5464  0.2878
  726MOL0     C97890  10.641   3.421   5.308 -0.3797 -0.7430 -0.3183
  726MOL0     C97891  10.678   3.522   5.196 -0.0594  0.8117 -0.3130
  726MOL0     N97892  10.639   3.479   5.066  0.1157 -0.6861 -0.3598
  726MOL0     C97893  10.520   3.519   5.010  0.8004  1.2539 -0.6914
  726MOL0     C97894  10.539   3.522   4.876  0.0204  0.4160 -0.1564
  726MOL0     C97895  10.433   3.576   4.785 -0.5892 -0.6721 -0.7561
  726MOL0     C97896  10.355   3.464   4.708 -0.2321  0.1370 -0.1618
  726MOL0     C97897  10.242   3.505   4.607  0.4770  0.8467 -0.2614
  726MOL0     C97898  10.304   3.576   4.491 -1.2065 -0.8729 -0.0061
  726MOL0     O97899  10.413   3.503   4.429  0.0383  1.0499  0.4571
  726MOL0     C97900  10.393   3.421   4.323 -0.1432 -0.3661  0.4774
  726MOL0     C97901  10.510   3.366   4.272  0.9212 -0.8425  0.5443
  726MOL0     C97902  10.506   3.296   4.151  0.4198 -0.3385 -0.8330
  726MOL0     C97903  10.378   3.259   4.098  0.0575 -0.0452 -0.6103
  726MOL0     C97904  10.359   3.167   3.974 -0.0602 -0.7640 -0.5987
  726MOL0     O97905  10.230   3.160   3.922  0.7239 -0.9822 -0.3270
  726MOL0     C97906  10.198   3.082   3.815 -0.3473  0.2813  0.8596
  726MOL0     C97907  10.089   2.992   3.829  0.1434 -0.5800  0.3192
  726MOL0     C97908  10.057   2.892   3.739 -0.8376  0.4545 -0.0716
  726MOL0     C97909  10.115   2.889   3.612 -0.1251 -0.6455  1.1515
  726MOL0     O97910  10.065   2.808   3.513  0.0865  0.9795  0.0446
  726MOL0     C97911  10.125   2.783   3.388 -0.2908 -0.2729  0.3926
  726MOL0     C97912  10.048   2.697   3.290 -0.4781  0.6860  0.2971
  726MOL0     C97913   9.926   2.766   3.235 -0.9999  1.1696  0.5435
  726MOL0     C97914   9.873   2.689   3.114  0.8006 -0.3043 -0.0509
  726MOL0     C97915   9.807   2.550   3.143 -0.1028  0.2831  0.0486
  726MOL0     C97916   9.752   2.478   3.015  0.3432 -0.6985  0.4243
  726MOL0     C97917   9.646   2.561   2.941  0.3273 -1.1770 -0.9242
  726MOL0     C97918   9.692   2.597   2.803  0.2143 -1.0099  0.4771
  726MOL0    Cl97919   9.720   2.455   2.689 -0.1061 -0.6086 -0.2482
  726MOL0     C97920  10.223   2.984   3.585 -0.1834  0.3919 -1.0893
  726MOL0     C97921  10.259   3.084   3.688  0.2150  0.2879  0.0203
  726MOL0     O97922  10.463   3.114   3.933  0.1137  0.4037 -0.0381
  726MOL0     C97923  10.258   3.310   4.165  0.7894  0.0304 -0.1236
  726MOL0     C97924  10.265   3.394   4.269 -0.1929 -0.1432  0.5543
  726MOL0     N97925  10.669   3.480   4.855 -0.3441  0.0183 -0.7856
  726MOL0     N97926  10.732   3.462   4.969  0.1024  0.2495  0.5365
  726MOL0     C97927  10.313   3.500   6.147  0.2318 -0.0550  0.5922
  726MOL0     C97928  10.186   3.533   6.198  0.3603  0.3333  0.1580
  726MOL0     C97929   9.758   3.651   6.190  0.0735 -0.0605  0.1024
  726MOL0     C97930   9.732   3.783   6.248 -0.6579  1.0237  0.2549
  726MOL0     C97931   9.604   3.813   6.281  0.6249 -0.4621 -1.0911
  726MOL0     C97932   9.506   3.727   6.283  1.6820 -0.1466  0.6022
  726MOL0     O97933   9.391   3.790   6.315 -0.4413  0.4558 -0.3979
  726MOL0     C97934   9.276   3.705   6.323 -0.7573  0.1388  0.3147
  726MOL0     C97935   9.166   3.788   6.402  0.4437  0.2310  0.7793
  726MOL0     C97936   9.039   3.705   6.390 -0.2180 -0.4532  0.0746
  726MOL0     C97937   8.936   3.726   6.495  0.1549 -0.3733 -0.4489
  726MOL0     C97938   8.815   3.656   6.454  0.3325  0.0026 -0.6615
  726MOL0     C97939   8.712   3.598   6.435 -1.1756 -0.3172  0.3974
  726MOL0     C97940   9.525   3.604   6.232  1.3410 -0.1563 -1.0989
  726MOL0     C97941   9.647   3.565   6.186 -0.5921  0.4036  0.6250
  726MOL0     C97942   9.660   3.428   6.118  0.8216 -0.2545  0.4577
  726MOL0     H97943  10.187   3.873   6.138  0.2448  0.4803  2.4808
  726MOL0     H97944  10.400   3.825   6.100 -1.4358 -0.2235 -1.1016
  726MOL0     H97945  10.627   3.413   6.069  0.9005 -2.2076 -1.9882
  726MOL0     H97946  10.499   3.425   5.947 -1.5172  1.7140  1.2869
  726MOL0     H97947  10.761   3.474   5.910 -0.6359 -0.7814 -0.3010
  726MOL0     H97948  10.698   3.631   5.921 -1.2390 -0.1953 -0.4707
  726MOL0     H97949  10.510   3.557   5.750 -1.3039 -4.8216 -0.0632
  726MOL0     H97950  10.621   3.423   5.722  2.9720  1.2515 -2.5759
  726MOL0     H97951  10.694   3.712   5.670  3.9102  0.5053 -1.0592
  726MOL0     H97952  10.793   3.571   5.661 -0.6342 -1.7941 -1.7662
  726MOL0     H97953  10.545   3.597   5.487 -0.1401  2.3063  0.9093
  726MOL0     H97954  10.708   3.657   5.447  1.6344 -2.0891  0.9755
  726MOL0     H97955  10.803   3.434   5.449  0.3023 -3.2058 -2.2763
  726MOL0     H97956  10.657   3.373   5.528 -3.0229  1.1348  0.3034
  726MOL0     H97957  10.534   3.437   5.318  0.2664  3.7378  1.4605
  726MOL0     H97958  10.674   3.322   5.273  1.8754 -0.4091  0.7160
  726MOL0     H97959  10.637   3.620   5.224  2.4405  2.6751 -2.6052
  726MOL0     H97960  10.787   3.526   5.194  0.1924 -2.7665  0.4979
  726MOL0     H97961  10.428   3.544   5.062 -0.5063 -0.0802 -2.2632
  726MOL0     H97962  10.364   3.647   4.831  0.4890 -0.7046  0.9813
  726MOL0     H97963  10.494   3.635   4.715 -2.7320  0.6025 -1.6740
  726MOL0     H97964  10.419   3.384   4.669  0.6682  0.1229  1.2849
  726MOL0     H97965  10.292   3.424   4.788 -2.3222  4.7680  0.8349
  726MOL0     H97966  10.164   3.569   4.649  0.6686  1.8029 -1.3062
  726MOL0     H97967  10.204   3.411   4.566  0.4981  1.7771 -2.5614
  726MOL0     H97968  10.345   3.671   4.528  0.1787 -0.3568 -2.6431
  726MOL0     H97969  10.229   3.606   4.417 -0.4801 -1.4908 -1.0029
  726MOL0     H97970  10.616   3.381   4.290  0.9921  1.2446 -1.1545
  726MOL0     H97971  10.590   3.253   4.097  1.8944 -0.2615  1.2911
  726MOL0     H97972  10.040   2.988   3.925  2.1796 -2.0027  1.3572
  726MOL0     H97973   9.979   2.823   3.767 -1.7056  1.7079  0.6979
  726MOL0     H97974  10.154   2.878   3.343  0.1644  0.9401  3.0555
  726MOL0     H97975  10.221   2.732   3.401 -0.6434 -0.8098  0.9379
  726MOL0     H97976  10.110   2.672   3.204 -1.9062 -0.3883 -0.4512
  726MOL0     H97977  10.013   2.604   3.337 -3.8070  1.9794  0.6105
  726MOL0     H97978   9.843   2.771   3.306 -0.0034  1.0928  1.7583
  726MOL0     H97979   9.949   2.867   3.199  0.0177  0.4033 -1.0495
  726MOL0     H97980   9.952   2.678   3.038  0.5658  1.8525 -0.6682
  726MOL0     H97981   9.802   2.745   3.053  0.3838 -1.3020 -0.4943
  726MOL0     H97982   9.731   2.568   3.220 -2.1329 -2.0737 -1.2603
  726MOL0     H97983   9.887   2.496   3.195  0.1056 -0.9990 -1.5282
  726MOL0     H97984   9.843   2.449   2.962 -0.7637 -0.6476 -1.6400
  726MOL0     H97985   9.697   2.388   3.043 -0.8115  0.0514  0.6321
  726MOL0     H97986   9.625   2.656   2.990 -0.0260 -0.7299 -1.9211
  726MOL0     H97987   9.547   2.519   2.924 -1.3630  1.4791  1.4549
  726MOL0     H97988   9.611   2.653   2.756 -0.8413 -0.7790  2.4677
  726MOL0     H97989   9.772   2.672   2.811 -1.7207  1.0207  1.8755
  726MOL0     H97990  10.254   2.982   3.481  0.9578 -1.8537 -0.7536
  726MOL0     H97991  10.335   3.157   3.663  1.1393 -0.8489 -0.5734
  726MOL0     H97992  10.161   3.282   4.123  0.9384 -0.9701  0.1606
  726MOL0     H97993  10.173   3.433   4.311 -0.7129 -1.1541  0.3837
  726MOL0     H97994  10.360   3.404   6.167 -1.9141 -0.9966  1.3795
  726MOL0     H97995  10.130   3.455   6.249 -0.5624  1.2461  0.5804
  726MOL0     H97996   9.808   3.860   6.250  1.5110 -1.0166  0.7212
  726MOL0     H97997   9.589   3.910   6.326  2.1601 -0.0665 -1.3741
  726MOL0     H97998   9.295   3.610   6.373 -3.6571 -0.7197 -0.0257
  726MOL0     H97999   9.242   3.670   6.225 -1.0477 -1.0448  0.8164
  726MOL0     H98000   9.147   3.888   6.362 -0.0329 -0.5758 -1.0780
  726MOL0     H98001   9.199   3.800   6.506  2.6301 -1.5312  0.3756
  726MOL0     H98002   9.068   3.600   6.401  2.6497  0.0700 -1.4909
  726MOL0     H98003   8.987   3.719   6.295  3.5032 -1.0768 -2.2628
  726MOL0     H98004   8.969   3.689   6.593 -0.9558 -3.2601 -1.0723
  726MOL0     H98005   8.911   3.832   6.487  0.4430 -0.4632 -3.5355
  726MOL0     H98006   8.632   3.530   6.412 -0.4128 -0.9515 -0.4552
  726MOL0     H98007   9.442   3.535   6.220  0.0640  1.1243  0.0446
  726MOL0     H98008   9.574   3.367   6.147 -0.7255  1.4753 -0.2749
  726MOL0     H98009   9.656   3.432   6.009  1.2761 -2.2487  0.3427
  726MOL0     H98010   9.742   3.377   6.169 -0.3819 -2.0310  0.6947
  727MOL0     O98011   6.409   2.278   5.458  0.5315 -0.3071  0.7664
  727MOL0     C98012   6.446   2.333   5.564  0.1456  0.4026  0.8408
  727MOL0     O98013   6.374   2.331   5.681 -0.4583  0.6396 -0.8498
  727MOL0     C98014   6.241   2.286   5.687  0.1493 -0.8080  0.4812
  727MOL0     C98015   6.144   2.388   5.715  0.0873  1.4223 -1.0501
  727MOL0     C98016   6.005   2.347   5.722 -0.7609 -0.5569  0.8998
  727MOL0     C98017   5.971   2.221   5.691  0.2377 -0.3275  0.9343
  727MOL0     O98018   5.837   2.201   5.674  0.1980 -0.3813  0.5465
  727MOL0     C98019   5.797   2.137   5.545 -0.2784 -1.0000 -0.2221
  727MOL0     C98020   5.797   2.225   5.422  0.4903  0.2009  0.7334
  727MOL0     C98021   5.787   2.138   5.295  0.3505  0.4767 -0.3649
  727MOL0     C98022   5.811   2.221   5.169  0.2227  0.3646 -0.6355
  727MOL0     C98023   5.966   2.219   5.135 -0.3101  0.5553  0.4308
  727MOL0     C98024   6.001   2.297   5.002 -0.2441  0.5106  0.2531
  727MOL0     C98025   6.152   2.317   4.993 -0.4976 -0.8894 -0.2742
  727MOL0     C98026   6.193   2.382   4.857 -0.6801  0.6797 -0.2797
  727MOL0     N98027   6.138   2.516   4.848 -0.3570  0.3940  0.5204
  727MOL0     C98028   6.165   2.625   4.930 -0.1046  0.1310  0.3925
  727MOL0     C98029   6.115   2.729   4.874 -0.6578 -0.8187 -0.2998
  727MOL0     C98030   6.133   2.860   4.937 -0.2283 -1.2075 -0.6716
  727MOL0     C98031   6.176   2.972   4.834 -0.3921 -0.0328  0.1778
  727MOL0     C98032   6.132   3.109   4.881 -0.6547 -0.4458  0.8936
  727MOL0     C98033   6.120   3.229   4.780  0.5415 -0.4609 -0.0851
  727MOL0     O98034   6.194   3.347   4.825 -0.1298  0.7309 -0.2689
  727MOL0     C98035   6.331   3.331   4.844  0.1955 -0.2794 -0.9149
  727MOL0     C98036   6.393   3.411   4.942  1.3212 -0.2493 -0.2856
  727MOL0     C98037   6.531   3.425   4.960 -0.6004 -0.5767 -0.1661
  727MOL0     C98038   6.619   3.341   4.880  0.6377 -0.3585 -0.0703
  727MOL0     C98039   6.765   3.351   4.896 -0.0266  1.1423 -0.4818
  727MOL0     O98040   6.831   3.240   4.849 -0.1236 -0.3121 -0.2830
  727MOL0     C98041   6.943   3.216   4.917 -1.5542 -0.1318 -0.3980
  727MOL0     C98042   7.059   3.257   4.853  0.1293  0.6581 -0.3244
  727MOL0     C98043   7.185   3.242   4.918  0.6610  0.2257  0.3465
  727MOL0     C98044   7.202   3.185   5.046  1.6474  0.2903 -0.0612
  727MOL0     O98045   7.318   3.165   5.097 -0.8888 -0.8718  0.4266
  727MOL0     C98046   7.422   3.263   5.073  0.5227  0.3052  0.1521
  727MOL0     C98047   7.552   3.225   5.152  0.1171 -0.6437  0.2812
  727MOL0     C98048   7.600   3.085   5.108  0.0985  0.2013  1.0691
  727MOL0     C98049   7.741   3.058   5.161  0.6567  0.1053 -0.2629
  727MOL0     C98050   7.762   2.906   5.190  0.0408 -0.3151 -0.1808
  727MOL0     C98051   7.820   2.829   5.067  0.1333  0.1560  0.2864
  727MOL0     C98052   7.881   2.694   5.114  0.5553  0.0344  0.2686
  727MOL0     C98053   7.783   2.571   5.136 -0.5501 -0.1593 -0.4319
  727MOL0    Cl98054   7.706   2.523   4.987  0.5270  0.0188 -0.3207
  727MOL0     C98055   7.082   3.152   5.120 -0.1190 -0.1284  0.1828
  727MOL0     C98056   6.956   3.166   5.056 -0.0796 -0.2392  0.1146
  727MOL0     O98057   6.805   3.432   4.981 -0.6056  0.9493  0.4384
  727MOL0     C98058   6.555   3.255   4.782  0.1701 -0.6504  0.7578
  727MOL0     C98059   6.418   3.256   4.763  1.1761  0.6778  0.0223
  727MOL0     N98060   6.045   2.691   4.761 -0.4719 -0.3309  0.7998
  727MOL0     N98061   6.058   2.556   4.752  0.3897 -0.0428 -0.1626
  727MOL0     C98062   6.069   2.115   5.666 -0.0543 -0.4078 -0.3716
  727MOL0     C98063   6.201   2.154   5.654 -0.1908 -0.1264 -0.1017
  727MOL0     C98064   6.588   2.372   5.588  0.1943 -0.0639  0.1895
  727MOL0     C98065   6.639   2.382   5.721 -0.4695 -1.5688  0.1970
  727MOL0     C98066   6.763   2.439   5.753 -0.1772  0.8103 -0.6294
  727MOL0     C98067   6.853   2.477   5.648 -0.7973 -0.5722 -0.7830
  727MOL0     O98068   6.972   2.550   5.665  0.2878  0.3754 -0.0960
  727MOL0     C98069   7.025   2.561   5.803 -0.4415 -0.3499 -1.2484
  727MOL0     C98070   7.171   2.550   5.788  0.2512  0.6473 -0.1418
  727MOL0     C98071   7.234   2.647   5.693 -0.8247  0.0877 -0.3668
  727MOL0     C98072   7.384   2.614   5.661  0.6626  0.0069  0.9144
  727MOL0     C98073   7.423   2.680   5.537 -0.3350  0.2820 -1.0062
  727MOL0     C98074   7.466   2.724   5.433  0.5174 -0.1143 -0.5203
  727MOL0     C98075   6.815   2.432   5.520  0.3734 -0.0017  0.1419
  727MOL0     C98076   6.683   2.394   5.484 -0.8606  0.3974  0.5520
  727MOL0     C98077   6.648   2.363   5.344 -0.1659 -0.3289 -0.0344
  727MOL0     H98078   6.179   2.483   5.754 -1.5660  2.2067 -1.3976
  727MOL0     H98079   5.932   2.417   5.762 -1.0354  1.8651 -3.2034
  727MOL0     H98080   5.847   2.043   5.518 -1.6339 -1.6632 -0.5128
  727MOL0     H98081   5.690   2.118   5.557 -1.1666  2.9468 -0.6101
  727MOL0     H98082   5.894   2.275   5.428  1.0289 -0.6216 -0.5713
  727MOL0     H98083   5.713   2.294   5.432 -0.9056 -1.4518  0.8360
  727MOL0     H98084   5.683   2.104   5.302 -0.0910  2.0644  1.5816
  727MOL0     H98085   5.850   2.049   5.298  1.1120  1.0059 -0.4579
  727MOL0     H98086   5.746   2.183   5.090  0.4967 -0.8273 -0.3099
  727MOL0     H98087   5.782   2.325   5.186  1.8330  0.7071  0.2537
  727MOL0     H98088   6.024   2.264   5.216  0.4973 -0.2307  0.3003
  727MOL0     H98089   6.006   2.118   5.120 -0.4274  0.5326  0.2662
  727MOL0     H98090   5.974   2.240   4.912 -1.4300  0.8740  0.3589
  727MOL0     H98091   5.945   2.391   4.995  0.3115  0.9041  1.0103
  727MOL0     H98092   6.191   2.215   4.996 -3.3637 -2.0624 -0.3304
  727MOL0     H98093   6.197   2.383   5.068  1.4473 -1.0995 -1.2062
  727MOL0     H98094   6.301   2.393   4.845  0.0478 -3.5554  0.7271
  727MOL0     H98095   6.162   2.320   4.773 -0.7035 -0.0281  0.2363
  727MOL0     H98096   6.210   2.609   5.028 -2.3117 -3.6441  0.9763
  727MOL0     H98097   6.039   2.899   4.978  1.7064  1.7905  1.3110
  727MOL0     H98098   6.196   2.852   5.027 -1.9239  3.7255  1.3068
  727MOL0     H98099   6.284   2.985   4.825 -0.5195  2.0971  1.0696
  727MOL0     H98100   6.139   2.952   4.733 -0.5801  1.0008  0.0309
  727MOL0     H98101   6.216   3.127   4.949  4.6320 -0.9151 -4.6592
  727MOL0     H98102   6.030   3.096   4.918 -0.3003  1.1407  2.5812
  727MOL0     H98103   6.014   3.254   4.774  0.4521 -0.5483  0.8718
  727MOL0     H98104   6.145   3.194   4.680 -0.4840 -2.0967  0.2035
  727MOL0     H98105   6.333   3.484   4.995  0.0381 -1.9728  0.7106
  727MOL0     H98106   6.566   3.495   5.036  1.6601 -1.8316  0.0667
  727MOL0     H98107   7.054   3.298   4.753 -0.9467 -0.0342 -0.5710
  727MOL0     H98108   7.264   3.275   4.851  0.3239 -1.2694 -0.8362
  727MOL0     H98109   7.449   3.271   4.967 -0.3261 -0.3643 -0.1297
  727MOL0     H98110   7.395   3.361   5.114  0.2458  0.1274  0.3927
  727MOL0     H98111   7.632   3.294   5.124 -0.5076 -0.7685 -1.9422
  727MOL0     H98112   7.526   3.229   5.259 -1.0640 -0.8252  0.0161
  727MOL0     H98113   7.543   3.010   5.164  1.0957 -0.0224  1.8124
  727MOL0     H98114   7.602   3.069   5.000 -0.2800 -2.7738  1.4217
  727MOL0     H98115   7.743   3.109   5.258 -4.3503 -0.5574  0.4539
  727MOL0     H98116   7.820   3.095   5.095  2.4623 -0.5301  1.4227
  727MOL0     H98117   7.671   2.853   5.219 -0.0932 -1.0216 -1.8075
  727MOL0     H98118   7.832   2.913   5.274  0.1509  2.3775 -0.4192
  727MOL0     H98119   7.747   2.819   4.986  0.9547 -0.6727 -0.3777
  727MOL0     H98120   7.906   2.889   5.035 -1.8744  3.1887  0.1580
  727MOL0     H98121   7.937   2.719   5.205  0.5865 -1.7645  0.7874
  727MOL0     H98122   7.947   2.649   5.039 -1.4772 -0.3436 -1.3881
  727MOL0     H98123   7.844   2.483   5.158  0.4084  1.0072  1.9373
  727MOL0     H98124   7.707   2.595   5.211 -1.0952  0.4067 -1.1577
  727MOL0     H98125   7.088   3.106   5.218 -5.6740 -2.3420 -0.1040
  727MOL0     H98126   6.861   3.140   5.100  0.4904 -3.2925 -0.2433
  727MOL0     H98127   6.608   3.193   4.711  1.2162  1.1563 -0.1147
  727MOL0     H98128   6.384   3.203   4.675 -2.0455  2.9154 -0.2743
  727MOL0     H98129   6.029   2.015   5.658  0.0038 -0.4617  0.0303
  727MOL0     H98130   6.276   2.084   5.619  0.8889  2.1644 -2.6714
  727MOL0     H98131   6.568   2.355   5.799 -0.4429  0.0557  0.8202
  727MOL0     H98132   6.787   2.439   5.859  2.3294 -2.3902 -1.0473
  727MOL0     H98133   6.980   2.483   5.866 -0.4662  0.9918  0.4751
  727MOL0     H98134   7.000   2.655   5.854  2.3254 -0.1806 -0.0079
  727MOL0     H98135   7.187   2.452   5.742 -0.3911 -0.6107  2.1593
  727MOL0     H98136   7.219   2.561   5.886  1.7560  0.6804 -0.8473
  727MOL0     H98137   7.211   2.747   5.731 -1.5661 -0.3445  0.3552
  727MOL0     H98138   7.177   2.647   5.599 -2.0471  0.2395  0.3450
  727MOL0     H98139   7.451   2.654   5.738  0.5728  0.6661  0.6564
  727MOL0     H98140   7.390   2.505   5.652  1.6718  0.0589  0.8312
  727MOL0     H98141   7.499   2.769   5.342  1.5784  1.4709  0.6017
  727MOL0     H98142   6.893   2.433   5.443  0.4556 -0.4444  0.2160
  727MOL0     H98143   6.733   2.390   5.281  0.2354 -1.3688  0.0428
  727MOL0     H98144   6.634   2.255   5.330 -2.1463  0.0086 -0.9655
  727MOL0     H98145   6.561   2.424   5.318 -0.3565 -1.5740 -2.5392
  728MOL0     O98146   5.404   6.188   3.080  0.1088  0.4129  0.1036
  728MOL0     C98147   5.355   6.079   3.121 -0.3663 -1.3665  0.7361
  728MOL0     O98148   5.418   5.957   3.116 -0.3492 -0.7595  0.5036
  728MOL0     C98149   5.505   5.939   3.015  0.4355 -0.1409  0.8868
  728MOL0     C98150   5.476   5.888   2.888  0.6475 -0.5207  0.9023
  728MOL0     C98151   5.563   5.877   2.782 -0.7003 -0.2851 -0.3145
  728MOL0     C98152   5.695   5.927   2.805  0.2367 -0.6430  0.5108
  728MOL0     O98153   5.793   5.904   2.704  0.2801 -0.1641 -0.2594
  728MOL0     C98154   5.934   5.940   2.723  1.0636  1.0217 -0.3075
  728MOL0     C98155   5.996   5.917   2.587  0.1505  0.2834  0.1885
  728MOL0     C98156   6.141   5.935   2.570  0.0842  0.3198  0.2992
  728MOL0     C98157   6.186   6.074   2.612 -0.0500 -0.8962 -0.4648
  728MOL0     C98158   6.334   6.084   2.579 -0.0091 -0.8555  0.2951
  728MOL0     C98159   6.373   6.227   2.618  0.3086 -0.1061 -0.6627
  728MOL0     C98160   6.516   6.269   2.572  0.0015  0.3196 -0.7707
  728MOL0     C98161   6.620   6.162   2.623 -0.1626 -0.7781 -0.4652
  728MOL0     N98162   6.753   6.209   2.584  0.6895  0.1447 -0.5002
  728MOL0     C98163   6.818   6.321   2.632 -0.0559  0.2147  0.4401
  728MOL0     C98164   6.944   6.312   2.585 -0.7367 -0.2436  0.2207
  728MOL0     C98165   7.047   6.424   2.601 -0.4348  0.2284 -0.3970
  728MOL0     C98166   7.145   6.371   2.701  1.2564 -0.1463 -0.3902
  728MOL0     C98167   7.261   6.460   2.751  0.1221 -0.5081  0.8912
  728MOL0     C98168   7.365   6.383   2.825  0.1435 -0.6580 -0.3368
  728MOL0     O98169   7.435   6.311   2.728  0.2835  0.4321  0.0772
  728MOL0     C98170   7.550   6.250   2.762  0.1349  0.1722  0.5555
  728MOL0     C98171   7.620   6.261   2.882 -0.3224  0.9763  0.0069
  728MOL0     C98172   7.728   6.182   2.904 -0.8787  0.5377  1.5146
  728MOL0     C98173   7.776   6.096   2.805 -0.0796  0.3317 -0.5865
  728MOL0     C98174   7.909   6.042   2.816  0.0914 -0.1366 -0.1460
  728MOL0     O98175   7.969   6.075   2.939  0.1013  0.5754  0.5449
  728MOL0     C98176   8.087   6.003   2.965 -0.0846 -0.0519 -1.0944
  728MOL0     C98177   8.209   6.013   2.889 -0.6040  0.3436 -0.4515
  728MOL0     C98178   8.328   5.931   2.923  0.3225 -0.1889 -0.3848
  728MOL0     C98179   8.325   5.852   3.032 -0.5870 -0.4967 -0.3205
  728MOL0     O98180   8.442   5.796   3.059  0.4388  0.6817  0.1825
  728MOL0     C98181   8.450   5.680   3.149  0.1260  0.2157 -0.0673
  728MOL0     C98182   8.597   5.625   3.158  0.6093 -0.4579 -0.4658
  728MOL0     C98183   8.606   5.483   3.105  0.4559  0.4859 -0.5484
  728MOL0     C98184   8.743   5.412   3.132 -0.9591 -0.4925  0.6682
  728MOL0     C98185   8.852   5.507   3.074 -0.4803 -0.0372 -0.4072
  728MOL0     C98186   8.985   5.430   3.080  0.3997  0.4806 -0.0731
  728MOL0     C98187   8.995   5.314   2.972 -0.6438  0.9929 -0.2534
  728MOL0     C98188   9.133   5.254   2.958 -0.4027 -1.1411 -0.4863
  728MOL0    Cl98189   9.190   5.176   3.097  0.1706 -0.2839 -0.2606
  728MOL0     C98190   8.209   5.848   3.110 -0.8139  0.6243 -0.1140
  728MOL0     C98191   8.094   5.913   3.071  0.6165 -1.1889 -0.0299
  728MOL0     O98192   7.951   5.964   2.737  0.1251  0.0057  0.8673
  728MOL0     C98193   7.702   6.082   2.681  0.6732 -0.0403 -1.0726
  728MOL0     C98194   7.594   6.170   2.657 -0.7906 -0.3374  0.6483
  728MOL0     N98195   6.956   6.196   2.521  0.2940  0.2771  0.2407
  728MOL0     N98196   6.844   6.137   2.512 -0.0150 -0.6210  0.7810
  728MOL0     C98197   5.729   5.971   2.928 -0.8106  0.2697 -0.3106
  728MOL0     C98198   5.633   5.974   3.031 -0.3616  0.0797 -0.2990
  728MOL0     C98199   5.234   6.080   3.207  0.2380 -0.1032  0.0030
  728MOL0     C98200   5.207   5.968   3.287 -0.0302  0.7552 -0.8377
  728MOL0     C98201   5.105   5.947   3.386 -0.2255 -0.8195  0.0083
  728MOL0     C98202   5.010   6.058   3.397  0.5511  0.4195 -0.1555
  728MOL0     O98203   4.900   6.033   3.481 -0.6853  0.7719  0.2625
  728MOL0     C98204   4.855   6.143   3.556 -0.5683 -1.0498  0.2939
  728MOL0     C98205   4.770   6.093   3.666  0.1807 -0.1680 -0.5859
  728MOL0     C98206   4.635   6.044   3.612 -0.0687  0.2278  0.5361
  728MOL0     C98207   4.563   5.982   3.739  0.5230  0.4051 -0.2045
  728MOL0     C98208   4.467   6.082   3.786  0.6541 -0.1838  0.0202
  728MOL0     C98209   4.376   6.149   3.829 -0.5064 -0.6419 -0.4375
  728MOL0     C98210   5.029   6.170   3.316 -0.1626  0.5634 -1.0823
  728MOL0     C98211   5.140   6.188   3.228 -0.4497  0.3964 -0.1588
  728MOL0     C98212   5.160   6.328   3.173 -0.1995  0.1495 -0.2444
  728MOL0     H98213   5.377   5.846   2.873  0.4290  0.1325  0.4550
  728MOL0     H98214   5.526   5.822   2.696  0.5538  1.2195 -1.8989
  728MOL0     H98215   5.941   6.044   2.756 -0.4856  1.3095 -0.7785
  728MOL0     H98216   5.988   5.871   2.789 -0.5877 -1.0545 -0.9864
  728MOL0     H98217   5.929   5.968   2.517  0.5884  0.7733  0.1238
  728MOL0     H98218   5.974   5.811   2.567  0.5659  0.2566 -0.1435
  728MOL0     H98219   6.161   5.921   2.463 -2.8504  0.3478 -0.3409
  728MOL0     H98220   6.195   5.855   2.620 -2.2583 -2.1892 -0.9376
  728MOL0     H98221   6.132   6.155   2.564  0.1811 -0.6369 -0.2908
  728MOL0     H98222   6.171   6.092   2.719  0.4633  0.9473 -0.6789
  728MOL0     H98223   6.394   6.009   2.632  0.5860  0.0939  1.0020
  728MOL0     H98224   6.354   6.065   2.473 -0.5045  1.6579 -0.3073
  728MOL0     H98225   6.302   6.301   2.578  0.7223  0.2108 -0.8107
  728MOL0     H98226   6.365   6.241   2.726  0.2041  0.6310 -0.7603
  728MOL0     H98227   6.527   6.366   2.622 -2.9784 -0.8944  2.7365
  728MOL0     H98228   6.534   6.278   2.465  4.0704  4.6985 -0.0378
  728MOL0     H98229   6.621   6.155   2.732  2.5261 -1.7026 -0.4518
  728MOL0     H98230   6.612   6.062   2.580  0.7123 -1.7315  1.4818
  728MOL0     H98231   6.777   6.399   2.695  0.1668  2.5011 -2.0761
  728MOL0     H98232   7.094   6.435   2.503  1.5921  3.5619  0.8020
  728MOL0     H98233   6.992   6.515   2.626  1.0925  0.9985  0.2433
  728MOL0     H98234   7.101   6.350   2.799  1.1677  2.0162  0.0917
  728MOL0     H98235   7.189   6.279   2.662  0.4208 -0.2268 -1.1946
  728MOL0     H98236   7.214   6.539   2.810 -2.3578 -1.1570 -0.0925
  728MOL0     H98237   7.319   6.513   2.674 -0.4984  0.9327  1.3799
  728MOL0     H98238   7.315   6.321   2.900 -2.7277  0.0957 -1.4659
  728MOL0     H98239   7.422   6.458   2.881 -1.5207  0.5858 -0.2219
  728MOL0     H98240   7.586   6.314   2.970 -0.5181 -1.2614  1.3686
  728MOL0     H98241   7.779   6.201   2.999 -0.7825  4.3080  0.8697
  728MOL0     H98242   8.214   6.085   2.807  0.4085  2.9768  1.7649
  728MOL0     H98243   8.426   5.940   2.879  2.3213  2.1488  3.9325
  728MOL0     H98244   8.403   5.688   3.247  1.9101 -1.0831  0.9532
  728MOL0     H98245   8.397   5.605   3.090  0.0455  0.5911 -0.4791
  728MOL0     H98246   8.668   5.697   3.117 -0.8805  0.0807 -2.2141
  728MOL0     H98247   8.609   5.614   3.266 -2.8866  1.0053  0.2280
  728MOL0     H98248   8.542   5.414   3.160  2.2113 -0.5833  0.2214
  728MOL0     H98249   8.576   5.485   3.000 -0.5334 -1.5302 -0.3453
  728MOL0     H98250   8.754   5.313   3.087 -1.4730 -0.6336  0.8526
  728MOL0     H98251   8.772   5.408   3.238  2.2435  2.8155  0.1257
  728MOL0     H98252   8.854   5.597   3.136 -3.9734 -2.0166  2.9469
  728MOL0     H98253   8.825   5.522   2.969 -0.0401 -1.4388 -0.7461
  728MOL0     H98254   9.060   5.509   3.065 -1.0004  2.1638  1.2244
  728MOL0     H98255   9.002   5.387   3.179  0.8711  0.2733 -0.2436
  728MOL0     H98256   8.949   5.352   2.881 -1.9496 -2.4304 -1.2021
  728MOL0     H98257   8.920   5.238   2.999  0.2859  0.5986  1.3656
  728MOL0     H98258   9.122   5.189   2.872  0.5252 -1.1893 -0.5820
  728MOL0     H98259   9.205   5.323   2.912  1.8819 -2.4894  0.8706
  728MOL0     H98260   8.200   5.794   3.203  3.8248 -1.5981 -0.6561
  728MOL0     H98261   8.005   5.905   3.133 -0.7151  1.7125 -1.3794
  728MOL0     H98262   7.743   6.012   2.609 -1.2878  0.1379 -2.4489
  728MOL0     H98263   7.533   6.192   2.570 -1.9070  0.5163  1.6259
  728MOL0     H98264   5.834   5.985   2.950 -0.9534 -1.0420  1.3806
  728MOL0     H98265   5.659   6.011   3.130  2.6605  1.5690 -1.5250
  728MOL0     H98266   5.266   5.878   3.275 -1.5027 -0.3772  0.1207
  728MOL0     H98267   5.076   5.856   3.439 -1.7137  0.7485  2.0781
  728MOL0     H98268   4.799   6.214   3.495 -0.1468  0.5638  1.6970
  728MOL0     H98269   4.936   6.192   3.612  0.1016 -1.2911 -0.4535
  728MOL0     H98270   4.759   6.169   3.745  1.8462  0.3398 -0.8077
  728MOL0     H98271   4.817   6.008   3.716 -1.2810 -0.1779  0.8494
  728MOL0     H98272   4.643   5.969   3.532 -0.0213 -0.0464  0.7971
  728MOL0     H98273   4.585   6.136   3.581 -0.3533  0.3315  1.2866
  728MOL0     H98274   4.503   5.899   3.700 -0.4541 -0.0731  2.1545
  728MOL0     H98275   4.632   5.934   3.808  0.3551  0.0580 -0.2778
  728MOL0     H98276   4.293   6.204   3.869  0.6899  1.3325 -0.5146
  728MOL0     H98277   4.945   6.239   3.318 -0.6477  0.0545  1.9764
  728MOL0     H98278   5.255   6.368   3.210  1.0522 -2.5649 -0.2709
  728MOL0     H98279   5.159   6.321   3.064  1.4423  0.3212 -0.3041
  728MOL0     H98280   5.092   6.402   3.215 -2.8730 -2.5960  0.6183
  729MOL0     O98281   1.140   8.489   0.482 -0.0214  0.1279  0.2471
  729MOL0     C98282   1.197   8.392   0.539  0.1602  0.0512  0.4340
  729MOL0     O98283   1.136   8.275   0.577  0.2949  0.6234  0.0786
  729MOL0     C98284   1.000   8.266   0.543  0.3946 -0.6994  0.1484
  729MOL0     C98285   0.956   8.204   0.429  0.3229  0.0263 -0.1689
  729MOL0     C98286   0.821   8.223   0.387 -0.3665  0.4363  0.2167
  729MOL0     C98287   0.727   8.287   0.464  0.5980 -0.3027  0.0357
  729MOL0     O98288   0.599   8.299   0.406  0.1074 -0.6158 -0.2514
  729MOL0     C98289   0.489   8.360   0.489  0.2264 -0.2465  0.4299
  729MOL0     C98290   0.369   8.389   0.396  0.6870  0.0570  0.0850
  729MOL0     C98291   0.333   8.260   0.319  0.3250  0.0344 -0.9368
  729MOL0     C98292   0.197   8.259   0.237  0.0145 -0.0778 -0.3695
  729MOL0     C98293   0.179   8.133   0.157 -0.6739 -0.7920 -0.3073
  729MOL0     C98294   0.038   8.070   0.189 -0.0347 -1.4095  0.8494
  729MOL0     C98295  -0.075   8.149   0.123 -0.1884  0.1561  0.3045
  729MOL0     C98296  -0.198   8.070   0.084  0.5228  0.4781  0.5142
  729MOL0     N98297  -0.263   8.048   0.212  0.4800 -0.0861  0.5429
  729MOL0     C98298  -0.351   8.140   0.273 -0.7480 -0.2607  0.6121
  729MOL0     C98299  -0.429   8.062   0.346  0.2242  0.2935 -0.4482
  729MOL0     C98300  -0.523   8.106   0.457 -0.6962 -0.0779  0.5638
  729MOL0     C98301  -0.638   8.190   0.395  0.1405  0.2851  0.5842
  729MOL0     C98302  -0.721   8.124   0.281  0.1244 -0.1310  0.0660
  729MOL0     C98303  -0.843   8.214   0.259 -0.8078  0.5287  0.1108
  729MOL0     O98304  -0.938   8.138   0.185 -0.8889  0.2043 -0.2343
  729MOL0     C98305  -0.950   8.153   0.046 -0.3841 -0.1905 -0.9936
  729MOL0     C98306  -0.934   8.274  -0.020  0.0487  0.5303 -0.1381
  729MOL0     C98307  -0.949   8.277  -0.164 -0.8907 -0.4875 -0.0638
  729MOL0     C98308  -0.957   8.159  -0.243 -0.0071  0.2530 -0.6926
  729MOL0     C98309  -0.960   8.164  -0.393 -0.1191  0.1587  0.7118
  729MOL0     O98310  -0.969   8.039  -0.463  0.3392 -0.1186  0.1480
  729MOL0     C98311  -1.009   8.041  -0.594  0.2366 -1.0633  0.4131
  729MOL0     C98312  -1.118   7.961  -0.620 -0.4246  0.0225  0.2518
  729MOL0     C98313  -1.156   7.932  -0.750 -0.1608 -0.8915  0.7669
  729MOL0     C98314  -1.088   7.995  -0.860 -0.5896 -0.9038  0.0318
  729MOL0     O98315  -1.134   7.970  -0.987  0.1710 -0.0690  0.1210
  729MOL0     C98316  -1.063   8.015  -1.103 -0.6659  0.1667 -1.5366
  729MOL0     C98317  -1.124   7.952  -1.229  0.1007  0.1186 -0.6581
  729MOL0     C98318  -1.126   7.797  -1.210  1.3929 -0.8248  0.5619
  729MOL0     C98319  -1.164   7.728  -1.338 -0.0170 -0.1267  0.0361
  729MOL0     C98320  -1.182   7.576  -1.331  0.4744 -0.4083  0.2044
  729MOL0     C98321  -1.056   7.497  -1.281 -0.3877 -0.3333 -0.7912
  729MOL0     C98322  -0.937   7.522  -1.374  0.1131 -0.2150  0.4928
  729MOL0     C98323  -0.822   7.431  -1.338  0.1044 -0.5318  0.8312
  729MOL0    Cl98324  -0.662   7.463  -1.406  0.1315 -0.2850 -0.3930
  729MOL0     C98325  -0.978   8.082  -0.831 -0.1570  0.1941 -0.1517
  729MOL0     C98326  -0.939   8.100  -0.697 -0.5699 -0.1510  0.0738
  729MOL0     O98327  -0.966   8.275  -0.450 -0.6926 -0.5080 -0.5554
  729MOL0     C98328  -0.968   8.035  -0.173 -0.6370 -0.6354  0.0809
  729MOL0     C98329  -0.965   8.036  -0.031  0.5061 -0.2591  0.1809
  729MOL0     N98330  -0.397   7.929   0.333  0.0099 -0.5366  0.1936
  729MOL0     N98331  -0.295   7.928   0.261 -0.3839  0.5714  0.8113
  729MOL0     C98332   0.767   8.351   0.582 -0.5636  0.4258 -0.1109
  729MOL0     C98333   0.904   8.335   0.620  0.4187  0.4669 -0.3335
  729MOL0     C98334   1.329   8.412   0.568  0.1469 -0.2274 -0.0815
  729MOL0     C98335   1.425   8.380   0.472 -0.6964 -0.0720 -0.7729
  729MOL0     C98336   1.560   8.384   0.500 -0.3192 -1.4538  0.4522
  729MOL0     C98337   1.604   8.421   0.636  0.7867 -0.5762  0.4631
  729MOL0     O98338   1.734   8.445   0.669 -0.5891 -0.4292 -0.0753
  729MOL0     C98339   1.841   8.374   0.601 -0.4320  0.6127 -1.0030
  729MOL0     C98340   1.950   8.342   0.695 -0.6065  1.4387 -0.2372
  729MOL0     C98341   1.919   8.267   0.819 -0.1088  0.3159  0.2771
  729MOL0     C98342   2.039   8.272   0.896 -0.0377  0.2007 -0.2153
  729MOL0     C98343   2.027   8.200   1.022  0.1642  0.1046 -0.2929
  729MOL0     C98344   2.026   8.127   1.115  0.1274  0.0698 -0.3480
  729MOL0     C98345   1.501   8.455   0.729 -0.5541 -0.1341 -0.6883
  729MOL0     C98346   1.365   8.460   0.696  0.5365  0.5192  0.0313
  729MOL0     C98347   1.265   8.482   0.803 -1.1353  0.5507 -0.6123
  729MOL0     H98348   1.020   8.149   0.362 -3.0021 -1.8841 -2.0632
  729MOL0     H98349   0.796   8.175   0.293 -1.3259  1.2242  0.0482
  729MOL0     H98350   0.461   8.298   0.574 -0.0847 -0.4521  0.1801
  729MOL0     H98351   0.517   8.460   0.522 -1.0971 -0.5184  2.5202
  729MOL0     H98352   0.375   8.466   0.319 -0.2914 -1.4821 -1.5980
  729MOL0     H98353   0.290   8.424   0.463 -1.2289 -1.8521 -1.0530
  729MOL0     H98354   0.336   8.183   0.396  0.1097  0.3426 -0.6200
  729MOL0     H98355   0.414   8.243   0.247 -0.1778 -0.1373 -1.4763
  729MOL0     H98356   0.117   8.283   0.308  0.5814 -3.3524  1.5185
  729MOL0     H98357   0.200   8.339   0.162  2.2847 -0.8266 -1.1476
  729MOL0     H98358   0.194   8.162   0.052  2.6235  1.4119  0.6226
  729MOL0     H98359   0.259   8.062   0.180 -2.4705 -3.2013 -1.0566
  729MOL0     H98360   0.039   7.973   0.138 -0.1727 -0.8056 -0.3288
  729MOL0     H98361   0.040   8.058   0.298 -0.3463 -1.5287  0.8429
  729MOL0     H98362  -0.039   8.199   0.033 -0.5942  0.6494  0.4085
  729MOL0     H98363  -0.103   8.231   0.191 -1.6706 -0.1652  0.1069
  729MOL0     H98364  -0.264   8.126   0.017  2.1585  0.4364 -1.2554
  729MOL0     H98365  -0.171   7.979   0.030  2.8684  1.4945 -0.1945
  729MOL0     H98366  -0.351   8.244   0.242  2.6726 -0.8401 -1.9536
  729MOL0     H98367  -0.563   8.014   0.501  0.3127 -1.0430 -0.4809
  729MOL0     H98368  -0.463   8.167   0.526 -0.5963  1.5880 -0.9402
  729MOL0     H98369  -0.703   8.194   0.483 -0.9098  0.2240 -0.1631
  729MOL0     H98370  -0.613   8.291   0.363  1.7853  0.6012  2.6326
  729MOL0     H98371  -0.747   8.025   0.319  1.6417 -0.6666 -0.2321
  729MOL0     H98372  -0.660   8.103   0.192  2.7933  0.6349  1.6220
  729MOL0     H98373  -0.818   8.308   0.208 -0.3642 -0.7391 -2.1027
  729MOL0     H98374  -0.890   8.248   0.352 -0.3003  2.7925 -0.3898
  729MOL0     H98375  -0.923   8.369   0.032  0.9664  1.1105 -1.3486
  729MOL0     H98376  -0.948   8.378  -0.202 -0.6327  0.2932  1.8851
  729MOL0     H98377  -1.172   7.915  -0.537 -2.3050  1.3023 -0.1924
  729MOL0     H98378  -1.253   7.888  -0.769 -0.5994  0.8222 -1.3632
  729MOL0     H98379  -1.063   8.124  -1.102  0.9240  0.2829  2.6523
  729MOL0     H98380  -0.959   7.982  -1.113 -0.9424 -2.1178  1.7508
  729MOL0     H98381  -1.220   7.997  -1.255 -0.1795 -2.1681 -4.3249
  729MOL0     H98382  -1.049   7.973  -1.306  0.4230  0.3230 -0.2897
  729MOL0     H98383  -1.027   7.765  -1.175  2.1365 -0.3037 -0.9727
  729MOL0     H98384  -1.204   7.778  -1.136  0.1326 -0.7954 -0.7260
  729MOL0     H98385  -1.084   7.742  -1.411 -0.0023 -3.8747 -0.8517
  729MOL0     H98386  -1.255   7.772  -1.381 -1.2527  0.1166  2.6773
  729MOL0     H98387  -1.213   7.543  -1.431 -1.8326 -0.2841  0.8060
  729MOL0     H98388  -1.271   7.555  -1.271 -1.2254 -0.9840 -2.3222
  729MOL0     H98389  -1.043   7.523  -1.175 -0.6316  1.6219 -1.1984
  729MOL0     H98390  -1.073   7.390  -1.268 -0.3708 -0.2123  0.3878
  729MOL0     H98391  -0.898   7.623  -1.356  1.8769 -0.1721 -2.8950
  729MOL0     H98392  -0.965   7.516  -1.480  0.0651  1.7465  0.3626
  729MOL0     H98393  -0.808   7.433  -1.230 -1.3041  1.0231  1.0196
  729MOL0     H98394  -0.848   7.328  -1.364  0.3762 -0.2727 -0.5757
  729MOL0     H98395  -0.922   8.117  -0.917 -0.3738 -0.0245 -0.3842
  729MOL0     H98396  -0.835   8.127  -0.681  0.1754 -1.8410 -1.5546
  729MOL0     H98397  -0.987   7.950  -0.238 -0.8209 -1.0565  0.6840
  729MOL0     H98398  -0.973   7.939   0.016 -2.0595 -0.4186 -0.4043
  729MOL0     H98399   0.694   8.392   0.652 -0.9346 -1.7356  0.8511
  729MOL0     H98400   0.943   8.387   0.706  2.2752  2.9655 -2.5403
  729MOL0     H98401   1.388   8.346   0.376  0.2308 -0.7526 -0.9017
  729MOL0     H98402   1.634   8.357   0.426  2.5733  0.3679  2.4542
  729MOL0     H98403   1.867   8.433   0.513  0.5858  0.4905 -0.7974
  729MOL0     H98404   1.806   8.285   0.549  1.5592  0.0999 -1.5459
  729MOL0     H98405   2.000   8.436   0.723  2.5145  0.4133 -1.8267
  729MOL0     H98406   2.029   8.281   0.650  1.4309  1.6827  2.6632
  729MOL0     H98407   1.898   8.163   0.796 -2.6656  0.5969  1.0875
  729MOL0     H98408   1.833   8.312   0.871  0.2806 -1.0981  2.2484
  729MOL0     H98409   2.129   8.246   0.839 -0.8904 -0.6399 -1.2091
  729MOL0     H98410   2.052   8.376   0.927 -1.3126 -0.3516  2.4231
  729MOL0     H98411   2.017   8.057   1.196  2.0802  2.0890  1.7805
  729MOL0     H98412   1.527   8.453   0.834 -0.2224  2.1135 -0.6670
  729MOL0     H98413   1.170   8.525   0.770 -1.4690 -0.6714 -1.3124
  729MOL0     H98414   1.239   8.385   0.847 -4.6338  0.2021 -3.0007
  729MOL0     H98415   1.308   8.546   0.880 -4.1906  3.0985 -0.8160
  730MOL0     O98416   7.556   9.333   8.668  0.4622  0.2334  0.4044
  730MOL0     C98417   7.512   9.432   8.723  0.1011  0.6596 -0.7231
  730MOL0     O98418   7.387   9.486   8.696 -0.3252  0.0179 -0.3365
  730MOL0     C98419   7.282   9.423   8.634 -0.4070 -0.3438  0.8286
  730MOL0     C98420   7.284   9.302   8.563 -0.2511  0.2339 -0.4462
  730MOL0     C98421   7.164   9.244   8.514 -0.7081  0.3030  0.7309
  730MOL0     C98422   7.039   9.316   8.525 -0.7777 -0.4832  1.1020
  730MOL0     O98423   6.929   9.254   8.467  0.4695 -0.3422 -0.4043
  730MOL0     C98424   6.824   9.340   8.414 -0.2571  0.3672  1.2538
  730MOL0     C98425   6.868   9.363   8.275  0.3022 -0.0543  0.8070
  730MOL0     C98426   6.788   9.473   8.203 -0.1541  0.1559  1.0228
  730MOL0     C98427   6.861   9.518   8.070  0.1375 -0.1905  0.2586
  730MOL0     C98428   6.826   9.450   7.934 -0.0658 -0.6890 -0.0229
  730MOL0     C98429   6.916   9.323   7.900 -0.5906 -0.3440  0.0282
  730MOL0     C98430   6.897   9.273   7.754 -0.1145 -0.1273 -0.4273
  730MOL0     C98431   6.996   9.329   7.655  0.5763  0.1097 -1.3140
  730MOL0     N98432   7.138   9.282   7.696 -0.7403 -0.1854 -0.2390
  730MOL0     C98433   7.187   9.157   7.659 -0.1803  0.0131 -0.2512
  730MOL0     C98434   7.317   9.154   7.688 -0.3520 -0.8326  0.1175
  730MOL0     C98435   7.412   9.047   7.674  0.5403 -0.1072 -0.1818
  730MOL0     C98436   7.468   8.988   7.807 -0.3480  0.0178 -0.2380
  730MOL0     C98437   7.617   8.986   7.814 -0.8926 -0.3452  0.0264
  730MOL0     C98438   7.660   9.125   7.870 -0.5712  0.5921  0.7301
  730MOL0     O98439   7.646   9.218   7.765  0.4611 -0.2497 -0.3847
  730MOL0     C98440   7.679   9.350   7.792 -0.6820  0.4404 -0.2729
  730MOL0     C98441   7.629   9.439   7.704  0.6020  0.7533 -0.1656
  730MOL0     C98442   7.645   9.580   7.713  0.9527  0.5345  0.8005
  730MOL0     C98443   7.714   9.637   7.817  0.3983  0.3068  0.0719
  730MOL0     C98444   7.744   9.776   7.808  0.2054  0.4442 -0.2798
  730MOL0     O98445   7.682   9.841   7.708 -1.6213  0.1205  0.5029
  730MOL0     C98446   7.698   9.976   7.675 -0.3950  0.6113  0.6661
  730MOL0     C98447   7.820  10.033   7.657 -0.6583  0.1779 -0.4551
  730MOL0     C98448   7.850  10.170   7.668  0.4872 -0.0896 -0.0922
  730MOL0     C98449   7.749  10.253   7.702  0.9298  0.0350  0.4100
  730MOL0     O98450   7.776  10.380   7.739 -0.4973  0.8543  0.2342
  730MOL0     C98451   7.850  10.451   7.637  1.2124  0.6558  0.0167
  730MOL0     C98452   7.799  10.596   7.635 -0.6114  0.2953  0.0904
  730MOL0     C98453   7.652  10.611   7.613  1.0356 -0.4407  0.0280
  730MOL0     C98454   7.595  10.569   7.484 -0.3045 -0.0464  0.7272
  730MOL0     C98455   7.446  10.541   7.477  0.4124 -0.8008 -0.2846
  730MOL0     C98456   7.366  10.669   7.498  0.1689  0.6576  0.0236
  730MOL0     C98457   7.229  10.677   7.435  0.2215 -0.2810 -0.7981
  730MOL0     C98458   7.148  10.791   7.497  0.2466  0.1920  0.1591
  730MOL0    Cl98459   6.990  10.773   7.437  0.6795  0.0994 -0.5283
  730MOL0     C98460   7.619  10.204   7.695  0.0305 -0.3341 -0.2694
  730MOL0     C98461   7.598  10.062   7.679  1.3221  0.8865  0.0135
  730MOL0     O98462   7.824   9.828   7.882 -0.0230 -0.0681  0.0477
  730MOL0     C98463   7.780   9.543   7.905  0.5370  0.4273 -0.0780
  730MOL0     C98464   7.745   9.402   7.903  0.4781 -0.8904 -0.4538
  730MOL0     N98465   7.343   9.277   7.745 -0.0696  0.4596  0.3723
  730MOL0     N98466   7.239   9.354   7.740 -0.7728  0.3020  0.1735
  730MOL0     C98467   7.041   9.442   8.588 -0.2467 -0.4250 -0.8239
  730MOL0     C98468   7.160   9.497   8.637  0.4643  0.7412 -0.2652
  730MOL0     C98469   7.597   9.513   8.810 -0.3207  0.5500 -0.3709
  730MOL0     C98470   7.551   9.636   8.858  0.0619 -0.2184  0.3527
  730MOL0     C98471   7.624   9.713   8.949 -0.8182 -0.5531  0.2682
  730MOL0     C98472   7.759   9.670   8.990  0.1528 -0.1430  0.1922
  730MOL0     O98473   7.848   9.737   9.074  0.4771  0.5407 -0.1852
  730MOL0     C98474   7.789   9.834   9.166 -0.1448 -0.3674  0.0711
  730MOL0     C98475   7.880   9.848   9.287  0.2729 -0.4561 -0.0475
  730MOL0     C98476   7.840   9.983   9.356 -1.1102  0.5175  1.4387
  730MOL0     C98477   7.843   9.962   9.505  0.6805  0.2898  0.2627
  730MOL0     C98478   7.736   9.883   9.574 -0.4528 -0.9770  0.2897
  730MOL0     C98479   7.649   9.826   9.633  0.1188  0.4315 -0.3565
  730MOL0     C98480   7.802   9.556   8.934  0.0951  0.4191 -0.2179
  730MOL0     C98481   7.727   9.473   8.847 -0.8156  0.1958  0.6623
  730MOL0     C98482   7.796   9.340   8.810 -0.1277  0.1688 -0.0143
  730MOL0     H98483   7.370   9.242   8.537 -0.4582 -0.4069  0.3092
  730MOL0     H98484   7.167   9.149   8.462 -0.8360 -0.6869  2.4432
  730MOL0     H98485   6.732   9.281   8.405  0.0009  0.2888 -2.2588
  730MOL0     H98486   6.809   9.441   8.453  0.7912  0.5086  1.3137
  730MOL0     H98487   6.869   9.275   8.208  0.2423 -0.0830  0.8432
  730MOL0     H98488   6.970   9.401   8.278  0.2909  0.2989 -1.5293
  730MOL0     H98489   6.781   9.557   8.272  1.1079 -0.9789  2.5801
  730MOL0     H98490   6.688   9.431   8.185  0.1498 -0.4779  0.7832
  730MOL0     H98491   6.844   9.626   8.066 -0.8316 -0.3713 -1.2788
  730MOL0     H98492   6.970   9.512   8.078  0.6845 -0.5907 -4.5855
  730MOL0     H98493   6.722   9.417   7.940 -0.0914 -0.4863  0.7340
  730MOL0     H98494   6.834   9.518   7.848 -0.7855  1.0945  1.2706
  730MOL0     H98495   7.021   9.340   7.927 -0.2915 -1.5959 -0.3088
  730MOL0     H98496   6.888   9.244   7.970 -1.8313  0.1968  0.1608
  730MOL0     H98497   6.800   9.311   7.722  0.0710 -0.9075 -2.0259
  730MOL0     H98498   6.903   9.164   7.759 -0.5591 -0.1033  2.2713
  730MOL0     H98499   6.979   9.286   7.556  2.2509 -1.1482 -1.0889
  730MOL0     H98500   6.984   9.438   7.652 -1.7662 -0.1014 -2.1270
  730MOL0     H98501   7.123   9.074   7.632  1.7679 -1.4008 -0.7253
  730MOL0     H98502   7.363   8.971   7.614 -0.7599  0.4212  0.1673
  730MOL0     H98503   7.496   9.085   7.615  0.0266  0.3262 -0.6461
  730MOL0     H98504   7.431   9.042   7.895 -0.2204 -1.8500  1.0090
  730MOL0     H98505   7.422   8.889   7.814 -0.1652 -0.0533 -0.0716
  730MOL0     H98506   7.661   8.959   7.718  0.1621  2.0717 -0.2418
  730MOL0     H98507   7.633   8.902   7.883  0.6019 -1.0365 -1.1039
  730MOL0     H98508   7.766   9.120   7.894  0.0989 -0.8316 -2.0957
  730MOL0     H98509   7.602   9.154   7.958 -0.1202 -0.4735  1.3815
  730MOL0     H98510   7.568   9.410   7.619  0.2427  2.0315 -0.3565
  730MOL0     H98511   7.593   9.630   7.632 -1.6514 -1.4956  1.0906
  730MOL0     H98512   7.900   9.961   7.641 -1.3694 -0.7547  0.1185
  730MOL0     H98513   7.955  10.192   7.651 -0.2965  4.2142 -0.5553
  730MOL0     H98514   7.958  10.440   7.653  1.4811  0.8231 -1.5113
  730MOL0     H98515   7.830  10.430   7.531  1.4359 -1.2586  0.3286
  730MOL0     H98516   7.830  10.642   7.730  1.6709 -1.6833  0.4198
  730MOL0     H98517   7.836  10.658   7.554 -2.5232  2.5799  0.8766
  730MOL0     H98518   7.591  10.559   7.688  0.8713  1.7298  1.4989
  730MOL0     H98519   7.613  10.713   7.619 -0.6332 -0.9740 -1.0593
  730MOL0     H98520   7.637  10.474   7.451 -1.8931 -0.6353  0.3000
  730MOL0     H98521   7.621  10.646   7.411  0.1752 -0.0595  0.8836
  730MOL0     H98522   7.405  10.462   7.540 -4.4969 -0.2243 -2.3456
  730MOL0     H98523   7.419  10.506   7.377 -0.7452 -1.6456  0.2946
  730MOL0     H98524   7.353  10.697   7.603  0.2247  2.1106 -0.3330
  730MOL0     H98525   7.418  10.753   7.450 -1.2071  2.5295  1.6583
  730MOL0     H98526   7.169  10.585   7.439 -1.3403  0.6597 -1.8263
  730MOL0     H98527   7.244  10.709   7.332 -1.8903  2.1836 -0.4270
  730MOL0     H98528   7.148  10.788   7.607 -0.0745 -0.1086  0.1516
  730MOL0     H98529   7.203  10.882   7.471  1.8958  0.2676  3.3104
  730MOL0     H98530   7.532  10.269   7.698  0.5850  0.6428 -2.7829
  730MOL0     H98531   7.495  10.032   7.693  1.4984  0.1935 -0.1507
  730MOL0     H98532   7.838   9.587   7.986 -0.6165 -0.3265  1.1944
  730MOL0     H98533   7.774   9.333   7.982 -1.3434 -0.1606  0.9148
  730MOL0     H98534   6.951   9.501   8.603  1.0966  1.2726  1.0227
  730MOL0     H98535   7.168   9.591   8.692  2.8431 -0.0265  0.8609
  730MOL0     H98536   7.448   9.665   8.838 -0.5018 -2.8483 -0.9396
  730MOL0     H98537   7.591   9.812   8.978 -0.2581 -0.0568 -0.7175
  730MOL0     H98538   7.695   9.799   9.208  1.1788 -0.8486  2.8324
  730MOL0     H98539   7.790   9.931   9.116  1.8536 -0.1818  0.3852
  730MOL0     H98540   7.986   9.856   9.262  0.7634 -1.4433  1.5497
  730MOL0     H98541   7.852   9.764   9.352 -0.4525 -1.3616 -1.4940
  730MOL0     H98542   7.740  10.009   9.320 -0.1848  0.4017 -1.4844
  730MOL0     H98543   7.918  10.055   9.332 -1.0714 -0.4978 -1.9965
  730MOL0     H98544   7.936   9.909   9.528  1.6524  1.3133 -1.1128
  730MOL0     H98545   7.862  10.058   9.553  0.1451  0.6235 -0.1868
  730MOL0     H98546   7.582   9.763   9.687  1.1715 -1.3495 -1.0295
  730MOL0     H98547   7.896   9.522   8.977 -0.6460 -3.7641 -1.4939
  730MOL0     H98548   7.734   9.257   8.847  0.4599  0.4755  1.6973
  730MOL0     H98549   7.821   9.326   8.704  1.0287  2.3812 -0.0942
  730MOL0     H98550   7.886   9.328   8.869 -1.7841 -1.0706  2.4354
  731MOL0     O98551   6.968   6.333   6.875  0.8746  0.2237 -0.9577
  731MOL0     C98552   7.064   6.404   6.841 -0.0163 -0.1121 -0.1148
  731MOL0     O98553   7.058   6.491   6.730  0.1579  0.0153  0.7654
  731MOL0     C98554   6.938   6.532   6.684 -0.4976  0.7900  0.2612
  731MOL0     C98555   6.913   6.515   6.545 -0.0048  0.3861  0.3184
  731MOL0     C98556   6.786   6.539   6.486 -0.1914  0.9342 -0.2828
  731MOL0     C98557   6.692   6.602   6.569 -0.8679  0.1537 -0.1022
  731MOL0     O98558   6.568   6.613   6.509  0.1790 -0.0001 -0.3023
  731MOL0     C98559   6.510   6.748   6.526 -0.0910  0.0969 -0.1532
  731MOL0     C98560   6.361   6.724   6.472 -0.4001 -0.1070 -0.3407
  731MOL0     C98561   6.280   6.856   6.476 -0.1121  0.0713  0.0640
  731MOL0     C98562   6.167   6.861   6.370  0.5596  0.5306 -1.1327
  731MOL0     C98563   6.148   7.011   6.335  0.0902 -0.7984 -0.2401
  731MOL0     C98564   6.013   7.034   6.265 -0.5374  0.0579 -0.9145
  731MOL0     C98565   5.954   7.174   6.265  0.6585  0.5438  0.1920
  731MOL0     C98566   5.812   7.188   6.205  0.2793  0.0579 -0.3022
  731MOL0     N98567   5.800   7.153   6.066  0.9442  0.7269  0.3490
  731MOL0     C98568   5.829   7.224   5.955 -0.6954 -0.6742 -0.8497
  731MOL0     C98569   5.786   7.145   5.860  0.3069  0.4984 -0.4414
  731MOL0     C98570   5.759   7.194   5.724 -0.1827 -0.1558 -0.8201
  731MOL0     C98571   5.863   7.159   5.616 -0.5962  0.4385  0.4790
  731MOL0     C98572   5.986   7.259   5.630  0.3044  0.2728 -0.2667
  731MOL0     C98573   6.104   7.199   5.547  0.7950  0.3140  0.6820
  731MOL0     O98574   6.078   7.226   5.406 -0.2105  0.0243 -0.3812
  731MOL0     C98575   6.144   7.141   5.313 -0.3628 -0.4157  0.1158
  731MOL0     C98576   6.131   7.005   5.318  0.3876  0.1776 -0.2483
  731MOL0     C98577   6.208   6.916   5.244  0.8225  0.2425 -0.7050
  731MOL0     C98578   6.315   6.963   5.176  0.4198  0.6338  0.6849
  731MOL0     C98579   6.407   6.871   5.106  0.1724 -0.1662 -0.1568
  731MOL0     O98580   6.414   6.734   5.133  0.3048 -0.7620  0.1118
  731MOL0     C98581   6.519   6.674   5.069 -0.2513 -0.5203 -0.1456
  731MOL0     C98582   6.502   6.639   4.934  0.2175  0.0950  0.0065
  731MOL0     C98583   6.601   6.560   4.873  0.3029 -0.2678 -0.5701
  731MOL0     C98584   6.723   6.530   4.945 -0.2000 -0.0516  0.6737
  731MOL0     O98585   6.832   6.474   4.876  0.2154  0.3443  0.4488
  731MOL0     C98586   6.869   6.539   4.752 -1.0493 -0.9411  0.2810
  731MOL0     C98587   6.985   6.454   4.704  0.0449  0.3264  0.7125
  731MOL0     C98588   7.080   6.539   4.621  0.5643 -0.5858 -0.0418
  731MOL0     C98589   7.199   6.456   4.576 -0.8165 -0.0127  0.3625
  731MOL0     C98590   7.333   6.531   4.534 -0.4143  0.5392 -0.9645
  731MOL0     C98591   7.325   6.652   4.453  0.2762 -0.6388  1.0884
  731MOL0     C98592   7.277   6.608   4.314 -0.1261 -0.3266 -0.6877
  731MOL0     C98593   7.313   6.714   4.207 -0.4186  0.6350 -0.2889
  731MOL0    Cl98594   7.261   6.668   4.044  0.0758 -0.0928  0.1364
  731MOL0     C98595   6.741   6.579   5.072  0.6246 -0.8852 -0.6149
  731MOL0     C98596   6.638   6.644   5.139 -1.0842  0.7649  0.4234
  731MOL0     O98597   6.458   6.924   5.011 -0.4158 -0.2598  0.2247
  731MOL0     C98598   6.327   7.099   5.165 -0.0467  0.0656  0.5430
  731MOL0     C98599   6.249   7.189   5.236 -0.7860  0.1749  0.6633
  731MOL0     N98600   5.750   7.024   5.910 -0.7333 -0.2747  1.1306
  731MOL0     N98601   5.778   7.026   6.026  0.1753 -0.0768 -0.3450
  731MOL0     C98602   6.722   6.626   6.706  0.8570 -0.5936  0.3459
  731MOL0     C98603   6.836   6.589   6.756  0.4453  0.9229 -0.1924
  731MOL0     C98604   7.195   6.394   6.920  0.3432  0.2539 -0.9220
  731MOL0     C98605   7.314   6.454   6.874 -0.3240 -0.1127 -0.1800
  731MOL0     C98606   7.429   6.447   6.941 -0.0281  0.3483  0.3405
  731MOL0     C98607   7.434   6.379   7.062 -0.3314  0.4270  0.9910
  731MOL0     O98608   7.559   6.377   7.123 -0.1540  0.4618  0.7373
  731MOL0     C98609   7.573   6.311   7.253  0.1376 -0.0833  0.2935
  731MOL0     C98610   7.709   6.331   7.308 -0.2803 -0.1138  0.5055
  731MOL0     C98611   7.715   6.263   7.446  0.0552 -1.2896  0.4471
  731MOL0     C98612   7.849   6.290   7.508 -0.4467  1.0868  0.4247
  731MOL0     C98613   7.852   6.250   7.648  0.3055 -0.1343  0.3281
  731MOL0     C98614   7.853   6.206   7.755  0.3603  0.4333  0.0113
  731MOL0     C98615   7.321   6.329   7.113  0.2436  1.0838  0.6524
  731MOL0     C98616   7.195   6.343   7.049 -0.5290  0.4854 -0.0645
  731MOL0     C98617   7.076   6.294   7.133  0.1086  0.6282 -0.9579
  731MOL0     H98618   6.987   6.476   6.476  0.3136  2.5532 -0.6623
  731MOL0     H98619   6.760   6.513   6.384  2.5717 -2.9321 -0.2471
  731MOL0     H98620   6.505   6.776   6.632  0.6263 -2.1456  0.5254
  731MOL0     H98621   6.560   6.830   6.473 -2.2576  0.7575 -1.3033
  731MOL0     H98622   6.315   6.659   6.548  0.1432 -0.5473 -0.3831
  731MOL0     H98623   6.358   6.666   6.379 -1.8784  0.2769 -0.5648
  731MOL0     H98624   6.347   6.942   6.489  1.1884 -1.0494  1.0180
  731MOL0     H98625   6.224   6.851   6.570  1.7311  0.7645  1.2585
  731MOL0     H98626   6.176   6.793   6.285 -0.4257  0.0424 -0.8663
  731MOL0     H98627   6.086   6.823   6.434  0.3269  3.1352  0.2494
  731MOL0     H98628   6.140   7.064   6.430  0.8060  1.2799 -1.2659
  731MOL0     H98629   6.234   7.052   6.281  2.6667 -1.6050  2.9506
  731MOL0     H98630   6.030   7.005   6.161  0.4694 -0.5840 -0.5865
  731MOL0     H98631   5.940   6.969   6.314 -1.1206  1.8474  0.7273
  731MOL0     H98632   6.022   7.244   6.215  2.6976 -0.0276  1.9736
  731MOL0     H98633   5.954   7.205   6.370  0.5804  0.0547  0.3376
  731MOL0     H98634   5.741   7.122   6.255  0.7669 -0.2050  0.0503
  731MOL0     H98635   5.780   7.292   6.214  1.2453  0.4678 -1.4021
  731MOL0     H98636   5.837   7.331   5.941 -0.6579 -0.6593 -0.7145
  731MOL0     H98637   5.657   7.162   5.704 -1.9818  2.8665  2.3998
  731MOL0     H98638   5.745   7.303   5.717 -1.1620 -0.2333 -0.2416
  731MOL0     H98639   5.910   7.060   5.624  0.2885  0.6815 -1.2494
  731MOL0     H98640   5.816   7.164   5.518 -0.6456  0.1989  0.4913
  731MOL0     H98641   6.004   7.264   5.738 -0.5605 -0.2868 -0.0865
  731MOL0     H98642   5.978   7.363   5.597  2.7846  0.3180 -0.9717
  731MOL0     H98643   6.106   7.091   5.561  0.5931  0.4171  1.5543
  731MOL0     H98644   6.194   7.253   5.576  0.4558  0.0100  2.3971
  731MOL0     H98645   6.067   6.955   5.389  0.5397  2.2763  1.4412
  731MOL0     H98646   6.174   6.813   5.247 -1.6007  0.8124 -3.4057
  731MOL0     H98647   6.411   6.659   4.879  1.2014 -0.6310 -1.9966
  731MOL0     H98648   6.582   6.534   4.769 -0.4685  2.7453 -1.2830
  731MOL0     H98649   6.791   6.553   4.677 -0.8059  1.5312  0.4201
  731MOL0     H98650   6.903   6.640   4.775 -1.5850  0.1893 -3.2505
  731MOL0     H98651   7.036   6.395   4.780  1.2564  0.0991 -0.2381
  731MOL0     H98652   6.939   6.376   4.644  1.8343 -1.4972  1.5957
  731MOL0     H98653   7.025   6.581   4.536 -2.1983  2.1185  2.8088
  731MOL0     H98654   7.111   6.626   4.679 -1.8232 -0.5932  1.3784
  731MOL0     H98655   7.163   6.405   4.486 -0.8519  0.1464  0.2863
  731MOL0     H98656   7.225   6.395   4.663  1.2703  0.4833  0.1455
  731MOL0     H98657   7.399   6.454   4.492 -1.1345 -0.1323 -0.8932
  731MOL0     H98658   7.373   6.565   4.630 -1.2309  4.1840 -1.7379
  731MOL0     H98659   7.258   6.726   4.498 -0.3606  0.5988 -1.6579
  731MOL0     H98660   7.419   6.706   4.439  0.7492 -0.5413  3.9755
  731MOL0     H98661   7.168   6.599   4.312 -0.4797  1.9781  1.6860
  731MOL0     H98662   7.313   6.509   4.284 -1.1560 -0.9834  0.1806
  731MOL0     H98663   7.262   6.808   4.233  1.9735  2.6461 -2.3426
  731MOL0     H98664   7.422   6.726   4.212 -0.3778  0.4220 -0.6875
  731MOL0     H98665   6.837   6.567   5.122  1.5612  1.6896 -1.6269
  731MOL0     H98666   6.657   6.668   5.243 -2.4856 -1.6327  1.2915
  731MOL0     H98667   6.418   7.142   5.124  1.1417  0.8237  3.7259
  731MOL0     H98668   6.279   7.293   5.243  1.8760 -0.6181  4.0282
  731MOL0     H98669   6.653   6.672   6.777  2.9549  0.6857  1.6521
  731MOL0     H98670   6.853   6.607   6.862  0.5455 -0.4836  0.0443
  731MOL0     H98671   7.331   6.498   6.776 -0.0570  0.6912  0.2174
  731MOL0     H98672   7.526   6.478   6.904  0.1369  0.8114  1.1297
  731MOL0     H98673   7.562   6.203   7.240  2.0993 -0.5661  2.0548
  731MOL0     H98674   7.490   6.351   7.312 -4.0770 -0.9299 -4.3897
  731MOL0     H98675   7.728   6.439   7.316 -0.1264 -0.1021  0.0165
  731MOL0     H98676   7.780   6.284   7.239  0.2171  0.2007  0.7994
  731MOL0     H98677   7.697   6.155   7.439  1.1510 -1.3596 -2.2529
  731MOL0     H98678   7.641   6.311   7.511  1.6649  0.6947  0.9070
  731MOL0     H98679   7.929   6.233   7.459 -2.5007  0.7372 -2.8160
  731MOL0     H98680   7.866   6.398   7.501  2.4965  0.6337 -0.7747
  731MOL0     H98681   7.865   6.168   7.855 -1.7344  0.6507  0.3915
  731MOL0     H98682   7.321   6.265   7.200  1.5632 -0.4408 -0.3900
  731MOL0     H98683   7.100   6.265   7.236  0.3305 -0.4798 -1.3018
  731MOL0     H98684   6.993   6.364   7.131  0.1804  0.7133 -0.9588
  731MOL0     H98685   7.041   6.204   7.081 -1.6481  0.2737  0.7377
  732MOL0     O98686  10.874   1.682   4.602  0.7180 -0.7118  0.3052
  732MOL0     C98687  10.772   1.616   4.616  0.7445 -0.2277 -0.2907
  732MOL0     O98688  10.661   1.631   4.533 -0.0652  0.2854  0.4223
  732MOL0     C98689  10.686   1.692   4.416 -0.1775  0.4338 -0.2129
  732MOL0     C98690  10.779   1.639   4.327  0.0794 -0.0557 -0.5435
  732MOL0     C98691  10.800   1.710   4.204  0.7834 -0.8871 -0.2454
  732MOL0     C98692  10.709   1.816   4.173 -0.3572 -0.0620 -0.3044
  732MOL0     O98693  10.715   1.882   4.058  0.2338 -0.3095  0.3323
  732MOL0     C98694  10.804   1.850   3.959 -1.6343  0.7763 -0.1973
  732MOL0     C98695  10.817   1.961   3.857  0.5435 -1.3561  0.6552
  732MOL0     C98696  10.891   1.906   3.732  0.8757  0.5252  0.2706
  732MOL0     C98697  11.037   1.853   3.751 -0.8550  0.2960 -0.2724
  732MOL0     C98698  11.120   1.833   3.623 -0.0208  0.7696  0.4059
  732MOL0     C98699  11.221   1.955   3.592 -0.5835  0.7106  0.1725
  732MOL0     C98700  11.306   1.934   3.465  0.4255  0.2694  0.2313
  732MOL0     C98701  11.396   2.064   3.449 -0.1110  0.1396 -0.5092
  732MOL0     N98702  11.493   2.049   3.345 -0.5869  0.2654  0.5805
  732MOL0     C98703  11.480   2.073   3.212  0.4701 -0.5869  0.0393
  732MOL0     C98704  11.584   2.006   3.156  0.6151 -0.1907  0.1587
  732MOL0     C98705  11.600   2.004   3.000  0.3684  0.0335 -0.6798
  732MOL0     C98706  11.510   1.896   2.934 -0.0504 -0.2010  1.0708
  732MOL0     C98707  11.541   1.756   2.955 -0.3974  0.9057 -0.4084
  732MOL0     C98708  11.455   1.671   2.855  0.6834  0.9591 -0.5944
  732MOL0     O98709  11.493   1.683   2.717  0.8780 -0.5723 -0.2140
  732MOL0     C98710  11.615   1.633   2.682  0.2296 -0.0933 -0.0227
  732MOL0     C98711  11.727   1.719   2.678  0.0758 -0.0105 -0.2386
  732MOL0     C98712  11.857   1.669   2.642 -0.4296 -0.0676 -0.0278
  732MOL0     C98713  11.871   1.532   2.607  0.6082 -1.1005 -0.6871
  732MOL0     C98714  12.000   1.479   2.556  0.1493  0.1930 -0.3451
  732MOL0     O98715  12.035   1.348   2.582 -0.4112  0.4203 -0.1904
  732MOL0     C98716  12.148   1.290   2.531 -0.6301 -0.0390 -0.7860
  732MOL0     C98717  12.146   1.152   2.500  0.0852 -0.5151  0.0456
  732MOL0     C98718  12.249   1.086   2.440 -1.3769 -0.1947 -1.3250
  732MOL0     C98719  12.366   1.149   2.397 -0.0106 -0.4431  0.1616
  732MOL0     O98720  12.464   1.072   2.335  0.2663 -0.3847 -0.5654
  732MOL0     C98721  12.576   1.141   2.277  0.8235  1.3068 -0.1879
  732MOL0     C98722  12.670   1.042   2.201 -0.6991  0.0222  0.1656
  732MOL0     C98723  12.615   1.018   2.061  0.4360 -0.6035  0.9366
  732MOL0     C98724  12.646   1.144   1.968  0.5107  0.3485  0.3118
  732MOL0     C98725  12.634   1.100   1.825 -0.0370  0.5803  0.0315
  732MOL0     C98726  12.682   1.210   1.737  0.2533 -0.0050  0.5918
  732MOL0     C98727  12.835   1.243   1.745  0.6724  0.6006 -0.4212
  732MOL0     C98728  12.876   1.320   1.620 -0.1983  0.5041 -0.6323
  732MOL0    Cl98729  13.036   1.370   1.627  0.0405  0.1789 -0.2046
  732MOL0     C98730  12.384   1.284   2.443  0.9928 -0.7148  0.3484
  732MOL0     C98731  12.275   1.357   2.503 -0.1322  0.5390  0.1949
  732MOL0     O98732  12.048   1.546   2.465  0.4630 -0.3800 -0.3266
  732MOL0     C98733  11.756   1.453   2.609 -0.2247 -0.8784  0.1828
  732MOL0     C98734  11.631   1.499   2.643  0.4001 -0.2935 -0.3749
  732MOL0     N98735  11.661   1.936   3.252  0.0421 -0.6621 -0.7674
  732MOL0     N98736  11.603   1.973   3.367  0.6834  0.3871  0.2645
  732MOL0     C98737  10.613   1.860   4.260  0.3568  0.6021 -0.5606
  732MOL0     C98738  10.602   1.801   4.382 -0.0283 -0.0162 -0.4464
  732MOL0     C98739  10.759   1.528   4.738 -0.1126 -0.2465 -0.2351
  732MOL0     C98740  10.827   1.569   4.856 -0.1408  0.0280  0.5033
  732MOL0     C98741  10.809   1.503   4.969 -0.7741 -0.1791 -0.2304
  732MOL0     C98742  10.733   1.388   4.973  1.1208  0.9865  0.4835
  732MOL0     O98743  10.695   1.341   5.094  0.6435 -0.0852  0.1590
  732MOL0     C98744  10.648   1.208   5.116  0.0176 -1.3531 -0.1835
  732MOL0     C98745  10.504   1.234   5.156  1.0625 -0.6490  0.7856
  732MOL0     C98746  10.437   1.116   5.217 -0.9253 -0.3271  0.1193
  732MOL0     C98747  10.284   1.115   5.218 -0.7106 -0.1752 -0.2658
  732MOL0     C98748  10.233   1.002   5.296 -1.1437 -0.6263  0.3115
  732MOL0     C98749  10.203   0.923   5.381  0.1405 -0.1162  0.0826
  732MOL0     C98750  10.676   1.336   4.850 -0.2444  0.0023 -0.7255
  732MOL0     C98751  10.693   1.404   4.733  0.3242  0.0130  0.0796
  732MOL0     C98752  10.639   1.347   4.602 -0.3804  0.3243  0.1131
  732MOL0     H98753  10.834   1.554   4.366 -2.7921 -2.6909 -1.8124
  732MOL0     H98754  10.888   1.697   4.141  0.0440  0.0853 -1.5210
  732MOL0     H98755  10.903   1.848   4.005 -1.2578 -1.7312 -0.9701
  732MOL0     H98756  10.782   1.753   3.914  1.2310  0.2532 -0.6133
  732MOL0     H98757  10.866   2.044   3.909 -0.4740 -0.1670 -0.2359
  732MOL0     H98758  10.718   1.998   3.828  0.3249  0.7205  3.6279
  732MOL0     H98759  10.901   1.991   3.664 -0.3952  0.6066  0.1587
  732MOL0     H98760  10.827   1.830   3.688  1.5201  0.0501  0.1439
  732MOL0     H98761  11.096   1.903   3.829  0.1241  0.0014 -0.8124
  732MOL0     H98762  11.031   1.750   3.788  1.5073 -0.6132 -2.1706
  732MOL0     H98763  11.189   1.748   3.625  3.0013  3.0418  0.0833
  732MOL0     H98764  11.052   1.812   3.541  1.8648 -0.1857 -0.9856
  732MOL0     H98765  11.162   2.046   3.577  0.7612  1.6255  0.1922
  732MOL0     H98766  11.289   1.974   3.676  3.0969 -2.6479 -1.7358
  732MOL0     H98767  11.236   1.937   3.380  0.5023 -2.0450  0.0141
  732MOL0     H98768  11.359   1.838   3.462  1.4400  0.6925  2.7255
  732MOL0     H98769  11.327   2.146   3.426 -1.3561 -1.0577 -1.1890
  732MOL0     H98770  11.454   2.082   3.540  3.1087 -1.1933 -2.1261
  732MOL0     H98771  11.398   2.119   3.158 -0.2882 -0.4847  1.2405
  732MOL0     H98772  11.567   2.097   2.954 -3.8017 -2.3960 -3.2149
  732MOL0     H98773  11.703   1.986   2.967  0.0434 -3.4708 -0.1953
  732MOL0     H98774  11.406   1.904   2.967 -1.2418 -2.9206 -1.5733
  732MOL0     H98775  11.514   1.925   2.828 -0.1813 -2.8902  0.2538
  732MOL0     H98776  11.504   1.734   3.055 -1.8678 -0.6903 -1.2421
  732MOL0     H98777  11.646   1.734   2.932 -0.1797  0.8814  0.5797
  732MOL0     H98778  11.352   1.703   2.872 -0.1009 -1.4428 -0.5458
  732MOL0     H98779  11.470   1.568   2.887 -1.4294  1.0731  0.9866
  732MOL0     H98780  11.721   1.826   2.694  0.4607  0.1972 -1.3413
  732MOL0     H98781  11.933   1.746   2.629 -0.6031 -0.2969 -3.4039
  732MOL0     H98782  12.051   1.109   2.531  0.0749  1.1847  2.7355
  732MOL0     H98783  12.242   0.978   2.427  0.9723 -0.3389 -1.8193
  732MOL0     H98784  12.542   1.221   2.211  1.5236  0.5250 -1.5480
  732MOL0     H98785  12.643   1.168   2.359 -0.2281 -1.3542  1.7191
  732MOL0     H98786  12.776   1.067   2.197  0.6575 -4.4694  1.7793
  732MOL0     H98787  12.675   0.951   2.261  1.1157  0.4725  0.7475
  732MOL0     H98788  12.656   0.923   2.026 -1.8306 -1.7391  1.1824
  732MOL0     H98789  12.507   1.000   2.061  0.2793 -0.0635 -1.8212
  732MOL0     H98790  12.729   1.208   1.999 -0.2695  0.8743  1.4039
  732MOL0     H98791  12.567   1.220   1.976  0.5085  0.3326  0.4388
  732MOL0     H98792  12.530   1.089   1.793 -0.5419  1.4022  1.3179
  732MOL0     H98793  12.696   1.012   1.804 -0.3776  0.4100 -0.2612
  732MOL0     H98794  12.662   1.195   1.630  2.0593  0.7157  0.1027
  732MOL0     H98795  12.631   1.301   1.772 -0.1767  0.6320 -1.5402
  732MOL0     H98796  12.896   1.152   1.752  3.6647  2.0989 -3.8273
  732MOL0     H98797  12.863   1.305   1.831 -1.1365  0.4312  0.3307
  732MOL0     H98798  12.860   1.262   1.528  0.1995 -0.6472  0.0003
  732MOL0     H98799  12.816   1.411   1.610  1.5054  1.6079 -1.0450
  732MOL0     H98800  12.470   1.345   2.416  1.2603 -1.5645 -0.8077
  732MOL0     H98801  12.299   1.457   2.538 -0.3886  0.2456  1.2487
  732MOL0     H98802  11.774   1.349   2.580  1.5157 -0.3965 -0.6231
  732MOL0     H98803  11.540   1.442   2.659 -0.1009  0.6825  0.3491
  732MOL0     H98804  10.548   1.935   4.216  1.1970  1.4675 -0.3792
  732MOL0     H98805  10.529   1.837   4.454  0.1573  1.1402 -0.8213
  732MOL0     H98806  10.876   1.665   4.865 -4.0013  2.2665  0.0009
  732MOL0     H98807  10.858   1.538   5.059 -0.8050  0.6547 -0.5256
  732MOL0     H98808  10.702   1.166   5.201  1.1904  1.8765  0.8331
  732MOL0     H98809  10.643   1.138   5.032 -3.4265 -0.2569 -1.0794
  732MOL0     H98810  10.449   1.278   5.072  2.5082  1.5118  0.9083
  732MOL0     H98811  10.495   1.317   5.227  0.3159  1.9846 -2.1486
  732MOL0     H98812  10.482   1.107   5.317  0.9448 -2.2917 -0.8232
  732MOL0     H98813  10.473   1.031   5.160 -0.1081  1.0870 -1.5836
  732MOL0     H98814  10.247   1.210   5.257  1.2405  0.7628 -0.6001
  732MOL0     H98815  10.242   1.103   5.118  0.8618  2.0651 -1.2565
  732MOL0     H98816  10.165   0.865   5.462  0.0009  0.9383  0.7943
  732MOL0     H98817  10.631   1.237   4.858 -1.6977  0.8040  3.5171
  732MOL0     H98818  10.725   1.327   4.536  0.2161  3.2642 -0.1558
  732MOL0     H98819  10.578   1.261   4.628 -1.4936  1.1889  0.4024
  732MOL0     H98820  10.575   1.417   4.548 -2.0157 -1.1121  0.1258
  733MOL0     O98821   7.510   8.240   4.434  0.2138 -0.6230  0.7416
  733MOL0     C98822   7.425   8.325   4.423 -0.3064 -0.9627  0.5730
  733MOL0     O98823   7.428   8.455   4.479 -0.4981  0.7770 -0.5946
  733MOL0     C98824   7.536   8.488   4.547 -0.1336  0.3045  0.1777
  733MOL0     C98825   7.616   8.599   4.518  0.0175  0.1954 -0.6612
  733MOL0     C98826   7.732   8.634   4.598 -0.7074 -0.2948 -0.1595
  733MOL0     C98827   7.770   8.549   4.707 -0.7014 -0.3784  0.2773
  733MOL0     O98828   7.869   8.577   4.796  0.7114  0.1339 -0.1498
  733MOL0     C98829   7.874   8.715   4.821  0.1355 -0.7799 -1.1144
  733MOL0     C98830   7.944   8.733   4.954 -0.3575 -1.0493  0.0463
  733MOL0     C98831   7.949   8.884   5.011 -0.1453  0.8167 -1.0462
  733MOL0     C98832   8.057   8.884   5.125 -0.1802 -0.5313  0.6151
  733MOL0     C98833   8.085   9.034   5.162 -0.1332 -0.3825  0.2600
  733MOL0     C98834   8.218   9.055   5.233 -0.2442 -0.2377 -0.1661
  733MOL0     C98835   8.213   9.200   5.292 -0.5807 -0.7300  0.3616
  733MOL0     C98836   8.356   9.214   5.348 -0.1900  0.0939 -0.3185
  733MOL0     N98837   8.379   9.335   5.424  0.0914  0.1432  0.2095
  733MOL0     C98838   8.401   9.456   5.368  0.3911 -0.2141  0.1422
  733MOL0     C98839   8.385   9.546   5.472 -0.3225  0.0887  0.3434
  733MOL0     C98840   8.374   9.705   5.469 -0.5523  0.3403  0.2608
  733MOL0     C98841   8.443   9.771   5.344  0.5527 -0.7290  0.6561
  733MOL0     C98842   8.403   9.915   5.302  0.3042 -0.4347 -0.3740
  733MOL0     C98843   8.440  10.019   5.403 -0.0349  0.5832 -0.1850
  733MOL0     O98844   8.571  10.013   5.443  0.0541  0.2310  0.4064
  733MOL0     C98845   8.677  10.042   5.364  0.0230 -0.5182 -1.4442
  733MOL0     C98846   8.802   9.980   5.382 -0.2618 -0.3460  0.0894
  733MOL0     C98847   8.906  10.020   5.305  0.2490 -0.1392 -0.8135
  733MOL0     C98848   8.902  10.143   5.237 -0.1661  0.4482 -0.3838
  733MOL0     C98849   9.019  10.189   5.168  0.5035 -0.1960 -0.5758
  733MOL0     O98850   9.132  10.109   5.156 -0.5459 -0.3169  0.7424
  733MOL0     C98851   9.242  10.160   5.089  0.1829 -0.1284 -0.1166
  733MOL0     C98852   9.294  10.293   5.101 -0.8482  0.0095 -0.3673
  733MOL0     C98853   9.407  10.335   5.025  0.3206 -0.3000 -0.5564
  733MOL0     C98854   9.460  10.239   4.933  0.7556 -0.5299 -0.1804
  733MOL0     O98855   9.549  10.267   4.841 -0.4605  0.4819  1.1864
  733MOL0     C98856   9.642  10.367   4.865 -1.0782 -0.1429 -0.7322
  733MOL0     C98857   9.761  10.352   4.769 -0.6029  1.0388 -0.1068
  733MOL0     C98858   9.892  10.430   4.811  0.3585  0.7261  0.2547
  733MOL0     C98859   9.998  10.420   4.701  0.5395  0.4683  0.5375
  733MOL0     C98860  10.111  10.507   4.741 -0.2037 -0.4371 -0.2174
  733MOL0     C98861  10.230  10.495   4.640 -0.0581  0.1173 -0.2949
  733MOL0     C98862  10.302  10.361   4.644  0.0538 -0.4873  0.0923
  733MOL0     C98863  10.386  10.355   4.516 -0.9185 -1.1912  0.2723
  733MOL0    Cl98864  10.492  10.214   4.533 -0.2361 -0.3009 -0.0209
  733MOL0     C98865   9.426  10.104   4.942 -0.0169  0.7563  0.3832
  733MOL0     C98866   9.312  10.069   5.012  0.0504 -0.1669  0.3167
  733MOL0     O98867   9.002  10.293   5.122 -0.0848 -0.6032  0.3752
  733MOL0     C98868   8.788  10.208   5.241  0.6608  0.1388  0.0055
  733MOL0     C98869   8.667  10.157   5.291 -0.1578  0.6479 -0.0698
  733MOL0     N98870   8.367   9.476   5.589 -0.7575 -0.4719 -0.2292
  733MOL0     N98871   8.371   9.350   5.560 -0.7488 -0.0484 -0.1134
  733MOL0     C98872   7.693   8.435   4.732  0.7200 -0.3160 -0.6578
  733MOL0     C98873   7.579   8.413   4.657 -0.3670  0.7596 -0.5273
  733MOL0     C98874   7.302   8.273   4.367 -0.4626 -0.3474 -0.5330
  733MOL0     C98875   7.282   8.135   4.349  0.1303 -0.3525 -0.2274
  733MOL0     C98876   7.166   8.079   4.303 -0.8789 -0.4398 -0.3635
  733MOL0     C98877   7.058   8.158   4.254 -0.0722 -0.0720 -0.0542
  733MOL0     O98878   6.942   8.089   4.206 -0.3348 -0.7094  0.1314
  733MOL0     C98879   6.821   8.164   4.209  0.5007 -0.4645 -0.0429
  733MOL0     C98880   6.762   8.145   4.356 -0.2418 -0.2762  0.2683
  733MOL0     C98881   6.754   7.993   4.399 -0.0949 -0.5554 -0.4953
  733MOL0     C98882   6.697   7.988   4.544  0.2030  0.3048  1.1386
  733MOL0     C98883   6.642   7.853   4.571  0.6003  0.6381  0.4383
  733MOL0     C98884   6.598   7.742   4.602  0.3731 -0.4840  0.7968
  733MOL0     C98885   7.085   8.297   4.258 -0.5246  0.1277  0.0348
  733MOL0     C98886   7.203   8.353   4.308  0.0930  1.2509  0.9242
  733MOL0     C98887   7.227   8.500   4.281  0.1949  0.1185  0.9384
  733MOL0     H98888   7.602   8.668   4.435  1.3281  2.6502  1.0328
  733MOL0     H98889   7.783   8.726   4.572  1.6685 -0.8761  2.0547
  733MOL0     H98890   7.929   8.769   4.744  2.6085  0.0886  1.1220
  733MOL0     H98891   7.775   8.762   4.826  0.1183 -0.7351 -1.7970
  733MOL0     H98892   8.044   8.690   4.950 -0.6975 -1.9138  0.4619
  733MOL0     H98893   7.896   8.674   5.034  0.6714 -0.7799  0.8837
  733MOL0     H98894   7.857   8.920   5.058  1.3599  1.8003  1.3386
  733MOL0     H98895   7.966   8.953   4.928  0.8179  2.3625  0.3682
  733MOL0     H98896   8.037   8.825   5.215 -1.1050 -1.8688 -0.4155
  733MOL0     H98897   8.143   8.841   5.072 -2.3383 -1.1449 -2.7022
  733MOL0     H98898   8.098   9.100   5.076  0.5464 -0.6433  0.1548
  733MOL0     H98899   7.997   9.073   5.214 -0.7121 -0.3749 -0.7025
  733MOL0     H98900   8.230   8.974   5.305 -2.4459  0.0364  0.5889
  733MOL0     H98901   8.300   9.039   5.162 -1.3374  2.1807 -2.1548
  733MOL0     H98902   8.137   9.211   5.369  0.4119  0.4636  1.2088
  733MOL0     H98903   8.208   9.280   5.217  3.2067 -0.2455  0.4459
  733MOL0     H98904   8.377   9.132   5.417  2.2701 -0.5469 -1.7296
  733MOL0     H98905   8.424   9.213   5.263  1.0654 -0.1297  0.6690
  733MOL0     H98906   8.406   9.480   5.262  0.1858  0.6613  0.3177
  733MOL0     H98907   8.269   9.735   5.472 -0.2793  1.3442  3.2751
  733MOL0     H98908   8.421   9.745   5.559  1.4457 -0.1920 -0.5001
  733MOL0     H98909   8.550   9.765   5.361  0.7581  0.8986  0.0948
  733MOL0     H98910   8.423   9.711   5.255  0.7294  1.3332 -0.8542
  733MOL0     H98911   8.298   9.919   5.272  0.9016 -2.7052 -3.2530
  733MOL0     H98912   8.457   9.941   5.210 -1.4158  1.9352 -0.8130
  733MOL0     H98913   8.367   9.989   5.479 -0.6389 -2.4355 -1.8107
  733MOL0     H98914   8.403  10.115   5.365 -2.9058  0.6415  2.3542
  733MOL0     H98915   8.825   9.917   5.467 -0.2109  0.7637  0.9263
  733MOL0     H98916   9.000   9.968   5.317 -0.6416 -1.2743  2.2175
  733MOL0     H98917   9.258  10.357   5.182 -0.4064 -1.3882  0.9745
  733MOL0     H98918   9.432  10.439   5.045 -1.8600  0.2076 -0.1728
  733MOL0     H98919   9.600  10.468   4.860  2.1911  1.3352 -1.1030
  733MOL0     H98920   9.680  10.367   4.968 -0.3549 -1.2345 -0.9835
  733MOL0     H98921   9.801  10.253   4.747  1.0444  1.5534  0.3838
  733MOL0     H98922   9.727  10.388   4.671  2.2878  0.1616 -1.5504
  733MOL0     H98923   9.862  10.532   4.832 -4.0590 -0.6141  1.5049
  733MOL0     H98924   9.923  10.372   4.898  0.9991 -3.0355 -2.2103
  733MOL0     H98925   9.953  10.438   4.603 -1.7976 -0.0066  1.4655
  733MOL0     H98926  10.043  10.322   4.689  1.2887  1.0987 -2.9555
  733MOL0     H98927  10.150  10.464   4.834 -0.6900 -0.2918  0.0563
  733MOL0     H98928  10.089  10.614   4.745  0.3272 -0.2482 -1.6472
  733MOL0     H98929  10.192  10.529   4.544 -1.7878 -1.0399 -0.0609
  733MOL0     H98930  10.297  10.580   4.661 -0.5498  1.0245 -2.1956
  733MOL0     H98931  10.228  10.281   4.646 -0.0319 -0.4787 -1.5565
  733MOL0     H98932  10.371  10.355   4.728 -0.4282 -2.1102  0.3948
  733MOL0     H98933  10.317  10.333   4.435 -0.5848 -0.0509 -0.3470
  733MOL0     H98934  10.434  10.452   4.500 -2.4341 -0.4732 -0.0203
  733MOL0     H98935   9.471  10.034   4.873 -0.0182 -0.1890  1.3113
  733MOL0     H98936   9.275   9.966   5.011 -0.1522 -0.0982 -0.5046
  733MOL0     H98937   8.782  10.306   5.195  0.2428  1.0481  1.9056
  733MOL0     H98938   8.573  10.212   5.286 -0.1987  0.4942 -1.5542
  733MOL0     H98939   7.723   8.371   4.814  2.7686  1.8248  0.3828
  733MOL0     H98940   7.539   8.319   4.694  1.5552  0.3155  0.5694
  733MOL0     H98941   7.369   8.073   4.371  0.5986 -0.3462 -1.8921
  733MOL0     H98942   7.146   7.973   4.300  1.9020 -1.0346 -2.6138
  733MOL0     H98943   6.745   8.118   4.144 -0.3728  3.8415 -2.4425
  733MOL0     H98944   6.840   8.266   4.174  0.4762 -1.8271 -4.6132
  733MOL0     H98945   6.667   8.198   4.370  0.3575  0.3890  2.2047
  733MOL0     H98946   6.823   8.197   4.431  0.2306 -1.6502  0.8793
  733MOL0     H98947   6.850   7.941   4.392 -1.1581 -2.3695 -2.5386
  733MOL0     H98948   6.689   7.948   4.324 -1.1595  0.5144 -0.2448
  733MOL0     H98949   6.784   8.015   4.604  0.8299 -0.0461  0.4027
  733MOL0     H98950   6.615   8.061   4.548  0.7318  0.9029  1.3044
  733MOL0     H98951   6.547   7.650   4.622  2.7298 -2.0622  0.0687
  733MOL0     H98952   7.017   8.372   4.220 -0.3231 -0.5661 -1.8070
  733MOL0     H98953   7.325   8.509   4.234 -0.0068  1.2619  0.7080
  733MOL0     H98954   7.153   8.549   4.217 -0.4801  2.1861  3.1385
  733MOL0     H98955   7.224   8.557   4.375 -2.8580 -0.4804  1.3093
  734MOL0     O98956   2.834   7.512   2.784  0.5996 -0.9120 -0.5155
  734MOL0     C98957   2.902   7.417   2.827  0.2338  0.0814 -0.3768
  734MOL0     O98958   2.926   7.298   2.766 -1.2843 -0.2762  0.0866
  734MOL0     C98959   2.881   7.268   2.642  0.3220  0.2622  0.2460
  734MOL0     C98960   2.760   7.312   2.597 -0.0147 -0.0630  0.0996
  734MOL0     C98961   2.716   7.295   2.459 -1.0139 -0.2380 -0.1554
  734MOL0     C98962   2.798   7.221   2.373  1.1693 -0.1722  0.1753
  734MOL0     O98963   2.778   7.189   2.236 -0.2977 -0.4082  0.7202
  734MOL0     C98964   2.642   7.187   2.186  1.2926 -0.3494  0.6127
  734MOL0     C98965   2.603   7.071   2.093  1.1891 -0.2090  0.4618
  734MOL0     C98966   2.728   6.984   2.047  1.0245  0.1615 -0.3537
  734MOL0     C98967   2.702   6.886   1.932 -1.2819 -0.0278  0.4619
  734MOL0     C98968   2.825   6.795   1.890 -0.1493 -0.3524  0.1695
  734MOL0     C98969   2.970   6.852   1.927  0.7084 -0.4398  0.2804
  734MOL0     C98970   3.082   6.770   1.878  0.2803 -0.0069 -0.3415
  734MOL0     C98971   3.224   6.817   1.933 -0.3304  0.4231 -0.5751
  734MOL0     N98972   3.269   6.951   1.875 -0.5355 -0.5163 -0.0558
  734MOL0     C98973   3.361   7.027   1.937 -0.1141 -0.0135 -0.6098
  734MOL0     C98974   3.424   7.094   1.844  0.0923  0.3316  0.2689
  734MOL0     C98975   3.536   7.192   1.866  0.5724  0.2868  0.8654
  734MOL0     C98976   3.545   7.244   2.009  0.1812 -0.2971  0.4787
  734MOL0     C98977   3.624   7.376   2.008  0.2938 -0.0273 -0.2425
  734MOL0     C98978   3.643   7.429   2.148  0.6673 -0.1513 -0.9160
  734MOL0     O98979   3.769   7.515   2.147 -0.1686 -0.1673 -0.6471
  734MOL0     C98980   3.767   7.638   2.072  0.1701  0.9327 -0.9963
  734MOL0     C98981   3.895   7.688   2.035  0.1207  0.3418 -0.3856
  734MOL0     C98982   3.901   7.813   1.971 -0.7012 -0.4534 -0.1698
  734MOL0     C98983   3.781   7.888   1.937  0.4399  0.4102 -0.0909
  734MOL0     C98984   3.778   8.006   1.850 -0.8247  0.0813  0.3230
  734MOL0     O98985   3.869   8.104   1.865  0.3667 -0.3088  0.2295
  734MOL0     C98986   3.868   8.213   1.781 -0.2284  0.9960  0.0600
  734MOL0     C98987   3.987   8.256   1.741 -0.4429 -0.0295  0.8826
  734MOL0     C98988   4.001   8.382   1.678 -0.1552 -1.2845  0.3616
  734MOL0     C98989   3.883   8.459   1.638 -0.1023  0.8011 -0.4153
  734MOL0     O98990   3.889   8.572   1.558  0.2285 -0.5607  0.1907
  734MOL0     C98991   4.013   8.641   1.553  0.5159  0.3460  1.0160
  734MOL0     C98992   4.018   8.770   1.468 -0.7249  1.1512  0.2831
  734MOL0     C98993   4.165   8.809   1.464 -0.2771 -0.3412 -0.4121
  734MOL0     C98994   4.233   8.776   1.336 -0.4876 -0.5569  0.6636
  734MOL0     C98995   4.179   8.848   1.213  0.0020 -0.0656  0.0097
  734MOL0     C98996   4.149   9.000   1.224  0.3845  0.3220 -0.5126
  734MOL0     C98997   4.078   9.064   1.106 -0.9517  1.2683 -0.4830
  734MOL0     C98998   3.934   9.002   1.092 -0.4428 -1.1342 -0.0207
  734MOL0    Cl98999   3.933   8.872   0.979  0.1205 -0.1090 -0.1032
  734MOL0     C99000   3.758   8.404   1.681  0.7773 -0.0300  0.0660
  734MOL0     C99001   3.748   8.291   1.755 -0.0868  0.3545 -0.8091
  734MOL0     O99002   3.675   8.014   1.779 -0.2663 -0.6457 -0.5029
  734MOL0     C99003   3.657   7.846   1.993  0.4929  0.2752 -0.1935
  734MOL0     C99004   3.655   7.717   2.048  0.0353 -0.3315 -0.2744
  734MOL0     N99005   3.371   7.057   1.717 -0.5216  0.4660 -0.0889
  734MOL0     N99006   3.277   6.974   1.741  0.1549  1.0436 -0.0615
  734MOL0     C99007   2.922   7.170   2.426  0.2224  0.1697  0.1829
  734MOL0     C99008   2.962   7.191   2.560 -0.4017  0.1118 -0.4768
  734MOL0     C99009   2.978   7.434   2.960  0.5985  0.3926 -0.1843
  734MOL0     C99010   3.096   7.509   2.953 -0.0544  0.4319  0.0514
  734MOL0     C99011   3.162   7.532   3.079  0.2282  0.2155 -0.8569
  734MOL0     C99012   3.114   7.485   3.200 -0.9104  0.0086 -0.1217
  734MOL0     O99013   3.174   7.512   3.325 -0.0229 -0.7422 -0.5240
  734MOL0     C99014   3.233   7.632   3.361 -0.1052 -0.1438  0.5021
  734MOL0     C99015   3.379   7.629   3.333  0.8985 -0.4006  0.0236
  734MOL0     C99016   3.480   7.591   3.448  0.1421 -0.2183  0.7167
  734MOL0     C99017   3.476   7.439   3.486 -0.2431  0.4209  0.2177
  734MOL0     C99018   3.471   7.422   3.633  0.4685  0.6182 -0.2138
  734MOL0     C99019   3.455   7.410   3.750  0.8171  1.3297 -0.6892
  734MOL0     C99020   2.982   7.430   3.201 -0.7838 -0.7536  0.5096
  734MOL0     C99021   2.927   7.395   3.084  0.6020  0.6128 -0.0206
  734MOL0     C99022   2.796   7.317   3.087 -0.4200  0.4508 -0.3575
  734MOL0     H99023   2.692   7.367   2.662 -1.3023  0.7933 -1.8548
  734MOL0     H99024   2.614   7.324   2.432 -1.2444  0.1513  1.0725
  734MOL0     H99025   2.572   7.181   2.270  0.8542  0.1877  0.2870
  734MOL0     H99026   2.628   7.280   2.131 -3.9478 -0.0332  1.9061
  734MOL0     H99027   2.544   7.098   2.004 -1.1059  1.7501  2.4179
  734MOL0     H99028   2.532   7.008   2.146  1.9640 -0.4336  1.2578
  734MOL0     H99029   2.754   6.918   2.130 -0.1050 -2.0802 -1.6862
  734MOL0     H99030   2.811   7.053   2.029  0.0733  2.1330  2.1521
  734MOL0     H99031   2.624   6.810   1.941 -0.5270 -1.4463 -3.0824
  734MOL0     H99032   2.665   6.939   1.843 -0.5407  0.4456  0.4236
  734MOL0     H99033   2.804   6.701   1.941 -1.7354  1.4167  3.0543
  734MOL0     H99034   2.805   6.776   1.784 -1.6441 -1.5749  0.6366
  734MOL0     H99035   2.988   6.953   1.891  1.8340 -0.6266  0.2708
  734MOL0     H99036   2.969   6.859   2.036  2.4581  0.5089  0.2767
  734MOL0     H99037   3.096   6.770   1.769  2.1044 -1.7411 -0.1628
  734MOL0     H99038   3.063   6.667   1.907 -1.7085 -0.1529 -1.9188
  734MOL0     H99039   3.228   6.823   2.042  0.7951 -2.6514 -0.3235
  734MOL0     H99040   3.301   6.743   1.908  0.8157  2.2867 -2.8698
  734MOL0     H99041   3.390   7.024   2.042 -2.8373 -2.6044  0.2306
  734MOL0     H99042   3.629   7.141   1.840 -0.6424 -1.9790  0.7068
  734MOL0     H99043   3.512   7.266   1.790  1.0457 -1.9586 -1.6154
  734MOL0     H99044   3.442   7.266   2.040 -1.6845 -4.3627 -2.0846
  734MOL0     H99045   3.588   7.170   2.077 -0.6922 -0.0711  1.3045
  734MOL0     H99046   3.574   7.453   1.949  1.8502  0.2351 -1.2856
  734MOL0     H99047   3.726   7.359   1.972  0.6579  0.1614  0.6604
  734MOL0     H99048   3.645   7.352   2.226 -2.3834 -1.4895 -1.9831
  734MOL0     H99049   3.547   7.472   2.180  0.1578 -3.5859  3.1333
  734MOL0     H99050   3.986   7.635   2.063 -1.7447 -1.2117  3.5255
  734MOL0     H99051   3.992   7.853   1.928 -0.3514 -1.1508 -0.0935
  734MOL0     H99052   4.061   8.179   1.758 -1.9397 -1.9536 -0.8858
  734MOL0     H99053   4.098   8.428   1.660 -1.4131  1.8978  1.0902
  734MOL0     H99054   4.049   8.666   1.653  2.3346  1.2765  0.1683
  734MOL0     H99055   4.078   8.567   1.505 -0.8133  0.7882 -1.6808
  734MOL0     H99056   3.977   8.744   1.370 -2.4649  0.5085  1.1340
  734MOL0     H99057   3.958   8.846   1.519  1.7192  2.4056  1.4539
  734MOL0     H99058   4.180   8.914   1.493  2.5403 -0.8105  0.0871
  734MOL0     H99059   4.219   8.751   1.540  0.5318 -1.1381 -1.5707
  734MOL0     H99060   4.228   8.668   1.318  1.1581 -0.3381 -1.5586
  734MOL0     H99061   4.339   8.789   1.362 -0.2970 -1.1683  0.2161
  734MOL0     H99062   4.089   8.796   1.178  0.2232 -0.7269  0.3998
  734MOL0     H99063   4.239   8.821   1.125  0.6361 -2.0792  1.0017
  734MOL0     H99064   4.076   9.023   1.303  0.2137 -1.0075 -0.2589
  734MOL0     H99065   4.244   9.050   1.246  0.3690  0.1325 -0.0027
  734MOL0     H99066   4.128   9.055   1.009 -0.0733 -0.8633  0.1230
  734MOL0     H99067   4.074   9.172   1.126  1.4697  0.9831  2.1337
  734MOL0     H99068   3.880   8.986   1.186  3.4073  1.1474  2.8653
  734MOL0     H99069   3.887   9.087   1.040  1.5584  0.5613  0.8088
  734MOL0     H99070   3.666   8.453   1.653 -0.2819 -0.1275  2.9691
  734MOL0     H99071   3.655   8.256   1.798  0.5814 -1.6335 -0.8717
  734MOL0     H99072   3.570   7.910   2.003  0.9702  1.0282 -0.7212
  734MOL0     H99073   3.563   7.669   2.081  0.0682 -0.3746 -0.2450
  734MOL0     H99074   2.987   7.110   2.364  0.2763  0.7600 -0.3418
  734MOL0     H99075   3.045   7.139   2.606  0.4137  1.0093 -0.9215
  734MOL0     H99076   3.135   7.549   2.859 -1.9463  3.4954  0.4524
  734MOL0     H99077   3.261   7.575   3.082  0.2951  0.3052  3.6004
  734MOL0     H99078   3.215   7.675   3.460  5.3991  1.8787  0.9581
  734MOL0     H99079   3.198   7.710   3.293  0.8178 -1.5235 -1.7067
  734MOL0     H99080   3.402   7.735   3.314  0.7140  0.2082  2.7378
  734MOL0     H99081   3.391   7.565   3.245  0.1526 -3.3678  1.9309
  734MOL0     H99082   3.465   7.657   3.533  0.7271  0.4137  0.3417
  734MOL0     H99083   3.576   7.610   3.399 -0.3982  0.4445 -0.1207
  734MOL0     H99084   3.376   7.407   3.455 -0.1363  0.5739 -0.2963
  734MOL0     H99085   3.549   7.381   3.429  0.4055  0.8287  0.6180
  734MOL0     H99086   3.440   7.386   3.854  0.2682  1.0581 -0.8222
  734MOL0     H99087   2.928   7.405   3.292 -0.6578 -1.7411  0.3256
  734MOL0     H99088   2.828   7.212   3.084  3.0501  1.4269 -1.9493
  734MOL0     H99089   2.752   7.336   3.186  1.5111  1.7622  0.2982
  734MOL0     H99090   2.726   7.336   3.005 -0.9144  2.3304  0.4529
  735MOL0     O99091   9.265   1.719   4.726 -0.1238  0.1154 -0.0065
  735MOL0     C99092   9.284   1.641   4.633 -0.0030  0.2051  0.4360
  735MOL0     O99093   9.382   1.660   4.540 -0.3758  0.9714  0.2864
  735MOL0     C99094   9.492   1.728   4.585 -0.2297  0.2100 -0.8348
  735MOL0     C99095   9.501   1.866   4.550  1.3185 -0.2480 -0.6824
  735MOL0     C99096   9.602   1.942   4.598  0.0256  0.0934  0.0171
  735MOL0     C99097   9.711   1.888   4.671  0.2424 -0.2097 -0.1740
  735MOL0     O99098   9.809   1.976   4.714 -0.3048 -0.0137  1.0606
  735MOL0     C99099   9.938   1.908   4.738 -0.0253 -0.2852  0.8203
  735MOL0     C99100  10.043   2.015   4.727  0.0296  0.9620 -0.5588
  735MOL0     C99101  10.025   2.126   4.844  0.2516 -0.4453  0.5129
  735MOL0     C99102  10.153   2.215   4.837 -0.3640  0.3051  0.1262
  735MOL0     C99103  10.278   2.161   4.920  0.9208 -0.0013 -0.8883
  735MOL0     C99104  10.386   2.262   4.914 -0.1624  0.7778  0.0507
  735MOL0     C99105  10.485   2.218   5.032  0.0947  0.3933  0.1632
  735MOL0     C99106  10.535   2.334   5.118  0.4043 -1.0962  0.2635
  735MOL0     N99107  10.619   2.277   5.220 -0.3128 -0.7200 -0.4848
  735MOL0     C99108  10.742   2.327   5.255  0.8485  0.3250 -0.1577
  735MOL0     C99109  10.780   2.265   5.367  0.7242 -0.1585  0.0708
  735MOL0     C99110  10.906   2.283   5.455  0.2707  0.5758  0.1957
  735MOL0     C99111  11.029   2.201   5.408  0.4083 -0.0327 -0.1470
  735MOL0     C99112  10.981   2.063   5.355  0.2715  0.6388 -0.2431
  735MOL0     C99113  11.089   1.960   5.348 -0.2440  0.2164  0.4380
  735MOL0     O99114  11.169   1.942   5.469  1.1692  0.0539 -0.1406
  735MOL0     C99115  11.113   1.898   5.591  0.4928  0.2375  0.1715
  735MOL0     C99116  11.189   1.924   5.706 -0.3225  0.3479  0.1437
  735MOL0     C99117  11.129   1.902   5.838  1.1495  0.3628 -0.6302
  735MOL0     C99118  11.007   1.826   5.842  0.3098  0.5010 -1.2866
  735MOL0     C99119  10.958   1.768   5.971  0.3506 -0.5992  0.1380
  735MOL0     O99120  10.828   1.722   5.958 -0.3115  0.5551 -0.3984
  735MOL0     C99121  10.775   1.677   6.081 -0.6424 -0.4807  0.3797
  735MOL0     C99122  10.815   1.553   6.137  1.1677 -0.0799 -0.7572
  735MOL0     C99123  10.728   1.509   6.239  0.3601 -0.7000 -0.0451
  735MOL0     C99124  10.622   1.584   6.297 -0.2813 -0.8613  0.3804
  735MOL0     O99125  10.554   1.537   6.403 -0.2013  0.2936 -0.0093
  735MOL0     C99126  10.630   1.499   6.515 -0.2110  0.8769  0.3508
  735MOL0     C99127  10.588   1.346   6.530 -0.3911 -0.0918  1.0148
  735MOL0     C99128  10.438   1.345   6.568  0.4578  0.0531 -0.3791
  735MOL0     C99129  10.399   1.217   6.650 -0.4625  0.0083 -0.4187
  735MOL0     C99130  10.253   1.231   6.686  0.0513 -0.1063  0.4329
  735MOL0     C99131  10.197   1.111   6.763  0.6890 -0.6332  0.3510
  735MOL0     C99132  10.048   1.127   6.781 -0.1491 -0.0768  1.0518
  735MOL0     C99133   9.973   1.056   6.881 -0.3320 -0.3541  0.0117
  735MOL0    Cl99134   9.990   1.140   7.038  0.3225 -0.1045 -0.2719
  735MOL0     C99135  10.604   1.708   6.245 -0.0522 -0.0277 -0.1357
  735MOL0     C99136  10.679   1.758   6.136 -0.0202 -0.5529 -0.1447
  735MOL0     O99137  11.038   1.749   6.061  0.0887  0.7492  0.6502
  735MOL0     C99138  10.947   1.791   5.719 -1.0293  0.0712 -0.7195
  735MOL0     C99139  10.994   1.831   5.598 -0.1860  1.0831 -0.0816
  735MOL0     N99140  10.658   2.197   5.409 -0.1127 -0.1746  0.2323
  735MOL0     N99141  10.569   2.207   5.321  0.1595  0.6824 -0.6686
  735MOL0     C99142   9.698   1.750   4.702 -0.4983 -0.4845 -0.7178
  735MOL0     C99143   9.592   1.673   4.666  1.1059  0.8303  0.1484
  735MOL0     C99144   9.177   1.535   4.599  0.4829 -1.2930  0.4412
  735MOL0     C99145   9.191   1.449   4.490  0.4675  0.1708 -0.5870
  735MOL0     C99146   9.098   1.357   4.445 -0.3459  1.2791  0.6571
  735MOL0     C99147   8.980   1.342   4.514  0.0043  0.0253  0.1120
  735MOL0     O99148   8.891   1.255   4.454 -0.4914 -0.8981 -0.7671
  735MOL0     C99149   8.761   1.216   4.510 -0.2541 -0.0902  0.0876
  735MOL0     C99150   8.650   1.172   4.412 -0.0660  0.2859  0.5586
  735MOL0     C99151   8.682   1.091   4.296 -0.4704  0.3445 -0.5623
  735MOL0     C99152   8.761   0.964   4.341  0.0774  0.1506  0.6104
  735MOL0     C99153   8.751   0.873   4.228  1.3721 -0.9579  0.6037
  735MOL0     C99154   8.768   0.804   4.129 -0.7256 -0.0711 -0.6667
  735MOL0     C99155   8.968   1.417   4.637  0.0605  0.6353  0.1232
  735MOL0     C99156   9.058   1.520   4.680  0.3963  0.2380  0.3955
  735MOL0     C99157   9.028   1.588   4.814  0.3392 -0.5066 -0.1653
  735MOL0     H99158   9.421   1.912   4.493  0.9598 -3.1337 -2.7124
  735MOL0     H99159   9.616   2.046   4.571 -2.0623 -0.5179 -4.2505
  735MOL0     H99160   9.927   1.864   4.838  0.5419 -0.6766  0.7177
  735MOL0     H99161   9.968   1.832   4.666 -0.5295 -0.3910  0.7231
  735MOL0     H99162  10.016   2.064   4.632 -0.3604  1.5199 -0.1696
  735MOL0     H99163  10.144   1.976   4.726 -0.8063 -1.3553 -1.8240
  735MOL0     H99164  10.019   2.090   4.947  0.5399  4.1617  2.3506
  735MOL0     H99165   9.932   2.182   4.827  1.8484  1.9963 -0.6491
  735MOL0     H99166  10.192   2.230   4.736 -1.8341 -0.8853 -0.6697
  735MOL0     H99167  10.135   2.312   4.883  1.6584  1.3630 -1.1560
  735MOL0     H99168  10.240   2.154   5.022 -0.3070  3.2933 -0.9948
  735MOL0     H99169  10.315   2.064   4.885  0.2756 -0.3498 -0.6207
  735MOL0     H99170  10.440   2.263   4.818  1.4553 -5.1038  0.4763
  735MOL0     H99171  10.346   2.362   4.930  0.2054  1.2787 -1.8941
  735MOL0     H99172  10.569   2.170   4.980 -0.0991 -0.6030  0.7335
  735MOL0     H99173  10.448   2.136   5.095 -1.3589  0.9973  0.1174
  735MOL0     H99174  10.597   2.402   5.059 -0.2005  0.4552  1.3550
  735MOL0     H99175  10.452   2.393   5.159  0.6406 -1.5302  1.4022
  735MOL0     H99176  10.805   2.392   5.195 -0.1901 -1.6835 -3.7536
  735MOL0     H99177  10.934   2.389   5.446  0.5162  0.7731  2.5170
  735MOL0     H99178  10.883   2.262   5.560 -2.2398  2.6882  0.1945
  735MOL0     H99179  11.075   2.264   5.332  1.3924  1.1972  1.4060
  735MOL0     H99180  11.099   2.188   5.491 -0.3298 -0.0531  0.4889
  735MOL0     H99181  10.955   2.072   5.249 -0.0901 -1.7763 -0.4068
  735MOL0     H99182  10.893   2.026   5.410 -2.8768  2.9207 -3.2818
  735MOL0     H99183  11.152   1.986   5.262 -1.8202  1.0490 -0.5148
  735MOL0     H99184  11.039   1.868   5.317 -2.4573  1.1562  0.9824
  735MOL0     H99185  11.282   1.977   5.688 -1.1212  1.5872 -0.5361
  735MOL0     H99186  11.173   1.931   5.932 -3.3072  3.1002  0.9128
  735MOL0     H99187  10.895   1.499   6.088 -0.6384 -2.9033 -0.8025
  735MOL0     H99188  10.750   1.408   6.270  4.0680 -0.1800 -0.5165
  735MOL0     H99189  10.738   1.506   6.499  0.1672 -1.9376  1.0119
  735MOL0     H99190  10.616   1.565   6.601  3.0056  0.7339  1.1004
  735MOL0     H99191  10.598   1.286   6.439 -3.4416 -0.7032  0.9598
  735MOL0     H99192  10.653   1.293   6.600 -0.5308 -0.5494  0.8048
  735MOL0     H99193  10.421   1.434   6.630 -0.1673  0.1592 -0.6995
  735MOL0     H99194  10.378   1.365   6.479 -1.3687 -1.2885  0.5042
  735MOL0     H99195  10.456   1.213   6.744  1.8802  0.1622 -1.7517
  735MOL0     H99196  10.431   1.136   6.583 -1.7450 -1.8137  1.0501
  735MOL0     H99197  10.185   1.256   6.604  1.5520  0.6540 -0.6389
  735MOL0     H99198  10.257   1.320   6.750  1.1667  0.0045  0.2241
  735MOL0     H99199  10.211   1.014   6.715 -0.5007 -0.2368 -0.8852
  735MOL0     H99200  10.239   1.104   6.863  2.2783  1.3700 -0.1208
  735MOL0     H99201  10.008   1.100   6.683 -0.6286  4.7006 -0.3187
  735MOL0     H99202  10.031   1.233   6.799  3.7355  1.3336 -1.9955
  735MOL0     H99203   9.869   1.070   6.851 -0.1628  0.0353 -0.3996
  735MOL0     H99204   9.995   0.949   6.889 -0.4143 -0.5184 -1.6771
  735MOL0     H99205  10.520   1.762   6.287 -1.4247 -1.4072 -1.0327
  735MOL0     H99206  10.642   1.844   6.081 -0.8241 -0.1863  0.9406
  735MOL0     H99207  10.857   1.732   5.713 -0.8339 -0.4079  0.7410
  735MOL0     H99208  10.948   1.794   5.507 -2.3956 -1.8839  2.0383
  735MOL0     H99209   9.780   1.703   4.754  1.2627  2.3670 -0.6944
  735MOL0     H99210   9.604   1.568   4.691 -0.7074  0.2916 -1.0591
  735MOL0     H99211   9.288   1.459   4.442  0.5593  1.1728 -0.2173
  735MOL0     H99212   9.118   1.309   4.349  0.0270 -0.0212  1.3596
  735MOL0     H99213   8.721   1.307   4.553 -0.4286  0.1489 -0.5697
  735MOL0     H99214   8.788   1.148   4.591  1.7446  1.3460  0.7033
  735MOL0     H99215   8.616   1.268   4.373 -0.6683  0.5062  1.5757
  735MOL0     H99216   8.574   1.118   4.470  0.5694 -2.8745 -1.3243
  735MOL0     H99217   8.739   1.161   4.234 -0.1063  2.0293  1.5342
  735MOL0     H99218   8.588   1.061   4.250  0.6178 -1.5665 -1.6771
  735MOL0     H99219   8.868   0.977   4.362  0.5039 -0.6749 -0.8915
  735MOL0     H99220   8.712   0.907   4.420 -0.5011 -3.9537 -2.4029
  735MOL0     H99221   8.793   0.743   4.045 -0.8332 -1.6671  0.4238
  735MOL0     H99222   8.883   1.385   4.696 -0.5686 -0.1172 -1.1439
  735MOL0     H99223   8.926   1.571   4.851  1.2749 -1.1941  2.3259
  735MOL0     H99224   9.105   1.546   4.879  0.7595 -0.8977 -0.9079
  735MOL0     H99225   9.027   1.697   4.800 -2.5438 -0.4037  0.1182
  736MOL0     O99226   1.309   3.522   1.623 -0.8303  0.3133 -0.0555
  736MOL0     C99227   1.309   3.596   1.719  0.4286 -0.6140 -0.7321
  736MOL0     O99228   1.415   3.631   1.784  0.2943 -0.2189 -0.3307
  736MOL0     C99229   1.535   3.583   1.740 -0.7972 -0.4856 -0.7742
  736MOL0     C99230   1.580   3.456   1.781 -0.2544  0.2654  0.6286
  736MOL0     C99231   1.693   3.398   1.722  0.9028  0.5998  0.3777
  736MOL0     C99232   1.774   3.470   1.637 -1.1468 -0.5130 -0.4692
  736MOL0     O99233   1.882   3.419   1.571 -0.3329 -0.2278 -0.3819
  736MOL0     C99234   1.858   3.321   1.464  0.2519  0.0030 -0.3602
  736MOL0     C99235   1.980   3.235   1.437 -0.6314  0.1941  0.5051
  736MOL0     C99236   2.076   3.322   1.365  0.0650  1.1933  0.3432
  736MOL0     C99237   2.189   3.236   1.297 -0.4115 -0.1114  0.3086
  736MOL0     C99238   2.307   3.332   1.275  0.4536 -0.6900  0.9200
  736MOL0     C99239   2.284   3.467   1.212 -0.0409  0.3491  0.0408
  736MOL0     C99240   2.246   3.467   1.068  0.7103 -0.1784  0.0183
  736MOL0     C99241   2.239   3.608   0.999 -0.4716 -0.0251 -0.7055
  736MOL0     N99242   2.330   3.707   1.058  0.9182  0.9522 -1.0507
  736MOL0     C99243   2.467   3.703   1.063  0.4125  0.5540 -0.3173
  736MOL0     C99244   2.501   3.791   1.148  0.1029 -0.3315 -0.0531
  736MOL0     C99245   2.645   3.808   1.188  0.9088 -0.7360 -0.1768
  736MOL0     C99246   2.701   3.702   1.284 -0.3167 -0.0343  0.2652
  736MOL0     C99247   2.636   3.695   1.422 -0.1049  0.7743 -0.6612
  736MOL0     C99248   2.681   3.570   1.491 -0.5744  0.6561 -0.7415
  736MOL0     O99249   2.579   3.547   1.587 -0.0672  0.3992  0.1461
  736MOL0     C99250   2.582   3.426   1.660 -0.3937  0.8124 -0.4205
  736MOL0     C99251   2.704   3.357   1.677  0.4585 -0.0106  0.0372
  736MOL0     C99252   2.694   3.228   1.733 -0.5686  0.1252 -1.1485
  736MOL0     C99253   2.576   3.179   1.790 -0.7052 -1.0063 -0.1972
  736MOL0     C99254   2.578   3.054   1.865  0.1361 -0.5240  0.2969
  736MOL0     O99255   2.457   2.994   1.874  0.7509  0.0292 -0.2210
  736MOL0     C99256   2.467   2.872   1.937 -0.5777 -0.3890  1.0283
  736MOL0     C99257   2.404   2.854   2.055 -0.3219  0.0676  0.1602
  736MOL0     C99258   2.403   2.724   2.103  0.0081 -0.9042 -0.4759
  736MOL0     C99259   2.471   2.621   2.039  0.2595  0.0733  0.7435
  736MOL0     O99260   2.475   2.493   2.092 -0.0575  1.1523 -0.3429
  736MOL0     C99261   2.415   2.444   2.222  0.5371  0.4393  0.6535
  736MOL0     C99262   2.291   2.357   2.196  0.6763 -0.1407 -0.0647
  736MOL0     C99263   2.312   2.262   2.082 -0.6254 -0.5567  0.7061
  736MOL0     C99264   2.402   2.141   2.126  0.1114 -0.7139  0.7030
  736MOL0     C99265   2.425   2.046   2.006  0.2789  0.6569  0.0827
  736MOL0     C99266   2.308   2.024   1.916 -0.3604 -0.0602  0.3235
  736MOL0     C99267   2.173   1.957   1.979  0.0263 -0.5901 -0.0405
  736MOL0     C99268   2.101   1.894   1.870 -0.1896  0.0791  0.3732
  736MOL0    Cl99269   1.945   1.838   1.935  0.2413 -0.2055  0.2996
  736MOL0     C99270   2.536   2.644   1.921  0.8664  0.0947 -0.1470
  736MOL0     C99271   2.527   2.773   1.861  0.4165  0.9493  0.1160
  736MOL0     O99272   2.691   3.011   1.899 -0.4601 -0.0853 -0.6509
  736MOL0     C99273   2.455   3.257   1.788 -0.3342 -0.4620  0.6378
  736MOL0     C99274   2.464   3.372   1.710 -0.2639  0.2155 -0.1762
  736MOL0     N99275   2.390   3.872   1.178 -0.6133 -0.8654  0.6870
  736MOL0     N99276   2.285   3.814   1.125  0.4406 -0.4939  0.7119
  736MOL0     C99277   1.736   3.601   1.609  1.3264  0.1330 -0.1698
  736MOL0     C99278   1.622   3.661   1.659  0.6611  0.0241 -0.0773
  736MOL0     C99279   1.174   3.660   1.752 -0.0321  0.6607 -0.2002
  736MOL0     C99280   1.071   3.662   1.655  0.3186  1.1384  0.0442
  736MOL0     C99281   0.946   3.699   1.678 -0.0140  0.6895  0.3602
  736MOL0     C99282   0.905   3.752   1.803 -1.1601 -0.5060  0.7881
  736MOL0     O99283   0.787   3.815   1.839  0.3772  1.0255 -0.4688
  736MOL0     C99284   0.677   3.812   1.746 -0.7091  1.1939 -1.0373
  736MOL0     C99285   0.551   3.891   1.788  0.0740  0.4986  0.3365
  736MOL0     C99286   0.510   3.846   1.926 -0.5430  0.3566  0.2099
  736MOL0     C99287   0.380   3.911   1.967  0.1576 -0.5872 -0.3476
  736MOL0     C99288   0.257   3.850   1.924 -0.0429 -0.0949 -0.8455
  736MOL0     C99289   0.144   3.803   1.915 -0.7549  0.4036  0.1528
  736MOL0     C99290   0.999   3.765   1.900 -0.1998 -0.2847  0.0768
  736MOL0     C99291   1.132   3.717   1.881  0.8134 -0.8373  0.5358
  736MOL0     C99292   1.221   3.739   2.004  0.1474  0.2861 -0.1289
  736MOL0     H99293   1.519   3.405   1.855 -0.8743  1.9111  1.3012
  736MOL0     H99294   1.719   3.294   1.740 -1.1656  0.0722  0.4691
  736MOL0     H99295   1.785   3.251   1.508 -1.9238  3.3418  1.8387
  736MOL0     H99296   1.812   3.369   1.378 -0.8676  1.6951  1.1041
  736MOL0     H99297   1.952   3.144   1.383  1.8521 -0.3823  0.0701
  736MOL0     H99298   2.019   3.205   1.535 -1.2603 -1.2985  0.3248
  736MOL0     H99299   2.131   3.391   1.430  1.4392  0.2367  0.2420
  736MOL0     H99300   2.024   3.381   1.289  1.2047  2.7945  0.7610
  736MOL0     H99301   2.228   3.164   1.369 -0.6594  0.4205  0.9854
  736MOL0     H99302   2.158   3.187   1.204 -1.2362 -0.1979  0.6151
  736MOL0     H99303   2.344   3.350   1.376 -2.1269 -0.7676  1.9468
  736MOL0     H99304   2.383   3.280   1.215 -0.0382  0.5970 -0.9043
  736MOL0     H99305   2.202   3.519   1.263 -0.2711 -0.8169  0.9062
  736MOL0     H99306   2.377   3.519   1.235  0.5026 -0.5810 -0.0172
  736MOL0     H99307   2.150   3.415   1.055  0.9503 -2.2567  4.4658
  736MOL0     H99308   2.321   3.419   1.005 -0.6689  1.4002 -3.0647
  736MOL0     H99309   2.264   3.586   0.895  4.3315  0.2426  0.1764
  736MOL0     H99310   2.141   3.656   1.004 -0.2066  1.0881 -4.0066
  736MOL0     H99311   2.538   3.635   1.016 -0.4224  1.9012 -3.8427
  736MOL0     H99312   2.712   3.816   1.103  2.7240  0.6512  1.3052
  736MOL0     H99313   2.635   3.905   1.238 -1.5643 -0.3103 -1.3337
  736MOL0     H99314   2.703   3.604   1.235  0.6063 -0.5117  1.2228
  736MOL0     H99315   2.805   3.728   1.305 -0.6537 -0.0998  2.2153
  736MOL0     H99316   2.527   3.695   1.413 -0.5581  3.5976  2.8254
  736MOL0     H99317   2.654   3.781   1.487 -0.4185  0.1397  0.2784
  736MOL0     H99318   2.773   3.599   1.544 -1.4438 -0.5796  1.5907
  736MOL0     H99319   2.695   3.482   1.427 -2.6021 -1.5911  1.6733
  736MOL0     H99320   2.799   3.398   1.643  1.4222  0.8501  3.4071
  736MOL0     H99321   2.788   3.174   1.740 -0.0254  1.0476 -1.1252
  736MOL0     H99322   2.360   2.937   2.110  0.0538  1.4877 -1.5860
  736MOL0     H99323   2.325   2.717   2.178  0.2806  0.5582 -0.0274
  736MOL0     H99324   2.490   2.382   2.273  1.1398 -0.4749 -1.2695
  736MOL0     H99325   2.384   2.527   2.286  1.1925  1.1588  0.0529
  736MOL0     H99326   2.254   2.306   2.286  1.7899  0.4119  0.7409
  736MOL0     H99327   2.219   2.433   2.164  1.3034  0.7192  0.5123
  736MOL0     H99328   2.211   2.223   2.069 -1.7286  2.4190 -0.3570
  736MOL0     H99329   2.350   2.321   1.997 -0.1689  3.1359  3.2291
  736MOL0     H99330   2.352   2.091   2.210  1.5289 -1.6793  0.9884
  736MOL0     H99331   2.493   2.173   2.177  0.4887 -0.9919  0.2076
  736MOL0     H99332   2.458   1.955   2.057 -2.2816  1.2939  3.2512
  736MOL0     H99333   2.512   2.082   1.951 -0.0679 -0.6620 -1.4091
  736MOL0     H99334   2.280   2.112   1.858  2.2488  0.9393  0.4472
  736MOL0     H99335   2.339   1.950   1.842 -4.3791  0.2252 -1.9401
  736MOL0     H99336   2.107   2.033   2.023  1.3900 -0.6661  2.2579
  736MOL0     H99337   2.197   1.891   2.062  0.5317  0.7803  0.9320
  736MOL0     H99338   2.082   1.957   1.782 -0.7869 -1.5904 -0.7478
  736MOL0     H99339   2.168   1.812   1.843  2.0631  2.3373 -1.3642
  736MOL0     H99340   2.580   2.559   1.869 -0.8591 -1.6903  1.1486
  736MOL0     H99341   2.577   2.795   1.767 -1.8637  1.4391 -1.0483
  736MOL0     H99342   2.369   3.213   1.837  0.1777 -0.6459  1.3968
  736MOL0     H99343   2.377   3.437   1.704  2.0011  3.4150 -1.6113
  736MOL0     H99344   1.805   3.644   1.538 -1.0816 -0.6972 -3.2371
  736MOL0     H99345   1.581   3.758   1.633 -3.2584 -1.0253  1.4119
  736MOL0     H99346   1.096   3.610   1.563 -2.4162 -1.7078  0.7326
  736MOL0     H99347   0.871   3.707   1.600  0.4630 -2.0067 -0.4731
  736MOL0     H99348   0.647   3.707   1.738  0.2254  0.8169  0.1281
  736MOL0     H99349   0.710   3.846   1.647  2.1568  0.9601 -0.2424
  736MOL0     H99350   0.475   3.869   1.713  0.7293  0.5208 -0.3522
  736MOL0     H99351   0.569   3.999   1.786  2.4186  0.1697  0.2194
  736MOL0     H99352   0.586   3.865   2.002 -0.3078 -0.6446  0.2283
  736MOL0     H99353   0.485   3.740   1.922 -1.2855  0.5268 -3.9005
  736MOL0     H99354   0.374   3.929   2.075 -0.2595  1.6116 -0.6877
  736MOL0     H99355   0.375   4.012   1.925  2.3958  0.4997  1.7585
  736MOL0     H99356   0.045   3.764   1.921 -0.7306  0.5668  2.7415
  736MOL0     H99357   0.962   3.817   1.987  0.3081  2.0967 -1.0492
  736MOL0     H99358   1.183   3.782   2.097  0.3007  1.0098 -0.3950
  736MOL0     H99359   1.267   3.642   2.024 -1.0887 -0.1411  0.7892
  736MOL0     H99360   1.291   3.811   1.962 -0.6051  1.8015  1.1185
  737MOL0     O99361   8.711   3.136  11.095 -0.2452 -0.4319  0.2292
  737MOL0     C99362   8.754   3.236  11.032  0.4966 -0.6712  0.6411
  737MOL0     O99363   8.859   3.228  10.939 -0.3769  0.6438  0.1028
  737MOL0     C99364   8.941   3.124  10.949 -0.4807  0.4324  0.6620
  737MOL0     C99365   9.051   3.118  11.031  0.0663 -0.3748 -0.2936
  737MOL0     C99366   9.146   3.018  11.024  0.1387 -0.1408  1.0106
  737MOL0     C99367   9.122   2.902  10.950  0.6402  0.2020 -0.4525
  737MOL0     O99368   9.221   2.804  10.956 -0.0182 -0.5976 -0.0296
  737MOL0     C99369   9.202   2.673  10.890 -0.5153 -0.4003  0.8031
  737MOL0     C99370   9.255   2.554  10.972 -0.1636  0.2134  0.6533
  737MOL0     C99371   9.241   2.424  10.886  1.0156  0.0198 -0.0174
  737MOL0     C99372   9.358   2.428  10.786 -0.2979  0.7199 -0.8658
  737MOL0     C99373   9.356   2.295  10.704 -0.2906  0.4997 -0.6168
  737MOL0     C99374   9.473   2.287  10.607 -0.3109  0.2846  0.3549
  737MOL0     C99375   9.450   2.197  10.480 -0.2285 -0.1371  0.2092
  737MOL0     C99376   9.438   2.050  10.513  0.1466  0.4718  0.6963
  737MOL0     N99377   9.566   1.991  10.570 -0.2824 -0.6711 -0.7892
  737MOL0     C99378   9.691   2.042  10.546 -0.4504 -0.4184  0.4525
  737MOL0     C99379   9.762   2.019  10.655 -0.8745  0.9734 -0.3522
  737MOL0     C99380   9.900   2.050  10.679  0.6682 -0.3709  0.4447
  737MOL0     C99381   9.988   1.945  10.607 -0.7896 -0.0536 -0.2302
  737MOL0     C99382  10.081   2.009  10.509  0.2744  0.3681 -1.2444
  737MOL0     C99383  10.192   1.919  10.456 -0.5801  0.3597  0.4657
  737MOL0     O99384  10.298   1.983  10.387 -0.3130  0.1543  0.2843
  737MOL0     C99385  10.405   1.913  10.341 -0.1249 -0.5420 -0.3243
  737MOL0     C99386  10.526   1.982  10.347  0.3520 -0.3621  0.1595
  737MOL0     C99387  10.642   1.919  10.309 -0.4932 -0.2460  0.4800
  737MOL0     C99388  10.643   1.786  10.257  0.7224  0.0332  0.2486
  737MOL0     C99389  10.758   1.724  10.200 -1.2165 -0.0798 -0.1229
  737MOL0     O99390  10.874   1.800  10.183 -0.3066  1.2295  0.6713
  737MOL0     C99391  10.960   1.774  10.078 -0.2507  0.3616  0.8784
  737MOL0     C99392  11.089   1.824  10.097  0.6764 -0.5928  0.9693
  737MOL0     C99393  11.187   1.810   9.996  0.2693  0.0469 -0.0328
  737MOL0     C99394  11.156   1.731   9.885 -0.3104  0.6851  0.1297
  737MOL0     O99395  11.243   1.707   9.778 -0.3141  0.5055  0.8556
  737MOL0     C99396  11.349   1.801   9.766  0.0894 -0.7063 -0.1905
  737MOL0     C99397  11.409   1.781   9.622  0.3964  0.8310  0.4382
  737MOL0     C99398  11.510   1.666   9.609 -0.1143 -1.1132  0.2403
  737MOL0     C99399  11.652   1.717   9.619 -0.4306 -0.3560  0.3735
  737MOL0     C99400  11.745   1.600   9.596  0.7857  0.2702  0.0827
  737MOL0     C99401  11.886   1.646   9.630 -0.7255  0.4782  0.2045
  737MOL0     C99402  11.992   1.531   9.615 -0.0364 -0.6224 -0.5302
  737MOL0     C99403  12.131   1.560   9.675  0.5616 -1.1909 -0.6919
  737MOL0    Cl99404  12.112   1.594   9.840  0.1971  0.2520  0.1129
  737MOL0     C99405  11.027   1.680   9.869  0.6173 -0.1643  0.2040
  737MOL0     C99406  10.926   1.712   9.958 -0.2566 -0.7273 -0.0359
  737MOL0     O99407  10.754   1.609  10.165 -0.4059 -0.5455  0.0890
  737MOL0     C99408  10.518   1.717  10.259 -1.6937  1.3166 -0.3848
  737MOL0     C99409  10.404   1.780  10.305  0.9400  0.5240  0.4063
  737MOL0     N99410   9.681   1.950  10.743  0.2580  0.5116  0.2326
  737MOL0     N99411   9.562   1.933  10.692 -0.8816 -0.0435  0.4074
  737MOL0     C99412   9.007   2.902  10.869  0.8097  0.4624  0.2069
  737MOL0     C99413   8.925   3.014  10.863 -0.4768  0.1795 -0.0098
  737MOL0     C99414   8.675   3.358  11.068 -0.9266 -0.1891  1.1467
  737MOL0     C99415   8.739   3.482  11.040  0.3327 -0.3003 -1.0782
  737MOL0     C99416   8.677   3.606  11.061  0.0791  0.4143  0.4966
  737MOL0     C99417   8.548   3.612  11.125 -0.2923 -0.2038 -0.2416
  737MOL0     O99418   8.504   3.739  11.142  0.0908 -0.3186 -0.1581
  737MOL0     C99419   8.367   3.757  11.192  0.2877  0.7277 -0.4144
  737MOL0     C99420   8.382   3.745  11.350  0.4587  0.4206  0.9188
  737MOL0     C99421   8.263   3.802  11.434  0.3447  0.0045 -0.9871
  737MOL0     C99422   8.139   3.732  11.406  1.5686  0.5425 -0.5802
  737MOL0     C99423   8.031   3.791  11.486  0.6494  0.8962 -0.4715
  737MOL0     C99424   7.931   3.852  11.532  0.5241  0.5582 -0.1650
  737MOL0     C99425   8.482   3.495  11.147 -0.1565  1.2666  0.0457
  737MOL0     C99426   8.539   3.369  11.106 -0.4460 -0.3410  0.3838
  737MOL0     C99427   8.447   3.251  11.123  0.4128  0.4555  0.1768
  737MOL0     H99428   9.059   3.205  11.096 -1.1535 -1.5796  1.5720
  737MOL0     H99429   9.242   3.032  11.072  1.5040  0.9829 -1.8501
  737MOL0     H99430   9.099   2.671  10.853  0.1960 -1.6062 -1.2755
  737MOL0     H99431   9.259   2.680  10.797 -1.8218  1.6851  0.0927
  737MOL0     H99432   9.196   2.545  11.064 -2.5919  1.9862 -0.6092
  737MOL0     H99433   9.358   2.579  10.998 -0.6099 -0.2891  3.1138
  737MOL0     H99434   9.147   2.418  10.831 -0.0424 -1.7045  1.8330
  737MOL0     H99435   9.242   2.335  10.950  0.3460  0.3090  0.4100
  737MOL0     H99436   9.352   2.511  10.714  0.0835  1.4447 -0.0787
  737MOL0     H99437   9.451   2.430  10.843 -1.9755  2.4641  2.0754
  737MOL0     H99438   9.372   2.219  10.781  1.6470  2.2285  0.7764
  737MOL0     H99439   9.259   2.280  10.656 -1.1237  2.7037  0.2832
  737MOL0     H99440   9.485   2.388  10.569 -0.0276  1.1064  2.4690
  737MOL0     H99441   9.564   2.277  10.667 -0.5484 -0.9434  0.5511
  737MOL0     H99442   9.525   2.217  10.404  0.6998  0.1912  1.1853
  737MOL0     H99443   9.353   2.225  10.437  1.2388 -0.4450 -3.6996
  737MOL0     H99444   9.363   2.037  10.592  0.6075 -1.2285  0.8878
  737MOL0     H99445   9.406   1.993  10.425  1.7954  2.5031 -1.3546
  737MOL0     H99446   9.733   2.102  10.465 -0.3462 -0.4898  0.4524
  737MOL0     H99447   9.914   2.155  10.651 -2.0159  0.3758  1.6573
  737MOL0     H99448   9.912   2.059  10.787  2.4943 -0.7396  0.3057
  737MOL0     H99449  10.045   1.877  10.671  0.3476 -0.3043 -1.4652
  737MOL0     H99450   9.935   1.864  10.556  0.5477 -1.0636 -0.0866
  737MOL0     H99451  10.125   2.092  10.565 -2.0861 -1.2750  3.6470
  737MOL0     H99452  10.030   2.048  10.420 -0.7184  0.8391 -0.4909
  737MOL0     H99453  10.147   1.848  10.386  1.2595 -0.9047  0.4970
  737MOL0     H99454  10.225   1.856  10.539  0.6501 -2.0848 -1.7119
  737MOL0     H99455  10.516   2.084  10.381  1.6739 -0.4397  0.8571
  737MOL0     H99456  10.731   1.980  10.309  0.3180 -1.3650 -0.9817
  737MOL0     H99457  11.114   1.885  10.184  0.1885 -0.8746  1.3136
  737MOL0     H99458  11.286   1.855  10.002  0.8624 -1.1421 -0.5264
  737MOL0     H99459  11.311   1.904   9.775  0.9519 -0.3386 -0.6448
  737MOL0     H99460  11.427   1.793   9.842 -1.3295  3.0974  1.9627
  737MOL0     H99461  11.327   1.774   9.550 -1.5364 -2.0382  2.6943
  737MOL0     H99462  11.467   1.870   9.595 -0.3808  0.4504 -2.9107
  737MOL0     H99463  11.491   1.579   9.673 -1.6514 -0.1076  1.2126
  737MOL0     H99464  11.488   1.627   9.509 -2.9395  3.3581 -1.1987
  737MOL0     H99465  11.676   1.743   9.722 -0.1431 -0.9596  0.4672
  737MOL0     H99466  11.674   1.809   9.565  2.7309 -0.6642  0.9479
  737MOL0     H99467  11.726   1.573   9.491  0.9270  0.8209 -0.0910
  737MOL0     H99468  11.713   1.507   9.643 -2.4000 -0.7194 -3.5140
  737MOL0     H99469  11.906   1.735   9.569  1.6643  2.7462  3.8276
  737MOL0     H99470  11.897   1.685   9.732 -1.0613  0.2779  0.3207
  737MOL0     H99471  12.008   1.501   9.512  1.7256 -0.6613 -0.2826
  737MOL0     H99472  11.950   1.446   9.669 -2.6525  0.7262 -0.2561
  737MOL0     H99473  12.192   1.472   9.651  1.3481 -0.3938 -1.6628
  737MOL0     H99474  12.162   1.656   9.635 -0.2653 -0.5740  0.0977
  737MOL0     H99475  10.996   1.631   9.777 -0.2900  0.3610  0.2135
  737MOL0     H99476  10.828   1.670   9.939  0.0867 -0.8145 -1.7765
  737MOL0     H99477  10.512   1.621  10.207 -1.0163  1.0334  0.0502
  737MOL0     H99478  10.312   1.722  10.304  1.4833 -0.3980  1.9573
  737MOL0     H99479   8.970   2.826  10.801 -2.2009  0.3461  1.8143
  737MOL0     H99480   8.840   3.007  10.796 -1.4027  1.3273  0.9798
  737MOL0     H99481   8.836   3.464  10.996  0.5677  0.0425 -0.7016
  737MOL0     H99482   8.735   3.697  11.059  1.4732 -0.4419 -0.0098
  737MOL0     H99483   8.290   3.687  11.156  0.6886 -0.7680  1.4793
  737MOL0     H99484   8.332   3.855  11.156 -0.4630  0.2026 -1.1672
  737MOL0     H99485   8.470   3.806  11.373  0.9186  1.4901 -2.8321
  737MOL0     H99486   8.389   3.640  11.378  0.6733  0.3366  0.5584
  737MOL0     H99487   8.257   3.907  11.403 -0.9276  0.4644  0.6446
  737MOL0     H99488   8.286   3.808  11.541  1.2855 -2.7107 -0.9724
  737MOL0     H99489   8.116   3.734  11.299 -1.2396 -2.6219 -0.1947
  737MOL0     H99490   8.137   3.623  11.414 -0.9802  0.6651  2.4948
  737MOL0     H99491   7.848   3.914  11.561  2.0061  2.8147 -0.4872
  737MOL0     H99492   8.384   3.499  11.194  0.3661  3.8560  1.1007
  737MOL0     H99493   8.475   3.169  11.055 -2.7087  0.0947 -0.8270
  737MOL0     H99494   8.454   3.217  11.227  2.3454 -1.2892 -0.4411
  737MOL0     H99495   8.345   3.286  11.108  0.1294  1.7302  3.9949
  738MOL0     O99496   3.535   4.727   9.261  0.4523  0.2339  0.1350
  738MOL0     C99497   3.571   4.625   9.200  0.8248  0.0387  0.1734
  738MOL0     O99498   3.502   4.503   9.195  0.5375 -0.3388 -0.7193
  738MOL0     C99499   3.393   4.485   9.277  0.4893 -0.5393  0.0884
  738MOL0     C99500   3.375   4.377   9.363  0.0710 -0.0084  0.0216
  738MOL0     C99501   3.251   4.361   9.426  0.5651 -0.3114 -0.0031
  738MOL0     C99502   3.152   4.463   9.415 -0.8126 -0.1260 -0.5384
  738MOL0     O99503   3.036   4.440   9.490  1.1687  0.5216  0.4142
  738MOL0     C99504   3.016   4.527   9.604  0.6233  0.5568  0.9623
  738MOL0     C99505   3.138   4.539   9.693 -0.5068  0.6624 -0.5680
  738MOL0     C99506   3.149   4.401   9.755 -0.5813  0.3428 -0.4978
  738MOL0     C99507   3.281   4.406   9.841  0.1956  0.6720  0.1931
  738MOL0     C99508   3.316   4.290   9.935  0.5575 -0.1827 -0.0132
  738MOL0     C99509   3.434   4.308  10.029  1.0726  0.4893  0.5321
  738MOL0     C99510   3.534   4.192  10.042 -0.6037 -0.3954 -0.3281
  738MOL0     C99511   3.471   4.079  10.129  0.1056  1.0418 -0.0869
  738MOL0     N99512   3.495   3.950  10.068 -0.7307  0.4201  0.0162
  738MOL0     C99513   3.413   3.879   9.989 -0.0816 -0.3802 -0.3352
  738MOL0     C99514   3.486   3.762   9.954  0.5249 -1.0659  1.0277
  738MOL0     C99515   3.435   3.651   9.869 -0.0908 -0.8696 -0.3487
  738MOL0     C99516   3.482   3.517   9.909  0.2741 -0.4607 -0.5227
  738MOL0     C99517   3.407   3.453  10.031 -0.4437 -0.8635  0.2142
  738MOL0     C99518   3.423   3.524  10.167  0.3799  0.0914  0.1378
  738MOL0     O99519   3.383   3.437  10.279  0.8525 -0.4010 -0.8401
  738MOL0     C99520   3.478   3.370  10.359 -0.3449 -1.1132  0.5796
  738MOL0     C99521   3.612   3.346  10.329 -0.0600  0.1473  0.0044
  738MOL0     C99522   3.698   3.270  10.417  0.3818  0.1321 -0.1554
  738MOL0     C99523   3.665   3.225  10.545 -0.5247  0.3236  0.2959
  738MOL0     C99524   3.745   3.139  10.633  0.3977  0.2043  0.2333
  738MOL0     O99525   3.692   3.070  10.746  0.3181 -0.2338  0.3495
  738MOL0     C99526   3.767   2.989  10.825  0.2213 -0.6441  1.1897
  738MOL0     C99527   3.896   3.015  10.859 -0.1886  0.6438  0.6129
  738MOL0     C99528   3.959   2.914  10.932  0.3668 -0.1330  0.6040
  738MOL0     C99529   3.891   2.802  10.981 -0.6701 -1.1130 -0.2060
  738MOL0     O99530   3.949   2.727  11.079 -1.2511 -0.2096  0.0064
  738MOL0     C99531   3.887   2.608  11.134  0.5043 -0.0714 -0.0451
  738MOL0     C99532   4.003   2.543  11.206  0.6796  0.0495  0.4262
  738MOL0     C99533   3.994   2.575  11.350  0.3327  0.3563 -0.0208
  738MOL0     C99534   4.101   2.505  11.440 -0.0321  0.8701  1.0796
  738MOL0     C99535   4.114   2.562  11.580 -0.4770  0.5560  0.5277
  738MOL0     C99536   3.976   2.583  11.652  0.1578  0.4578 -0.6881
  738MOL0     C99537   3.992   2.634  11.796 -0.2742  0.2451  0.8526
  738MOL0     C99538   3.894   2.566  11.886  0.3902 -0.0073 -0.2273
  738MOL0    Cl99539   3.874   2.652  12.044  0.4254  0.1698  0.0781
  738MOL0     C99540   3.758   2.784  10.941 -0.3812 -0.3494 -0.0416
  738MOL0     C99541   3.696   2.875  10.861 -0.3342 -0.3102  0.0277
  738MOL0     O99542   3.867   3.141  10.607  0.0765 -0.7610  1.1228
  738MOL0     C99543   3.527   3.249  10.570  0.0893  0.0065  0.2875
  738MOL0     C99544   3.442   3.328  10.482  0.0155 -0.3250 -0.4133
  738MOL0     N99545   3.607   3.771  10.028  0.1534  0.2336 -0.1561
  738MOL0     N99546   3.610   3.879  10.090  0.5313 -0.8923  0.4160
  738MOL0     C99547   3.175   4.568   9.343  0.6413 -0.5837  0.5132
  738MOL0     C99548   3.294   4.583   9.274  0.4341 -0.0127  0.2316
  738MOL0     C99549   3.700   4.632   9.124  0.7493 -0.2319 -0.3713
  738MOL0     C99550   3.745   4.517   9.062 -0.2022 -0.2176 -0.2944
  738MOL0     C99551   3.876   4.509   9.010  0.6149  0.0144 -1.1498
  738MOL0     C99552   3.962   4.611   9.015 -0.0458 -0.2397 -0.8363
  738MOL0     O99553   4.089   4.606   8.978  0.5391  0.8814  0.5001
  738MOL0     C99554   4.140   4.472   8.949  0.1407 -0.5085 -1.3014
  738MOL0     C99555   4.124   4.433   8.803  0.8159  0.0081  0.0350
  738MOL0     C99556   4.204   4.312   8.774  0.0320 -0.9862  0.1884
  738MOL0     C99557   4.175   4.179   8.851 -0.5247 -0.8820  1.5206
  738MOL0     C99558   4.237   4.066   8.786  0.2100 -0.1609 -0.1097
  738MOL0     C99559   4.287   3.968   8.738  0.2276  0.0749  0.1930
  738MOL0     C99560   3.912   4.733   9.064  0.1770  0.0933  0.1701
  738MOL0     C99561   3.788   4.745   9.127  0.3588 -1.2298 -0.5988
  738MOL0     C99562   3.758   4.879   9.177  0.5634  0.5866 -0.5633
  738MOL0     H99563   3.460   4.310   9.369  3.3042  3.4515 -2.4804
  738MOL0     H99564   3.234   4.269   9.481 -0.1763  0.4564  1.0939
  738MOL0     H99565   2.991   4.628   9.568  1.7465  1.1358  1.7564
  738MOL0     H99566   2.929   4.491   9.659  1.1995 -2.8056 -0.0883
  738MOL0     H99567   3.116   4.621   9.762  0.9778  1.3104 -0.8313
  738MOL0     H99568   3.229   4.570   9.641  0.6456 -0.5605  0.6436
  738MOL0     H99569   3.154   4.320   9.680 -1.4739 -0.7206  0.5548
  738MOL0     H99570   3.068   4.389   9.827  1.2025 -1.8363  1.2959
  738MOL0     H99571   3.358   4.428   9.766  0.1372  1.7152  0.4163
  738MOL0     H99572   3.285   4.493   9.908 -0.1559  2.4248 -1.9193
  738MOL0     H99573   3.228   4.254   9.989 -0.2315  1.7489  0.0902
  738MOL0     H99574   3.343   4.204   9.873  0.3650  1.3094 -2.3112
  738MOL0     H99575   3.490   4.394   9.993 -0.3663  0.6058 -1.6145
  738MOL0     H99576   3.397   4.345  10.125  2.2363 -0.5072  1.4018
  738MOL0     H99577   3.626   4.229  10.088 -1.3735  0.1117  0.8608
  738MOL0     H99578   3.561   4.160   9.941  0.7543  2.1896 -0.8547
  738MOL0     H99579   3.520   4.077  10.227  1.3521  1.7453 -0.6676
  738MOL0     H99580   3.364   4.097  10.137  0.5984  4.6459  0.2737
  738MOL0     H99581   3.316   3.917   9.958  0.5979  2.7807  1.0555
  738MOL0     H99582   3.325   3.648   9.871 -0.2284  1.2675  3.6109
  738MOL0     H99583   3.473   3.681   9.771  0.2010 -1.0292 -0.2859
  738MOL0     H99584   3.467   3.455   9.820 -1.6961  0.5433 -0.9652
  738MOL0     H99585   3.588   3.521   9.935  0.2988  2.6325 -0.7339
  738MOL0     H99586   3.460   3.358  10.046 -4.5420 -3.4107  0.1831
  738MOL0     H99587   3.310   3.425   9.988  0.3823 -1.9804 -0.9988
  738MOL0     H99588   3.364   3.616  10.158  0.5257 -0.0459 -3.4690
  738MOL0     H99589   3.529   3.546  10.181  0.7413 -0.5246 -1.4564
  738MOL0     H99590   3.641   3.363  10.226 -0.0840  0.1330 -0.0049
  738MOL0     H99591   3.803   3.260  10.392  0.0969 -1.6133 -0.7732
  738MOL0     H99592   3.939   3.110  10.830 -1.7997  0.9755 -0.8031
  738MOL0     H99593   4.064   2.926  10.958  0.5426  0.4506 -0.3411
  738MOL0     H99594   3.817   2.648  11.207  2.3101  0.7132  1.3338
  738MOL0     H99595   3.848   2.537  11.061 -0.8161  0.8507 -0.2594
  738MOL0     H99596   3.994   2.436  11.187  1.3438  0.5365 -3.6407
  738MOL0     H99597   4.094   2.582  11.160  0.2899 -0.0260 -0.4215
  738MOL0     H99598   3.982   2.682  11.370 -1.1017  0.4428 -1.1428
  738MOL0     H99599   3.900   2.540  11.394  0.3315  0.6504  0.2206
  738MOL0     H99600   4.203   2.505  11.399  1.1543  0.4044  3.7888
  738MOL0     H99601   4.068   2.401  11.450  0.0508  0.4977 -1.8240
  738MOL0     H99602   4.161   2.660  11.568  1.3329 -0.4546 -1.4934
  738MOL0     H99603   4.182   2.500  11.640  1.5085  2.7092  0.6454
  738MOL0     H99604   3.919   2.658  11.597 -0.6568  0.7781  0.5681
  738MOL0     H99605   3.930   2.484  11.644  3.0303 -0.9339 -1.7244
  738MOL0     H99606   3.977   2.742  11.793 -0.0748  0.2502 -0.3628
  738MOL0     H99607   4.090   2.611  11.838 -0.5572 -1.3715  0.7039
  738MOL0     H99608   3.796   2.582  11.840 -1.2752  1.7253  3.4633
  738MOL0     H99609   3.911   2.460  11.902 -5.3194 -2.2975 -5.3059
  738MOL0     H99610   3.691   2.707  10.979 -1.8649  1.0998  0.4191
  738MOL0     H99611   3.594   2.859  10.824  0.7971 -0.1661 -3.5832
  738MOL0     H99612   3.493   3.206  10.663  3.0110  1.0892  1.9857
  738MOL0     H99613   3.335   3.348  10.488 -0.2476 -1.1243 -1.8933
  738MOL0     H99614   3.098   4.644   9.334  0.0240 -1.4683 -3.7144
  738MOL0     H99615   3.313   4.667   9.209  1.9562 -1.3600 -1.1492
  738MOL0     H99616   3.678   4.434   9.042  1.3083 -1.2757 -1.1811
  738MOL0     H99617   3.890   4.416   8.956  0.8255  1.5511 -3.9134
  738MOL0     H99618   4.099   4.398   9.019  0.9459  0.1426 -0.1132
  738MOL0     H99619   4.247   4.485   8.965 -0.2894  1.1019  0.7537
  738MOL0     H99620   4.154   4.517   8.740 -2.3215  0.7123 -0.7166
  738MOL0     H99621   4.018   4.421   8.778  0.3184  0.5600  1.7653
  738MOL0     H99622   4.310   4.332   8.795 -0.1808  0.5582 -0.0926
  738MOL0     H99623   4.205   4.288   8.667 -0.8411  0.6217 -0.2003
  738MOL0     H99624   4.197   4.185   8.958  0.6077 -1.4608  1.3340
  738MOL0     H99625   4.069   4.153   8.859 -0.2691 -2.0858  1.2279
  738MOL0     H99626   4.338   3.888   8.688  1.1274  1.6757 -1.6110
  738MOL0     H99627   3.976   4.821   9.062  1.1341 -0.5920 -1.4100
  738MOL0     H99628   3.838   4.951   9.161  0.1705  2.2843  3.8585
  738MOL0     H99629   3.674   4.907   9.113  0.5648 -1.2668 -1.4526
  738MOL0     H99630   3.736   4.871   9.284  2.7755  0.5054 -0.0724
  739MOL0     O99631  10.874   5.557   3.321 -0.2710 -0.9947 -1.1088
  739MOL0     C99632  10.768   5.503   3.284  0.6128 -0.7792 -0.2229
  739MOL0     O99633  10.754   5.408   3.185  0.3215 -0.1562  0.6715
  739MOL0     C99634  10.846   5.393   3.081  0.0904 -0.2843  0.2636
  739MOL0     C99635  10.814   5.298   2.988 -0.2435  0.1258 -0.9189
  739MOL0     C99636  10.895   5.264   2.878  1.3036  0.8907 -0.6684
  739MOL0     C99637  11.010   5.331   2.857 -0.0354  0.4815  0.5318
  739MOL0     O99638  11.090   5.290   2.753 -0.8246 -0.5304 -0.2148
  739MOL0     C99639  11.228   5.302   2.753 -0.1374  0.2883  0.3140
  739MOL0     C99640  11.280   5.241   2.624  0.7364  0.5563 -0.6426
  739MOL0     C99641  11.275   5.081   2.625  0.3696  1.1615 -0.3094
  739MOL0     C99642  11.390   5.011   2.542  0.1279  0.6247  0.8379
  739MOL0     C99643  11.374   5.024   2.390  0.1575  0.2850  1.2869
  739MOL0     C99644  11.260   4.929   2.340 -0.0169  0.0718 -0.0661
  739MOL0     C99645  11.293   4.878   2.200  0.4306 -0.5082 -0.3728
  739MOL0     C99646  11.151   4.840   2.141 -0.6371 -0.5654 -0.6341
  739MOL0     N99647  11.172   4.764   2.024 -0.2568 -0.0018 -0.1357
  739MOL0     C99648  11.252   4.654   1.997  0.0143 -0.2120  0.5598
  739MOL0     C99649  11.227   4.620   1.872  0.7554 -1.1055 -0.0198
  739MOL0     C99650  11.286   4.501   1.795  0.2458 -0.8141  0.1532
  739MOL0     C99651  11.274   4.372   1.875 -0.6936  0.2012 -0.1856
  739MOL0     C99652  11.290   4.252   1.777  0.1898  0.1831 -0.3407
  739MOL0     C99653  11.434   4.243   1.738  0.1087  1.0166  0.0439
  739MOL0     O99654  11.451   4.134   1.647 -0.6610 -0.2786  0.3047
  739MOL0     C99655  11.578   4.089   1.606 -0.4695  0.1817 -0.5115
  739MOL0     C99656  11.696   4.167   1.622  1.4729  1.0445 -0.2681
  739MOL0     C99657  11.812   4.117   1.565 -0.1153  0.1041 -0.0123
  739MOL0     C99658  11.815   3.994   1.487  0.1050 -0.9219 -0.3782
  739MOL0     C99659  11.939   3.948   1.425 -0.2646  0.9076  0.4199
  739MOL0     O99660  11.923   3.837   1.351 -0.1178 -0.2669 -0.1815
  739MOL0     C99661  12.035   3.758   1.326 -0.1755  0.3586 -0.0760
  739MOL0     C99662  12.070   3.644   1.400 -0.3131  0.2343  0.9211
  739MOL0     C99663  12.188   3.559   1.383 -0.1019 -0.2773 -0.3632
  739MOL0     C99664  12.279   3.596   1.284  0.4119 -0.0331  0.6293
  739MOL0     O99665  12.399   3.531   1.252 -0.1950 -0.0551  0.2464
  739MOL0     C99666  12.403   3.388   1.261 -0.5451 -0.3200 -0.3505
  739MOL0     C99667  12.520   3.360   1.359 -0.1501 -0.0338  0.8896
  739MOL0     C99668  12.567   3.210   1.385  0.2844 -0.3392  0.1735
  739MOL0     C99669  12.564   3.129   1.260 -0.1980 -0.4575  0.1415
  739MOL0     C99670  12.639   3.000   1.281  0.4123  0.4579 -0.4566
  739MOL0     C99671  12.570   2.899   1.369  0.1555 -0.0420 -0.1984
  739MOL0     C99672  12.617   2.763   1.333 -0.2489 -1.0545  0.8395
  739MOL0     C99673  12.549   2.652   1.401  0.2930 -0.2372  0.0787
  739MOL0    Cl99674  12.375   2.662   1.386  0.2307  0.4926  0.3297
  739MOL0     C99675  12.257   3.717   1.212  0.9581 -0.2329 -0.2303
  739MOL0     C99676  12.139   3.796   1.240  0.1266  0.3251  0.3608
  739MOL0     O99677  12.048   4.005   1.428  0.2866  0.1140  0.0824
  739MOL0     C99678  11.698   3.918   1.494 -1.1224  0.4351  0.4134
  739MOL0     C99679  11.581   3.965   1.549 -0.8228  0.5127  0.8399
  739MOL0     N99680  11.152   4.716   1.812  0.2869  0.5594 -0.3549
  739MOL0     N99681  11.122   4.799   1.904  0.1199  0.0668  0.2469
  739MOL0     C99682  11.046   5.422   2.951 -1.0532  0.0528  0.1099
  739MOL0     C99683  10.960   5.457   3.057  0.1309  0.2127  0.1430
  739MOL0     C99684  10.634   5.541   3.347 -0.4012 -0.2156  0.4762
  739MOL0     C99685  10.520   5.541   3.264 -0.6440  0.4442  0.5302
  739MOL0     C99686  10.396   5.559   3.314  0.9839 -0.5171 -0.3582
  739MOL0     C99687  10.380   5.599   3.450 -0.2168  0.8938 -0.9010
  739MOL0     O99688  10.249   5.626   3.484 -0.0769 -0.0879  0.3234
  739MOL0     C99689  10.214   5.613   3.618  0.0090  1.2120  0.0721
  739MOL0     C99690  10.075   5.651   3.646  0.3481  0.2760 -0.3761
  739MOL0     C99691  10.057   5.700   3.795  0.1397  0.9240  0.1188
  739MOL0     C99692  10.044   5.580   3.881 -0.0738  0.8231 -0.5577
  739MOL0     C99693   9.912   5.526   3.872 -0.3291 -0.3096 -0.5904
  739MOL0     C99694   9.801   5.475   3.869 -0.2178  0.1105 -0.7705
  739MOL0     C99695  10.492   5.604   3.535 -0.8196  1.1298 -0.1235
  739MOL0     C99696  10.622   5.579   3.484 -0.7753  0.3694 -0.0296
  739MOL0     C99697  10.736   5.603   3.586 -0.1632 -0.6907 -0.8978
  739MOL0     H99698  10.726   5.238   3.008  0.0276 -0.2137 -0.7266
  739MOL0     H99699  10.863   5.184   2.812 -1.1032 -1.1883  2.6672
  739MOL0     H99700  11.260   5.406   2.751  3.8042 -0.7037  2.0269
  739MOL0     H99701  11.274   5.255   2.841  2.1032  0.2815 -0.7976
  739MOL0     H99702  11.387   5.264   2.618  0.7890  0.7090  0.5926
  739MOL0     H99703  11.215   5.278   2.545 -0.5306  1.0770  0.6039
  739MOL0     H99704  11.178   5.045   2.589  0.8063 -1.3366  0.8099
  739MOL0     H99705  11.286   5.053   2.730 -3.2265  0.8875  0.1232
  739MOL0     H99706  11.488   5.051   2.567  3.2473 -1.9800 -5.2171
  739MOL0     H99707  11.392   4.904   2.563  3.6941 -0.7055 -4.3241
  739MOL0     H99708  11.344   5.127   2.369 -0.7677 -0.3879 -0.8957
  739MOL0     H99709  11.469   4.998   2.341  0.5271  0.6371  1.8012
  739MOL0     H99710  11.257   4.843   2.408  1.8460  0.7800  0.9826
  739MOL0     H99711  11.165   4.983   2.346 -0.6076 -0.9663  0.3070
  739MOL0     H99712  11.368   4.799   2.213  2.8346  1.6205 -0.4593
  739MOL0     H99713  11.339   4.947   2.129  3.8367 -1.2816  0.8847
  739MOL0     H99714  11.088   4.794   2.217  0.2775 -0.8633 -0.0319
  739MOL0     H99715  11.104   4.935   2.111 -1.3216 -1.1950 -1.5991
  739MOL0     H99716  11.313   4.598   2.067 -0.7304 -0.1214  1.2919
  739MOL0     H99717  11.239   4.487   1.697  2.4789 -0.7299 -0.9923
  739MOL0     H99718  11.386   4.536   1.768 -1.0523  3.5365  0.2054
  739MOL0     H99719  11.349   4.368   1.955 -1.6750  2.7841  0.9788
  739MOL0     H99720  11.173   4.377   1.915 -1.8324  2.8271 -2.9567
  739MOL0     H99721  11.237   4.257   1.681 -1.2624 -0.3031  0.4059
  739MOL0     H99722  11.255   4.160   1.824  1.9213 -1.2382 -1.6843
  739MOL0     H99723  11.498   4.211   1.821 -0.2021 -0.5196 -0.2737
  739MOL0     H99724  11.474   4.334   1.692  1.6826 -1.2533 -3.4149
  739MOL0     H99725  11.679   4.254   1.685  3.7012  1.0775  0.3789
  739MOL0     H99726  11.905   4.169   1.584  0.7085 -1.4028  0.2776
  739MOL0     H99727  12.008   3.605   1.480 -0.7680 -3.0983 -0.8843
  739MOL0     H99728  12.193   3.464   1.433  0.8529 -0.8558 -1.4981
  739MOL0     H99729  12.311   3.343   1.300 -0.5997  0.7593  0.8238
  739MOL0     H99730  12.426   3.341   1.165 -0.3330  1.9921 -1.4989
  739MOL0     H99731  12.608   3.415   1.327 -0.4768  0.9507  1.6507
  739MOL0     H99732  12.496   3.400   1.458  0.4873  0.6972  0.7496
  739MOL0     H99733  12.670   3.208   1.419 -0.4057 -1.3967  2.3522
  739MOL0     H99734  12.505   3.176   1.469 -4.4074  0.1841 -2.6648
  739MOL0     H99735  12.609   3.185   1.178  0.0992 -1.7803 -0.6347
  739MOL0     H99736  12.463   3.102   1.229 -0.5949 -0.7922  1.6413
  739MOL0     H99737  12.745   3.010   1.307  0.1676 -0.6811  1.1573
  739MOL0     H99738  12.653   2.963   1.179  2.5992  1.5460 -0.6093
  739MOL0     H99739  12.605   2.921   1.470 -2.1314  2.8097  0.1366
  739MOL0     H99740  12.462   2.908   1.355  0.1353 -0.4350 -0.2889
  739MOL0     H99741  12.721   2.758   1.367  0.7778 -1.0319 -2.0158
  739MOL0     H99742  12.614   2.739   1.226 -2.0142  0.5596  0.4865
  739MOL0     H99743  12.576   2.559   1.349  0.4409  0.2646 -0.7781
  739MOL0     H99744  12.585   2.643   1.504  2.6231  1.2688 -0.5044
  739MOL0     H99745  12.336   3.753   1.146  3.3898  0.2805  2.7235
  739MOL0     H99746  12.127   3.891   1.188  0.6746  0.3660  0.3061
  739MOL0     H99747  11.694   3.821   1.446  1.0993 -0.3030  1.6015
  739MOL0     H99748  11.494   3.907   1.522  0.2180 -0.1619 -1.2954
  739MOL0     H99749  11.142   5.473   2.945 -2.0772  1.9949 -0.7527
  739MOL0     H99750  10.998   5.534   3.124  0.4912 -0.5212  0.8059
  739MOL0     H99751  10.527   5.522   3.157 -0.2260 -0.6545  0.7408
  739MOL0     H99752  10.308   5.571   3.252 -1.1670  3.1515  2.9387
  739MOL0     H99753  10.285   5.672   3.677  2.5387 -2.2665  0.8012
  739MOL0     H99754  10.229   5.505   3.632  0.9441  1.2280 -0.7565
  739MOL0     H99755  10.008   5.567   3.625  2.9733 -1.1355 -4.3280
  739MOL0     H99756  10.037   5.733   3.584  0.0633 -0.7211 -1.5702
  739MOL0     H99757   9.963   5.754   3.813 -1.3543 -1.2777 -0.5199
  739MOL0     H99758  10.144   5.755   3.830 -0.2606  0.4045  2.0042
  739MOL0     H99759  10.121   5.504   3.865  0.7213  1.3889  0.4367
  739MOL0     H99760  10.063   5.615   3.983  0.5061  1.4929 -0.8795
  739MOL0     H99761   9.712   5.417   3.872  1.5073 -2.6985  1.7638
  739MOL0     H99762  10.476   5.626   3.640  0.9430 -0.8097  0.6191
  739MOL0     H99763  10.802   5.516   3.574 -1.3634 -1.9232  0.9274
  739MOL0     H99764  10.788   5.699   3.582 -0.9524 -0.2991 -2.1543
  739MOL0     H99765  10.696   5.597   3.688 -2.1554 -0.5187 -1.6360
  740MOL0     O99766   6.377   2.637   0.054 -0.1197  0.0067 -0.6156
  740MOL0     C99767   6.351   2.719  -0.033 -0.0212 -0.2911 -0.3045
  740MOL0     O99768   6.437   2.774  -0.123  0.1907  0.8100  0.0533
  740MOL0     C99769   6.544   2.705  -0.175  0.5742 -0.8863 -0.7797
  740MOL0     C99770   6.618   2.798  -0.239 -0.3502 -0.4666  0.3140
  740MOL0     C99771   6.716   2.751  -0.331  0.3251  0.6457 -0.0416
  740MOL0     C99772   6.724   2.610  -0.368 -0.3475 -0.4463  0.7731
  740MOL0     O99773   6.814   2.578  -0.461  0.3887 -0.2653 -0.1937
  740MOL0     C99774   6.883   2.450  -0.460  0.0915  0.2595 -0.5828
  740MOL0     C99775   7.007   2.453  -0.545 -0.2862  0.4585 -0.0439
  740MOL0     C99776   7.000   2.524  -0.676  0.6566  0.2222  0.0442
  740MOL0     C99777   7.137   2.551  -0.732  0.4934  0.5131 -0.3172
  740MOL0     C99778   7.140   2.668  -0.827  0.6306 -0.7642 -0.0230
  740MOL0     C99779   7.086   2.626  -0.971  0.4500 -0.4410 -0.0843
  740MOL0     C99780   7.048   2.753  -1.053 -0.2380 -1.6029 -0.2878
  740MOL0     C99781   6.927   2.833  -1.004  0.1606 -0.1728 -0.1788
  740MOL0     N99782   6.794   2.770  -1.013  0.2956  0.7682 -0.1870
  740MOL0     C99783   6.727   2.723  -0.905 -0.2203  0.0607  0.4331
  740MOL0     C99784   6.609   2.677  -0.951  0.5867  0.9775  0.0278
  740MOL0     C99785   6.499   2.635  -0.866  1.0574  0.2155  0.0080
  740MOL0     C99786   6.437   2.499  -0.898 -0.4007 -0.7511 -0.0606
  740MOL0     C99787   6.364   2.445  -0.770  0.4817 -0.2910  0.9128
  740MOL0     C99788   6.233   2.522  -0.749  0.3410 -0.1615  0.2871
  740MOL0     O99789   6.137   2.437  -0.697  0.6527  0.2504 -0.0302
  740MOL0     C99790   6.033   2.484  -0.624  0.7934 -0.0137  0.4969
  740MOL0     C99791   5.966   2.598  -0.654 -0.1544 -0.2933  0.1382
  740MOL0     C99792   5.862   2.639  -0.571 -0.2050 -0.2575 -0.7406
  740MOL0     C99793   5.812   2.551  -0.470 -0.0718  0.2101  0.5597
  740MOL0     C99794   5.687   2.587  -0.405 -0.2574  0.8267 -0.3666
  740MOL0     O99795   5.649   2.720  -0.415 -0.1616  0.7253 -0.0409
  740MOL0     C99796   5.521   2.744  -0.378  0.6020  0.2868  0.9534
  740MOL0     C99797   5.430   2.751  -0.481 -0.4811 -0.0211 -0.0574
  740MOL0     C99798   5.293   2.789  -0.452  0.5236  0.1881  0.5650
  740MOL0     C99799   5.260   2.811  -0.317  0.0040 -0.4822  0.4185
  740MOL0     O99800   5.128   2.843  -0.279 -1.2161 -0.0320 -0.0539
  740MOL0     C99801   5.014   2.850  -0.367  0.0840  0.8623 -0.4188
  740MOL0     C99802   4.881   2.891  -0.292 -0.4858 -0.3545  0.5571
  740MOL0     C99803   4.775   2.934  -0.404  0.3820  0.0784 -0.2471
  740MOL0     C99804   4.629   2.948  -0.348 -0.7937  0.3643  0.5388
  740MOL0     C99805   4.517   2.953  -0.457  0.4479  0.2263  0.2803
  740MOL0     C99806   4.371   2.966  -0.414 -0.4671 -0.9966  0.7112
  740MOL0     C99807   4.349   3.111  -0.364  0.2559 -0.1966 -0.7695
  740MOL0     C99808   4.193   3.127  -0.346 -0.2665 -0.7118 -0.8605
  740MOL0    Cl99809   4.168   3.255  -0.224  0.3063  0.2556 -0.1468
  740MOL0     C99810   5.359   2.788  -0.217 -0.2387 -0.1118 -0.0303
  740MOL0     C99811   5.492   2.760  -0.247  0.2536 -0.4069 -0.1264
  740MOL0     O99812   5.629   2.502  -0.345  0.6395  0.0830  0.3492
  740MOL0     C99813   5.879   2.427  -0.442 -0.8823  1.0032  0.6460
  740MOL0     C99814   5.989   2.394  -0.527  0.0027 -0.7303 -0.7101
  740MOL0     N99815   6.603   2.696  -1.096  0.4327  1.0007 -1.0293
  740MOL0     N99816   6.711   2.756  -1.118  0.0010 -0.7837 -0.4587
  740MOL0     C99817   6.644   2.525  -0.300  0.1168  0.1677  0.2287
  740MOL0     C99818   6.553   2.572  -0.208 -0.2469 -0.2305  0.6884
  740MOL0     C99819   6.226   2.772  -0.051  0.0451  0.3616 -0.4132
  740MOL0     C99820   6.196   2.881   0.036 -0.1308  0.0909 -0.2917
  740MOL0     C99821   6.083   2.961   0.015 -0.0631  0.6467 -0.0087
  740MOL0     C99822   5.985   2.928  -0.082 -0.2515  0.0585  0.1878
  740MOL0     O99823   5.866   2.984  -0.107 -0.5245  0.4437  0.0768
  740MOL0     C99824   5.810   3.077  -0.010  0.5273 -0.4478  0.3177
  740MOL0     C99825   5.700   3.023   0.071 -0.3738 -0.5545 -0.9198
  740MOL0     C99826   5.571   2.986  -0.000 -0.0121 -0.0459  0.8353
  740MOL0     C99827   5.478   3.107  -0.021 -0.2083 -0.1918 -0.9186
  740MOL0     C99828   5.432   3.153   0.105 -0.0042 -0.8691  0.4939
  740MOL0     C99829   5.394   3.190   0.212 -0.3880  0.8789 -0.4461
  740MOL0     C99830   6.017   2.817  -0.160 -0.2514  0.4558  0.5817
  740MOL0     C99831   6.137   2.746  -0.158  0.1512 -0.2041 -0.1149
  740MOL0     C99832   6.176   2.653  -0.279  0.6806 -0.7517  0.2830
  740MOL0     H99833   6.615   2.899  -0.199  1.5966 -0.2492  0.0181
  740MOL0     H99834   6.788   2.820  -0.375 -0.1985  0.0099 -1.9887
  740MOL0     H99835   6.911   2.416  -0.360  1.0961  0.7335 -0.6877
  740MOL0     H99836   6.807   2.384  -0.503  0.4807 -0.9794  0.5917
  740MOL0     H99837   7.037   2.348  -0.557 -0.9805  0.3349 -0.7898
  740MOL0     H99838   7.094   2.496  -0.494  2.1548 -1.9416 -1.8677
  740MOL0     H99839   6.951   2.619  -0.651  1.3204  0.3783  0.8083
  740MOL0     H99840   6.929   2.478  -0.745 -0.4524 -0.1912  1.4129
  740MOL0     H99841   7.204   2.570  -0.647 -0.2661 -1.7191  0.8433
  740MOL0     H99842   7.180   2.473  -0.795 -3.0849 -2.3738  0.5188
  740MOL0     H99843   7.073   2.734  -0.772 -0.8373 -3.5266  1.7758
  740MOL0     H99844   7.236   2.716  -0.850  0.6455 -1.3708 -1.3089
  740MOL0     H99845   7.169   2.576  -1.022 -0.1137  0.0242 -1.5056
  740MOL0     H99846   7.012   2.546  -0.969 -0.0551  0.0333  0.2969
  740MOL0     H99847   7.040   2.739  -1.162  0.0849  0.2782 -0.5829
  740MOL0     H99848   7.138   2.815  -1.053 -0.4556 -1.2672  1.2595
  740MOL0     H99849   6.943   2.848  -0.897 -0.0099  1.9249 -0.4047
  740MOL0     H99850   6.927   2.932  -1.051  0.0317 -0.6684 -1.2318
  740MOL0     H99851   6.767   2.741  -0.806 -0.0757  1.2585  0.1836
  740MOL0     H99852   6.546   2.621  -0.768 -0.2573 -2.6528  0.3424
  740MOL0     H99853   6.422   2.711  -0.858  1.3877  0.4907  0.5921
  740MOL0     H99854   6.377   2.499  -0.990 -0.2621  0.2845 -0.1612
  740MOL0     H99855   6.512   2.422  -0.915 -0.7767 -1.1903  0.2476
  740MOL0     H99856   6.431   2.443  -0.684 -1.2114  0.2271  2.3076
  740MOL0     H99857   6.345   2.339  -0.789  1.6089 -0.4081  0.3315
  740MOL0     H99858   6.216   2.582  -0.838  4.2803 -2.5720 -2.4355
  740MOL0     H99859   6.253   2.597  -0.671  0.4642  3.0086 -2.5626
  740MOL0     H99860   5.990   2.653  -0.745 -2.3841 -0.3433 -0.5299
  740MOL0     H99861   5.793   2.712  -0.612 -0.0864 -0.4622 -1.3088
  740MOL0     H99862   5.449   2.727  -0.585 -0.1289  0.0354 -0.0092
  740MOL0     H99863   5.229   2.804  -0.538  0.3351  1.3279  0.8885
  740MOL0     H99864   5.046   2.918  -0.447 -0.0692 -0.1360 -1.3544
  740MOL0     H99865   4.992   2.751  -0.407 -2.2783  0.3217  1.9410
  740MOL0     H99866   4.841   2.807  -0.235  4.7254 -1.1551  3.7477
  740MOL0     H99867   4.902   2.976  -0.226  3.0950  0.1234 -0.9509
  740MOL0     H99868   4.806   3.032  -0.439 -0.9150  1.3531  1.9746
  740MOL0     H99869   4.773   2.865  -0.490 -1.5911  0.5990 -0.6633
  740MOL0     H99870   4.625   3.047  -0.301 -1.5331  1.9082 -2.4865
  740MOL0     H99871   4.606   2.880  -0.265  1.0488  3.3383  3.7327
  740MOL0     H99872   4.517   2.861  -0.516  0.0491  0.8228 -0.6756
  740MOL0     H99873   4.538   3.023  -0.538 -2.3212  0.0004 -0.7450
  740MOL0     H99874   4.316   2.955  -0.508  0.2874  0.4660  0.0716
  740MOL0     H99875   4.341   2.883  -0.349  2.2592 -1.3609  1.6401
  740MOL0     H99876   4.396   3.194  -0.418 -0.1526  0.6457  0.1364
  740MOL0     H99877   4.386   3.116  -0.262 -2.0221  1.3440  0.0565
  740MOL0     H99878   4.152   3.160  -0.442  1.5456 -0.0959 -1.4605
  740MOL0     H99879   4.150   3.034  -0.307 -0.9069  0.4478  1.3486
  740MOL0     H99880   5.324   2.796  -0.115  2.1827 -0.7905  0.9321
  740MOL0     H99881   5.579   2.742  -0.183  1.2739  0.9224 -1.0825
  740MOL0     H99882   5.846   2.353  -0.370 -1.8052 -0.3597 -1.1260
  740MOL0     H99883   6.047   2.302  -0.523  0.5065 -0.4021 -0.3367
  740MOL0     H99884   6.635   2.417  -0.305  0.4094 -0.0135  2.5677
  740MOL0     H99885   6.473   2.511  -0.167 -2.3961  1.7486 -0.2821
  740MOL0     H99886   6.267   2.916   0.110 -2.3371  1.7071  1.1815
  740MOL0     H99887   6.070   3.047   0.080  0.5867  1.7579 -1.3012
  740MOL0     H99888   5.786   3.173  -0.056  1.0320  1.1186  3.0988
  740MOL0     H99889   5.880   3.121   0.061 -2.7165  1.2742  2.7214
  740MOL0     H99890   5.685   3.097   0.151  2.8083 -1.2990  0.5428
  740MOL0     H99891   5.750   2.939   0.120  1.5632  0.0683 -1.7115
  740MOL0     H99892   5.532   2.905   0.062 -2.2618 -0.4880 -1.0092
  740MOL0     H99893   5.596   2.929  -0.090 -3.9608 -4.6423  2.2731
  740MOL0     H99894   5.529   3.194  -0.061  2.3657 -1.0294  0.2940
  740MOL0     H99895   5.386   3.075  -0.071  0.1818  0.5532 -2.1462
  740MOL0     H99896   5.353   3.210   0.309  1.1093  0.5810  0.2775
  740MOL0     H99897   5.949   2.802  -0.243 -0.8700  2.6265  0.6195
  740MOL0     H99898   6.123   2.667  -0.373  2.0199 -3.6212 -1.0306
  740MOL0     H99899   6.281   2.668  -0.307  0.1768  0.4648 -1.0246
  740MOL0     H99900   6.155   2.549  -0.252  1.0263 -0.9051 -0.0219
  741MOL0     O99901   0.095   4.283   6.529 -0.0342  0.5153 -0.5125
  741MOL0     C99902   0.116   4.379   6.610 -0.3426  0.5809 -0.4296
  741MOL0     O99903   0.027   4.475   6.647 -0.0390 -0.1170 -0.3719
  741MOL0     C99904  -0.093   4.463   6.586  1.0206 -0.1731 -0.5049
  741MOL0     C99905  -0.150   4.551   6.493  0.5467 -0.2337 -0.4493
  741MOL0     C99906  -0.280   4.523   6.445  0.2160  0.1945  0.6580
  741MOL0     C99907  -0.352   4.417   6.506  0.2305  0.2268 -0.2021
  741MOL0     O99908  -0.482   4.377   6.477  0.3666 -0.1519 -0.3851
  741MOL0     C99909  -0.564   4.456   6.383  0.9787  0.1640 -0.6247
  741MOL0     C99910  -0.624   4.576   6.460  0.3775 -0.1854  0.4007
  741MOL0     C99911  -0.661   4.700   6.368  0.9043  0.3769 -0.7340
  741MOL0     C99912  -0.789   4.782   6.404 -0.1113 -0.6369 -0.9675
  741MOL0     C99913  -0.778   4.844   6.542 -0.7037  1.1463 -0.0706
  741MOL0     C99914  -0.856   4.977   6.555  0.1923 -0.0994 -0.3411
  741MOL0     C99915  -1.009   4.961   6.511 -0.9387  0.4681 -0.6211
  741MOL0     C99916  -1.093   4.886   6.618 -0.2380  0.0195 -0.0548
  741MOL0     N99917  -1.239   4.902   6.602 -0.6515  0.2592  0.7070
  741MOL0     C99918  -1.312   4.872   6.490  0.3616 -0.4717 -0.1888
  741MOL0     C99919  -1.439   4.893   6.522 -0.3698  0.7069  0.0005
  741MOL0     C99920  -1.566   4.856   6.445 -1.3280 -0.1940 -0.8743
  741MOL0     C99921  -1.644   4.745   6.520  0.0593  0.4362 -0.4502
  741MOL0     C99922  -1.566   4.615   6.558  0.3495 -1.0317  0.1599
  741MOL0     C99923  -1.621   4.553   6.695 -0.5161 -0.5618  0.2752
  741MOL0     O99924  -1.554   4.448   6.754  0.9537  0.5433  0.7568
  741MOL0     C99925  -1.425   4.455   6.798  0.7207  0.0594 -1.6321
  741MOL0     C99926  -1.357   4.335   6.800 -0.2206 -0.3565  0.5263
  741MOL0     C99927  -1.237   4.318   6.859 -0.7051  0.7879  0.1756
  741MOL0     C99928  -1.163   4.432   6.913  0.4256 -0.1208  0.4919
  741MOL0     C99929  -1.017   4.414   6.954  0.7307  0.3792  0.7322
  741MOL0     O99930  -0.967   4.284   6.954  0.0926  0.0922  0.0345
  741MOL0     C99931  -0.839   4.254   6.996  0.1875  0.0072 -0.3115
  741MOL0     C99932  -0.778   4.303   7.110  0.1044 -0.0350 -0.0389
  741MOL0     C99933  -0.647   4.270   7.135 -0.2873 -0.8046  0.6356
  741MOL0     C99934  -0.579   4.176   7.055 -0.1795 -0.7457 -0.5723
  741MOL0     O99935  -0.444   4.158   7.083  0.0160 -0.2589 -0.3283
  741MOL0     C99936  -0.353   4.167   6.971 -0.1158  0.0505  0.5311
  741MOL0     C99937  -0.210   4.165   7.032  0.4790 -0.4685 -1.1381
  741MOL0     C99938  -0.194   4.296   7.120 -0.4552 -1.0985  0.4406
  741MOL0     C99939  -0.057   4.285   7.197  0.7385 -0.3048  0.1031
  741MOL0     C99940  -0.072   4.213   7.335 -0.1952 -1.2426  1.1783
  741MOL0     C99941   0.038   4.255   7.422  0.8837  0.2581 -0.9824
  741MOL0     C99942   0.000   4.186   7.561  0.2772 -0.0911  0.6031
  741MOL0     C99943   0.108   4.181   7.669 -0.4197 -0.1100 -0.6667
  741MOL0    Cl99944   0.218   4.044   7.628  0.4331  0.0631 -0.0077
  741MOL0     C99945  -0.651   4.111   6.953 -0.1144  0.7595 -1.0136
  741MOL0     C99946  -0.789   4.146   6.924 -0.1626 -0.2492 -0.2868
  741MOL0     O99947  -0.948   4.512   6.976 -0.1518  0.8587  0.2324
  741MOL0     C99948  -1.228   4.564   6.909  0.5848 -0.3093 -0.0377
  741MOL0     C99949  -1.356   4.572   6.841  0.7426  0.9368 -0.0237
  741MOL0     N99950  -1.438   4.937   6.656 -0.4514  0.4187  0.6751
  741MOL0     N99951  -1.315   4.954   6.697  1.0538 -0.3295  0.0579
  741MOL0     C99952  -0.291   4.342   6.601  0.3061  0.1310  0.5609
  741MOL0     C99953  -0.170   4.358   6.637 -0.2145 -0.1515 -0.4982
  741MOL0     C99954   0.248   4.377   6.680 -0.5454  0.4300  0.2959
  741MOL0     C99955   0.366   4.340   6.606  1.0667 -0.0879  0.0913
  741MOL0     C99956   0.488   4.354   6.665  0.5144 -0.1073  0.0062
  741MOL0     C99957   0.504   4.414   6.791 -0.2518 -0.1637  0.1405
  741MOL0     O99958   0.620   4.433   6.856  0.8045 -0.4200 -0.4198
  741MOL0     C99959   0.736   4.454   6.771 -0.7092  0.2498 -0.3689
  741MOL0     C99960   0.836   4.504   6.884 -1.0078 -0.2714  0.3888
  741MOL0     C99961   0.991   4.511   6.842 -0.1020 -0.4747 -0.4296
  741MOL0     C99962   1.070   4.590   6.951  0.3260 -0.1218  0.6945
  741MOL0     C99963   1.010   4.719   6.992  0.3318 -0.2303 -0.2367
  741MOL0     C99964   0.960   4.827   7.030  0.3948 -0.2174 -0.2879
  741MOL0     C99965   0.383   4.454   6.851 -0.2787 -0.0610 -0.6454
  741MOL0     C99966   0.258   4.424   6.813  0.0717  0.6984 -0.2685
  741MOL0     C99967   0.148   4.465   6.912  0.8715  0.7746 -0.0389
  741MOL0     H99968  -0.088   4.633   6.459  1.9440 -1.5105 -1.1121
  741MOL0     H99969  -0.331   4.593   6.379  0.4373  1.1450  1.4631
  741MOL0     H99970  -0.508   4.475   6.292  2.7190 -4.3860 -0.7190
  741MOL0     H99971  -0.647   4.391   6.353 -1.6249  3.2112 -0.5740
  741MOL0     H99972  -0.565   4.617   6.542  1.4358  2.7286 -1.6367
  741MOL0     H99973  -0.719   4.552   6.508 -0.8376  1.5936 -0.9848
  741MOL0     H99974  -0.686   4.662   6.269 -2.3898 -1.0238  0.4807
  741MOL0     H99975  -0.569   4.759   6.372 -0.4530  2.5311  2.2231
  741MOL0     H99976  -0.803   4.864   6.332 -2.7381  0.1897  0.3493
  741MOL0     H99977  -0.884   4.730   6.393 -1.1185  1.2954 -2.0509
  741MOL0     H99978  -0.808   4.776   6.622 -0.2336  0.6092 -0.3408
  741MOL0     H99979  -0.673   4.875   6.546  0.1531 -1.4876 -0.3236
  741MOL0     H99980  -0.848   5.005   6.661  0.5401 -0.2744 -0.3203
  741MOL0     H99981  -0.803   5.047   6.491  0.4824 -2.8652 -3.3632
  741MOL0     H99982  -1.028   4.917   6.413  0.3455 -1.5389 -0.0238
  741MOL0     H99983  -1.039   5.066   6.511  0.7755  1.2007  4.2566
  741MOL0     H99984  -1.081   4.777   6.616 -0.4826 -0.0080 -1.3751
  741MOL0     H99985  -1.062   4.925   6.715 -1.6075  0.1054  0.3742
  741MOL0     H99986  -1.277   4.830   6.397 -2.0051  0.3343 -1.5238
  741MOL0     H99987  -1.621   4.949   6.429 -1.4948  0.0684  0.9786
  741MOL0     H99988  -1.544   4.821   6.344  0.2156 -2.2571  0.1069
  741MOL0     H99989  -1.694   4.786   6.608 -0.6444 -1.6177  0.1854
  741MOL0     H99990  -1.731   4.713   6.461 -1.6781  1.8499  1.1961
  741MOL0     H99991  -1.460   4.642   6.561  0.5068 -1.6975  1.7108
  741MOL0     H99992  -1.575   4.537   6.482 -0.0146 -0.5864 -0.2637
  741MOL0     H99993  -1.722   4.522   6.668 -0.3687  1.1436 -2.5849
  741MOL0     H99994  -1.628   4.637   6.765  3.6511 -0.0858  0.3810
  741MOL0     H99995  -1.416   4.249   6.768 -0.8517  0.0315  0.6264
  741MOL0     H99996  -1.207   4.215   6.875 -2.2024  0.5675  1.8567
  741MOL0     H99997  -0.826   4.371   7.180 -1.3629 -1.3111  0.2405
  741MOL0     H99998  -0.593   4.325   7.212 -0.3724  0.4294 -0.1690
  741MOL0     H99999  -0.359   4.089   6.895 -2.8610  1.7834 -1.1800
  741MOL0     H    0  -0.378   4.263   6.925 -0.1887 -1.0159 -1.7926
  741MOL0     H    1  -0.208   4.073   7.091 -0.8895 -0.2754 -0.7466
  741MOL0     H    2  -0.123   4.149   6.968  0.2976  1.2255 -1.8553
  741MOL0     H    3  -0.194   4.380   7.050  1.8175 -2.4174 -1.2867
  741MOL0     H    4  -0.275   4.306   7.193  1.0300  5.0327  1.7325
  741MOL0     H    5  -0.027   4.388   7.219 -1.1094  0.3633 -0.3348
  741MOL0     H    6   0.017   4.232   7.136 -0.8271 -0.6422 -1.5931
  741MOL0     H    7  -0.089   4.107   7.315  1.8764 -1.1599 -1.6949
  741MOL0     H    8  -0.162   4.255   7.378  0.3631  2.2176 -0.6894
  741MOL0     H    9   0.134   4.219   7.384  0.7587 -1.3535  0.0936
  741MOL0     H   10   0.035   4.364   7.430 -0.0477  0.1773 -0.0267
  741MOL0     H   11  -0.033   4.083   7.542 -3.3589  0.5091  2.7361
  741MOL0     H   12  -0.090   4.234   7.599  0.2684  0.4451 -0.0812
  741MOL0     H   13   0.165   4.273   7.686  1.4244 -1.5550  1.5200
  741MOL0     H   14   0.058   4.159   7.763  1.6466 -1.1570  0.2466
  741MOL0     H   15  -0.590   4.040   6.897  1.9748  1.0913  0.7075
  741MOL0     H   16  -0.842   4.092   6.846 -0.0476 -0.0627 -0.4956
  741MOL0     H   17  -1.192   4.650   6.965  1.9805 -0.8959  0.0125
  741MOL0     H   18  -1.402   4.670   6.854 -2.4863 -0.2301 -1.7972
  741MOL0     H   19  -0.352   4.263   6.644 -1.2979  0.7509 -0.4732
  741MOL0     H   20  -0.128   4.296   6.715 -3.6755 -2.3143 -0.1719
  741MOL0     H   21   0.369   4.298   6.506  0.4788 -1.2839  0.5509
  741MOL0     H   22   0.572   4.324   6.602  1.2687  0.6822  0.6021
  741MOL0     H   23   0.730   4.531   6.694  3.7679 -0.7608 -2.0200
  741MOL0     H   24   0.769   4.365   6.718 -1.4329 -0.2149 -0.0466
  741MOL0     H   25   0.825   4.450   6.978 -0.0150  0.1648  0.7770
  741MOL0     H   26   0.808   4.607   6.908  3.3368  0.8370  1.6144
  741MOL0     H   27   1.016   4.565   6.750  2.8159 -2.1535 -0.7583
  741MOL0     H   28   1.031   4.409   6.838  2.8780  0.5165  1.0373
  741MOL0     H   29   1.067   4.533   7.044  0.8999  2.4414  2.3879
  741MOL0     H   30   1.172   4.599   6.912 -0.8510 -0.3084 -2.8077
  741MOL0     H   31   0.911   4.913   7.072  0.8598  0.2638 -0.7097
  741MOL0     H   32   0.392   4.495   6.951  1.7835 -3.0357  0.5191
  741MOL0     H   33   0.078   4.545   6.886 -2.6334  0.2942  5.9918
  741MOL0     H   34   0.076   4.384   6.929 -1.2717  2.1840 -1.7598
  741MOL0     H   35   0.187   4.486   7.012 -0.5479 -2.7750  1.4293
  742MOL0     O   36   8.505   6.246   6.057  0.6457 -0.9393 -0.1205
  742MOL0     C   37   8.551   6.180   5.970  0.1104 -0.4160 -0.0726
  742MOL0     O   38   8.552   6.041   5.957  0.1568  0.5153 -0.0265
  742MOL0     C   39   8.506   5.961   6.058  0.2463 -0.1952  0.2630
  742MOL0     C   40   8.408   5.867   6.032  0.9239 -0.0277 -0.2632
  742MOL0     C   41   8.365   5.782   6.132  0.0166 -0.3458 -0.7238
  742MOL0     C   42   8.432   5.771   6.247  0.3634  0.9092  0.4128
  742MOL0     O   43   8.382   5.685   6.342 -0.1776  0.5746  0.4449
  742MOL0     C   44   8.373   5.545   6.297 -1.0879  0.2293  0.6004
  742MOL0     C   45   8.424   5.438   6.396  0.7287  0.1852 -0.5356
  742MOL0     C   46   8.543   5.481   6.476  0.4443 -0.8698  0.4602
  742MOL0     C   47   8.528   5.418   6.615  0.1280 -0.5975 -0.4869
  742MOL0     C   48   8.654   5.466   6.693 -0.3198  0.1072  0.0016
  742MOL0     C   49   8.771   5.366   6.670 -0.0699  0.6857 -0.0317
  742MOL0     C   50   8.886   5.405   6.775 -0.3769 -0.4628 -0.2685
  742MOL0     C   51   8.993   5.297   6.777 -1.0268 -0.5332 -0.0036
  742MOL0     N   52   9.066   5.277   6.650  0.6397 -0.3899 -0.9291
  742MOL0     C   53   9.046   5.175   6.566  0.6386  0.0874 -0.2513
  742MOL0     C   54   9.152   5.188   6.477  0.0865  0.0933  0.0271
  742MOL0     C   55   9.180   5.113   6.363  0.9489  0.1538  0.2081
  742MOL0     C   56   9.166   5.201   6.239  0.2545 -0.7699 -0.3343
  742MOL0     C   57   9.159   5.107   6.112  0.1601 -0.1597 -0.4629
  742MOL0     C   58   9.106   5.188   5.989 -0.7957  0.0796  0.6437
  742MOL0     O   59   9.119   5.113   5.862  0.0370  0.3851  0.4279
  742MOL0     C   60   9.050   5.147   5.748  0.0935  0.0630  0.5718
  742MOL0     C   61   8.953   5.245   5.737  0.4652 -1.1098 -0.1465
  742MOL0     C   62   8.894   5.285   5.611 -0.7237  0.1537  0.0984
  742MOL0     C   63   8.929   5.223   5.492  1.6231  0.5890 -0.5047
  742MOL0     C   64   8.847   5.250   5.367  0.7947  0.0144  0.1037
  742MOL0     O   65   8.893   5.177   5.262 -0.1118  0.0549  0.4143
  742MOL0     C   66   8.816   5.158   5.147  0.4503 -0.6074  0.0924
  742MOL0     C   67   8.760   5.258   5.077 -0.1219 -0.5375  0.4777
  742MOL0     C   68   8.678   5.234   4.967  0.6534 -0.1330 -0.4952
  742MOL0     C   69   8.666   5.109   4.903 -1.3966 -0.2285 -0.3407
  742MOL0     O   70   8.603   5.089   4.794  0.8737  0.6957 -0.4212
  742MOL0     C   71   8.471   5.139   4.788  0.1844 -0.8924 -0.0786
  742MOL0     C   72   8.368   5.023   4.820 -0.1878  0.5052 -0.7061
  742MOL0     C   73   8.239   5.073   4.884  0.5072 -0.1943 -0.0481
  742MOL0     C   74   8.129   4.971   4.873  0.7668  0.2632 -0.7654
  742MOL0     C   75   8.006   5.015   4.959 -0.1246 -0.0822  0.2048
  742MOL0     C   76   7.888   4.924   4.961  0.9192  1.1334  0.8757
  742MOL0     C   77   7.765   5.003   4.993  0.4622 -0.1572  0.1038
  742MOL0     C   78   7.658   4.905   5.059 -0.2479 -0.8127 -0.9137
  742MOL0    Cl   79   7.636   4.749   4.978  0.3057  0.0811  0.2133
  742MOL0     C   80   8.743   5.009   4.964  0.2839  0.1512  0.1148
  742MOL0     C   81   8.812   5.035   5.083 -0.2741  0.0028 -0.3018
  742MOL0     O   82   8.746   5.318   5.366  0.6562 -0.4830 -0.5822
  742MOL0     C   83   9.025   5.123   5.503  0.0684  0.3241 -0.1123
  742MOL0     C   84   9.080   5.082   5.627 -0.5224 -0.0055  0.2363
  742MOL0     N   85   9.234   5.291   6.512 -0.0035 -0.1345  0.5296
  742MOL0     N   86   9.184   5.340   6.616 -0.5081  0.0617  0.3290
  742MOL0     C   87   8.534   5.856   6.275  0.9102 -0.2217  0.9559
  742MOL0     C   88   8.571   5.957   6.184  0.0595 -0.3325 -0.7817
  742MOL0     C   89   8.615   6.249   5.862  0.3363 -0.4541  0.3094
  742MOL0     C   90   8.742   6.197   5.823 -0.2973 -0.1885  0.1726
  742MOL0     C   91   8.822   6.264   5.728  0.1579  0.4646 -0.6170
  742MOL0     C   92   8.785   6.379   5.677  0.6056  0.3163 -0.2721
  742MOL0     O   93   8.850   6.468   5.592  0.2764  0.1375  0.7201
  742MOL0     C   94   8.944   6.410   5.502  0.1109  0.1644  0.2872
  742MOL0     C   95   8.866   6.403   5.365 -0.0403 -0.4950  0.0003
  742MOL0     C   96   8.863   6.535   5.283 -0.6223 -0.4600 -0.5883
  742MOL0     C   97   8.744   6.630   5.323  0.1701  0.0937 -0.1143
  742MOL0     C   98   8.729   6.747   5.231  0.4065  0.7064 -0.4679
  742MOL0     C   99   8.716   6.836   5.150 -0.6129 -0.0869  0.7326
  742MOL0     C  100   8.654   6.426   5.713 -0.3958 -0.1726  0.1657
  742MOL0     C  101   8.568   6.367   5.805 -0.5718  0.9692 -0.0318
  742MOL0     C  102   8.443   6.432   5.838  0.0896  0.3252 -0.0567
  742MOL0     H  103   8.360   5.871   5.935 -0.1437  1.9765  0.2989
  742MOL0     H  104   8.271   5.730   6.119 -1.5399  1.4048  2.5292
  742MOL0     H  105   8.272   5.524   6.260  0.1496 -2.6942 -1.5010
  742MOL0     H  106   8.437   5.528   6.210  0.6887  1.0846  1.6989
  742MOL0     H  107   8.456   5.350   6.340 -2.2217 -2.5843  1.7229
  742MOL0     H  108   8.338   5.417   6.460  1.3258 -0.0741  0.1901
  742MOL0     H  109   8.544   5.590   6.478 -0.0871 -0.8646  0.4331
  742MOL0     H  110   8.627   5.435   6.423  0.1915  0.4417 -1.1630
  742MOL0     H  111   8.440   5.439   6.677  0.2108 -0.8945 -0.2685
  742MOL0     H  112   8.535   5.310   6.605  4.9537 -0.5292 -0.2031
  742MOL0     H  113   8.681   5.568   6.667 -0.2240  0.5701  1.7976
  742MOL0     H  114   8.632   5.466   6.800  1.1707 -1.0589  0.3517
  742MOL0     H  115   8.722   5.268   6.666 -0.2459  0.7603  0.2588
  742MOL0     H  116   8.824   5.381   6.576  4.3647  3.1994  2.4934
  742MOL0     H  117   8.844   5.419   6.875  3.3703 -2.2633  1.7784
  742MOL0     H  118   8.927   5.499   6.735 -0.0969  0.6104  2.2997
  742MOL0     H  119   9.066   5.315   6.857 -1.7753 -3.6301  1.5111
  742MOL0     H  120   8.951   5.201   6.809 -0.2329 -1.1481 -0.7471
  742MOL0     H  121   8.960   5.113   6.542  0.5018  0.7454 -1.5467
  742MOL0     H  122   9.280   5.069   6.360  1.0193  0.3452 -0.2934
  742MOL0     H  123   9.105   5.033   6.360  0.3731  0.6244  1.3182
  742MOL0     H  124   9.088   5.277   6.243  2.8090  2.0845 -0.8322
  742MOL0     H  125   9.247   5.272   6.220 -0.8935  1.6471  2.9940
  742MOL0     H  126   9.085   5.031   6.135 -0.0500 -0.0998 -0.9218
  742MOL0     H  127   9.254   5.057   6.088 -1.0012 -0.9666 -3.9413
  742MOL0     H  128   9.166   5.278   5.973 -3.7434  2.1554  0.4064
  742MOL0     H  129   9.002   5.209   6.015 -1.1986  1.0517 -1.5279
  742MOL0     H  130   8.923   5.284   5.834 -1.7361 -0.8354 -0.8772
  742MOL0     H  131   8.821   5.365   5.604 -1.5882 -0.7223 -1.4897
  742MOL0     H  132   8.775   5.360   5.111  0.6301 -0.9786  1.5067
  742MOL0     H  133   8.621   5.317   4.926 -2.1487 -2.0106 -0.6957
  742MOL0     H  134   8.440   5.218   4.857  0.1544 -0.9019 -0.0815
  742MOL0     H  135   8.460   5.172   4.685  3.4944  2.5821  0.4320
  742MOL0     H  136   8.341   4.962   4.733 -2.2451 -1.4250  1.1402
  742MOL0     H  137   8.406   4.950   4.892 -3.7279 -1.0361 -0.1798
  742MOL0     H  138   8.270   5.094   4.987  3.5988 -1.0935 -0.6749
  742MOL0     H  139   8.208   5.165   4.833  2.9070 -0.6558 -2.6125
  742MOL0     H  140   8.164   4.877   4.915 -3.2442 -0.6085  1.1360
  742MOL0     H  141   8.095   4.955   4.770  0.3822 -2.9853 -0.2336
  742MOL0     H  142   7.977   5.117   4.933  0.0927  0.0979  0.6453
  742MOL0     H  143   8.050   5.018   5.059  0.9561 -0.0161 -0.2580
  742MOL0     H  144   7.872   4.888   4.858 -0.4382 -2.5632  2.1945
  742MOL0     H  145   7.904   4.835   5.023 -0.7845  0.5146  0.5015
  742MOL0     H  146   7.724   5.050   4.904  1.8930 -0.5235 -0.7823
  742MOL0     H  147   7.787   5.077   5.070 -0.1184 -0.6706  0.7905
  742MOL0     H  148   7.683   4.889   5.164  2.3321 -0.4553 -1.3862
  742MOL0     H  149   7.560   4.950   5.075  0.5224  0.5350  0.1324
  742MOL0     H  150   8.751   4.912   4.915 -1.6567 -0.5988  1.1750
  742MOL0     H  151   8.889   4.972   5.125  1.0336  2.1625  0.7527
  742MOL0     H  152   9.069   5.070   5.419 -0.7102 -2.0257  0.8628
  742MOL0     H  153   9.157   5.005   5.625 -0.5085 -0.1507  2.8906
  742MOL0     H  154   8.575   5.838   6.374 -0.6507 -2.8434  1.1972
  742MOL0     H  155   8.658   6.017   6.210 -0.0774 -0.6068  0.3431
  742MOL0     H  156   8.778   6.106   5.872 -2.9133 -1.6584 -0.4191
  742MOL0     H  157   8.920   6.233   5.693 -0.9785 -1.3534 -2.3709
  742MOL0     H  158   8.987   6.311   5.520  1.2383  0.3798 -1.0762
  742MOL0     H  159   9.024   6.484   5.500 -1.2930  1.7282 -1.5443
  742MOL0     H  160   8.762   6.370   5.368 -0.3100  0.0147 -2.0368
  742MOL0     H  161   8.933   6.332   5.314 -0.4906 -1.6245  0.9494
  742MOL0     H  162   8.847   6.506   5.179  0.8355 -0.2577 -0.8968
  742MOL0     H  163   8.959   6.584   5.302 -0.7165 -0.6763  0.4857
  742MOL0     H  164   8.655   6.567   5.314  0.9170 -2.0900  4.8356
  742MOL0     H  165   8.745   6.672   5.424 -0.5711 -0.3212  0.0691
  742MOL0     H  166   8.711   6.922   5.086  2.5141 -1.0838 -1.0256
  742MOL0     H  167   8.627   6.525   5.679  0.0700 -0.8847 -2.4966
  742MOL0     H  168   8.464   6.500   5.921  3.2608 -0.0188 -0.4602
  742MOL0     H  169   8.408   6.494   5.755 -1.3736 -2.4197 -1.6083
  742MOL0     H  170   8.366   6.360   5.865 -2.6789  2.7862 -0.7896
  743MOL0     O  171   3.199   1.362   6.252  0.7717 -0.8774  0.0605
  743MOL0     C  172   3.127   1.267   6.253 -0.7951  0.4653 -0.2823
  743MOL0     O  173   3.144   1.159   6.173 -0.1501 -0.0927  0.1515
  743MOL0     C  174   3.246   1.153   6.087 -0.2759  0.4361 -0.2554
  743MOL0     C  175   3.377   1.203   6.111  0.5695 -0.5127  0.7233
  743MOL0     C  176   3.486   1.172   6.023 -0.6868 -0.2026  0.0542
  743MOL0     C  177   3.461   1.070   5.923 -0.0967  0.5205  0.4424
  743MOL0     O  178   3.563   1.023   5.846  0.0865 -0.3482  0.2654
  743MOL0     C  179   3.668   1.117   5.803  0.9755 -0.5181  0.6365
  743MOL0     C  180   3.739   1.069   5.675 -0.2772  0.6759 -0.0704
  743MOL0     C  181   3.663   1.076   5.542  0.3071  0.2377 -0.4052
  743MOL0     C  182   3.560   0.958   5.526  0.1664 -0.5671 -1.1345
  743MOL0     C  183   3.495   0.942   5.380 -0.9018 -0.9395 -0.0810
  743MOL0     C  184   3.429   0.811   5.347 -0.5537  0.0566  0.4469
  743MOL0     C  185   3.305   0.796   5.430  0.9170  0.5994 -1.2863
  743MOL0     C  186   3.259   0.643   5.433 -0.5111 -0.1783 -0.4930
  743MOL0     N  187   3.321   0.557   5.534 -0.3089  0.6697 -0.8865
  743MOL0     C  188   3.289   0.552   5.667 -0.5187 -0.1204 -0.4875
  743MOL0     C  189   3.351   0.438   5.718  0.0802 -0.6110  1.7368
  743MOL0     C  190   3.380   0.425   5.866 -0.5222  0.0665 -0.0378
  743MOL0     C  191   3.492   0.520   5.906  0.0696 -0.1799 -0.4570
  743MOL0     C  192   3.623   0.494   5.837  0.0845  0.3908  0.3727
  743MOL0     C  193   3.754   0.523   5.905  0.1996 -0.0993 -0.7841
  743MOL0     O  194   3.748   0.644   5.993 -0.1435 -1.7679 -0.0473
  743MOL0     C  195   3.863   0.683   6.048 -0.4705  0.6885  0.3667
  743MOL0     C  196   3.897   0.823   6.058  0.3177  0.2974 -0.7602
  743MOL0     C  197   4.016   0.860   6.120 -0.7239  0.4531  0.4374
  743MOL0     C  198   4.104   0.760   6.168 -1.0150 -0.3767 -0.4843
  743MOL0     C  199   4.228   0.809   6.234  0.7131  0.7801  0.2354
  743MOL0     O  200   4.325   0.712   6.251 -0.8345 -0.4163  0.5316
  743MOL0     C  201   4.442   0.750   6.302 -0.6275 -0.1533  0.2636
  743MOL0     C  202   4.455   0.836   6.419 -0.1752  0.4245 -0.0684
  743MOL0     C  203   4.574   0.853   6.484 -0.7861  0.3034 -0.6567
  743MOL0     C  204   4.688   0.792   6.431 -0.2884 -0.2277  0.3416
  743MOL0     O  205   4.810   0.829   6.481  0.4494  0.8530 -0.4441
  743MOL0     C  206   4.926   0.861   6.400  0.2078  0.9950  0.4538
  743MOL0     C  207   4.904   0.937   6.269  0.3722 -0.4208  0.5421
  743MOL0     C  208   5.028   0.907   6.179  0.4893 -0.0211  0.5986
  743MOL0     C  209   5.017   0.988   6.047 -0.2281 -0.1439 -0.2355
  743MOL0     C  210   5.154   0.978   5.980 -0.6430 -0.4029 -0.0551
  743MOL0     C  211   5.165   1.005   5.829 -0.7932 -0.6287  0.3096
  743MOL0     C  212   5.311   0.984   5.785  0.0771  0.1980 -0.4862
  743MOL0     C  213   5.335   0.950   5.638  0.7609 -0.3949  0.5296
  743MOL0    Cl  214   5.229   0.802   5.591 -0.0354  0.4448 -0.4104
  743MOL0     C  215   4.679   0.713   6.322 -0.3751  0.5436  0.9901
  743MOL0     C  216   4.554   0.684   6.260  0.4369  0.4230 -0.4136
  743MOL0     O  217   4.237   0.928   6.261  0.3934 -0.7745 -0.1111
  743MOL0     C  218   4.071   0.628   6.145 -0.7507  0.3552  0.2410
  743MOL0     C  219   3.949   0.588   6.095 -0.8425  0.2704  0.6640
  743MOL0     N  220   3.417   0.384   5.617  0.3869  0.2809 -0.2747
  743MOL0     N  221   3.397   0.445   5.506  1.1898 -0.3268  0.5575
  743MOL0     C  222   3.333   1.021   5.911  0.1200 -0.1304 -0.4307
  743MOL0     C  223   3.223   1.063   5.984 -1.0308  0.1729 -0.0432
  743MOL0     C  224   3.024   1.265   6.365 -0.4819  0.0032  0.0022
  743MOL0     C  225   2.956   1.146   6.407 -0.1668  0.3098  0.3040
  743MOL0     C  226   2.853   1.141   6.495 -0.3889  0.4593 -0.2128
  743MOL0     C  227   2.811   1.254   6.560 -0.5926 -0.2892 -0.5652
  743MOL0     O  228   2.715   1.244   6.652  0.1169 -1.0026  0.3467
  743MOL0     C  229   2.754   1.295   6.778 -0.0156 -0.5428  0.2658
  743MOL0     C  230   2.628   1.285   6.861  0.2736  0.0988  0.2995
  743MOL0     C  231   2.512   1.375   6.816  0.9266 -0.4784 -0.0762
  743MOL0     C  232   2.380   1.349   6.906 -0.1385 -0.3730 -0.3674
  743MOL0     C  233   2.386   1.429   7.032  0.1630  0.6606  0.3326
  743MOL0     C  234   2.388   1.486   7.136 -0.3359  1.0899  0.0619
  743MOL0     C  235   2.877   1.373   6.529 -0.6357  0.3661 -0.8713
  743MOL0     C  236   2.980   1.381   6.438 -0.3121  0.0029  0.2648
  743MOL0     C  237   3.027   1.535   6.423 -0.2270 -0.0934  0.3134
  743MOL0     H  238   3.393   1.256   6.204 -2.7202  2.9595 -0.4419
  743MOL0     H  239   3.588   1.207   6.033 -1.2375  0.9502  2.0646
  743MOL0     H  240   3.636   1.221   5.793 -0.0981 -1.0155 -2.0301
  743MOL0     H  241   3.746   1.126   5.880  0.8459  0.8407  0.6240
  743MOL0     H  242   3.790   0.976   5.702  0.4503  1.0164 -0.2515
  743MOL0     H  243   3.826   1.135   5.677  1.0595 -0.9606 -1.2910
  743MOL0     H  244   3.723   1.067   5.451  0.7022  0.6530 -0.1881
  743MOL0     H  245   3.603   1.167   5.533  0.9928  0.6035 -1.5703
  743MOL0     H  246   3.610   0.867   5.561 -0.1626 -0.5369 -0.5686
  743MOL0     H  247   3.478   0.986   5.593 -0.4671 -1.8149 -1.3767
  743MOL0     H  248   3.436   1.031   5.358 -0.5775 -0.4555  0.9140
  743MOL0     H  249   3.581   0.947   5.312 -0.0092  1.6384  1.1064
  743MOL0     H  250   3.400   0.790   5.244 -0.7092 -0.9706  0.6918
  743MOL0     H  251   3.497   0.733   5.383  0.8925  0.6360 -0.9226
  743MOL0     H  252   3.221   0.859   5.398  0.2184  0.3111 -0.0760
  743MOL0     H  253   3.325   0.819   5.535  1.2706 -2.6415 -0.5282
  743MOL0     H  254   3.150   0.650   5.441 -0.5045  1.0432 -1.2091
  743MOL0     H  255   3.285   0.602   5.335  0.7536 -0.6693  0.0353
  743MOL0     H  256   3.230   0.624   5.723  2.0863  0.7099  1.3992
  743MOL0     H  257   3.290   0.448   5.924 -1.4125  1.1389 -1.7505
  743MOL0     H  258   3.406   0.322   5.893 -1.5988  0.8102  4.9097
  743MOL0     H  259   3.461   0.623   5.885  3.1302  1.2312  1.1481
  743MOL0     H  260   3.507   0.502   6.013 -2.0526 -0.7191 -0.2111
  743MOL0     H  261   3.621   0.556   5.747 -4.3393 -1.8013 -1.3465
  743MOL0     H  262   3.623   0.394   5.792  0.1160  0.5509  0.0207
  743MOL0     H  263   3.821   0.550   5.823 -2.4325  0.3940 -2.9158
  743MOL0     H  264   3.792   0.437   5.961  1.2174  1.2181  0.6281
  743MOL0     H  265   3.844   0.904   6.007  2.3891  0.3867 -2.9519
  743MOL0     H  266   4.028   0.967   6.118  1.2394  0.2702 -2.3786
  743MOL0     H  267   4.368   0.889   6.456  0.4998 -0.1440  2.5655
  743MOL0     H  268   4.592   0.905   6.578  1.4287 -3.2908  1.1137
  743MOL0     H  269   4.981   0.937   6.456  0.0749  0.9990  0.5796
  743MOL0     H  270   4.974   0.765   6.382 -1.4983  0.0037  0.9289
  743MOL0     H  271   4.815   0.889   6.228 -0.2285 -2.6017  4.0380
  743MOL0     H  272   4.892   1.044   6.291  2.7548 -0.5267  2.7981
  743MOL0     H  273   5.123   0.919   6.230  1.7241 -3.8349 -0.4786
  743MOL0     H  274   5.015   0.801   6.158  0.8504 -0.4204  2.3016
  743MOL0     H  275   5.002   1.093   6.076  0.1326  0.8774 -3.3364
  743MOL0     H  276   4.935   0.952   5.984  0.7672 -0.6145 -1.3019
  743MOL0     H  277   5.176   0.872   5.994  1.2863 -0.2038 -1.1788
  743MOL0     H  278   5.220   1.033   6.048 -1.4629 -3.8972  4.0270
  743MOL0     H  279   5.096   0.947   5.766 -1.2204  2.3641 -2.2057
  743MOL0     H  280   5.146   1.112   5.824 -2.7199 -0.7642  2.9851
  743MOL0     H  281   5.353   0.907   5.851 -2.4085  0.3488  1.4002
  743MOL0     H  282   5.368   1.075   5.805  0.1809  0.2908 -1.1704
  743MOL0     H  283   5.310   1.042   5.583 -1.0560 -0.7141  0.7701
  743MOL0     H  284   5.440   0.925   5.618  0.8907  0.0025  0.7136
  743MOL0     H  285   4.766   0.670   6.275 -2.0056  0.3109 -2.0778
  743MOL0     H  286   4.563   0.609   6.182  3.2010  2.0902 -1.8530
  743MOL0     H  287   4.134   0.547   6.182 -1.4474  0.2780  1.2991
  743MOL0     H  288   3.920   0.484   6.086 -0.9813  0.4797 -3.0217
  743MOL0     H  289   3.307   0.946   5.836  0.3615 -1.2706  0.5961
  743MOL0     H  290   3.120   1.029   5.978 -0.0807 -2.9227 -0.9574
  743MOL0     H  291   2.990   1.056   6.355  1.4912  0.6793  0.6842
  743MOL0     H  292   2.802   1.047   6.515 -0.1073  0.0925 -1.1897
  743MOL0     H  293   2.777   1.402   6.783  2.1576 -1.0251  1.9649
  743MOL0     H  294   2.835   1.234   6.818  2.0118  1.5957 -0.3289
  743MOL0     H  295   2.648   1.313   6.965 -0.9822  0.1320  0.5485
  743MOL0     H  296   2.582   1.186   6.859 -1.5856  0.8318  2.3641
  743MOL0     H  297   2.491   1.350   6.711 -1.1921 -0.0087  0.2028
  743MOL0     H  298   2.535   1.481   6.823  2.2274 -0.7064 -0.4503
  743MOL0     H  299   2.284   1.362   6.855 -0.0299  0.6887 -0.3116
  743MOL0     H  300   2.368   1.244   6.935  2.5084  0.2296  3.8061
  743MOL0     H  301   2.387   1.561   7.213  0.3945  2.4071 -1.1574
  743MOL0     H  302   2.823   1.457   6.572  1.3525  1.1294  0.3152
  743MOL0     H  303   2.957   1.613   6.390  1.6595 -0.3073 -5.2289
  743MOL0     H  304   3.068   1.546   6.524 -0.6758 -2.3027  0.7889
  743MOL0     H  305   3.109   1.550   6.352  0.4109 -0.9044  0.8608
  744MOL0     O  306   4.658   1.208  10.118 -0.0644  0.2199  0.2662
  744MOL0     C  307   4.670   1.187  10.232  0.2448 -0.3797  1.2334
  744MOL0     O  308   4.626   1.269  10.338 -0.8301  0.2453  0.2667
  744MOL0     C  309   4.577   1.389  10.326 -0.5755  0.1224 -0.2196
  744MOL0     C  310   4.469   1.436  10.403  0.1284 -0.7222  0.0038
  744MOL0     C  311   4.430   1.566  10.396  0.6087 -0.4970  0.8709
  744MOL0     C  312   4.484   1.668  10.316 -0.6684  0.2823 -0.2842
  744MOL0     O  313   4.449   1.804  10.312 -0.3479  0.1518 -0.1920
  744MOL0     C  314   4.323   1.842  10.356  0.6539  0.0853 -1.1324
  744MOL0     C  315   4.314   1.900  10.494 -0.5708 -0.1110  0.7517
  744MOL0     C  316   4.168   1.924  10.527  0.1446  0.4934  0.1395
  744MOL0     C  317   4.174   2.034  10.642  0.4076  0.5499  0.5972
  744MOL0     C  318   4.048   2.099  10.690 -0.3206 -0.4509  0.2090
  744MOL0     C  319   3.986   2.189  10.577 -0.1896 -0.8586  0.0037
  744MOL0     C  320   3.852   2.262  10.608 -0.1874 -0.5435 -0.1994
  744MOL0     C  321   3.881   2.370  10.720 -0.0288  0.3585 -0.6303
  744MOL0     N  322   3.752   2.400  10.792 -0.3000 -0.5495 -0.5510
  744MOL0     C  323   3.628   2.456  10.744 -0.2529 -0.0692 -0.0073
  744MOL0     C  324   3.558   2.492  10.856 -0.0335 -0.4147 -0.7446
  744MOL0     C  325   3.427   2.570  10.855 -0.3294 -0.2991 -0.0034
  744MOL0     C  326   3.374   2.587  11.001 -0.3707 -0.5344  0.3616
  744MOL0     C  327   3.313   2.452  11.055 -0.0064 -0.1181  0.4063
  744MOL0     C  328   3.172   2.446  11.007  0.2094 -0.3690  0.0889
  744MOL0     O  329   3.122   2.321  11.046 -0.1906  0.0669  0.1627
  744MOL0     C  330   2.992   2.296  11.012 -0.1723 -0.1658  0.1010
  744MOL0     C  331   2.959   2.180  10.949 -0.8850  0.8255 -1.1238
  744MOL0     C  332   2.830   2.146  10.924  0.0960  0.7475 -0.5788
  744MOL0     C  333   2.722   2.230  10.961  0.8183 -0.1282 -1.0843
  744MOL0     C  334   2.584   2.188  10.951  0.4255  0.1520 -0.2569
  744MOL0     O  335   2.489   2.273  10.993  0.5430  0.1781  0.1706
  744MOL0     C  336   2.353   2.257  10.970  0.3794 -0.1596  0.4315
  744MOL0     C  337   2.266   2.338  11.043  0.1660  0.1971  0.7413
  744MOL0     C  338   2.126   2.335  11.025 -0.6551 -0.1078  0.6362
  744MOL0     C  339   2.069   2.238  10.936  0.8225 -0.2058 -0.0293
  744MOL0     O  340   1.940   2.224  10.894  0.4562  0.5141  0.6448
  744MOL0     C  341   1.826   2.246  10.981  0.5212  0.6914 -0.3441
  744MOL0     C  342   1.709   2.295  10.900  0.6684  0.0437  0.0815
  744MOL0     C  343   1.684   2.447  10.923 -0.2585 -0.5195 -0.7707
  744MOL0     C  344   1.568   2.483  10.839  0.1150  0.1678  0.2723
  744MOL0     C  345   1.427   2.441  10.890 -0.1460 -0.2454  0.4910
  744MOL0     C  346   1.321   2.530  10.819  0.0447  0.4939  0.1639
  744MOL0     C  347   1.297   2.489  10.680  0.5778 -0.4124  0.3063
  744MOL0     C  348   1.173   2.406  10.665 -0.0055 -0.2568 -0.2079
  744MOL0    Cl  349   1.155   2.325  10.505  0.0959  0.2494  0.8139
  744MOL0     C  350   2.153   2.163  10.856 -0.3566 -0.0172 -0.8126
  744MOL0     C  351   2.296   2.173  10.869  0.5050  0.2026 -0.7893
  744MOL0     O  352   2.564   2.075  10.925  0.3328  0.4700 -0.1804
  744MOL0     C  353   2.752   2.352  11.015  0.0674  0.5239 -0.2540
  744MOL0     C  354   2.885   2.380  11.045  0.0306 -0.9037 -0.1967
  744MOL0     N  355   3.629   2.439  10.968  0.3351 -0.2456 -0.0030
  744MOL0     N  356   3.737   2.388  10.929  0.2276  0.5483  0.7796
  744MOL0     C  357   4.588   1.622  10.234  0.6892  0.6630  0.1320
  744MOL0     C  358   4.634   1.487  10.240  0.8862 -0.1408 -0.4992
  744MOL0     C  359   4.733   1.057  10.265 -0.0248 -0.4546  0.1460
  744MOL0     C  360   4.718   1.009  10.398  0.2288 -0.5012  0.6784
  744MOL0     C  361   4.780   0.895  10.446 -0.7841 -0.0403  1.3807
  744MOL0     C  362   4.845   0.816  10.360 -0.0038  0.0299 -0.0072
  744MOL0     O  363   4.901   0.698  10.392  0.2105  0.5404  0.7609
  744MOL0     C  364   4.975   0.675  10.517  0.2657  0.1900 -1.0228
  744MOL0     C  365   4.889   0.586  10.598  0.1487 -0.7114  0.6802
  744MOL0     C  366   4.973   0.516  10.707  0.2928  0.6890 -1.1335
  744MOL0     C  367   4.881   0.442  10.796  0.5571  0.6034  0.7905
  744MOL0     C  368   4.955   0.382  10.914  0.5051  0.2738  0.5318
  744MOL0     C  369   5.029   0.333  11.001  0.2602 -1.3118  0.4285
  744MOL0     C  370   4.864   0.855  10.226  0.7271 -0.5030 -0.2115
  744MOL0     C  371   4.807   0.976  10.181 -0.3602  0.0657 -0.1247
  744MOL0     C  372   4.857   1.023  10.044 -0.7720  0.3206 -0.1487
  744MOL0     H  373   4.423   1.371  10.477  0.8865 -0.8978  0.3292
  744MOL0     H  374   4.340   1.578  10.455  0.1468  3.0015 -0.3213
  744MOL0     H  375   4.288   1.924  10.294  0.5644  2.6078  2.0078
  744MOL0     H  376   4.258   1.754  10.351  1.5775 -1.1419  3.4851
  744MOL0     H  377   4.377   1.989  10.502  1.5600 -1.4444 -0.4672
  744MOL0     H  378   4.355   1.821  10.558 -2.0656 -0.7141  1.0106
  744MOL0     H  379   4.117   1.834  10.563  0.6716  1.4600  3.6701
  744MOL0     H  380   4.114   1.963  10.440  1.4056  1.3227 -0.2955
  744MOL0     H  381   4.231   1.998  10.728 -3.1030 -0.4707  2.7108
  744MOL0     H  382   4.237   2.113  10.600  3.4930 -1.7704  0.5418
  744MOL0     H  383   3.973   2.028  10.724 -0.2743 -1.5103 -1.7672
  744MOL0     H  384   4.073   2.160  10.778 -1.5942 -0.5649  0.6651
  744MOL0     H  385   4.060   2.267  10.556 -0.7691 -1.3644 -5.0236
  744MOL0     H  386   3.965   2.127  10.489  1.0319  0.3024 -1.1477
  744MOL0     H  387   3.781   2.194  10.657  0.4945 -0.1000  1.4948
  744MOL0     H  388   3.814   2.299  10.513 -0.1053  1.1461  0.4064
  744MOL0     H  389   3.947   2.327  10.795  2.9627  1.2132 -2.6144
  744MOL0     H  390   3.934   2.460  10.688  2.9542 -1.8896 -2.6158
  744MOL0     H  391   3.590   2.482  10.646  0.6910 -1.0802 -0.6538
  744MOL0     H  392   3.433   2.665  10.802  0.3658 -2.6464 -4.5842
  744MOL0     H  393   3.359   2.512  10.792 -0.7814  2.8522 -2.6856
  744MOL0     H  394   3.455   2.612  11.070  0.0965 -1.6162  0.2253
  744MOL0     H  395   3.308   2.674  11.005  0.2413  0.0464 -1.2369
  744MOL0     H  396   3.312   2.451  11.164  1.3886  1.1200  0.4574
  744MOL0     H  397   3.366   2.367  11.013  0.8601  0.3374  0.5493
  744MOL0     H  398   3.168   2.463  10.899  0.7111 -3.0250 -0.4311
  744MOL0     H  399   3.120   2.521  11.067 -0.8010 -2.4337  1.9287
  744MOL0     H  400   3.040   2.118  10.913 -0.9392  0.9599 -1.4860
  744MOL0     H  401   2.814   2.051  10.875  1.7178 -1.7190  3.1899
  744MOL0     H  402   2.296   2.395  11.130 -2.8445 -0.5072  2.3885
  744MOL0     H  403   2.055   2.407  11.064  1.1686  2.7671 -1.0492
  744MOL0     H  404   1.787   2.155  11.028 -1.1341  0.3283 -2.2550
  744MOL0     H  405   1.853   2.304  11.069  3.3196 -1.0947  0.1068
  744MOL0     H  406   1.728   2.277  10.794 -1.3156  0.0174 -0.3139
  744MOL0     H  407   1.617   2.240  10.922 -1.2444  2.4975 -1.2550
  744MOL0     H  408   1.672   2.473  11.029  0.5451 -0.6826 -0.6327
  744MOL0     H  409   1.770   2.509  10.897 -2.1925  2.8765  0.2440
  744MOL0     H  410   1.584   2.460  10.734 -1.9206  0.6518 -0.1865
  744MOL0     H  411   1.566   2.593  10.846 -0.3128  0.0868  2.1633
  744MOL0     H  412   1.423   2.453  10.999 -3.2398  3.2284  0.2263
  744MOL0     H  413   1.422   2.335  10.864 -0.8292 -0.2678  0.6854
  744MOL0     H  414   1.235   2.513  10.884  1.1028  0.7354  1.6730
  744MOL0     H  415   1.347   2.636  10.826  1.7018  0.0404  1.3305
  744MOL0     H  416   1.378   2.423  10.645 -1.3170 -2.4168 -0.5202
  744MOL0     H  417   1.290   2.583  10.625  1.7964  1.5245  3.2109
  744MOL0     H  418   1.173   2.337  10.751  2.3050  3.9191  3.5848
  744MOL0     H  419   1.081   2.462  10.684  0.0661 -0.6735  1.5301
  744MOL0     H  420   2.109   2.111  10.771 -0.8315 -2.8791  1.0205
  744MOL0     H  421   2.356   2.116  10.798  2.4651 -0.2723  1.1501
  744MOL0     H  422   2.695   2.441  11.038  0.1376  0.2618  1.0195
  744MOL0     H  423   2.909   2.476  11.089  1.3620 -1.0997 -0.4632
  744MOL0     H  424   4.655   1.694  10.187 -1.0642  2.9196  0.8911
  744MOL0     H  425   4.722   1.472  10.178  1.6302  4.3493 -0.9214
  744MOL0     H  426   4.658   1.071  10.464  1.5805  3.5331 -1.5312
  744MOL0     H  427   4.772   0.864  10.550 -0.4999 -3.8630  0.3954
  744MOL0     H  428   5.006   0.767  10.569  0.8377  1.1933 -3.0253
  744MOL0     H  429   5.057   0.613  10.481 -0.7713 -0.5541 -2.1811
  744MOL0     H  430   4.859   0.508  10.528  3.7571 -0.7305 -1.0911
  744MOL0     H  431   4.801   0.642  10.630 -0.0911  0.4579 -1.7726
  744MOL0     H  432   5.033   0.591  10.761  3.8151 -2.1874 -0.6872
  744MOL0     H  433   5.041   0.440  10.670  1.8767  1.2237  0.5133
  744MOL0     H  434   4.795   0.497  10.836  0.5644  1.1440  0.0752
  744MOL0     H  435   4.842   0.353  10.746  2.2911  0.0254  0.3973
  744MOL0     H  436   5.089   0.297  11.082 -1.1130  1.2597  2.7495
  744MOL0     H  437   4.935   0.808  10.160  1.0240  0.2515 -0.4361
  744MOL0     H  438   4.767   1.007   9.983 -0.1233 -3.7765 -0.3496
  744MOL0     H  439   4.887   1.127  10.059 -1.3965  0.2477  2.1578
  744MOL0     H  440   4.934   0.961   9.999 -0.5436  0.3647  0.1756
  745MOL0     O  441   3.813  11.202   0.916  0.0532  0.3090  0.2681
  745MOL0     C  442   3.731  11.273   0.975  0.5827  0.6094  0.3031
  745MOL0     O  443   3.726  11.405   0.979 -0.5155  0.3609 -0.0576
  745MOL0     C  444   3.854  11.466   0.968  0.1435 -0.0368  0.1481
  745MOL0     C  445   3.898  11.512   0.848  0.3737  0.1025 -0.9275
  745MOL0     C  446   4.022  11.569   0.831  0.1950  0.3983 -0.4681
  745MOL0     C  447   4.106  11.593   0.940 -0.6158  0.0526 -0.0051
  745MOL0     O  448   4.237  11.641   0.943  0.9269 -0.6982  0.4645
  745MOL0     C  449   4.258  11.757   0.850 -0.3754  0.8996  0.6484
  745MOL0     C  450   4.406  11.786   0.832 -0.6422 -0.0897  0.3643
  745MOL0     C  451   4.464  11.818   0.970  0.2833 -0.9018  1.0694
  745MOL0     C  452   4.618  11.841   0.970 -1.0092  0.4008  0.2885
  745MOL0     C  453   4.662  11.880   1.110  0.0452  0.9342 -0.3106
  745MOL0     C  454   4.815  11.877   1.111 -0.4248  0.1267  0.2129
  745MOL0     C  455   4.862  11.928   1.252  0.0624  0.3801  0.3653
  745MOL0     C  456   5.014  11.956   1.249  0.0802  0.6369  1.0065
  745MOL0     N  457   5.059  12.024   1.375 -0.3001  0.3447  0.8986
  745MOL0     C  458   5.082  11.958   1.501  0.8135  0.3450  0.6590
  745MOL0     C  459   5.076  12.061   1.589  0.9177 -0.2038 -0.7506
  745MOL0     C  460   5.095  12.062   1.745  0.1643 -0.7284  0.4590
  745MOL0     C  461   4.996  11.989   1.815  1.1839  0.9141  0.7484
  745MOL0     C  462   4.853  12.040   1.799 -0.5115  0.4958  0.6176
  745MOL0     C  463   4.752  11.918   1.826 -0.1248 -0.1882 -0.3037
  745MOL0     O  464   4.615  11.967   1.813  0.3954 -0.0221 -0.3210
  745MOL0     C  465   4.512  11.883   1.841 -0.1041  0.0867 -0.1185
  745MOL0     C  466   4.512  11.744   1.816  0.3187 -1.2388  0.1729
  745MOL0     C  467   4.393  11.670   1.822  0.3834  0.5065  0.5811
  745MOL0     C  468   4.279  11.722   1.873  1.0361 -1.6913 -0.7065
  745MOL0     C  469   4.154  11.644   1.897 -0.5595 -0.3099  0.4678
  745MOL0     O  470   4.080  11.675   2.011  0.4774  0.0545 -0.1598
  745MOL0     C  471   3.962  11.610   2.038 -0.6689  0.4071 -0.3883
  745MOL0     C  472   3.834  11.662   2.022  0.2564 -0.5984  0.5300
  745MOL0     C  473   3.728  11.574   2.066 -0.3805  0.1825 -0.3902
  745MOL0     C  474   3.748  11.447   2.122  0.0010 -0.6317  0.7328
  745MOL0     O  475   3.646  11.374   2.186  0.8437  0.5091  0.5153
  745MOL0     C  476   3.507  11.390   2.143 -0.1379 -0.0541  0.4388
  745MOL0     C  477   3.414  11.309   2.224  0.3821 -0.2121 -1.0094
  745MOL0     C  478   3.263  11.335   2.210 -0.2396 -1.5490  0.1917
  745MOL0     C  479   3.185  11.203   2.220 -0.5438 -0.0522  0.3634
  745MOL0     C  480   3.031  11.215   2.221 -1.3693 -0.3797  0.2455
  745MOL0     C  481   2.982  11.248   2.365 -0.0899  0.0581 -0.0710
  745MOL0     C  482   2.845  11.310   2.355  0.2775  0.0088 -0.1153
  745MOL0     C  483   2.792  11.354   2.494  0.0244 -0.0228  0.4699
  745MOL0    Cl  484   2.745  11.225   2.589 -0.6566 -0.3401  0.0501
  745MOL0     C  485   3.882  11.398   2.134  0.8902 -0.4908  0.3937
  745MOL0     C  486   3.988  11.479   2.089  0.0492  0.3139  0.1720
  745MOL0     O  487   4.123  11.568   1.801  0.0992 -0.9551 -0.7963
  745MOL0     C  488   4.292  11.858   1.927  0.2172  0.5956  0.7444
  745MOL0     C  489   4.400  11.943   1.901  0.3124  0.9256 -0.0596
  745MOL0     N  490   5.071  12.176   1.522  0.0378 -0.5592 -0.4882
  745MOL0     N  491   5.065  12.155   1.400  0.4580 -0.4298  0.3268
  745MOL0     C  492   4.053  11.553   1.068  0.4050  0.4769  0.6034
  745MOL0     C  493   3.933  11.482   1.083 -0.3785 -0.7621  0.1846
  745MOL0     C  494   3.625  11.218   1.064  0.4472  0.6908 -0.1194
  745MOL0     C  495   3.607  11.268   1.188  0.3233  0.4224 -0.1903
  745MOL0     C  496   3.536  11.206   1.288 -0.1444  0.0267  0.4592
  745MOL0     C  497   3.462  11.097   1.260  0.4990  0.2296 -0.1669
  745MOL0     O  498   3.384  11.055   1.367  0.6676 -0.9225 -0.0791
  745MOL0     C  499   3.265  10.977   1.332  0.4500 -0.8261 -0.5471
  745MOL0     C  500   3.178  10.939   1.461 -0.3621  0.6356  0.1629
  745MOL0     C  501   3.056  10.861   1.425 -0.0529 -0.0526  0.2798
  745MOL0     C  502   2.956  10.947   1.340  0.2869  1.3642 -0.5103
  745MOL0     C  503   2.966  10.945   1.193  0.7429 -0.2055 -0.2072
  745MOL0     C  504   2.979  10.956   1.077 -0.1616 -0.5560  0.5168
  745MOL0     C  505   3.481  11.045   1.129  0.9428 -0.0087 -1.3816
  745MOL0     C  506   3.566  11.094   1.039 -0.0899 -0.6063 -0.8066
  745MOL0     C  507   3.578  11.012   0.910 -0.3663  0.2929 -0.3998
  745MOL0     H  508   3.828  11.505   0.766 -1.3936 -0.4734  0.5574
  745MOL0     H  509   4.044  11.601   0.729  1.8358  0.1784 -0.2209
  745MOL0     H  510   4.215  11.733   0.752 -1.4561  1.2587  1.0181
  745MOL0     H  511   4.198  11.845   0.873 -1.2262  0.4048  0.3684
  745MOL0     H  512   4.410  11.873   0.766 -0.7673  0.1576  0.6789
  745MOL0     H  513   4.458  11.696   0.799  3.0900  2.2602 -0.7567
  745MOL0     H  514   4.444  11.736   1.040 -0.8059 -1.9417 -0.3985
  745MOL0     H  515   4.403  11.902   1.006 -1.7493 -3.1243  3.2454
  745MOL0     H  516   4.670  11.753   0.932 -1.4784 -0.1877  0.9867
  745MOL0     H  517   4.640  11.930   0.910  1.5173  0.7332  1.5752
  745MOL0     H  518   4.625  11.980   1.135 -1.8189  0.0677  0.5798
  745MOL0     H  519   4.628  11.812   1.189  0.5975  0.0563 -0.8117
  745MOL0     H  520   4.848  11.774   1.096  0.2709  0.4546 -0.6051
  745MOL0     H  521   4.850  11.942   1.031 -0.3650 -0.3023 -0.1118
  745MOL0     H  522   4.828  11.855   1.326  0.8540  0.8697  1.2329
  745MOL0     H  523   4.828  12.031   1.268  0.5411  0.8147 -1.1900
  745MOL0     H  524   5.071  11.865   1.231  2.8219  1.8947  2.6273
  745MOL0     H  525   5.046  12.017   1.163 -1.9543 -2.0214 -1.8786
  745MOL0     H  526   5.110  11.854   1.515 -0.0514 -0.2348 -1.6244
  745MOL0     H  527   5.189  12.010   1.767 -0.1279 -1.8399 -0.7755
  745MOL0     H  528   5.095  12.165   1.780  1.4216 -0.8680  0.8950
  745MOL0     H  529   5.003  11.887   1.778  1.7487  0.8444  1.0285
  745MOL0     H  530   5.017  11.981   1.922 -1.9055  0.7053  1.4226
  745MOL0     H  531   4.848  12.096   1.705  0.3929 -1.5867 -0.7346
  745MOL0     H  532   4.852  12.116   1.877  0.3537 -0.4751  1.5996
  745MOL0     H  533   4.783  11.883   1.925 -0.9649 -2.0529 -0.6686
  745MOL0     H  534   4.773  11.838   1.755 -0.3586  2.1511 -3.2225
  745MOL0     H  535   4.598  11.693   1.775  0.4028 -2.0754  1.3187
  745MOL0     H  536   4.396  11.568   1.787  0.2872  0.5705  0.3866
  745MOL0     H  537   3.817  11.760   1.979 -0.0557 -0.8554  0.0552
  745MOL0     H  538   3.633  11.625   2.052  0.2997  0.5800 -5.5530
  745MOL0     H  539   3.473  11.494   2.145  0.2358  0.1016 -0.6831
  745MOL0     H  540   3.495  11.342   2.046 -0.8211 -0.3859  0.6855
  745MOL0     H  541   3.431  11.202   2.208 -2.3554 -0.9246  0.3140
  745MOL0     H  542   3.427  11.336   2.330 -0.7376  1.0274 -1.1624
  745MOL0     H  543   3.230  11.412   2.280 -3.2961 -3.5742  1.1670
  745MOL0     H  544   3.237  11.388   2.117  0.8684 -1.8232 -0.2901
  745MOL0     H  545   3.206  11.147   2.311 -0.8138 -2.0611 -0.7674
  745MOL0     H  546   3.213  11.143   2.133  0.7888 -1.3997  1.6713
  745MOL0     H  547   2.995  11.117   2.187  0.4312  0.1186 -3.5970
  745MOL0     H  548   2.995  11.292   2.153  0.8760 -0.7100 -1.4276
  745MOL0     H  549   2.971  11.156   2.422 -0.1568  0.0065 -0.1677
  745MOL0     H  550   3.047  11.324   2.410 -1.5784  0.9389  0.6589
  745MOL0     H  551   2.781  11.235   2.307 -0.4065 -0.5278  1.5344
  745MOL0     H  552   2.850  11.400   2.293  1.6123 -0.5210 -0.7959
  745MOL0     H  553   2.858  11.418   2.554 -2.8210  2.5130  1.1645
  745MOL0     H  554   2.696  11.407   2.483 -0.0817  0.2166  2.2271
  745MOL0     H  555   3.882  11.304   2.188  0.0466 -1.4460 -1.1742
  745MOL0     H  556   4.085  11.432   2.101  0.6899  1.4784 -0.2926
  745MOL0     H  557   4.212  11.902   1.984  0.4984  0.3863  1.3051
  745MOL0     H  558   4.406  12.050   1.916  1.5635  0.5732  2.7123
  745MOL0     H  559   4.112  11.581   1.154  2.4169  1.0988 -0.9067
  745MOL0     H  560   3.892  11.452   1.179  0.0572 -3.7007 -0.4412
  745MOL0     H  561   3.662  11.357   1.220  2.0015 -0.5528 -0.2265
  745MOL0     H  562   3.532  11.237   1.392  2.2384  0.7136  0.3913
  745MOL0     H  563   3.283  10.890   1.268 -0.9821 -0.8578 -0.9580
  745MOL0     H  564   3.205  11.055   1.285 -0.0359 -1.3087 -0.7350
  745MOL0     H  565   3.136  11.028   1.510 -0.0305  0.1220  1.4170
  745MOL0     H  566   3.244  10.894   1.536 -0.4651  1.9466  1.0798
  745MOL0     H  567   3.002  10.843   1.518  1.6208  0.9672  1.4942
  745MOL0     H  568   3.084  10.771   1.370  1.7772  1.7597 -1.9695
  745MOL0     H  569   2.855  10.906   1.354  1.3608 -1.2963 -0.1749
  745MOL0     H  570   2.951  11.052   1.372  0.4906  0.8514  1.2870
  745MOL0     H  571   2.996  10.966   0.972 -0.1255 -0.6019  0.5182
  745MOL0     H  572   3.435  10.953   1.094  2.2141  0.0508 -3.3624
  745MOL0     H  573   3.483  10.968   0.879 -1.1587  2.5294 -1.3606
  745MOL0     H  574   3.606  11.074   0.825 -0.8053  0.4407 -0.4381
  745MOL0     H  575   3.646  10.929   0.932 -0.4223  0.1749 -0.6749
  746MOL0     O  576   5.729   1.525  10.985 -0.8311 -0.3956 -0.3816
  746MOL0     C  577   5.627   1.568  11.041 -0.1560 -0.2919 -0.0303
  746MOL0     O  578   5.597   1.545  11.165  0.7708  0.0879  0.2382
  746MOL0     C  579   5.691   1.505  11.264  0.4416 -1.1677  0.6127
  746MOL0     C  580   5.650   1.425  11.364  0.3862  0.7205  0.4847
  746MOL0     C  581   5.727   1.391  11.477 -0.1943 -0.5314 -0.5646
  746MOL0     C  582   5.866   1.425  11.468  0.1246 -0.0109 -0.1228
  746MOL0     O  583   5.936   1.385  11.580  0.3238  0.0503 -0.1576
  746MOL0     C  584   6.050   1.462  11.612  0.1058  0.3102  0.2936
  746MOL0     C  585   6.088   1.436  11.758  0.5760 -0.2807 -1.0031
  746MOL0     C  586   6.165   1.548  11.824 -0.5003  0.0306  0.6162
  746MOL0     C  587   6.297   1.588  11.757 -0.1263  0.6829  0.4001
  746MOL0     C  588   6.356   1.715  11.807  0.4217  0.2907 -0.1759
  746MOL0     C  589   6.374   1.752  11.954  0.5437 -0.6769  0.3466
  746MOL0     C  590   6.242   1.823  12.006 -1.1900  0.2458 -0.6732
  746MOL0     C  591   6.237   1.808  12.159 -0.8111  0.8169 -0.5746
  746MOL0     N  592   6.207   1.675  12.195  0.5485  0.2382  0.0064
  746MOL0     C  593   6.265   1.601  12.285 -0.7475 -0.1299 -0.7255
  746MOL0     C  594   6.194   1.487  12.304  0.4770 -0.2108  0.1480
  746MOL0     C  595   6.264   1.368  12.374  0.2583  0.8213  0.2902
  746MOL0     C  596   6.227   1.361  12.527 -1.2581  0.4663 -0.3609
  746MOL0     C  597   6.328   1.444  12.608  0.0358 -0.6063  1.2036
  746MOL0     C  598   6.463   1.368  12.637 -0.2913  0.0876  0.0643
  746MOL0     O  599   6.471   1.334  12.780  0.1513 -0.0696  0.4760
  746MOL0     C  600   6.601   1.333  12.822 -0.0292 -0.6260 -0.5068
  746MOL0     C  601   6.650   1.221  12.887 -0.7349 -2.1277  0.5462
  746MOL0     C  602   6.785   1.219  12.934 -0.2699 -0.5353  0.1085
  746MOL0     C  603   6.871   1.327  12.920  0.1801 -0.2981  1.0357
  746MOL0     C  604   7.012   1.324  12.961 -0.4372 -0.5484 -0.4110
  746MOL0     O  605   7.089   1.433  12.929 -0.4650 -0.3670 -0.5750
  746MOL0     C  606   7.218   1.457  12.985  0.2475 -0.4640  1.2978
  746MOL0     C  607   7.268   1.590  12.985 -0.2833  0.8196  0.3661
  746MOL0     C  608   7.396   1.624  13.042  0.3945 -0.1231 -0.0155
  746MOL0     C  609   7.484   1.528  13.079  0.1836  0.3849  0.2016
  746MOL0     O  610   7.606   1.559  13.135 -0.8717  0.0149 -0.4889
  746MOL0     C  611   7.698   1.448  13.121 -0.3566 -0.5366 -0.6514
  746MOL0     C  612   7.839   1.500  13.120  0.3326 -0.3216 -0.0364
  746MOL0     C  613   7.942   1.386  13.110 -0.8678  0.0075  1.1513
  746MOL0     C  614   8.090   1.420  13.146  0.6044 -1.4789  0.5662
  746MOL0     C  615   8.174   1.294  13.103  0.2066 -0.8516 -0.2584
  746MOL0     C  616   8.324   1.313  13.128  0.5106  0.5386  0.3766
  746MOL0     C  617   8.395   1.216  13.036  0.2315  0.6419  0.4596
  746MOL0     C  618   8.544   1.190  13.057 -0.7153  0.5763 -0.0707
  746MOL0    Cl  619   8.610   1.091  12.916 -0.1372 -0.8256 -0.0261
  746MOL0     C  620   7.431   1.397  13.079 -1.0172 -0.0720  0.1385
  746MOL0     C  621   7.306   1.361  13.024  0.0229  0.0185 -0.8990
  746MOL0     O  622   7.046   1.234  13.042  0.8127 -0.7685  0.9579
  746MOL0     C  623   6.814   1.448  12.857  0.2990 -0.3091 -0.6822
  746MOL0     C  624   6.675   1.456  12.823 -1.2460  0.1848  0.0201
  746MOL0     N  625   6.082   1.502  12.221  0.9185 -0.4428 -1.0493
  746MOL0     N  626   6.097   1.606  12.153  1.0115  0.1903  0.4437
  746MOL0     C  627   5.920   1.478  11.347  0.5950 -1.1392  0.2293
  746MOL0     C  628   5.826   1.535  11.256 -0.3640  0.1225  0.6154
  746MOL0     C  629   5.532   1.643  10.955  0.4618 -0.2255  0.1432
  746MOL0     C  630   5.397   1.655  10.999 -0.3153 -0.3564  0.6109
  746MOL0     C  631   5.293   1.738  10.940  0.2466 -0.2665  0.3805
  746MOL0     C  632   5.319   1.791  10.815  0.0106  1.2463  0.0495
  746MOL0     O  633   5.211   1.850  10.752  0.7176 -0.1547 -0.0672
  746MOL0     C  634   5.244   1.962  10.671 -0.2206  0.3103 -0.8555
  746MOL0     C  635   5.123   2.032  10.622 -0.0198  0.7111 -0.6666
  746MOL0     C  636   5.040   2.079  10.739  0.0546 -0.2660 -0.7938
  746MOL0     C  637   4.914   2.147  10.687  0.0352  0.2946 -0.0230
  746MOL0     C  638   4.806   2.061  10.631  0.8388  1.3742 -0.2955
  746MOL0     C  639   4.740   1.988  10.552 -0.8705  0.0592 -0.4951
  746MOL0     C  640   5.457   1.787  10.769 -0.0429  0.5604  0.5519
  746MOL0     C  641   5.563   1.717  10.831  0.3043 -0.6173 -0.5975
  746MOL0     C  642   5.691   1.704  10.751  0.4293 -0.1242 -0.3526
  746MOL0     H  643   5.547   1.394  11.358  0.7265 -1.0451  2.3302
  746MOL0     H  644   5.688   1.333  11.560 -1.6753  2.3280  0.8975
  746MOL0     H  645   6.135   1.432  11.549  1.6753  3.4097  0.7806
  746MOL0     H  646   6.039   1.568  11.590  0.5746 -0.0510 -1.9301
  746MOL0     H  647   6.142   1.341  11.770  1.4565  0.3403  0.2077
  746MOL0     H  648   6.011   1.409  11.830  3.1246  0.2814  2.1546
  746MOL0     H  649   6.186   1.528  11.930 -0.3683 -1.7599  0.2892
  746MOL0     H  650   6.095   1.631  11.833  0.1009  0.5341  0.6833
  746MOL0     H  651   6.375   1.512  11.769 -1.6824 -0.8209  1.5961
  746MOL0     H  652   6.297   1.599  11.648 -0.8292 -3.1089 -0.1439
  746MOL0     H  653   6.454   1.729  11.760 -0.2239 -0.4284 -1.8081
  746MOL0     H  654   6.284   1.784  11.763 -0.4248  1.2750  2.5109
  746MOL0     H  655   6.402   1.672  12.024  0.7934  0.5386  1.6896
  746MOL0     H  656   6.462   1.817  11.962  0.9446 -1.1952  0.1540
  746MOL0     H  657   6.156   1.772  11.962 -2.7719  0.8761  1.5413
  746MOL0     H  658   6.224   1.927  11.977 -0.9323  0.4298 -0.1893
  746MOL0     H  659   6.325   1.841  12.214 -0.4374 -1.8998  0.6267
  746MOL0     H  660   6.151   1.866  12.195  0.5944  1.3041  2.2576
  746MOL0     H  661   6.354   1.634  12.337 -2.0524  2.8619 -0.1420
  746MOL0     H  662   6.221   1.278  12.328 -4.0011  3.4031 -1.3857
  746MOL0     H  663   6.372   1.373  12.358  0.2364  2.3087  0.4826
  746MOL0     H  664   6.123   1.393  12.543 -0.8219  1.5904  0.3633
  746MOL0     H  665   6.230   1.257  12.561 -2.5461  0.7692  0.7646
  746MOL0     H  666   6.286   1.501  12.692  3.3747  0.3556  2.4006
  746MOL0     H  667   6.368   1.529  12.552 -3.1772  0.0604 -0.2951
  746MOL0     H  668   6.550   1.424  12.603  0.4813  0.0247  1.8592
  746MOL0     H  669   6.468   1.274  12.580  2.9117 -0.8505  1.6448
  746MOL0     H  670   6.580   1.140  12.894 -1.0681 -2.0237 -1.2186
  746MOL0     H  671   6.820   1.127  12.980  2.2656  1.4420  2.4362
  746MOL0     H  672   7.211   1.671  12.940 -0.3151 -0.4292 -1.9999
  746MOL0     H  673   7.429   1.727  13.035  0.7256 -0.2696 -0.6873
  746MOL0     H  674   7.677   1.392  13.213 -1.8151 -1.2931 -1.4240
  746MOL0     H  675   7.692   1.382  13.035  2.9644  1.0565 -2.3080
  746MOL0     H  676   7.857   1.578  13.045  5.4070  0.1716  1.3032
  746MOL0     H  677   7.848   1.555  13.214  0.0658  0.7523 -0.6183
  746MOL0     H  678   7.909   1.303  13.173  1.1717  0.2371  2.6321
  746MOL0     H  679   7.932   1.347  13.009  1.1386 -0.0085  0.9062
  746MOL0     H  680   8.104   1.448  13.251  3.1433  0.6446 -0.2326
  746MOL0     H  681   8.114   1.512  13.092 -1.5191 -2.4032 -2.2224
  746MOL0     H  682   8.157   1.273  12.997 -2.3844 -0.3078 -0.0389
  746MOL0     H  683   8.139   1.205  13.156  1.2759  0.6050  3.1997
  746MOL0     H  684   8.350   1.414  13.096 -1.1473  0.2942 -1.9686
  746MOL0     H  685   8.359   1.289  13.229 -0.1297 -0.7558  0.3045
  746MOL0     H  686   8.391   1.252  12.933 -1.1512  1.1865  0.6828
  746MOL0     H  687   8.344   1.119  13.030  1.0862  0.2402 -0.4535
  746MOL0     H  688   8.600   1.282  13.074 -0.8748  0.4595  1.1745
  746MOL0     H  689   8.556   1.127  13.145 -2.2474  1.7172  1.0103
  746MOL0     H  690   7.490   1.311  13.107 -5.1924 -2.9413  1.0949
  746MOL0     H  691   7.283   1.256  13.017  4.4133 -1.3317  1.0315
  746MOL0     H  692   6.885   1.528  12.844 -0.2152  0.0023 -1.7125
  746MOL0     H  693   6.630   1.546  12.784 -1.2643 -1.6201 -4.7554
  746MOL0     H  694   6.025   1.488  11.322  0.2422  2.2612 -0.4647
  746MOL0     H  695   5.863   1.596  11.175 -0.9494 -1.8840 -1.2626
  746MOL0     H  696   5.371   1.610  11.094  1.7793  1.7256  2.3098
  746MOL0     H  697   5.193   1.763  10.973 -1.4948 -1.2552 -3.5166
  746MOL0     H  698   5.292   1.925  10.580 -0.9899 -2.2992 -0.2866
  746MOL0     H  699   5.309   2.029  10.728  2.5720 -1.2211 -2.0007
  746MOL0     H  700   5.062   1.964  10.562  0.0043  0.5397 -0.4985
  746MOL0     H  701   5.141   2.120  10.560 -2.2281  0.8239 -1.2388
  746MOL0     H  702   5.104   2.147  10.797 -0.3390  1.2154 -2.0275
  746MOL0     H  703   5.014   2.004  10.815 -1.7668  2.0066  1.0065
  746MOL0     H  704   4.871   2.215  10.761 -0.4905  0.1392 -0.1810
  746MOL0     H  705   4.937   2.210  10.601 -0.5390  0.6174  0.0530
  746MOL0     H  706   4.682   1.918  10.496 -1.4783  0.5660 -0.5197
  746MOL0     H  707   5.470   1.830  10.670 -1.4645 -1.8414 -0.7839
  746MOL0     H  708   5.710   1.785  10.679 -2.9418 -1.0301 -2.4838
  746MOL0     H  709   5.774   1.708  10.823 -0.1276 -0.2113  0.2989
  746MOL0     H  710   5.697   1.607  10.701 -1.9498  0.0959 -1.1617
  747MOL0     O  711   7.694   4.653   2.598  0.1525  0.2599 -0.1858
  747MOL0     C  712   7.682   4.537   2.587  0.0487 -0.7849 -0.3848
  747MOL0     O  713   7.789   4.449   2.577 -0.5810  0.4298 -0.4181
  747MOL0     C  714   7.911   4.451   2.644 -1.1294  0.7971  0.0641
  747MOL0     C  715   7.917   4.526   2.759  0.2495  0.3456  0.5905
  747MOL0     C  716   8.034   4.522   2.842  0.2474 -0.3734 -0.4308
  747MOL0     C  717   8.146   4.453   2.800 -0.0111  0.0084 -0.1297
  747MOL0     O  718   8.265   4.450   2.873 -0.5362 -0.5701  0.2277
  747MOL0     C  719   8.278   4.365   2.982  0.5139  0.3742 -0.1569
  747MOL0     C  720   8.332   4.411   3.114 -0.6846 -0.1871  0.4045
  747MOL0     C  721   8.260   4.538   3.160 -0.0472 -0.0435 -0.0100
  747MOL0     C  722   8.134   4.527   3.239 -0.4559  0.1178 -0.3882
  747MOL0     C  723   8.167   4.441   3.367  0.4919  0.5656 -0.5516
  747MOL0     C  724   8.044   4.426   3.457  0.2045 -0.2284 -0.7173
  747MOL0     C  725   8.058   4.346   3.591 -0.1663 -0.1947 -0.2889
  747MOL0     C  726   8.158   4.413   3.682  0.2742  0.4043 -0.1266
  747MOL0     N  727   8.118   4.374   3.815  0.7394  0.4099 -0.0884
  747MOL0     C  728   8.024   4.449   3.885 -0.4738  0.4787 -0.4055
  747MOL0     C  729   8.014   4.366   3.991  0.2044  0.4033 -0.2363
  747MOL0     C  730   7.915   4.386   4.101  0.0165 -0.4803  0.6884
  747MOL0     C  731   7.900   4.538   4.142 -0.0687 -0.4077 -1.0980
  747MOL0     C  732   7.885   4.558   4.293  0.2482 -0.4211  0.1453
  747MOL0     C  733   7.743   4.531   4.346  1.0213  0.2820 -0.2530
  747MOL0     O  734   7.747   4.562   4.484  0.4950  0.4995 -0.1804
  747MOL0     C  735   7.750   4.464   4.577  0.8701 -0.0342 -0.8916
  747MOL0     C  736   7.707   4.495   4.707  0.7937  0.2840  0.2689
  747MOL0     C  737   7.708   4.398   4.811 -0.0154  0.2285  0.0473
  747MOL0     C  738   7.777   4.275   4.790 -1.0027 -0.2926  0.2612
  747MOL0     C  739   7.798   4.178   4.898  0.4065  0.0306  0.6588
  747MOL0     O  740   7.825   4.051   4.870 -0.0484  0.5392  0.1469
  747MOL0     C  741   7.835   3.951   4.963 -0.1233 -0.0371 -0.7497
  747MOL0     C  742   7.810   3.952   5.103  0.3739  0.1760  1.0816
  747MOL0     C  743   7.821   3.834   5.187 -0.3397 -0.0486  0.6459
  747MOL0     C  744   7.863   3.714   5.126  0.9664  0.5235 -1.0540
  747MOL0     O  745   7.865   3.603   5.207 -0.7698  0.1207  0.0126
  747MOL0     C  746   7.989   3.525   5.186  0.1687  0.5656 -0.3813
  747MOL0     C  747   7.995   3.403   5.274 -0.2400 -0.8233  0.8073
  747MOL0     C  748   8.075   3.283   5.214 -0.7700  0.1702  0.6630
  747MOL0     C  749   8.071   3.174   5.313 -0.0166 -0.6882 -0.7847
  747MOL0     C  750   8.099   3.041   5.251  0.2121 -0.1937  0.4073
  747MOL0     C  751   8.229   3.034   5.169 -0.7844 -0.1384 -0.6368
  747MOL0     C  752   8.212   2.947   5.043  0.3637  0.8395 -0.1120
  747MOL0     C  753   8.343   2.915   4.968 -0.4868  0.0653 -0.0504
  747MOL0    Cl  754   8.429   3.069   4.935  0.0128  0.3235 -0.1583
  747MOL0     C  755   7.880   3.705   4.986  0.9879 -0.2567 -0.5796
  747MOL0     C  756   7.860   3.820   4.906 -1.3127  0.2398 -0.0863
  747MOL0     O  757   7.784   4.234   5.009  0.1556  0.1629  0.2704
  747MOL0     C  758   7.828   4.243   4.667  0.6185  0.2593 -0.3016
  747MOL0     C  759   7.806   4.335   4.559 -0.3244 -0.2432 -0.5520
  747MOL0     N  760   8.105   4.261   3.993 -0.2590  0.2351 -0.4732
  747MOL0     N  761   8.164   4.271   3.888 -0.6802 -0.1764 -0.2216
  747MOL0     C  762   8.136   4.367   2.685  0.4328 -1.3502  0.0361
  747MOL0     C  763   8.019   4.368   2.605  0.3641  0.7497 -0.6374
  747MOL0     C  764   7.542   4.498   2.529 -0.6766  0.1069 -0.4309
  747MOL0     C  765   7.526   4.363   2.509  0.3590  0.3473 -0.0651
  747MOL0     C  766   7.399   4.314   2.466  0.2649  0.7750  0.1776
  747MOL0     C  767   7.295   4.397   2.424 -0.3385  0.2205  0.2085
  747MOL0     O  768   7.175   4.360   2.378  0.8849 -0.1191  0.6406
  747MOL0     C  769   7.138   4.218   2.360 -0.1763 -0.5917 -0.3866
  747MOL0     C  770   7.050   4.188   2.234  0.3809 -0.5866  0.3293
  747MOL0     C  771   7.110   4.256   2.098  0.4072  0.7003 -0.3658
  747MOL0     C  772   7.210   4.157   2.051  0.4521 -0.4904 -0.1740
  747MOL0     C  773   7.276   4.207   1.929  0.4665 -0.2572  0.6366
  747MOL0     C  774   7.343   4.257   1.840  0.3765 -0.1682 -0.1864
  747MOL0     C  775   7.317   4.528   2.456 -0.8418  0.1778 -0.0153
  747MOL0     C  776   7.433   4.592   2.500  0.1954  0.5529  0.9919
  747MOL0     C  777   7.430   4.738   2.532  0.5007 -0.4865 -0.4880
  747MOL0     H  778   7.828   4.582   2.786 -0.6155  0.1488 -1.6814
  747MOL0     H  779   8.030   4.576   2.936  2.2901 -0.0217 -0.4968
  747MOL0     H  780   8.176   4.336   3.009 -0.5340  2.4111 -1.6828
  747MOL0     H  781   8.323   4.269   2.952 -2.6917 -2.1865  2.4217
  747MOL0     H  782   8.439   4.437   3.107 -1.3512  2.6137 -0.8567
  747MOL0     H  783   8.311   4.331   3.186 -0.4019  1.0530  1.9145
  747MOL0     H  784   8.236   4.602   3.074 -1.2094  0.8763  0.9565
  747MOL0     H  785   8.326   4.601   3.220  2.4919 -2.1884 -0.3763
  747MOL0     H  786   8.091   4.624   3.266 -0.0950  1.8497 -5.0747
  747MOL0     H  787   8.058   4.495   3.168 -1.1051  1.6663 -0.4319
  747MOL0     H  788   8.173   4.336   3.335 -2.1672  0.4608 -0.9235
  747MOL0     H  789   8.263   4.461   3.415  0.7521 -1.7807  0.0593
  747MOL0     H  790   8.019   4.527   3.490 -1.7638 -0.7406 -0.5057
  747MOL0     H  791   7.953   4.391   3.407  0.4291  2.3971 -3.1897
  747MOL0     H  792   8.083   4.240   3.581  1.5510  0.0380  0.9623
  747MOL0     H  793   7.963   4.347   3.645  0.1788 -1.2521  0.3698
  747MOL0     H  794   8.259   4.384   3.651 -0.1927  0.7102 -2.0928
  747MOL0     H  795   8.165   4.522   3.671  1.8604  0.3885  0.4455
  747MOL0     H  796   7.960   4.532   3.858 -1.3746 -0.4618 -1.2630
  747MOL0     H  797   7.816   4.347   4.074  0.1798  0.0846 -0.7657
  747MOL0     H  798   7.945   4.318   4.182 -1.3511 -0.8028  0.9559
  747MOL0     H  799   7.988   4.598   4.115  1.2281 -0.8036  1.8079
  747MOL0     H  800   7.812   4.574   4.089  0.7240  1.1082 -1.4379
  747MOL0     H  801   7.905   4.663   4.313 -1.2246  0.1231 -1.0559
  747MOL0     H  802   7.966   4.502   4.342  2.2504  0.4660 -1.9742
  747MOL0     H  803   7.721   4.425   4.337  1.0666  0.1960  0.5450
  747MOL0     H  804   7.660   4.590   4.306 -0.3039 -1.6804 -0.5009
  747MOL0     H  805   7.628   4.569   4.721 -2.4431 -2.2638 -2.6323
  747MOL0     H  806   7.656   4.410   4.906 -2.0517  0.4417 -1.0363
  747MOL0     H  807   7.774   4.037   5.160  0.7661 -0.2926  2.0412
  747MOL0     H  808   7.792   3.822   5.291  0.7042  3.2194  1.4448
  747MOL0     H  809   8.003   3.486   5.085  1.4201  0.4392 -0.1730
  747MOL0     H  810   8.078   3.581   5.214  0.6540  0.6294 -1.9380
  747MOL0     H  811   8.036   3.437   5.370  1.9351 -0.2993 -0.2466
  747MOL0     H  812   7.892   3.368   5.283 -0.6909  0.1971 -0.1090
  747MOL0     H  813   8.032   3.266   5.115 -1.6768  1.4681  0.8114
  747MOL0     H  814   8.179   3.318   5.209 -1.2506  2.0200  2.3595
  747MOL0     H  815   7.977   3.177   5.368  0.5188  0.8388  0.1088
  747MOL0     H  816   8.151   3.197   5.384  0.6241  2.2388 -2.3266
  747MOL0     H  817   8.016   3.019   5.183 -0.9090  1.0740  1.3228
  747MOL0     H  818   8.105   2.966   5.331  1.1704 -0.5176  0.0449
  747MOL0     H  819   8.264   3.136   5.152 -2.9741  0.6897 -0.4652
  747MOL0     H  820   8.296   2.987   5.241 -0.4588  0.4853 -0.5337
  747MOL0     H  821   8.151   3.003   4.972  0.8806 -0.9036 -2.0492
  747MOL0     H  822   8.159   2.854   5.067  0.8913  0.5077 -0.2313
  747MOL0     H  823   8.407   2.847   5.025 -1.4317  0.3950  1.4767
  747MOL0     H  824   8.311   2.851   4.885  0.3953  1.4382 -1.4850
  747MOL0     H  825   7.901   3.609   4.940  0.5909 -0.0644 -1.1766
  747MOL0     H  826   7.885   3.813   4.801  1.2709  3.1250  0.2044
  747MOL0     H  827   7.891   4.155   4.661  0.7360  0.2312  1.0925
  747MOL0     H  828   7.835   4.301   4.461  1.0337 -1.8100  0.3322
  747MOL0     H  829   8.226   4.310   2.664  2.2157 -0.4707  4.0861
  747MOL0     H  830   8.017   4.308   2.515 -2.0970 -1.7933  0.9663
  747MOL0     H  831   7.609   4.296   2.530 -0.4380  0.2430  3.3629
  747MOL0     H  832   7.397   4.206   2.463 -0.2689  0.7366  1.3481
  747MOL0     H  833   7.101   4.177   2.454 -0.9903  0.5113 -0.2006
  747MOL0     H  834   7.237   4.173   2.349  0.8457  0.9233  1.8518
  747MOL0     H  835   6.957   4.241   2.257 -0.2605 -0.5187 -2.1661
  747MOL0     H  836   7.024   4.083   2.218 -1.7107 -0.3253  1.6544
  747MOL0     H  837   7.149   4.355   2.124 -2.6356  1.5304  1.6863
  747MOL0     H  838   7.034   4.276   2.022  0.5342  3.3711  0.1084
  747MOL0     H  839   7.287   4.150   2.128  1.6236  1.4752 -1.0764
  747MOL0     H  840   7.162   4.060   2.037  0.5935 -0.4888 -0.6993
  747MOL0     H  841   7.390   4.318   1.766  0.4733 -1.2850 -1.0729
  747MOL0     H  842   7.227   4.587   2.468 -0.3956  0.3985  2.8346
  747MOL0     H  843   7.335   4.780   2.498  0.6448 -0.7425 -1.2275
  747MOL0     H  844   7.442   4.760   2.639  2.3398  1.3962 -1.0214
  747MOL0     H  845   7.510   4.799   2.488 -1.2277  3.2662  1.1472
  748MOL0     O  846  10.515  11.128   8.678  0.8391  0.0067  0.4075
  748MOL0     C  847  10.416  11.070   8.724 -0.8913  0.3641 -0.5297
  748MOL0     O  848  10.406  11.033   8.855 -0.8770  0.2474 -0.2698
  748MOL0     C  849  10.525  11.041   8.937 -0.4173 -0.6123  0.2466
  748MOL0     C  850  10.644  10.971   8.897  0.3352 -0.8252 -0.6305
  748MOL0     C  851  10.740  10.946   8.987 -0.7607  0.9644  1.1537
  748MOL0     C  852  10.735  10.986   9.125 -0.0935  0.2429 -0.2823
  748MOL0     O  853  10.844  10.973   9.200 -0.3214 -0.4107 -0.0400
  748MOL0     C  854  10.849  11.041   9.330 -0.2070  1.0120  0.0797
  748MOL0     C  855  10.989  11.074   9.384 -1.1859  0.2685  0.2020
  748MOL0     C  856  11.073  11.171   9.296  0.1574  0.4617  0.3038
  748MOL0     C  857  11.177  11.093   9.212  0.2969  0.0119  0.2984
  748MOL0     C  858  11.150  11.075   9.062  0.7361 -0.5161 -0.8846
  748MOL0     C  859  11.247  10.995   8.973 -0.2177  0.7101  0.6944
  748MOL0     C  860  11.367  11.082   8.944 -0.3643  0.2112 -0.5524
  748MOL0     C  861  11.471  11.015   8.853 -0.0045  0.0385  0.1361
  748MOL0     N  862  11.571  11.112   8.808 -0.6608 -0.2335  1.2067
  748MOL0     C  863  11.597  11.142   8.675 -0.2662 -0.0822 -1.1731
  748MOL0     C  864  11.708  11.216   8.685  0.7629 -0.9030  0.1466
  748MOL0     C  865  11.772  11.300   8.583  0.5527  0.4348  0.6872
  748MOL0     C  866  11.828  11.204   8.475  0.6121  0.3823 -0.4600
  748MOL0     C  867  11.742  11.208   8.344  0.6045  0.4856  0.3680
  748MOL0     C  868  11.819  11.161   8.225 -0.1429 -0.7443 -0.1261
  748MOL0     O  869  11.835  11.019   8.229  0.0020  0.6368  0.4161
  748MOL0     C  870  11.917  10.946   8.146  0.7640 -0.5515 -0.2986
  748MOL0     C  871  11.908  10.806   8.159 -1.2021 -0.2229 -0.5946
  748MOL0     C  872  11.981  10.708   8.088  0.7643 -0.4613  0.8675
  748MOL0     C  873  12.091  10.766   8.022  0.3183 -0.0360  0.7224
  748MOL0     C  874  12.206  10.687   7.972 -0.6641 -0.7319  0.0549
  748MOL0     O  875  12.206  10.556   8.011  0.1393 -0.0559 -0.3302
  748MOL0     C  876  12.309  10.465   7.986  0.8210 -0.0250  0.2013
  748MOL0     C  877  12.414  10.475   7.901 -0.4495  0.6502  0.0095
  748MOL0     C  878  12.490  10.362   7.864 -0.7889  0.2524  0.8504
  748MOL0     C  879  12.478  10.229   7.909 -0.6493  0.0057 -0.8425
  748MOL0     O  880  12.559  10.126   7.868  0.0503 -0.6709  0.5330
  748MOL0     C  881  12.549   9.996   7.927  0.6172  0.2772 -0.5274
  748MOL0     C  882  12.648   9.901   7.865 -0.8372 -0.0833  0.2657
  748MOL0     C  883  12.634   9.762   7.928  0.4601  0.7753 -0.2991
  748MOL0     C  884  12.694   9.657   7.846 -0.5349 -0.7144 -0.2103
  748MOL0     C  885  12.672   9.516   7.905  0.7729  1.0115 -0.0826
  748MOL0     C  886  12.789   9.418   7.862  0.3175  0.2958 -1.1516
  748MOL0     C  887  12.923   9.446   7.932 -0.4044  1.0260 -0.9168
  748MOL0     C  888  12.931   9.388   8.077 -0.4148  0.2655 -0.5578
  748MOL0    Cl  889  12.982   9.220   8.088 -0.0705 -0.4223 -0.0934
  748MOL0     C  890  12.373  10.216   8.003  0.6133 -0.1419 -0.0910
  748MOL0     C  891  12.295  10.330   8.040  0.1447  0.3960  0.2053
  748MOL0     O  892  12.283  10.734   7.889  0.4802 -0.3056  0.5419
  748MOL0     C  893  12.107  10.906   8.002 -0.0618 -0.2536  0.4555
  748MOL0     C  894  12.012  10.996   8.057  0.5190 -0.2552  0.8757
  748MOL0     N  895  11.754  11.231   8.813 -0.7226  0.5673  0.0456
  748MOL0     N  896  11.672  11.166   8.882  0.0219 -0.3759 -0.5805
  748MOL0     C  897  10.617  11.039   9.166 -0.4773  0.0822 -0.0718
  748MOL0     C  898  10.511  11.075   9.069 -0.9964  0.0432 -0.8134
  748MOL0     C  899  10.294  11.039   8.647  0.6856  0.5890 -1.0346
  748MOL0     C  900  10.208  10.944   8.699 -0.2080 -0.4866 -0.7671
  748MOL0     C  901  10.081  10.923   8.642 -0.2045  0.2433  0.7063
  748MOL0     C  902  10.044  10.991   8.520 -0.2893  0.5051  0.0853
  748MOL0     O  903   9.927  10.986   8.450  0.1508 -0.7570 -0.9174
  748MOL0     C  904   9.819  10.904   8.495 -0.3510  0.2806 -1.1180
  748MOL0     C  905   9.712  10.889   8.389 -0.0824 -0.0624 -0.6712
  748MOL0     C  906   9.577  10.837   8.444 -0.3815 -0.3486  0.3584
  748MOL0     C  907   9.472  10.802   8.332 -0.1423  0.2597 -0.9206
  748MOL0     C  908   9.369  10.700   8.375  0.5865 -0.6039 -0.7319
  748MOL0     C  909   9.304  10.604   8.409  0.3149  0.8106 -0.9023
  748MOL0     C  910  10.140  11.070   8.468 -0.1524 -0.1857  0.0880
  748MOL0     C  911  10.265  11.085   8.516  0.2973 -0.2803 -0.0431
  748MOL0     C  912  10.347  11.190   8.445  0.3245 -0.5724  0.3060
  748MOL0     H  913  10.654  10.928   8.798 -0.6701  1.1075 -1.6305
  748MOL0     H  914  10.830  10.889   8.964 -1.5356 -0.9056  2.5779
  748MOL0     H  915  10.798  11.137   9.330  0.5371  1.4177  0.3546
  748MOL0     H  916  10.791  10.981   9.400  0.9182  1.2139  1.2274
  748MOL0     H  917  11.050  10.990   9.418 -1.3828 -0.3043 -0.8246
  748MOL0     H  918  10.960  11.124   9.477 -2.4877 -1.6262  0.8751
  748MOL0     H  919  11.145  11.231   9.354  1.4391 -1.1671  0.4521
  748MOL0     H  920  11.007  11.228   9.230 -1.5619  0.9287  2.2862
  748MOL0     H  921  11.267  11.155   9.207 -0.7637  1.6054  0.0408
  748MOL0     H  922  11.208  11.002   9.265  0.0046  0.5714  1.4705
  748MOL0     H  923  11.049  11.033   9.055  1.5398 -2.5739 -0.9798
  748MOL0     H  924  11.132  11.174   9.019  0.8576  0.4990  1.2738
  748MOL0     H  925  11.276  10.903   9.024 -1.7241  0.2536  0.7937
  748MOL0     H  926  11.206  10.959   8.878  0.0823  2.1341 -0.0155
  748MOL0     H  927  11.421  11.120   9.031  2.5641  0.4029 -2.3087
  748MOL0     H  928  11.329  11.167   8.886 -0.4964  1.2773  1.0494
  748MOL0     H  929  11.515  10.925   8.897  2.5905  0.7157 -0.9260
  748MOL0     H  930  11.432  10.977   8.758  2.5822 -1.4807 -0.4266
  748MOL0     H  931  11.553  11.112   8.580 -1.4672  0.0839 -0.6772
  748MOL0     H  932  11.702  11.373   8.543 -0.3639 -0.2321  1.0355
  748MOL0     H  933  11.861  11.348   8.625 -0.5052  0.8662  2.5896
  748MOL0     H  934  11.931  11.227   8.444  1.1215 -1.1825  0.0105
  748MOL0     H  935  11.829  11.101   8.512 -4.5095  0.7353  1.4538
  748MOL0     H  936  11.710  11.307   8.312  1.4254  0.6781  0.1324
  748MOL0     H  937  11.652  11.148   8.360  0.7070  0.2855  0.2006
  748MOL0     H  938  11.910  11.220   8.210 -0.4855 -0.1527  0.0747
  748MOL0     H  939  11.752  11.187   8.143  0.5208 -1.2550 -0.8351
  748MOL0     H  940  11.837  10.777   8.236 -0.9169  1.9846  0.5778
  748MOL0     H  941  11.967  10.604   8.117  2.2748 -2.1426 -3.4541
  748MOL0     H  942  12.441  10.575   7.867  0.8486  0.6523  0.9715
  748MOL0     H  943  12.571  10.379   7.793  1.7731 -3.1705  2.6361
  748MOL0     H  944  12.578  10.009   8.032  0.7866  1.2733 -0.6867
  748MOL0     H  945  12.444   9.969   7.915  0.8807  0.0286 -2.6043
  748MOL0     H  946  12.642   9.907   7.756 -0.6227  1.6027  0.3169
  748MOL0     H  947  12.745   9.939   7.898 -1.5802  1.6674  0.5342
  748MOL0     H  948  12.671   9.763   8.031 -3.8422 -0.5502  1.5083
  748MOL0     H  949  12.528   9.740   7.942  1.1027 -0.9255  2.9885
  748MOL0     H  950  12.800   9.681   7.862 -0.3458 -1.5927 -0.1212
  748MOL0     H  951  12.674   9.657   7.738 -1.6064  1.8013 -0.0870
  748MOL0     H  952  12.571   9.480   7.885  0.3597  1.1181  1.6246
  748MOL0     H  953  12.670   9.533   8.013 -1.7902  2.7509 -0.3119
  748MOL0     H  954  12.757   9.315   7.881  0.3847  0.4178 -0.3267
  748MOL0     H  955  12.803   9.434   7.755 -0.6883 -1.6452 -1.6370
  748MOL0     H  956  12.944   9.553   7.923  1.6240  0.7726  0.2295
  748MOL0     H  957  13.001   9.385   7.885  1.1785  0.4538  2.1876
  748MOL0     H  958  13.018   9.439   8.120  1.5440 -3.2510  0.0081
  748MOL0     H  959  12.851   9.414   8.146  0.5952  1.4309  0.2311
  748MOL0     H  960  12.344  10.121   8.046 -1.8974  0.5495 -0.1219
  748MOL0     H  961  12.209  10.306   8.101 -1.2209  0.3614 -1.6231
  748MOL0     H  962  12.191  10.952   7.951 -1.0669 -1.3757 -2.4703
  748MOL0     H  963  12.027  11.102   8.041  1.7104 -0.7716 -1.9162
  748MOL0     H  964  10.580  11.052   9.268 -1.6210 -1.0922 -0.3185
  748MOL0     H  965  10.415  11.114   9.100 -1.0022  2.4509 -3.4518
  748MOL0     H  966  10.220  10.890   8.793  0.4101 -0.8208 -1.0313
  748MOL0     H  967  10.009  10.854   8.684 -0.9279  1.9207  2.3579
  748MOL0     H  968   9.779  10.940   8.591 -0.8922 -1.3568 -0.7054
  748MOL0     H  969   9.854  10.802   8.510 -1.7792 -0.2797 -1.4304
  748MOL0     H  970   9.751  10.825   8.308 -0.8747 -1.1595 -0.2106
  748MOL0     H  971   9.700  10.989   8.347  0.0587  1.2186  2.1573
  748MOL0     H  972   9.538  10.911   8.514 -1.6708 -0.5293 -0.1394
  748MOL0     H  973   9.610  10.747   8.496 -1.8598 -0.6752  0.7880
  748MOL0     H  974   9.427  10.898   8.304  0.1703  0.0185 -2.3239
  748MOL0     H  975   9.526  10.768   8.243 -0.5994 -0.8754 -0.7744
  748MOL0     H  976   9.269  10.511   8.447 -0.2203  1.6474  0.7416
  748MOL0     H  977  10.119  11.112   8.370  1.7828 -1.3164 -0.8654
  748MOL0     H  978  10.452  11.161   8.436  0.6805  0.7710 -0.2058
  748MOL0     H  979  10.311  11.227   8.348 -1.3031  1.4227  1.5684
  748MOL0     H  980  10.355  11.282   8.505  2.9098 -1.5777  1.6977
  749MOL0     O  981   9.006   7.863   3.865 -0.6595  0.1462 -0.0348
  749MOL0     C  982   8.964   7.768   3.797  0.5096  0.6053  0.3602
  749MOL0     O  983   9.023   7.701   3.697  0.5045  0.2154 -0.0177
  749MOL0     C  984   9.149   7.748   3.652  0.4631  1.0202 -0.1674
  749MOL0     C  985   9.174   7.809   3.533 -0.5821  0.1705 -0.7639
  749MOL0     C  986   9.300   7.848   3.486  0.1032  0.1492  0.7209
  749MOL0     C  987   9.411   7.832   3.571  0.4514 -0.4425 -0.1486
  749MOL0     O  988   9.537   7.870   3.534  0.3127 -0.2302  0.2419
  749MOL0     C  989   9.562   7.949   3.421 -0.6133  0.5147 -0.5793
  749MOL0     C  990   9.704   7.994   3.399 -0.1253  0.8036  0.1514
  749MOL0     C  991   9.786   7.884   3.338 -0.1344 -0.4826 -0.2787
  749MOL0     C  992   9.938   7.894   3.399 -0.7321  0.7448  0.2410
  749MOL0     C  993  10.048   7.788   3.353  0.4018 -0.1862  1.2010
  749MOL0     C  994   9.980   7.646   3.363 -0.1675  0.3227 -0.3056
  749MOL0     C  995  10.076   7.525   3.301  0.3923 -0.2262 -0.2031
  749MOL0     C  996  10.061   7.515   3.149 -0.6298  0.2697 -0.2815
  749MOL0     N  997  10.140   7.399   3.103  0.4114 -0.6008  0.9845
  749MOL0     C  998  10.094   7.315   3.005  0.3011  0.8044  0.3934
  749MOL0     C  999  10.204   7.253   2.969  0.7093 -0.4063 -0.1183
  749MOL0     C 1000  10.212   7.143   2.867  0.1908  0.1013  0.6040
  749MOL0     C 1001  10.365   7.127   2.826  0.9245  0.4004  0.2482
  749MOL0     C 1002  10.401   7.036   2.705  0.6769 -0.0182 -0.7127
  749MOL0     C 1003  10.324   6.902   2.713 -1.2525  0.8863  0.5488
  749MOL0     O 1004  10.361   6.832   2.837 -0.1509 -0.8256  0.4664
  749MOL0     C 1005  10.273   6.778   2.923  0.1352 -0.1293  0.4007
  749MOL0     C 1006  10.293   6.792   3.064 -0.7081  0.2746  0.0456
  749MOL0     C 1007  10.206   6.737   3.158 -0.4003  0.4730  0.2122
  749MOL0     C 1008  10.086   6.667   3.110 -0.1120  0.0863 -0.5603
  749MOL0     C 1009   9.978   6.633   3.202  0.6678  0.8498  0.2146
  749MOL0     O 1010   9.982   6.684   3.326 -0.2096 -0.1932  0.3813
  749MOL0     C 1011   9.874   6.674   3.407  0.2476 -1.2705 -0.2738
  749MOL0     C 1012   9.887   6.621   3.533 -1.0177 -0.1570  0.5494
  749MOL0     C 1013   9.773   6.599   3.617  0.2381  0.3076  0.3031
  749MOL0     C 1014   9.645   6.637   3.579  0.1372  0.5749  0.2648
  749MOL0     O 1015   9.542   6.625   3.669 -0.5597 -0.3287  0.1423
  749MOL0     C 1016   9.420   6.570   3.625  0.0486 -0.0574 -0.4735
  749MOL0     C 1017   9.426   6.419   3.629  0.1467 -0.3044 -0.2073
  749MOL0     C 1018   9.465   6.356   3.765 -0.0306 -0.4950  0.8497
  749MOL0     C 1019   9.395   6.420   3.889  1.0377 -0.1109 -0.6285
  749MOL0     C 1020   9.241   6.376   3.884  0.2641  0.1091  0.1271
  749MOL0     C 1021   9.219   6.228   3.915 -0.0400 -0.1578 -0.1107
  749MOL0     C 1022   9.082   6.168   3.882 -0.6560 -0.5432 -0.1778
  749MOL0     C 1023   9.048   6.058   3.978 -0.6441 -0.4384 -0.4857
  749MOL0    Cl 1024   8.884   5.997   3.950 -0.0211 -0.2725  0.1660
  749MOL0     C 1025   9.632   6.703   3.455  0.2620 -0.1000 -0.5350
  749MOL0     C 1026   9.747   6.723   3.370 -0.4503 -0.3158 -0.6187
  749MOL0     O 1027   9.895   6.552   3.159  0.1688 -0.8967 -0.0621
  749MOL0     C 1028  10.068   6.666   2.969  0.0097 -0.9452 -0.3155
  749MOL0     C 1029  10.159   6.708   2.876  0.1356 -0.1271  0.1042
  749MOL0     N 1030  10.312   7.299   3.037 -0.6101  0.0187 -0.1727
  749MOL0     N 1031  10.275   7.382   3.124 -0.0609  0.1322  0.5622
  749MOL0     C 1032   9.387   7.789   3.703 -0.0064  0.2260 -0.4518
  749MOL0     C 1033   9.257   7.738   3.738 -0.0484  0.7560  0.3714
  749MOL0     C 1034   8.820   7.729   3.821 -0.2715 -0.6559 -0.1569
  749MOL0     C 1035   8.754   7.642   3.725 -1.3093  0.5760 -0.1690
  749MOL0     C 1036   8.638   7.582   3.760  0.6656 -0.6741  0.8782
  749MOL0     C 1037   8.586   7.582   3.893 -0.0145 -0.2245 -0.7509
  749MOL0     O 1038   8.461   7.521   3.919  0.7873 -0.1179  0.8841
  749MOL0     C 1039   8.366   7.605   3.982  1.1329  0.6096 -0.8847
  749MOL0     C 1040   8.333   7.560   4.125 -0.4022  0.5061  0.5257
  749MOL0     C 1041   8.282   7.415   4.130  0.4004  0.0159 -0.4402
  749MOL0     C 1042   8.277   7.365   4.274  0.4167 -0.3618  0.7519
  749MOL0     C 1043   8.170   7.269   4.286  0.0596  0.4806 -0.3946
  749MOL0     C 1044   8.094   7.180   4.294  0.9092  0.3963  0.2128
  749MOL0     C 1045   8.641   7.678   3.985  0.0480  0.7779 -0.6977
  749MOL0     C 1046   8.757   7.743   3.954  0.2975 -0.1562  0.4863
  749MOL0     C 1047   8.815   7.822   4.066 -0.4018 -0.2802 -0.3646
  749MOL0     H 1048   9.084   7.845   3.485 -1.4229 -1.1105 -0.2073
  749MOL0     H 1049   9.293   7.888   3.386  1.0741 -1.3829  0.0025
  749MOL0     H 1050   9.512   7.902   3.336 -0.0885  0.6854 -0.9827
  749MOL0     H 1051   9.505   8.042   3.425  1.1940  1.6414  0.1460
  749MOL0     H 1052   9.744   8.032   3.493 -2.5391  1.9811  0.7730
  749MOL0     H 1053   9.701   8.077   3.327 -1.9230 -0.0716 -0.8372
  749MOL0     H 1054   9.798   7.894   3.230  1.4791  1.0728  0.0013
  749MOL0     H 1055   9.740   7.788   3.365  0.6000 -0.5817  0.6578
  749MOL0     H 1056   9.980   7.995   3.398  0.2489  0.4927  3.3790
  749MOL0     H 1057   9.925   7.863   3.503 -0.3261 -3.8773 -0.8760
  749MOL0     H 1058  10.074   7.820   3.252 -0.2987 -0.5313  0.9022
  749MOL0     H 1059  10.135   7.798   3.418 -0.3370  0.8440  2.0666
  749MOL0     H 1060   9.945   7.626   3.465  0.3891 -0.6305 -0.2902
  749MOL0     H 1061   9.894   7.642   3.296 -1.8894 -0.2195  1.8047
  749MOL0     H 1062  10.042   7.428   3.337  1.5452 -0.6115 -0.1192
  749MOL0     H 1063  10.177   7.545   3.336 -0.4400  2.7763  0.7676
  749MOL0     H 1064   9.954   7.499   3.134 -0.6134 -2.3954  1.6394
  749MOL0     H 1065  10.098   7.602   3.094  1.0125 -0.0255  0.2863
  749MOL0     H 1066   9.995   7.290   2.969  0.0079 -2.7432  3.0646
  749MOL0     H 1067  10.153   7.053   2.887  2.2785 -1.0361  2.0372
  749MOL0     H 1068  10.165   7.185   2.778 -1.0493  0.7302  1.5251
  749MOL0     H 1069  10.402   7.227   2.802 -0.6956  0.8045 -0.7984
  749MOL0     H 1070  10.425   7.097   2.912  2.9131  2.0235 -0.4938
  749MOL0     H 1071  10.508   7.014   2.703  1.6030  3.5658 -4.6997
  749MOL0     H 1072  10.372   7.107   2.628  2.2170  0.8192 -0.5592
  749MOL0     H 1073  10.363   6.838   2.634 -0.0210 -0.7018  2.3598
  749MOL0     H 1074  10.215   6.910   2.709 -1.0847  3.8912 -0.0878
  749MOL0     H 1075  10.376   6.848   3.105  1.3386 -3.3876  1.4279
  749MOL0     H 1076  10.211   6.746   3.266 -1.3246  1.4521  0.1849
  749MOL0     H 1077   9.991   6.598   3.554 -1.2204 -1.3075  0.3390
  749MOL0     H 1078   9.774   6.552   3.714 -1.6634 -2.8191 -1.0586
  749MOL0     H 1079   9.337   6.614   3.681  0.8489  3.3831 -1.7110
  749MOL0     H 1080   9.408   6.596   3.519  2.1022 -1.7607 -1.1727
  749MOL0     H 1081   9.323   6.396   3.599  0.1883 -0.0049 -0.5806
  749MOL0     H 1082   9.486   6.379   3.547 -0.8797  2.4888 -2.4926
  749MOL0     H 1083   9.433   6.253   3.747  3.5415 -1.5755 -0.0975
  749MOL0     H 1084   9.574   6.354   3.768  0.0462 -0.1507 -0.7758
  749MOL0     H 1085   9.399   6.529   3.895  1.4145 -0.1787  0.5426
  749MOL0     H 1086   9.437   6.377   3.981 -0.6289  3.3123  1.9609
  749MOL0     H 1087   9.204   6.385   3.781  1.1262 -1.6553 -0.3817
  749MOL0     H 1088   9.177   6.440   3.946 -2.2250  1.8060 -3.7811
  749MOL0     H 1089   9.296   6.169   3.863  1.3447  1.4037  0.0680
  749MOL0     H 1090   9.246   6.210   4.019  2.1087 -1.5867 -0.8403
  749MOL0     H 1091   9.071   6.139   3.777  1.2040 -0.8251 -0.3249
  749MOL0     H 1092   9.001   6.236   3.909 -1.0783 -1.0892 -0.0543
  749MOL0     H 1093   9.107   5.971   3.947 -1.8547 -1.3680 -0.3051
  749MOL0     H 1094   9.071   6.088   4.080  0.7175 -1.8453 -0.3445
  749MOL0     H 1095   9.530   6.723   3.424 -0.1954 -0.9382  0.3643
  749MOL0     H 1096   9.733   6.775   3.275 -0.3845  3.2879  1.1691
  749MOL0     H 1097   9.972   6.632   2.931 -0.7890  2.8723 -2.1635
  749MOL0     H 1098  10.136   6.698   2.771  0.1451  2.4343 -0.2084
  749MOL0     H 1099   9.468   7.798   3.775  0.6834  1.9019 -1.3677
  749MOL0     H 1100   9.246   7.688   3.834 -2.7147 -1.6072 -1.0276
  749MOL0     H 1101   8.788   7.611   3.626  0.5024 -2.0785  1.1801
  749MOL0     H 1102   8.579   7.547   3.677 -1.0753  2.2820  0.7282
  749MOL0     H 1103   8.274   7.607   3.922  0.1688  0.5211  0.5460
  749MOL0     H 1104   8.392   7.710   3.992  2.6395  0.0147  3.1398
  749MOL0     H 1105   8.263   7.632   4.169  0.7328  3.0280 -1.5142
  749MOL0     H 1106   8.425   7.567   4.184  0.3229 -1.9627 -0.2145
  749MOL0     H 1107   8.347   7.352   4.070 -1.6487 -2.9707  0.2276
  749MOL0     H 1108   8.179   7.411   4.092 -0.8236 -3.6234  2.6442
  749MOL0     H 1109   8.376   7.328   4.303  0.2211 -1.0991  0.5096
  749MOL0     H 1110   8.248   7.445   4.344  1.8515  1.8908 -1.0961
  749MOL0     H 1111   8.018   7.104   4.306  0.6660  0.5328 -0.4658
  749MOL0     H 1112   8.605   7.679   4.087  3.8707 -2.3857  0.9353
  749MOL0     H 1113   8.823   7.924   4.027 -2.0464 -0.6654 -1.8738
  749MOL0     H 1114   8.749   7.824   4.153 -0.3079  1.0903 -0.3057
  749MOL0     H 1115   8.915   7.788   4.093 -1.2342 -2.2262  0.4340
  750MOL0     O 1116   7.310   2.025   4.325 -0.2011 -0.1364  0.4645
  750MOL0     C 1117   7.427   2.066   4.329 -0.7345 -0.4843  0.3550
  750MOL0     O 1118   7.469   2.150   4.435 -0.3049  0.0230 -0.9360
  750MOL0     C 1119   7.370   2.221   4.487 -0.4412 -0.7961 -0.4280
  750MOL0     C 1120   7.309   2.187   4.614 -0.5902 -0.1548 -0.5587
  750MOL0     C 1121   7.209   2.271   4.672  0.0809 -0.3485 -0.0820
  750MOL0     C 1122   7.166   2.385   4.607 -0.7990 -1.0194  0.3339
  750MOL0     O 1123   7.073   2.464   4.675 -0.7063 -0.8172  0.3430
  750MOL0     C 1124   6.939   2.446   4.628 -0.2855 -0.0873  0.6330
  750MOL0     C 1125   6.845   2.527   4.714 -0.2931 -0.1383  0.1717
  750MOL0     C 1126   6.847   2.681   4.684 -0.2080  0.7244  0.1897
  750MOL0     C 1127   6.980   2.756   4.707 -0.5812 -0.0219 -0.6571
  750MOL0     C 1128   6.967   2.914   4.734  0.2924 -0.4153  0.8057
  750MOL0     C 1129   6.901   2.997   4.622 -0.1789 -0.4497 -0.2252
  750MOL0     C 1130   6.980   2.989   4.490 -0.1756 -0.3083 -0.9191
  750MOL0     C 1131   6.926   3.091   4.390  0.4023  0.3945 -0.2817
  750MOL0     N 1132   6.942   3.233   4.430  0.9452  0.3001 -0.0845
  750MOL0     C 1133   7.055   3.295   4.432 -0.3829 -1.3449 -0.0495
  750MOL0     C 1134   7.025   3.425   4.459 -0.5478 -0.3699 -0.1556
  750MOL0     C 1135   7.128   3.544   4.466 -0.9974 -0.9600  0.1759
  750MOL0     C 1136   7.190   3.568   4.605  0.8049  0.6223 -0.2981
  750MOL0     C 1137   7.081   3.609   4.701 -0.1911 -1.2806  0.5065
  750MOL0     C 1138   7.104   3.598   4.856  0.0861 -0.5714 -0.2088
  750MOL0     O 1139   7.205   3.680   4.908  0.2659 -1.0290  0.3799
  750MOL0     C 1140   7.257   3.652   5.029 -0.7514 -0.1416 -0.1907
  750MOL0     C 1141   7.196   3.560   5.119  0.4236 -0.8155  0.2409
  750MOL0     C 1142   7.259   3.542   5.241 -0.0175 -0.3366 -0.0406
  750MOL0     C 1143   7.384   3.610   5.270 -0.5249  0.1145 -0.1395
  750MOL0     C 1144   7.444   3.584   5.397 -0.7854  0.2808 -0.9563
  750MOL0     O 1145   7.562   3.645   5.422  0.1078 -0.2846 -0.4685
  750MOL0     C 1146   7.658   3.565   5.474  0.0279 -0.6974 -0.7012
  750MOL0     C 1147   7.658   3.422   5.487  0.4507 -0.4495  0.5121
  750MOL0     C 1148   7.769   3.347   5.540  1.0481 -0.1349 -0.4994
  750MOL0     C 1149   7.884   3.412   5.583  1.0694  1.0479  0.0623
  750MOL0     O 1150   7.993   3.335   5.631 -0.5563 -0.0625 -0.2117
  750MOL0     C 1151   8.107   3.411   5.671  0.4239  0.0185 -0.3071
  750MOL0     C 1152   8.216   3.320   5.732  1.0657 -0.3057  0.6534
  750MOL0     C 1153   8.275   3.207   5.641 -0.0971 -0.7777  0.1296
  750MOL0     C 1154   8.330   3.089   5.727 -0.1698  0.1686 -0.5281
  750MOL0     C 1155   8.406   2.994   5.630  0.4955 -0.9367 -1.2261
  750MOL0     C 1156   8.504   2.909   5.714  0.3586  0.3549 -0.9161
  750MOL0     C 1157   8.448   2.808   5.822 -0.2413  0.0008  0.4624
  750MOL0     C 1158   8.552   2.697   5.856  0.8598 -0.9064  0.4714
  750MOL0    Cl 1159   8.705   2.778   5.927  0.3096  0.9047 -0.1818
  750MOL0     C 1160   7.887   3.558   5.578 -0.2576  0.3075  0.0426
  750MOL0     C 1161   7.776   3.628   5.515  0.1924  0.1562  0.1509
  750MOL0     O 1162   7.371   3.539   5.484 -0.0860 -0.2485 -0.3457
  750MOL0     C 1163   7.442   3.694   5.175  0.5797  0.2225  0.1328
  750MOL0     C 1164   7.378   3.721   5.055 -0.9976  0.2286 -1.0406
  750MOL0     N 1165   6.887   3.431   4.474 -0.3148 -0.3825  0.1263
  750MOL0     N 1166   6.844   3.314   4.462 -0.1366  0.4945 -0.0668
  750MOL0     C 1167   7.218   2.408   4.475 -0.5208  0.0887 -0.3828
  750MOL0     C 1168   7.320   2.337   4.421 -0.4099 -0.1314 -0.0797
  750MOL0     C 1169   7.528   1.982   4.260 -0.3239 -0.5427 -0.2897
  750MOL0     C 1170   7.633   1.935   4.345  0.6211 -0.2086 -0.1571
  750MOL0     C 1171   7.730   1.854   4.296  0.3824  1.0468  0.0888
  750MOL0     C 1172   7.729   1.820   4.162 -1.4193  0.3304  0.0369
  750MOL0     O 1173   7.835   1.747   4.120 -0.7595 -0.0759  1.2626
  750MOL0     C 1174   7.848   1.717   3.976 -0.1489 -0.3448  0.5200
  750MOL0     C 1175   7.774   1.587   3.938 -0.6029  0.3881  0.5657
  750MOL0     C 1176   7.818   1.483   4.039 -0.0522  0.0950 -0.5357
  750MOL0     C 1177   7.952   1.411   4.032  0.3997  0.6173 -0.4537
  750MOL0     C 1178   7.977   1.354   3.896 -0.2087 -0.6174  0.4049
  750MOL0     C 1179   8.020   1.299   3.796  0.6733  0.6238 -0.3510
  750MOL0     C 1180   7.624   1.858   4.081 -0.3469  0.7817  0.2541
  750MOL0     C 1181   7.516   1.938   4.129 -0.4400 -0.0100  0.7094
  750MOL0     C 1182   7.400   1.980   4.030 -0.3693  0.1730 -0.5494
  750MOL0     H 1183   7.343   2.094   4.660  2.1302 -0.1560 -2.3346
  750MOL0     H 1184   7.174   2.245   4.772 -1.6517  1.5631 -0.1294
  750MOL0     H 1185   6.928   2.483   4.525 -0.9317  0.2321  0.8112
  750MOL0     H 1186   6.921   2.339   4.637  0.2493 -0.5664 -2.5728
  750MOL0     H 1187   6.870   2.508   4.818  0.5662  0.0825  0.0157
  750MOL0     H 1188   6.743   2.496   4.689  1.0646 -2.1208 -3.8628
  750MOL0     H 1189   6.768   2.730   4.741  1.5756  2.1543  1.5604
  750MOL0     H 1190   6.821   2.699   4.579 -0.4204  2.7216  0.5513
  750MOL0     H 1191   7.036   2.722   4.794 -2.4714  1.9172  1.4534
  750MOL0     H 1192   7.041   2.741   4.617 -0.1405 -1.4248 -0.1495
  750MOL0     H 1193   6.895   2.939   4.813 -0.1803  3.2717 -0.5879
  750MOL0     H 1194   7.065   2.954   4.761  3.6408 -3.6470 -4.5744
  750MOL0     H 1195   6.800   2.956   4.609 -0.1803 -1.2053  1.8082
  750MOL0     H 1196   6.890   3.102   4.652 -1.2497 -0.9549  1.3166
  750MOL0     H 1197   6.962   2.888   4.453 -0.7309 -0.3245 -0.6080
  750MOL0     H 1198   7.089   2.997   4.498 -0.1958 -1.4588  1.1194
  750MOL0     H 1199   6.968   3.078   4.290  1.1489  0.2302  0.0471
  750MOL0     H 1200   6.819   3.066   4.387  0.8355 -1.6293 -0.2577
  750MOL0     H 1201   7.152   3.258   4.400  0.4762  2.0764 -1.9151
  750MOL0     H 1202   7.213   3.507   4.407  1.0448 -0.9785  2.9309
  750MOL0     H 1203   7.093   3.641   4.430  0.1826 -1.2725 -2.0023
  750MOL0     H 1204   7.227   3.472   4.645 -0.7397 -0.8205 -2.1421
  750MOL0     H 1205   7.273   3.638   4.604  0.1159  1.6672 -5.0174
  750MOL0     H 1206   7.000   3.543   4.670 -0.4863  0.0566 -1.7740
  750MOL0     H 1207   7.035   3.704   4.674 -0.4560 -1.9154 -1.3864
  750MOL0     H 1208   7.126   3.495   4.885  0.5915 -0.6445 -0.8375
  750MOL0     H 1209   7.011   3.628   4.904  0.3814 -1.9499  1.2895
  750MOL0     H 1210   7.103   3.505   5.111 -0.3321  0.4668  0.0066
  750MOL0     H 1211   7.226   3.470   5.315  2.0394 -1.7725 -0.4342
  750MOL0     H 1212   7.573   3.365   5.450  0.7101 -0.6570  0.2400
  750MOL0     H 1213   7.756   3.241   5.558 -0.7521  0.3594  1.7053
  750MOL0     H 1214   8.160   3.462   5.591  0.4350  1.4818  0.6104
  750MOL0     H 1215   8.082   3.488   5.744 -3.3983 -1.7718  0.5257
  750MOL0     H 1216   8.300   3.388   5.752  0.1467  0.4590  2.0294
  750MOL0     H 1217   8.175   3.279   5.825 -1.1937 -1.4210 -0.7614
  750MOL0     H 1218   8.197   3.160   5.581  1.0922 -2.3500 -0.2808
  750MOL0     H 1219   8.350   3.246   5.571 -1.1034  0.9153 -0.0500
  750MOL0     H 1220   8.251   3.030   5.774 -0.4896 -1.6404 -3.1537
  750MOL0     H 1221   8.391   3.129   5.809 -1.5195  1.0523  0.0886
  750MOL0     H 1222   8.461   3.059   5.561  1.4835 -2.9953 -2.4549
  750MOL0     H 1223   8.344   2.934   5.562 -0.9271  1.4396 -2.1767
  750MOL0     H 1224   8.565   2.848   5.647  0.7128  1.4039 -1.5739
  750MOL0     H 1225   8.573   2.977   5.766 -0.5974 -1.1826  2.6798
  750MOL0     H 1226   8.363   2.754   5.782 -0.7644 -0.0072  1.5445
  750MOL0     H 1227   8.423   2.867   5.911  2.5024  0.9497  0.7084
  750MOL0     H 1228   8.502   2.641   5.936 -1.3696  2.1190  1.3673
  750MOL0     H 1229   8.591   2.634   5.775 -1.5034 -3.5630  1.2223
  750MOL0     H 1230   7.965   3.628   5.608 -0.7650  0.7810  0.2762
  750MOL0     H 1231   7.773   3.736   5.515  1.2832  0.2067  0.7104
  750MOL0     H 1232   7.535   3.748   5.190  1.7176 -1.7895  0.7030
  750MOL0     H 1233   7.429   3.784   4.983 -1.9083  2.7371  0.4101
  750MOL0     H 1234   7.172   2.492   4.423 -0.5221  0.1071 -0.3520
  750MOL0     H 1235   7.352   2.370   4.323  0.3444 -1.0597 -0.1557
  750MOL0     H 1236   7.637   1.967   4.448  2.1414  1.3012 -0.6308
  750MOL0     H 1237   7.807   1.812   4.359 -1.6770 -2.9286  0.3157
  750MOL0     H 1238   7.953   1.697   3.953 -0.2450 -0.3705  0.0966
  750MOL0     H 1239   7.829   1.803   3.911  2.0950 -1.0825 -1.2467
  750MOL0     H 1240   7.795   1.556   3.835 -1.8516 -1.6939  0.8762
  750MOL0     H 1241   7.667   1.609   3.932 -0.2999  1.8127 -0.0075
  750MOL0     H 1242   7.736   1.411   4.037 -0.5551  0.6653 -0.4390
  750MOL0     H 1243   7.815   1.528   4.138 -1.2236 -3.1748  1.0786
  750MOL0     H 1244   8.030   1.474   4.076 -1.1483  2.6945 -0.5644
  750MOL0     H 1245   7.943   1.327   4.102 -1.8942 -1.7465 -3.3078
  750MOL0     H 1246   8.061   1.252   3.710 -0.4605  0.5516 -0.8647
  750MOL0     H 1247   7.615   1.827   3.977  2.0992  0.8166 -0.0205
  750MOL0     H 1248   7.347   2.055   4.089  0.9980 -1.6870  3.4077
  750MOL0     H 1249   7.442   2.017   3.936  0.2815 -1.9789 -1.1596
  750MOL0     H 1250   7.342   1.889   4.008  1.3309 -1.2247  0.5119
  751MOL0     O 1251   1.672   1.237   4.057  0.0674 -0.4516 -0.0978
  751MOL0     C 1252   1.595   1.152   4.104  0.3877  0.5763 -0.5053
  751MOL0     O 1253   1.569   1.026   4.047 -0.0099  0.3660 -0.0071
  751MOL0     C 1254   1.648   0.999   3.940 -0.0447  0.4581  0.8091
  751MOL0     C 1255   1.772   0.933   3.964 -0.4496  0.9495  0.3416
  751MOL0     C 1256   1.865   0.901   3.861 -0.0470  1.1841  0.8155
  751MOL0     C 1257   1.833   0.922   3.728  0.6643  0.4363  0.7942
  751MOL0     O 1258   1.894   0.883   3.612 -0.0774  0.1218  0.4752
  751MOL0     C 1259   2.026   0.818   3.610 -0.4082 -0.3376 -0.4669
  751MOL0     C 1260   2.064   0.767   3.470 -0.1060 -0.5670 -0.4564
  751MOL0     C 1261   1.971   0.672   3.407  0.1974  0.7551  0.2352
  751MOL0     C 1262   2.024   0.558   3.322  0.0643 -0.1453 -0.1815
  751MOL0     C 1263   2.033   0.432   3.402  0.0218  0.2471  0.8740
  751MOL0     C 1264   2.133   0.433   3.519  0.6116 -0.6865 -0.2958
  751MOL0     C 1265   2.278   0.421   3.471 -0.6209 -0.9889 -0.4087
  751MOL0     C 1266   2.384   0.485   3.548 -0.9062 -0.7110  1.3832
  751MOL0     N 1267   2.402   0.447   3.686  0.5174 -0.2943 -0.0724
  751MOL0     C 1268   2.450   0.323   3.736  0.3203 -0.0176 -0.2825
  751MOL0     C 1269   2.477   0.354   3.865 -0.4396 -0.0109 -0.3266
  751MOL0     C 1270   2.544   0.252   3.951  0.3380  0.5009 -0.3550
  751MOL0     C 1271   2.676   0.298   4.007  0.0136 -0.2672  0.3735
  751MOL0     C 1272   2.791   0.305   3.897  0.0009  0.6557 -0.9385
  751MOL0     C 1273   2.929   0.258   3.952 -0.3956  0.7255 -0.0077
  751MOL0     O 1274   3.018   0.306   3.849  0.1637  0.1901  0.1971
  751MOL0     C 1275   3.156   0.289   3.853 -0.1339 -0.0833 -0.8808
  751MOL0     C 1276   3.211   0.181   3.922 -0.8080  1.0213  0.6200
  751MOL0     C 1277   3.343   0.157   3.915 -0.2595  0.1227 -0.7146
  751MOL0     C 1278   3.425   0.240   3.840 -0.5698  0.7340 -0.2913
  751MOL0     C 1279   3.570   0.212   3.823  0.8828 -0.3792 -0.2968
  751MOL0     O 1280   3.650   0.169   3.933 -0.2864  0.0726  0.5011
  751MOL0     C 1281   3.784   0.144   3.914  0.4043  0.1985 -0.5117
  751MOL0     C 1282   3.829   0.023   3.867 -0.2101 -0.1878  0.3936
  751MOL0     C 1283   3.962   0.001   3.839 -0.4882 -0.1001 -0.7087
  751MOL0     C 1284   4.058   0.094   3.882  0.8800  0.3828 -0.4896
  751MOL0     O 1285   4.190   0.061   3.872 -0.0990 -1.4574 -0.3722
  751MOL0     C 1286   4.285   0.162   3.924 -0.1455  0.5312 -0.8184
  751MOL0     C 1287   4.426   0.089   3.897  0.7064  0.8715  0.1416
  751MOL0     C 1288   4.499   0.128   3.777  0.6078 -0.7770  1.6198
  751MOL0     C 1289   4.623   0.051   3.742  1.4330  0.2657 -0.3594
  751MOL0     C 1290   4.669   0.106   3.605  0.0446  0.4561  0.6798
  751MOL0     C 1291   4.774   0.010   3.553  0.3953  0.2300  0.1816
  751MOL0     C 1292   4.828   0.065   3.426  0.1611 -1.0897 -0.0102
  751MOL0     C 1293   4.875  -0.036   3.332  0.5749  0.0297 -0.2557
  751MOL0    Cl 1294   4.993  -0.123   3.426 -0.2893  0.5153  0.1796
  751MOL0     C 1295   4.012   0.226   3.940 -0.3158  0.7229  0.2078
  751MOL0     C 1296   3.871   0.238   3.959 -0.2904 -0.3642 -0.8117
  751MOL0     O 1297   3.614   0.243   3.708 -0.1940 -0.2979 -0.3772
  751MOL0     C 1298   3.370   0.352   3.776  1.0177 -0.2660  0.2728
  751MOL0     C 1299   3.233   0.376   3.786  0.2396 -0.2415  0.3805
  751MOL0     N 1300   2.448   0.491   3.890  0.3975 -0.6673  0.6778
  751MOL0     N 1301   2.403   0.542   3.785 -0.2039  0.3680 -0.0054
  751MOL0     C 1302   1.707   0.990   3.710 -0.6777  0.2827  0.2170
  751MOL0     C 1303   1.622   1.037   3.809 -0.6406  0.4903 -0.5301
  751MOL0     C 1304   1.512   1.192   4.221  0.4183  1.1862  0.7636
  751MOL0     C 1305   1.406   1.100   4.265 -0.5007 -0.1853  0.7007
  751MOL0     C 1306   1.318   1.129   4.367 -0.1950  0.8662 -0.1753
  751MOL0     C 1307   1.327   1.244   4.436  0.1350 -1.4355 -0.5095
  751MOL0     O 1308   1.236   1.295   4.531  0.1922  0.3821  0.8861
  751MOL0     C 1309   1.149   1.201   4.595  0.2511  0.2210  0.4445
  751MOL0     C 1310   1.112   1.257   4.733  0.1896 -0.4047  0.5513
  751MOL0     C 1311   1.001   1.364   4.735  0.3340 -0.0338  0.2374
  751MOL0     C 1312   0.968   1.398   4.880  0.2681  0.8298  0.6753
  751MOL0     C 1313   0.831   1.342   4.919  0.1943 -0.1342 -0.2908
  751MOL0     C 1314   0.720   1.297   4.932 -0.1002  0.4846  0.7032
  751MOL0     C 1315   1.419   1.339   4.398  0.4804  0.4674 -0.0407
  751MOL0     C 1316   1.512   1.316   4.288 -0.4110 -0.0286 -0.1859
  751MOL0     C 1317   1.602   1.428   4.272 -0.2901  0.1211 -0.6744
  751MOL0     H 1318   1.784   0.891   4.063  1.2392  0.2743 -0.1180
  751MOL0     H 1319   1.960   0.850   3.878 -0.4018  0.9811  2.2955
  751MOL0     H 1320   2.090   0.902   3.640 -1.2707  0.8833 -1.9075
  751MOL0     H 1321   2.043   0.740   3.685  3.2538 -0.5944 -1.4012
  751MOL0     H 1322   2.161   0.720   3.483  0.3130  0.5299  0.5116
  751MOL0     H 1323   2.072   0.850   3.399 -0.9714 -2.0813 -2.4120
  751MOL0     H 1324   1.917   0.731   3.333  1.9830  1.4915 -0.5272
  751MOL0     H 1325   1.911   0.622   3.484  0.5294  1.9467  1.2936
  751MOL0     H 1326   1.962   0.525   3.238 -1.2917 -1.0328  1.1018
  751MOL0     H 1327   2.126   0.579   3.290 -0.0535  0.5084 -0.1338
  751MOL0     H 1328   1.932   0.404   3.434 -0.1180 -2.3829 -1.5056
  751MOL0     H 1329   2.067   0.358   3.329  0.5788  1.3153 -0.0047
  751MOL0     H 1330   2.110   0.524   3.576  0.5577 -0.9741  0.1421
  751MOL0     H 1331   2.115   0.354   3.591 -0.1668 -0.5054 -0.2862
  751MOL0     H 1332   2.285   0.456   3.368 -0.4199  3.0527  0.8203
  751MOL0     H 1333   2.307   0.315   3.473 -0.3872 -0.9224 -0.0875
  751MOL0     H 1334   2.480   0.463   3.500 -0.5983  0.9260  1.2010
  751MOL0     H 1335   2.376   0.594   3.552  0.9499 -0.5354  4.3653
  751MOL0     H 1336   2.447   0.226   3.687  1.7809 -0.6528  0.8235
  751MOL0     H 1337   2.483   0.248   4.042  0.6650  3.2237  0.0531
  751MOL0     H 1338   2.536   0.152   3.907 -1.4529 -0.1492  1.2561
  751MOL0     H 1339   2.659   0.400   4.042  2.5850 -0.2086  1.6704
  751MOL0     H 1340   2.721   0.228   4.077 -0.4625 -2.0253 -0.9944
  751MOL0     H 1341   2.808   0.396   3.840  1.7341  0.3056 -1.0188
  751MOL0     H 1342   2.757   0.230   3.825  2.0036 -1.9728  0.6773
  751MOL0     H 1343   2.938   0.151   3.973  0.2889  1.0047  1.1884
  751MOL0     H 1344   2.953   0.307   4.046  1.0457 -1.2986  0.7649
  751MOL0     H 1345   3.153   0.112   3.982 -1.0309  1.2153  0.6300
  751MOL0     H 1346   3.385   0.067   3.959 -1.3839 -0.1966 -0.2712
  751MOL0     H 1347   3.759  -0.054   3.836 -0.3279 -0.1927  0.6688
  751MOL0     H 1348   4.014  -0.089   3.809  2.3159  0.8328  0.9247
  751MOL0     H 1349   4.289   0.254   3.865  2.2537  0.5705 -0.6908
  751MOL0     H 1350   4.266   0.176   4.031  0.5120 -5.1404  0.3614
  751MOL0     H 1351   4.495   0.100   3.981  1.3813 -3.1873  0.2822
  751MOL0     H 1352   4.407  -0.017   3.882  4.1086  0.3923 -1.6940
  751MOL0     H 1353   4.433   0.116   3.691  2.0312 -0.1336  0.3924
  751MOL0     H 1354   4.528   0.233   3.786  1.1422 -0.5778 -1.4080
  751MOL0     H 1355   4.599  -0.055   3.732 -0.9678  0.6580  0.6952
  751MOL0     H 1356   4.695   0.065   3.823  3.1190  1.3887 -1.9538
  751MOL0     H 1357   4.707   0.208   3.616  0.5667  0.6421 -2.1778
  751MOL0     H 1358   4.583   0.106   3.538  0.1095 -3.4903  0.3989
  751MOL0     H 1359   4.848  -0.005   3.632  0.3194  1.7158  0.5579
  751MOL0     H 1360   4.725  -0.085   3.529 -0.7781  1.2987 -1.8607
  751MOL0     H 1361   4.913   0.132   3.439 -0.1189  0.7257 -5.1424
  751MOL0     H 1362   4.745   0.122   3.384  0.7897  1.0720  1.5016
  751MOL0     H 1363   4.795  -0.100   3.293  0.9353 -1.7206  1.6605
  751MOL0     H 1364   4.934   0.003   3.249  0.7978 -2.4499 -1.3412
  751MOL0     H 1365   4.081   0.296   3.985  2.5932 -0.8005 -1.5469
  751MOL0     H 1366   3.825   0.320   4.012 -2.7952 -1.6724 -0.8328
  751MOL0     H 1367   3.430   0.426   3.724 -1.7523  0.4048 -2.2809
  751MOL0     H 1368   3.177   0.460   3.746 -0.8751 -1.4206 -0.6459
  751MOL0     H 1369   1.680   1.007   3.606 -1.3942  0.2394  0.3921
  751MOL0     H 1370   1.529   1.089   3.786 -1.1970 -0.3611 -0.2218
  751MOL0     H 1371   1.383   1.005   4.218  2.2228 -0.8995  0.6868
  751MOL0     H 1372   1.247   1.049   4.382  2.0238 -1.4141 -1.1847
  751MOL0     H 1373   1.198   1.104   4.609 -1.0647 -0.0788  4.0805
  751MOL0     H 1374   1.065   1.196   4.525  1.0849  1.8560 -0.7474
  751MOL0     H 1375   1.199   1.311   4.771  0.8876 -1.4284  0.4341
  751MOL0     H 1376   1.065   1.178   4.792 -0.5407  0.4655  1.1650
  751MOL0     H 1377   0.916   1.329   4.675 -1.2670 -1.0098  2.8741
  751MOL0     H 1378   1.042   1.456   4.693  2.2276 -1.3562 -0.9624
  751MOL0     H 1379   1.034   1.349   4.952  2.3394  0.5269 -1.3061
  751MOL0     H 1380   0.963   1.507   4.875 -3.3193  0.7941  0.7279
  751MOL0     H 1381   0.621   1.257   4.938  0.1572 -0.6452 -1.7289
  751MOL0     H 1382   1.417   1.432   4.454  0.2720  0.8053 -0.5911
  751MOL0     H 1383   1.574   1.485   4.183 -0.6355  0.4239 -0.3762
  751MOL0     H 1384   1.587   1.504   4.349 -3.2119  2.0070 -2.8962
  751MOL0     H 1385   1.707   1.396   4.272  0.4271  1.6141 -5.4816
  752MOL0     O 1386   7.170   9.662   5.865 -0.4019  0.0213 -0.2618
  752MOL0     C 1387   7.074   9.733   5.885 -0.6805  0.0902  0.5423
  752MOL0     O 1388   7.073   9.847   5.959  0.3870  0.1221 -0.5400
  752MOL0     C 1389   7.190   9.911   5.991 -0.0114  0.8640 -0.6781
  752MOL0     C 1390   7.268   9.862   6.099 -0.3800  1.3133  0.7436
  752MOL0     C 1391   7.389   9.930   6.130  0.0466 -0.5131  0.1106
  752MOL0     C 1392   7.422  10.055   6.064  0.1348  0.1681  0.0306
  752MOL0     O 1393   7.541  10.121   6.097 -0.3786 -0.2371  0.4367
  752MOL0     C 1394   7.513  10.238   6.171 -0.1682  0.1460 -0.1564
  752MOL0     C 1395   7.647  10.284   6.226  1.0028 -0.0743  0.9711
  752MOL0     C 1396   7.712  10.178   6.318  0.3634  0.0522 -0.4840
  752MOL0     C 1397   7.806  10.253   6.420  0.8161  0.2009 -0.2459
  752MOL0     C 1398   7.920  10.172   6.476 -0.3867  0.8088  0.1168
  752MOL0     C 1399   8.027  10.141   6.375 -1.0773  0.3621  0.2243
  752MOL0     C 1400   8.145  10.057   6.428  0.0716 -0.1598  0.3586
  752MOL0     C 1401   8.108   9.920   6.466 -0.1936  0.1888 -0.6808
  752MOL0     N 1402   8.232   9.843   6.479 -0.0498 -0.6138  0.2352
  752MOL0     C 1403   8.292   9.771   6.375 -0.4172 -0.4075 -1.1225
  752MOL0     C 1404   8.395   9.709   6.439  0.1296  0.6295 -0.4243
  752MOL0     C 1405   8.487   9.603   6.375  0.4504 -1.2192  0.1675
  752MOL0     C 1406   8.604   9.665   6.293 -0.7342  0.9715  0.9467
  752MOL0     C 1407   8.707   9.726   6.379 -0.3138  0.5516  0.6255
  752MOL0     C 1408   8.834   9.752   6.298  0.3437 -0.3600 -0.2976
  752MOL0     O 1409   8.889   9.629   6.243  0.7855  0.1691 -1.0287
  752MOL0     C 1410   9.000   9.629   6.159 -0.1402  0.3730  0.0296
  752MOL0     C 1411   9.057   9.741   6.097 -0.4226  0.1695 -0.9830
  752MOL0     C 1412   9.160   9.738   6.001  1.2909 -0.6320 -0.1819
  752MOL0     C 1413   9.207   9.611   5.957 -0.2897  0.2012  0.5898
  752MOL0     C 1414   9.331   9.601   5.871  0.2140  0.1045 -0.0142
  752MOL0     O 1415   9.403   9.722   5.865 -0.0593 -0.4602 -0.0704
  752MOL0     C 1416   9.525   9.738   5.799  0.1642 -0.2682 -1.0197
  752MOL0     C 1417   9.574   9.870   5.797 -0.1724 -0.0602 -1.2101
  752MOL0     C 1418   9.691   9.914   5.726 -0.1592 -0.1376 -0.3507
  752MOL0     C 1419   9.767   9.806   5.670  0.2010 -0.9868 -0.6592
  752MOL0     O 1420   9.888   9.825   5.610 -0.2376  0.1494  0.2785
  752MOL0     C 1421   9.903   9.959   5.551 -0.6332  0.7302 -0.6230
  752MOL0     C 1422  10.051   9.951   5.500  1.0799 -0.6091  0.0443
  752MOL0     C 1423  10.157   9.999   5.597 -0.3007 -0.7313  0.4340
  752MOL0     C 1424  10.180  10.149   5.567  0.2676 -0.0263 -0.4855
  752MOL0     C 1425  10.282  10.219   5.665 -0.2798 -0.3873  0.4052
  752MOL0     C 1426  10.291  10.372   5.650 -0.0684 -0.3203 -0.1865
  752MOL0     C 1427  10.333  10.425   5.504  0.1719  0.5744  0.8033
  752MOL0     C 1428  10.352  10.579   5.504  0.0710  0.3617 -0.1280
  752MOL0    Cl 1429  10.200  10.665   5.516  0.1826 -0.0911  0.0089
  752MOL0     C 1430   9.723   9.669   5.678 -0.5002 -1.4718 -0.2676
  752MOL0     C 1431   9.612   9.640   5.745  0.8186 -0.6623  0.3706
  752MOL0     O 1432   9.360   9.499   5.807 -0.0831  0.2301  0.2807
  752MOL0     C 1433   9.147   9.491   6.010  0.1751 -1.3958  0.3344
  752MOL0     C 1434   9.054   9.510   6.113 -0.9889 -0.9472 -0.9103
  752MOL0     N 1435   8.390   9.736   6.577  0.1579 -0.3272 -0.2724
  752MOL0     N 1436   8.290   9.815   6.598  0.6220  0.3740 -0.5217
  752MOL0     C 1437   7.341  10.104   5.956 -0.6920 -0.8657  0.7147
  752MOL0     C 1438   7.225  10.028   5.928 -0.2454  0.2948  0.2825
  752MOL0     C 1439   6.944   9.699   5.824 -0.8333  0.2956  0.4265
  752MOL0     C 1440   6.834   9.680   5.900 -0.0303  0.7882 -0.4072
  752MOL0     C 1441   6.715   9.635   5.845 -0.4858 -0.2656 -0.3454
  752MOL0     C 1442   6.708   9.621   5.709 -0.0898 -1.3398  0.8900
  752MOL0     O 1443   6.594   9.592   5.638  0.8025 -0.3696 -0.6224
  752MOL0     C 1444   6.462   9.622   5.697 -0.2885  0.7298  0.1342
  752MOL0     C 1445   6.436   9.772   5.718  0.2545 -0.4398 -0.3782
  752MOL0     C 1446   6.467   9.857   5.600  0.1612  0.3175 -0.3366
  752MOL0     C 1447   6.370   9.837   5.481 -0.4213  0.2666  0.1099
  752MOL0     C 1448   6.238   9.879   5.522 -0.5687  0.4418  0.2969
  752MOL0     C 1449   6.139   9.918   5.553  0.4014  0.1514 -0.0883
  752MOL0     C 1450   6.818   9.637   5.628 -0.0807  0.4445 -0.3577
  752MOL0     C 1451   6.942   9.667   5.682 -0.6328  0.1846 -1.1862
  752MOL0     C 1452   7.058   9.678   5.586 -0.7788  0.3208  0.5545
  752MOL0     H 1453   7.223   9.774   6.144  0.1889 -1.0139 -2.8031
  752MOL0     H 1454   7.445   9.907   6.220  0.6958 -2.5029 -0.7564
  752MOL0     H 1455   7.459  10.322   6.126 -1.3297 -0.2431  0.4875
  752MOL0     H 1456   7.446  10.218   6.254 -1.4843  1.7022 -0.7868
  752MOL0     H 1457   7.624  10.371   6.288 -2.6172  0.6862 -1.1522
  752MOL0     H 1458   7.723  10.306   6.151  2.8000 -4.4210  1.2053
  752MOL0     H 1459   7.772  10.112   6.254 -0.5381 -1.7354  0.4488
  752MOL0     H 1460   7.646  10.118   6.381 -0.4863  2.2459  0.8469
  752MOL0     H 1461   7.847  10.342   6.372  3.6402  0.2697  2.0153
  752MOL0     H 1462   7.752  10.303   6.500 -0.7694  1.1542 -1.8459
  752MOL0     H 1463   7.965  10.227   6.560  2.8175  1.4119 -1.8302
  752MOL0     H 1464   7.880  10.073   6.498 -0.5815  0.8830  0.0943
  752MOL0     H 1465   7.994  10.094   6.282 -3.6991  0.9324  0.8091
  752MOL0     H 1466   8.053  10.238   6.332 -0.3142  0.5988  1.1640
  752MOL0     H 1467   8.197  10.109   6.509  1.7540  0.8387 -1.2834
  752MOL0     H 1468   8.214  10.058   6.343 -0.5549 -0.7252 -0.1646
  752MOL0     H 1469   8.055   9.926   6.561 -0.1062 -4.8779 -0.0592
  752MOL0     H 1470   8.044   9.867   6.395 -1.7468  0.5264  0.4141
  752MOL0     H 1471   8.268   9.769   6.269 -0.7697  1.9975 -1.1362
  752MOL0     H 1472   8.529   9.558   6.465 -1.4363  0.0678  1.7753
  752MOL0     H 1473   8.419   9.536   6.321 -3.6505  0.7464  2.3809
  752MOL0     H 1474   8.643   9.588   6.225 -1.5053  1.4928 -0.1239
  752MOL0     H 1475   8.564   9.735   6.219 -0.1158 -1.4114 -1.8608
  752MOL0     H 1476   8.727   9.652   6.458  0.2912  0.9714  0.8717
  752MOL0     H 1477   8.667   9.816   6.427  0.1536  1.4484 -0.6436
  752MOL0     H 1478   8.914   9.800   6.355  0.0909  1.5631 -1.4834
  752MOL0     H 1479   8.805   9.818   6.216 -1.3623  0.8756  1.2067
  752MOL0     H 1480   9.010   9.838   6.112  0.3808  0.3199  0.7529
  752MOL0     H 1481   9.210   9.825   5.961  3.2905 -1.3821  0.5434
  752MOL0     H 1482   9.514   9.949   5.841 -0.4995 -0.8886 -0.1235
  752MOL0     H 1483   9.707  10.017   5.697  3.2513 -0.9700 -1.9092
  752MOL0     H 1484   9.821   9.971   5.479 -0.6138 -0.8596 -0.9297
  752MOL0     H 1485   9.912  10.037   5.628 -1.5721 -1.6941  2.1340
  752MOL0     H 1486  10.087   9.851   5.473 -0.8181 -2.0231  2.3571
  752MOL0     H 1487  10.058  10.016   5.413 -1.5795  1.0021  0.9308
  752MOL0     H 1488  10.128   9.990   5.702  2.5118 -2.1428  1.1824
  752MOL0     H 1489  10.245   9.934   5.586  0.7837  0.8052 -0.2445
  752MOL0     H 1490  10.086  10.206   5.578  0.1611  0.2975 -2.6127
  752MOL0     H 1491  10.214  10.166   5.464  3.4269  1.7601  0.7417
  752MOL0     H 1492  10.382  10.182   5.640  0.8535 -0.2743  4.1659
  752MOL0     H 1493  10.253  10.197   5.768  2.9131  0.3531  1.6113
  752MOL0     H 1494  10.200  10.423   5.682  2.7274  3.4207  2.7519
  752MOL0     H 1495  10.363  10.408   5.724 -1.2068  0.0771  0.7514
  752MOL0     H 1496  10.252  10.402   5.435  1.9241 -1.4764 -0.7375
  752MOL0     H 1497  10.418  10.373   5.459 -3.3329 -2.0260 -3.6967
  752MOL0     H 1498  10.420  10.611   5.584  0.7927 -0.6958 -0.2884
  752MOL0     H 1499  10.396  10.605   5.408 -3.7372 -0.2765 -2.2198
  752MOL0     H 1500   9.778   9.591   5.627  1.0823 -1.8633  1.8533
  752MOL0     H 1501   9.587   9.535   5.744 -1.4020 -0.2108 -1.9583
  752MOL0     H 1502   9.177   9.390   5.984 -1.9370 -1.7950 -0.7986
  752MOL0     H 1503   9.013   9.414   6.141 -1.8343 -1.0329 -2.3391
  752MOL0     H 1504   7.365  10.197   5.904 -0.4185  0.5154  3.1324
  752MOL0     H 1505   7.160  10.049   5.844 -0.7767 -0.8070  0.3989
  752MOL0     H 1506   6.837   9.697   6.008  1.5199 -2.0362  0.0945
  752MOL0     H 1507   6.629   9.619   5.909 -1.8625  2.1595 -1.4671
  752MOL0     H 1508   6.455   9.564   5.790 -0.4761 -1.6297 -1.2627
  752MOL0     H 1509   6.381   9.586   5.633  0.3659 -0.1151 -0.2353
  752MOL0     H 1510   6.497   9.806   5.802 -0.4806  0.2441 -0.1035
  752MOL0     H 1511   6.330   9.781   5.746  0.5876 -1.2632  1.2607
  752MOL0     H 1512   6.569   9.837   5.565  0.3234 -0.3095  0.4549
  752MOL0     H 1513   6.464   9.962   5.629 -1.2812  0.2126 -0.0213
  752MOL0     H 1514   6.399   9.895   5.393 -3.4401  0.1315 -1.1002
  752MOL0     H 1515   6.364   9.734   5.446 -0.8030  1.0940 -2.5018
  752MOL0     H 1516   6.047   9.972   5.572  0.4943  0.5779 -0.8197
  752MOL0     H 1517   6.815   9.612   5.522 -3.3763 -0.9434 -0.0407
  752MOL0     H 1518   7.146   9.618   5.611 -0.2527 -0.0106 -1.8359
  752MOL0     H 1519   7.025   9.659   5.483  1.3468  1.0368 -0.3186
  752MOL0     H 1520   7.095   9.780   5.593 -1.5490  0.6521 -0.0098
  753MOL0     O 1521   6.568   1.031   3.309  0.4148  0.0224  1.1192
  753MOL0     C 1522   6.653   1.003   3.228 -0.2279 -0.2426 -0.0282
  753MOL0     O 1523   6.642   0.903   3.125  0.1338 -0.4785 -0.1295
  753MOL0     C 1524   6.549   0.806   3.123 -0.4289 -0.0140  0.2631
  753MOL0     C 1525   6.543   0.744   2.999  0.3230 -0.1389 -0.0217
  753MOL0     C 1526   6.467   0.634   2.978  0.5102  0.5791 -0.2957
  753MOL0     C 1527   6.383   0.581   3.079 -0.3798 -0.2092 -0.2679
  753MOL0     O 1528   6.311   0.469   3.045  0.1324 -0.1520  0.8516
  753MOL0     C 1529   6.209   0.423   3.136  0.1801 -1.1893 -0.2766
  753MOL0     C 1530   6.179   0.275   3.109  0.0276  0.1981  0.6481
  753MOL0     C 1531   6.075   0.217   3.203 -0.6787 -0.0391 -1.0813
  753MOL0     C 1532   6.071   0.062   3.213  0.0958 -1.2714  0.0730
  753MOL0     C 1533   5.939   0.008   3.277 -0.2988 -0.1634  1.0789
  753MOL0     C 1534   5.950  -0.141   3.274 -0.5438 -0.9995  0.4353
  753MOL0     C 1535   5.828  -0.201   3.328  0.3774 -0.1482 -0.4570
  753MOL0     C 1536   5.697  -0.181   3.250  0.8056 -0.2745  1.3652
  753MOL0     N 1537   5.597  -0.272   3.299 -0.2559  0.2469  0.1876
  753MOL0     C 1538   5.575  -0.315   3.428 -0.1199  0.0677  0.1397
  753MOL0     C 1539   5.468  -0.395   3.432 -0.3489  0.9230 -0.0876
  753MOL0     C 1540   5.411  -0.450   3.558  0.0116 -0.0175 -0.4504
  753MOL0     C 1541   5.277  -0.394   3.595  1.3724 -0.8015 -0.2995
  753MOL0     C 1542   5.299  -0.258   3.657 -0.3767  0.7617  0.5984
  753MOL0     C 1543   5.187  -0.220   3.743 -0.0706  0.8213 -0.6514
  753MOL0     O 1544   5.225  -0.103   3.824 -0.5537  0.3713 -0.2009
  753MOL0     C 1545   5.137  -0.004   3.812  0.6080 -0.5924 -0.0576
  753MOL0     C 1546   5.135   0.062   3.694  0.5220 -0.1207  0.3396
  753MOL0     C 1547   5.053   0.169   3.663 -0.1589 -1.0066 -0.5537
  753MOL0     C 1548   4.972   0.226   3.765 -0.1791 -0.0382 -0.6204
  753MOL0     C 1549   4.889   0.346   3.731 -0.0983  0.8104  0.1557
  753MOL0     O 1550   4.821   0.393   3.838 -0.0618 -0.1549 -0.5094
  753MOL0     C 1551   4.759   0.516   3.809 -0.2985  0.6231 -1.8834
  753MOL0     C 1552   4.844   0.629   3.778 -0.2504  1.2628 -0.9663
  753MOL0     C 1553   4.788   0.758   3.750  0.3240  0.8401  0.0599
  753MOL0     C 1554   4.647   0.770   3.766 -0.0010  0.3577  0.4842
  753MOL0     O 1555   4.575   0.882   3.747 -0.1259  0.8450 -0.1969
  753MOL0     C 1556   4.636   1.008   3.718  0.1560  0.7125  0.6650
  753MOL0     C 1557   4.523   1.115   3.715  0.2050  0.1517 -0.4002
  753MOL0     C 1558   4.388   1.059   3.661 -0.4422 -0.2154 -0.2387
  753MOL0     C 1559   4.292   1.174   3.646 -0.3705  0.0098 -0.0794
  753MOL0     C 1560   4.166   1.141   3.559  0.3538  0.1131 -0.1331
  753MOL0     C 1561   4.066   1.260   3.546  0.8181  0.0424 -0.1523
  753MOL0     C 1562   3.957   1.254   3.658 -0.2451  0.4576  0.5851
  753MOL0     C 1563   4.000   1.276   3.805 -1.2507 -0.3414 -0.2131
  753MOL0    Cl 1564   4.094   1.430   3.824 -0.3580  0.1731  0.1147
  753MOL0     C 1565   4.573   0.654   3.795  0.2535  0.2270 -0.3959
  753MOL0     C 1566   4.625   0.531   3.816  0.1982  1.2877  0.4606
  753MOL0     O 1567   4.883   0.392   3.615 -0.2109 -0.4015  0.2974
  753MOL0     C 1568   4.967   0.164   3.892  0.0869 -0.0212  0.1618
  753MOL0     C 1569   5.050   0.046   3.916  1.1996 -0.9871 -0.0475
  753MOL0     N 1570   5.429  -0.412   3.304  0.1502  1.0638 -0.3723
  753MOL0     N 1571   5.499  -0.340   3.229 -0.9259  0.6042 -0.3428
  753MOL0     C 1572   6.382   0.650   3.199  0.7317 -0.2466 -0.8967
  753MOL0     C 1573   6.462   0.759   3.227  0.1017 -0.6478 -0.2609
  753MOL0     C 1574   6.785   1.087   3.227  0.4824  0.2209  0.0131
  753MOL0     C 1575   6.880   1.042   3.133  0.1652  0.0360 -0.4169
  753MOL0     C 1576   7.005   1.099   3.135 -0.2537  0.3495 -0.1411
  753MOL0     C 1577   7.031   1.202   3.225 -0.1179  0.5495 -1.2216
  753MOL0     O 1578   7.159   1.251   3.233 -0.2555 -0.2703  0.1067
  753MOL0     C 1579   7.172   1.389   3.179 -0.2955 -0.7375  0.3627
  753MOL0     C 1580   7.261   1.385   3.055  0.1836 -0.1207  0.2833
  753MOL0     C 1581   7.415   1.363   3.093  0.5143 -0.5760 -0.0033
  753MOL0     C 1582   7.504   1.397   2.971 -0.0784 -0.9086 -0.0735
  753MOL0     C 1583   7.643   1.347   2.983 -0.6662 -0.5365  0.3005
  753MOL0     C 1584   7.758   1.306   2.970 -0.9040  1.3987 -0.9908
  753MOL0     C 1585   6.938   1.253   3.314 -0.3213  0.1727 -0.2274
  753MOL0     C 1586   6.810   1.195   3.313 -0.3462 -0.8692 -0.4864
  753MOL0     C 1587   6.712   1.263   3.404 -0.8077 -1.2243 -0.3123
  753MOL0     H 1588   6.611   0.776   2.920 -2.3830  1.1164 -2.0058
  753MOL0     H 1589   6.482   0.580   2.884  2.3812 -0.9469  0.7952
  753MOL0     H 1590   6.236   0.441   3.241 -1.4349  1.0380 -0.1846
  753MOL0     H 1591   6.123   0.487   3.115  0.6276 -0.5995 -0.3320
  753MOL0     H 1592   6.278   0.229   3.120  0.8863  1.9549  0.6706
  753MOL0     H 1593   6.150   0.257   3.005 -2.7648  1.4043  1.1255
  753MOL0     H 1594   5.978   0.261   3.176 -1.1956 -0.2448  0.3624
  753MOL0     H 1595   6.103   0.261   3.299  5.7932  0.9439 -2.9767
  753MOL0     H 1596   6.083   0.017   3.114 -0.5799  0.2421 -0.7263
  753MOL0     H 1597   6.153   0.029   3.277 -0.8599 -0.8862  1.5502
  753MOL0     H 1598   5.918   0.044   3.378  4.0888  1.4978  1.6061
  753MOL0     H 1599   5.858   0.031   3.208  1.9185  1.4188 -1.1496
  753MOL0     H 1600   5.962  -0.173   3.170 -0.6432 -0.9151  0.3977
  753MOL0     H 1601   6.036  -0.183   3.326 -0.7269 -0.3330  1.3125
  753MOL0     H 1602   5.803  -0.161   3.427  0.1276  0.5876 -0.8097
  753MOL0     H 1603   5.849  -0.308   3.333  1.5463  0.1135  1.0194
  753MOL0     H 1604   5.660  -0.078   3.261  0.5048  0.0758 -1.9318
  753MOL0     H 1605   5.716  -0.194   3.143 -1.9685  1.0920  0.6018
  753MOL0     H 1606   5.618  -0.257   3.510 -1.4418  2.9004 -1.0383
  753MOL0     H 1607   5.416  -0.559   3.561  4.6474  0.0251  2.0927
  753MOL0     H 1608   5.484  -0.435   3.638  2.2773  0.0611 -2.3897
  753MOL0     H 1609   5.210  -0.379   3.510 -1.2131 -0.2397  1.7030
  753MOL0     H 1610   5.232  -0.461   3.669 -0.9391  0.4233 -0.5260
  753MOL0     H 1611   5.298  -0.189   3.572 -1.9936  0.1349  0.0769
  753MOL0     H 1612   5.398  -0.260   3.704  0.5952 -3.8620 -1.0408
  753MOL0     H 1613   5.183  -0.298   3.820 -0.6972  1.2041 -0.2828
  753MOL0     H 1614   5.092  -0.214   3.688 -1.6483  2.7093  2.0156
  753MOL0     H 1615   5.204   0.027   3.617  1.1783  2.2747 -0.2465
  753MOL0     H 1616   5.081   0.212   3.567 -2.0749 -1.0192 -1.1602
  753MOL0     H 1617   4.950   0.611   3.764 -0.3894  0.9572 -1.6801
  753MOL0     H 1618   4.867   0.825   3.717  3.3795 -1.6358  1.8042
  753MOL0     H 1619   4.714   1.029   3.792  0.7401 -0.2837  0.3630
  753MOL0     H 1620   4.684   1.001   3.620  0.9122 -0.9063  1.1143
  753MOL0     H 1621   4.506   1.128   3.822  3.8227 -2.7040  0.7124
  753MOL0     H 1622   4.548   1.207   3.661  0.0431 -0.1275 -0.9581
  753MOL0     H 1623   4.410   0.997   3.574  1.9473 -4.2136  2.9043
  753MOL0     H 1624   4.345   0.987   3.730  0.2000 -0.7666 -0.3966
  753MOL0     H 1625   4.343   1.259   3.600  3.1169 -1.8491  0.0635
  753MOL0     H 1626   4.255   1.202   3.745 -1.3129  0.0320 -0.4236
  753MOL0     H 1627   4.119   1.051   3.600  1.9713 -2.2493 -3.0445
  753MOL0     H 1628   4.210   1.123   3.460  0.6859  0.1563  0.0048
  753MOL0     H 1629   4.109   1.361   3.542 -0.2297  0.4616 -1.8757
  753MOL0     H 1630   4.020   1.257   3.447  3.4036  1.4874 -1.4965
  753MOL0     H 1631   3.898   1.164   3.639  0.4491  0.6867 -3.9478
  753MOL0     H 1632   3.895   1.343   3.643 -0.2121  0.1674 -1.5892
  753MOL0     H 1633   3.912   1.274   3.870  0.0113 -0.1063  1.5759
  753MOL0     H 1634   4.057   1.187   3.835  0.2482  1.3962  2.4818
  753MOL0     H 1635   4.467   0.671   3.812  0.9662  3.6734  1.7101
  753MOL0     H 1636   4.563   0.449   3.850  0.3036  0.2233 -1.6746
  753MOL0     H 1637   4.898   0.203   3.966 -0.9663 -0.4719 -0.5554
  753MOL0     H 1638   5.048   0.006   4.017 -3.4755  1.2759  1.0672
  753MOL0     H 1639   6.310   0.630   3.278  2.5699  0.8851  1.1705
  753MOL0     H 1640   6.442   0.806   3.323 -3.9638 -2.2108 -0.1482
  753MOL0     H 1641   6.864   0.950   3.078  1.2587  0.0921 -0.8568
  753MOL0     H 1642   7.085   1.049   3.081  0.2045  0.7956  0.1205
  753MOL0     H 1643   7.224   1.434   3.265 -0.3527 -2.4967  1.3700
  753MOL0     H 1644   7.072   1.431   3.164  0.0973  1.5171  3.0548
  753MOL0     H 1645   7.246   1.476   2.996 -1.2946  1.0145  2.2954
  753MOL0     H 1646   7.225   1.298   2.999 -0.3225  0.8442 -0.9394
  753MOL0     H 1647   7.426   1.255   3.107 -1.3190 -0.7746  0.1986
  753MOL0     H 1648   7.443   1.418   3.183 -1.1114  0.9265 -0.3727
  753MOL0     H 1649   7.468   1.351   2.879 -0.6581 -0.1674 -0.2237
  753MOL0     H 1650   7.514   1.506   2.969 -1.4999 -0.6926  1.5479
  753MOL0     H 1651   7.860   1.273   2.966 -1.2759  0.1411 -0.7886
  753MOL0     H 1652   6.956   1.339   3.378 -3.8217  1.8523 -1.2472
  753MOL0     H 1653   6.614   1.296   3.367 -1.2289  1.9148  3.0416
  753MOL0     H 1654   6.685   1.195   3.485 -0.2467 -2.7636 -1.3713
  753MOL0     H 1655   6.755   1.348   3.458 -0.0428 -0.7812 -1.5720
  754MOL0     O 1656   8.094   3.034   3.030 -0.4289 -0.0358  0.2531
  754MOL0     C 1657   8.001   3.040   3.102 -0.3116  0.1750  0.0440
  754MOL0     O 1658   8.007   3.008   3.236  0.0288 -0.3267 -0.3729
  754MOL0     C 1659   8.133   2.982   3.282 -0.6552 -0.7530 -0.0227
  754MOL0     C 1660   8.194   3.091   3.354  0.2110  1.1013 -0.6115
  754MOL0     C 1661   8.316   3.065   3.423  0.1015  0.2306 -0.1209
  754MOL0     C 1662   8.391   2.950   3.399 -0.2636 -0.5943  0.2642
  754MOL0     O 1663   8.517   2.938   3.450  0.0113  0.1358 -0.3147
  754MOL0     C 1664   8.606   2.832   3.430 -0.5893 -0.2781  0.2957
  754MOL0     C 1665   8.727   2.850   3.520  0.0430 -0.2969  0.8946
  754MOL0     C 1666   8.839   2.763   3.486 -0.9131 -0.4651 -0.4449
  754MOL0     C 1667   8.980   2.797   3.537  0.2693  0.0415  0.5631
  754MOL0     C 1668   9.090   2.726   3.460  0.2683  0.1222  0.4036
  754MOL0     C 1669   9.113   2.771   3.313 -0.0915 -0.1998 -0.1151
  754MOL0     C 1670   9.241   2.699   3.256  0.1340  0.0770  0.7053
  754MOL0     C 1671   9.388   2.730   3.297 -0.1962 -0.1397 -0.5274
  754MOL0     N 1672   9.431   2.866   3.273  0.4398 -0.0999  0.8356
  754MOL0     C 1673   9.394   2.977   3.342 -0.3701 -0.9018  0.5137
  754MOL0     C 1674   9.447   3.074   3.268  0.1285 -0.5713 -0.5698
  754MOL0     C 1675   9.398   3.216   3.284  0.1590  0.0926  0.3764
  754MOL0     C 1676   9.458   3.282   3.411 -0.6104 -0.4740 -0.6869
  754MOL0     C 1677   9.339   3.368   3.480  0.9867  0.0281  0.3872
  754MOL0     C 1678   9.231   3.274   3.534 -0.2258  0.9757  0.5180
  754MOL0     O 1679   9.155   3.349   3.631 -0.3734  0.4923  0.0053
  754MOL0     C 1680   9.033   3.286   3.655  0.1340  0.3361  0.6514
  754MOL0     C 1681   9.019   3.154   3.709  0.1224 -0.1478  0.0203
  754MOL0     C 1682   8.889   3.103   3.738 -0.0403 -0.2034  0.2753
  754MOL0     C 1683   8.773   3.188   3.715  0.1057  0.2803 -0.1727
  754MOL0     C 1684   8.634   3.145   3.771 -0.3580  1.1364 -0.5270
  754MOL0     O 1685   8.632   3.024   3.832 -1.1638  0.2994 -0.5320
  754MOL0     C 1686   8.508   2.972   3.850 -0.3483  0.0079  0.3938
  754MOL0     C 1687   8.488   2.915   3.973 -0.7202  0.0622 -0.1112
  754MOL0     C 1688   8.371   2.857   4.016 -0.5705  0.2433  0.0763
  754MOL0     C 1689   8.259   2.850   3.932  0.1391  0.0484 -0.1119
  754MOL0     O 1690   8.138   2.810   3.972  0.6836 -0.1240 -0.5610
  754MOL0     C 1691   8.133   2.714   4.082 -1.0810  0.4173  0.1655
  754MOL0     C 1692   7.995   2.673   4.134 -0.4021 -0.4644 -0.7383
  754MOL0     C 1693   7.933   2.790   4.232 -0.7090  0.6510 -0.1872
  754MOL0     C 1694   7.902   2.921   4.167 -0.0649  0.4574 -0.0450
  754MOL0     C 1695   7.825   3.021   4.250  0.9887  0.0770 -0.1779
  754MOL0     C 1696   7.919   3.110   4.308 -0.6445 -0.5608  0.2141
  754MOL0     C 1697   7.858   3.217   4.406  0.0968  0.1075  0.2708
  754MOL0     C 1698   7.959   3.305   4.471 -0.4019  0.0753 -0.7861
  754MOL0    Cl 1699   8.033   3.425   4.359  0.2162 -0.1221 -0.2666
  754MOL0     C 1700   8.284   2.901   3.799  0.4799 -0.4348 -0.9297
  754MOL0     C 1701   8.408   2.955   3.762  0.3821  0.6577  1.0002
  754MOL0     O 1702   8.540   3.224   3.763 -0.0479 -0.1120 -0.2467
  754MOL0     C 1703   8.790   3.313   3.642 -0.3621  0.3282 -0.2583
  754MOL0     C 1704   8.916   3.361   3.618 -0.3196  0.4958 -0.6041
  754MOL0     N 1705   9.529   3.028   3.171  0.4811  0.2407  0.2506
  754MOL0     N 1706   9.516   2.893   3.166 -0.5410 -1.3724  0.1236
  754MOL0     C 1707   8.328   2.849   3.324  0.2699  0.4111  0.2360
  754MOL0     C 1708   8.201   2.863   3.265  0.2055 -0.9809 -0.4978
  754MOL0     C 1709   7.879   3.102   3.055 -0.5870 -0.3821 -0.2299
  754MOL0     C 1710   7.755   3.053   3.093  0.0170 -0.3848 -0.6085
  754MOL0     C 1711   7.638   3.109   3.041  0.3970 -0.0468  0.2921
  754MOL0     C 1712   7.629   3.206   2.953 -0.8566  0.2253  0.7622
  754MOL0     O 1713   7.515   3.254   2.895  0.5194  0.8175 -0.1539
  754MOL0     C 1714   7.385   3.215   2.950 -0.4262 -0.2428  0.2436
  754MOL0     C 1715   7.372   3.290   3.085  0.9142 -0.3590  0.2313
  754MOL0     C 1716   7.375   3.444   3.053  0.4411  1.0318 -0.1848
  754MOL0     C 1717   7.377   3.520   3.192 -0.8826 -0.3077  1.0308
  754MOL0     C 1718   7.440   3.655   3.193  0.4964 -0.6758  0.9627
  754MOL0     C 1719   7.492   3.765   3.187 -0.0189 -0.8911  0.6620
  754MOL0     C 1720   7.755   3.266   2.919 -0.4685 -0.5111  0.0073
  754MOL0     C 1721   7.884   3.216   2.961  0.1890 -0.1317  0.0629
  754MOL0     C 1722   8.014   3.283   2.899 -0.1816 -0.2687 -0.1630
  754MOL0     H 1723   8.143   3.186   3.352  2.1278  2.2456 -4.3903
  754MOL0     H 1724   8.349   3.148   3.486 -1.7096  0.4762  0.5563
  754MOL0     H 1725   8.548   2.747   3.466  0.8700 -0.9220  1.2101
  754MOL0     H 1726   8.645   2.830   3.328 -0.3124 -1.9376  0.4066
  754MOL0     H 1727   8.692   2.839   3.623 -3.5711 -3.3595 -0.4029
  754MOL0     H 1728   8.755   2.955   3.506  0.0392 -0.7118 -3.3033
  754MOL0     H 1729   8.841   2.764   3.377  3.2193 -0.8748 -0.5346
  754MOL0     H 1730   8.815   2.667   3.532  0.3939 -0.4888  0.2268
  754MOL0     H 1731   8.998   2.905   3.538  4.3796 -0.4050 -1.4208
  754MOL0     H 1732   9.001   2.754   3.636  0.9490 -3.2101 -0.8539
  754MOL0     H 1733   9.183   2.728   3.518  0.6566 -0.8112 -0.1572
  754MOL0     H 1734   9.059   2.621   3.452  0.0965  0.3141 -2.0457
  754MOL0     H 1735   9.026   2.736   3.257  0.7516 -0.1721 -1.4717
  754MOL0     H 1736   9.101   2.880   3.313 -2.2386 -0.3463  1.7488
  754MOL0     H 1737   9.244   2.724   3.150 -0.0973  0.5911  0.8143
  754MOL0     H 1738   9.226   2.592   3.273  0.2925  0.3193  2.5522
  754MOL0     H 1739   9.404   2.702   3.401 -2.9804 -1.5686 -0.3948
  754MOL0     H 1740   9.455   2.670   3.234  0.5100  1.5041 -1.4087
  754MOL0     H 1741   9.329   2.986   3.428  2.9628 -2.9825  3.5182
  754MOL0     H 1742   9.418   3.274   3.193 -2.0955 -2.2888 -1.7985
  754MOL0     H 1743   9.289   3.223   3.279  0.2102  0.7958  0.1470
  754MOL0     H 1744   9.498   3.220   3.491  1.5432  2.5138  0.7604
  754MOL0     H 1745   9.529   3.363   3.391 -1.3689  1.5362  3.6178
  754MOL0     H 1746   9.293   3.430   3.402  0.8834 -1.0489 -0.4297
  754MOL0     H 1747   9.375   3.428   3.564  2.2397 -0.4585  0.2196
  754MOL0     H 1748   9.272   3.184   3.582 -4.0161  0.3464  3.0076
  754MOL0     H 1749   9.180   3.232   3.446  2.1669  2.2235 -1.6047
  754MOL0     H 1750   9.112   3.104   3.735  0.2219 -0.3088 -0.6330
  754MOL0     H 1751   8.885   3.006   3.787  3.5664 -0.2352  0.7502
  754MOL0     H 1752   8.565   2.916   4.050 -1.4606  1.3353  0.6433
  754MOL0     H 1753   8.375   2.837   4.123  0.0208  0.5747  0.1188
  754MOL0     H 1754   8.179   2.625   4.039 -2.8167 -0.0153 -0.9259
  754MOL0     H 1755   8.186   2.745   4.172 -1.6749 -0.3754  0.8032
  754MOL0     H 1756   7.924   2.643   4.056  0.1927  2.4816 -2.5835
  754MOL0     H 1757   8.018   2.589   4.199  1.0101  0.3877 -0.0948
  754MOL0     H 1758   7.852   2.741   4.287 -0.0962 -0.9226 -0.6147
  754MOL0     H 1759   8.003   2.806   4.314 -1.3777  0.0019  0.5329
  754MOL0     H 1760   7.830   2.893   4.089 -2.6218  1.5074  1.8112
  754MOL0     H 1761   7.983   2.977   4.120 -0.0585  0.2594 -0.2742
  754MOL0     H 1762   7.759   2.971   4.321  1.1234 -1.6325 -1.1928
  754MOL0     H 1763   7.766   3.088   4.187 -0.8121 -2.8267 -1.7476
  754MOL0     H 1764   7.986   3.045   4.365  0.5915 -1.3372 -1.9814
  754MOL0     H 1765   7.984   3.152   4.230 -0.5894 -0.5764  0.2512
  754MOL0     H 1766   7.817   3.173   4.498  1.2162  0.6262  1.0309
  754MOL0     H 1767   7.777   3.277   4.362  1.3637  1.2340 -0.5865
  754MOL0     H 1768   7.921   3.353   4.562  0.2234 -2.0291  0.6473
  754MOL0     H 1769   8.042   3.244   4.505 -0.1365 -1.0615 -3.2139
  754MOL0     H 1770   8.209   2.897   3.720 -0.4832  3.0596 -0.3814
  754MOL0     H 1771   8.427   2.991   3.661  1.7901  1.0804  1.3922
  754MOL0     H 1772   8.705   3.380   3.640 -0.4181  0.6880  4.0929
  754MOL0     H 1773   8.933   3.463   3.585  3.0176 -0.5455 -2.5997
  754MOL0     H 1774   8.373   2.751   3.324  2.4820  1.3595 -0.9692
  754MOL0     H 1775   8.144   2.796   3.202 -0.7449  0.8869 -1.7216
  754MOL0     H 1776   7.753   2.971   3.165  4.7444 -0.7554 -0.5401
  754MOL0     H 1777   7.546   3.087   3.094 -0.2634 -0.7151 -1.0907
  754MOL0     H 1778   7.375   3.107   2.963 -1.9101 -0.1362  0.1538
  754MOL0     H 1779   7.311   3.249   2.878  1.3080  3.6109  0.0298
  754MOL0     H 1780   7.442   3.265   3.166 -0.1903  1.1529  1.7185
  754MOL0     H 1781   7.275   3.275   3.132  0.5695 -2.3583 -0.9929
  754MOL0     H 1782   7.285   3.476   3.001 -1.6709 -0.6031  2.2280
  754MOL0     H 1783   7.461   3.478   2.993  0.5522 -0.1994 -0.7623
  754MOL0     H 1784   7.271   3.532   3.217 -2.1554 -0.6069 -3.4152
  754MOL0     H 1785   7.440   3.468   3.265  4.0558  0.5871 -2.1231
  754MOL0     H 1786   7.548   3.856   3.178 -0.4676 -0.6571  0.1651
  754MOL0     H 1787   7.749   3.355   2.857  1.6922  1.1394  1.9863
  754MOL0     H 1788   8.097   3.294   2.970  0.9480  0.4576 -1.5551
  754MOL0     H 1789   8.056   3.230   2.813  1.6289  0.6233  0.1320
  754MOL0     H 1790   7.985   3.382   2.864  0.0800  0.2671  1.1008
  755MOL0     O 1791  10.198   5.490   4.923  0.1184  0.6009 -0.4839
  755MOL0     C 1792  10.291   5.576   4.900 -0.2230  0.8391 -0.7340
  755MOL0     O 1793  10.310   5.647   4.782 -0.5945 -0.2572  0.1298
  755MOL0     C 1794  10.216   5.656   4.689 -0.1607  0.0448 -0.1933
  755MOL0     C 1795  10.080   5.645   4.724 -0.2284  0.2664  0.4017
  755MOL0     C 1796   9.982   5.631   4.624  0.4166  0.7498 -0.3717
  755MOL0     C 1797  10.017   5.636   4.492  0.4285  0.1029  0.0655
  755MOL0     O 1798   9.907   5.623   4.414  0.4341 -0.2326  0.3884
  755MOL0     C 1799   9.912   5.686   4.284  0.0202  0.5970 -0.1007
  755MOL0     C 1800   9.793   5.772   4.297 -0.2456  0.4129  0.2255
  755MOL0     C 1801   9.752   5.818   4.154  0.4569  0.1238  0.9302
  755MOL0     C 1802   9.629   5.912   4.161  0.6160  0.0331  0.3532
  755MOL0     C 1803   9.498   5.848   4.215 -0.4037  0.4147  0.2033
  755MOL0     C 1804   9.433   5.744   4.117  0.8173 -0.9665  0.3621
  755MOL0     C 1805   9.318   5.670   4.181  0.4899  0.6328 -0.1657
  755MOL0     C 1806   9.188   5.759   4.190  0.5585  0.5613 -0.1896
  755MOL0     N 1807   9.155   5.806   4.324 -0.5592 -0.7287 -0.1847
  755MOL0     C 1808   9.022   5.829   4.346  0.8924  0.3077 -0.2946
  755MOL0     C 1809   9.018   5.887   4.474 -0.3995 -1.3385  0.5471
  755MOL0     C 1810   8.900   5.937   4.541  0.0349  1.3120 -0.4692
  755MOL0     C 1811   8.850   6.068   4.473 -0.0648  0.5359 -0.2671
  755MOL0     C 1812   8.771   6.064   4.339  0.7048  0.3803  0.3516
  755MOL0     C 1813   8.660   5.954   4.331 -0.1870  0.2927 -0.6051
  755MOL0     O 1814   8.557   5.992   4.423  0.0034 -0.4101  0.0656
  755MOL0     C 1815   8.445   5.922   4.445  0.1111  0.9235 -0.5828
  755MOL0     C 1816   8.420   5.799   4.395  0.8154 -0.0481 -0.7229
  755MOL0     C 1817   8.293   5.739   4.410  0.1590  0.4231  0.2181
  755MOL0     C 1818   8.186   5.798   4.482  0.6219  0.6690  0.4938
  755MOL0     C 1819   8.065   5.718   4.518 -0.7109  0.1859  0.2284
  755MOL0     O 1820   8.042   5.608   4.423 -0.3607  0.6382  0.1039
  755MOL0     C 1821   7.922   5.537   4.439 -0.5368  0.5728 -0.3990
  755MOL0     C 1822   7.914   5.440   4.541 -0.4056  0.4988 -0.2121
  755MOL0     C 1823   7.794   5.375   4.578 -0.7692 -0.3590  0.8435
  755MOL0     C 1824   7.687   5.395   4.490  0.2945  0.9155  0.7785
  755MOL0     O 1825   7.565   5.336   4.504  0.1581 -0.3002 -0.2317
  755MOL0     C 1826   7.540   5.232   4.592  0.0447 -0.2111  0.7939
  755MOL0     C 1827   7.555   5.105   4.502 -0.2049 -0.5876 -0.1989
  755MOL0     C 1828   7.546   4.974   4.593 -0.2586 -0.4978 -0.1395
  755MOL0     C 1829   7.533   4.841   4.510 -0.9291 -0.3174 -0.3871
  755MOL0     C 1830   7.397   4.832   4.433 -0.9620  1.0040 -0.2021
  755MOL0     C 1831   7.429   4.743   4.319  0.9251 -0.5927  0.0101
  755MOL0     C 1832   7.322   4.760   4.206 -0.3087 -0.0160  0.2899
  755MOL0     C 1833   7.366   4.698   4.069 -0.2790 -0.1399 -0.1969
  755MOL0    Cl 1834   7.215   4.720   3.972  0.0295  0.4170  0.6145
  755MOL0     C 1835   7.694   5.491   4.398 -0.0990 -0.4013 -0.3225
  755MOL0     C 1836   7.812   5.565   4.366 -0.3769  1.0352  0.6242
  755MOL0     O 1837   8.004   5.752   4.612 -0.3289 -0.4023  0.0900
  755MOL0     C 1838   8.204   5.933   4.511 -0.0024 -0.3042 -0.0651
  755MOL0     C 1839   8.335   5.993   4.495 -0.3212  0.5616 -0.1231
  755MOL0     N 1840   9.149   5.889   4.519  0.3709 -0.4204 -0.0174
  755MOL0     N 1841   9.231   5.838   4.436 -0.0338 -0.4106 -0.1085
  755MOL0     C 1842  10.150   5.638   4.453  0.9771 -0.0673  0.4723
  755MOL0     C 1843  10.249   5.654   4.550 -0.2889  0.0471  0.0734
  755MOL0     C 1844  10.400   5.577   5.003 -0.9430 -0.8424  0.9713
  755MOL0     C 1845  10.461   5.705   5.034  0.6670  0.3309  1.0707
  755MOL0     C 1846  10.549   5.731   5.132 -0.7290  0.0798  0.5167
  755MOL0     C 1847  10.596   5.612   5.202  0.6346 -0.1682  0.7957
  755MOL0     O 1848  10.690   5.610   5.295 -0.0135  0.2418  0.4714
  755MOL0     C 1849  10.739   5.735   5.358  0.5036  0.0990 -0.7472
  755MOL0     C 1850  10.890   5.723   5.362 -0.9702 -0.7223  0.1769
  755MOL0     C 1851  10.956   5.770   5.231  0.7933 -0.5570 -0.3366
  755MOL0     C 1852  11.102   5.752   5.230 -0.1605  0.1650 -0.2696
  755MOL0     C 1853  11.130   5.609   5.199  1.0082 -0.1030 -1.0111
  755MOL0     C 1854  11.169   5.497   5.173  0.1579  0.2995 -0.8786
  755MOL0     C 1855  10.547   5.484   5.168  0.9307  0.2596 -1.0338
  755MOL0     C 1856  10.448   5.471   5.075 -0.2378  0.1241  0.4316
  755MOL0     C 1857  10.398   5.330   5.049 -0.5046 -0.0176 -0.4586
  755MOL0     H 1858  10.048   5.628   4.827  2.1910 -1.5365  0.9732
  755MOL0     H 1859   9.877   5.620   4.649  0.8564 -1.2259  0.8284
  755MOL0     H 1860   9.991   5.758   4.258  1.1460 -0.7564 -0.5504
  755MOL0     H 1861   9.889   5.607   4.212  1.1011 -2.0172  2.2654
  755MOL0     H 1862   9.816   5.856   4.363 -0.5459 -0.1450  1.0631
  755MOL0     H 1863   9.708   5.718   4.340  0.0314  1.8809  2.8285
  755MOL0     H 1864   9.731   5.732   4.090  0.8855  2.6658 -3.0117
  755MOL0     H 1865   9.830   5.870   4.098  0.1693 -1.5184 -1.1355
  755MOL0     H 1866   9.642   5.995   4.231  1.8672  0.0918  0.0695
  755MOL0     H 1867   9.607   5.951   4.061 -1.3521 -0.9609  0.3488
  755MOL0     H 1868   9.522   5.796   4.308  0.2824 -1.5232 -0.9696
  755MOL0     H 1869   9.431   5.931   4.237 -0.6783  0.7058 -1.5793
  755MOL0     H 1870   9.396   5.792   4.026 -1.4388 -0.7160  1.3384
  755MOL0     H 1871   9.512   5.674   4.090  1.9343 -0.4400  2.0759
  755MOL0     H 1872   9.352   5.637   4.280  0.1801  0.8637  0.0163
  755MOL0     H 1873   9.302   5.576   4.127  1.8606  0.5313 -0.4420
  755MOL0     H 1874   9.193   5.848   4.127  0.9344 -0.7643 -2.1129
  755MOL0     H 1875   9.103   5.702   4.153  0.3447  0.2096  0.8155
  755MOL0     H 1876   8.947   5.814   4.269 -0.5552 -0.9685  1.2789
  755MOL0     H 1877   8.833   5.852   4.526  3.6407 -2.1367  1.1325
  755MOL0     H 1878   8.926   5.948   4.647  2.1731 -3.3319 -0.2943
  755MOL0     H 1879   8.784   6.109   4.549 -0.4735 -0.9235  0.2051
  755MOL0     H 1880   8.937   6.132   4.454 -1.3160  1.7733 -2.0868
  755MOL0     H 1881   8.839   6.062   4.254  1.0254  1.5020  0.5689
  755MOL0     H 1882   8.717   6.159   4.340  0.4040  0.2135  1.1816
  755MOL0     H 1883   8.693   5.853   4.355 -0.6085  0.4936  0.9957
  755MOL0     H 1884   8.618   5.953   4.230 -0.8579 -1.3937 -0.3360
  755MOL0     H 1885   8.504   5.738   4.363 -0.1732 -2.4455  0.9846
  755MOL0     H 1886   8.292   5.634   4.382  0.7249  0.3012  0.6572
  755MOL0     H 1887   8.000   5.431   4.607  0.0659  1.4963 -0.6739
  755MOL0     H 1888   7.795   5.299   4.655  0.0867  0.5180  1.7255
  755MOL0     H 1889   7.610   5.237   4.675  0.6561 -0.6604  0.3207
  755MOL0     H 1890   7.436   5.252   4.621  0.0763  0.6233  0.3611
  755MOL0     H 1891   7.467   5.108   4.437 -0.7894 -0.6416  0.5706
  755MOL0     H 1892   7.640   5.117   4.434 -0.3236 -1.6260 -0.5479
  755MOL0     H 1893   7.641   4.962   4.646  0.4726 -0.2780 -1.3586
  755MOL0     H 1894   7.468   4.979   4.670  2.3619 -3.1964  3.0167
  755MOL0     H 1895   7.556   4.753   4.571  2.9770 -0.5275 -1.8767
  755MOL0     H 1896   7.609   4.843   4.432  0.6772  1.4369  1.1343
  755MOL0     H 1897   7.367   4.927   4.388 -0.0880  1.7771  0.8108
  755MOL0     H 1898   7.309   4.799   4.490 -0.8567  0.4977 -0.3275
  755MOL0     H 1899   7.518   4.784   4.270 -0.1614  3.3936  1.0073
  755MOL0     H 1900   7.445   4.638   4.346  0.9504 -1.1253 -1.9178
  755MOL0     H 1901   7.308   4.868   4.189  3.5929  0.4651 -0.7845
  755MOL0     H 1902   7.239   4.703   4.248  1.6452 -1.0115  3.1049
  755MOL0     H 1903   7.449   4.756   4.027 -0.2580 -0.5600 -0.7407
  755MOL0     H 1904   7.395   4.593   4.073 -2.0117 -0.6723 -0.7856
  755MOL0     H 1905   7.601   5.506   4.344  0.2617  0.7848 -0.6273
  755MOL0     H 1906   7.813   5.644   4.292 -1.3455  2.4850  2.0937
  755MOL0     H 1907   8.123   5.997   4.545  0.6712 -0.5424  2.1448
  755MOL0     H 1908   8.361   6.096   4.519  1.3270 -0.2785  1.9481
  755MOL0     H 1909  10.159   5.625   4.346  2.7518 -3.7064  0.9242
  755MOL0     H 1910  10.351   5.649   4.513  0.6627  1.2101  2.3172
  755MOL0     H 1911  10.430   5.783   4.964 -1.1555  0.9994  2.5374
  755MOL0     H 1912  10.585   5.831   5.152 -1.5622  0.3604  0.6530
  755MOL0     H 1913  10.686   5.750   5.453  1.3263 -0.5813 -0.1664
  755MOL0     H 1914  10.709   5.828   5.310 -3.7236 -0.2265  0.7711
  755MOL0     H 1915  10.926   5.626   5.397  1.4700  0.1696  0.3178
  755MOL0     H 1916  10.923   5.794   5.438  1.4657 -1.4039 -0.1733
  755MOL0     H 1917  10.925   5.875   5.231  3.3924  0.3360 -2.5907
  755MOL0     H 1918  10.897   5.718   5.155 -0.1873  0.1783 -0.0936
  755MOL0     H 1919  11.148   5.804   5.145  0.9877 -0.8653 -0.3130
  755MOL0     H 1920  11.145   5.774   5.328 -2.4745 -0.8684  1.0583
  755MOL0     H 1921  11.195   5.395   5.153 -0.7129  0.1083 -1.1109
  755MOL0     H 1922  10.588   5.397   5.218  0.2679 -0.9088 -2.4671
  755MOL0     H 1923  10.417   5.330   4.942 -1.1036  0.1968 -0.5676
  755MOL0     H 1924  10.461   5.251   5.091  0.2879 -0.4540 -2.4040
  755MOL0     H 1925  10.293   5.303   5.063 -0.8388  0.3884 -2.0384
  756MOL0     O 1926   6.621   7.355   2.099 -0.0091 -0.1183  0.9124
  756MOL0     C 1927   6.745   7.364   2.081  0.6662 -0.6852 -0.1011
  756MOL0     O 1928   6.823   7.270   2.019  0.3188 -0.2950 -0.5037
  756MOL0     C 1929   6.776   7.165   1.940  0.3871 -1.5277  0.7961
  756MOL0     C 1930   6.666   7.170   1.854  0.3682 -0.1508  0.2252
  756MOL0     C 1931   6.634   7.066   1.773 -0.2518 -0.5211  0.3850
  756MOL0     C 1932   6.722   6.957   1.765  0.6150  1.3111  0.2550
  756MOL0     O 1933   6.702   6.848   1.684 -0.6063 -0.4567  0.3406
  756MOL0     C 1934   6.565   6.808   1.661  0.5649  0.5594 -0.9309
  756MOL0     C 1935   6.562   6.713   1.545 -0.1126 -1.0759  0.2671
  756MOL0     C 1936   6.631   6.754   1.414 -0.4952 -0.3977 -0.0282
  756MOL0     C 1937   6.541   6.866   1.341  0.5598  0.3483  0.6099
  756MOL0     C 1938   6.632   6.920   1.229 -0.2825 -0.6861 -0.4234
  756MOL0     C 1939   6.610   6.841   1.106 -0.2889 -0.0036  0.1178
  756MOL0     C 1940   6.675   6.922   0.986 -0.7839 -0.3207  0.2007
  756MOL0     C 1941   6.680   6.840   0.865 -0.0584  0.6770 -0.3920
  756MOL0     N 1942   6.735   6.901   0.745 -0.3902  0.6204 -0.3319
  756MOL0     C 1943   6.754   7.031   0.717  0.7640 -0.7879 -0.8354
  756MOL0     C 1944   6.823   7.034   0.602 -0.2793  0.7701  0.3064
  756MOL0     C 1945   6.891   7.150   0.544  0.4821 -0.2976 -0.3978
  756MOL0     C 1946   6.840   7.179   0.404  0.2426 -0.3228 -1.7297
  756MOL0     C 1947   6.889   7.309   0.340 -0.1666  0.2224  0.3791
  756MOL0     C 1948   6.826   7.373   0.215 -0.8056  0.9086  0.3438
  756MOL0     O 1949   6.704   7.424   0.246  0.0022 -0.0194  0.3564
  756MOL0     C 1950   6.655   7.523   0.155 -0.9044  0.1862  0.7480
  756MOL0     C 1951   6.548   7.593   0.206 -0.0854  0.2712 -0.2176
  756MOL0     C 1952   6.501   7.709   0.141  0.2819  0.2764  0.0076
  756MOL0     C 1953   6.560   7.756   0.024  0.5786  0.2018  1.1298
  756MOL0     C 1954   6.519   7.892  -0.028  0.4965  0.4659 -1.0671
  756MOL0     O 1955   6.408   7.952   0.033 -0.1027 -0.8007  0.0552
  756MOL0     C 1956   6.382   8.092   0.014  0.4775  0.1187  0.2292
  756MOL0     C 1957   6.347   8.167   0.128  0.1954  0.2550  0.1220
  756MOL0     C 1958   6.299   8.294   0.120  0.3710 -0.5421  0.1012
  756MOL0     C 1959   6.300   8.361  -0.004 -0.2167 -0.4746  0.0672
  756MOL0     O 1960   6.251   8.493  -0.028 -0.2934 -0.2997 -0.6213
  756MOL0     C 1961   6.265   8.578   0.088 -0.3212  0.0772 -0.4886
  756MOL0     C 1962   6.302   8.722   0.054  0.8842  0.2261  0.2330
  756MOL0     C 1963   6.446   8.726   0.007 -0.3783 -0.6036 -0.6923
  756MOL0     C 1964   6.480   8.865  -0.042 -0.6930 -0.3095  0.4644
  756MOL0     C 1965   6.628   8.892  -0.070 -0.8565  0.1165  0.3263
  756MOL0     C 1966   6.713   8.783  -0.149  0.9586 -0.0494 -0.2350
  756MOL0     C 1967   6.643   8.727  -0.279  0.1861 -0.3402 -0.9075
  756MOL0     C 1968   6.743   8.653  -0.368 -0.4189  0.6743  0.1384
  756MOL0    Cl 1969   6.889   8.754  -0.390  0.0069 -0.1876  0.0906
  756MOL0     C 1970   6.345   8.296  -0.110  0.1029  0.3805  0.6451
  756MOL0     C 1971   6.380   8.160  -0.110  0.0937  0.7392  0.0298
  756MOL0     O 1972   6.608   7.951  -0.096  0.4564  0.7033  0.3243
  756MOL0     C 1973   6.677   7.685  -0.020  0.9354 -0.5842 -0.6685
  756MOL0     C 1974   6.723   7.572   0.039  0.4408 -0.0346 -1.2045
  756MOL0     N 1975   6.828   6.901   0.551 -0.4132 -0.6267 -0.3982
  756MOL0     N 1976   6.790   6.825   0.646 -0.3800 -0.5833 -0.2292
  756MOL0     C 1977   6.845   6.948   1.839  0.2566 -0.1283  0.1848
  756MOL0     C 1978   6.860   7.059   1.923 -1.0291  0.0740  0.1751
  756MOL0     C 1979   6.808   7.476   2.151 -0.0761 -0.1653 -0.3195
  756MOL0     C 1980   6.908   7.549   2.090  0.5666 -0.2789 -0.2292
  756MOL0     C 1981   6.984   7.657   2.145  0.7756  1.0001 -0.2542
  756MOL0     C 1982   6.938   7.704   2.274 -1.1269 -0.5726  0.0071
  756MOL0     O 1983   6.982   7.824   2.339  0.1403  0.2182  0.3091
  756MOL0     C 1984   7.121   7.834   2.327 -0.6043 -0.0348 -0.5856
  756MOL0     C 1985   7.156   7.966   2.405  0.5848  0.0261  0.3599
  756MOL0     C 1986   7.095   8.094   2.343  0.4564 -0.1230 -0.1432
  756MOL0     C 1987   7.206   8.176   2.269  0.2028  2.0379 -0.4627
  756MOL0     C 1988   7.185   8.324   2.274 -0.0058  0.0703  0.0921
  756MOL0     C 1989   7.164   8.441   2.295  0.0183 -0.8823  1.0471
  756MOL0     C 1990   6.823   7.653   2.326  0.1723  0.4819  0.8505
  756MOL0     C 1991   6.762   7.538   2.268 -0.3327  0.1676  0.2641
  756MOL0     C 1992   6.661   7.479   2.359  0.6564  0.6530 -0.1869
  756MOL0     H 1993   6.599   7.255   1.863  0.0225 -0.0100 -2.7881
  756MOL0     H 1994   6.538   7.070   1.723 -0.8887 -0.1040  1.5975
  756MOL0     H 1995   6.534   6.757   1.752  0.3589  1.3781 -0.5301
  756MOL0     H 1996   6.501   6.893   1.635  0.4342  0.7443 -0.0331
  756MOL0     H 1997   6.456   6.690   1.531 -1.2489 -0.5228  5.7749
  756MOL0     H 1998   6.596   6.616   1.583 -0.3608 -1.2545  0.0431
  756MOL0     H 1999   6.636   6.675   1.339  0.8543  0.5607 -1.0131
  756MOL0     H 2000   6.734   6.784   1.436 -0.8370 -0.3431  1.6666
  756MOL0     H 2001   6.446   6.823   1.308  0.2147  1.8384 -0.4312
  756MOL0     H 2002   6.525   6.946   1.413 -1.2576  1.5654 -1.0600
  756MOL0     H 2003   6.613   7.027   1.220 -0.5670  0.2334  5.9371
  756MOL0     H 2004   6.737   6.919   1.261 -1.3006 -3.5368  3.7723
  756MOL0     H 2005   6.646   6.738   1.114 -1.1570 -0.2974  0.3578
  756MOL0     H 2006   6.505   6.813   1.097 -0.1003 -0.9453  0.6301
  756MOL0     H 2007   6.769   6.973   1.012 -2.1752  1.0945  2.9958
  756MOL0     H 2008   6.605   7.004   0.966  1.5999  1.0625 -3.4554
  756MOL0     H 2009   6.724   6.744   0.892 -1.3804 -0.5200 -2.3328
  756MOL0     H 2010   6.575   6.822   0.844 -0.2038 -0.7364  1.3339
  756MOL0     H 2011   6.724   7.120   0.771 -1.1708 -1.1265 -1.2687
  756MOL0     H 2012   6.870   7.236   0.608  1.7013  0.4840 -1.0117
  756MOL0     H 2013   7.000   7.138   0.552  0.2177 -1.7982  1.6268
  756MOL0     H 2014   6.873   7.100   0.336  0.7817 -0.3166 -1.4787
  756MOL0     H 2015   6.731   7.185   0.402  0.2715  1.3864 -0.1648
  756MOL0     H 2016   6.993   7.289   0.312 -0.2371  0.9345 -0.4451
  756MOL0     H 2017   6.885   7.379   0.424 -3.9504  1.4242 -0.6446
  756MOL0     H 2018   6.820   7.296   0.137  0.1479  1.2446 -0.0806
  756MOL0     H 2019   6.889   7.444   0.161  0.6852 -1.5099 -1.3223
  756MOL0     H 2020   6.510   7.549   0.297 -1.4431 -1.8732 -1.7392
  756MOL0     H 2021   6.428   7.771   0.192 -1.9721 -1.7099 -0.6502
  756MOL0     H 2022   6.352   8.114   0.223  0.7517 -1.9363 -1.0330
  756MOL0     H 2023   6.262   8.352   0.204  0.7730  2.0607 -1.4105
  756MOL0     H 2024   6.175   8.575   0.151 -0.3413 -1.1736 -0.5593
  756MOL0     H 2025   6.351   8.550   0.150  1.9214  3.7403 -1.6091
  756MOL0     H 2026   6.251   8.738  -0.042 -1.6297 -0.1859  1.4318
  756MOL0     H 2027   6.271   8.798   0.127 -0.1745  1.5263 -1.4741
  756MOL0     H 2028   6.517   8.689   0.081 -1.0298 -0.8002 -0.1522
  756MOL0     H 2029   6.456   8.656  -0.077  0.0099 -0.4179 -0.8026
  756MOL0     H 2030   6.441   8.950   0.015  0.1421  1.2434 -1.1856
  756MOL0     H 2031   6.433   8.877  -0.140 -1.7603 -1.2461  0.8488
  756MOL0     H 2032   6.678   8.910   0.026  1.2318  0.8156 -0.8320
  756MOL0     H 2033   6.653   8.985  -0.121  4.3777 -0.7835  0.6335
  756MOL0     H 2034   6.815   8.813  -0.176  0.7335 -0.5383 -1.7543
  756MOL0     H 2035   6.719   8.696  -0.083 -2.1916  1.2689  1.9754
  756MOL0     H 2036   6.606   8.814  -0.334  0.4088  0.2176 -0.1928
  756MOL0     H 2037   6.551   8.674  -0.251  0.0936  1.1363  1.9054
  756MOL0     H 2038   6.758   8.558  -0.316 -0.7403  0.3005 -0.4421
  756MOL0     H 2039   6.697   8.639  -0.466  1.1672 -0.9019 -0.4192
  756MOL0     H 2040   6.353   8.345  -0.206  2.3357  0.8856  1.0446
  756MOL0     H 2041   6.429   8.106  -0.191 -1.0820  0.7950 -0.7410
  756MOL0     H 2042   6.736   7.738  -0.094  0.1317  0.1669 -0.7984
  756MOL0     H 2043   6.805   7.520  -0.010  0.9382 -0.8933  0.4771
  756MOL0     H 2044   6.904   6.857   1.835  3.3335  1.7582 -1.1681
  756MOL0     H 2045   6.942   7.046   1.993 -2.6079 -0.5164  2.0227
  756MOL0     H 2046   6.955   7.514   1.999  1.9903  1.8364 -0.3652
  756MOL0     H 2047   7.070   7.686   2.086  0.7302  0.7558 -0.4433
  756MOL0     H 2048   7.163   7.826   2.226  0.1278 -3.7329 -0.1205
  756MOL0     H 2049   7.168   7.752   2.381 -0.7117 -0.9748 -1.8728
  756MOL0     H 2050   7.262   7.971   2.433  1.4873 -1.2067 -2.5008
  756MOL0     H 2051   7.107   7.958   2.502 -0.6816 -1.1171 -0.3490
  756MOL0     H 2052   7.049   8.158   2.419 -1.2539 -0.0056 -1.2179
  756MOL0     H 2053   7.017   8.059   2.274  1.0952 -1.1702 -0.3671
  756MOL0     H 2054   7.303   8.149   2.312 -1.6243 -1.7529  1.8571
  756MOL0     H 2055   7.209   8.150   2.163  2.3911  1.3426 -0.2717
  756MOL0     H 2056   7.165   8.542   2.331 -0.9409 -0.9726  1.3669
  756MOL0     H 2057   6.790   7.691   2.422 -0.2032 -3.7501  2.6042
  756MOL0     H 2058   6.577   7.550   2.356  0.1634  0.2003  1.6673
  756MOL0     H 2059   6.628   7.376   2.347  1.3057  0.4684 -0.4487
  756MOL0     H 2060   6.700   7.477   2.461 -2.6099  1.3285  1.2008
  757MOL0     O 2061  10.749   6.109   2.484  0.7021 -0.0130 -0.8385
  757MOL0     C 2062  10.745   6.147   2.367  0.9883 -0.2767 -0.3402
  757MOL0     O 2063  10.635   6.122   2.273 -0.4590 -0.1689 -0.6783
  757MOL0     C 2064  10.539   6.029   2.304  0.0594 -0.2195 -0.0207
  757MOL0     C 2065  10.557   5.898   2.258  0.5026 -0.4889 -0.0722
  757MOL0     C 2066  10.446   5.808   2.264 -0.1813 -0.3749  0.2793
  757MOL0     C 2067  10.318   5.837   2.320 -0.1414  0.4084 -0.0389
  757MOL0     O 2068  10.206   5.750   2.330  0.1976  0.8309 -0.0533
  757MOL0     C 2069  10.223   5.612   2.297 -0.0491  0.6605  0.3490
  757MOL0     C 2070  10.079   5.551   2.262 -0.0916  0.1848 -0.2607
  757MOL0     C 2071   9.984   5.639   2.166  0.2101 -0.0536  0.4533
  757MOL0     C 2072  10.043   5.691   2.036  0.1989  0.1306 -0.5135
  757MOL0     C 2073   9.939   5.741   1.938  0.1192  0.3315 -0.5539
  757MOL0     C 2074  10.007   5.779   1.803  0.0731  0.8951 -0.1542
  757MOL0     C 2075   9.901   5.862   1.727  0.0871 -0.0424 -0.3551
  757MOL0     C 2076   9.949   5.901   1.578 -0.4327 -0.2380 -0.1761
  757MOL0     N 2077  10.051   6.013   1.571 -0.4378  0.4191  0.0300
  757MOL0     C 2078  10.188   6.005   1.569  0.0221 -0.2130  0.0484
  757MOL0     C 2079  10.241   6.126   1.535  0.8139 -0.2102  0.2332
  757MOL0     C 2080  10.381   6.171   1.513 -0.1090  0.0136 -0.2662
  757MOL0     C 2081  10.438   6.286   1.611 -0.0940  1.3084 -0.6081
  757MOL0     C 2082  10.592   6.295   1.597  0.4344  0.9201  0.0335
  757MOL0     C 2083  10.647   6.422   1.660 -0.3169 -0.8820  0.5251
  757MOL0     O 2084  10.601   6.442   1.797 -0.7332  0.1795  0.6325
  757MOL0     C 2085  10.649   6.555   1.866  0.2987 -0.8408  0.7967
  757MOL0     C 2086  10.574   6.591   1.977  0.1535 -1.0477  0.1619
  757MOL0     C 2087  10.610   6.697   2.060 -0.4408  1.3737 -0.5002
  757MOL0     C 2088  10.735   6.768   2.035  0.5756 -0.2134  0.0063
  757MOL0     C 2089  10.753   6.897   2.119  0.6260  0.2329  0.3480
  757MOL0     O 2090  10.654   6.938   2.200 -0.0944 -0.4772 -0.0204
  757MOL0     C 2091  10.683   7.044   2.284 -0.2101 -0.8087 -0.3356
  757MOL0     C 2092  10.662   7.031   2.418 -0.0045  0.0926  0.0864
  757MOL0     C 2093  10.685   7.129   2.513  0.4838 -0.2225  0.5284
  757MOL0     C 2094  10.730   7.255   2.472  0.1964 -0.0104 -0.1125
  757MOL0     O 2095  10.755   7.347   2.567  0.1996  0.1006  0.6406
  757MOL0     C 2096  10.879   7.409   2.565  0.3634 -0.7687  0.9370
  757MOL0     C 2097  10.949   7.406   2.705  0.1893 -0.2726  0.4830
  757MOL0     C 2098  11.041   7.520   2.750  0.2437  0.0362  0.2449
  757MOL0     C 2099  10.968   7.657   2.744 -0.6354  0.3595 -0.7739
  757MOL0     C 2100  11.057   7.770   2.787  0.3681 -0.1031 -0.2660
  757MOL0     C 2101  10.979   7.898   2.787 -0.2101  0.2605 -0.6114
  757MOL0     C 2102  11.066   8.013   2.847  0.3313 -0.2118 -0.2881
  757MOL0     C 2103  10.978   8.143   2.860 -0.1913 -1.0093 -0.1390
  757MOL0    Cl 2104  10.906   8.176   2.692  0.3933 -0.2325  0.1974
  757MOL0     C 2105  10.744   7.281   2.335  0.0860  0.1871 -0.5732
  757MOL0     C 2106  10.716   7.176   2.239  0.1013  0.3823 -0.8649
  757MOL0     O 2107  10.865   6.939   2.116  0.1083 -0.2920  0.1857
  757MOL0     C 2108  10.812   6.723   1.931 -0.0811  0.7071  0.0599
  757MOL0     C 2109  10.765   6.619   1.846  0.1831  0.9254 -0.2430
  757MOL0     N 2110  10.128   6.208   1.521 -0.4837 -0.6442  0.0522
  757MOL0     N 2111  10.017   6.142   1.550 -0.0057  0.0665  0.1750
  757MOL0     C 2112  10.298   5.968   2.365 -0.5525 -0.9091  0.3708
  757MOL0     C 2113  10.412   6.062   2.361 -1.0652 -0.6928 -0.2872
  757MOL0     C 2114  10.856   6.230   2.313 -0.2829 -0.0965  0.5951
  757MOL0     C 2115  10.967   6.269   2.399 -0.0639  0.0668  0.4635
  757MOL0     C 2116  11.058   6.355   2.362 -0.3923 -0.7413 -0.1451
  757MOL0     C 2117  11.060   6.420   2.231  0.3270 -0.6403  0.0816
  757MOL0     O 2118  11.148   6.523   2.219  0.8949 -0.0512 -0.4942
  757MOL0     C 2119  11.092   6.629   2.139 -0.8057 -0.6933  0.1880
  757MOL0     C 2120  11.184   6.753   2.139  0.5563 -0.3753 -0.3015
  757MOL0     C 2121  11.320   6.719   2.080  0.3446  0.2185 -0.1532
  757MOL0     C 2122  11.416   6.837   2.079  0.7006  0.3832  0.2127
  757MOL0     C 2123  11.550   6.788   2.085 -0.5982 -0.3224  1.0680
  757MOL0     C 2124  11.669   6.745   2.098 -0.0944 -0.5498  0.2213
  757MOL0     C 2125  10.954   6.388   2.149 -0.6564  0.0213  0.6262
  757MOL0     C 2126  10.856   6.288   2.181 -0.1000 -0.4596 -0.5943
  757MOL0     C 2127  10.750   6.269   2.069 -0.0825  0.0725 -0.7101
  757MOL0     H 2128  10.653   5.864   2.219 -0.2787 -0.4582 -2.1357
  757MOL0     H 2129  10.466   5.704   2.238 -4.8647 -1.3377 -0.3382
  757MOL0     H 2130  10.284   5.587   2.210 -1.2030  0.7249 -0.5094
  757MOL0     H 2131  10.267   5.559   2.382 -3.5459  0.4495  2.2273
  757MOL0     H 2132  10.036   5.562   2.363  1.6956  3.3354  0.2804
  757MOL0     H 2133  10.066   5.453   2.216 -2.9953 -1.1055  2.8138
  757MOL0     H 2134   9.949   5.727   2.221 -1.3142 -0.5502  0.3216
  757MOL0     H 2135   9.898   5.572   2.156 -2.0194  2.6553  0.2731
  757MOL0     H 2136  10.116   5.768   2.061 -1.2722  1.8331 -1.2668
  757MOL0     H 2137  10.089   5.602   1.992 -0.9142 -0.5227 -0.4172
  757MOL0     H 2138   9.860   5.667   1.930 -0.1430  0.3756  1.1990
  757MOL0     H 2139   9.885   5.832   1.967  0.9292  1.1004 -1.3726
  757MOL0     H 2140  10.100   5.832   1.824  0.6380  0.5546 -1.6824
  757MOL0     H 2141  10.038   5.685   1.756  0.7927  1.1539 -0.2087
  757MOL0     H 2142   9.886   5.954   1.784  1.6553  0.2779 -0.4339
  757MOL0     H 2143   9.807   5.806   1.719  0.2411 -0.3825  0.2120
  757MOL0     H 2144   9.985   5.808   1.533  3.9040  1.7107 -1.2332
  757MOL0     H 2145   9.868   5.934   1.511 -3.4137 -3.7349  1.3323
  757MOL0     H 2146  10.254   5.920   1.574 -0.7533 -1.0358 -2.2020
  757MOL0     H 2147  10.440   6.079   1.523 -3.2664 -1.9607  1.7610
  757MOL0     H 2148  10.391   6.213   1.412 -2.3873  1.8903  0.2067
  757MOL0     H 2149  10.387   6.381   1.593 -5.0820 -0.4019  2.4506
  757MOL0     H 2150  10.407   6.248   1.709  1.0163 -1.7941 -1.3504
  757MOL0     H 2151  10.631   6.305   1.495  1.4534  0.4625  0.3651
  757MOL0     H 2152  10.638   6.208   1.645 -2.2697 -1.1407 -0.8840
  757MOL0     H 2153  10.627   6.504   1.591  0.4111 -1.6428 -0.6312
  757MOL0     H 2154  10.756   6.419   1.673 -0.3699  1.3265  1.9263
  757MOL0     H 2155  10.475   6.546   1.975 -0.0122 -0.6704 -0.0897
  757MOL0     H 2156  10.534   6.729   2.131  1.0660  2.9165  0.4887
  757MOL0     H 2157  10.621   6.940   2.461 -0.2673 -0.5550 -1.4472
  757MOL0     H 2158  10.687   7.095   2.616 -4.2948  0.8093  1.1718
  757MOL0     H 2159  10.954   7.354   2.506  2.4479 -2.5761  4.8484
  757MOL0     H 2160  10.862   7.515   2.546  1.9891 -0.2883  1.9842
  757MOL0     H 2161  10.876   7.381   2.782  1.1118 -2.8709  0.6275
  757MOL0     H 2162  11.017   7.320   2.710  0.3086 -0.1099  3.6158
  757MOL0     H 2163  11.081   7.497   2.849  0.7444  1.0466  0.2828
  757MOL0     H 2164  11.128   7.525   2.684  0.4230 -0.8110  0.3980
  757MOL0     H 2165  10.890   7.653   2.820 -0.2820  1.2964 -0.3532
  757MOL0     H 2166  10.918   7.676   2.648 -0.6841 -3.0740 -1.5523
  757MOL0     H 2167  11.146   7.784   2.725 -1.6736 -0.8629 -3.6843
  757MOL0     H 2168  11.081   7.743   2.890  0.6403 -1.2884 -0.6137
  757MOL0     H 2169  10.938   7.926   2.690 -1.4617  0.2414 -0.1106
  757MOL0     H 2170  10.898   7.885   2.859 -0.7769  2.9859 -0.6773
  757MOL0     H 2171  11.148   8.021   2.775 -0.7137  3.1116 -1.3087
  757MOL0     H 2172  11.110   7.999   2.946  2.2978  1.3960 -0.8577
  757MOL0     H 2173  10.900   8.116   2.932  0.8153 -2.1861  0.5435
  757MOL0     H 2174  11.029   8.226   2.909 -1.8041  0.0167 -0.1212
  757MOL0     H 2175  10.772   7.381   2.304 -0.9262 -0.3067 -3.3736
  757MOL0     H 2176  10.717   7.207   2.135  1.9584  1.3192 -0.6170
  757MOL0     H 2177  10.907   6.772   1.910  0.0287  0.1973 -0.6900
  757MOL0     H 2178  10.828   6.598   1.759 -0.8254 -2.0025 -0.3808
  757MOL0     H 2179  10.202   5.988   2.411 -0.6994 -2.6292  0.8925
  757MOL0     H 2180  10.397   6.169   2.374 -0.9800 -0.7120 -0.0399
  757MOL0     H 2181  10.981   6.222   2.496  3.1399 -0.6543 -0.2284
  757MOL0     H 2182  11.135   6.390   2.429  0.8410 -1.4056 -1.1795
  757MOL0     H 2183  10.992   6.649   2.179 -0.2580 -2.2790  2.5887
  757MOL0     H 2184  11.079   6.588   2.038  1.2686 -2.1608  0.4620
  757MOL0     H 2185  11.200   6.792   2.240  2.6878  0.4655 -0.8951
  757MOL0     H 2186  11.137   6.835   2.084  0.4038 -0.9019 -0.9722
  757MOL0     H 2187  11.303   6.681   1.979 -1.8811 -2.1469  0.9895
  757MOL0     H 2188  11.360   6.638   2.143  0.4293 -2.5464 -3.4638
  757MOL0     H 2189  11.403   6.900   1.991  1.9180  0.4779  0.0910
  757MOL0     H 2190  11.408   6.889   2.175  0.8378  3.6748 -1.4575
  757MOL0     H 2191  11.766   6.700   2.109 -0.2461 -0.5645  1.6929
  757MOL0     H 2192  10.940   6.453   2.063  3.7690  2.3029  1.3242
  757MOL0     H 2193  10.710   6.168   2.055 -4.0900  1.3684  0.0730
  757MOL0     H 2194  10.654   6.312   2.097  0.9317  0.9019  1.7310
  757MOL0     H 2195  10.787   6.314   1.976  0.5606  2.7668  0.7630
  758MOL0     O 2196   8.711   9.220   3.344  0.0202 -0.6720 -0.3018
  758MOL0     C 2197   8.681   9.313   3.426 -0.0279 -0.0437  0.6018
  758MOL0     O 2198   8.557   9.331   3.482 -0.2391  0.0706 -0.6086
  758MOL0     C 2199   8.470   9.231   3.485  0.2042  0.3503 -0.4469
  758MOL0     C 2200   8.354   9.250   3.410 -0.4250  0.1193  0.1229
  758MOL0     C 2201   8.255   9.158   3.407  0.8692  1.0487  0.2765
  758MOL0     C 2202   8.268   9.039   3.479  0.4349  0.0548  0.0164
  758MOL0     O 2203   8.163   8.960   3.485 -0.4138 -0.5212  0.0224
  758MOL0     C 2204   8.068   9.010   3.578  0.5966  0.4410  0.6145
  758MOL0     C 2205   7.954   8.907   3.600 -0.1880  0.1032 -0.0443
  758MOL0     C 2206   8.025   8.781   3.661  0.9531  0.0442 -0.1739
  758MOL0     C 2207   7.914   8.689   3.729 -0.0653 -0.2216 -0.1409
  758MOL0     C 2208   7.995   8.581   3.805  0.8522  0.0737 -0.1105
  758MOL0     C 2209   8.068   8.471   3.730  0.2664 -0.7958  0.1878
  758MOL0     C 2210   7.975   8.396   3.627 -0.3971 -0.7281  1.0504
  758MOL0     C 2211   7.997   8.447   3.478  0.9610 -0.5849  0.0614
  758MOL0     N 2212   7.915   8.386   3.370  0.0924 -0.2797 -0.5774
  758MOL0     C 2213   7.956   8.296   3.278 -0.4503 -0.9236 -0.0363
  758MOL0     C 2214   7.854   8.270   3.206  0.8811 -0.2096  0.0638
  758MOL0     C 2215   7.842   8.177   3.088  0.7769 -0.3014  0.5057
  758MOL0     C 2216   7.948   8.229   2.982  0.6141 -0.2115 -0.0706
  758MOL0     C 2217   7.902   8.184   2.846 -0.7574 -0.6370 -0.0349
  758MOL0     C 2218   7.878   8.036   2.827 -0.5103 -0.2693 -1.0029
  758MOL0     O 2219   7.993   7.961   2.856 -0.1275 -0.2553 -0.4381
  758MOL0     C 2220   8.076   7.918   2.765 -0.5119  0.2889  0.4061
  758MOL0     C 2221   8.153   7.809   2.806  0.7507 -0.5927  0.2433
  758MOL0     C 2222   8.243   7.754   2.709 -0.0457  0.0170  0.3003
  758MOL0     C 2223   8.262   7.808   2.579  0.3154 -0.5477 -0.4179
  758MOL0     C 2224   8.363   7.751   2.488 -0.0834 -0.2848  0.6912
  758MOL0     O 2225   8.414   7.630   2.529 -0.6836 -0.1417  0.0581
  758MOL0     C 2226   8.497   7.569   2.442 -1.0601  0.1682  0.3730
  758MOL0     C 2227   8.637   7.588   2.430  0.4249  0.3743  0.3527
  758MOL0     C 2228   8.715   7.519   2.338  1.0605 -0.5317 -0.8052
  758MOL0     C 2229   8.656   7.424   2.258  0.0354  0.1041  0.8397
  758MOL0     O 2230   8.723   7.347   2.164  0.4975 -0.7118 -0.3127
  758MOL0     C 2231   8.860   7.378   2.123  0.1710 -0.0066 -0.0189
  758MOL0     C 2232   8.920   7.256   2.052  0.2085 -0.3916  0.1923
  758MOL0     C 2233   9.053   7.273   1.985  0.0081  0.8831  0.3868
  758MOL0     C 2234   9.053   7.386   1.876 -0.0158 -0.4433 -0.3900
  758MOL0     C 2235   9.191   7.384   1.801 -0.2584  0.2558 -0.0995
  758MOL0     C 2236   9.299   7.437   1.879  0.8345  0.8783  0.2320
  758MOL0     C 2237   9.422   7.473   1.800  0.2337  0.5948  1.1555
  758MOL0     C 2238   9.501   7.579   1.866 -0.1908  0.2258 -0.6165
  758MOL0    Cl 2239   9.623   7.616   1.750 -0.2840 -0.0599 -0.3758
  758MOL0     C 2240   8.515   7.399   2.267  0.3969 -0.6062 -0.0369
  758MOL0     C 2241   8.434   7.479   2.355  0.2678  0.2157 -0.0711
  758MOL0     O 2242   8.392   7.811   2.386  0.1329  0.0257  0.2303
  758MOL0     C 2243   8.191   7.923   2.550 -0.2214 -0.5535  0.0732
  758MOL0     C 2244   8.091   7.970   2.637  0.4060  0.2325  0.5733
  758MOL0     N 2245   7.745   8.344   3.256  0.7088 -0.2824 -0.3681
  758MOL0     N 2246   7.790   8.421   3.348  0.2565 -0.0406  0.2651
  758MOL0     C 2247   8.378   9.016   3.564 -0.4821 -0.2341 -0.9616
  758MOL0     C 2248   8.488   9.112   3.563 -0.3950  0.2045 -0.2341
  758MOL0     C 2249   8.786   9.404   3.483 -1.1490  0.1004 -0.5422
  758MOL0     C 2250   8.766   9.453   3.618 -0.1037 -0.7771  0.0421
  758MOL0     C 2251   8.850   9.546   3.679  0.2575  0.0202 -1.2080
  758MOL0     C 2252   8.970   9.576   3.623  0.3511 -0.7573 -0.3432
  758MOL0     O 2253   9.068   9.657   3.681  0.5750  0.2027 -0.1458
  758MOL0     C 2254   9.059   9.698   3.817  0.7738 -0.7059 -0.4825
  758MOL0     C 2255   8.962   9.812   3.849 -0.3593  0.1878 -0.0857
  758MOL0     C 2256   8.994   9.931   3.756 -0.5123  0.4899 -1.5467
  758MOL0     C 2257   8.875  10.002   3.705 -0.5049  0.1855  0.0705
  758MOL0     C 2258   8.890  10.133   3.655 -0.6856 -0.3421 -0.8530
  758MOL0     C 2259   8.891  10.249   3.610 -0.1704  0.4289 -0.3542
  758MOL0     C 2260   9.001   9.521   3.502 -0.2241  0.4040 -0.1776
  758MOL0     C 2261   8.913   9.438   3.426 -0.1065 -0.1329  0.2576
  758MOL0     C 2262   8.966   9.378   3.297 -0.9318  0.5491  0.4388
  758MOL0     H 2263   8.352   9.350   3.367  1.7689 -0.0218 -0.4580
  758MOL0     H 2264   8.171   9.174   3.340  1.5706  0.9526 -0.6454
  758MOL0     H 2265   8.103   9.033   3.679  0.2149 -0.7635  1.0438
  758MOL0     H 2266   8.024   9.103   3.542  2.3530  1.9525  2.2059
  758MOL0     H 2267   7.907   8.879   3.505  1.0448 -1.3376 -0.2767
  758MOL0     H 2268   7.882   8.954   3.667  0.2459  0.2838  0.2948
  758MOL0     H 2269   8.094   8.804   3.743  1.3634  1.7066 -0.9322
  758MOL0     H 2270   8.088   8.721   3.595  3.1491  0.3236  1.5274
  758MOL0     H 2271   7.853   8.752   3.793 -2.0289 -1.0817 -1.0904
  758MOL0     H 2272   7.842   8.641   3.663 -0.5278 -0.3018  0.4175
  758MOL0     H 2273   8.078   8.632   3.856 -1.0922  2.3117  0.9942
  758MOL0     H 2274   7.934   8.532   3.881  1.0462  1.0497  0.7058
  758MOL0     H 2275   8.155   8.510   3.677 -0.4385 -0.6018 -0.8785
  758MOL0     H 2276   8.104   8.396   3.801  0.3047 -1.7385 -0.7935
  758MOL0     H 2277   7.872   8.408   3.663 -1.5079  1.3332 -2.3912
  758MOL0     H 2278   7.987   8.288   3.632 -2.4314 -0.9482  2.8952
  758MOL0     H 2279   7.969   8.553   3.482  3.0150 -0.0398  1.4222
  758MOL0     H 2280   8.103   8.441   3.450  0.5199 -3.9618 -1.3055
  758MOL0     H 2281   8.057   8.264   3.253 -1.4153 -1.4181 -3.9591
  758MOL0     H 2282   7.857   8.073   3.117 -1.8438 -0.8143  0.2569
  758MOL0     H 2283   7.741   8.187   3.048  0.9934 -1.7350 -0.4563
  758MOL0     H 2284   7.948   8.338   2.979  2.1728 -0.1399  1.2487
  758MOL0     H 2285   8.047   8.188   3.004  0.7511  0.4424  0.5544
  758MOL0     H 2286   7.980   8.216   2.777 -0.3335 -2.2530 -0.3415
  758MOL0     H 2287   7.810   8.240   2.827 -0.1098 -0.3254 -2.6761
  758MOL0     H 2288   7.841   8.016   2.725  0.0627 -1.2381 -1.0334
  758MOL0     H 2289   7.799   7.999   2.893 -2.1140  3.0425 -0.8810
  758MOL0     H 2290   8.137   7.774   2.907  0.3947  0.7446  0.6748
  758MOL0     H 2291   8.298   7.665   2.736  0.0499 -1.0274 -2.8998
  758MOL0     H 2292   8.679   7.662   2.498  1.2343 -2.5494  3.2695
  758MOL0     H 2293   8.821   7.542   2.342  1.5086 -2.3564 -1.3143
  758MOL0     H 2294   8.849   7.457   2.048  2.3687  0.2869 -0.1015
  758MOL0     H 2295   8.923   7.421   2.202  2.0153 -1.8624 -0.3873
  758MOL0     H 2296   8.934   7.180   2.130  0.1461  0.4605  1.0488
  758MOL0     H 2297   8.856   7.212   1.975  0.6995 -1.1404  0.1938
  758MOL0     H 2298   9.129   7.296   2.061  0.1519  1.0645  0.1943
  758MOL0     H 2299   9.083   7.177   1.942  4.3263  0.8525  2.9038
  758MOL0     H 2300   9.044   7.485   1.923 -0.0862 -0.8382  0.4404
  758MOL0     H 2301   8.971   7.362   1.809 -0.0102 -0.3219 -0.4404
  758MOL0     H 2302   9.173   7.442   1.710 -0.6326 -0.4830 -0.5089
  758MOL0     H 2303   9.224   7.282   1.779  1.9950  0.1620  3.0881
  758MOL0     H 2304   9.264   7.533   1.920 -2.3875 -0.9669  2.2098
  758MOL0     H 2305   9.319   7.369   1.962 -2.2630 -1.7410 -0.9928
  758MOL0     H 2306   9.382   7.517   1.708  0.2559  1.7497  1.6836
  758MOL0     H 2307   9.494   7.394   1.776  0.0260 -0.4751  3.7017
  758MOL0     H 2308   9.461   7.675   1.898  1.8995  0.7138  0.7000
  758MOL0     H 2309   9.546   7.530   1.953 -0.6595  1.7025  0.5020
  758MOL0     H 2310   8.467   7.320   2.211  2.7232 -2.5018  0.5148
  758MOL0     H 2311   8.326   7.465   2.352  0.0306  1.8808 -0.1494
  758MOL0     H 2312   8.220   7.973   2.458 -2.3294 -1.9488 -1.4076
  758MOL0     H 2313   8.041   8.061   2.605 -3.0229 -1.4579  0.6146
  758MOL0     H 2314   8.390   8.930   3.629 -0.6447  0.3759 -0.0993
  758MOL0     H 2315   8.578   9.097   3.622 -0.6957 -1.4342 -0.1731
  758MOL0     H 2316   8.672   9.430   3.667 -1.3350 -1.4415 -2.4716
  758MOL0     H 2317   8.818   9.598   3.769  1.1539  1.6281 -1.7721
  758MOL0     H 2318   9.159   9.729   3.849  1.2921 -2.3541 -0.4405
  758MOL0     H 2319   9.042   9.612   3.881  2.2287 -0.0528  0.8444
  758MOL0     H 2320   8.972   9.835   3.956 -0.7634  2.2016 -0.4589
  758MOL0     H 2321   8.860   9.787   3.816 -1.5932  4.4086  0.0263
  758MOL0     H 2322   9.050   9.889   3.672  1.7652 -0.4528  0.3341
  758MOL0     H 2323   9.059  10.001   3.809 -1.7170 -0.2759  1.1287
  758MOL0     H 2324   8.808   9.938   3.646  0.8967 -1.3968  0.1304
  758MOL0     H 2325   8.824  10.029   3.798 -1.1821  2.7576 -0.9603
  758MOL0     H 2326   8.912  10.348   3.574  2.9229 -0.5182 -1.4774
  758MOL0     H 2327   9.105   9.532   3.472  0.5898 -1.1174  1.7946
  758MOL0     H 2328   8.897   9.398   3.214 -0.6829 -0.0067  0.0912
  758MOL0     H 2329   9.065   9.421   3.278 -0.4873 -0.0872  1.2423
  758MOL0     H 2330   8.974   9.271   3.316  2.8160  0.0292 -2.6678
  759MOL0     O 2331   2.073   7.553   1.721 -0.2608  0.3604 -0.4887
  759MOL0     C 2332   1.991   7.487   1.782  0.3169  0.5648 -0.4654
  759MOL0     O 2333   1.987   7.460   1.916 -0.8334 -0.3457  0.2684
  759MOL0     C 2334   2.112   7.447   1.979 -0.1478 -0.3523 -0.3909
  759MOL0     C 2335   2.100   7.425   2.121  0.2741  0.4888  0.1181
  759MOL0     C 2336   2.211   7.430   2.211  0.6571 -0.2581  0.1208
  759MOL0     C 2337   2.333   7.457   2.152  0.5693 -0.3508  0.2642
  759MOL0     O 2338   2.435   7.485   2.229  0.3613 -0.3882 -0.8098
  759MOL0     C 2339   2.408   7.595   2.316 -0.9908  0.4355 -0.3164
  759MOL0     C 2340   2.521   7.694   2.353  0.2405  0.4102 -0.1726
  759MOL0     C 2341   2.650   7.627   2.391  0.1026 -0.1699 -0.1394
  759MOL0     C 2342   2.752   7.743   2.418 -0.3273  0.2088 -0.5660
  759MOL0     C 2343   2.880   7.688   2.487  0.4867 -0.0922  0.4367
  759MOL0     C 2344   2.968   7.594   2.403  0.7918  0.1676  0.0628
  759MOL0     C 2345   3.108   7.569   2.451  0.2809 -0.9738 -0.8449
  759MOL0     C 2346   3.203   7.693   2.434 -0.1342 -0.7375  0.8106
  759MOL0     N 2347   3.343   7.674   2.480 -0.0953  1.1807  0.1331
  759MOL0     C 2348   3.449   7.678   2.398  0.3121 -0.2372 -0.2979
  759MOL0     C 2349   3.553   7.645   2.481  1.3691  0.4247  0.3854
  759MOL0     C 2350   3.696   7.653   2.432 -1.2260  0.2360  0.1834
  759MOL0     C 2351   3.786   7.692   2.546 -0.2817  0.9123  0.4683
  759MOL0     C 2352   3.930   7.664   2.509 -0.1097  0.4982  0.9321
  759MOL0     C 2353   4.033   7.739   2.590 -0.7463  0.1361 -0.1083
  759MOL0     O 2354   4.172   7.700   2.591  0.1555 -0.1849 -0.7639
  759MOL0     C 2355   4.259   7.742   2.498 -0.7641  0.2760  0.5129
  759MOL0     C 2356   4.394   7.722   2.532  0.4698 -0.5961 -0.1972
  759MOL0     C 2357   4.490   7.765   2.439  0.9895 -0.4861 -0.1499
  759MOL0     C 2358   4.462   7.828   2.313 -0.7789  0.6552 -0.3674
  759MOL0     C 2359   4.574   7.884   2.227  0.0741  0.5711 -0.8176
  759MOL0     O 2360   4.702   7.859   2.263  0.4941 -0.5050  0.1719
  759MOL0     C 2361   4.800   7.894   2.170 -0.2709  0.1380 -1.1276
  759MOL0     C 2362   4.826   8.025   2.130  0.0485  0.7604  0.8591
  759MOL0     C 2363   4.947   8.048   2.053 -0.2498 -0.4983 -0.1546
  759MOL0     C 2364   5.047   7.958   2.046 -0.0013  0.0906 -0.6608
  759MOL0     O 2365   5.167   7.992   1.992  0.1140 -0.5228 -0.0465
  759MOL0     C 2366   5.231   8.112   2.043 -0.5198 -0.4930  0.1209
  759MOL0     C 2367   5.369   8.121   1.990  0.1062  0.4037 -0.5476
  759MOL0     C 2368   5.431   8.252   2.023 -0.6706 -0.5709 -0.0342
  759MOL0     C 2369   5.574   8.246   1.988  0.2616  0.6164  0.8699
  759MOL0     C 2370   5.663   8.361   2.032 -0.4524 -0.3266 -0.6576
  759MOL0     C 2371   5.815   8.321   2.024 -0.7254 -0.0318 -0.5173
  759MOL0     C 2372   5.907   8.453   2.046  0.2557  0.9779 -0.2288
  759MOL0     C 2373   5.924   8.493   2.190  0.7176 -0.0913 -0.7490
  759MOL0    Cl 2374   5.987   8.352   2.276 -0.5457  0.2877  0.0212
  759MOL0     C 2375   5.023   7.829   2.090 -0.1194 -0.6390 -0.2583
  759MOL0     C 2376   4.898   7.802   2.141 -0.4254 -1.1849  0.2831
  759MOL0     O 2377   4.541   7.947   2.129  0.2595  0.2377 -0.5680
  759MOL0     C 2378   4.325   7.851   2.288 -0.8691  0.2392  0.0738
  759MOL0     C 2379   4.218   7.804   2.378 -0.3265 -0.3856  0.3888
  759MOL0     N 2380   3.499   7.613   2.602  0.8284 -0.3447 -1.0161
  759MOL0     N 2381   3.374   7.637   2.609  0.2196 -0.0789 -0.5775
  759MOL0     C 2382   2.349   7.464   2.017 -0.3123  0.1171  0.3333
  759MOL0     C 2383   2.243   7.452   1.927  0.2002 -0.2155 -0.5584
  759MOL0     C 2384   1.865   7.425   1.716 -0.2023 -0.2009  0.4432
  759MOL0     C 2385   1.743   7.445   1.781 -0.0297  0.1559 -0.3818
  759MOL0     C 2386   1.622   7.430   1.719 -0.3828  0.2678 -1.1028
  759MOL0     C 2387   1.614   7.383   1.587  0.4400  0.8117  0.9064
  759MOL0     O 2388   1.506   7.359   1.511  0.0273 -0.3719  0.4704
  759MOL0     C 2389   1.412   7.464   1.508  0.3318 -1.1171  1.1272
  759MOL0     C 2390   1.434   7.564   1.386 -0.3906 -0.8912 -0.6455
  759MOL0     C 2391   1.296   7.628   1.360  0.2052 -0.3487 -0.5848
  759MOL0     C 2392   1.222   7.571   1.237 -0.1038 -0.6157  0.9755
  759MOL0     C 2393   1.162   7.437   1.258  0.3453 -0.6500  0.8514
  759MOL0     C 2394   1.111   7.327   1.266 -0.1000 -0.3383  0.2202
  759MOL0     C 2395   1.734   7.345   1.530 -1.1965 -0.0320  0.6491
  759MOL0     C 2396   1.864   7.376   1.585  0.6700  0.2088  0.3523
  759MOL0     C 2397   1.985   7.358   1.505 -0.5281  0.7876  0.2666
  759MOL0     H 2398   2.001   7.429   2.163  0.1929  0.0678 -0.0341
  759MOL0     H 2399   2.194   7.419   2.318  0.5903  0.8193  0.2250
  759MOL0     H 2400   2.324   7.660   2.290  0.8886  4.7486  3.1647
  759MOL0     H 2401   2.381   7.542   2.408  1.0718 -2.7418 -1.3772
  759MOL0     H 2402   2.486   7.756   2.436  1.4268 -1.1262  1.5853
  759MOL0     H 2403   2.536   7.766   2.273 -1.9970  2.3743  1.0503
  759MOL0     H 2404   2.685   7.558   2.314 -0.2020 -1.9922  1.3094
  759MOL0     H 2405   2.629   7.556   2.471 -0.1222  0.0030 -0.0443
  759MOL0     H 2406   2.773   7.772   2.314  2.8777 -0.4520 -0.2076
  759MOL0     H 2407   2.707   7.822   2.479  0.7200  1.1473 -0.9665
  759MOL0     H 2408   2.942   7.775   2.510  0.0561  0.2233  0.4188
  759MOL0     H 2409   2.852   7.630   2.576  2.2572 -2.5698 -0.5372
  759MOL0     H 2410   2.919   7.496   2.394  0.3491  0.4812 -1.1167
  759MOL0     H 2411   2.978   7.637   2.303  0.3791  1.0658  0.4057
  759MOL0     H 2412   3.142   7.482   2.394 -2.5357 -1.3471 -2.1327
  759MOL0     H 2413   3.107   7.528   2.552  2.6746 -0.9878 -0.7762
  759MOL0     H 2414   3.203   7.710   2.326  0.1332  0.5512  1.0014
  759MOL0     H 2415   3.162   7.785   2.475 -1.4351 -0.9253 -0.0018
  759MOL0     H 2416   3.461   7.712   2.296 -0.9983 -1.7321 -0.9938
  759MOL0     H 2417   3.718   7.550   2.403  0.0239  0.1882  1.2046
  759MOL0     H 2418   3.720   7.722   2.351 -2.5664  1.3652  0.7006
  759MOL0     H 2419   3.779   7.793   2.587 -0.2190  0.8066  0.7407
  759MOL0     H 2420   3.753   7.614   2.615 -1.6025  0.2960 -0.8135
  759MOL0     H 2421   3.945   7.700   2.407  3.8624  2.7327  2.0975
  759MOL0     H 2422   3.958   7.558   2.513  1.1852  0.6500 -2.0091
  759MOL0     H 2423   4.003   7.717   2.693 -0.0282 -2.2192 -0.3439
  759MOL0     H 2424   4.026   7.846   2.568  3.0277  0.2169 -1.7579
  759MOL0     H 2425   4.420   7.665   2.621  1.1287 -1.3141 -0.8281
  759MOL0     H 2426   4.592   7.760   2.475  1.0318  0.2707 -0.1536
  759MOL0     H 2427   4.755   8.107   2.141 -0.4331  0.3510  0.8284
  759MOL0     H 2428   4.956   8.144   2.003  0.5485  0.5349  1.8738
  759MOL0     H 2429   5.176   8.204   2.021 -0.7904  0.0479  2.7402
  759MOL0     H 2430   5.235   8.117   2.152 -0.7271  1.1225  0.0758
  759MOL0     H 2431   5.436   8.037   2.011  0.3259  0.9045  0.8553
  759MOL0     H 2432   5.357   8.113   1.881  2.4280  1.8019 -0.9777
  759MOL0     H 2433   5.394   8.324   1.950  0.1305 -0.8704 -0.7437
  759MOL0     H 2434   5.403   8.291   2.122 -1.2834 -0.5858 -0.2020
  759MOL0     H 2435   5.582   8.232   1.880 -0.8235  2.2621  0.5393
  759MOL0     H 2436   5.620   8.156   2.029  2.3725  1.2806  0.1227
  759MOL0     H 2437   5.642   8.396   2.134 -1.3266  0.5415 -1.1268
  759MOL0     H 2438   5.644   8.446   1.967 -2.1517  0.8602  1.2973
  759MOL0     H 2439   5.835   8.252   2.107 -0.5283  0.9069  0.2302
  759MOL0     H 2440   5.844   8.261   1.937  0.4903  0.3756 -0.4053
  759MOL0     H 2441   5.863   8.542   2.000 -0.1081  1.0686  0.2870
  759MOL0     H 2442   6.009   8.441   2.008  0.3496  3.7322 -1.0202
  759MOL0     H 2443   5.989   8.580   2.187  0.5351  0.0405 -1.0027
  759MOL0     H 2444   5.829   8.528   2.232  0.7841  1.2755 -1.6616
  759MOL0     H 2445   5.097   7.749   2.086  0.8624  0.1666  0.9342
  759MOL0     H 2446   4.876   7.700   2.169  2.0995 -1.3495  2.1038
  759MOL0     H 2447   4.306   7.907   2.197  2.6794 -0.9740 -1.5824
  759MOL0     H 2448   4.114   7.822   2.356 -0.9304 -2.6187  1.2220
  759MOL0     H 2449   2.449   7.463   1.975 -0.2091  1.5083  0.4842
  759MOL0     H 2450   2.264   7.466   1.821 -1.0636  2.0546 -0.5717
  759MOL0     H 2451   1.739   7.487   1.881 -0.6580  2.4277 -1.2975
  759MOL0     H 2452   1.531   7.454   1.773  1.0093 -0.6776  1.8773
  759MOL0     H 2453   1.402   7.522   1.600 -0.0295  1.2412 -0.3080
  759MOL0     H 2454   1.316   7.419   1.481  0.5102  0.8191 -3.7930
  759MOL0     H 2455   1.467   7.524   1.290  2.9086 -0.7200  0.2826
  759MOL0     H 2456   1.510   7.636   1.418 -0.8253 -0.4173 -0.6686
  759MOL0     H 2457   1.314   7.734   1.343 -2.0805  0.4330  1.2633
  759MOL0     H 2458   1.230   7.631   1.447  3.0673  0.4311  1.6955
  759MOL0     H 2459   1.141   7.643   1.224  1.6864  1.4269  0.7397
  759MOL0     H 2460   1.281   7.577   1.145 -2.8197 -0.3656 -0.8928
  759MOL0     H 2461   1.049   7.239   1.273  1.4642 -1.5440 -0.4188
  759MOL0     H 2462   1.725   7.285   1.440  1.5503  0.2323  0.1215
  759MOL0     H 2463   2.067   7.304   1.554 -0.8977 -0.1884 -0.1596
  759MOL0     H 2464   1.956   7.300   1.417  2.0695  0.2742 -0.3331
  759MOL0     H 2465   2.021   7.456   1.474 -3.0228  1.9352  0.7423
  760MOL0     O 2466   7.600  10.274   3.497 -0.0867  0.5496  0.3234
  760MOL0     C 2467   7.540  10.361   3.560 -0.2498  0.4438  0.6301
  760MOL0     O 2468   7.578  10.416   3.675  0.0440  0.8102 -0.2440
  760MOL0     C 2469   7.712  10.427   3.715  0.2147 -0.2937  0.6224
  760MOL0     C 2470   7.830  10.377   3.656  0.5402  0.1253  0.6690
  760MOL0     C 2471   7.957  10.397   3.711 -0.1032 -0.0345 -0.5766
  760MOL0     C 2472   7.974  10.487   3.814  0.5004 -0.3320  0.2528
  760MOL0     O 2473   8.109  10.508   3.856 -0.0897  0.1395 -0.1309
  760MOL0     C 2474   8.121  10.486   3.996  0.8727 -0.3768 -0.6722
  760MOL0     C 2475   8.260  10.503   4.049 -0.6312 -0.1764 -0.3159
  760MOL0     C 2476   8.337  10.371   4.036 -0.5357 -1.2873 -0.2009
  760MOL0     C 2477   8.446  10.384   3.923 -0.1638 -0.6179  0.0779
  760MOL0     C 2478   8.507  10.250   3.900 -0.2287  0.2322  0.5036
  760MOL0     C 2479   8.542  10.169   4.038  0.2897 -0.2158  0.2864
  760MOL0     C 2480   8.555  10.022   4.005  0.4168  0.0210 -1.3867
  760MOL0     C 2481   8.564   9.937   4.128  0.6432  0.2078 -0.4029
  760MOL0     N 2482   8.571   9.802   4.077  0.9124 -0.3822 -0.4778
  760MOL0     C 2483   8.462   9.722   4.065 -0.3329 -0.4312 -1.1229
  760MOL0     C 2484   8.508   9.599   4.039 -0.0655 -1.1127 -0.4719
  760MOL0     C 2485   8.436   9.477   3.987 -0.7984  0.4875 -0.2567
  760MOL0     C 2486   8.393   9.501   3.840  1.1678  0.6877  0.9410
  760MOL0     C 2487   8.342   9.374   3.777  0.3726  1.5011  0.4174
  760MOL0     C 2488   8.195   9.349   3.785 -0.1453  0.3007  0.4046
  760MOL0     O 2489   8.185   9.305   3.925  0.5349  0.6801 -0.1499
  760MOL0     C 2490   8.068   9.239   3.958  1.1855  0.1042 -0.1121
  760MOL0     C 2491   7.962   9.312   4.000  0.0875  0.8738  0.0197
  760MOL0     C 2492   7.828   9.261   3.999 -0.4058  0.2586  0.0885
  760MOL0     C 2493   7.810   9.120   3.962 -0.5682  0.3540  0.0197
  760MOL0     C 2494   7.675   9.060   3.967  1.3259  0.8592 -0.8083
  760MOL0     O 2495   7.598   9.102   4.069  0.5590  0.0542 -0.4953
  760MOL0     C 2496   7.490   9.035   4.096  0.0603  0.1388 -0.1686
  760MOL0     C 2497   7.365   9.060   4.042 -0.2955 -1.0975  1.2144
  760MOL0     C 2498   7.258   8.977   4.055 -0.8285  0.5000  0.0552
  760MOL0     C 2499   7.264   8.874   4.151 -0.4516  0.6549 -0.6418
  760MOL0     O 2500   7.151   8.809   4.183  0.2755  0.1389  0.4565
  760MOL0     C 2501   7.073   8.883   4.286 -0.1455  0.1833  1.0494
  760MOL0     C 2502   7.017   9.023   4.248 -0.6159  0.2791 -0.3483
  760MOL0     C 2503   6.919   9.069   4.350 -0.7406  0.2379  0.0745
  760MOL0     C 2504   6.787   9.004   4.311  0.6291 -0.3695 -0.3778
  760MOL0     C 2505   6.673   9.033   4.417 -0.2323  0.2514 -0.5900
  760MOL0     C 2506   6.553   8.949   4.404  0.0211 -0.2140  0.5979
  760MOL0     C 2507   6.438   8.995   4.498  1.5784  0.4431  0.5428
  760MOL0     C 2508   6.321   8.892   4.517 -0.1769 -0.1814 -0.0723
  760MOL0    Cl 2509   6.235   8.840   4.367  0.3175 -0.2553  0.1252
  760MOL0     C 2510   7.382   8.849   4.217  0.6483 -0.0183  0.0443
  760MOL0     C 2511   7.495   8.925   4.178 -0.9321  0.2890  0.6237
  760MOL0     O 2512   7.636   8.982   3.877 -0.2077 -0.2446 -0.3307
  760MOL0     C 2513   7.923   9.028   3.943 -0.3458 -0.7978  0.0161
  760MOL0     C 2514   8.052   9.094   3.934  0.4024 -0.1629  0.2741
  760MOL0     N 2515   8.645   9.604   4.051  0.3299  0.2117 -0.5095
  760MOL0     N 2516   8.688   9.726   4.070 -0.3614  0.3862  0.5203
  760MOL0     C 2517   7.855  10.541   3.877 -0.1643  0.1882  0.0724
  760MOL0     C 2518   7.727  10.497   3.830 -0.5603 -0.0515  0.2290
  760MOL0     C 2519   7.409  10.410   3.517  0.4619 -0.2582  0.3376
  760MOL0     C 2520   7.336  10.491   3.611 -0.3747 -0.5734 -0.0729
  760MOL0     C 2521   7.210  10.541   3.584 -1.6400  0.1875 -0.3026
  760MOL0     C 2522   7.142  10.502   3.465  0.3763  1.4387 -0.1621
  760MOL0     O 2523   7.019  10.553   3.431 -0.2621  0.0428 -0.3973
  760MOL0     C 2524   6.948  10.653   3.511  0.2779  0.4096  0.1344
  760MOL0     C 2525   6.852  10.737   3.433 -0.7324 -0.3005 -0.6837
  760MOL0     C 2526   6.929  10.838   3.342  0.5038  0.3869 -0.6298
  760MOL0     C 2527   6.853  10.906   3.229 -0.3489 -0.1138  0.8992
  760MOL0     C 2528   6.741  10.984   3.266  0.0413  0.6680  0.2538
  760MOL0     C 2529   6.634  11.046   3.283  0.1104  0.5817  0.0761
  760MOL0     C 2530   7.212  10.415   3.374 -0.0223 -0.9883  0.0506
  760MOL0     C 2531   7.338  10.367   3.406  0.0850  0.4648 -0.0784
  760MOL0     C 2532   7.387  10.269   3.295  0.0797  0.5961  0.0380
  760MOL0     H 2533   7.837  10.338   3.555  0.7688  7.3323 -2.7864
  760MOL0     H 2534   8.042  10.347   3.666 -0.4747 -1.5508  0.3239
  760MOL0     H 2535   8.061  10.562   4.047 -0.6978 -1.5304 -0.7545
  760MOL0     H 2536   8.087  10.388   4.030 -0.7499  1.2824  2.9874
  760MOL0     H 2537   8.261  10.528   4.155  1.4166 -1.5986  0.0627
  760MOL0     H 2538   8.309  10.587   3.999 -2.6985  1.5841  0.4942
  760MOL0     H 2539   8.272  10.286   4.014  0.4096 -2.0193 -0.2336
  760MOL0     H 2540   8.385  10.360   4.133 -1.0894 -3.4506 -0.1122
  760MOL0     H 2541   8.404  10.430   3.834  0.6119  0.1749  0.1141
  760MOL0     H 2542   8.518  10.460   3.952 -0.0647 -0.6775 -0.0072
  760MOL0     H 2543   8.434  10.198   3.838  1.0327 -2.4239  1.1043
  760MOL0     H 2544   8.599  10.270   3.844 -1.0408 -1.4468 -1.5703
  760MOL0     H 2545   8.631  10.209   4.086  1.5602 -0.9083 -1.4042
  760MOL0     H 2546   8.461  10.182   4.111 -1.7811  1.4879 -2.1254
  760MOL0     H 2547   8.645  10.000   3.947  1.3197 -4.0912  1.1885
  760MOL0     H 2548   8.466   9.998   3.946  0.5567 -1.4647 -1.0234
  760MOL0     H 2549   8.652   9.957   4.190 -0.5646  0.4513  1.3267
  760MOL0     H 2550   8.478   9.956   4.193 -0.0149  1.6014 -1.6079
  760MOL0     H 2551   8.358   9.754   4.064 -1.0424 -2.0250  2.8016
  760MOL0     H 2552   8.501   9.390   3.994  3.3469  3.2155 -0.9312
  760MOL0     H 2553   8.344   9.465   4.045 -2.6049  1.7394 -2.7060
  760MOL0     H 2554   8.320   9.581   3.829 -1.0571 -0.9889  2.6045
  760MOL0     H 2555   8.486   9.514   3.784 -0.1109 -2.2846 -2.2628
  760MOL0     H 2556   8.399   9.291   3.820  1.0953  2.5718  1.6121
  760MOL0     H 2557   8.368   9.381   3.671 -1.1405  0.4450 -0.0572
  760MOL0     H 2558   8.165   9.268   3.718 -0.6923  0.3470  0.5842
  760MOL0     H 2559   8.146   9.445   3.767 -0.5569  0.0295  0.0543
  760MOL0     H 2560   7.975   9.420   4.009 -1.1379  1.0048  0.4383
  760MOL0     H 2561   7.740   9.317   4.030 -1.1832 -1.3791  0.9723
  760MOL0     H 2562   7.352   9.151   3.985 -2.7655 -0.9146  1.9607
  760MOL0     H 2563   7.162   8.988   4.005 -0.3106  1.6410 -0.7573
  760MOL0     H 2564   6.991   8.820   4.321  0.7278 -0.7022  1.5366
  760MOL0     H 2565   7.130   8.906   4.376  0.6247  1.3120  0.3020
  760MOL0     H 2566   7.103   9.090   4.254  0.5416 -0.4347 -4.8894
  760MOL0     H 2567   6.988   9.027   4.142  1.9895 -2.0726 -1.2789
  760MOL0     H 2568   6.940   9.035   4.452  2.5744 -2.8226 -1.4250
  760MOL0     H 2569   6.905   9.177   4.335 -1.9648  0.2567  1.1804
  760MOL0     H 2570   6.793   8.899   4.284 -0.5726 -0.6154  0.2338
  760MOL0     H 2571   6.749   9.045   4.217 -3.7665  0.9030  1.6477
  760MOL0     H 2572   6.645   9.137   4.405  1.4857  0.5234 -3.1068
  760MOL0     H 2573   6.724   9.020   4.513  3.7088 -1.1036 -2.6008
  760MOL0     H 2574   6.501   8.961   4.308 -1.7191 -0.3211  1.4750
  760MOL0     H 2575   6.567   8.840   4.407 -3.0319 -0.8613 -2.1776
  760MOL0     H 2576   6.410   9.096   4.467 -0.8215  0.1547  1.5650
  760MOL0     H 2577   6.481   9.004   4.598 -0.5649 -1.3994  1.7142
  760MOL0     H 2578   6.363   8.795   4.546 -1.2705 -0.6149  0.0934
  760MOL0     H 2579   6.251   8.936   4.588 -2.3091 -0.0994 -2.0889
  760MOL0     H 2580   7.386   8.759   4.278 -0.0983  0.1824  0.3865
  760MOL0     H 2581   7.588   8.883   4.214 -0.1383  1.4023 -0.0906
  760MOL0     H 2582   7.912   8.921   3.926 -7.0333 -0.1941 -2.7028
  760MOL0     H 2583   8.139   9.041   3.898  0.3670  0.6319 -1.0393
  760MOL0     H 2584   7.861  10.609   3.962  1.7215 -1.4488  1.3526
  760MOL0     H 2585   7.637  10.538   3.875 -0.7639  0.5290 -0.6721
  760MOL0     H 2586   7.379  10.514   3.708 -0.8071 -0.2284  0.0379
  760MOL0     H 2587   7.178  10.624   3.646 -0.1392  1.9320 -1.7636
  760MOL0     H 2588   7.017  10.709   3.574 -0.5439 -1.6597  3.1281
  760MOL0     H 2589   6.885  10.605   3.587  2.8310  0.4424  2.4282
  760MOL0     H 2590   6.800  10.801   3.505  0.0808 -2.0194  1.5186
  760MOL0     H 2591   6.786  10.670   3.378 -0.4755 -2.5536  1.6012
  760MOL0     H 2592   7.005  10.777   3.290 -0.2636  1.2873 -2.9620
  760MOL0     H 2593   6.977  10.916   3.401 -0.4238  1.0575 -0.7384
  760MOL0     H 2594   6.924  10.969   3.175  0.1518 -1.9605 -0.7291
  760MOL0     H 2595   6.822  10.842   3.146 -1.2746  1.8969 -0.3787
  760MOL0     H 2596   6.543  11.098   3.301 -0.9220  0.2798 -3.5877
  760MOL0     H 2597   7.168  10.388   3.279  1.9589  0.8748 -1.4824
  760MOL0     H 2598   7.484  10.303   3.259 -0.7546  1.2218 -1.7184
  760MOL0     H 2599   7.388  10.167   3.336  4.5302 -0.1952 -1.5048
  760MOL0     H 2600   7.326  10.282   3.206  0.1002  2.1599  0.2204
  761MOL0     O 2601   1.668   9.891   0.996 -0.3276  0.1992  0.0721
  761MOL0     C 2602   1.633   9.769   0.986 -0.0164  0.5422  1.3441
  761MOL0     O 2603   1.698   9.672   0.925 -0.0069 -1.3044  0.7825
  761MOL0     C 2604   1.820   9.723   0.877  0.1885  0.1406  0.3086
  761MOL0     C 2605   1.826   9.733   0.741 -0.7890 -0.8182  1.0558
  761MOL0     C 2606   1.946   9.785   0.687  0.9416 -0.5976  0.3005
  761MOL0     C 2607   2.050   9.823   0.766 -0.5895  0.0195 -0.9233
  761MOL0     O 2608   2.154   9.872   0.696  0.2152 -0.1076 -0.3754
  761MOL0     C 2609   2.271   9.925   0.762  0.5635 -0.1412 -0.6919
  761MOL0     C 2610   2.377   9.954   0.666 -0.9073 -0.2786  0.4372
  761MOL0     C 2611   2.414   9.833   0.566 -0.7290  1.0091 -0.0989
  761MOL0     C 2612   2.492   9.722   0.641  0.1601 -0.6216 -0.2976
  761MOL0     C 2613   2.577   9.638   0.546 -0.0750 -0.1090  0.1233
  761MOL0     C 2614   2.633   9.520   0.634 -0.3311  0.2670 -1.4454
  761MOL0     C 2615   2.713   9.423   0.545  1.2705  0.1465  0.0210
  761MOL0     C 2616   2.826   9.480   0.466 -0.0514  0.1455  0.2835
  761MOL0     N 2617   2.884   9.397   0.360 -0.4418  0.7865 -0.0855
  761MOL0     C 2618   2.821   9.355   0.250  0.2516 -0.8703  0.3667
  761MOL0     C 2619   2.920   9.312   0.170 -0.4111  0.6570  0.0913
  761MOL0     C 2620   2.887   9.268   0.025  0.2756 -0.4576 -0.3215
  761MOL0     C 2621   2.894   9.385  -0.073 -0.9634  0.7427  0.5603
  761MOL0     C 2622   2.804   9.365  -0.195  0.4838 -0.9648  0.2579
  761MOL0     C 2623   2.812   9.479  -0.292 -0.8989 -0.6988  0.6604
  761MOL0     O 2624   2.949   9.485  -0.343 -0.2168 -0.5160 -0.2369
  761MOL0     C 2625   2.991   9.571  -0.437  0.3499  1.0045 -0.3036
  761MOL0     C 2626   2.936   9.690  -0.461  0.3852 -0.4124  0.4129
  761MOL0     C 2627   2.997   9.781  -0.547 -0.0458 -0.0288 -0.0526
  761MOL0     C 2628   3.121   9.750  -0.605 -0.1319 -0.5975  1.5219
  761MOL0     C 2629   3.182   9.856  -0.681  0.5795  0.0217 -0.0258
  761MOL0     O 2630   3.150   9.987  -0.653  0.3145 -0.5991  0.0166
  761MOL0     C 2631   3.185  10.078  -0.754 -0.0430 -0.2517 -0.1910
  761MOL0     C 2632   3.318  10.118  -0.781  0.6870  0.7181 -0.4126
  761MOL0     C 2633   3.337  10.197  -0.892 -0.3469 -0.3693 -0.6510
  761MOL0     C 2634   3.230  10.241  -0.973 -0.1267 -0.3156  0.0942
  761MOL0     O 2635   3.262  10.327  -1.084  0.7328 -0.2634 -1.6038
  761MOL0     C 2636   3.193  10.318  -1.207 -0.4516 -0.5021  0.3522
  761MOL0     C 2637   3.269  10.408  -1.304  1.0421  0.4373  0.0553
  761MOL0     C 2638   3.287  10.551  -1.267  0.8185  0.3608 -0.8548
  761MOL0     C 2639   3.167  10.652  -1.284 -0.8576 -0.4991  0.7308
  761MOL0     C 2640   3.168  10.799  -1.241 -0.5616  0.5077 -0.6552
  761MOL0     C 2641   3.142  10.816  -1.090 -0.0347 -0.7814 -0.0259
  761MOL0     C 2642   3.152  10.958  -1.043  0.7749  0.3007 -0.1987
  761MOL0     C 2643   3.298  11.018  -1.057 -0.2118 -0.0873  0.8861
  761MOL0    Cl 2644   3.287  11.200  -1.039 -0.1489  0.0097 -0.5442
  761MOL0     C 2645   3.107  10.185  -0.957 -0.0952  0.6751 -0.2321
  761MOL0     C 2646   3.082  10.105  -0.846 -0.5845 -0.1015 -0.6669
  761MOL0     O 2647   3.271   9.823  -0.763 -0.3695  0.1124  0.6523
  761MOL0     C 2648   3.183   9.629  -0.561 -0.2044 -0.0253  0.1017
  761MOL0     C 2649   3.118   9.536  -0.483  0.1407 -1.1365 -0.4600
  761MOL0     N 2650   3.045   9.331   0.240  0.7521 -0.0193 -0.7982
  761MOL0     N 2651   3.020   9.380   0.356 -0.9183  0.5025  0.3499
  761MOL0     C 2652   2.043   9.801   0.905  0.7399  0.5644 -0.2392
  761MOL0     C 2653   1.922   9.757   0.963 -0.1339  0.6846 -0.3414
  761MOL0     C 2654   1.506   9.727   1.035 -0.4756  0.1586  0.4640
  761MOL0     C 2655   1.408   9.674   0.944 -0.4588 -0.6712 -0.2538
  761MOL0     C 2656   1.272   9.642   0.984  0.2323 -0.0248 -0.4277
  761MOL0     C 2657   1.236   9.677   1.119  0.4405  0.5202  0.3389
  761MOL0     O 2658   1.098   9.649   1.140 -0.5529 -0.1793 -0.7378
  761MOL0     C 2659   1.050   9.648   1.270  0.5908 -0.4916  0.1104
  761MOL0     C 2660   1.013   9.793   1.307 -0.2056 -0.0450 -0.6458
  761MOL0     C 2661   0.897   9.860   1.225 -0.7730  0.0641 -0.7543
  761MOL0     C 2662   0.762   9.796   1.250 -0.1146  0.2904  0.3893
  761MOL0     C 2663   0.681   9.864   1.360 -0.5283 -0.6950  0.1003
  761MOL0     C 2664   0.600   9.931   1.424  0.0578  0.0997 -0.6360
  761MOL0     C 2665   1.331   9.729   1.210  0.1254  0.2498 -0.3505
  761MOL0     C 2666   1.460   9.759   1.162  0.2389  0.4215 -0.2544
  761MOL0     C 2667   1.551   9.826   1.264 -0.1158 -0.7586  0.0225
  761MOL0     H 2668   1.745   9.703   0.677 -0.0599  1.0187 -0.8229
  761MOL0     H 2669   1.954   9.796   0.580 -1.4097 -0.8401  0.0387
  761MOL0     H 2670   2.252  10.008   0.830 -0.5669 -2.0841  1.4945
  761MOL0     H 2671   2.309   9.849   0.830 -0.3354 -0.1554 -0.1924
  761MOL0     H 2672   2.473   9.992   0.703  0.9820 -2.1129 -2.1351
  761MOL0     H 2673   2.330  10.035   0.610  3.5074  2.1644 -0.2468
  761MOL0     H 2674   2.478   9.876   0.489  0.8642 -2.7934 -1.1437
  761MOL0     H 2675   2.327   9.780   0.526  0.3432  0.5048 -1.9065
  761MOL0     H 2676   2.562   9.757   0.717  0.3872 -2.3234  0.3110
  761MOL0     H 2677   2.418   9.659   0.691 -1.8252  1.6737 -0.1647
  761MOL0     H 2678   2.520   9.602   0.459 -0.5563  1.1818 -0.1094
  761MOL0     H 2679   2.657   9.703   0.509 -0.2286  0.5541  0.9366
  761MOL0     H 2680   2.701   9.556   0.712 -0.8215 -3.1334  0.7855
  761MOL0     H 2681   2.549   9.466   0.679 -1.4817 -0.7421 -4.5446
  761MOL0     H 2682   2.640   9.381   0.475  2.6348 -1.3399 -0.5780
  761MOL0     H 2683   2.730   9.334   0.606 -2.0657  0.8462  2.2312
  761MOL0     H 2684   2.799   9.576   0.420  0.7322  0.4976  0.5440
  761MOL0     H 2685   2.906   9.512   0.534  1.3791  2.9447 -2.4063
  761MOL0     H 2686   2.715   9.356   0.226  0.2915  0.3787  0.2176
  761MOL0     H 2687   2.966   9.198  -0.005 -0.6781 -0.8487 -2.0160
  761MOL0     H 2688   2.792   9.215   0.020  0.4440 -0.7231 -0.7537
  761MOL0     H 2689   2.879   9.483  -0.028 -1.4518 -0.3267  2.8528
  761MOL0     H 2690   2.999   9.391  -0.105 -0.5952  0.7755  1.7398
  761MOL0     H 2691   2.699   9.362  -0.164 -0.5954 -0.8270 -3.0299
  761MOL0     H 2692   2.818   9.267  -0.242 -1.7181 -1.2895  0.1735
  761MOL0     H 2693   2.794   9.571  -0.235  1.2479 -1.1695  2.2003
  761MOL0     H 2694   2.738   9.458  -0.370  0.7690 -3.8615 -0.2102
  761MOL0     H 2695   2.844   9.713  -0.407  0.4910  0.3814  0.2728
  761MOL0     H 2696   2.945   9.876  -0.553  0.3353  0.1458 -0.7931
  761MOL0     H 2697   3.393  10.087  -0.709 -0.8029 -1.2219  0.4132
  761MOL0     H 2698   3.440  10.222  -0.913  0.4734 -1.4669  1.6508
  761MOL0     H 2699   3.182  10.220  -1.254 -2.9935  0.3909 -1.1202
  761MOL0     H 2700   3.090  10.346  -1.183 -0.7545 -2.6347  1.8014
  761MOL0     H 2701   3.366  10.369  -1.335  1.2122  0.0978  0.9792
  761MOL0     H 2702   3.197  10.415  -1.387  1.0792 -3.3084 -0.4759
  761MOL0     H 2703   3.307  10.547  -1.159 -2.7711  0.8194 -0.0502
  761MOL0     H 2704   3.380  10.586  -1.312  2.1461 -0.6098  1.0052
  761MOL0     H 2705   3.082  10.605  -1.234 -0.0858 -1.0919  1.5170
  761MOL0     H 2706   3.142  10.646  -1.390 -1.7068 -5.4840  0.9525
  761MOL0     H 2707   3.096  10.853  -1.303 -1.5424 -0.8606 -0.7567
  761MOL0     H 2708   3.267  10.840  -1.263 -1.0803  1.2598 -1.6492
  761MOL0     H 2709   3.040  10.785  -1.065 -0.8759  1.2975 -0.7443
  761MOL0     H 2710   3.217  10.757  -1.036  1.8368  1.7279  0.3014
  761MOL0     H 2711   3.118  10.964  -0.939  1.2394  0.8429 -0.0690
  761MOL0     H 2712   3.088  11.014  -1.112 -0.0695  0.2590  0.5293
  761MOL0     H 2713   3.354  10.965  -0.978  2.3021 -2.7650 -2.3584
  761MOL0     H 2714   3.335  10.995  -1.157  0.7782  1.2679  0.9106
  761MOL0     H 2715   3.024  10.205  -1.023 -1.7472  1.2533  1.9076
  761MOL0     H 2716   2.992  10.047  -0.833 -1.3520  1.4035  1.3245
  761MOL0     H 2717   3.285   9.607  -0.589  0.3595  2.5708 -0.1669
  761MOL0     H 2718   3.176   9.451  -0.449  0.5395 -1.0461 -0.8980
  761MOL0     H 2719   2.129   9.814   0.969 -1.8254  0.4470  3.5463
  761MOL0     H 2720   1.901   9.729   1.066  0.0211 -0.1488 -0.5309
  761MOL0     H 2721   1.435   9.653   0.841 -0.1363 -0.0733 -0.2953
  761MOL0     H 2722   1.199   9.598   0.915 -1.2980  2.2643 -0.3915
  761MOL0     H 2723   1.131   9.614   1.335  0.3033 -0.3248  0.5596
  761MOL0     H 2724   0.964   9.581   1.271  0.8429 -0.8173  0.2168
  761MOL0     H 2725   1.106   9.850   1.294 -1.3149  1.3294 -3.3402
  761MOL0     H 2726   0.983   9.806   1.412  0.7071  1.8817 -0.5740
  761MOL0     H 2727   0.934   9.856   1.122  3.1809 -0.0973  0.4888
  761MOL0     H 2728   0.887   9.963   1.260 -2.0487 -0.2508 -0.1488
  761MOL0     H 2729   0.712   9.811   1.154  2.4898  0.3063 -1.0578
  761MOL0     H 2730   0.775   9.689   1.272 -0.6958 -0.0051 -0.6510
  761MOL0     H 2731   0.523   9.988   1.472 -0.0962 -0.3709 -0.3158
  761MOL0     H 2732   1.298   9.767   1.306 -0.7845  2.8918 -1.6276
  761MOL0     H 2733   1.605   9.908   1.217  0.4705 -1.4568 -0.5626
  761MOL0     H 2734   1.491   9.864   1.347  1.0418  1.3115 -0.0370
  761MOL0     H 2735   1.623   9.755   1.306  1.2453 -0.1828 -1.2189
  762MOL0     O 2736   0.965   5.427   2.187  0.3278 -0.2236  0.6576
  762MOL0     C 2737   0.923   5.510   2.273  0.4585  0.4955  0.0792
  762MOL0     O 2738   0.915   5.477   2.402  0.2817  0.3562  0.6601
  762MOL0     C 2739   0.923   5.343   2.429 -0.2687  0.6919  0.3401
  762MOL0     C 2740   0.809   5.269   2.404 -0.0416 -0.4494 -0.0630
  762MOL0     C 2741   0.804   5.126   2.424  0.3874 -0.0577  1.1318
  762MOL0     C 2742   0.909   5.052   2.478  0.0195 -0.0607  0.7146
  762MOL0     O 2743   0.912   4.912   2.500 -0.1391 -0.2013  0.3722
  762MOL0     C 2744   0.790   4.839   2.535  0.0912  0.8270 -0.4621
  762MOL0     C 2745   0.782   4.825   2.694 -0.7318  0.0368  0.4490
  762MOL0     C 2746   0.776   4.680   2.735  0.3143 -0.2661  0.6839
  762MOL0     C 2747   0.760   4.660   2.886 -0.9588 -0.1057 -0.6648
  762MOL0     C 2748   0.613   4.680   2.925  0.4017  0.6568  0.1555
  762MOL0     C 2749   0.592   4.643   3.073  0.7631 -0.3354  0.2397
  762MOL0     C 2750   0.445   4.663   3.109 -0.0314 -0.0920  1.4827
  762MOL0     C 2751   0.419   4.653   3.252 -0.5362 -0.8330  0.0817
  762MOL0     N 2752   0.277   4.641   3.276 -0.2857  0.1510 -0.6076
  762MOL0     C 2753   0.183   4.560   3.212 -0.8132 -0.0968  0.1135
  762MOL0     C 2754   0.065   4.594   3.254 -0.3679 -0.4467 -0.0420
  762MOL0     C 2755  -0.065   4.561   3.200  0.4667  0.8404  1.5252
  762MOL0     C 2756  -0.101   4.651   3.078 -0.2905 -0.0505  0.7867
  762MOL0     C 2757  -0.126   4.798   3.108  0.7421 -0.3546 -0.3271
  762MOL0     C 2758  -0.137   4.885   2.978 -0.5106 -0.4482 -0.0508
  762MOL0     O 2759  -0.026   4.876   2.888  0.0455 -0.2937 -0.0626
  762MOL0     C 2760   0.093   4.926   2.924  0.6239  1.0149 -0.6098
  762MOL0     C 2761   0.114   5.000   3.038 -0.3485  0.1432 -0.0140
  762MOL0     C 2762   0.241   5.051   3.073 -0.0005  0.7628 -0.2504
  762MOL0     C 2763   0.349   5.024   2.986  0.3964  0.5393 -0.2947
  762MOL0     C 2764   0.493   5.068   3.008 -0.1148 -0.5415 -0.0116
  762MOL0     O 2765   0.588   5.039   2.917 -0.4018  0.2041  0.4255
  762MOL0     C 2766   0.712   5.091   2.933 -0.3898 -0.0303 -0.2218
  762MOL0     C 2767   0.791   5.073   3.049  0.8971 -0.1577  0.8629
  762MOL0     C 2768   0.915   5.135   3.068  0.1378 -0.4640 -0.3208
  762MOL0     C 2769   0.971   5.205   2.966 -0.5407 -0.3932  0.5137
  762MOL0     O 2770   1.098   5.252   2.978  0.5225  1.4293 -0.0320
  762MOL0     C 2771   1.192   5.196   2.888  0.3989 -0.2992  0.3878
  762MOL0     C 2772   1.278   5.107   2.975 -1.2105 -0.1563  0.7726
  762MOL0     C 2773   1.213   4.962   2.993  1.0867  0.5641  0.4810
  762MOL0     C 2774   1.284   4.895   3.117  0.2793 -0.3626  0.3781
  762MOL0     C 2775   1.244   4.747   3.149  0.7156 -0.9198 -0.7069
  762MOL0     C 2776   1.110   4.731   3.218  0.7957  0.0932 -0.9335
  762MOL0     C 2777   1.057   4.584   3.198  0.2814 -0.8165 -0.1939
  762MOL0     C 2778   0.957   4.536   3.304 -0.9195  0.0578 -0.2426
  762MOL0    Cl 2779   0.837   4.660   3.321  0.1418  0.2951 -0.4277
  762MOL0     C 2780   0.891   5.233   2.849 -0.6107  0.2302 -0.4734
  762MOL0     C 2781   0.767   5.167   2.825 -0.1507 -0.3238 -0.1226
  762MOL0     O 2782   0.504   5.141   3.112  0.2681  0.0641 -0.5936
  762MOL0     C 2783   0.329   4.954   2.867  0.3975  0.6058  0.4520
  762MOL0     C 2784   0.205   4.903   2.838 -0.4705  0.6590 -0.6125
  762MOL0     N 2785   0.083   4.689   3.347 -0.0973 -0.1175  0.0404
  762MOL0     N 2786   0.210   4.728   3.349  0.1986 -0.3061  0.1041
  762MOL0     C 2787   1.020   5.128   2.506  0.0004 -0.2940  1.0250
  762MOL0     C 2788   1.027   5.270   2.493 -0.1862 -0.8415 -0.5709
  762MOL0     C 2789   0.906   5.644   2.243  0.6087 -0.0416 -0.2190
  762MOL0     C 2790   0.927   5.736   2.345  0.6061  0.2554 -0.6649
  762MOL0     C 2791   0.922   5.878   2.316 -0.3393  0.8480 -0.1130
  762MOL0     C 2792   0.882   5.925   2.190 -0.3206  0.5453 -0.0043
  762MOL0     O 2793   0.861   6.055   2.150 -0.0808  0.0901  0.5733
  762MOL0     C 2794   0.916   6.153   2.244 -1.1525 -0.3755  0.2160
  762MOL0     C 2795   1.069   6.166   2.243  0.6111  0.6994 -0.2852
  762MOL0     C 2796   1.120   6.277   2.331 -0.4422 -0.2896 -1.2307
  762MOL0     C 2797   1.074   6.253   2.478  0.1185  0.0397  0.0705
  762MOL0     C 2798   1.095   6.124   2.545  0.3666 -0.4819  0.3628
  762MOL0     C 2799   1.121   6.021   2.603 -0.0288 -0.0341 -0.2985
  762MOL0     C 2800   0.872   5.826   2.089  0.1128  0.9751  0.2452
  762MOL0     C 2801   0.877   5.696   2.115  0.7133 -0.4412  0.7741
  762MOL0     C 2802   0.852   5.598   1.995 -0.4354 -0.4152 -0.3568
  762MOL0     H 2803   0.716   5.312   2.368 -0.8829 -0.5754  1.8193
  762MOL0     H 2804   0.707   5.078   2.416  0.4115  0.1862 -1.3461
  762MOL0     H 2805   0.700   4.890   2.499 -0.1901  0.7152  0.0699
  762MOL0     H 2806   0.795   4.741   2.487 -1.1787  0.7933 -0.5469
  762MOL0     H 2807   0.693   4.885   2.717 -0.1256  2.2866 -2.3651
  762MOL0     H 2808   0.877   4.858   2.737  0.8744 -1.5890 -1.6324
  762MOL0     H 2809   0.865   4.634   2.691 -0.1978  0.6700 -1.4579
  762MOL0     H 2810   0.687   4.642   2.683  0.5104  0.6043 -0.3153
  762MOL0     H 2811   0.800   4.565   2.923  0.0306  0.3462 -0.5267
  762MOL0     H 2812   0.824   4.732   2.938  1.6487  0.0335 -3.7406
  762MOL0     H 2813   0.573   4.780   2.905 -1.2042  0.0411  0.1716
  762MOL0     H 2814   0.560   4.614   2.857  0.4301 -2.1394  2.6588
  762MOL0     H 2815   0.626   4.541   3.093  1.1037  0.0534  1.8216
  762MOL0     H 2816   0.643   4.715   3.137 -1.5592  0.2662  1.5425
  762MOL0     H 2817   0.393   4.580   3.061  0.2137  0.1485  0.7982
  762MOL0     H 2818   0.405   4.756   3.068 -1.4545 -2.4591 -3.1592
  762MOL0     H 2819   0.475   4.569   3.295  3.1137  0.1909 -2.1756
  762MOL0     H 2820   0.465   4.729   3.316 -1.8372 -1.3485  1.6937
  762MOL0     H 2821   0.193   4.510   3.116  0.7528  2.4333 -1.1176
  762MOL0     H 2822  -0.048   4.456   3.174 -0.7834 -0.3665  4.9324
  762MOL0     H 2823  -0.143   4.566   3.277 -1.2678  0.6290 -0.1497
  762MOL0     H 2824  -0.012   4.646   3.016  0.1330  2.8974  1.0526
  762MOL0     H 2825  -0.192   4.607   3.036 -0.4999  0.1165  1.0629
  762MOL0     H 2826  -0.041   4.836   3.166  0.7163  0.9671 -1.1217
  762MOL0     H 2827  -0.215   4.814   3.168  1.5245  1.1056  0.5131
  762MOL0     H 2828  -0.150   4.991   3.004 -0.2491 -0.5907  0.6844
  762MOL0     H 2829  -0.230   4.870   2.922 -0.0142  2.4669 -1.8602
  762MOL0     H 2830   0.035   5.037   3.103 -0.5996 -1.5010  0.6698
  762MOL0     H 2831   0.260   5.112   3.162  1.5155 -0.9830  0.7118
  762MOL0     H 2832   0.743   5.033   3.138  0.8996 -2.3374 -0.0410
  762MOL0     H 2833   0.956   5.124   3.168 -1.2780  2.2217  0.6502
  762MOL0     H 2834   1.156   5.145   2.798 -0.7083  0.0152  0.6406
  762MOL0     H 2835   1.250   5.275   2.840 -1.2833 -0.0194 -1.3223
  762MOL0     H 2836   1.374   5.089   2.925 -1.9929 -3.4289  0.2154
  762MOL0     H 2837   1.288   5.153   3.073 -0.1643 -2.0529  1.6220
  762MOL0     H 2838   1.104   4.964   3.009  1.2161  0.9876  1.3263
  762MOL0     H 2839   1.249   4.896   2.914  0.9456 -0.2071  1.0472
  762MOL0     H 2840   1.262   4.960   3.202  1.4814 -2.7373  2.6417
  762MOL0     H 2841   1.392   4.897   3.101  0.0128  0.7176 -1.7184
  762MOL0     H 2842   1.324   4.694   3.201 -0.1286  0.3304  2.0682
  762MOL0     H 2843   1.239   4.691   3.055  1.0405 -1.4470 -0.4129
  762MOL0     H 2844   1.127   4.767   3.320 -0.5732 -1.2519 -0.1937
  762MOL0     H 2845   1.037   4.802   3.180 -2.0763 -0.6694  2.5891
  762MOL0     H 2846   1.138   4.510   3.197 -0.2227 -1.4306  1.3250
  762MOL0     H 2847   1.000   4.579   3.105 -0.8186  0.0270  0.4197
  762MOL0     H 2848   0.907   4.444   3.273 -2.1578  0.7316 -0.3155
  762MOL0     H 2849   1.010   4.514   3.398  1.6704 -0.1514 -1.6579
  762MOL0     H 2850   0.942   5.287   2.771 -2.6944  1.1620 -1.2589
  762MOL0     H 2851   0.710   5.211   2.743  0.6059  1.0402  0.0567
  762MOL0     H 2852   0.405   4.928   2.794  1.7428 -0.6696  2.1979
  762MOL0     H 2853   0.179   4.850   2.747 -2.2667 -0.1370  0.3002
  762MOL0     H 2854   1.102   5.080   2.558 -0.2730 -2.6420 -0.5225
  762MOL0     H 2855   1.124   5.317   2.512 -0.1783 -1.1424  0.1896
  762MOL0     H 2856   0.957   5.703   2.445  0.8687  1.2015 -0.4204
  762MOL0     H 2857   0.956   5.933   2.403  0.6089 -2.1268  1.5549
  762MOL0     H 2858   0.885   6.133   2.347  1.0898 -0.8212  0.8666
  762MOL0     H 2859   0.874   6.250   2.216 -1.2725 -0.6839 -0.6945
  762MOL0     H 2860   1.093   6.184   2.138  0.4040  4.1128  0.1438
  762MOL0     H 2861   1.113   6.069   2.267 -2.2865 -1.1215 -1.7020
  762MOL0     H 2862   1.076   6.373   2.303 -0.5465 -0.5782 -2.0703
  762MOL0     H 2863   1.229   6.284   2.329 -0.0081 -4.0763  0.0366
  762MOL0     H 2864   1.117   6.340   2.529  0.4053  0.7796 -1.3600
  762MOL0     H 2865   0.965   6.265   2.484 -0.1781 -1.8736 -0.7792
  762MOL0     H 2866   1.144   5.929   2.652 -1.6420  0.7713  2.1330
  762MOL0     H 2867   0.853   5.851   1.985  3.7346 -1.0143 -1.0454
  762MOL0     H 2868   0.954   5.593   1.955  0.4268  1.1219  1.4679
  762MOL0     H 2869   0.813   5.498   2.016  0.6992 -0.9446 -0.7076
  762MOL0     H 2870   0.784   5.634   1.917 -2.1160 -2.3825  0.1394
  763MOL0     O 2871   9.886  10.592   8.652  0.0098 -0.1968  0.2187
  763MOL0     C 2872   9.766  10.558   8.636 -0.0951  0.0220 -1.0153
  763MOL0     O 2873   9.714  10.514   8.522 -0.1112 -0.2653 -0.7236
  763MOL0     C 2874   9.790  10.472   8.414 -0.1065  0.7658 -0.1044
  763MOL0     C 2875   9.899  10.540   8.362  0.2263  0.3372  0.4069
  763MOL0     C 2876   9.970  10.488   8.251 -0.0534 -0.2962 -0.9976
  763MOL0     C 2877   9.936  10.369   8.199  0.3496 -0.3825  0.5886
  763MOL0     O 2878   9.991  10.312   8.082 -0.6168  0.0275 -0.0725
  763MOL0     C 2879  10.112  10.362   8.020 -0.1233  0.1796  0.6799
  763MOL0     C 2880  10.089  10.418   7.883  0.5474  0.1338 -0.3682
  763MOL0     C 2881  10.207  10.493   7.804 -0.2009 -0.3167 -0.8020
  763MOL0     C 2882  10.191  10.492   7.652  0.5016 -0.1358  0.5689
  763MOL0     C 2883  10.063  10.576   7.605 -0.3225 -0.4221  1.4599
  763MOL0     C 2884  10.058  10.610   7.454  0.2544  0.0959  0.0665
  763MOL0     C 2885  10.179  10.680   7.397 -0.1833 -0.6866  0.7257
  763MOL0     C 2886  10.177  10.735   7.245 -0.4717 -0.1405  0.9281
  763MOL0     N 2887  10.122  10.630   7.162  0.5252 -0.9121  1.0774
  763MOL0     C 2888   9.984  10.630   7.123 -0.2481  0.7033 -0.2838
  763MOL0     C 2889   9.969  10.515   7.060  0.7220 -0.5380 -0.6517
  763MOL0     C 2890   9.832  10.464   7.029  0.4708 -0.0805 -0.0282
  763MOL0     C 2891   9.756  10.393   7.148 -1.1450 -0.6883 -0.0347
  763MOL0     C 2892   9.763  10.237   7.129  0.0876  0.0268 -0.6453
  763MOL0     C 2893   9.632  10.162   7.155 -0.3887  0.2229  0.9035
  763MOL0     O 2894   9.660  10.032   7.105 -0.1182 -0.7655 -0.4735
  763MOL0     C 2895   9.557   9.942   7.091  0.2490  0.4525 -0.5563
  763MOL0     C 2896   9.587   9.814   7.050 -1.1046 -0.7116  0.2284
  763MOL0     C 2897   9.493   9.716   7.015 -0.8725  0.4324 -0.8172
  763MOL0     C 2898   9.357   9.751   7.016  0.5427 -0.2691  0.2740
  763MOL0     C 2899   9.239   9.662   6.979  0.1848  0.7043  0.7648
  763MOL0     O 2900   9.109   9.712   7.001  0.6620  1.1228  0.6559
  763MOL0     C 2901   9.004   9.625   6.950  0.2920 -0.0617  0.3780
  763MOL0     C 2902   8.977   9.587   6.817  0.3841  0.6597 -0.0844
  763MOL0     C 2903   8.866   9.499   6.787 -0.2183 -0.3622  1.3444
  763MOL0     C 2904   8.775   9.464   6.885 -0.2204  0.4709 -0.4395
  763MOL0     O 2905   8.666   9.380   6.866 -0.4517  0.3104 -0.0084
  763MOL0     C 2906   8.635   9.363   6.732  0.0664 -0.6823  0.2144
  763MOL0     C 2907   8.495   9.309   6.726  0.3755 -0.6128  0.1650
  763MOL0     C 2908   8.471   9.240   6.584 -0.0350 -0.4897  0.5166
  763MOL0     C 2909   8.327   9.191   6.591  0.0839  0.3634  0.1782
  763MOL0     C 2910   8.297   9.089   6.473 -0.0865 -0.3219  0.4876
  763MOL0     C 2911   8.164   9.026   6.482 -0.5578  0.1348  0.1522
  763MOL0     C 2912   8.040   9.127   6.448  0.0149 -0.2400  0.0603
  763MOL0     C 2913   7.911   9.083   6.527 -0.6245 -0.3264 -0.6182
  763MOL0    Cl 2914   7.884   8.915   6.507 -0.0197  0.2462  0.1567
  763MOL0     C 2915   8.801   9.504   7.020  0.2366  0.6321 -0.2826
  763MOL0     C 2916   8.911   9.585   7.051  0.0703 -0.2616  0.4482
  763MOL0     O 2917   9.275   9.553   6.931  0.4069 -0.6649  0.1114
  763MOL0     C 2918   9.318   9.883   7.070 -0.6444  0.8515  0.6299
  763MOL0     C 2919   9.421   9.973   7.105 -0.4304 -0.0720  0.5787
  763MOL0     N 2920  10.085  10.447   7.058 -0.2093  0.0294  0.2384
  763MOL0     N 2921  10.173  10.518   7.116 -0.6030  0.4234 -0.5168
  763MOL0     C 2922   9.823  10.297   8.256 -0.1701 -0.0045  0.5613
  763MOL0     C 2923   9.749  10.344   8.363 -1.2058 -1.0236 -0.6067
  763MOL0     C 2924   9.674  10.558   8.752  0.4060  0.4912  0.9955
  763MOL0     C 2925   9.536  10.543   8.728 -0.5260 -1.1610  0.2945
  763MOL0     C 2926   9.444  10.557   8.827  0.2456 -0.3100 -1.3515
  763MOL0     C 2927   9.483  10.575   8.960 -0.1778 -0.1775 -0.8544
  763MOL0     O 2928   9.404  10.590   9.071  0.5700  0.8287 -0.8263
  763MOL0     C 2929   9.266  10.566   9.052  0.3176  1.0478  0.3616
  763MOL0     C 2930   9.201  10.537   9.199  0.8068  0.2498 -0.0954
  763MOL0     C 2931   9.263  10.405   9.269 -0.6291 -0.2583 -0.2033
  763MOL0     C 2932   9.223  10.394   9.415 -0.3927  0.5499 -0.7265
  763MOL0     C 2933   9.086  10.440   9.447  0.5570  0.0525 -0.5973
  763MOL0     C 2934   8.978  10.482   9.481 -0.7097  1.0232  1.2697
  763MOL0     C 2935   9.621  10.579   8.987  0.4707  0.2509 -0.1766
  763MOL0     C 2936   9.713  10.573   8.880 -0.7310  0.3003 -0.0550
  763MOL0     C 2937   9.858  10.602   8.923  0.2099  0.1106  0.0696
  763MOL0     H 2938   9.928  10.638   8.399 -0.6420  0.7726 -0.0172
  763MOL0     H 2939  10.052  10.544   8.207  0.2083  1.8193  1.9390
  763MOL0     H 2940  10.170  10.437   8.074 -0.0152  2.9708 -2.9519
  763MOL0     H 2941  10.179  10.277   8.006  0.1580  0.3146  1.2100
  763MOL0     H 2942   9.996  10.474   7.887 -1.4773 -2.9969  0.2600
  763MOL0     H 2943  10.078  10.322   7.832  0.6677 -2.2949  3.7309
  763MOL0     H 2944  10.307  10.460   7.833 -0.0568 -1.5822 -2.6114
  763MOL0     H 2945  10.209  10.599   7.834  0.2783  0.2110 -2.6013
  763MOL0     H 2946  10.277  10.550   7.618  0.6397 -0.4912  0.3102
  763MOL0     H 2947  10.202  10.394   7.604  3.7423 -0.1198  1.0678
  763MOL0     H 2948   9.978  10.515   7.637  0.3548 -1.5581  1.1648
  763MOL0     H 2949  10.067  10.670   7.661  3.4920 -0.0631  0.8722
  763MOL0     H 2950  10.055  10.510   7.409  1.5842 -0.9807  2.1864
  763MOL0     H 2951   9.974  10.675   7.425  0.0325 -0.0858  0.2999
  763MOL0     H 2952  10.258  10.606   7.411 -0.1175 -0.1548  3.7195
  763MOL0     H 2953  10.192  10.759   7.472 -0.4236  0.1752 -0.1188
  763MOL0     H 2954  10.109  10.821   7.241 -0.2227  0.0707  1.1585
  763MOL0     H 2955  10.281  10.760   7.220 -1.3585  2.7983 -0.3170
  763MOL0     H 2956   9.908  10.700   7.159 -2.3630 -2.0545  1.0121
  763MOL0     H 2957   9.776  10.555   7.004 -0.5876 -0.5579  0.5131
  763MOL0     H 2958   9.823  10.400   6.940 -1.7651  0.7978 -0.5154
  763MOL0     H 2959   9.804  10.436   7.236  1.4885 -1.2182 -1.1141
  763MOL0     H 2960   9.654  10.430   7.159 -0.4495  1.3815 -0.1370
  763MOL0     H 2961   9.840  10.200   7.197 -1.2331  0.2430  1.0389
  763MOL0     H 2962   9.793  10.215   7.026 -0.1551 -0.1237 -0.6850
  763MOL0     H 2963   9.560  10.213   7.091 -1.5119 -0.0247  1.9302
  763MOL0     H 2964   9.593  10.170   7.257 -2.4592  0.0817  0.1646
  763MOL0     H 2965   9.692   9.789   7.040 -1.2134 -0.5526 -1.5575
  763MOL0     H 2966   9.516   9.616   6.980  1.2992  0.8029 -0.5792
  763MOL0     H 2967   9.042   9.632   6.742  0.9573 -2.3947 -1.5640
  763MOL0     H 2968   8.867   9.462   6.685  0.4726  0.5402  1.0054
  763MOL0     H 2969   8.636   9.465   6.693  1.0327  0.6667  3.4924
  763MOL0     H 2970   8.712   9.306   6.677  0.4575  2.9285 -3.4806
  763MOL0     H 2971   8.499   9.230   6.801 -0.6464 -1.8400 -1.0033
  763MOL0     H 2972   8.418   9.379   6.758  0.8764 -0.4363  1.0058
  763MOL0     H 2973   8.481   9.313   6.503 -0.9283 -0.8862  0.0341
  763MOL0     H 2974   8.548   9.164   6.570  0.8607  0.3027  0.9787
  763MOL0     H 2975   8.264   9.280   6.582  3.2076  2.9949  2.1346
  763MOL0     H 2976   8.303   9.144   6.687  4.7064  1.0865  1.9040
  763MOL0     H 2977   8.371   9.009   6.485  2.3738  1.6725 -0.3726
  763MOL0     H 2978   8.302   9.130   6.372 -0.7922 -1.1367  0.1200
  763MOL0     H 2979   8.164   8.941   6.413  0.7170  0.3019 -0.0902
  763MOL0     H 2980   8.170   8.975   6.578  2.1332 -0.7116 -0.3718
  763MOL0     H 2981   8.023   9.132   6.340 -1.5093  1.2761  0.3393
  763MOL0     H 2982   8.078   9.226   6.473 -0.2166  0.0181 -0.5997
  763MOL0     H 2983   7.922   9.102   6.634  0.7483  1.4696 -1.0123
  763MOL0     H 2984   7.829   9.138   6.480 -0.7028 -1.6295 -2.0591
  763MOL0     H 2985   8.730   9.495   7.102  0.8637  1.4634  0.3770
  763MOL0     H 2986   8.911   9.634   7.148  2.0740 -2.5015  1.7071
  763MOL0     H 2987   9.215   9.915   7.067 -1.3438 -1.2692 -2.3937
  763MOL0     H 2988   9.386  10.070   7.139 -0.6668 -0.1106  0.4433
  763MOL0     H 2989   9.797  10.194   8.234 -0.0228 -0.2909  1.6764
  763MOL0     H 2990   9.663  10.296   8.407 -0.4785 -1.5473  0.2882
  763MOL0     H 2991   9.487  10.545   8.631  1.0987  2.5507 -0.6360
  763MOL0     H 2992   9.344  10.535   8.793  0.2481  0.9369 -2.2267
  763MOL0     H 2993   9.257  10.479   8.986 -0.8553  2.4635 -1.4457
  763MOL0     H 2994   9.213  10.651   9.008 -3.4844 -1.2280  0.0828
  763MOL0     H 2995   9.093  10.521   9.195  0.4357  1.9744  1.5248
  763MOL0     H 2996   9.212  10.622   9.266 -1.7808  0.5477  0.0495
  763MOL0     H 2997   9.372  10.411   9.256 -0.3523  2.4584  2.3081
  763MOL0     H 2998   9.231  10.316   9.214 -0.2396  0.5655 -1.8626
  763MOL0     H 2999   9.240  10.290   9.445 -4.3332  0.3114  1.2918
  763MOL0     H 3000   9.292  10.460   9.470 -1.1627  2.0348 -1.4785
  763MOL0     H 3001   8.883  10.509   9.524 -0.8714 -0.3935  1.8679
  763MOL0     H 3002   9.637  10.605   9.091 -0.2013 -1.8555  0.5109
  763MOL0     H 3003   9.895  10.689   8.868  0.1432 -0.1805 -0.4433
  763MOL0     H 3004   9.866  10.623   9.030  0.8753 -2.8063  0.6867
  763MOL0     H 3005   9.930  10.521   8.908 -0.5289 -0.3360 -1.2730
  764MOL0     O 3006   8.694   7.603   3.319 -0.6781 -0.7740  0.2268
  764MOL0     C 3007   8.711   7.727   3.320  0.4361 -0.2085  1.3174
  764MOL0     O 3008   8.625   7.812   3.373  0.5164  0.1592  0.8035
  764MOL0     C 3009   8.522   7.755   3.437  0.2333 -1.1229  0.6828
  764MOL0     C 3010   8.436   7.666   3.377 -0.1266  0.4885  0.1399
  764MOL0     C 3011   8.328   7.615   3.443  0.3998  0.5179  0.5469
  764MOL0     C 3012   8.310   7.657   3.578  0.5991  0.2907  0.1514
  764MOL0     O 3013   8.215   7.614   3.667  0.6591  0.5507 -0.0625
  764MOL0     C 3014   8.096   7.565   3.608 -0.1408  0.5891  0.7103
  764MOL0     C 3015   8.001   7.536   3.727 -0.3244  0.1467 -0.0373
  764MOL0     C 3016   8.061   7.416   3.810  1.3943 -0.5785 -0.3660
  764MOL0     C 3017   8.022   7.279   3.760  0.3105  0.9758  0.5417
  764MOL0     C 3018   8.103   7.177   3.847  0.4219 -0.5191 -0.4588
  764MOL0     C 3019   8.054   7.027   3.821 -0.2494 -0.3547  0.3516
  764MOL0     C 3020   8.145   6.916   3.881 -0.9995  0.2845 -1.1379
  764MOL0     C 3021   8.150   6.893   4.031 -0.1371  0.4502 -0.0909
  764MOL0     N 3022   8.036   6.822   4.095 -1.1943 -0.0192 -1.1690
  764MOL0     C 3023   7.921   6.883   4.146 -0.1298  0.2350 -0.2245
  764MOL0     C 3024   7.860   6.777   4.209 -0.2577 -0.2482 -0.8564
  764MOL0     C 3025   7.740   6.771   4.304  0.2658 -0.4074  0.9648
  764MOL0     C 3026   7.754   6.873   4.419 -0.1651  0.5403 -0.3528
  764MOL0     C 3027   7.856   6.832   4.524 -0.6140 -0.7245 -0.0405
  764MOL0     C 3028   7.792   6.731   4.614 -0.0013  0.6471  1.0778
  764MOL0     O 3029   7.657   6.758   4.670 -0.2488  0.4199  0.2018
  764MOL0     C 3030   7.634   6.831   4.781  1.1193 -1.6516  0.1069
  764MOL0     C 3031   7.508   6.881   4.793  0.5114 -0.0483 -0.6569
  764MOL0     C 3032   7.468   6.934   4.916  0.2501  0.8618 -0.1227
  764MOL0     C 3033   7.558   6.966   5.017  0.8298  0.2023 -0.8390
  764MOL0     C 3034   7.522   7.038   5.140  0.2835 -0.7808  0.2819
  764MOL0     O 3035   7.428   7.140   5.125 -0.4793  0.2843  0.4734
  764MOL0     C 3036   7.387   7.203   5.237 -0.7195  0.2467 -0.0071
  764MOL0     C 3037   7.434   7.329   5.267  0.1498 -0.7093 -0.2217
  764MOL0     C 3038   7.387   7.394   5.378  0.4069 -0.4057  0.5487
  764MOL0     C 3039   7.298   7.334   5.463  1.0601 -0.3643 -0.4760
  764MOL0     O 3040   7.259   7.411   5.574 -0.7940 -0.5330  1.0671
  764MOL0     C 3041   7.286   7.547   5.598 -0.7206  0.0218  0.1227
  764MOL0     C 3042   7.369   7.573   5.721 -0.3964 -0.6111 -0.4056
  764MOL0     C 3043   7.349   7.721   5.756  0.0190 -1.0698 -0.1647
  764MOL0     C 3044   7.422   7.759   5.889 -0.1765  0.5252 -1.2057
  764MOL0     C 3045   7.410   7.909   5.917  0.0099 -0.1749  0.0219
  764MOL0     C 3046   7.332   7.931   6.050 -0.1173  0.1776  0.1388
  764MOL0     C 3047   7.303   8.080   6.055  0.3986 -0.3731 -0.1572
  764MOL0     C 3048   7.261   8.125   6.198  0.4531 -0.1165 -0.4058
  764MOL0    Cl 3049   7.383   8.073   6.319 -0.2794 -0.2707 -0.3826
  764MOL0     C 3050   7.255   7.208   5.438  0.3715 -0.3196  0.4714
  764MOL0     C 3051   7.301   7.136   5.333 -0.4216  1.0082  0.8560
  764MOL0     O 3052   7.569   7.004   5.245  0.0432  0.1638  0.2701
  764MOL0     C 3053   7.693   6.933   4.998 -0.4121  0.5540 -0.2393
  764MOL0     C 3054   7.727   6.873   4.872  0.8456  0.0617  0.9509
  764MOL0     N 3055   7.935   6.663   4.196 -0.2357 -0.8592 -1.0619
  764MOL0     N 3056   8.036   6.689   4.119  0.1531 -0.3649  0.7187
  764MOL0     C 3057   8.394   7.764   3.630 -0.0080 -0.5154  0.6252
  764MOL0     C 3058   8.501   7.808   3.558  0.3040 -0.0088 -0.9529
  764MOL0     C 3059   8.835   7.782   3.249 -0.0864 -0.4922 -0.3398
  764MOL0     C 3060   8.830   7.908   3.196 -0.2778 -0.6834 -0.0615
  764MOL0     C 3061   8.942   7.980   3.155 -0.0480 -0.2049  0.1573
  764MOL0     C 3062   9.068   7.911   3.143  1.0307  0.3084  0.0020
  764MOL0     O 3063   9.179   7.975   3.093  0.4545  0.6118 -0.3757
  764MOL0     C 3064   9.297   7.905   3.060  0.3129  0.4460  0.6365
  764MOL0     C 3065   9.385   8.001   2.980  0.3112  0.1786  0.0602
  764MOL0     C 3066   9.528   7.956   2.963  1.2208  0.6496  0.3399
  764MOL0     C 3067   9.626   8.060   2.914  0.1485 -0.0845  0.7334
  764MOL0     C 3068   9.634   8.180   3.003 -0.4638  0.3510  0.6921
  764MOL0     C 3069   9.633   8.268   3.084  0.3164  0.0681 -0.2888
  764MOL0     C 3070   9.075   7.781   3.189  0.9089 -0.1094  0.1854
  764MOL0     C 3071   8.958   7.723   3.249 -0.2791  0.3404 -0.0575
  764MOL0     C 3072   8.965   7.577   3.281  0.2645  0.6887  0.9555
  764MOL0     H 3073   8.452   7.630   3.276  0.4167 -0.9512  0.7092
  764MOL0     H 3074   8.269   7.535   3.398 -1.5414  1.8963  0.5084
  764MOL0     H 3075   8.045   7.628   3.534  2.6115  1.7349 -0.3571
  764MOL0     H 3076   8.115   7.477   3.545  0.4488  0.2741  1.3164
  764MOL0     H 3077   7.900   7.510   3.695 -0.6240  3.6053 -2.3937
  764MOL0     H 3078   8.012   7.623   3.793  0.2345 -1.7148  2.4975
  764MOL0     H 3079   8.026   7.423   3.914 -1.5847 -1.8426 -1.1748
  764MOL0     H 3080   8.170   7.425   3.806  1.2883  1.5009  0.4424
  764MOL0     H 3081   7.915   7.260   3.770  0.6240 -2.7549 -1.3454
  764MOL0     H 3082   8.042   7.264   3.653 -2.2391 -2.4500  0.3864
  764MOL0     H 3083   8.211   7.196   3.834 -0.0256  1.7319 -1.4896
  764MOL0     H 3084   8.096   7.205   3.953  1.0193  1.9524 -1.0043
  764MOL0     H 3085   7.953   7.021   3.863  0.6006  0.6729  2.7059
  764MOL0     H 3086   8.032   7.005   3.716 -3.0435 -1.4002  1.0558
  764MOL0     H 3087   8.249   6.944   3.860 -1.3698  1.1957 -1.8011
  764MOL0     H 3088   8.130   6.819   3.831  0.1879 -0.4573 -0.1087
  764MOL0     H 3089   8.228   6.819   4.050 -1.9050 -1.2350  0.9426
  764MOL0     H 3090   8.173   6.987   4.082  2.9175  0.2963 -0.9693
  764MOL0     H 3091   7.883   6.984   4.138 -0.8632  0.0553  0.8152
  764MOL0     H 3092   7.650   6.813   4.257 -1.1456  2.9299  5.8459
  764MOL0     H 3093   7.722   6.672   4.345  3.6896 -1.1587  0.9195
  764MOL0     H 3094   7.787   6.969   4.377 -0.6160  0.9862  0.3064
  764MOL0     H 3095   7.656   6.895   4.462 -2.0885 -1.3834 -3.3852
  764MOL0     H 3096   7.892   6.916   4.584  1.1073  1.1055 -3.3245
  764MOL0     H 3097   7.933   6.796   4.456 -0.0102 -0.7366  0.6451
  764MOL0     H 3098   7.857   6.699   4.696  0.0605  0.3227  0.9040
  764MOL0     H 3099   7.769   6.638   4.561  3.5390  0.3423 -0.2185
  764MOL0     H 3100   7.434   6.852   4.719  3.1021 -0.8454 -3.0841
  764MOL0     H 3101   7.362   6.955   4.926 -0.0011  0.8393 -2.3261
  764MOL0     H 3102   7.506   7.383   5.207  0.6467  1.3533  2.1089
  764MOL0     H 3103   7.435   7.491   5.388  0.9886 -0.9029  4.2107
  764MOL0     H 3104   7.329   7.597   5.511 -2.0945  1.1009  0.0223
  764MOL0     H 3105   7.186   7.591   5.605 -0.6082  0.2551  0.2530
  764MOL0     H 3106   7.343   7.503   5.801  0.9600 -0.7551 -0.0596
  764MOL0     H 3107   7.473   7.558   5.690  0.4143  2.9307  0.1787
  764MOL0     H 3108   7.374   7.788   5.673 -0.4722  0.4470  0.8891
  764MOL0     H 3109   7.244   7.739   5.779 -0.1339 -2.0858 -0.0072
  764MOL0     H 3110   7.530   7.745   5.884  0.1765  1.9434  0.9782
  764MOL0     H 3111   7.364   7.689   5.950 -3.6097  1.4715 -3.0794
  764MOL0     H 3112   7.371   7.967   5.833  0.8180  1.1239  0.5098
  764MOL0     H 3113   7.508   7.951   5.943 -0.3641 -0.3430  1.8894
  764MOL0     H 3114   7.240   7.872   6.040 -0.2536  0.5510 -0.9762
  764MOL0     H 3115   7.385   7.886   6.135 -0.5354 -2.9927 -1.1595
  764MOL0     H 3116   7.216   8.095   5.990 -0.5935  0.2568  1.2615
  764MOL0     H 3117   7.378   8.151   6.019 -0.5675 -0.8397 -3.3841
  764MOL0     H 3118   7.236   8.231   6.200 -0.0343 -0.2035 -1.3334
  764MOL0     H 3119   7.169   8.072   6.223  0.6640 -1.0507 -1.5101
  764MOL0     H 3120   7.198   7.155   5.513 -1.0418  1.6765  0.8714
  764MOL0     H 3121   7.277   7.031   5.326 -0.8662  1.2287 -2.9959
  764MOL0     H 3122   7.769   6.944   5.074 -0.2606 -1.5906 -0.0056
  764MOL0     H 3123   7.832   6.858   4.850  0.2570 -0.9072 -1.6610
  764MOL0     H 3124   8.387   7.801   3.732  2.1467 -0.0675  0.6512
  764MOL0     H 3125   8.556   7.884   3.613 -0.4842  0.6127 -0.9990
  764MOL0     H 3126   8.730   7.948   3.185 -0.0310 -0.3784 -1.2692
  764MOL0     H 3127   8.942   8.083   3.121  1.1215 -0.6650 -1.4011
  764MOL0     H 3128   9.281   7.811   3.006 -0.2940  0.7942  0.1948
  764MOL0     H 3129   9.344   7.893   3.158  1.8095 -0.5982 -0.1770
  764MOL0     H 3130   9.376   8.099   3.028  3.9936 -0.1028  1.6785
  764MOL0     H 3131   9.351   7.998   2.876 -2.2485 -0.4396  0.8532
  764MOL0     H 3132   9.522   7.865   2.902  0.7492  0.7611  0.2254
  764MOL0     H 3133   9.573   7.932   3.060  1.7844  0.9504  0.1590
  764MOL0     H 3134   9.730   8.024   2.915  0.1832  0.0179  1.1662
  764MOL0     H 3135   9.592   8.090   2.815  0.3589  3.5956  1.6413
  764MOL0     H 3136   9.623   8.336   3.166  1.1314 -3.2828  2.8233
  764MOL0     H 3137   9.155   7.716   3.156  0.9076  0.6199 -1.3247
  764MOL0     H 3138   8.921   7.541   3.374 -2.4181 -2.8869 -1.4344
  764MOL0     H 3139   8.931   7.523   3.192  0.8451  2.6766 -0.5419
  764MOL0     H 3140   9.066   7.536   3.278 -0.1224 -0.4963 -3.7336
  765MOL0     O 3141   9.585   2.026   7.690  0.1767  0.2150 -0.2289
  765MOL0     C 3142   9.608   2.068   7.804 -0.1379 -0.1348  0.6565
  765MOL0     O 3143   9.616   1.995   7.914  0.1103 -0.2457  0.4601
  765MOL0     C 3144   9.643   1.863   7.904  0.2685  0.7416 -0.0421
  765MOL0     C 3145   9.720   1.801   7.801 -0.3886 -0.3962  0.4779
  765MOL0     C 3146   9.770   1.675   7.806 -0.1269 -0.2478 -0.2254
  765MOL0     C 3147   9.766   1.606   7.929  0.9748 -0.4555 -0.3640
  765MOL0     O 3148   9.819   1.477   7.928  0.4369 -0.4382 -0.6297
  765MOL0     C 3149   9.803   1.380   8.026  0.3144  0.0827 -0.3677
  765MOL0     C 3150   9.839   1.246   7.985  0.5061  0.4679 -0.2259
  765MOL0     C 3151   9.971   1.229   7.910  0.1547  0.2438 -0.7934
  765MOL0     C 3152  10.090   1.243   8.004  1.0016  0.1281  0.4465
  765MOL0     C 3153  10.229   1.225   7.939 -0.0534  1.0259  0.6177
  765MOL0     C 3154  10.334   1.259   8.046  0.5593 -0.2500  0.1017
  765MOL0     C 3155  10.470   1.247   7.990 -0.0885  0.3359 -0.6144
  765MOL0     C 3156  10.516   1.100   7.985 -0.2137 -0.7943  0.3605
  765MOL0     N 3157  10.556   1.046   8.116  0.1586 -0.5411 -0.2168
  765MOL0     C 3158  10.670   1.087   8.183 -0.6472 -0.3500  0.1611
  765MOL0     C 3159  10.686   0.994   8.279  0.1276 -0.0365 -0.1253
  765MOL0     C 3160  10.803   1.008   8.389  0.4223  0.7854  0.6458
  765MOL0     C 3161  10.763   1.120   8.487  0.3974 -0.0424 -1.6513
  765MOL0     C 3162  10.649   1.089   8.584  0.4670  0.3423 -0.1213
  765MOL0     C 3163  10.618   1.223   8.658  0.0041  0.0503 -0.5444
  765MOL0     O 3164  10.491   1.187   8.723 -0.5775  0.7164 -0.5526
  765MOL0     C 3165  10.439   1.291   8.800 -0.0473  0.5283  0.7679
  765MOL0     C 3166  10.491   1.419   8.825  0.3594 -0.3533 -0.0674
  765MOL0     C 3167  10.425   1.510   8.901 -0.4222  0.3901 -0.0502
  765MOL0     C 3168  10.299   1.482   8.964 -0.0991 -1.0770 -0.9206
  765MOL0     C 3169  10.234   1.587   9.048 -0.4177 -0.8709 -0.1009
  765MOL0     O 3170  10.298   1.709   9.063 -0.4611  0.5856 -0.4978
  765MOL0     C 3171  10.244   1.813   9.134 -0.0667  0.0363 -0.0093
  765MOL0     C 3172  10.288   1.834   9.273  0.4051 -0.4216  0.2036
  765MOL0     C 3173  10.249   1.952   9.333  0.4722  0.5652 -0.4108
  765MOL0     C 3174  10.166   2.049   9.265  0.2954  1.7017 -1.2032
  765MOL0     O 3175  10.118   2.153   9.339 -0.3943 -0.1788  0.3404
  765MOL0     C 3176  10.045   2.266   9.276  0.4434 -1.0385 -0.7616
  765MOL0     C 3177  10.032   2.393   9.360  0.3833  0.1027 -0.7291
  765MOL0     C 3178   9.931   2.368   9.476 -0.4901 -0.6967  0.2401
  765MOL0     C 3179   9.876   2.505   9.523  0.1004 -0.6911  0.1836
  765MOL0     C 3180   9.786   2.488   9.654 -0.1877 -0.2432  0.3213
  765MOL0     C 3181   9.729   2.623   9.688  0.3485  0.1726  0.6049
  765MOL0     C 3182   9.640   2.628   9.815 -0.2146 -0.1157  0.2438
  765MOL0     C 3183   9.611   2.782   9.847  0.5869  0.0019  1.1918
  765MOL0    Cl 3184   9.542   2.876   9.704  0.3065  0.0252 -0.2622
  765MOL0     C 3185  10.130   2.025   9.130 -0.3971 -0.0414 -1.1208
  765MOL0     C 3186  10.166   1.904   9.068  0.4669  0.1666  0.7622
  765MOL0     O 3187  10.128   1.559   9.108 -0.2867 -0.0201  1.3751
  765MOL0     C 3188  10.245   1.356   8.941  0.4446  1.0271 -0.3653
  765MOL0     C 3189  10.316   1.266   8.865 -1.7001  0.0032  0.0187
  765MOL0     N 3190  10.588   0.899   8.266  0.1688  0.8302  0.5141
  765MOL0     N 3191  10.499   0.932   8.175 -0.5670  0.3452 -0.9336
  765MOL0     C 3192   9.694   1.669   8.037 -0.2644  0.6964 -0.4186
  765MOL0     C 3193   9.639   1.791   8.024  0.8628 -0.0732 -0.1357
  765MOL0     C 3194   9.608   2.211   7.806 -0.3680 -0.8389  0.2864
  765MOL0     C 3195   9.509   2.272   7.727 -0.5389 -0.4627  0.8438
  765MOL0     C 3196   9.499   2.414   7.727  0.4634 -0.1879 -1.0685
  765MOL0     C 3197   9.584   2.496   7.803 -0.1084 -1.0569  0.1937
  765MOL0     O 3198   9.570   2.634   7.788  0.3473 -0.6682  0.1282
  765MOL0     C 3199   9.664   2.718   7.858 -0.1319  0.8261 -0.0660
  765MOL0     C 3200   9.612   2.862   7.837 -1.0208  0.6994 -0.2141
  765MOL0     C 3201   9.685   2.970   7.918  0.3954  0.3869  0.5761
  765MOL0     C 3202   9.629   3.112   7.927 -0.1517  0.9005 -0.2708
  765MOL0     C 3203   9.587   3.165   7.794 -0.4669  1.0219 -0.6057
  765MOL0     C 3204   9.552   3.219   7.690 -0.1947  0.1148  0.2510
  765MOL0     C 3205   9.684   2.431   7.885 -0.1217 -0.5650  0.1305
  765MOL0     C 3206   9.693   2.292   7.886  0.4689 -0.7857 -0.5949
  765MOL0     C 3207   9.813   2.233   7.958 -1.0219  0.5745  0.5514
  765MOL0     H 3208   9.748   1.849   7.708 -0.0754 -0.3991  0.5715
  765MOL0     H 3209   9.818   1.633   7.718 -0.2591  0.2477 -0.5387
  765MOL0     H 3210   9.879   1.395   8.104  1.9842 -1.0730 -1.7009
  765MOL0     H 3211   9.707   1.390   8.078  0.5336 -0.5896  0.1884
  765MOL0     H 3212   9.756   1.219   7.918  1.0661  1.4174 -1.3450
  765MOL0     H 3213   9.835   1.176   8.069 -1.0849  0.8993  0.0881
  765MOL0     H 3214   9.981   1.313   7.840  1.1968  2.4359  1.8053
  765MOL0     H 3215   9.980   1.134   7.855  0.4103  1.2635 -2.5994
  765MOL0     H 3216  10.081   1.347   8.037 -2.2414  0.7850 -1.9321
  765MOL0     H 3217  10.086   1.181   8.094 -3.5637  1.1975  1.2100
  765MOL0     H 3218  10.245   1.126   7.896 -1.2942  0.4052  1.5206
  765MOL0     H 3219  10.249   1.298   7.860  2.6100 -1.4502 -1.2429
  765MOL0     H 3220  10.321   1.363   8.077 -1.0251  0.0672 -1.5173
  765MOL0     H 3221  10.323   1.189   8.129 -0.4782 -2.6206 -1.9010
  765MOL0     H 3222  10.540   1.316   8.038  0.5007 -2.4586  2.9297
  765MOL0     H 3223  10.456   1.286   7.889 -0.7583 -2.4421 -1.6700
  765MOL0     H 3224  10.434   1.038   7.949 -1.1152  0.2843  0.5157
  765MOL0     H 3225  10.602   1.099   7.916 -0.1234  0.4130  0.4245
  765MOL0     H 3226  10.731   1.172   8.155 -1.3616  1.3302  3.3142
  765MOL0     H 3227  10.824   0.909   8.430  2.7408 -1.0358 -4.2079
  765MOL0     H 3228  10.901   1.034   8.350  0.0574  1.2377  0.0065
  765MOL0     H 3229  10.848   1.141   8.553 -0.8019  0.8317 -0.3068
  765MOL0     H 3230  10.741   1.210   8.429  0.8580  0.2470 -1.3857
  765MOL0     H 3231  10.669   1.001   8.644 -0.3099 -0.3437 -0.8417
  765MOL0     H 3232  10.568   1.058   8.516 -0.2572  2.1112 -0.1260
  765MOL0     H 3233  10.611   1.309   8.590  1.9423  0.0765 -0.7574
  765MOL0     H 3234  10.700   1.243   8.728  1.3281  4.0532 -2.9003
  765MOL0     H 3235  10.586   1.453   8.786  0.1547  2.1899  1.3782
  765MOL0     H 3236  10.465   1.611   8.902  3.1176 -0.7952 -2.0625
  765MOL0     H 3237  10.345   1.759   9.327  0.3596 -3.6143 -3.6685
  765MOL0     H 3238  10.274   1.972   9.437  0.3759  1.4284 -0.5442
  765MOL0     H 3239  10.086   2.288   9.177 -2.7737 -0.2721 -2.0470
  765MOL0     H 3240   9.941   2.243   9.254 -0.8328  1.4218  1.9636
  765MOL0     H 3241  10.133   2.419   9.395  0.4310  1.9399 -2.0698
  765MOL0     H 3242  10.005   2.482   9.302  1.3616  1.9655  1.4810
  765MOL0     H 3243   9.844   2.309   9.449 -1.4705  1.8428 -2.7668
  765MOL0     H 3244   9.976   2.312   9.558 -0.1948 -1.8191 -0.6638
  765MOL0     H 3245   9.823   2.565   9.448 -0.2978 -0.7384  0.4250
  765MOL0     H 3246   9.966   2.559   9.554  0.4248 -1.4075  0.5159
  765MOL0     H 3247   9.849   2.449   9.734  0.5861  0.5973  0.1475
  765MOL0     H 3248   9.697   2.429   9.632 -0.2219 -0.3071  0.6298
  765MOL0     H 3249   9.807   2.698   9.705  0.2428 -0.2417  3.3795
  765MOL0     H 3250   9.664   2.658   9.607  0.0197  1.9995  1.5962
  765MOL0     H 3251   9.701   2.587   9.896 -0.1162  0.0063  0.2337
  765MOL0     H 3252   9.553   2.566   9.796 -0.0746  0.4085 -2.5103
  765MOL0     H 3253   9.542   2.784   9.931 -0.2494  0.1866  0.5188
  765MOL0     H 3254   9.694   2.845   9.879  1.0258  0.0558  0.0230
  765MOL0     H 3255  10.058   2.097   9.093  1.6964  3.2243  0.6171
  765MOL0     H 3256  10.123   1.884   8.971 -0.4485  0.3495  1.1244
  765MOL0     H 3257  10.142   1.333   8.966 -0.9183 -0.3400 -5.8075
  765MOL0     H 3258  10.271   1.171   8.836 -1.1757  0.3222 -1.9954
  765MOL0     H 3259   9.686   1.615   8.131  2.7852  1.1051  0.2036
  765MOL0     H 3260   9.589   1.835   8.110 -2.5869 -3.1557 -0.3203
  765MOL0     H 3261   9.432   2.210   7.682 -1.5239  0.4819  1.1917
  765MOL0     H 3262   9.424   2.457   7.662 -1.7240 -0.9598  0.7939
  765MOL0     H 3263   9.764   2.695   7.820 -1.0566  2.7680 -4.3664
  765MOL0     H 3264   9.674   2.704   7.966 -0.3904 -0.7674 -0.2317
  765MOL0     H 3265   9.507   2.873   7.865 -1.1683  1.7031 -1.0678
  765MOL0     H 3266   9.623   2.883   7.730 -1.8253 -0.1258 -0.4663
  765MOL0     H 3267   9.782   2.985   7.868 -0.5926 -0.1183 -1.6045
  765MOL0     H 3268   9.698   2.917   8.013 -0.7906 -1.3404 -0.1907
  765MOL0     H 3269   9.540   3.100   7.989  0.9751 -0.5519  1.1423
  765MOL0     H 3270   9.703   3.176   7.976  1.5144 -1.5830  0.6264
  765MOL0     H 3271   9.531   3.265   7.596 -0.7442  0.5422  0.5739
  765MOL0     H 3272   9.746   2.491   7.951 -0.8017  0.0044  0.2672
  765MOL0     H 3273   9.826   2.281   8.056 -0.2644 -0.1717  0.8257
  765MOL0     H 3274   9.802   2.125   7.972  1.0998  0.1019 -1.0722
  765MOL0     H 3275   9.894   2.244   7.886 -3.2470 -0.9302 -2.4063
  766MOL0     O 3276   3.532   5.584   0.167  0.6528  0.3523 -0.0596
  766MOL0     C 3277   3.590   5.682   0.218 -0.6399  0.3917  1.1086
  766MOL0     O 3278   3.580   5.723   0.341 -0.3389 -0.0267 -0.9404
  766MOL0     C 3279   3.478   5.668   0.409  0.0391  0.3401 -0.5578
  766MOL0     C 3280   3.351   5.733   0.416 -0.1776  1.0463 -0.0086
  766MOL0     C 3281   3.251   5.668   0.502 -0.2053 -0.8659  0.4500
  766MOL0     C 3282   3.276   5.547   0.570 -0.8963  0.0939  0.8254
  766MOL0     O 3283   3.177   5.486   0.638  0.6301 -0.7513  0.7319
  766MOL0     C 3284   3.154   5.353   0.587  0.8825 -0.3160 -0.0138
  766MOL0     C 3285   3.010   5.308   0.620 -0.1941  0.7570  0.8834
  766MOL0     C 3286   3.014   5.279   0.767  0.5519 -0.4906  0.5463
  766MOL0     C 3287   3.073   5.140   0.810  0.7897 -0.3833 -1.0638
  766MOL0     C 3288   3.042   5.116   0.957  0.1854  0.4226 -0.7647
  766MOL0     C 3289   3.145   5.179   1.052 -0.6648 -0.3483 -0.8386
  766MOL0     C 3290   3.149   5.102   1.183 -0.5552 -0.5193  0.5158
  766MOL0     C 3291   3.277   5.133   1.273  1.0306 -0.4904  0.2131
  766MOL0     N 3292   3.324   5.273   1.264  0.1797  0.8006  0.3432
  766MOL0     C 3293   3.266   5.379   1.326  0.9222  0.9712  0.3816
  766MOL0     C 3294   3.332   5.485   1.278  0.6691  0.6312 -0.3919
  766MOL0     C 3295   3.305   5.624   1.314 -0.8070 -0.5393 -0.6065
  766MOL0     C 3296   3.285   5.716   1.194  0.5735  0.0909 -0.2692
  766MOL0     C 3297   3.163   5.675   1.113  0.0564  0.5437 -0.1835
  766MOL0     C 3298   3.196   5.633   0.973  0.1611 -0.4254  0.4619
  766MOL0     O 3299   3.251   5.753   0.905  1.0181 -0.1750  0.2116
  766MOL0     C 3300   3.369   5.759   0.845  0.0067  0.2351 -0.4709
  766MOL0     C 3301   3.391   5.880   0.783 -0.9266  1.0021  0.3049
  766MOL0     C 3302   3.511   5.894   0.707  0.1660 -0.3136 -0.1013
  766MOL0     C 3303   3.615   5.801   0.698  0.1738 -0.0104 -0.5329
  766MOL0     C 3304   3.729   5.834   0.615  0.3574  0.1855  0.4424
  766MOL0     O 3305   3.732   5.950   0.550 -0.0328  0.1548  0.1505
  766MOL0     C 3306   3.837   5.990   0.475  0.1388 -0.0895  0.0665
  766MOL0     C 3307   3.868   6.124   0.470  1.2230 -0.7131  0.3266
  766MOL0     C 3308   3.973   6.177   0.391  0.2643  0.0123  0.2830
  766MOL0     C 3309   4.047   6.092   0.300 -0.5750 -0.0315 -0.6260
  766MOL0     O 3310   4.156   6.130   0.224  0.4823  0.2578 -0.6541
  766MOL0     C 3311   4.192   6.271   0.236 -0.3207 -0.4613  1.1208
  766MOL0     C 3312   4.317   6.284   0.157 -0.5177 -0.3664 -0.2113
  766MOL0     C 3313   4.314   6.236   0.008  0.1508  0.1164 -0.5096
  766MOL0     C 3314   4.463   6.277  -0.048 -0.0672  0.9953 -0.2331
  766MOL0     C 3315   4.475   6.243  -0.198 -0.2544 -0.0301  0.8686
  766MOL0     C 3316   4.456   6.102  -0.242 -0.9465 -0.0121 -0.5782
  766MOL0     C 3317   4.590   6.017  -0.222  0.2364  0.6319 -1.0900
  766MOL0     C 3318   4.698   6.053  -0.327  0.1582 -1.1181  0.0778
  766MOL0    Cl 3319   4.825   5.927  -0.317  0.5041  0.6906  0.1178
  766MOL0     C 3320   4.008   5.957   0.302 -1.2133  0.0359  0.2919
  766MOL0     C 3321   3.900   5.910   0.386 -0.3071  0.0022  0.6644
  766MOL0     O 3322   3.818   5.756   0.608 -0.4838  1.0128 -0.2236
  766MOL0     C 3323   3.601   5.692   0.782 -0.1401 -0.5762  0.0103
  766MOL0     C 3324   3.480   5.671   0.859  0.2734  0.3419  0.4727
  766MOL0     N 3325   3.427   5.451   1.192 -0.1645  0.4199  0.5677
  766MOL0     N 3326   3.418   5.320   1.178  1.1176 -0.2036  1.2774
  766MOL0     C 3327   3.407   5.495   0.564  0.6423 -0.2820  0.0409
  766MOL0     C 3328   3.508   5.551   0.479  0.0277 -1.4626  0.5797
  766MOL0     C 3329   3.703   5.737   0.148 -0.6160  0.2477  0.4447
  766MOL0     C 3330   3.814   5.656   0.120 -0.0995  0.2488  0.3677
  766MOL0     C 3331   3.918   5.702   0.041 -0.4726 -0.2914 -0.0460
  766MOL0     C 3332   3.928   5.829   0.000 -0.0565  0.4535  0.6513
  766MOL0     O 3333   4.014   5.864  -0.102  0.9160 -0.3261  0.0304
  766MOL0     C 3334   4.069   6.002  -0.093  0.6912  0.2264  0.3108
  766MOL0     C 3335   4.021   6.104  -0.198 -0.1427  0.2297  0.0525
  766MOL0     C 3336   4.070   6.077  -0.339  0.7940 -0.5242 -0.2655
  766MOL0     C 3337   4.010   6.203  -0.422 -0.0428 -0.1178 -0.0033
  766MOL0     C 3338   3.863   6.225  -0.426 -0.1658  0.3538 -0.2514
  766MOL0     C 3339   3.748   6.237  -0.459  0.0075 -0.8325  0.4338
  766MOL0     C 3340   3.815   5.917   0.032  0.3103  0.1703  1.1118
  766MOL0     C 3341   3.700   5.869   0.102  0.9250  0.6916 -0.0548
  766MOL0     C 3342   3.575   5.958   0.104  0.0907  0.0985  0.5039
  766MOL0     H 3343   3.336   5.829   0.369  0.1620  0.6645 -0.9265
  766MOL0     H 3344   3.148   5.702   0.502 -0.8182 -2.6226  0.4721
  766MOL0     H 3345   3.154   5.363   0.478  1.1535  1.1260  0.0983
  766MOL0     H 3346   3.236   5.294   0.627  1.5201  0.7620  0.2930
  766MOL0     H 3347   2.967   5.228   0.559  1.1418  1.2198 -0.7500
  766MOL0     H 3348   2.944   5.393   0.601 -0.3342  0.0967 -2.0412
  766MOL0     H 3349   2.911   5.285   0.804  0.0374  2.5043 -1.0127
  766MOL0     H 3350   3.068   5.358   0.819 -0.6266  2.0225 -1.8206
  766MOL0     H 3351   3.014   5.065   0.757  0.3643  0.3784 -1.6891
  766MOL0     H 3352   3.176   5.112   0.787  0.6433 -0.4842 -1.6112
  766MOL0     H 3353   2.943   5.157   0.978  1.8903  5.1143 -0.7737
  766MOL0     H 3354   3.034   5.008   0.968  1.5296  0.2018 -1.6995
  766MOL0     H 3355   3.238   5.198   0.998 -1.2156  2.3346 -1.0214
  766MOL0     H 3356   3.118   5.285   1.063  1.1076 -0.0951  2.1014
  766MOL0     H 3357   3.167   4.996   1.162  1.0599  0.0966 -1.5315
  766MOL0     H 3358   3.062   5.145   1.235 -1.2315  2.5346 -2.7703
  766MOL0     H 3359   3.249   5.117   1.377  2.5496 -2.4805  0.3863
  766MOL0     H 3360   3.360   5.071   1.238  1.1563 -0.4496  0.4395
  766MOL0     H 3361   3.180   5.374   1.392 -0.1946  0.1562 -1.0850
  766MOL0     H 3362   3.211   5.620   1.371 -1.3451  0.2258 -1.4191
  766MOL0     H 3363   3.393   5.655   1.371 -0.2344 -0.2386 -1.6343
  766MOL0     H 3364   3.268   5.819   1.227 -0.6083  0.4995 -2.0159
  766MOL0     H 3365   3.368   5.710   1.123 -2.0137  0.0960 -3.5715
  766MOL0     H 3366   3.087   5.753   1.118 -1.6497 -1.0894  1.1787
  766MOL0     H 3367   3.110   5.595   1.167 -0.0359  0.5535 -0.2580
  766MOL0     H 3368   3.106   5.609   0.917 -1.5124  4.0457  0.8296
  766MOL0     H 3369   3.264   5.548   0.980  2.9539  1.7960  3.8630
  766MOL0     H 3370   3.328   5.963   0.813  1.4326  3.7103 -1.7031
  766MOL0     H 3371   3.531   5.987   0.655  0.0434  0.3783  1.0527
  766MOL0     H 3372   3.822   6.191   0.542  1.2728  2.8085 -2.6123
  766MOL0     H 3373   4.001   6.282   0.393  0.3903 -0.0276  1.7577
  766MOL0     H 3374   4.113   6.341   0.208 -1.9213 -2.1533  1.1934
  766MOL0     H 3375   4.213   6.290   0.342  1.9151 -0.2750  0.6974
  766MOL0     H 3376   4.359   6.385   0.159  1.4201 -1.1252  0.2257
  766MOL0     H 3377   4.386   6.214   0.206 -2.0435 -0.6698  1.6434
  766MOL0     H 3378   4.273   6.135  -0.002 -0.4460  0.4549 -1.7351
  766MOL0     H 3379   4.239   6.302  -0.038 -0.3241 -0.5192 -0.6603
  766MOL0     H 3380   4.537   6.222   0.012  0.2551 -1.8870 -2.9858
  766MOL0     H 3381   4.485   6.384  -0.042  1.1208  0.7200  0.7519
  766MOL0     H 3382   4.569   6.287  -0.232  0.5237 -2.1222  0.1667
  766MOL0     H 3383   4.395   6.304  -0.241  1.4195  1.7865  0.1955
  766MOL0     H 3384   4.366   6.049  -0.212 -0.0943  0.0594  2.3428
  766MOL0     H 3385   4.436   6.113  -0.349  0.0542  0.2612 -0.7508
  766MOL0     H 3386   4.545   5.917  -0.229 -5.6696  2.6317  1.5542
  766MOL0     H 3387   4.615   6.040  -0.118 -1.4877  0.5804 -0.6223
  766MOL0     H 3388   4.656   6.060  -0.428  1.5462  0.2987 -0.4477
  766MOL0     H 3389   4.734   6.156  -0.315  2.8177 -2.1718  1.9501
  766MOL0     H 3390   4.061   5.891   0.234  1.5114  0.1558  2.1461
  766MOL0     H 3391   3.852   5.812   0.384 -0.7678  0.2079 -1.8223
  766MOL0     H 3392   3.682   5.620   0.787 -0.9059 -1.5598 -1.2364
  766MOL0     H 3393   3.472   5.574   0.908 -0.6760 -0.2258 -0.7415
  766MOL0     H 3394   3.434   5.420   0.638 -0.4761 -1.1243 -0.3857
  766MOL0     H 3395   3.612   5.519   0.478  0.8041  0.8586  0.0934
  766MOL0     H 3396   3.813   5.550   0.141  2.8108  0.4888  2.3505
  766MOL0     H 3397   3.993   5.625   0.024 -0.8769 -1.4542  2.7783
  766MOL0     H 3398   4.176   6.004  -0.112  0.6709  0.9857  0.2396
  766MOL0     H 3399   4.036   6.035   0.006 -3.3922 -1.7838 -0.1357
  766MOL0     H 3400   4.067   6.200  -0.174  1.5665 -0.5149 -0.1476
  766MOL0     H 3401   3.912   6.112  -0.209 -0.0713 -0.6849 -1.7544
  766MOL0     H 3402   4.025   5.987  -0.381 -0.7724 -0.5885  1.4157
  766MOL0     H 3403   4.179   6.078  -0.345  1.0556 -2.2960  2.4601
  766MOL0     H 3404   4.058   6.290  -0.376  1.1392 -0.4083 -0.6721
  766MOL0     H 3405   4.053   6.195  -0.522  2.2862 -1.5475  1.0573
  766MOL0     H 3406   3.651   6.264  -0.494 -0.4549 -1.7536  0.9991
  766MOL0     H 3407   3.812   6.021   0.002  0.9899  0.4992  2.1201
  766MOL0     H 3408   3.604   6.049   0.051  3.6556  0.5503  2.8983
  766MOL0     H 3409   3.492   5.912   0.049  2.2973 -1.3118 -1.8557
  766MOL0     H 3410   3.534   5.988   0.201  0.6798 -1.1481  1.1715
  767MOL0     O 3411   0.327   6.449   1.172  0.1678  0.8261  0.5273
  767MOL0     C 3412   0.414   6.384   1.116  0.4706 -0.0083  0.5363
  767MOL0     O 3413   0.484   6.291   1.165 -0.3715 -0.6045  0.0178
  767MOL0     C 3414   0.420   6.215   1.257 -0.8654  0.9015 -0.5723
  767MOL0     C 3415   0.313   6.130   1.228  0.1253 -0.0821 -1.6938
  767MOL0     C 3416   0.270   6.030   1.314 -0.3119  0.8922  1.1790
  767MOL0     C 3417   0.331   6.014   1.437  0.4379  0.9196 -0.2669
  767MOL0     O 3418   0.285   5.917   1.522  0.7695 -0.2015  0.0063
  767MOL0     C 3419   0.290   5.937   1.667  0.0411  0.1141  0.4400
  767MOL0     C 3420   0.401   5.854   1.725  0.8186  0.5279  0.6862
  767MOL0     C 3421   0.363   5.820   1.866 -0.0379  0.3718  0.1618
  767MOL0     C 3422   0.481   5.749   1.937 -0.0180  0.5471 -0.0304
  767MOL0     C 3423   0.449   5.716   2.088  0.2982  0.1451  0.6920
  767MOL0     C 3424   0.474   5.569   2.102  1.2403 -0.4509  0.0421
  767MOL0     C 3425   0.446   5.512   2.237  0.0177 -0.3885 -0.9722
  767MOL0     C 3426   0.489   5.595   2.355  0.0363  0.6404  0.1282
  767MOL0     N 3427   0.476   5.521   2.481 -0.2720 -0.1940  0.0985
  767MOL0     C 3428   0.361   5.476   2.530 -0.4148  0.2189 -0.8493
  767MOL0     C 3429   0.400   5.429   2.647  0.7168  0.1173  0.8563
  767MOL0     C 3430   0.316   5.362   2.754  1.1594 -0.1515 -0.7802
  767MOL0     C 3431   0.224   5.461   2.837 -0.2854 -0.1084 -1.0252
  767MOL0     C 3432   0.108   5.384   2.893  0.0573 -0.2189  0.3874
  767MOL0     C 3433   0.023   5.472   2.987 -0.2542 -0.0374  0.3643
  767MOL0     O 3434  -0.089   5.395   3.035 -0.2644  0.3409 -0.3292
  767MOL0     C 3435  -0.157   5.441   3.146 -0.6668 -0.0452  0.4122
  767MOL0     C 3436  -0.217   5.350   3.231 -0.2347  0.5377  0.0903
  767MOL0     C 3437  -0.240   5.389   3.360 -0.3364 -0.6247  0.4308
  767MOL0     C 3438  -0.219   5.522   3.404  0.5772 -0.4149 -0.3295
  767MOL0     C 3439  -0.241   5.569   3.544 -0.0760 -0.1641 -0.0009
  767MOL0     O 3440  -0.182   5.693   3.575  1.6289  0.1050 -0.1047
  767MOL0     C 3441  -0.217   5.754   3.690  0.2334 -0.4032 -0.8346
  767MOL0     C 3442  -0.353   5.761   3.732  0.2245  1.0609 -0.1452
  767MOL0     C 3443  -0.402   5.825   3.851 -0.2238 -0.3238 -0.1211
  767MOL0     C 3444  -0.302   5.888   3.928  0.1763  0.8345  0.0230
  767MOL0     O 3445  -0.354   5.958   4.037 -0.3801  0.6036 -0.4737
  767MOL0     C 3446  -0.274   6.011   4.146  0.2989  0.1970  0.2385
  767MOL0     C 3447  -0.263   5.906   4.261  0.2155 -0.3345 -0.7926
  767MOL0     C 3448  -0.187   5.777   4.219  0.4147  0.2715 -0.6482
  767MOL0     C 3449  -0.170   5.696   4.339  0.0578 -0.2623 -0.6728
  767MOL0     C 3450  -0.288   5.636   4.408  0.5201  0.2694  0.4059
  767MOL0     C 3451  -0.258   5.553   4.530 -0.4452 -0.2085  0.0147
  767MOL0     C 3452  -0.225   5.630   4.652 -0.5489  0.2996 -1.5478
  767MOL0     C 3453  -0.191   5.557   4.776 -0.2794  0.2981 -0.9529
  767MOL0    Cl 3454  -0.036   5.475   4.779 -0.9011 -0.2635  0.3822
  767MOL0     C 3455  -0.166   5.897   3.885  0.7008  0.0321  0.1488
  767MOL0     C 3456  -0.126   5.823   3.768 -1.3647 -0.5847 -0.2683
  767MOL0     O 3457  -0.303   5.490   3.619 -0.0520 -0.6309  0.7922
  767MOL0     C 3458  -0.185   5.614   3.308  0.4152  0.9221 -0.1135
  767MOL0     C 3459  -0.155   5.575   3.181 -0.3476 -1.0363 -0.3744
  767MOL0     N 3460   0.535   5.439   2.654  0.1994 -0.5093  0.0418
  767MOL0     N 3461   0.583   5.494   2.552 -0.1437 -0.3714  0.2874
  767MOL0     C 3462   0.439   6.096   1.472 -0.3234 -0.7889 -0.2643
  767MOL0     C 3463   0.487   6.191   1.382  0.8376 -0.5331  0.2538
  767MOL0     C 3464   0.421   6.421   0.967  0.1568  0.5329 -0.0331
  767MOL0     C 3465   0.555   6.403   0.912  0.3917  0.5673  0.4680
  767MOL0     C 3466   0.577   6.425   0.774  0.0207 -0.3819 -0.9152
  767MOL0     C 3467   0.475   6.478   0.691  0.2326 -0.4979 -0.4563
  767MOL0     O 3468   0.478   6.507   0.554 -0.7365  0.0881 -0.2122
  767MOL0     C 3469   0.606   6.493   0.490 -0.5646  0.7794  0.0490
  767MOL0     C 3470   0.709   6.611   0.525  0.8992  0.2299  0.3644
  767MOL0     C 3471   0.848   6.617   0.456 -0.2021  0.1153 -0.4220
  767MOL0     C 3472   0.936   6.723   0.522 -0.0761  0.4261 -1.2604
  767MOL0     C 3473   1.036   6.771   0.428 -0.2612  0.2889 -0.0925
  767MOL0     C 3474   1.128   6.804   0.363 -0.3399 -0.9118 -0.2304
  767MOL0     C 3475   0.355   6.498   0.752 -0.4792  0.2819  0.1028
  767MOL0     C 3476   0.316   6.467   0.883  0.1892  0.4880 -0.2089
  767MOL0     C 3477   0.166   6.489   0.917  0.9639 -0.1650  0.8689
  767MOL0     H 3478   0.260   6.149   1.135  0.6523 -0.2182 -2.0263
  767MOL0     H 3479   0.185   5.968   1.289 -0.0483  1.2071 -0.6462
  767MOL0     H 3480   0.298   6.043   1.694 -0.8236  0.2239  0.2871
  767MOL0     H 3481   0.190   5.905   1.698 -0.3283 -3.2861 -3.4040
  767MOL0     H 3482   0.499   5.901   1.732  0.8112  0.2952  3.6398
  767MOL0     H 3483   0.405   5.759   1.671 -0.8468 -0.8769  2.8747
  767MOL0     H 3484   0.272   5.758   1.863  0.9736 -1.1689 -2.3885
  767MOL0     H 3485   0.340   5.912   1.920 -0.9815 -0.4660  1.2488
  767MOL0     H 3486   0.508   5.657   1.884 -0.2360 -1.8341  3.6425
  767MOL0     H 3487   0.569   5.813   1.932  0.1967  0.5714  2.7094
  767MOL0     H 3488   0.514   5.781   2.147  3.1262 -0.1583 -1.8527
  767MOL0     H 3489   0.341   5.732   2.101  0.8315  2.2875  3.4059
  767MOL0     H 3490   0.420   5.507   2.029 -0.3026  2.4872 -1.4674
  767MOL0     H 3491   0.579   5.554   2.074  0.2738 -4.9467 -2.1145
  767MOL0     H 3492   0.479   5.408   2.249 -1.0153 -0.5054  1.2471
  767MOL0     H 3493   0.338   5.496   2.242 -0.1478  1.0311  1.8387
  767MOL0     H 3494   0.590   5.630   2.332  1.0590 -3.3560 -2.3780
  767MOL0     H 3495   0.417   5.678   2.357 -0.8093 -0.0788  0.1682
  767MOL0     H 3496   0.259   5.482   2.493 -0.4209 -1.3437 -1.1490
  767MOL0     H 3497   0.250   5.293   2.700  0.3603 -1.5749  1.8362
  767MOL0     H 3498   0.379   5.297   2.816 -1.5542 -0.4391  1.9061
  767MOL0     H 3499   0.278   5.514   2.916 -0.3233  0.3981 -1.3372
  767MOL0     H 3500   0.186   5.535   2.766 -1.9197 -0.3997 -0.4936
  767MOL0     H 3501   0.141   5.295   2.947 -0.9248 -0.3516  0.7985
  767MOL0     H 3502   0.051   5.345   2.808 -0.4988  0.6226  0.3524
  767MOL0     H 3503  -0.012   5.561   2.932 -1.8054 -0.6148  0.3679
  767MOL0     H 3504   0.082   5.495   3.076 -0.3791  1.6768  0.0516
  767MOL0     H 3505  -0.242   5.248   3.201 -0.8678 -0.0087  2.2657
  767MOL0     H 3506  -0.277   5.306   3.420  1.9795 -2.3895 -0.4258
  767MOL0     H 3507  -0.426   5.709   3.670  2.4054 -2.2098 -0.2427
  767MOL0     H 3508  -0.506   5.825   3.882 -1.9956 -2.6994 -5.0065
  767MOL0     H 3509  -0.175   6.046   4.114  0.8642 -2.7386 -1.5971
  767MOL0     H 3510  -0.315   6.108   4.177  1.4200  0.5095  0.8137
  767MOL0     H 3511  -0.210   5.963   4.338 -1.9138  0.4474  0.1644
  767MOL0     H 3512  -0.363   5.893   4.304  0.4041  0.2155 -0.1853
  767MOL0     H 3513  -0.242   5.726   4.140 -4.0522 -0.5756  2.6143
  767MOL0     H 3514  -0.086   5.791   4.179  0.8409 -4.6007 -1.9617
  767MOL0     H 3515  -0.118   5.755   4.416  1.3493 -2.6707  0.4020
  767MOL0     H 3516  -0.107   5.608   4.323 -0.5910 -0.4272 -2.5719
  767MOL0     H 3517  -0.322   5.558   4.340  1.9640 -0.8484  0.9226
  767MOL0     H 3518  -0.365   5.713   4.424  2.6755  2.6609 -0.0241
  767MOL0     H 3519  -0.353   5.503   4.552 -0.3551 -0.6772 -0.6450
  767MOL0     H 3520  -0.170   5.491   4.513 -0.9727 -0.7138 -0.9394
  767MOL0     H 3521  -0.314   5.690   4.670 -0.7947  0.2396 -2.5203
  767MOL0     H 3522  -0.146   5.703   4.632 -0.7943  0.3549 -2.3439
  767MOL0     H 3523  -0.194   5.625   4.862 -1.6635  1.4649 -1.8729
  767MOL0     H 3524  -0.275   5.495   4.809 -0.6992  1.3581  0.0528
  767MOL0     H 3525  -0.096   5.967   3.929  1.5953 -3.2000  4.6303
  767MOL0     H 3526  -0.020   5.828   3.744 -2.0208  1.2653 -3.2317
  767MOL0     H 3527  -0.155   5.714   3.335  2.6891  0.2189  0.1929
  767MOL0     H 3528  -0.114   5.645   3.110 -0.5369 -2.5256 -2.0155
  767MOL0     H 3529   0.488   6.091   1.569  2.2795  0.2748 -1.4387
  767MOL0     H 3530   0.582   6.241   1.399  1.0301 -0.6725 -0.3864
  767MOL0     H 3531   0.635   6.363   0.974  0.0435  2.6035  2.3412
  767MOL0     H 3532   0.677   6.403   0.739  0.4773  1.0894 -0.6003
  767MOL0     H 3533   0.578   6.491   0.385 -1.1573  1.0010  0.1982
  767MOL0     H 3534   0.650   6.397   0.520 -2.3158 -0.2431 -0.5471
  767MOL0     H 3535   0.731   6.609   0.632 -2.6985  1.8404  1.3062
  767MOL0     H 3536   0.658   6.707   0.515 -1.3800 -0.6143  2.8501
  767MOL0     H 3537   0.837   6.632   0.348  0.2789  1.5850 -0.2802
  767MOL0     H 3538   0.886   6.515   0.464  1.5885  0.7600 -0.4149
  767MOL0     H 3539   0.881   6.812   0.553  1.7119  1.7859 -1.8525
  767MOL0     H 3540   0.980   6.672   0.609 -1.6364  0.1467 -0.5996
  767MOL0     H 3541   1.209   6.839   0.303 -0.5909  0.7054  0.3535
  767MOL0     H 3542   0.289   6.538   0.676  0.9173 -1.3896 -2.1015
  767MOL0     H 3543   0.129   6.396   0.961 -2.0353 -0.6311 -2.2235
  767MOL0     H 3544   0.149   6.590   0.957 -0.2291  1.3592 -2.9892
  767MOL0     H 3545   0.115   6.492   0.820  0.7738 -3.3215  0.7845
  768MOL0     O 3546   3.963   6.812   5.680  0.4992 -0.1274  1.0409
  768MOL0     C 3547   3.904   6.727   5.739  0.4523 -0.2880 -0.3336
  768MOL0     O 3548   3.829   6.738   5.852 -0.2123 -0.1010 -0.1067
  768MOL0     C 3549   3.838   6.852   5.915 -0.2915 -0.5934 -1.0792
  768MOL0     C 3550   3.751   6.954   5.894 -0.0558  0.4905  0.1211
  768MOL0     C 3551   3.758   7.082   5.968 -0.5127 -0.1060 -0.2676
  768MOL0     C 3552   3.847   7.092   6.073 -0.2277  0.8377  0.1563
  768MOL0     O 3553   3.868   7.204   6.149  1.1622  0.4768 -0.0296
  768MOL0     C 3554   3.752   7.272   6.201  0.5362  0.4269  0.5908
  768MOL0     C 3555   3.784   7.398   6.286  0.3633 -0.3449 -0.4123
  768MOL0     C 3556   3.660   7.452   6.340 -0.5702  0.5719 -0.3259
  768MOL0     C 3557   3.685   7.595   6.389 -0.2375 -0.0712 -0.4256
  768MOL0     C 3558   3.576   7.698   6.364 -0.0967 -0.3807 -0.0772
  768MOL0     C 3559   3.586   7.740   6.205  0.2568 -0.4132 -0.1609
  768MOL0     C 3560   3.684   7.842   6.162 -0.3643 -0.3906  0.5370
  768MOL0     C 3561   3.711   7.832   6.006 -0.6906 -0.2746 -0.7013
  768MOL0     N 3562   3.791   7.714   5.972  0.3111 -0.7554  0.5140
  768MOL0     C 3563   3.933   7.697   5.985  0.8845  0.1409 -0.1833
  768MOL0     C 3564   3.948   7.562   5.973 -0.1783  0.7428  0.5293
  768MOL0     C 3565   4.084   7.493   5.982 -0.9392  1.0472  0.1991
  768MOL0     C 3566   4.194   7.559   5.896 -0.0749 -0.4517 -0.4923
  768MOL0     C 3567   4.315   7.467   5.858 -0.1973  0.7352 -0.1378
  768MOL0     C 3568   4.420   7.522   5.774  1.0956 -0.4267 -0.1262
  768MOL0     O 3569   4.484   7.423   5.694  0.4572 -0.0476 -0.5632
  768MOL0     C 3570   4.616   7.429   5.647 -0.4019  0.0986 -0.0611
  768MOL0     C 3571   4.673   7.317   5.583 -0.0341  0.3247 -0.3923
  768MOL0     C 3572   4.807   7.302   5.549 -0.4386 -0.2164  0.0117
  768MOL0     C 3573   4.892   7.408   5.562 -0.2224  0.6489  0.1898
  768MOL0     C 3574   5.031   7.391   5.523 -0.5120  0.8560 -1.6111
  768MOL0     O 3575   5.095   7.269   5.543 -0.7682 -0.2437  0.6112
  768MOL0     C 3576   5.220   7.260   5.495 -0.2838  0.2833 -0.0860
  768MOL0     C 3577   5.326   7.298   5.574  0.3479 -0.3210 -0.5314
  768MOL0     C 3578   5.457   7.279   5.526 -0.6533  0.7630  1.3426
  768MOL0     C 3579   5.492   7.222   5.402 -0.6122  1.0620 -0.0465
  768MOL0     O 3580   5.623   7.202   5.363  0.1836 -0.3781  0.4089
  768MOL0     C 3581   5.643   7.128   5.238  0.5377 -0.9661  0.0389
  768MOL0     C 3582   5.793   7.137   5.208 -0.8001  0.8762 -0.5634
  768MOL0     C 3583   5.834   7.059   5.073 -0.2634 -0.0953 -1.3855
  768MOL0     C 3584   5.819   6.908   5.106  0.3064 -1.0523  0.7284
  768MOL0     C 3585   5.863   6.821   4.994 -0.2201 -0.0977  0.8209
  768MOL0     C 3586   6.016   6.793   4.975  0.8950 -0.7829  0.0374
  768MOL0     C 3587   6.041   6.687   4.857  0.2190 -0.2021  0.9981
  768MOL0     C 3588   5.964   6.709   4.719  0.1446  0.7088 -0.1482
  768MOL0    Cl 3589   5.962   6.886   4.653  0.0738 -0.1588 -0.1403
  768MOL0     C 3590   5.380   7.195   5.323  0.1417 -0.3073  1.1160
  768MOL0     C 3591   5.248   7.210   5.372 -0.7526  0.5807  0.5726
  768MOL0     O 3592   5.087   7.492   5.490 -0.2231  0.1929 -0.1185
  768MOL0     C 3593   4.839   7.534   5.618  0.7021  0.4149 -0.2094
  768MOL0     C 3594   4.708   7.535   5.669 -0.8427 -0.6255 -0.0876
  768MOL0     N 3595   3.837   7.516   5.909 -0.4195  0.3587 -0.0798
  768MOL0     N 3596   3.740   7.603   5.912  0.9268  0.9708 -0.4528
  768MOL0     C 3597   3.929   6.980   6.097  0.0655  0.7333  0.6865
  768MOL0     C 3598   3.931   6.867   6.020  0.3292  0.4118 -0.5199
  768MOL0     C 3599   3.891   6.587   5.683  0.2845  0.0167 -0.6740
  768MOL0     C 3600   3.776   6.513   5.726  0.2642  0.4583  0.8035
  768MOL0     C 3601   3.742   6.397   5.649 -0.0887  0.2840  0.5653
  768MOL0     C 3602   3.823   6.347   5.545  1.1866 -0.0884 -0.4032
  768MOL0     O 3603   3.776   6.248   5.468 -0.5488 -0.5793  0.9513
  768MOL0     C 3604   3.807   6.122   5.525 -0.0433 -0.0074  0.3038
  768MOL0     C 3605   3.697   6.029   5.474  1.0209 -0.0270  0.2440
  768MOL0     C 3606   3.692   5.885   5.535  0.4659  0.7623  0.4943
  768MOL0     C 3607   3.589   5.790   5.478 -0.6207  0.0410  0.1059
  768MOL0     C 3608   3.456   5.826   5.501 -0.0619 -0.1644  0.0650
  768MOL0     C 3609   3.330   5.832   5.507 -1.0264  0.6662 -0.5232
  768MOL0     C 3610   3.945   6.407   5.522  0.8596  1.1673 -0.5281
  768MOL0     C 3611   3.985   6.516   5.603 -0.0743 -0.2596  0.0585
  768MOL0     C 3612   4.115   6.570   5.572  0.6250 -0.3036  0.0429
  768MOL0     H 3613   3.686   6.952   5.807 -1.2324  3.7257  0.7774
  768MOL0     H 3614   3.687   7.162   5.947 -0.2515  0.1741 -0.0971
  768MOL0     H 3615   3.691   7.305   6.116 -0.3570 -1.2444  0.5470
  768MOL0     H 3616   3.694   7.208   6.267 -0.5193  3.9711  3.4264
  768MOL0     H 3617   3.822   7.476   6.220 -0.4610  0.4971  0.0955
  768MOL0     H 3618   3.854   7.382   6.369 -1.2429 -4.2308  0.4277
  768MOL0     H 3619   3.618   7.387   6.418  0.5904  0.8944  0.6026
  768MOL0     H 3620   3.586   7.463   6.260 -2.1084 -0.5244  0.8578
  768MOL0     H 3621   3.711   7.602   6.495  0.7224  1.4748 -0.7307
  768MOL0     H 3622   3.772   7.639   6.340 -0.4120  3.2398  1.8352
  768MOL0     H 3623   3.484   7.649   6.397  1.2219 -1.3432  2.4193
  768MOL0     H 3624   3.591   7.785   6.428  0.3107  1.3415 -2.3818
  768MOL0     H 3625   3.599   7.658   6.134 -0.6829  1.5452 -2.7585
  768MOL0     H 3626   3.488   7.771   6.168  1.5971 -0.7547 -4.5026
  768MOL0     H 3627   3.774   7.829   6.222 -0.8794 -0.0452  1.4103
  768MOL0     H 3628   3.655   7.947   6.165  1.4466  0.5178 -4.6065
  768MOL0     H 3629   3.625   7.828   5.937 -0.7924 -2.4019 -0.5259
  768MOL0     H 3630   3.774   7.916   5.977 -1.0049  0.1618 -0.1436
  768MOL0     H 3631   4.008   7.766   6.020  1.1285  0.1649 -0.7344
  768MOL0     H 3632   4.110   7.480   6.088  4.6376  2.0025 -0.7496
  768MOL0     H 3633   4.055   7.393   5.948 -0.2338  0.7392  0.4778
  768MOL0     H 3634   4.159   7.592   5.798 -0.6278  0.8814  0.1125
  768MOL0     H 3635   4.234   7.646   5.949 -1.3691 -1.1814  1.8390
  768MOL0     H 3636   4.275   7.376   5.813  2.2700 -1.8829  2.4335
  768MOL0     H 3637   4.354   7.447   5.959 -0.0239 -0.8080 -0.4824
  768MOL0     H 3638   4.493   7.577   5.833 -0.5408  0.6244  1.0205
  768MOL0     H 3639   4.372   7.598   5.711  0.5804  0.9524  1.8376
  768MOL0     H 3640   4.603   7.235   5.573  0.8627 -0.4828 -0.2237
  768MOL0     H 3641   4.845   7.213   5.501 -0.6554 -0.0755 -0.4218
  768MOL0     H 3642   5.325   7.331   5.678  4.2267  0.4625 -0.5959
  768MOL0     H 3643   5.535   7.318   5.591 -0.3890 -1.5644  2.5071
  768MOL0     H 3644   5.594   7.031   5.238 -1.1273 -0.1573 -0.7444
  768MOL0     H 3645   5.596   7.184   5.157 -0.0275  0.6745  1.4456
  768MOL0     H 3646   5.820   7.242   5.213 -2.5814  1.3090  2.2103
  768MOL0     H 3647   5.844   7.081   5.287  0.6808  2.0711 -0.6478
  768MOL0     H 3648   5.759   7.103   5.006 -1.9823  1.1204  1.2016
  768MOL0     H 3649   5.940   7.082   5.058 -0.5644  2.3029 -0.3892
  768MOL0     H 3650   5.715   6.886   5.132 -0.0647 -1.7300 -1.1842
  768MOL0     H 3651   5.870   6.873   5.196 -0.2977 -0.4889  1.3011
  768MOL0     H 3652   5.822   6.865   4.902  0.0388 -0.8782  0.3199
  768MOL0     H 3653   5.801   6.731   4.992 -2.3361  1.2917 -0.3820
  768MOL0     H 3654   6.070   6.886   4.953 -1.9023  1.4656  1.9357
  768MOL0     H 3655   6.059   6.762   5.071  0.1396  0.7882  0.9385
  768MOL0     H 3656   6.021   6.585   4.890 -1.4045  0.1843  1.3078
  768MOL0     H 3657   6.148   6.684   4.835 -0.2636 -0.3689 -1.6048
  768MOL0     H 3658   6.000   6.637   4.646  0.1384 -0.3154  0.8362
  768MOL0     H 3659   5.858   6.687   4.736  0.7554 -1.8721  0.7469
  768MOL0     H 3660   5.383   7.152   5.224 -0.2004 -3.6193  2.3951
  768MOL0     H 3661   5.162   7.180   5.312 -0.1873 -1.4759  0.7210
  768MOL0     H 3662   4.920   7.605   5.631  1.8648 -0.8145 -0.5373
  768MOL0     H 3663   4.671   7.631   5.706 -0.0455  0.0444 -0.9731
  768MOL0     H 3664   4.004   6.985   6.175  0.6071 -1.6344  0.3975
  768MOL0     H 3665   3.992   6.779   6.038  0.8777  0.7543 -0.6874
  768MOL0     H 3666   3.729   6.539   5.820 -0.9298  1.5865 -0.0722
  768MOL0     H 3667   3.650   6.346   5.677 -0.7535  0.2997 -1.4194
  768MOL0     H 3668   3.805   6.127   5.635  1.7064 -0.6067  0.3840
  768MOL0     H 3669   3.906   6.089   5.493 -1.3076 -5.2729  0.9981
  768MOL0     H 3670   3.702   6.021   5.365  0.0030  2.2312 -0.0296
  768MOL0     H 3671   3.600   6.078   5.490  1.2619  0.7710 -0.6602
  768MOL0     H 3672   3.678   5.882   5.644 -1.1109 -1.6420  0.2939
  768MOL0     H 3673   3.787   5.837   5.510  0.3223  0.9626 -0.4606
  768MOL0     H 3674   3.605   5.788   5.369  0.5766 -2.1209  0.2694
  768MOL0     H 3675   3.601   5.686   5.509  0.3613 -0.8608 -2.8887
  768MOL0     H 3676   3.225   5.816   5.521 -1.0191 -0.2678 -1.4001
  768MOL0     H 3677   4.012   6.344   5.464 -3.0174 -3.6856 -0.3382
  768MOL0     H 3678   4.190   6.492   5.558 -0.7259 -1.7399  0.5141
  768MOL0     H 3679   4.116   6.634   5.483 -3.8263 -0.2038 -0.1381
  768MOL0     H 3680   4.146   6.628   5.659 -4.4843 -2.2386  3.6289
  769MOL0     O 3681   8.905   4.583   3.370 -0.4494 -0.3381  0.1864
  769MOL0     C 3682   8.935   4.473   3.421 -1.0322 -1.1987 -0.0538
  769MOL0     O 3683   9.057   4.410   3.403  0.4638  0.2319  0.4610
  769MOL0     C 3684   9.173   4.484   3.377  0.6025  0.1108  0.0581
  769MOL0     C 3685   9.182   4.561   3.261 -0.2287  0.5118 -0.2026
  769MOL0     C 3686   9.309   4.619   3.236 -0.8287 -0.0245 -0.1952
  769MOL0     C 3687   9.416   4.616   3.324  0.1190  0.3502  0.0744
  769MOL0     O 3688   9.542   4.672   3.293  0.0691 -0.2079  0.1569
  769MOL0     C 3689   9.606   4.740   3.393 -0.2394 -0.5068 -0.1045
  769MOL0     C 3690   9.718   4.659   3.463 -0.5526  0.9673  0.1674
  769MOL0     C 3691   9.816   4.742   3.551  0.5176  0.3536 -0.4489
  769MOL0     C 3692   9.901   4.838   3.474 -0.3598 -0.4678 -0.1923
  769MOL0     C 3693   9.985   4.768   3.364  0.2303 -0.2321  0.0553
  769MOL0     C 3694  10.059   4.640   3.410  0.1725  0.0002 -0.5454
  769MOL0     C 3695  10.127   4.583   3.287  0.4978 -0.1313 -0.0826
  769MOL0     C 3696  10.201   4.460   3.326 -0.3682  0.4302 -0.4145
  769MOL0     N 3697  10.308   4.468   3.424 -0.4954 -0.4974  0.2711
  769MOL0     C 3698  10.294   4.465   3.560  0.1383  0.0226  1.1031
  769MOL0     C 3699  10.421   4.446   3.606 -1.2547  0.6195  0.7771
  769MOL0     C 3700  10.477   4.447   3.749 -0.7842  0.4188  0.6606
  769MOL0     C 3701  10.485   4.308   3.813  0.5356 -0.3909  0.3038
  769MOL0     C 3702  10.620   4.243   3.797  0.0218 -0.2325 -0.0090
  769MOL0     C 3703  10.646   4.147   3.913 -0.8149 -0.3129 -0.2245
  769MOL0     O 3704  10.639   4.210   4.047 -0.0694  0.6383 -0.3066
  769MOL0     C 3705  10.706   4.143   4.147  0.3348 -0.7406  0.4118
  769MOL0     C 3706  10.746   4.222   4.253 -0.6451 -0.2649 -1.5200
  769MOL0     C 3707  10.804   4.162   4.369 -0.0182 -0.1238  0.4079
  769MOL0     C 3708  10.839   4.021   4.359 -0.8751 -0.7145  0.2635
  769MOL0     C 3709  10.915   3.952   4.471  0.4757 -0.3171 -0.9307
  769MOL0     O 3710  10.968   3.835   4.462  0.2385  0.2974  1.1191
  769MOL0     C 3711  11.012   3.774   4.575  0.5375 -0.0416  0.6484
  769MOL0     C 3712  10.933   3.677   4.633  0.0186 -0.0229  0.6274
  769MOL0     C 3713  10.981   3.600   4.739  0.4822  0.2720 -0.5218
  769MOL0     C 3714  11.116   3.623   4.794  0.4685 -1.0723 -0.2303
  769MOL0     O 3715  11.156   3.543   4.902 -0.0889 -0.0258  0.5380
  769MOL0     C 3716  11.068   3.553   5.009 -0.5659 -0.3565  0.1026
  769MOL0     C 3717  11.146   3.555   5.140 -0.5344 -0.0112  0.2206
  769MOL0     C 3718  11.243   3.674   5.149 -0.2035 -0.5837 -0.4003
  769MOL0     C 3719  11.344   3.648   5.262  0.2037  0.6896 -0.3159
  769MOL0     C 3720  11.478   3.719   5.247 -0.1113 -0.6329 -1.1041
  769MOL0     C 3721  11.451   3.868   5.219 -0.6965 -0.8137 -0.6994
  769MOL0     C 3722  11.388   3.939   5.337  0.3347 -0.1488  0.1339
  769MOL0     C 3723  11.478   4.041   5.421  0.3769  0.7759 -0.0272
  769MOL0    Cl 3724  11.428   4.207   5.387 -0.6670 -0.4213  0.0653
  769MOL0     C 3725  11.195   3.721   4.733  0.6357  0.4165  1.2637
  769MOL0     C 3726  11.146   3.794   4.621  0.3827  0.5661  0.4751
  769MOL0     O 3727  10.910   4.015   4.575 -0.4144  0.2406  0.3488
  769MOL0     C 3728  10.813   3.949   4.250 -0.4536  0.0272  0.0338
  769MOL0     C 3729  10.744   4.004   4.144  0.0380  0.1957  0.1972
  769MOL0     N 3730  10.508   4.431   3.496  0.7050  0.6142  0.6739
  769MOL0     N 3731  10.436   4.443   3.396 -0.1735  0.7665  0.7785
  769MOL0     C 3732   9.401   4.549   3.441 -0.3443 -0.4754 -0.2348
  769MOL0     C 3733   9.280   4.470   3.460 -0.6329  0.2332 -0.2776
  769MOL0     C 3734   8.816   4.402   3.481  0.4307 -0.2363 -0.7678
  769MOL0     C 3735   8.816   4.259   3.466  0.0264 -0.3385  0.1780
  769MOL0     C 3736   8.703   4.182   3.491  0.7531 -0.4239 -0.2788
  769MOL0     C 3737   8.579   4.240   3.530  0.1338 -0.7023  0.2281
  769MOL0     O 3738   8.456   4.181   3.535 -0.0044 -0.1057 -0.0183
  769MOL0     C 3739   8.447   4.056   3.598 -0.4459 -0.1600  0.4006
  769MOL0     C 3740   8.323   4.041   3.678  0.0606 -0.5668 -0.3082
  769MOL0     C 3741   8.232   3.929   3.617 -0.5729  0.1993  0.4074
  769MOL0     C 3742   8.093   3.925   3.671 -0.4686 -0.0768  0.5815
  769MOL0     C 3743   8.027   3.793   3.661 -0.9762 -0.6067 -0.7505
  769MOL0     C 3744   7.965   3.696   3.629  0.4642  0.2665  1.2718
  769MOL0     C 3745   8.584   4.380   3.547 -0.3047  0.7759 -0.0641
  769MOL0     C 3746   8.697   4.462   3.528  0.7175 -0.1379 -0.0162
  769MOL0     C 3747   8.681   4.612   3.557 -0.5168  0.0019 -0.6343
  769MOL0     H 3748   9.094   4.557   3.197 -1.7771 -0.7486  1.8832
  769MOL0     H 3749   9.310   4.693   3.157 -2.9168  0.3369  0.0647
  769MOL0     H 3750   9.648   4.835   3.359  0.0025  0.1205  1.8249
  769MOL0     H 3751   9.528   4.760   3.467  2.4187  2.8348  2.0941
  769MOL0     H 3752   9.772   4.598   3.390  1.1435 -0.4248  2.4363
  769MOL0     H 3753   9.679   4.581   3.530 -0.8943 -1.0324 -2.1976
  769MOL0     H 3754   9.879   4.669   3.603  0.8543  1.8828  1.3863
  769MOL0     H 3755   9.767   4.800   3.630 -0.1288  1.5976 -1.7162
  769MOL0     H 3756   9.840   4.917   3.429 -1.2893 -1.8039 -1.3700
  769MOL0     H 3757   9.971   4.880   3.546 -0.4002  0.6103 -0.7533
  769MOL0     H 3758   9.917   4.734   3.285 -0.3752  0.8041  0.1136
  769MOL0     H 3759  10.056   4.840   3.323 -1.5830  2.4475  1.3792
  769MOL0     H 3760  10.131   4.665   3.489  0.8178 -3.4703  0.1435
  769MOL0     H 3761   9.991   4.568   3.457  0.0399  1.5728  1.9023
  769MOL0     H 3762  10.189   4.657   3.237 -1.6436  1.0006 -1.2240
  769MOL0     H 3763  10.049   4.557   3.214 -0.2891 -1.5373  1.1847
  769MOL0     H 3764  10.130   4.386   3.363 -0.3470  0.1032 -1.0249
  769MOL0     H 3765  10.231   4.426   3.226 -1.0544  2.3990 -1.3449
  769MOL0     H 3766  10.203   4.479   3.616 -0.9069 -3.0020  0.3520
  769MOL0     H 3767  10.576   4.494   3.755  0.6230 -1.4466 -3.6686
  769MOL0     H 3768  10.409   4.511   3.805  0.7268  3.7901 -1.0535
  769MOL0     H 3769  10.453   4.317   3.917 -3.3853 -1.0880 -0.6724
  769MOL0     H 3770  10.416   4.241   3.760  1.9987 -0.8101 -1.1304
  769MOL0     H 3771  10.700   4.318   3.787 -2.3914  2.6051  0.6003
  769MOL0     H 3772  10.625   4.180   3.707  0.2920 -1.3990  0.8033
  769MOL0     H 3773  10.741   4.096   3.894 -0.7798 -1.4987  2.5536
  769MOL0     H 3774  10.572   4.067   3.915  0.0776 -1.1562  1.8863
  769MOL0     H 3775  10.729   4.329   4.257  1.2420  0.0630  2.0218
  769MOL0     H 3776  10.834   4.218   4.457 -1.1487 -0.8400  1.2741
  769MOL0     H 3777  10.830   3.662   4.599  0.5065  0.5729 -1.2374
  769MOL0     H 3778  10.920   3.529   4.794 -1.5656  1.0822 -1.6373
  769MOL0     H 3779  11.014   3.648   5.017  2.5251  1.4657  1.3119
  769MOL0     H 3780  10.994   3.474   5.017 -0.7961 -0.0593  1.1083
  769MOL0     H 3781  11.088   3.578   5.230  1.8416  0.4085  1.7183
  769MOL0     H 3782  11.206   3.465   5.151 -1.0654 -0.1928  2.0212
  769MOL0     H 3783  11.290   3.686   5.051 -3.4598  0.6125 -1.9549
  769MOL0     H 3784  11.202   3.775   5.154 -0.0998 -0.6186  2.3274
  769MOL0     H 3785  11.367   3.542   5.264  2.5330  1.1643  1.2726
  769MOL0     H 3786  11.291   3.680   5.352 -0.1818  0.5545 -0.4917
  769MOL0     H 3787  11.542   3.668   5.174 -0.1372 -0.4753 -1.2368
  769MOL0     H 3788  11.529   3.700   5.342 -0.4313 -0.1758 -0.8414
  769MOL0     H 3789  11.549   3.909   5.191 -0.3926 -1.6581 -0.9255
  769MOL0     H 3790  11.393   3.885   5.128 -2.8782 -0.5512  0.6821
  769MOL0     H 3791  11.348   3.870   5.413 -0.1860  1.2791  1.2122
  769MOL0     H 3792  11.309   4.002   5.296  0.5722  0.9193  1.2446
  769MOL0     H 3793  11.460   4.025   5.527 -0.7304 -3.0992 -0.6392
  769MOL0     H 3794  11.586   4.039   5.400  0.7306  1.2206  1.6252
  769MOL0     H 3795  11.290   3.762   4.765 -1.5849  5.7958  2.0541
  769MOL0     H 3796  11.208   3.867   4.569  2.4749 -0.5111  1.3679
  769MOL0     H 3797  10.824   3.841   4.256 -2.0427 -0.2000 -0.6255
  769MOL0     H 3798  10.712   3.940   4.062 -0.1248  0.6045 -0.0570
  769MOL0     H 3799   9.480   4.548   3.516 -0.8432 -0.3958  0.2968
  769MOL0     H 3800   9.271   4.409   3.550  0.4640  0.2946 -0.1188
  769MOL0     H 3801   8.900   4.209   3.419 -0.4056  0.2943 -1.3247
  769MOL0     H 3802   8.712   4.076   3.470  2.0308 -0.1485 -1.1975
  769MOL0     H 3803   8.543   4.031   3.645  0.1137 -1.1826 -1.2139
  769MOL0     H 3804   8.444   3.977   3.523 -2.3129 -2.1373  2.4052
  769MOL0     H 3805   8.271   4.138   3.676  0.6092 -0.1759  1.9768
  769MOL0     H 3806   8.342   4.016   3.783 -0.6205  3.2101  0.8753
  769MOL0     H 3807   8.278   3.833   3.643 -6.2311 -2.8610  0.6647
  769MOL0     H 3808   8.226   3.933   3.507 -3.8656  3.1679  0.5174
  769MOL0     H 3809   8.092   3.950   3.778  2.4909 -1.2148  0.9718
  769MOL0     H 3810   8.031   3.998   3.618 -1.1151 -1.1693 -0.2181
  769MOL0     H 3811   7.911   3.606   3.607  0.4910  0.5595 -0.0870
  769MOL0     H 3812   8.489   4.418   3.582 -1.9977 -1.7805 -1.5739
  769MOL0     H 3813   8.775   4.655   3.591  1.8038 -4.9098  0.0880
  769MOL0     H 3814   8.643   4.659   3.466 -0.9182  1.2048  0.1447
  769MOL0     H 3815   8.618   4.619   3.646  3.5235 -2.2749  2.7645
  770MOL0     O 3816   6.966   8.149   7.170 -0.3114 -0.3546  0.0714
  770MOL0     C 3817   7.072   8.111   7.209 -0.3814  0.0249  0.3595
  770MOL0     O 3818   7.153   8.029   7.140 -0.1761 -0.0194 -0.5217
  770MOL0     C 3819   7.103   7.952   7.041 -0.1931  0.1538  0.4422
  770MOL0     C 3820   7.189   7.908   6.936 -0.0925  0.0962 -0.7675
  770MOL0     C 3821   7.151   7.805   6.842  0.3300  0.9119  1.5443
  770MOL0     C 3822   7.018   7.748   6.845 -0.5682  0.7536 -0.0108
  770MOL0     O 3823   6.985   7.666   6.746 -1.3552 -0.6948 -0.6282
  770MOL0     C 3824   6.889   7.557   6.786 -0.0298 -0.9810  0.0119
  770MOL0     C 3825   6.887   7.448   6.682 -0.1592 -0.4988 -0.5437
  770MOL0     C 3826   7.023   7.362   6.677  0.6123 -0.4357 -0.7907
  770MOL0     C 3827   7.126   7.415   6.589  0.6654 -0.4520  0.3579
  770MOL0     C 3828   7.257   7.334   6.616  0.2986 -0.1265 -0.4398
  770MOL0     C 3829   7.377   7.391   6.545  0.8896  0.7464 -0.9088
  770MOL0     C 3830   7.500   7.305   6.550 -0.3592  0.0265  0.3372
  770MOL0     C 3831   7.609   7.377   6.465  0.2768 -0.4652 -0.1433
  770MOL0     N 3832   7.729   7.295   6.468  0.2041 -1.1645  0.7774
  770MOL0     C 3833   7.756   7.193   6.381  0.3496 -0.1707 -0.1732
  770MOL0     C 3834   7.888   7.163   6.385  0.6188  0.0914  1.2026
  770MOL0     C 3835   7.961   7.054   6.309 -0.0535 -0.3961  1.4790
  770MOL0     C 3836   8.080   7.105   6.234 -0.1836  0.1011 -0.2551
  770MOL0     C 3837   8.029   7.182   6.120 -0.1017 -0.1278  0.3771
  770MOL0     C 3838   8.144   7.237   6.034  0.2635 -0.0149 -0.2500
  770MOL0     O 3839   8.083   7.297   5.921  1.1521  0.5170  0.4855
  770MOL0     C 3840   8.168   7.348   5.826 -1.1096  0.8654  0.9307
  770MOL0     C 3841   8.149   7.341   5.689  0.3268  0.1967  0.4646
  770MOL0     C 3842   8.233   7.402   5.596 -0.0706  0.3057  0.4882
  770MOL0     C 3843   8.349   7.476   5.636  0.2080 -0.4244  0.5193
  770MOL0     C 3844   8.433   7.545   5.541 -0.5644 -0.1889  0.9194
  770MOL0     O 3845   8.557   7.575   5.588  0.4704 -0.2277 -1.0006
  770MOL0     C 3846   8.644   7.605   5.486 -0.3579  0.2892 -0.6424
  770MOL0     C 3847   8.681   7.743   5.468 -0.1177 -0.3624  0.4547
  770MOL0     C 3848   8.785   7.789   5.379 -0.0812 -0.7263 -0.4727
  770MOL0     C 3849   8.849   7.686   5.306 -0.6092  0.3245 -0.4891
  770MOL0     O 3850   8.949   7.699   5.219 -0.3866  0.0502  0.7215
  770MOL0     C 3851   9.012   7.826   5.208 -0.2835  0.1458  0.3477
  770MOL0     C 3852   9.158   7.800   5.184 -1.2345 -1.1559  0.4301
  770MOL0     C 3853   9.183   7.726   5.050  0.1677  0.6586 -0.2775
  770MOL0     C 3854   9.337   7.730   5.024 -0.0281 -0.1474 -0.4412
  770MOL0     C 3855   9.401   7.865   4.984  0.6020 -0.1546 -1.0801
  770MOL0     C 3856   9.357   7.910   4.844  0.7240  0.7309  0.0772
  770MOL0     C 3857   9.433   8.030   4.790 -0.1351 -0.1816  0.0295
  770MOL0     C 3858   9.384   8.067   4.650  0.3249  0.4506  0.2486
  770MOL0    Cl 3859   9.502   8.153   4.556 -0.2442 -0.2490 -0.3839
  770MOL0     C 3860   8.813   7.548   5.325  0.4357  0.0999  0.2543
  770MOL0     C 3861   8.712   7.509   5.420  0.0758  0.5893 -0.8023
  770MOL0     O 3862   8.396   7.561   5.422  0.2652 -0.2278  0.6827
  770MOL0     C 3863   8.373   7.493   5.776 -0.1990 -0.4519  0.5200
  770MOL0     C 3864   8.281   7.429   5.867  0.1683 -0.0430 -0.1141
  770MOL0     N 3865   7.939   7.246   6.479 -1.0020 -0.0587  1.0085
  770MOL0     N 3866   7.844   7.315   6.540  1.1726 -0.3360  0.0719
  770MOL0     C 3867   6.932   7.797   6.948 -0.5806 -0.3859 -0.5783
  770MOL0     C 3868   6.974   7.886   7.043  0.6695 -0.0925 -0.6322
  770MOL0     C 3869   7.123   8.139   7.350  0.3640  0.4986 -0.3705
  770MOL0     C 3870   7.259   8.119   7.386 -0.3583  0.4220  0.0832
  770MOL0     C 3871   7.315   8.150   7.508  0.0849  0.4993  0.1875
  770MOL0     C 3872   7.233   8.205   7.605 -0.0234  0.3098 -0.3869
  770MOL0     O 3873   7.286   8.251   7.726 -0.4673 -0.1628 -0.2410
  770MOL0     C 3874   7.416   8.211   7.778  1.2888 -0.6619 -0.1796
  770MOL0     C 3875   7.512   8.318   7.755 -0.1671 -0.5060  0.2176
  770MOL0     C 3876   7.475   8.458   7.773 -0.6123 -0.0470 -0.1991
  770MOL0     C 3877   7.590   8.560   7.777  0.4190 -0.3833 -0.0262
  770MOL0     C 3878   7.713   8.516   7.838 -0.2230 -0.2113 -0.3635
  770MOL0     C 3879   7.826   8.479   7.883 -0.2604 -0.2389  0.3654
  770MOL0     C 3880   7.098   8.222   7.581  1.1027  1.1660  1.2384
  770MOL0     C 3881   7.043   8.191   7.458  0.0168 -1.1097 -0.2781
  770MOL0     C 3882   6.899   8.216   7.445 -0.7599  0.3385 -0.5757
  770MOL0     H 3883   7.293   7.940   6.930  0.3292 -0.5923  1.7766
  770MOL0     H 3884   7.221   7.776   6.765  0.7193  0.0585  2.2042
  770MOL0     H 3885   6.912   7.522   6.887  1.0275  1.9866  0.8888
  770MOL0     H 3886   6.789   7.603   6.789  0.3087 -0.0469 -1.7918
  770MOL0     H 3887   6.870   7.495   6.585 -0.5483 -0.1472 -0.3074
  770MOL0     H 3888   6.797   7.388   6.698 -0.2698 -0.5809 -1.4095
  770MOL0     H 3889   7.002   7.256   6.660  0.2461 -1.3108  3.7133
  770MOL0     H 3890   7.069   7.356   6.777  1.0980 -0.0720 -0.9848
  770MOL0     H 3891   7.087   7.396   6.489 -0.9627 -0.2285  0.9262
  770MOL0     H 3892   7.139   7.523   6.597 -2.0508 -0.0458  0.0945
  770MOL0     H 3893   7.272   7.330   6.724 -1.7476  1.8475  0.0022
  770MOL0     H 3894   7.250   7.229   6.586  1.3715  0.0079 -1.2402
  770MOL0     H 3895   7.353   7.415   6.441  0.0212  0.0038 -0.8940
  770MOL0     H 3896   7.408   7.488   6.585  2.0592  0.4382 -1.0246
  770MOL0     H 3897   7.476   7.215   6.492  0.2219  0.1051 -0.0314
  770MOL0     H 3898   7.529   7.282   6.653  0.3416 -3.1998 -0.4649
  770MOL0     H 3899   7.575   7.403   6.364 -1.1670  4.8249  1.3830
  770MOL0     H 3900   7.642   7.468   6.515 -1.3614  0.2072 -0.2344
  770MOL0     H 3901   7.680   7.137   6.327 -0.7617  0.8910  0.2274
  770MOL0     H 3902   7.997   6.975   6.375  4.0183  1.5134  1.9008
  770MOL0     H 3903   7.900   7.001   6.236  0.5111 -0.6982  1.2183
  770MOL0     H 3904   8.149   7.152   6.305  0.6432  0.3995 -1.2353
  770MOL0     H 3905   8.143   7.026   6.192  1.2512 -0.1701  2.1897
  770MOL0     H 3906   7.959   7.263   6.142 -1.0546  0.6064 -4.3131
  770MOL0     H 3907   7.976   7.114   6.054 -0.6570 -1.6694  2.3093
  770MOL0     H 3908   8.223   7.169   6.002 -0.3479  0.5559 -3.2524
  770MOL0     H 3909   8.201   7.307   6.096 -1.9580  1.0416  0.7143
  770MOL0     H 3910   8.060   7.281   5.678  0.0791  0.1429  2.3127
  770MOL0     H 3911   8.221   7.390   5.489  2.4430 -0.2717  0.2220
  770MOL0     H 3912   8.623   7.820   5.517 -0.5852 -0.0368 -0.5859
  770MOL0     H 3913   8.809   7.893   5.360  0.4987 -0.4098  1.8054
  770MOL0     H 3914   8.963   7.885   5.130  4.0395  2.2980 -1.0292
  770MOL0     H 3915   9.023   7.879   5.303 -1.3283  0.6233  0.2204
  770MOL0     H 3916   9.202   7.900   5.194 -0.3621 -1.5537  0.5966
  770MOL0     H 3917   9.202   7.734   5.260  0.4297 -0.5019  0.0684
  770MOL0     H 3918   9.148   7.622   5.057 -3.4560  1.6648 -1.0325
  770MOL0     H 3919   9.127   7.772   4.968 -0.6369 -0.9643 -0.6924
  770MOL0     H 3920   9.345   7.654   4.946 -0.7871 -2.6929  1.8272
  770MOL0     H 3921   9.391   7.699   5.114 -2.2287 -0.0047  1.0061
  770MOL0     H 3922   9.509   7.871   4.996  0.4689  3.8990 -0.4301
  770MOL0     H 3923   9.359   7.939   5.053  1.7156 -0.7144  0.2314
  770MOL0     H 3924   9.369   7.829   4.772 -1.5525  0.0774  0.3557
  770MOL0     H 3925   9.255   7.948   4.859  0.4430  0.2753 -0.6132
  770MOL0     H 3926   9.540   8.006   4.785 -0.6919 -3.0818  0.5068
  770MOL0     H 3927   9.421   8.120   4.851 -2.6242 -1.8095  2.1437
  770MOL0     H 3928   9.354   7.978   4.595 -1.7383 -0.2041  2.2560
  770MOL0     H 3929   9.299   8.136   4.662  2.1099  2.4184  2.6485
  770MOL0     H 3930   8.857   7.476   5.256 -0.9251 -0.0147 -0.5234
  770MOL0     H 3931   8.694   7.404   5.445  1.9736  0.4363  0.0489
  770MOL0     H 3932   8.464   7.540   5.811  0.0338 -1.8724  1.9385
  770MOL0     H 3933   8.316   7.445   5.968  2.9487 -1.3124 -0.7506
  770MOL0     H 3934   6.832   7.760   6.968 -0.1905 -0.7577  0.8036
  770MOL0     H 3935   6.911   7.907   7.129  1.3217  3.4779 -0.8905
  770MOL0     H 3936   7.333   8.085   7.314 -1.1561 -0.3638 -0.3880
  770MOL0     H 3937   7.419   8.131   7.533 -0.2883  0.4639  1.8158
  770MOL0     H 3938   7.451   8.115   7.738  0.9237 -0.7484 -0.2964
  770MOL0     H 3939   7.407   8.195   7.886  0.1819  1.5986  0.1068
  770MOL0     H 3940   7.555   8.308   7.655 -1.0487  1.4279 -0.4040
  770MOL0     H 3941   7.586   8.286   7.829 -0.0127  0.4280  0.4876
  770MOL0     H 3942   7.417   8.471   7.864  0.2641  0.9772  0.2282
  770MOL0     H 3943   7.402   8.497   7.702 -1.0213  1.4729  1.0167
  770MOL0     H 3944   7.619   8.577   7.673  0.7759  0.5344  0.2159
  770MOL0     H 3945   7.552   8.657   7.812  0.4939 -0.0954 -0.7204
  770MOL0     H 3946   7.923   8.452   7.918 -0.3730 -2.6640 -0.9683
  770MOL0     H 3947   7.048   8.274   7.663  2.6846  1.1873  2.2428
  770MOL0     H 3948   6.860   8.224   7.546  0.8284  0.3673  0.0579
  770MOL0     H 3949   6.881   8.290   7.367 -2.5557 -2.0899 -2.6558
  770MOL0     H 3950   6.858   8.124   7.401 -0.6390  1.3322 -2.9164
  771MOL0     O 3951   2.477   7.354   1.193 -1.1393 -0.2421  0.5377
  771MOL0     C 3952   2.379   7.417   1.147 -0.1144  0.4570  0.6524
  771MOL0     O 3953   2.337   7.552   1.176  0.5907 -0.1198  0.7807
  771MOL0     C 3954   2.408   7.598   1.284  1.0472  0.0518 -0.3638
  771MOL0     C 3955   2.356   7.598   1.413  0.3850 -0.8677  1.0285
  771MOL0     C 3956   2.429   7.642   1.519 -0.0159 -0.6066 -0.3148
  771MOL0     C 3957   2.561   7.702   1.503 -0.0365  0.3782 -0.5992
  771MOL0     O 3958   2.643   7.757   1.598 -0.4478 -0.9143 -0.2191
  771MOL0     C 3959   2.612   7.744   1.735  0.1658 -0.5784 -0.4018
  771MOL0     C 3960   2.738   7.782   1.804  0.4726 -0.9924 -0.2846
  771MOL0     C 3961   2.752   7.698   1.939 -0.6057  0.3840  0.0738
  771MOL0     C 3962   2.904   7.675   1.969  0.2301  0.0252 -0.5714
  771MOL0     C 3963   2.959   7.539   1.917  0.3368  0.4833 -0.4062
  771MOL0     C 3964   3.109   7.528   1.931  0.1929 -0.6337  0.0979
  771MOL0     C 3965   3.162   7.477   2.067 -0.2885  0.7504 -0.8485
  771MOL0     C 3966   3.105   7.336   2.088 -0.1824  0.2416 -0.5082
  771MOL0     N 3967   3.188   7.252   2.175 -0.7163 -0.0783  1.0675
  771MOL0     C 3968   3.285   7.293   2.262 -1.0517 -0.3292 -0.8490
  771MOL0     C 3969   3.327   7.180   2.318 -0.2904  0.0239 -0.3127
  771MOL0     C 3970   3.434   7.179   2.424 -0.1097  0.0673 -0.3335
  771MOL0     C 3971   3.360   7.171   2.561 -0.2983  0.0224 -0.0021
  771MOL0     C 3972   3.439   7.244   2.668  0.2976 -0.2331 -0.1392
  771MOL0     C 3973   3.366   7.254   2.802  0.3330 -0.2976 -0.1880
  771MOL0     O 3974   3.350   7.117   2.852 -0.1958  0.1443 -0.0195
  771MOL0     C 3975   3.280   7.109   2.962  0.8290 -0.6174 -0.2300
  771MOL0     C 3976   3.322   7.183   3.072 -0.1161  0.6449  0.1516
  771MOL0     C 3977   3.245   7.183   3.187 -0.4025  0.3825  0.2793
  771MOL0     C 3978   3.126   7.118   3.191  0.4085  0.0478 -0.7536
  771MOL0     C 3979   3.039   7.127   3.314 -1.1206 -0.4256  0.6885
  771MOL0     O 3980   3.086   7.213   3.413 -0.2231  0.5921 -0.0916
  771MOL0     C 3981   3.023   7.238   3.538 -0.1215 -0.0793  0.3220
  771MOL0     C 3982   2.888   7.195   3.569 -0.7693 -0.5462 -0.1403
  771MOL0     C 3983   2.825   7.227   3.686 -0.0505  0.0602  0.0776
  771MOL0     C 3984   2.891   7.300   3.781 -0.5814 -1.3105  0.0449
  771MOL0     O 3985   2.839   7.323   3.908  0.6130  0.2615  0.3100
  771MOL0     C 3986   2.697   7.285   3.926 -0.3019 -0.0856 -0.1340
  771MOL0     C 3987   2.655   7.341   4.063 -1.0206  0.3118 -0.6227
  771MOL0     C 3988   2.623   7.498   4.055 -0.1282  0.2486  0.1997
  771MOL0     C 3989   2.701   7.575   4.155 -0.2895  0.0633 -0.5039
  771MOL0     C 3990   2.685   7.723   4.142 -0.4179 -0.4655 -0.3384
  771MOL0     C 3991   2.796   7.794   4.236 -0.2259  0.6458 -0.0369
  771MOL0     C 3992   2.793   7.945   4.226  0.6464 -0.8504  0.0641
  771MOL0     C 3993   2.935   8.003   4.197  0.7526  1.3584 -0.4537
  771MOL0    Cl 3994   2.985   7.972   4.026 -0.7290  0.1947  0.1939
  771MOL0     C 3995   3.020   7.352   3.754 -0.5349  0.0019 -0.2056
  771MOL0     C 3996   3.088   7.323   3.629 -0.3623  0.2462  0.4977
  771MOL0     O 3997   2.948   7.041   3.322 -0.5111  0.7717  0.9644
  771MOL0     C 3998   3.085   7.040   3.077  0.7216 -0.4909 -0.6569
  771MOL0     C 3999   3.157   7.044   2.968 -0.5993  0.0959  0.1574
  771MOL0     N 4000   3.256   7.071   2.255 -0.2058 -0.1295 -0.0035
  771MOL0     N 4001   3.178   7.117   2.175 -0.0028  0.0197  0.7693
  771MOL0     C 4002   2.620   7.679   1.373  0.6121  0.1815  0.5420
  771MOL0     C 4003   2.543   7.637   1.269 -0.0283 -0.4192  0.0662
  771MOL0     C 4004   2.308   7.366   1.031 -1.0122 -0.6545 -1.1062
  771MOL0     C 4005   2.211   7.455   0.983  0.8972 -0.5331  0.3878
  771MOL0     C 4006   2.120   7.398   0.895  0.7862 -0.8173 -0.1322
  771MOL0     C 4007   2.127   7.268   0.850 -0.6255  1.1060 -0.1726
  771MOL0     O 4008   2.026   7.227   0.757  0.1559 -0.8300  0.5317
  771MOL0     C 4009   1.963   7.098   0.756 -0.0932  0.2374 -0.2660
  771MOL0     C 4010   1.857   7.090   0.640 -0.2635 -0.6162 -0.5887
  771MOL0     C 4011   1.807   6.945   0.616  0.4079  0.5136  0.3287
  771MOL0     C 4012   1.709   6.928   0.503  1.0929 -0.9523  0.1467
  771MOL0     C 4013   1.749   6.990   0.373  0.4203  0.3540  0.1250
  771MOL0     C 4014   1.780   7.044   0.266  0.0599 -0.4161 -0.7117
  771MOL0     C 4015   2.217   7.183   0.901  0.7789 -0.3642  0.3775
  771MOL0     C 4016   2.317   7.234   0.983  0.0794  0.8306  0.4393
  771MOL0     C 4017   2.423   7.137   1.036  0.1655 -0.5643  0.4858
  771MOL0     H 4018   2.249   7.581   1.420  0.1943 -0.8925 -1.1811
  771MOL0     H 4019   2.388   7.619   1.616  3.0829  0.0140  1.2711
  771MOL0     H 4020   2.521   7.800   1.754 -2.2283 -4.4054  0.5947
  771MOL0     H 4021   2.589   7.641   1.763 -0.5053 -0.3923 -0.2535
  771MOL0     H 4022   2.740   7.889   1.823  2.4681 -0.8698 -0.9516
  771MOL0     H 4023   2.826   7.750   1.747  0.6677 -0.7794 -0.1044
  771MOL0     H 4024   2.700   7.602   1.937 -2.2973  1.2704  0.3871
  771MOL0     H 4025   2.707   7.759   2.017  0.0995 -0.9219  1.5755
  771MOL0     H 4026   2.963   7.756   1.926  2.6815 -2.0306 -1.3854
  771MOL0     H 4027   2.929   7.686   2.075 -0.7394  2.6501 -0.5486
  771MOL0     H 4028   2.905   7.455   1.961 -0.9747  1.5500  0.0950
  771MOL0     H 4029   2.928   7.535   1.812  0.9545 -1.3681 -0.5385
  771MOL0     H 4030   3.153   7.462   1.856 -1.3482 -1.5687 -0.0202
  771MOL0     H 4031   3.145   7.631   1.923  1.1226 -0.2078  5.7345
  771MOL0     H 4032   3.135   7.543   2.150 -0.1049 -0.8119  0.5359
  771MOL0     H 4033   3.272   7.481   2.065 -0.2517  0.3738 -0.1450
  771MOL0     H 4034   3.015   7.358   2.146  1.1112  1.2131  1.1961
  771MOL0     H 4035   3.087   7.282   1.995 -1.6649  0.5807 -0.4378
  771MOL0     H 4036   3.333   7.388   2.279 -0.0662 -0.7369 -1.3130
  771MOL0     H 4037   3.500   7.093   2.409  1.0156  0.8319  0.1278
  771MOL0     H 4038   3.491   7.272   2.415 -0.8137  0.7664  1.8417
  771MOL0     H 4039   3.261   7.211   2.540  0.3639  0.5521 -2.4527
  771MOL0     H 4040   3.373   7.063   2.578  0.4632  0.0435 -0.3881
  771MOL0     H 4041   3.453   7.342   2.620  0.5462  0.2276  0.8367
  771MOL0     H 4042   3.527   7.181   2.680 -1.5933 -2.5070  3.8878
  771MOL0     H 4043   3.269   7.302   2.788 -0.1293 -1.0737  0.3084
  771MOL0     H 4044   3.430   7.314   2.868  1.6809 -0.5815 -1.1863
  771MOL0     H 4045   3.413   7.240   3.057 -0.6970  0.8223 -3.5397
  771MOL0     H 4046   3.270   7.243   3.273  0.7687 -1.0423  0.9643
  771MOL0     H 4047   2.834   7.131   3.500 -3.4574  0.2447  1.1220
  771MOL0     H 4048   2.723   7.191   3.696  0.1070 -1.8463 -3.4135
  771MOL0     H 4049   2.644   7.334   3.844  1.5797  2.2912 -0.0300
  771MOL0     H 4050   2.690   7.175   3.925  0.2450 -0.1228 -0.2541
  771MOL0     H 4051   2.570   7.281   4.098 -0.9380  0.6763  0.2066
  771MOL0     H 4052   2.730   7.318   4.139 -3.0882  0.6501  1.6465
  771MOL0     H 4053   2.642   7.542   3.957  0.6080 -0.0463  0.2070
  771MOL0     H 4054   2.518   7.515   4.079  0.1073  1.6445  0.3109
  771MOL0     H 4055   2.808   7.551   4.159 -0.4233 -0.3497  2.0171
  771MOL0     H 4056   2.679   7.537   4.255  0.9328 -2.3081 -1.0676
  771MOL0     H 4057   2.585   7.763   4.160 -0.1020  1.1339 -1.8011
  771MOL0     H 4058   2.708   7.773   4.047 -1.4806  1.8323  0.5346
  771MOL0     H 4059   2.780   7.765   4.341 -2.8742 -0.2804 -0.6121
  771MOL0     H 4060   2.894   7.762   4.202 -1.0461  0.1236 -2.0338
  771MOL0     H 4061   2.752   7.989   4.317  0.2938 -1.3474  0.1506
  771MOL0     H 4062   2.728   7.983   4.146  0.9943  3.5833  1.6150
  771MOL0     H 4063   2.943   8.112   4.205  0.2030  1.2484  4.1383
  771MOL0     H 4064   3.003   7.952   4.266  0.1426  2.0326  0.6830
  771MOL0     H 4065   3.057   7.415   3.834  0.1535  0.8348 -1.1553
  771MOL0     H 4066   3.183   7.371   3.611 -0.4889 -0.3327 -2.0414
  771MOL0     H 4067   2.993   6.983   3.080  1.5131 -1.7960 -0.4804
  771MOL0     H 4068   3.117   6.992   2.881 -0.3150 -3.4925  1.9729
  771MOL0     H 4069   2.721   7.710   1.347 -0.0308  0.6218 -1.5830
  771MOL0     H 4070   2.588   7.616   1.173 -0.9286 -3.0624  0.1544
  771MOL0     H 4071   2.173   7.554   1.007  3.2806  1.0452 -1.8063
  771MOL0     H 4072   2.034   7.433   0.839  0.2281 -5.1410 -2.3934
  771MOL0     H 4073   1.911   7.085   0.852  1.5208 -1.1794  0.4714
  771MOL0     H 4074   2.031   7.013   0.755  0.0752  0.3429  0.8313
  771MOL0     H 4075   1.895   7.139   0.549 -1.5759  1.5959 -0.0538
  771MOL0     H 4076   1.774   7.157   0.666  1.0402 -0.3209  3.3548
  771MOL0     H 4077   1.769   6.912   0.713 -0.0600 -0.1158 -0.0624
  771MOL0     H 4078   1.897   6.885   0.598  1.1027  0.1700  4.1795
  771MOL0     H 4079   1.704   6.824   0.472  0.1511 -0.5777 -1.0498
  771MOL0     H 4080   1.611   6.955   0.543  2.0770  0.9782  1.4524
  771MOL0     H 4081   1.814   7.107   0.186  1.8833 -0.7873 -0.2612
  771MOL0     H 4082   2.209   7.081   0.864  0.5104 -0.1540 -0.1504
  771MOL0     H 4083   2.527   7.173   1.037  0.3434 -0.9623  3.0065
  771MOL0     H 4084   2.394   7.111   1.138  0.8086 -1.3661  0.4835
  771MOL0     H 4085   2.419   7.042   0.981 -2.9784  1.6100 -3.5841
  772MOL0     O 4086   2.124   3.757  10.456  0.4110 -0.0439  0.1523
  772MOL0     C 4087   2.197   3.834  10.395  0.0025 -1.5519 -0.0567
  772MOL0     O 4088   2.182   3.972  10.382 -0.2633  0.6024  0.1004
  772MOL0     C 4089   2.084   4.055  10.441  0.6012  0.4966  0.1760
  772MOL0     C 4090   1.964   4.014  10.495 -0.2575 -0.7171 -0.8281
  772MOL0     C 4091   1.865   4.110  10.521 -0.3470 -0.0610  0.1525
  772MOL0     C 4092   1.885   4.244  10.483 -1.0218  0.2380 -0.4885
  772MOL0     O 4093   1.792   4.341  10.521  0.0816 -0.1337 -0.2438
  772MOL0     C 4094   1.656   4.329  10.475  0.0535  0.1093  0.8770
  772MOL0     C 4095   1.582   4.464  10.469 -0.1609 -0.4315 -0.5092
  772MOL0     C 4096   1.662   4.578  10.393  0.2430 -0.4963 -0.6216
  772MOL0     C 4097   1.694   4.535  10.253 -0.3666 -0.4142  0.3943
  772MOL0     C 4098   1.702   4.635  10.137  0.0519 -0.7064  0.2221
  772MOL0     C 4099   1.805   4.751  10.158  0.0923  0.7009 -0.8121
  772MOL0     C 4100   1.783   4.854  10.041  0.1715  0.1455 -0.1445
  772MOL0     C 4101   1.843   4.989  10.086 -0.2642  0.2418  1.3453
  772MOL0     N 4102   1.893   5.055   9.964  0.2880 -0.7934 -0.1634
  772MOL0     C 4103   1.815   5.117   9.872  0.6988  0.6439 -0.1545
  772MOL0     C 4104   1.898   5.169   9.784 -0.0275 -0.6285 -0.6686
  772MOL0     C 4105   1.847   5.240   9.658 -0.2654 -0.3004  0.2612
  772MOL0     C 4106   1.845   5.384   9.688  0.1503  0.5213  0.3021
  772MOL0     C 4107   1.784   5.456   9.566  0.2399  0.3279 -0.1343
  772MOL0     C 4108   1.628   5.450   9.575 -0.0055 -0.4661  0.2643
  772MOL0     O 4109   1.584   5.566   9.631  0.4361  0.2913  0.3049
  772MOL0     C 4110   1.460   5.566   9.693  1.3167 -0.2580 -0.6905
  772MOL0     C 4111   1.359   5.469   9.697 -0.7508 -0.3772 -0.1628
  772MOL0     C 4112   1.228   5.479   9.751  0.1531  0.2905 -0.3611
  772MOL0     C 4113   1.194   5.606   9.805  0.4052  1.0286 -0.5495
  772MOL0     C 4114   1.061   5.639   9.850  0.4018 -0.4013  0.6401
  772MOL0     O 4115   1.041   5.767   9.893  0.4784  0.1428 -0.3280
  772MOL0     C 4116   0.919   5.804   9.949  0.2937 -0.2059  0.6752
  772MOL0     C 4117   0.805   5.794   9.876  0.3601 -0.7642  0.5169
  772MOL0     C 4118   0.678   5.826   9.934 -0.0611  0.1761  0.9417
  772MOL0     C 4119   0.668   5.851  10.067 -0.4112 -1.3335  0.9234
  772MOL0     O 4120   0.537   5.863  10.113  0.6105 -0.3020 -0.7506
  772MOL0     C 4121   0.510   5.958  10.221 -0.3116 -0.3113  0.3081
  772MOL0     C 4122   0.508   5.881  10.358 -0.2098  0.1344  0.0031
  772MOL0     C 4123   0.446   5.977  10.469 -0.2039 -0.6279 -0.2062
  772MOL0     C 4124   0.288   5.986  10.464  1.3581 -0.2383  0.5701
  772MOL0     C 4125   0.223   6.009  10.599 -0.1628 -0.6273  0.5384
  772MOL0     C 4126   0.261   6.141  10.669 -0.5001  0.0911  0.9171
  772MOL0     C 4127   0.207   6.158  10.809  0.3482  0.5495  0.4895
  772MOL0     C 4128   0.059   6.195  10.810  0.2914  0.3880 -1.3130
  772MOL0    Cl 4129   0.000   6.167  10.986  0.3510  0.1113  0.1356
  772MOL0     C 4130   0.787   5.861  10.143  0.5185 -0.0546  0.3245
  772MOL0     C 4131   0.905   5.837  10.086  0.2399 -0.0165  0.4204
  772MOL0     O 4132   0.969   5.561   9.824  0.3239  0.1344  0.6053
  772MOL0     C 4133   1.295   5.701   9.822  0.6138 -0.4354 -0.2222
  772MOL0     C 4134   1.428   5.686   9.765  0.3711 -0.7299 -0.1997
  772MOL0     N 4135   2.022   5.157   9.834  0.4643 -0.0405  0.3085
  772MOL0     N 4136   2.025   5.087   9.944  0.2189  0.2964  0.5203
  772MOL0     C 4137   2.006   4.274  10.415 -0.3493  0.5275  0.4903
  772MOL0     C 4138   2.107   4.176  10.393  0.9422  0.1513  0.5197
  772MOL0     C 4139   2.314   3.777  10.331  0.5471 -0.4477 -0.1820
  772MOL0     C 4140   2.405   3.856  10.257  0.3927 -0.2256 -0.3330
  772MOL0     C 4141   2.525   3.815  10.211 -0.2411 -0.1679 -0.8881
  772MOL0     C 4142   2.567   3.681  10.234 -0.1287 -0.7538 -0.3031
  772MOL0     O 4143   2.692   3.653  10.190 -0.5767 -0.3450 -0.8698
  772MOL0     C 4144   2.743   3.519  10.206 -0.5862 -0.8667  0.6180
  772MOL0     C 4145   2.890   3.517  10.180 -0.2621 -0.1850 -0.1243
  772MOL0     C 4146   2.963   3.628  10.262 -0.2994  0.4045 -0.3674
  772MOL0     C 4147   2.946   3.615  10.420  1.0145 -1.1245  0.1964
  772MOL0     C 4148   2.982   3.481  10.463  0.1759  0.5518 -0.4123
  772MOL0     C 4149   3.009   3.373  10.514  0.6522 -0.3128  0.1657
  772MOL0     C 4150   2.486   3.596  10.314 -0.0210  0.7357 -0.3179
  772MOL0     C 4151   2.366   3.640  10.363  0.2672  1.0117  0.0032
  772MOL0     C 4152   2.294   3.531  10.457 -1.2094  1.0205 -0.1979
  772MOL0     H 4153   1.952   3.907  10.507 -0.0631 -0.9820 -2.7169
  772MOL0     H 4154   1.774   4.080  10.574  0.1006 -1.1364  0.3387
  772MOL0     H 4155   1.643   4.285  10.376  0.9225 -0.3723  0.9686
  772MOL0     H 4156   1.605   4.265  10.549 -2.2625  2.3426  1.3272
  772MOL0     H 4157   1.557   4.507  10.567 -2.5422  0.4853 -1.4372
  772MOL0     H 4158   1.483   4.454  10.422 -0.9714  3.0569  0.1757
  772MOL0     H 4159   1.743   4.619  10.454 -1.4729  0.9672  0.7747
  772MOL0     H 4160   1.599   4.667  10.401 -1.4156 -1.7687  1.6795
  772MOL0     H 4161   1.790   4.483  10.251 -0.2261 -0.2609  2.0313
  772MOL0     H 4162   1.613   4.466  10.229  2.2852 -2.4956 -3.9470
  772MOL0     H 4163   1.726   4.568  10.054 -0.7619 -1.3347  0.4753
  772MOL0     H 4164   1.607   4.687  10.127  0.3618  0.0436  1.0601
  772MOL0     H 4165   1.783   4.787  10.259 -1.6298 -1.9080 -0.1844
  772MOL0     H 4166   1.909   4.718  10.149  0.0568  0.2472  0.2551
  772MOL0     H 4167   1.678   4.861  10.014  0.0223 -0.4838  0.2654
  772MOL0     H 4168   1.834   4.823   9.949 -0.6624  1.0180 -0.9275
  772MOL0     H 4169   1.766   5.052  10.131 -1.7187 -0.2616 -0.3406
  772MOL0     H 4170   1.926   4.978  10.156  1.9571  3.9346 -0.4317
  772MOL0     H 4171   1.706   5.118   9.881  0.4312  1.7588 -2.7585
  772MOL0     H 4172   1.900   5.222   9.564  0.2377  0.3315  0.4138
  772MOL0     H 4173   1.745   5.203   9.651 -0.2208 -0.3376 -0.2282
  772MOL0     H 4174   1.797   5.397   9.785  2.0129  3.2742  0.9449
  772MOL0     H 4175   1.949   5.416   9.692  0.9464 -1.9293  1.2883
  772MOL0     H 4176   1.830   5.404   9.482  2.1974  0.7291  0.6432
  772MOL0     H 4177   1.803   5.563   9.559 -0.0818  0.3915 -0.0486
  772MOL0     H 4178   1.594   5.355   9.619  2.3086 -2.6641 -2.2748
  772MOL0     H 4179   1.590   5.450   9.472 -0.2181 -1.6858  0.3187
  772MOL0     H 4180   1.390   5.371   9.663  2.5437  1.2970 -2.4752
  772MOL0     H 4181   1.155   5.399   9.742 -1.9894  1.7046  2.8700
  772MOL0     H 4182   0.800   5.762   9.773  0.4123  1.6982 -0.3122
  772MOL0     H 4183   0.582   5.815   9.883 -0.4049 -4.4162  2.1411
  772MOL0     H 4184   0.579   6.043  10.222 -0.0989 -0.4842  1.0380
  772MOL0     H 4185   0.409   5.998  10.208 -0.1577  0.3737  1.1169
  772MOL0     H 4186   0.449   5.789  10.349  2.0881 -1.2352 -3.7792
  772MOL0     H 4187   0.608   5.852  10.390  0.9046  1.7321 -1.7604
  772MOL0     H 4188   0.477   5.925  10.561 -0.2195 -0.5278 -0.1435
  772MOL0     H 4189   0.493   6.075  10.472 -0.9566 -0.2788  1.3277
  772MOL0     H 4190   0.235   5.901  10.422 -2.6809  1.6993  1.1652
  772MOL0     H 4191   0.263   6.067  10.394 -2.3391 -0.3422  1.5414
  772MOL0     H 4192   0.233   5.928  10.673  0.7479 -0.7914  0.2492
  772MOL0     H 4193   0.120   6.011  10.564 -0.3985 -0.3117  1.2223
  772MOL0     H 4194   0.370   6.141  10.684 -0.5781 -0.9953  1.6019
  772MOL0     H 4195   0.242   6.231  10.610  0.3097  0.8375  1.7456
  772MOL0     H 4196   0.265   6.241  10.852  2.2210 -0.2485 -0.3685
  772MOL0     H 4197   0.236   6.067  10.862 -1.1227 -1.0822 -1.3434
  772MOL0     H 4198   0.042   6.300  10.783  2.3809  1.1221  0.0098
  772MOL0     H 4199   0.003   6.132  10.741  1.1781 -0.5722 -1.1753
  772MOL0     H 4200   0.781   5.887  10.249  0.9885  0.2107  0.2903
  772MOL0     H 4201   0.990   5.856  10.152  0.6881 -0.5329 -0.0058
  772MOL0     H 4202   1.279   5.799   9.866  1.1117  0.1802 -1.3864
  772MOL0     H 4203   1.491   5.774   9.757 -1.4772  0.5506 -1.3987
  772MOL0     H 4204   2.017   4.377  10.383 -2.5711 -0.3218 -3.7394
  772MOL0     H 4205   2.201   4.204  10.348  3.2000 -4.9473  1.3331
  772MOL0     H 4206   2.381   3.961  10.244 -3.4247 -1.0710 -1.5573
  772MOL0     H 4207   2.600   3.880  10.167 -1.9834  1.0033 -2.2698
  772MOL0     H 4208   2.710   3.443  10.134  1.5225 -0.4163 -0.9040
  772MOL0     H 4209   2.724   3.476  10.305  0.0294  1.8843  2.0210
  772MOL0     H 4210   2.915   3.523  10.074  0.3867 -3.1683 -0.2373
  772MOL0     H 4211   2.917   3.414  10.203 -0.6756 -0.5137 -1.0573
  772MOL0     H 4212   2.923   3.726  10.234  0.7794  1.2245  0.8078
  772MOL0     H 4213   3.071   3.639  10.251  0.0229  0.6284  2.3444
  772MOL0     H 4214   3.014   3.684  10.471 -2.6206 -0.1150  4.2107
  772MOL0     H 4215   2.848   3.637  10.463  1.4246 -1.7755  1.5428
  772MOL0     H 4216   3.044   3.280  10.554  0.3973 -1.3768 -1.9210
  772MOL0     H 4217   2.508   3.492  10.337  0.2687  0.4801 -1.6430
  772MOL0     H 4218   2.357   3.446  10.485 -0.1393  2.0370  0.5601
  772MOL0     H 4219   2.267   3.574  10.554  0.4661 -1.9682  1.7478
  772MOL0     H 4220   2.206   3.483  10.414 -0.7286 -1.5361  1.5016
  773MOL0     O 4221  10.451   9.577   8.681 -0.2480  0.0932  0.6651
  773MOL0     C 4222  10.360   9.648   8.632 -0.3121 -0.1289 -0.1743
  773MOL0     O 4223  10.373   9.774   8.570 -0.3152 -0.2630 -1.0982
  773MOL0     C 4224  10.480   9.777   8.484  0.7618 -0.4598 -0.2516
  773MOL0     C 4225  10.537   9.906   8.472  0.9729  1.0159 -0.8467
  773MOL0     C 4226  10.640   9.932   8.378 -0.3978 -0.2597 -0.6610
  773MOL0     C 4227  10.710   9.826   8.315  0.7182 -0.0829 -0.1119
  773MOL0     O 4228  10.817   9.846   8.232  0.3540 -0.4743  0.7854
  773MOL0     C 4229  10.787   9.918   8.103  1.5987  0.0901  0.0599
  773MOL0     C 4230  10.889   9.921   7.989 -0.7807 -0.2419  0.0918
  773MOL0     C 4231  11.006  10.009   8.039 -0.0483 -0.4002 -0.1754
  773MOL0     C 4232  11.116  10.022   7.933  0.0901  0.7280 -0.5954
  773MOL0     C 4233  11.225  10.123   7.985 -0.3809  0.1993  0.0461
  773MOL0     C 4234  11.363  10.115   7.908 -0.6152  0.3555 -0.6156
  773MOL0     C 4235  11.353  10.111   7.755  1.0719 -0.9420 -0.0928
  773MOL0     C 4236  11.358  10.250   7.688  0.1918 -0.1171  0.6376
  773MOL0     N 4237  11.451  10.222   7.575 -0.2461 -0.7278  0.5340
  773MOL0     C 4238  11.569  10.277   7.556  0.1623  1.0703  0.5486
  773MOL0     C 4239  11.605  10.254   7.428  0.7142 -0.1812 -0.0553
  773MOL0     C 4240  11.727  10.276   7.353  0.6991 -0.0322  0.2578
  773MOL0     C 4241  11.813  10.151   7.308  0.8520  0.1220  0.0691
  773MOL0     C 4242  11.785  10.111   7.158  0.7279 -0.3528 -0.0562
  773MOL0     C 4243  11.833   9.974   7.115 -0.0244 -0.0504  0.0263
  773MOL0     O 4244  11.817   9.962   6.970  0.6746  0.4731 -0.5042
  773MOL0     C 4245  11.933   9.929   6.897  0.7855 -0.0821  0.4484
  773MOL0     C 4246  12.044   9.857   6.955 -0.7081 -0.7869  0.6713
  773MOL0     C 4247  12.171   9.843   6.892 -0.7480  0.1274 -0.3056
  773MOL0     C 4248  12.181   9.897   6.759  0.1285  0.1648 -0.7600
  773MOL0     C 4249  12.315   9.921   6.692 -0.0319 -0.8713 -0.1335
  773MOL0     O 4250  12.407   9.827   6.736 -0.1237 -0.0148  0.3356
  773MOL0     C 4251  12.539   9.855   6.691  0.7882 -0.3953  0.0394
  773MOL0     C 4252  12.580   9.833   6.563 -0.0290 -0.0475  0.3305
  773MOL0     C 4253  12.711   9.870   6.515 -0.1391 -0.2889 -0.1716
  773MOL0     C 4254  12.804   9.905   6.613 -0.6181  1.1186  0.2735
  773MOL0     O 4255  12.933   9.921   6.579 -0.3335 -0.6041 -0.3774
  773MOL0     C 4256  12.983   9.854   6.466  0.2279  0.2123  0.4050
  773MOL0     C 4257  13.132   9.883   6.465 -0.1796  0.4500 -0.2672
  773MOL0     C 4258  13.202   9.855   6.326  1.7311  0.2876 -0.0559
  773MOL0     C 4259  13.178   9.973   6.235 -0.1713  0.1937 -0.6274
  773MOL0     C 4260  13.256   9.956   6.104 -0.3770 -0.2042  0.4401
  773MOL0     C 4261  13.269  10.090   6.017  0.1700  0.0414 -0.1878
  773MOL0     C 4262  13.351  10.045   5.898  0.3645  0.3979 -1.0925
  773MOL0     C 4263  13.338  10.149   5.787 -0.5224 -0.0791 -0.1559
  773MOL0    Cl 4264  13.421  10.309   5.807 -0.3427 -0.2025 -0.3516
  773MOL0     C 4265  12.762   9.931   6.735  0.9867  0.6791 -0.7726
  773MOL0     C 4266  12.627   9.908   6.777  0.3835  0.1539  0.5444
  773MOL0     O 4267  12.330  10.020   6.624 -0.3701 -0.8194 -0.1094
  773MOL0     C 4268  12.063   9.959   6.707  0.0061 -1.2368 -0.6587
  773MOL0     C 4269  11.939   9.980   6.772 -1.0224  0.4544  0.2999
  773MOL0     N 4270  11.506  10.186   7.370  0.3293 -0.1725  0.4659
  773MOL0     N 4271  11.414  10.176   7.452  0.1541 -0.0886 -0.4349
  773MOL0     C 4272  10.658   9.698   8.343  0.2455 -0.4791 -0.1566
  773MOL0     C 4273  10.547   9.674   8.421  0.6765  0.3995  0.1007
  773MOL0     C 4274  10.213   9.615   8.647  0.3441 -0.8044 -0.2082
  773MOL0     C 4275  10.119   9.696   8.577  0.8342 -0.3119  0.5650
  773MOL0     C 4276   9.982   9.675   8.582  0.3396  0.3911  0.0401
  773MOL0     C 4277   9.931   9.557   8.637  0.1909  0.8145 -0.5753
  773MOL0     O 4278   9.793   9.527   8.622 -0.4706  0.3383 -0.2885
  773MOL0     C 4279   9.741   9.395   8.650 -0.7628 -0.1226  0.4387
  773MOL0     C 4280   9.615   9.356   8.591  0.2501  0.6899 -0.2009
  773MOL0     C 4281   9.639   9.367   8.434 -0.2412 -0.1428 -0.1273
  773MOL0     C 4282   9.531   9.303   8.355 -0.1491 -0.6780 -0.1950
  773MOL0     C 4283   9.406   9.389   8.360 -0.3791  0.0952  0.7187
  773MOL0     C 4284   9.318   9.467   8.365  0.4993 -0.0819 -0.8318
  773MOL0     C 4285  10.015   9.476   8.709 -1.3646  0.0372  0.4382
  773MOL0     C 4286  10.156   9.502   8.720 -1.2054  0.0633  0.5248
  773MOL0     C 4287  10.242   9.412   8.808  0.1034 -0.4119  0.6189
  773MOL0     H 4288  10.486   9.996   8.504 -2.3356 -0.7980 -0.5554
  773MOL0     H 4289  10.682  10.032   8.372  1.3390 -0.9980 -1.3328
  773MOL0     H 4290  10.699   9.866   8.065 -1.7045  2.6965  3.4799
  773MOL0     H 4291  10.762  10.023   8.114  3.1106  0.7201 -1.9075
  773MOL0     H 4292  10.842   9.971   7.904 -0.2019 -1.7706 -1.1805
  773MOL0     H 4293  10.930   9.826   7.953 -0.8811  0.3141 -1.5351
  773MOL0     H 4294  11.045   9.959   8.128 -0.5855  1.5716  1.2212
  773MOL0     H 4295  10.961  10.102   8.073 -1.4553 -1.4455  0.9344
  773MOL0     H 4296  11.170   9.928   7.927 -0.9060  0.0168  1.1397
  773MOL0     H 4297  11.075  10.046   7.834 -1.7938 -0.1187 -0.0694
  773MOL0     H 4298  11.195  10.227   7.975 -0.2722  0.1789 -0.5403
  773MOL0     H 4299  11.246  10.106   8.091 -1.3819  0.2731  0.2647
  773MOL0     H 4300  11.421  10.201   7.944 -2.3932  1.8232 -1.0803
  773MOL0     H 4301  11.409  10.020   7.934 -1.4886 -0.5021 -2.0498
  773MOL0     H 4302  11.263  10.060   7.719 -0.6824  1.1698  1.0091
  773MOL0     H 4303  11.429  10.041   7.720  0.9122 -0.3684 -1.6726
  773MOL0     H 4304  11.260  10.287   7.659  0.7845  1.5153  0.6118
  773MOL0     H 4305  11.398  10.328   7.753  0.8914 -0.1479  0.2537
  773MOL0     H 4306  11.629  10.330   7.629  1.2990 -0.7589  1.0059
  773MOL0     H 4307  11.690  10.326   7.263 -1.2343  3.4219  2.7020
  773MOL0     H 4308  11.797  10.344   7.403  1.2761  1.1084 -1.9658
  773MOL0     H 4309  11.920  10.172   7.316  0.8695  0.4875 -1.0074
  773MOL0     H 4310  11.778  10.065   7.367  1.8672 -0.1035  0.3629
  773MOL0     H 4311  11.830  10.187   7.094 -0.7232 -1.1881 -2.1723
  773MOL0     H 4312  11.678  10.126   7.139  1.5256  1.2679 -4.4217
  773MOL0     H 4313  11.774   9.894   7.159 -2.0751  1.2470 -0.1993
  773MOL0     H 4314  11.933   9.982   7.159  0.2399  2.0662 -0.8105
  773MOL0     H 4315  12.025   9.816   7.054  0.2552  0.7109  1.5215
  773MOL0     H 4316  12.270   9.807   6.920 -1.2028 -0.7365  0.2500
  773MOL0     H 4317  12.506   9.824   6.484  2.2547  2.5277 -2.3666
  773MOL0     H 4318  12.719   9.860   6.407  0.1724 -1.9255 -0.0226
  773MOL0     H 4319  12.963   9.747   6.455  1.7638  0.0895 -2.3005
  773MOL0     H 4320  12.936   9.902   6.379  0.5103  1.5680  0.9756
  773MOL0     H 4321  13.140   9.991   6.482 -0.4346  0.9898 -2.9711
  773MOL0     H 4322  13.176   9.820   6.542 -3.4511 -2.3291 -0.4504
  773MOL0     H 4323  13.310   9.840   6.329  1.9729  1.5415 -1.1696
  773MOL0     H 4324  13.149   9.769   6.284  2.5435  0.5258 -1.6549
  773MOL0     H 4325  13.228  10.063   6.271 -0.6761 -1.0619  3.8729
  773MOL0     H 4326  13.075  10.008   6.236 -0.0187  0.6513 -0.5759
  773MOL0     H 4327  13.218   9.876   6.041  0.1376 -1.5523  1.7898
  773MOL0     H 4328  13.359   9.925   6.127 -1.0438 -4.3061 -1.3161
  773MOL0     H 4329  13.162  10.110   6.003 -0.5135 -3.0469 -0.1469
  773MOL0     H 4330  13.329  10.169   6.062 -3.2954  0.5618  4.2460
  773MOL0     H 4331  13.317   9.949   5.857  0.4060  0.2475 -0.7738
  773MOL0     H 4332  13.456  10.031   5.923  0.3770  0.4910 -1.0927
  773MOL0     H 4333  13.380  10.111   5.694 -0.6932  0.5974 -0.5176
  773MOL0     H 4334  13.231  10.156   5.766 -0.9651 -2.8675  0.6614
  773MOL0     H 4335  12.839   9.945   6.810  2.8364 -0.4220 -2.3646
  773MOL0     H 4336  12.608   9.933   6.881 -2.6274 -5.0410  1.6065
  773MOL0     H 4337  12.082  10.019   6.618  0.5319 -0.9971 -0.3927
  773MOL0     H 4338  11.866  10.046   6.727 -2.2062 -0.5384  0.6968
  773MOL0     H 4339  10.701   9.610   8.296  0.0544 -0.2232 -0.8259
  773MOL0     H 4340  10.525   9.569   8.439  0.7951  0.1505 -1.1286
  773MOL0     H 4341  10.142   9.777   8.508  1.5171  0.7768  1.9931
  773MOL0     H 4342   9.919   9.737   8.520  1.2422  0.5252 -0.7639
  773MOL0     H 4343   9.719   9.381   8.757 -4.7603 -0.8993 -0.3214
  773MOL0     H 4344   9.816   9.320   8.623 -1.4885 -0.1286 -1.7434
  773MOL0     H 4345   9.541   9.427   8.629 -1.4912 -0.2645 -1.6360
  773MOL0     H 4346   9.585   9.255   8.619 -3.1679  1.6752  0.2571
  773MOL0     H 4347   9.736   9.328   8.401 -0.1395  1.0497 -1.3645
  773MOL0     H 4348   9.642   9.475   8.419  1.9093  0.2702  2.5986
  773MOL0     H 4349   9.581   9.318   8.258 -1.9242 -0.1251 -1.0650
  773MOL0     H 4350   9.501   9.200   8.378 -0.8259  0.0091  2.2329
  773MOL0     H 4351   9.252   9.551   8.376  0.6452  0.0653 -1.0727
  773MOL0     H 4352   9.983   9.383   8.753  1.1421 -1.2758 -0.3039
  773MOL0     H 4353  10.198   9.312   8.820  1.1405 -1.1442 -1.1858
  773MOL0     H 4354  10.333   9.382   8.755 -1.0511 -2.3934 -0.3734
  773MOL0     H 4355  10.264   9.471   8.897 -0.4462 -0.3904  0.7402
  774MOL0     O 4356   6.505   6.994   2.906  0.4156  0.2562 -0.7220
  774MOL0     C 4357   6.620   7.008   2.864  0.9479 -0.4187  0.1542
  774MOL0     O 4358   6.651   7.081   2.759  0.1522 -0.8661  0.0702
  774MOL0     C 4359   6.548   7.124   2.675  0.2420 -0.1010  0.5542
  774MOL0     C 4360   6.547   7.250   2.624  0.6834 -0.1161  0.4831
  774MOL0     C 4361   6.451   7.301   2.542  1.0627 -0.3017 -0.4750
  774MOL0     C 4362   6.338   7.229   2.513 -0.3791  0.0174  0.1439
  774MOL0     O 4363   6.235   7.285   2.436  0.7061 -0.1550 -0.2880
  774MOL0     C 4364   6.249   7.418   2.381  0.6034 -0.1475  0.1652
  774MOL0     C 4365   6.118   7.443   2.302 -0.1763 -0.1053  0.4371
  774MOL0     C 4366   6.142   7.563   2.206  0.2522 -0.5600 -0.6183
  774MOL0     C 4367   6.021   7.583   2.118  0.3252  0.1568 -0.5440
  774MOL0     C 4368   6.042   7.705   2.034  0.7999 -0.5832 -0.7030
  774MOL0     C 4369   6.169   7.706   1.950  0.1665 -0.1345  0.1580
  774MOL0     C 4370   6.166   7.806   1.830 -0.3005  0.3551  0.8176
  774MOL0     C 4371   6.271   7.781   1.718 -0.3662  0.6725 -0.0315
  774MOL0     N 4372   6.318   7.910   1.656 -0.4326  0.1523  0.1696
  774MOL0     C 4373   6.318   7.927   1.519 -0.4485 -0.6234  0.2947
  774MOL0     C 4374   6.379   8.048   1.508  0.5736 -0.4325  0.3934
  774MOL0     C 4375   6.422   8.113   1.380  0.5712 -0.1229  0.2541
  774MOL0     C 4376   6.576   8.129   1.377 -0.2127 -0.1527  0.6123
  774MOL0     C 4377   6.658   7.996   1.398 -0.1898 -0.3640 -0.0053
  774MOL0     C 4378   6.810   8.015   1.398  0.0376  0.2321 -0.3144
  774MOL0     O 4379   6.870   7.886   1.431 -0.3185 -0.1152 -0.2858
  774MOL0     C 4380   7.002   7.860   1.417  0.2073  0.2141  0.0033
  774MOL0     C 4381   7.092   7.958   1.372  0.3255 -0.3693 -0.4366
  774MOL0     C 4382   7.225   7.920   1.381 -0.1873 -0.2852 -0.9722
  774MOL0     C 4383   7.264   7.793   1.427  0.0982 -0.1624 -0.4480
  774MOL0     C 4384   7.404   7.761   1.450 -0.2691 -0.8009  0.1385
  774MOL0     O 4385   7.440   7.668   1.541 -0.6836 -0.3754  0.0456
  774MOL0     C 4386   7.573   7.679   1.582  0.6599 -0.4124  0.1730
  774MOL0     C 4387   7.610   7.755   1.696  0.2529 -0.4959 -0.9824
  774MOL0     C 4388   7.742   7.758   1.745  0.9610 -0.0081 -0.5879
  774MOL0     C 4389   7.842   7.692   1.671 -0.1637  0.1725  1.2069
  774MOL0     O 4390   7.974   7.684   1.715 -0.1430  0.0219 -0.0785
  774MOL0     C 4391   8.000   7.716   1.856 -0.3968  0.1752  0.2138
  774MOL0     C 4392   8.133   7.652   1.904  0.7674 -0.2847  1.6141
  774MOL0     C 4393   8.251   7.749   1.916 -1.0199  0.7474 -0.2194
  774MOL0     C 4394   8.378   7.665   1.898 -0.4574  0.1331 -0.1501
  774MOL0     C 4395   8.499   7.749   1.951  0.5762  1.4104  0.1508
  774MOL0     C 4396   8.626   7.678   1.974 -0.2208 -0.7530 -0.0258
  774MOL0     C 4397   8.698   7.641   1.835 -0.3315 -0.7824  0.7509
  774MOL0     C 4398   8.841   7.695   1.833 -0.4525 -0.6454 -0.5192
  774MOL0    Cl 4399   8.916   7.673   1.676 -0.1255 -0.1437  0.1897
  774MOL0     C 4400   7.810   7.625   1.554  0.0640  0.7086  0.2871
  774MOL0     C 4401   7.674   7.628   1.504 -0.0127 -0.1090  0.1364
  774MOL0     O 4402   7.486   7.834   1.391  0.4241  0.5014 -0.1657
  774MOL0     C 4403   7.171   7.701   1.474  0.7110  0.2210 -0.2175
  774MOL0     C 4404   7.036   7.736   1.462  0.1040  0.1741  0.1257
  774MOL0     N 4405   6.396   8.105   1.629 -0.2483  0.0957  0.2550
  774MOL0     N 4406   6.357   8.024   1.715 -0.1014 -0.7844  0.1173
  774MOL0     C 4407   6.339   7.093   2.542  0.5184  0.2353 -0.1105
  774MOL0     C 4408   6.441   7.036   2.628 -0.2754 -0.0359  0.5827
  774MOL0     C 4409   6.722   6.926   2.925  0.5358 -0.3552  0.3732
  774MOL0     C 4410   6.851   6.926   2.867  0.4249 -0.0490  0.7617
  774MOL0     C 4411   6.954   6.853   2.919 -0.5474 -0.2575  0.5945
  774MOL0     C 4412   6.941   6.776   3.031  0.4367 -0.6225 -0.0547
  774MOL0     O 4413   7.055   6.710   3.083  0.1882 -0.0389  0.0802
  774MOL0     C 4414   7.048   6.653   3.216 -1.1983 -0.1865  0.6865
  774MOL0     C 4415   7.188   6.619   3.246 -0.5888 -0.4198  0.0270
  774MOL0     C 4416   7.230   6.478   3.184  0.5011  0.1203 -0.3245
  774MOL0     C 4417   7.379   6.453   3.197  0.3263  0.3266 -0.0891
  774MOL0     C 4418   7.400   6.315   3.179 -0.8993  0.2997 -0.1388
  774MOL0     C 4419   7.418   6.199   3.145 -1.3417  0.5383 -0.3153
  774MOL0     C 4420   6.814   6.780   3.087 -0.4650  0.3657 -0.9177
  774MOL0     C 4421   6.707   6.851   3.045  0.3737 -0.1546  1.2426
  774MOL0     C 4422   6.591   6.839   3.128 -0.0226  0.5140 -1.3457
  774MOL0     H 4423   6.629   7.314   2.655 -0.0422  1.3105 -0.4569
  774MOL0     H 4424   6.460   7.405   2.511 -2.2430  0.9230  2.0897
  774MOL0     H 4425   6.269   7.488   2.463  2.1472  0.2954 -0.5390
  774MOL0     H 4426   6.334   7.435   2.314  1.4935 -0.1481  1.2646
  774MOL0     H 4427   6.025   7.456   2.358 -1.8745 -1.8246 -1.7744
  774MOL0     H 4428   6.094   7.353   2.245  0.1751  0.4670 -0.6535
  774MOL0     H 4429   6.228   7.539   2.142  1.6549 -0.8185  1.2690
  774MOL0     H 4430   6.162   7.653   2.264 -2.4856 -1.1017  1.3656
  774MOL0     H 4431   6.008   7.494   2.056 -0.7108 -0.3437  0.3708
  774MOL0     H 4432   5.927   7.598   2.171 -0.7128 -2.7366 -1.3771
  774MOL0     H 4433   5.952   7.712   1.973  1.4375  0.2169 -1.5901
  774MOL0     H 4434   6.051   7.790   2.103 -0.8507  0.4428 -1.6960
  774MOL0     H 4435   6.256   7.717   2.016 -0.0183  1.6998  0.1563
  774MOL0     H 4436   6.182   7.603   1.916 -1.2725 -0.9777  1.9869
  774MOL0     H 4437   6.181   7.905   1.873  1.0881  0.6216 -0.2058
  774MOL0     H 4438   6.062   7.810   1.795  0.2979  1.8622 -0.9481
  774MOL0     H 4439   6.356   7.734   1.768 -2.7981 -2.0083  1.8764
  774MOL0     H 4440   6.222   7.716   1.645 -2.5844  0.7040  1.3286
  774MOL0     H 4441   6.287   7.858   1.442  2.5360 -0.7080 -0.9569
  774MOL0     H 4442   6.391   8.052   1.294  0.6548  0.9867 -0.5749
  774MOL0     H 4443   6.372   8.209   1.370  1.5483  0.5561  1.5718
  774MOL0     H 4444   6.601   8.181   1.283 -1.9693 -0.3890 -0.0232
  774MOL0     H 4445   6.603   8.198   1.457  1.3933 -0.5746  0.4550
  774MOL0     H 4446   6.638   7.934   1.309  0.6780  2.7628 -2.5801
  774MOL0     H 4447   6.633   7.935   1.485 -2.8484 -3.2689 -2.5530
  774MOL0     H 4448   6.838   8.082   1.480  0.0067  2.9685 -2.3976
  774MOL0     H 4449   6.841   8.053   1.300 -1.0391 -0.3951 -0.9211
  774MOL0     H 4450   7.057   8.052   1.331  3.6230  1.3968  0.4164
  774MOL0     H 4451   7.293   7.991   1.334  2.5631 -2.7139 -0.8906
  774MOL0     H 4452   7.532   7.799   1.757  1.8036  1.1922 -0.1430
  774MOL0     H 4453   7.765   7.813   1.836  1.3512 -0.3724 -0.4650
  774MOL0     H 4454   8.016   7.823   1.874  4.1368 -0.7612  3.6008
  774MOL0     H 4455   7.928   7.666   1.920 -1.7154  2.8406  0.9756
  774MOL0     H 4456   8.111   7.602   1.999  0.7133 -1.5484  0.9471
  774MOL0     H 4457   8.162   7.574   1.834 -0.4304  0.7140 -0.0704
  774MOL0     H 4458   8.259   7.820   1.834  2.2000 -0.0031 -0.6890
  774MOL0     H 4459   8.254   7.793   2.017  3.3143 -0.6530  0.4682
  774MOL0     H 4460   8.389   7.624   1.797 -1.0050  1.1902 -0.6520
  774MOL0     H 4461   8.368   7.576   1.961  2.4622  0.3232  0.7598
  774MOL0     H 4462   8.474   7.785   2.051 -0.9309  3.4203 -0.8873
  774MOL0     H 4463   8.515   7.837   1.888 -2.9256  0.6954 -2.0246
  774MOL0     H 4464   8.690   7.746   2.031 -2.1038  1.1701 -0.0765
  774MOL0     H 4465   8.615   7.584   2.030 -0.8789  0.8636  2.7526
  774MOL0     H 4466   8.644   7.698   1.759  0.3121 -0.9438  0.1653
  774MOL0     H 4467   8.690   7.535   1.806 -0.6103  0.1257 -2.9798
  774MOL0     H 4468   8.840   7.800   1.864 -0.5284 -1.2090  1.5476
  774MOL0     H 4469   8.902   7.650   1.912 -0.2272  2.4009  1.2193
  774MOL0     H 4470   7.887   7.571   1.499  0.3092 -0.0125  1.3034
  774MOL0     H 4471   7.650   7.573   1.414  1.2692  1.6062 -1.3388
  774MOL0     H 4472   7.201   7.599   1.495  1.1362  0.7494  1.9270
  774MOL0     H 4473   6.965   7.659   1.492  2.7777 -2.9241 -0.8792
  774MOL0     H 4474   6.262   7.031   2.496  0.8466  0.5419 -1.0867
  774MOL0     H 4475   6.443   6.931   2.654  0.8513 -0.2798 -0.3774
  774MOL0     H 4476   6.874   6.986   2.780  0.5680  0.5452  1.2009
  774MOL0     H 4477   7.053   6.852   2.876 -0.7586 -0.0434  0.0846
  774MOL0     H 4478   6.987   6.563   3.223 -0.0913 -1.0959 -0.8992
  774MOL0     H 4479   7.009   6.733   3.280  3.7062  3.6937 -0.5006
  774MOL0     H 4480   7.188   6.617   3.355 -3.5843  1.0727  0.1643
  774MOL0     H 4481   7.260   6.697   3.218 -0.4790 -0.0760  1.2245
  774MOL0     H 4482   7.215   6.488   3.077 -1.3235 -1.1393 -0.2439
  774MOL0     H 4483   7.168   6.396   3.224 -0.7877  0.8460 -0.7865
  774MOL0     H 4484   7.428   6.502   3.113  2.4712  0.6905  1.2878
  774MOL0     H 4485   7.421   6.486   3.293  0.8947 -1.7894  0.4570
  774MOL0     H 4486   7.454   6.102   3.118  1.6991  1.8664 -1.4726
  774MOL0     H 4487   6.810   6.716   3.175  1.9608 -0.0026 -0.9841
  774MOL0     H 4488   6.593   6.931   3.187  1.7109 -0.6627  0.5882
  774MOL0     H 4489   6.499   6.836   3.069 -2.9458  0.3372  2.7741
  774MOL0     H 4490   6.604   6.756   3.198  0.3110  0.6934 -1.1929
  775MOL0     O 4491   0.095   4.965   6.704  0.2255 -0.0605  0.1618
  775MOL0     C 4492   0.097   4.923   6.588  0.4015 -0.3335 -0.8718
  775MOL0     O 4493   0.208   4.888   6.523 -0.3350 -0.3595  0.1947
  775MOL0     C 4494   0.330   4.878   6.572 -0.4530  1.0445 -0.2979
  775MOL0     C 4495   0.359   4.832   6.705  0.1051 -0.2737 -0.1342
  775MOL0     C 4496   0.493   4.817   6.748  0.0169 -0.4544  0.1843
  775MOL0     C 4497   0.596   4.870   6.662 -0.0289 -0.8349 -0.3188
  775MOL0     O 4498   0.731   4.861   6.709 -1.0394  0.6362 -0.0711
  775MOL0     C 4499   0.841   4.885   6.618 -0.0415 -0.6139 -0.1719
  775MOL0     C 4500   0.977   4.881   6.690  0.5686  1.0565  0.0160
  775MOL0     C 4501   1.094   4.932   6.610  1.0848 -0.7380  0.4972
  775MOL0     C 4502   1.227   4.877   6.659 -0.4435 -0.1118  0.2178
  775MOL0     C 4503   1.274   4.952   6.777 -0.4148 -0.8158 -0.5240
  775MOL0     C 4504   1.407   4.914   6.837  0.0514  0.3796  0.3418
  775MOL0     C 4505   1.446   4.973   6.975 -0.3547 -0.8822  0.3147
  775MOL0     C 4506   1.356   4.947   7.096 -0.2327  0.5631  0.9104
  775MOL0     N 4507   1.375   4.809   7.166  0.4514 -0.6324 -0.3921
  775MOL0     C 4508   1.449   4.792   7.284 -0.2463  0.4487  0.3428
  775MOL0     C 4509   1.434   4.660   7.322  0.0654  0.0766 -0.6530
  775MOL0     C 4510   1.490   4.595   7.447  0.5839  0.7265  0.8496
  775MOL0     C 4511   1.389   4.506   7.519 -0.2713 -0.5822  0.0517
  775MOL0     C 4512   1.374   4.372   7.445 -0.4773  0.5045 -0.0125
  775MOL0     C 4513   1.291   4.276   7.536 -0.4026 -0.4167  0.2436
  775MOL0     O 4514   1.156   4.320   7.560  0.3295  0.3129  0.1396
  775MOL0     C 4515   1.067   4.254   7.484 -0.1689  0.0229 -0.2339
  775MOL0     C 4516   1.013   4.134   7.522  1.0086  0.1244  0.0969
  775MOL0     C 4517   0.897   4.088   7.461  0.0250 -0.1380  0.4366
  775MOL0     C 4518   0.841   4.149   7.354 -1.1752 -0.6778  0.4055
  775MOL0     C 4519   0.725   4.084   7.283  0.0483  0.2964  0.6989
  775MOL0     O 4520   0.658   4.166   7.194  0.8127 -0.3414 -0.4081
  775MOL0     C 4521   0.556   4.124   7.118  0.5392 -0.1014  0.5426
  775MOL0     C 4522   0.559   4.132   6.977 -0.5487 -0.5005  0.0306
  775MOL0     C 4523   0.437   4.108   6.909 -0.3379  0.7879 -0.2714
  775MOL0     C 4524   0.316   4.050   6.966 -0.2386  0.0352  0.3110
  775MOL0     O 4525   0.199   4.028   6.900  0.4911  0.1414  0.0699
  775MOL0     C 4526   0.205   3.945   6.775 -0.2855 -0.2004 -0.4576
  775MOL0     C 4527   0.063   3.905   6.731  0.4506  0.4943 -0.9050
  775MOL0     C 4528   0.009   3.811   6.841  0.3121  0.4353 -1.0033
  775MOL0     C 4529  -0.145   3.805   6.847  0.2983  0.0145  0.3137
  775MOL0     C 4530  -0.204   3.723   6.958 -0.1079 -0.0384 -0.0486
  775MOL0     C 4531  -0.172   3.573   6.959 -1.0153 -0.5301  1.1529
  775MOL0     C 4532  -0.252   3.509   7.077  0.2014 -0.7636 -0.4749
  775MOL0     C 4533  -0.250   3.357   7.069 -0.2491  0.1911 -0.2999
  775MOL0    Cl 4534  -0.345   3.309   6.929 -0.5513  0.3541  0.0012
  775MOL0     C 4535   0.322   4.048   7.101 -0.3279 -0.2826  0.4292
  775MOL0     C 4536   0.435   4.083   7.177 -0.0963  0.4147  0.2333
  775MOL0     O 4537   0.701   3.964   7.293 -0.3118  0.3566 -0.7777
  775MOL0     C 4538   0.915   4.258   7.301 -0.1813  0.4628  0.5332
  775MOL0     C 4539   1.030   4.313   7.364  0.1354 -0.3103  0.0539
  775MOL0     N 4540   1.365   4.602   7.214 -0.6098 -0.1670  0.1282
  775MOL0     N 4541   1.339   4.689   7.114 -0.0552  0.2597 -0.8955
  775MOL0     C 4542   0.565   4.916   6.530 -0.4846 -0.5765 -0.1865
  775MOL0     C 4543   0.433   4.921   6.487 -0.9402 -0.9252 -0.6332
  775MOL0     C 4544  -0.029   4.896   6.509  0.0460  0.6303  0.2785
  775MOL0     C 4545  -0.004   4.904   6.369  0.1223 -0.7664  0.1480
  775MOL0     C 4546  -0.100   4.871   6.275  0.3728 -0.8886  0.4237
  775MOL0     C 4547  -0.231   4.844   6.321 -0.0572 -0.4590 -0.0590
  775MOL0     O 4548  -0.338   4.815   6.239 -1.0558 -0.0332 -0.0444
  775MOL0     C 4549  -0.307   4.832   6.107 -0.2174  0.6501  0.6660
  775MOL0     C 4550  -0.427   4.810   6.015  0.3680 -0.8660  0.0949
  775MOL0     C 4551  -0.418   4.857   5.862  0.0108 -0.2103  0.0782
  775MOL0     C 4552  -0.315   4.774   5.776  0.2267 -0.4781  0.1820
  775MOL0     C 4553  -0.175   4.799   5.800 -0.2685 -0.1234  0.5918
  775MOL0     C 4554  -0.054   4.820   5.829  0.3158  0.6589  0.5558
  775MOL0     C 4555  -0.252   4.840   6.458 -0.0575  0.4300  0.5401
  775MOL0     C 4556  -0.154   4.867   6.553 -0.7540  0.1456  0.2533
  775MOL0     C 4557  -0.179   4.858   6.696  0.1813  1.0439 -0.9928
  775MOL0     H 4558   0.277   4.788   6.761  0.3310 -1.4645 -0.6996
  775MOL0     H 4559   0.510   4.778   6.848  1.4208  0.3265  0.2722
  775MOL0     H 4560   0.836   4.812   6.536 -2.5369 -1.1533  0.3829
  775MOL0     H 4561   0.827   4.984   6.572  1.6800  0.2567  1.0616
  775MOL0     H 4562   0.990   4.774   6.705  0.0003  0.9446 -0.2740
  775MOL0     H 4563   0.967   4.933   6.785  0.8653 -0.9238  1.1853
  775MOL0     H 4564   1.085   5.041   6.601  1.1768 -0.8844 -2.1451
  775MOL0     H 4565   1.079   4.905   6.505  1.4896  0.5268  0.0965
  775MOL0     H 4566   1.210   4.772   6.684  1.2219 -0.5253 -0.2790
  775MOL0     H 4567   1.299   4.887   6.578 -1.9884 -0.8514 -1.2985
  775MOL0     H 4568   1.281   5.058   6.752  1.9637 -0.7906  0.0701
  775MOL0     H 4569   1.200   4.940   6.857 -0.7022 -1.6656 -0.9130
  775MOL0     H 4570   1.416   4.805   6.838 -2.4751 -0.0416 -3.1664
  775MOL0     H 4571   1.491   4.935   6.771  1.8389 -2.2691  1.5989
  775MOL0     H 4572   1.452   5.082   6.963 -0.9529 -0.7189  1.3200
  775MOL0     H 4573   1.545   4.935   7.004 -0.8026 -1.5277  1.0345
  775MOL0     H 4574   1.371   5.024   7.173 -1.5603 -0.2125  1.9821
  775MOL0     H 4575   1.251   4.954   7.066 -0.0666  1.2355  0.4631
  775MOL0     H 4576   1.498   4.872   7.339  4.1688 -0.1589 -2.2713
  775MOL0     H 4577   1.581   4.542   7.413  3.2242  3.8124  2.5552
  775MOL0     H 4578   1.522   4.673   7.516  1.3529  2.9848 -1.8791
  775MOL0     H 4579   1.430   4.484   7.618 -0.3681 -0.7200  0.0612
  775MOL0     H 4580   1.299   4.567   7.525 -1.3607 -1.8674 -2.0889
  775MOL0     H 4581   1.471   4.322   7.443 -2.1758 -3.0709 -0.1714
  775MOL0     H 4582   1.331   4.384   7.345 -1.1074  0.3621  0.2334
  775MOL0     H 4583   1.337   4.275   7.635 -0.3145  2.8930  0.3424
  775MOL0     H 4584   1.296   4.176   7.491  0.0377 -0.0272 -0.5908
  775MOL0     H 4585   1.056   4.079   7.606 -1.9408 -0.7945  1.1154
  775MOL0     H 4586   0.858   3.993   7.498  2.3522 -1.6363 -0.7047
  775MOL0     H 4587   0.631   4.181   6.912 -1.5909  0.3181 -0.5608
  775MOL0     H 4588   0.421   4.124   6.803 -2.6816  1.1265  0.0892
  775MOL0     H 4589   0.256   3.988   6.689  0.8308  0.7800  0.6687
  775MOL0     H 4590   0.264   3.854   6.793 -1.7485 -1.2771 -0.8988
  775MOL0     H 4591   0.001   3.995   6.734  1.0118  0.8611  1.5686
  775MOL0     H 4592   0.064   3.857   6.632  0.0600  1.5836 -1.4584
  775MOL0     H 4593   0.047   3.712   6.816  2.2644  1.1066 -0.8733
  775MOL0     H 4594   0.051   3.841   6.938 -0.4293  1.4709 -0.9738
  775MOL0     H 4595  -0.179   3.765   6.751  1.2285  1.0928 -0.4865
  775MOL0     H 4596  -0.197   3.901   6.850 -0.3261 -0.3273  1.0217
  775MOL0     H 4597  -0.313   3.736   6.963 -0.0737 -0.1627  2.1733
  775MOL0     H 4598  -0.176   3.771   7.052 -3.9082 -2.6708  2.7737
  775MOL0     H 4599  -0.212   3.538   6.863 -1.4476 -1.7774  1.7805
  775MOL0     H 4600  -0.063   3.561   6.965 -0.0688  2.7839 -3.4275
  775MOL0     H 4601  -0.354   3.547   7.078  0.7965  0.9944 -1.7619
  775MOL0     H 4602  -0.194   3.541   7.164 -1.5600  0.1335  0.4207
  775MOL0     H 4603  -0.147   3.322   7.064 -0.9030 -2.7853  3.0929
  775MOL0     H 4604  -0.285   3.309   7.161 -0.2536 -0.0111 -0.4065
  775MOL0     H 4605   0.232   4.020   7.155 -1.7373  2.0331 -0.5848
  775MOL0     H 4606   0.423   4.082   7.284  3.0827  0.9757  0.7185
  775MOL0     H 4607   0.893   4.313   7.211 -0.2919  0.1324  0.3594
  775MOL0     H 4608   1.082   4.399   7.321 -0.6982 -0.3636 -1.0908
  775MOL0     H 4609   0.642   4.937   6.457  1.2247 -0.0095  1.6697
  775MOL0     H 4610   0.410   4.978   6.398  2.4680  2.0961  0.1524
  775MOL0     H 4611   0.096   4.927   6.334 -0.1112  0.9716  0.4922
  775MOL0     H 4612  -0.073   4.862   6.170  1.2200 -0.0004  0.5577
  775MOL0     H 4613  -0.240   4.747   6.087 -0.5737  0.7682 -1.2724
  775MOL0     H 4614  -0.269   4.930   6.077  1.0415 -0.4034 -1.4667
  775MOL0     H 4615  -0.507   4.863   6.067  1.8263  0.5756  0.9679
  775MOL0     H 4616  -0.460   4.706   6.017 -0.8329 -0.5032 -0.0174
  775MOL0     H 4617  -0.392   4.963   5.855  1.0566 -0.5849 -2.4995
  775MOL0     H 4618  -0.517   4.840   5.818 -0.7724  1.3432  1.1424
  775MOL0     H 4619  -0.344   4.669   5.785  4.6879 -1.7293  3.2627
  775MOL0     H 4620  -0.340   4.800   5.673 -0.6359 -0.6773  0.3293
  775MOL0     H 4621   0.041   4.823   5.879 -0.5602 -0.6486  2.4363
  775MOL0     H 4622  -0.346   4.804   6.499 -0.6291 -2.1546 -2.5764
  775MOL0     H 4623  -0.271   4.809   6.731  1.2383  0.8073  1.7513
  775MOL0     H 4624  -0.103   4.787   6.729  1.7579  1.7503 -2.9286
  775MOL0     H 4625  -0.163   4.955   6.746 -1.7442  0.7210  0.3626
  776MOL0     O 4626   5.839   8.783   7.956 -0.0166 -0.4787 -0.5708
  776MOL0     C 4627   5.778   8.850   8.042 -0.9602 -0.3975  1.0067
  776MOL0     O 4628   5.822   8.899   8.152 -0.0807  0.1736  0.3201
  776MOL0     C 4629   5.945   8.870   8.189 -0.8587 -0.0410 -0.2033
  776MOL0     C 4630   6.064   8.891   8.112  0.5682 -0.0154 -0.1269
  776MOL0     C 4631   6.191   8.857   8.158  0.3971  0.6569  0.0330
  776MOL0     C 4632   6.210   8.808   8.290 -0.2229 -0.2985 -0.4786
  776MOL0     O 4633   6.321   8.767   8.345 -0.9791  0.0075  0.4522
  776MOL0     C 4634   6.446   8.772   8.272  0.5952  0.0825 -0.1050
  776MOL0     C 4635   6.556   8.771   8.375  0.0333 -0.1746 -0.5905
  776MOL0     C 4636   6.675   8.848   8.321 -0.7904 -0.7747  0.0675
  776MOL0     C 4637   6.797   8.830   8.417 -0.3493 -1.0652 -0.1005
  776MOL0     C 4638   6.924   8.904   8.373 -0.3087  0.1535  0.2933
  776MOL0     C 4639   7.004   8.843   8.249 -0.1091 -0.0830 -0.3279
  776MOL0     C 4640   7.119   8.948   8.223  0.3284  0.1373  0.8117
  776MOL0     C 4641   7.192   8.902   8.100  0.1405 -0.6782 -0.1455
  776MOL0     N 4642   7.278   8.785   8.120  0.4746  0.0773 -0.9250
  776MOL0     C 4643   7.417   8.777   8.143 -0.0556  0.0838 -0.1103
  776MOL0     C 4644   7.443   8.653   8.123  0.7538 -0.2329 -0.8614
  776MOL0     C 4645   7.578   8.589   8.130 -0.3236 -0.0701 -0.2311
  776MOL0     C 4646   7.648   8.609   8.265 -0.0595  0.2813  0.4443
  776MOL0     C 4647   7.781   8.523   8.266 -0.3187  0.0899  1.2379
  776MOL0     C 4648   7.862   8.553   8.390  0.3065  0.5202 -0.2228
  776MOL0     O 4649   7.984   8.480   8.383  0.7092 -0.3333 -0.0595
  776MOL0     C 4650   8.081   8.503   8.471 -0.1026 -0.8969  0.1752
  776MOL0     C 4651   8.191   8.418   8.454  0.1806  0.0666 -0.0178
  776MOL0     C 4652   8.305   8.431   8.539  0.4325  0.1149  0.2655
  776MOL0     C 4653   8.298   8.517   8.652 -0.2204  0.3979  0.4712
  776MOL0     C 4654   8.409   8.517   8.755  0.1745  0.3520  0.2955
  776MOL0     O 4655   8.416   8.625   8.837  0.2121  0.1960 -0.6835
  776MOL0     C 4656   8.502   8.619   8.953  0.6256  0.8696  1.1644
  776MOL0     C 4657   8.563   8.732   8.993  0.0294  0.1306  0.9062
  776MOL0     C 4658   8.660   8.731   9.102 -0.4804  0.0772  0.3068
  776MOL0     C 4659   8.674   8.619   9.182  0.2935  0.0740 -0.2973
  776MOL0     O 4660   8.762   8.630   9.287  0.5824 -0.4792 -0.5802
  776MOL0     C 4661   8.850   8.520   9.318 -0.5615  0.6064 -0.3784
  776MOL0     C 4662   8.971   8.564   9.410 -0.0982  0.1543  0.3510
  776MOL0     C 4663   9.004   8.710   9.399 -0.4508 -0.2683 -0.2858
  776MOL0     C 4664   9.132   8.736   9.476 -0.5864 -0.3300 -0.0263
  776MOL0     C 4665   9.217   8.850   9.434  0.7275  0.3632  1.0748
  776MOL0     C 4666   9.307   8.891   9.543  0.2341  1.1035  0.2307
  776MOL0     C 4667   9.405   9.001   9.508 -0.2217 -0.6432  0.6322
  776MOL0     C 4668   9.341   9.133   9.453  0.2542 -0.0756  0.1308
  776MOL0    Cl 4669   9.454   9.271   9.430  0.1340 -0.1699  0.5466
  776MOL0     C 4670   8.604   8.499   9.146 -0.2057 -0.8334 -0.2601
  776MOL0     C 4671   8.524   8.498   9.027 -0.5248  0.5361  0.3133
  776MOL0     O 4672   8.490   8.422   8.753 -0.0193 -0.3542  0.1106
  776MOL0     C 4673   8.184   8.597   8.669  0.2895  0.2695  0.3958
  776MOL0     C 4674   8.088   8.596   8.573  0.1592 -0.8565  0.2772
  776MOL0     N 4675   7.325   8.582   8.097  0.1447 -0.8282 -0.3273
  776MOL0     N 4676   7.228   8.661   8.091 -0.2372  0.2856 -0.3557
  776MOL0     C 4677   6.098   8.801   8.379  0.3502  0.3410  0.7485
  776MOL0     C 4678   5.968   8.827   8.328 -0.5804  0.6290  0.2855
  776MOL0     C 4679   5.629   8.859   8.025 -0.2060 -0.4269 -0.6254
  776MOL0     C 4680   5.555   8.901   8.141  0.2542 -0.4137 -0.2190
  776MOL0     C 4681   5.415   8.908   8.135 -1.2635  0.0099  0.0673
  776MOL0     C 4682   5.346   8.879   8.024  0.2735 -0.1780  0.0393
  776MOL0     O 4683   5.213   8.905   8.042  0.1418  0.8583  0.4474
  776MOL0     C 4684   5.132   8.894   7.928  0.6573  0.3756  0.3763
  776MOL0     C 4685   5.120   9.017   7.833  0.0974  0.1719  0.2909
  776MOL0     C 4686   5.078   8.975   7.698  0.1236 -0.2944 -0.6471
  776MOL0     C 4687   5.030   9.095   7.619 -0.4107  0.0696 -0.5420
  776MOL0     C 4688   4.980   9.063   7.484 -0.5224 -0.9445  0.2711
  776MOL0     C 4689   4.946   9.040   7.373  0.1786  0.1455  0.2358
  776MOL0     C 4690   5.414   8.841   7.912  0.3537  0.5452  0.2012
  776MOL0     C 4691   5.554   8.837   7.914 -0.8868 -0.9238  0.7145
  776MOL0     C 4692   5.620   8.798   7.780  0.9132  0.9361  0.2596
  776MOL0     H 4693   6.072   8.921   8.008  4.1440 -1.1117 -0.2909
  776MOL0     H 4694   6.273   8.887   8.094 -1.6393  4.1682 -1.2363
  776MOL0     H 4695   6.452   8.698   8.192  3.1914  1.5110 -1.3643
  776MOL0     H 4696   6.451   8.871   8.226 -1.1595  0.7855  1.0867
  776MOL0     H 4697   6.595   8.670   8.393  1.0001  0.3872  0.5851
  776MOL0     H 4698   6.526   8.819   8.468 -1.5380  0.6686 -1.5004
  776MOL0     H 4699   6.644   8.953   8.318 -1.0348 -0.7124  2.7143
  776MOL0     H 4700   6.705   8.825   8.218 -2.2789  0.6523 -0.7306
  776MOL0     H 4701   6.772   8.870   8.515  1.8103  3.5509 -1.1256
  776MOL0     H 4702   6.822   8.724   8.423  1.2010 -0.7758 -0.7555
  776MOL0     H 4703   6.894   9.007   8.353  2.5972  0.6038 -2.6597
  776MOL0     H 4704   6.988   8.898   8.462 -0.1489 -0.2244  0.1568
  776MOL0     H 4705   7.042   8.740   8.256 -0.1627 -0.0642  0.3230
  776MOL0     H 4706   6.931   8.850   8.168  0.6217 -0.1670 -1.0120
  776MOL0     H 4707   7.186   8.962   8.309  2.4254 -0.3456 -0.6771
  776MOL0     H 4708   7.085   9.052   8.213  1.6634  0.4910 -0.4894
  776MOL0     H 4709   7.116   8.882   8.023 -1.6319  0.9602  1.0827
  776MOL0     H 4710   7.256   8.983   8.064 -1.2678  0.0939 -1.0143
  776MOL0     H 4711   7.487   8.858   8.162  2.1467 -1.9251  0.9204
  776MOL0     H 4712   7.572   8.484   8.099  4.5735 -0.3618 -0.9244
  776MOL0     H 4713   7.638   8.646   8.059 -0.9110 -1.5115 -1.9788
  776MOL0     H 4714   7.687   8.710   8.277 -1.1140  0.6764  0.6474
  776MOL0     H 4715   7.577   8.581   8.343  0.5094 -2.0420  0.2256
  776MOL0     H 4716   7.845   8.538   8.179  1.0639 -0.8021  2.0652
  776MOL0     H 4717   7.760   8.415   8.266  3.2790 -0.8013 -1.2306
  776MOL0     H 4718   7.812   8.525   8.483  0.3915  0.1139 -0.2954
  776MOL0     H 4719   7.870   8.662   8.394  2.6813  0.3802  0.1307
  776MOL0     H 4720   8.197   8.352   8.368 -3.4938  0.8556 -1.0647
  776MOL0     H 4721   8.397   8.379   8.515 -0.4989 -1.3162 -0.3269
  776MOL0     H 4722   8.532   8.817   8.934 -1.2283 -1.6184 -1.0532
  776MOL0     H 4723   8.717   8.822   9.123 -1.9329  0.7332  1.5672
  776MOL0     H 4724   8.796   8.437   9.365  3.2311 -1.6992  0.3159
  776MOL0     H 4725   8.890   8.479   9.225 -0.9972 -1.5980  0.3495
  776MOL0     H 4726   8.937   8.530   9.508 -0.4355 -0.7595 -0.0693
  776MOL0     H 4727   9.050   8.494   9.383 -3.2357 -2.4929 -2.9590
  776MOL0     H 4728   9.027   8.740   9.296  1.9645  2.2153  0.8675
  776MOL0     H 4729   8.929   8.780   9.435 -0.8941 -0.2191 -1.2542
  776MOL0     H 4730   9.201   8.651   9.480 -0.5906 -0.3229  0.1833
  776MOL0     H 4731   9.111   8.749   9.582  2.2133  1.8849  0.3589
  776MOL0     H 4732   9.151   8.931   9.402 -3.6973 -2.8087  1.3029
  776MOL0     H 4733   9.274   8.825   9.344  0.6743 -0.2974  1.2180
  776MOL0     H 4734   9.244   8.931   9.623  1.4471 -0.5760  2.1179
  776MOL0     H 4735   9.369   8.809   9.580 -1.4764 -0.9703 -1.2457
  776MOL0     H 4736   9.489   8.962   9.450  2.3037 -1.5967  4.5086
  776MOL0     H 4737   9.464   9.022   9.598 -0.3910  1.2782  0.3251
  776MOL0     H 4738   9.298   9.106   9.356  0.5775  1.3843 -0.4274
  776MOL0     H 4739   9.261   9.166   9.521  0.9364 -0.5847  1.2176
  776MOL0     H 4740   8.614   8.417   9.217 -0.7544 -0.2783  0.4643
  776MOL0     H 4741   8.484   8.402   8.997  0.1911 -0.1869  1.6001
  776MOL0     H 4742   8.178   8.675   8.745 -0.3394 -0.0779  0.7053
  776MOL0     H 4743   8.009   8.671   8.583  1.6836  0.7190  1.0165
  776MOL0     H 4744   6.105   8.755   8.477  2.9413 -1.2319 -0.0828
  776MOL0     H 4745   5.878   8.815   8.387 -0.5985  2.9166  0.8308
  776MOL0     H 4746   5.605   8.939   8.230 -0.5775 -2.1567  1.0656
  776MOL0     H 4747   5.353   8.939   8.219  0.4153 -3.6979  2.9122
  776MOL0     H 4748   5.029   8.880   7.962  1.8578 -2.8735  3.3034
  776MOL0     H 4749   5.161   8.805   7.872  0.0378 -0.7936  1.8530
  776MOL0     H 4750   5.219   9.059   7.812 -1.4210  2.5857 -2.8579
  776MOL0     H 4751   5.059   9.096   7.876  1.0880 -0.0819  2.2706
  776MOL0     H 4752   4.993   8.907   7.709  0.6714 -0.6455  2.3435
  776MOL0     H 4753   5.163   8.923   7.651  0.8363 -0.0351  0.3073
  776MOL0     H 4754   4.939   9.130   7.670  0.3875  0.2201  0.8279
  776MOL0     H 4755   5.099   9.180   7.622 -1.8572  1.2857  1.7659
  776MOL0     H 4756   4.907   9.015   7.276  2.7511 -1.9727 -0.3513
  776MOL0     H 4757   5.369   8.817   7.816 -3.5626 -1.4194  2.2732
  776MOL0     H 4758   5.712   8.857   7.770  1.9147 -0.8822 -2.2639
  776MOL0     H 4759   5.631   8.690   7.776  1.1325  0.9470  0.5312
  776MOL0     H 4760   5.556   8.822   7.694  0.6881  2.7529  0.8730
  777MOL0     O 4761   9.510   8.301  10.804  0.5881  0.7373 -0.4173
  777MOL0     C 4762   9.418   8.371  10.763 -0.1642  0.5280 -0.5472
  777MOL0     O 4763   9.290   8.351  10.795 -0.5965  0.0175  0.4593
  777MOL0     C 4764   9.259   8.232  10.866  0.0135 -0.6722  0.2837
  777MOL0     C 4765   9.285   8.108  10.808 -0.5493  0.7063  0.2514
  777MOL0     C 4766   9.281   7.997  10.895  0.4456  0.0351  0.6051
  777MOL0     C 4767   9.245   8.006  11.025 -0.6567 -0.0647 -0.5624
  777MOL0     O 4768   9.265   7.908  11.109 -0.0647  0.5002 -0.3482
  777MOL0     C 4769   9.401   7.889  11.151 -0.8675 -0.5265  0.0009
  777MOL0     C 4770   9.423   7.740  11.182  0.0983 -1.5169  0.7923
  777MOL0     C 4771   9.569   7.703  11.170 -0.2117  0.0330 -0.5874
  777MOL0     C 4772   9.641   7.753  11.303 -0.6421  0.5355  0.2215
  777MOL0     C 4773   9.793   7.735  11.303 -0.5274 -0.7044 -0.1587
  777MOL0     C 4774   9.850   7.760  11.448  0.0244 -0.0315  0.1558
  777MOL0     C 4775   9.987   7.799  11.447 -1.8188 -0.6424 -0.0260
  777MOL0     C 4776  10.076   7.676  11.451  0.3918 -0.3027  0.2849
  777MOL0     N 4777  10.209   7.671  11.385  0.6199  0.1446  0.9723
  777MOL0     C 4778  10.212   7.673  11.244 -0.4131  0.2167  0.1133
  777MOL0     C 4779  10.337   7.674  11.220 -0.2465  1.1735  0.6531
  777MOL0     C 4780  10.388   7.653  11.075  0.0743  0.8101  1.6342
  777MOL0     C 4781  10.401   7.507  11.023 -0.3224 -0.1565 -0.7718
  777MOL0     C 4782  10.543   7.454  11.006 -0.1974  0.3099  0.1012
  777MOL0     C 4783  10.643   7.487  11.126  0.2406 -0.4869 -0.5122
  777MOL0     O 4784  10.764   7.405  11.118 -0.4857  0.6254 -0.2608
  777MOL0     C 4785  10.837   7.420  11.003  1.3088 -0.2921 -0.4687
  777MOL0     C 4786  10.881   7.315  10.933  0.0370 -0.3031  0.3083
  777MOL0     C 4787  10.947   7.327  10.813  0.3889 -0.2088  0.1666
  777MOL0     C 4788  10.990   7.450  10.767  0.1124  0.0509  0.2713
  777MOL0     C 4789  11.049   7.461  10.630 -0.7129  0.2233  0.3021
  777MOL0     O 4790  11.075   7.593  10.598  0.0894 -0.0902 -0.3801
  777MOL0     C 4791  11.098   7.629  10.469 -0.1035 -0.1526  0.3239
  777MOL0     C 4792  11.030   7.583  10.351  0.1350  0.4646 -1.1581
  777MOL0     C 4793  11.049   7.652  10.226  0.4135  0.2021  0.2200
  777MOL0     C 4794  11.161   7.736  10.201  0.4019  0.1852  0.1181
  777MOL0     O 4795  11.183   7.799  10.084  0.4908 -0.1091  0.0277
  777MOL0     C 4796  11.149   7.731   9.967  0.5073  0.6809 -0.5530
  777MOL0     C 4797  11.219   7.791   9.849  0.5058  0.7487  0.3648
  777MOL0     C 4798  11.132   7.759   9.719  0.5610 -1.5154 -0.4614
  777MOL0     C 4799  11.137   7.620   9.672  0.4725  0.0738  0.4680
  777MOL0     C 4800  10.992   7.570   9.624 -0.1741 -0.5093 -0.2730
  777MOL0     C 4801  10.990   7.435   9.553 -0.6776  0.4881  0.0569
  777MOL0     C 4802  10.849   7.368   9.569 -0.2901  0.1595  0.8588
  777MOL0     C 4803  10.836   7.259   9.462  0.2010  0.2292  0.2505
  777MOL0    Cl 4804  10.803   7.323   9.303 -0.0362 -0.6456  0.0660
  777MOL0     C 4805  11.230   7.776  10.315  0.6409  0.6854 -0.7156
  777MOL0     C 4806  11.206   7.720  10.446 -0.4542 -0.7544  0.1328
  777MOL0     O 4807  11.076   7.368  10.560  0.0147 -0.1566 -0.6668
  777MOL0     C 4808  10.962   7.560  10.845 -0.1454 -0.0801  0.0647
  777MOL0     C 4809  10.883   7.545  10.959  0.3492 -0.4274 -0.2227
  777MOL0     N 4810  10.413   7.675  11.339 -0.4273 -0.9229 -0.8156
  777MOL0     N 4811  10.334   7.682  11.431 -0.1057  0.8497  0.1016
  777MOL0     C 4812   9.193   8.122  11.072 -0.3412 -0.8938 -0.7867
  777MOL0     C 4813   9.208   8.238  10.998  0.7786  0.4446  0.7280
  777MOL0     C 4814   9.460   8.483  10.672  0.5152  0.1255  0.0230
  777MOL0     C 4815   9.586   8.468  10.598 -0.4873 -0.4105 -0.1630
  777MOL0     C 4816   9.623   8.573  10.509 -0.2478  1.1505  0.9558
  777MOL0     C 4817   9.546   8.698  10.495 -0.2131 -0.3207 -0.0918
  777MOL0     O 4818   9.604   8.797  10.418 -0.1418  0.1882  0.3133
  777MOL0     C 4819   9.527   8.844  10.304 -0.1900  0.8472 -0.8788
  777MOL0     C 4820   9.600   8.969  10.238 -0.2559  0.0442 -0.2935
  777MOL0     C 4821   9.750   8.987  10.290  0.3884  0.4474 -0.3419
  777MOL0     C 4822   9.836   8.997  10.177  0.4481  0.3891  0.2242
  777MOL0     C 4823   9.974   9.026  10.202 -0.0164 -0.5317  0.2732
  777MOL0     C 4824  10.079   9.052  10.243  0.0093  0.6369  0.2692
  777MOL0     C 4825   9.427   8.709  10.574  0.4871 -0.7579  0.4690
  777MOL0     C 4826   9.381   8.601  10.650 -0.1324 -0.5959 -0.4169
  777MOL0     C 4827   9.244   8.614  10.712  0.3974  0.3069 -0.0868
  777MOL0     H 4828   9.327   8.097  10.709 -1.0262 -0.3450  0.1544
  777MOL0     H 4829   9.310   7.905  10.846  1.8369  1.3756 -1.2597
  777MOL0     H 4830   9.475   7.929  11.081  1.7038  1.4904  3.5275
  777MOL0     H 4831   9.408   7.946  11.244 -0.3542 -2.0722  0.9606
  777MOL0     H 4832   9.373   7.675  11.109  0.1989  0.0180 -0.7210
  777MOL0     H 4833   9.394   7.709  11.282 -3.3561  0.1733  0.4611
  777MOL0     H 4834   9.597   7.754  11.077 -1.4005 -2.3518 -2.3828
  777MOL0     H 4835   9.566   7.594  11.156 -2.5161 -0.0359  0.0410
  777MOL0     H 4836   9.617   7.855  11.333  0.8350  1.9175 -2.8569
  777MOL0     H 4837   9.610   7.687  11.385 -0.4807 -0.0882 -0.2120
  777MOL0     H 4838   9.822   7.634  11.272  2.9859  0.6132 -1.6937
  777MOL0     H 4839   9.837   7.798  11.225 -0.7423 -1.8990 -1.2631
  777MOL0     H 4840   9.790   7.837  11.496  0.0768  0.7331 -0.9669
  777MOL0     H 4841   9.838   7.670  11.509  2.4542 -1.4115 -1.1984
  777MOL0     H 4842   9.998   7.857  11.539 -1.4949  1.2049 -1.1731
  777MOL0     H 4843  10.016   7.860  11.360 -3.3580  1.7557  1.0359
  777MOL0     H 4844  10.105   7.652  11.553  1.1236  0.8429  0.3705
  777MOL0     H 4845  10.020   7.593  11.407 -1.6775 -0.1783  2.5148
  777MOL0     H 4846  10.132   7.670  11.171  2.7418  2.4215 -3.8470
  777MOL0     H 4847  10.333   7.715  11.004  1.8291  1.4936  0.7948
  777MOL0     H 4848  10.485   7.703  11.069 -0.5006  1.8067 -1.0545
  777MOL0     H 4849  10.349   7.445  11.096 -1.8949  4.0495  2.0447
  777MOL0     H 4850  10.354   7.501  10.924 -0.3155 -2.9163 -0.6885
  777MOL0     H 4851  10.594   7.503  10.923 -1.2372  1.7240  0.2590
  777MOL0     H 4852  10.547   7.345  10.998  3.6389  0.1344  1.8518
  777MOL0     H 4853  10.587   7.462  11.216  0.4181  0.8919  0.0111
  777MOL0     H 4854  10.674   7.591  11.137 -0.4720  0.0249 -2.7876
  777MOL0     H 4855  10.834   7.224  10.968 -2.0326  0.2861 -0.7743
  777MOL0     H 4856  10.966   7.228  10.773  1.5125  0.0269  0.0844
  777MOL0     H 4857  10.949   7.510  10.358  0.4831  0.2348  3.0934
  777MOL0     H 4858  10.971   7.642  10.152  0.9869 -1.7751 -0.2013
  777MOL0     H 4859  11.178   7.625   9.972 -0.3507  0.4751  0.3461
  777MOL0     H 4860  11.041   7.724   9.951  0.1618  0.8489  1.4798
  777MOL0     H 4861  11.225   7.899   9.868  3.3486  0.5469  1.1413
  777MOL0     H 4862  11.322   7.758   9.833  0.3460 -0.1268  1.0945
  777MOL0     H 4863  11.030   7.796   9.735  1.6398  1.3820  0.2307
  777MOL0     H 4864  11.176   7.819   9.639  0.3428 -3.2156 -1.9085
  777MOL0     H 4865  11.147   7.556   9.760 -3.4871 -1.2012  0.1902
  777MOL0     H 4866  11.214   7.610   9.595  1.7535  0.4678  1.6784
  777MOL0     H 4867  10.955   7.636   9.545  0.1116 -0.0002  0.0135
  777MOL0     H 4868  10.921   7.576   9.707 -0.3668  0.8338 -0.5172
  777MOL0     H 4869  11.026   7.441   9.449 -0.0673  1.0719  0.2939
  777MOL0     H 4870  11.054   7.368   9.612 -1.5157  0.3819  0.8632
  777MOL0     H 4871  10.775   7.446   9.551  0.4570  0.7978  0.4985
  777MOL0     H 4872  10.834   7.324   9.668 -1.0132 -3.1513 -0.5716
  777MOL0     H 4873  10.905   7.175   9.457 -0.5135 -0.2997 -1.4022
  777MOL0     H 4874  10.748   7.204   9.496  0.1946  0.0713 -0.0191
  777MOL0     H 4875  11.309   7.849  10.302  0.5699  0.6852 -1.1577
  777MOL0     H 4876  11.261   7.750  10.535 -1.0562  0.4756  0.1173
  777MOL0     H 4877  10.998   7.659  10.819 -1.9937  0.4941 -0.4658
  777MOL0     H 4878  10.875   7.635  11.020  0.1866 -0.0783 -0.7527
  777MOL0     H 4879   9.167   8.127  11.177  0.5131 -1.4733 -0.5385
  777MOL0     H 4880   9.192   8.336  11.042  0.5526  2.1908 -2.8916
  777MOL0     H 4881   9.647   8.379  10.610 -1.8471 -1.2958  0.3173
  777MOL0     H 4882   9.724   8.575  10.470  0.5028 -0.5402  2.6777
  777MOL0     H 4883   9.421   8.851  10.328 -0.2783 -2.6188  0.2739
  777MOL0     H 4884   9.534   8.756  10.240 -0.4585 -0.3405  0.6771
  777MOL0     H 4885   9.547   9.064  10.254 -0.7509  0.4749 -3.6783
  777MOL0     H 4886   9.591   8.949  10.130  1.2211 -1.3171 -0.2062
  777MOL0     H 4887   9.785   8.908  10.358 -0.7756 -1.3961 -1.7902
  777MOL0     H 4888   9.751   9.084  10.340  0.2258  0.0457  0.4673
  777MOL0     H 4889   9.826   8.909  10.113 -3.4236  1.4419 -0.8952
  777MOL0     H 4890   9.790   9.073  10.113 -0.7408 -1.6320 -1.4613
  777MOL0     H 4891  10.178   9.068  10.280  0.0556 -2.1402  1.5773
  777MOL0     H 4892   9.382   8.808  10.571  3.4128  0.6908 -0.0953
  777MOL0     H 4893   9.207   8.717  10.712 -1.3213 -0.2669  0.0002
  777MOL0     H 4894   9.175   8.549  10.657  1.6003 -1.7445  0.7497
  777MOL0     H 4895   9.246   8.593  10.819  1.9556  0.2767 -0.1068
  778MOL0     O 4896   3.370  10.616   6.937 -0.6182  0.3395  0.0830
  778MOL0     C 4897   3.269  10.596   6.997  1.2997  0.7765 -0.0575
  778MOL0     O 4898   3.162  10.541   6.930  0.3538  0.4059  0.2422
  778MOL0     C 4899   3.171  10.529   6.790  1.3440  0.6089  0.3075
  778MOL0     C 4900   3.107  10.617   6.697 -0.5495  0.0486  0.1622
  778MOL0     C 4901   3.112  10.596   6.559  0.1575 -0.1839  0.0539
  778MOL0     C 4902   3.175  10.484   6.508  0.5086 -0.8219  0.1322
  778MOL0     O 4903   3.172  10.460   6.373 -0.0993 -0.0578 -0.0726
  778MOL0     C 4904   3.181  10.573   6.273  0.2136  0.8120 -0.4221
  778MOL0     C 4905   3.182  10.543   6.124  0.2348 -0.0113 -0.0035
  778MOL0     C 4906   3.184  10.671   6.045 -0.8540 -0.1424  0.2494
  778MOL0     C 4907   3.118  10.638   5.913 -0.2714 -0.1042 -0.2135
  778MOL0     C 4908   3.155  10.742   5.804 -0.1469  0.1321  0.7507
  778MOL0     C 4909   3.103  10.688   5.665 -1.3728 -0.8961 -0.4969
  778MOL0     C 4910   3.149  10.781   5.546 -0.1006  0.8718  0.6360
  778MOL0     C 4911   3.283  10.852   5.549 -0.1493 -0.1383  0.1981
  778MOL0     N 4912   3.397  10.767   5.542  0.3950 -0.1515 -0.2883
  778MOL0     C 4913   3.522  10.809   5.511  0.4434 -1.7509 -0.8978
  778MOL0     C 4914   3.602  10.697   5.520 -0.0098  0.2101 -0.6981
  778MOL0     C 4915   3.756  10.703   5.506 -0.1087 -0.0566 -0.2456
  778MOL0     C 4916   3.816  10.640   5.635  0.1347 -0.4783 -0.2624
  778MOL0     C 4917   3.820  10.486   5.634 -0.3587 -0.2821 -0.2115
  778MOL0     C 4918   3.908  10.426   5.736  0.2073  0.2033  0.8115
  778MOL0     O 4919   3.859  10.465   5.861 -0.0265 -0.2843  0.0956
  778MOL0     C 4920   3.785  10.387   5.934  1.0229  0.5744  0.4666
  778MOL0     C 4921   3.718  10.275   5.889 -0.3066  0.5872  0.7057
  778MOL0     C 4922   3.624  10.207   5.959  1.2010 -0.3008 -0.1151
  778MOL0     C 4923   3.593  10.249   6.084  0.0250  0.1252  0.8663
  778MOL0     C 4924   3.485  10.181   6.156 -0.0207 -0.5379 -1.1639
  778MOL0     O 4925   3.361  10.167   6.095  0.1355  0.5437 -0.3704
  778MOL0     C 4926   3.272  10.084   6.148  0.4115  0.6078 -0.0010
  778MOL0     C 4927   3.188  10.122   6.252 -0.6823  0.0396 -0.5624
  778MOL0     C 4928   3.086  10.049   6.300  0.2221 -0.1154  0.2448
  778MOL0     C 4929   3.066   9.918   6.244  0.7819 -0.1553  0.3876
  778MOL0     O 4930   2.972   9.830   6.277 -0.1735  1.1118 -0.3651
  778MOL0     C 4931   2.940   9.829   6.412  0.5162 -0.1834 -0.1877
  778MOL0     C 4932   2.845   9.715   6.445  0.0411  0.7934 -0.8295
  778MOL0     C 4933   2.697   9.749   6.427 -0.0032  0.1216 -0.1854
  778MOL0     C 4934   2.597   9.654   6.502  0.0278  0.2332  0.4585
  778MOL0     C 4935   2.542   9.705   6.639 -0.0896  0.2649 -1.1866
  778MOL0     C 4936   2.455   9.596   6.723  0.3353  0.2306  0.0517
  778MOL0     C 4937   2.551   9.497   6.790  0.3402 -0.1776 -1.0573
  778MOL0     C 4938   2.489   9.392   6.882  0.3869  0.5242 -0.2037
  778MOL0    Cl 4939   2.399   9.467   7.022  0.4866 -0.5323 -0.4750
  778MOL0     C 4940   3.148   9.883   6.136 -0.4058  0.9256 -0.6134
  778MOL0     C 4941   3.255   9.957   6.098 -0.2374  0.5817  0.3719
  778MOL0     O 4942   3.511  10.143   6.266 -0.8793  0.6008  0.8659
  778MOL0     C 4943   3.653  10.368   6.140  0.6428  0.4218 -0.9493
  778MOL0     C 4944   3.744  10.434   6.057 -0.9488 -0.2268 -0.2442
  778MOL0     N 4945   3.528  10.590   5.544  0.1073  0.4963 -0.4631
  778MOL0     N 4946   3.399  10.629   5.569  0.4083  0.6083  0.2542
  778MOL0     C 4947   3.221  10.388   6.602  0.1563 -0.3408 -0.6322
  778MOL0     C 4948   3.217  10.402   6.742  0.0193 -0.1179  0.6255
  778MOL0     C 4949   3.238  10.640   7.135 -0.3966  0.3011  0.0405
  778MOL0     C 4950   3.105  10.658   7.172 -0.1399 -0.1047  0.2766
  778MOL0     C 4951   3.062  10.720   7.284 -0.8109 -0.0772 -0.5623
  778MOL0     C 4952   3.159  10.769   7.378 -0.6191  0.8770 -0.3941
  778MOL0     O 4953   3.136  10.852   7.487  0.1659 -0.2767  0.6225
  778MOL0     C 4954   3.016  10.930   7.494 -0.2355  0.1802 -0.0566
  778MOL0     C 4955   3.028  11.061   7.411  0.6423 -0.0138  0.1815
  778MOL0     C 4956   3.013  11.032   7.264 -0.5083 -0.4145  0.7703
  778MOL0     C 4957   2.954  11.162   7.190  0.3392 -0.2337 -0.3605
  778MOL0     C 4958   2.797  11.167   7.191 -0.4034  0.0204  0.5584
  778MOL0     C 4959   2.673  11.179   7.200 -0.3423 -0.1605  0.5593
  778MOL0     C 4960   3.295  10.738   7.354 -1.3931 -0.2787 -0.2279
  778MOL0     C 4961   3.335  10.670   7.238  0.2437  0.1809 -0.8770
  778MOL0     C 4962   3.480  10.649   7.225 -0.7499 -0.5555  0.8473
  778MOL0     H 4963   3.053  10.706   6.728  0.6952  1.8355 -2.4976
  778MOL0     H 4964   3.056  10.665   6.497 -1.3971 -0.2958  1.2619
  778MOL0     H 4965   3.096  10.642   6.287 -1.2006 -0.3930 -2.5653
  778MOL0     H 4966   3.278  10.609   6.309  0.3062 -1.7753  2.3767
  778MOL0     H 4967   3.095  10.486   6.091  0.5568 -1.9219  2.1914
  778MOL0     H 4968   3.274  10.494   6.089 -0.0253  1.8943 -3.8207
  778MOL0     H 4969   3.283  10.717   6.037  0.4911 -3.1193 -2.5383
  778MOL0     H 4970   3.117  10.749   6.083 -2.3945 -0.8234 -0.9719
  778MOL0     H 4971   3.139  10.536   5.878 -1.7494 -0.8868  1.0552
  778MOL0     H 4972   3.010  10.639   5.932 -0.5195  2.8832 -1.2572
  778MOL0     H 4973   3.128  10.845   5.830  1.3044  1.3298 -2.1215
  778MOL0     H 4974   3.263  10.745   5.793 -0.2347  2.8885  0.0778
  778MOL0     H 4975   3.127  10.582   5.657 -0.6863 -0.9631  1.7798
  778MOL0     H 4976   2.994  10.689   5.675 -1.2806 -1.7847  0.8514
  778MOL0     H 4977   3.073  10.859   5.546 -1.0261  0.0237 -0.9604
  778MOL0     H 4978   3.129  10.728   5.452 -0.2627 -0.0368  1.1740
  778MOL0     H 4979   3.282  10.924   5.467  4.6946  1.5416  1.2422
  778MOL0     H 4980   3.281  10.915   5.639 -2.3387  3.8009 -2.3097
  778MOL0     H 4981   3.546  10.912   5.485 -0.4770 -1.3447 -0.1890
  778MOL0     H 4982   3.784  10.646   5.417 -1.6479 -0.0129 -0.7999
  778MOL0     H 4983   3.790  10.807   5.503  1.2835 -0.4504  0.8278
  778MOL0     H 4984   3.921  10.669   5.631  0.3068 -0.9457  0.6952
  778MOL0     H 4985   3.760  10.686   5.717  2.1612 -0.3344  1.0901
  778MOL0     H 4986   3.866  10.452   5.541  0.9268 -0.9783  0.6407
  778MOL0     H 4987   3.723  10.437   5.648  1.1141 -2.6661  3.4433
  778MOL0     H 4988   4.011  10.462   5.734  0.3075  0.1611  2.7067
  778MOL0     H 4989   3.913  10.319   5.716  0.1019  0.4115 -0.3713
  778MOL0     H 4990   3.732  10.227   5.793 -2.7098 -1.0824  1.1033
  778MOL0     H 4991   3.562  10.131   5.911 -0.3839  0.7741  0.1736
  778MOL0     H 4992   3.209  10.215   6.305 -3.4858  1.5553 -1.9173
  778MOL0     H 4993   3.029  10.102   6.377 -0.1865 -1.0402  0.5862
  778MOL0     H 4994   3.030   9.805   6.470  0.0166 -0.3316  0.5411
  778MOL0     H 4995   2.900   9.928   6.437  3.9505  1.8937 -2.0175
  778MOL0     H 4996   2.881   9.630   6.386  0.2525 -2.2179  3.1579
  778MOL0     H 4997   2.853   9.687   6.551 -2.0492  3.8344  0.2525
  778MOL0     H 4998   2.675   9.849   6.465 -0.5967 -0.0493 -0.0666
  778MOL0     H 4999   2.678   9.744   6.319  2.1668  1.3779 -0.6912
  778MOL0     H 5000   2.646   9.556   6.506  1.3925  0.9052  0.6759
  778MOL0     H 5001   2.510   9.645   6.438  0.4039 -0.7957  0.0752
  778MOL0     H 5002   2.493   9.802   6.629 -0.9258  0.3917  2.4602
  778MOL0     H 5003   2.633   9.713   6.699  0.0326 -2.0712 -0.9572
  778MOL0     H 5004   2.409   9.649   6.806 -0.4628 -0.9210  0.3765
  778MOL0     H 5005   2.381   9.543   6.662  1.4884 -1.9369  0.4066
  778MOL0     H 5006   2.629   9.554   6.841  1.3105 -1.9171 -0.5303
  778MOL0     H 5007   2.597   9.452   6.702  1.5703  0.5908 -0.8415
  778MOL0     H 5008   2.418   9.337   6.820  0.7336 -1.0883  0.7833
  778MOL0     H 5009   2.557   9.312   6.913 -1.3388 -0.8355  0.1920
  778MOL0     H 5010   3.136   9.782   6.100  6.2061  0.1445 -1.8418
  778MOL0     H 5011   3.308   9.942   6.004 -3.1571  1.8800 -1.6199
  778MOL0     H 5012   3.632  10.398   6.242 -2.6463  0.1406 -1.4221
  778MOL0     H 5013   3.778  10.532   6.090 -0.8273 -0.3350 -0.0445
  778MOL0     H 5014   3.254  10.299   6.549 -0.6686 -1.7887  1.1658
  778MOL0     H 5015   3.264  10.331   6.808  0.0249  0.0119  0.7625
  778MOL0     H 5016   3.022  10.632   7.106 -1.2499  1.0548  1.1751
  778MOL0     H 5017   2.955  10.733   7.285 -1.0551 -1.7279 -1.3881
  778MOL0     H 5018   3.007  10.960   7.599  1.0018  3.0961 -0.6729
  778MOL0     H 5019   2.927  10.873   7.467  0.1273 -0.0073 -0.8956
  778MOL0     H 5020   3.120  11.112   7.442  0.6624  0.3212 -0.4177
  778MOL0     H 5021   2.936  11.113   7.438  0.9769  1.0664 -0.6776
  778MOL0     H 5022   2.951  10.950   7.226 -0.7297  0.7164 -1.4451
  778MOL0     H 5023   3.111  11.008   7.222 -0.1821 -1.0305  1.8158
  778MOL0     H 5024   2.990  11.251   7.243 -0.1374  0.0257 -0.4667
  778MOL0     H 5025   2.993  11.176   7.089  1.0841  2.1028  0.1771
  778MOL0     H 5026   2.568  11.199   7.197 -0.2897  0.0091 -1.4434
  778MOL0     H 5027   3.373  10.781   7.416 -0.9346 -2.1794  0.6229
  778MOL0     H 5028   3.508  10.543   7.224  1.7731 -0.0111 -2.2305
  778MOL0     H 5029   3.513  10.682   7.126 -0.8092 -0.4621  0.8580
  778MOL0     H 5030   3.542  10.686   7.306  2.6879  2.1148 -2.6159
  779MOL0     O 5031   1.008   0.712   5.411  0.1228  0.0599 -0.4339
  779MOL0     C 5032   0.899   0.764   5.438 -0.7422  0.0156 -0.2652
  779MOL0     O 5033   0.785   0.718   5.384 -0.0394 -0.1443 -0.1681
  779MOL0     C 5034   0.787   0.593   5.326  0.3970 -0.1878 -0.3692
  779MOL0     C 5035   0.807   0.479   5.407  0.1047 -0.3267  0.2858
  779MOL0     C 5036   0.808   0.358   5.340  0.4373  0.0790  0.2755
  779MOL0     C 5037   0.784   0.342   5.203 -0.1402 -0.4666  0.4557
  779MOL0     O 5038   0.777   0.221   5.131  0.5083 -0.4778 -0.4258
  779MOL0     C 5039   0.791   0.101   5.214  0.7130 -0.2570  0.3320
  779MOL0     C 5040   0.763  -0.020   5.131  0.8584  0.2043 -0.1953
  779MOL0     C 5041   0.884  -0.115   5.120 -0.3654  0.8738  0.8333
  779MOL0     C 5042   0.842  -0.238   5.048  0.5086 -0.7732  0.4541
  779MOL0     C 5043   0.961  -0.336   5.027  0.0091  0.0228  0.0403
  779MOL0     C 5044   0.929  -0.453   4.939  1.0824 -0.2672 -0.4046
  779MOL0     C 5045   1.036  -0.557   4.944  0.7805  0.3598 -0.4800
  779MOL0     C 5046   1.009  -0.640   5.069 -0.1550  0.3362 -0.0121
  779MOL0     N 5047   1.090  -0.757   5.087  0.7834  0.1952  0.2517
  779MOL0     C 5048   1.036  -0.884   5.061  0.2385 -0.2924  0.3699
  779MOL0     C 5049   1.144  -0.963   5.058  0.2649  0.4382 -0.4971
  779MOL0     C 5050   1.138  -1.114   5.047 -0.3877 -0.0595 -0.6476
  779MOL0     C 5051   1.204  -1.166   4.915 -0.3653 -0.1423  0.0742
  779MOL0     C 5052   1.137  -1.106   4.792  0.5384  0.5538  0.0438
  779MOL0     C 5053   0.996  -1.168   4.769  1.0641  0.3793  0.2738
  779MOL0     O 5054   0.892  -1.080   4.822  0.5914  1.2023  0.7743
  779MOL0     C 5055   0.865  -0.963   4.765  0.3601  1.0520  0.1033
  779MOL0     C 5056   0.912  -0.927   4.640  0.1867  0.2322  0.2009
  779MOL0     C 5057   0.862  -0.813   4.576  0.0638 -0.3547  0.3325
  779MOL0     C 5058   0.768  -0.732   4.644  0.3244 -0.3397  0.2958
  779MOL0     C 5059   0.738  -0.603   4.581  1.4484  0.5234  0.2105
  779MOL0     O 5060   0.620  -0.553   4.627 -0.0373 -0.0724  0.3380
  779MOL0     C 5061   0.551  -0.452   4.565 -0.5330  0.7884  0.8395
  779MOL0     C 5062   0.521  -0.344   4.647  0.2135  0.9690 -0.0243
  779MOL0     C 5063   0.440  -0.235   4.600  0.4450  0.7008 -0.5678
  779MOL0     C 5064   0.405  -0.229   4.466 -0.3830 -0.0177  0.2930
  779MOL0     O 5065   0.347  -0.121   4.428 -0.1971 -0.3673 -0.7771
  779MOL0     C 5066   0.337  -0.094   4.292 -1.0525  0.5296  1.0328
  779MOL0     C 5067   0.248   0.031   4.272 -0.1361  0.1087 -1.2439
  779MOL0     C 5068   0.327   0.151   4.324  0.0660  0.0577  0.7568
  779MOL0     C 5069   0.287   0.285   4.241 -0.5968 -1.1049 -0.7894
  779MOL0     C 5070   0.378   0.412   4.284 -0.6364 -0.1665 -0.2400
  779MOL0     C 5071   0.537   0.390   4.287  0.3681  0.4627  0.4904
  779MOL0     C 5072   0.621   0.512   4.315 -0.2169 -0.8126 -0.0289
  779MOL0     C 5073   0.769   0.471   4.311 -0.0511 -0.4712 -0.4742
  779MOL0    Cl 5074   0.879   0.601   4.356 -0.3876  0.7576 -0.5165
  779MOL0     C 5075   0.440  -0.338   4.381 -1.2613  0.2796  0.2834
  779MOL0     C 5076   0.510  -0.450   4.426  0.2793  0.2291  0.6131
  779MOL0     O 5077   0.817  -0.539   4.510 -0.8371 -0.0744  0.0922
  779MOL0     C 5078   0.736  -0.759   4.777  0.6770 -0.7429  0.2028
  779MOL0     C 5079   0.777  -0.879   4.836  0.7235  0.6693 -0.2026
  779MOL0     N 5080   1.263  -0.889   5.075 -0.2236 -0.5254 -0.3033
  779MOL0     N 5081   1.228  -0.761   5.070  0.7642 -0.1304  0.4867
  779MOL0     C 5082   0.771   0.455   5.131  0.1335 -0.9170 -0.0233
  779MOL0     C 5083   0.767   0.589   5.193  0.3328  0.4357  0.3412
  779MOL0     C 5084   0.912   0.876   5.531 -0.0241 -0.0675 -0.2477
  779MOL0     C 5085   1.009   0.863   5.636  0.1221 -0.0591  0.0862
  779MOL0     C 5086   1.018   0.954   5.742  0.8593 -0.3985 -1.0318
  779MOL0     C 5087   0.924   1.059   5.747 -0.6399 -0.2206  0.3233
  779MOL0     O 5088   0.948   1.156   5.838  1.0480 -0.8406  0.5364
  779MOL0     C 5089   0.854   1.260   5.853 -0.3292 -0.4095  0.0517
  779MOL0     C 5090   0.901   1.380   5.946 -0.3654 -0.4447 -0.3307
  779MOL0     C 5091   1.043   1.412   5.906  0.1632  1.0118  0.0784
  779MOL0     C 5092   1.110   1.542   5.955  0.2413 -0.4832  1.0322
  779MOL0     C 5093   1.013   1.650   5.949 -0.0682 -0.3892  0.1858
  779MOL0     C 5094   0.911   1.720   5.948 -0.9289 -1.2416  1.3529
  779MOL0     C 5095   0.827   1.077   5.650 -0.0575  0.3309  1.1678
  779MOL0     C 5096   0.814   0.984   5.540  0.5828 -0.0697 -0.3303
  779MOL0     C 5097   0.696   1.001   5.447  0.2802  0.0384  0.1153
  779MOL0     H 5098   0.834   0.488   5.511  0.3222 -0.1463  0.2146
  779MOL0     H 5099   0.830   0.271   5.402  1.8795  1.1506  1.3220
  779MOL0     H 5100   0.895   0.089   5.246  0.6353  1.2787  1.3161
  779MOL0     H 5101   0.717   0.099   5.295 -0.5045  2.7866 -0.5354
  779MOL0     H 5102   0.716   0.002   5.035 -0.9716  0.4477  0.7150
  779MOL0     H 5103   0.684  -0.078   5.179  1.5228 -1.1586 -0.7113
  779MOL0     H 5104   0.922  -0.142   5.219 -2.8310 -1.4628  1.2559
  779MOL0     H 5105   0.967  -0.070   5.066  0.3388  0.9711  1.9712
  779MOL0     H 5106   0.772  -0.298   5.106  0.6028 -2.0726 -0.7162
  779MOL0     H 5107   0.796  -0.212   4.952  3.5723 -0.9850 -1.2125
  779MOL0     H 5108   1.047  -0.290   4.979  1.7210 -4.0080 -1.2266
  779MOL0     H 5109   0.997  -0.367   5.125  2.9077  1.1582 -0.5677
  779MOL0     H 5110   0.828  -0.491   4.950  1.1601  0.0517  1.7683
  779MOL0     H 5111   0.935  -0.411   4.838 -1.1571 -1.2994 -1.0206
  779MOL0     H 5112   1.130  -0.503   4.957  0.1131  1.0294  1.9385
  779MOL0     H 5113   1.015  -0.629   4.864 -6.6148 -1.1655  2.0784
  779MOL0     H 5114   1.038  -0.580   5.156  0.3594  1.7444 -1.1124
  779MOL0     H 5115   0.907  -0.680   5.073  0.0355 -0.1355  0.1950
  779MOL0     H 5116   0.935  -0.923   5.054 -0.0353  0.5731 -0.9432
  779MOL0     H 5117   1.192  -1.168   5.126 -1.4934 -2.1853 -1.2630
  779MOL0     H 5118   1.034  -1.149   5.048 -0.5679  0.4845 -0.1749
  779MOL0     H 5119   1.311  -1.141   4.924 -0.4217  0.2993 -0.4183
  779MOL0     H 5120   1.199  -1.275   4.914 -0.8571 -0.1328 -1.2137
  779MOL0     H 5121   1.196  -1.146   4.709  0.8810 -0.7294  0.8821
  779MOL0     H 5122   1.121  -0.998   4.796  0.1795  0.4721  1.1502
  779MOL0     H 5123   0.984  -1.259   4.829 -2.0496  0.9759  0.7191
  779MOL0     H 5124   0.974  -1.194   4.665  2.1961  0.0396  0.1083
  779MOL0     H 5125   0.991  -0.984   4.593  1.1564  0.8339  1.0430
  779MOL0     H 5126   0.902  -0.789   4.477  0.7664  1.5514  1.0277
  779MOL0     H 5127   0.546  -0.354   4.752 -0.5852 -1.1623 -0.0087
  779MOL0     H 5128   0.412  -0.155   4.668 -0.2344 -1.3220  1.6851
  779MOL0     H 5129   0.434  -0.084   4.242 -1.1745 -1.8419  0.1951
  779MOL0     H 5130   0.284  -0.179   4.248  0.8980 -1.5590  2.4932
  779MOL0     H 5131   0.228   0.062   4.169  0.9558  0.6512 -1.3082
  779MOL0     H 5132   0.163   0.022   4.341 -1.2931  1.6459 -2.4050
  779MOL0     H 5133   0.306   0.164   4.431 -0.0354 -0.7000  0.8290
  779MOL0     H 5134   0.434   0.129   4.313 -0.4420 -1.4060 -1.9897
  779MOL0     H 5135   0.180   0.307   4.250 -0.5940 -0.5363 -1.9399
  779MOL0     H 5136   0.314   0.273   4.136  0.3116 -0.5752 -0.6278
  779MOL0     H 5137   0.355   0.432   4.389 -0.3145 -1.0615  0.0135
  779MOL0     H 5138   0.361   0.493   4.213  1.1964 -0.1743 -0.7573
  779MOL0     H 5139   0.551   0.313   4.363  0.9667  0.4477  0.3730
  779MOL0     H 5140   0.557   0.353   4.186 -0.6306  0.9564  0.0998
  779MOL0     H 5141   0.582   0.544   4.412 -0.1937  4.7683 -1.5095
  779MOL0     H 5142   0.602   0.590   4.241 -3.3727 -3.9558 -2.9419
  779MOL0     H 5143   0.777   0.400   4.394  1.3407  1.9487  1.6281
  779MOL0     H 5144   0.797   0.429   4.214  2.6886 -1.7100  0.7508
  779MOL0     H 5145   0.422  -0.335   4.274 -0.1918  2.7090  0.0916
  779MOL0     H 5146   0.528  -0.534   4.360 -3.1506 -0.5790  0.4922
  779MOL0     H 5147   0.653  -0.700   4.816 -0.7618 -2.3557 -0.2983
  779MOL0     H 5148   0.726  -0.905   4.928 -3.5003  0.2782 -2.3954
  779MOL0     H 5149   0.760   0.447   5.023  0.5232  1.4881 -0.2925
  779MOL0     H 5150   0.761   0.672   5.124 -1.8537  0.4868  0.5257
  779MOL0     H 5151   1.087   0.789   5.623 -0.4680 -0.3084 -2.8876
  779MOL0     H 5152   1.106   0.952   5.805  0.6704 -0.3072 -0.7650
  779MOL0     H 5153   0.755   1.216   5.870 -1.2621  0.1096 -3.2821
  779MOL0     H 5154   0.848   1.318   5.760 -0.3845  2.3661  1.6777
  779MOL0     H 5155   0.896   1.366   6.054 -2.9342 -0.4570 -0.4039
  779MOL0     H 5156   0.835   1.465   5.924  3.5632  3.3462  0.9405
  779MOL0     H 5157   1.026   1.422   5.798  0.9464 -0.7004 -0.2383
  779MOL0     H 5158   1.106   1.323   5.920 -0.2305  0.5874 -0.7303
  779MOL0     H 5159   1.146   1.527   6.057  2.3119  0.7321  0.5224
  779MOL0     H 5160   1.193   1.570   5.890  2.5712  0.1748  4.0836
  779MOL0     H 5161   0.837   1.797   5.953 -1.7676 -2.0297  1.4003
  779MOL0     H 5162   0.755   1.157   5.667  1.1350  1.9040 -0.7990
  779MOL0     H 5163   0.608   0.954   5.494 -1.0599  1.6318 -0.6759
  779MOL0     H 5164   0.675   1.107   5.431  0.9556  0.3126  0.9643
  779MOL0     H 5165   0.717   0.960   5.348 -2.3130  0.1673 -0.5705
  780MOL0     O 5166   0.217   4.300   1.307 -0.1915 -0.4664 -0.4752
  780MOL0     C 5167   0.318   4.338   1.250 -0.3894 -0.3627  1.1791
  780MOL0     O 5168   0.350   4.309   1.123  0.6362 -0.4640  0.7665
  780MOL0     C 5169   0.249   4.259   1.043 -0.7205 -0.0880 -1.1542
  780MOL0     C 5170   0.277   4.146   0.961 -0.3124 -0.6923  0.3814
  780MOL0     C 5171   0.183   4.098   0.865 -0.4434 -0.2008  0.2798
  780MOL0     C 5172   0.056   4.161   0.847  0.1405 -0.4650  0.3572
  780MOL0     O 5173  -0.034   4.101   0.760  0.6212 -0.4447  0.0800
  780MOL0     C 5174  -0.141   4.172   0.710  0.3673  0.6137 -0.7700
  780MOL0     C 5175  -0.228   4.107   0.613  0.4569  0.4320  0.9591
  780MOL0     C 5176  -0.307   3.983   0.666  0.0567  0.6314 -0.1238
  780MOL0     C 5177  -0.426   3.957   0.583 -0.0375  0.6974  0.0793
  780MOL0     C 5178  -0.505   3.840   0.657 -0.1302 -0.2036 -0.8062
  780MOL0     C 5179  -0.646   3.815   0.585  0.1371  0.5542  0.3352
  780MOL0     C 5180  -0.731   3.710   0.652  0.0733 -0.3092  1.1789
  780MOL0     C 5181  -0.885   3.719   0.618 -0.7678 -0.4673  1.2368
  780MOL0     N 5182  -0.911   3.706   0.474  1.0324  0.4261  0.3935
  780MOL0     C 5183  -0.991   3.791   0.406  0.7619 -0.1831 -0.2010
  780MOL0     C 5184  -1.039   3.731   0.294 -0.3340 -0.7166  0.6898
  780MOL0     C 5185  -1.124   3.796   0.194 -0.1688 -0.5060  1.1329
  780MOL0     C 5186  -1.067   3.763   0.049  0.9035 -0.4055  0.1227
  780MOL0     C 5187  -0.946   3.853   0.006 -0.0767  0.3913 -0.9136
  780MOL0     C 5188  -0.814   3.804   0.069 -0.5750 -0.3572  0.0147
  780MOL0     O 5189  -0.710   3.907   0.046 -0.6378 -0.1843  0.0007
  780MOL0     C 5190  -0.583   3.877   0.108 -0.4662  0.1622  0.1856
  780MOL0     C 5191  -0.559   3.762   0.183  0.3616 -0.6715 -0.7164
  780MOL0     C 5192  -0.440   3.744   0.257  0.2558 -0.3018 -0.4529
  780MOL0     C 5193  -0.332   3.838   0.232  0.4792  0.2869 -0.3786
  780MOL0     C 5194  -0.202   3.815   0.292 -1.1377  0.1107 -1.3769
  780MOL0     O 5195  -0.098   3.895   0.247 -0.1661  0.3945  0.6966
  780MOL0     C 5196   0.023   3.895   0.296  0.9526  0.3450 -0.5193
  780MOL0     C 5197   0.057   3.881   0.438 -0.5447 -0.7749 -0.1576
  780MOL0     C 5198   0.196   3.881   0.467  0.4529 -0.5195 -0.7283
  780MOL0     C 5199   0.297   3.898   0.369  0.9832 -0.4585  0.5753
  780MOL0     O 5200   0.427   3.872   0.397 -0.4578  0.3073 -0.6046
  780MOL0     C 5201   0.508   3.990   0.383  0.0293  0.3103 -0.0215
  780MOL0     C 5202   0.492   4.083   0.500  0.4623  0.2679 -0.3384
  780MOL0     C 5203   0.610   4.066   0.608  0.1860 -0.8323  0.7556
  780MOL0     C 5204   0.598   4.148   0.741 -0.4939  0.0693 -0.2909
  780MOL0     C 5205   0.660   4.066   0.855  0.5537 -0.5076  0.3167
  780MOL0     C 5206   0.813   4.081   0.872  0.5884  0.1846  0.1789
  780MOL0     C 5207   0.842   4.130   1.018  0.0396 -0.5912  0.6671
  780MOL0     C 5208   0.985   4.098   1.062  0.8261 -0.5631  0.6162
  780MOL0    Cl 5209   0.997   4.164   1.239 -0.4764 -0.0224  0.1492
  780MOL0     C 5210   0.254   3.911   0.238  0.2966 -0.1051  0.3490
  780MOL0     C 5211   0.119   3.904   0.202 -0.5666 -0.7328  0.0487
  780MOL0     O 5212  -0.192   3.744   0.389 -0.3199 -0.5263 -0.1272
  780MOL0     C 5213  -0.354   3.951   0.154 -0.0022 -0.2293  0.7051
  780MOL0     C 5214  -0.481   3.972   0.102  0.8718 -0.0220 -0.0659
  780MOL0     N 5215  -0.995   3.601   0.301  0.9333 -0.0022  0.2433
  780MOL0     N 5216  -0.922   3.587   0.406 -0.1241  0.5954 -1.0028
  780MOL0     C 5217   0.027   4.274   0.934 -0.1451  0.1209 -0.3980
  780MOL0     C 5218   0.129   4.331   1.022  0.4297 -0.5342  0.1947
  780MOL0     C 5219   0.433   4.371   1.329 -0.5637  0.9396  0.7390
  780MOL0     C 5220   0.548   4.298   1.297  0.3966  0.9389 -0.3480
  780MOL0     C 5221   0.672   4.324   1.363 -0.8716  0.4410  0.3951
  780MOL0     C 5222   0.675   4.428   1.461  0.2414  0.2769  0.0299
  780MOL0     O 5223   0.784   4.477   1.532  0.3106 -0.1230  0.2870
  780MOL0     C 5224   0.887   4.375   1.547  0.4667 -0.5678 -0.2706
  780MOL0     C 5225   0.965   4.388   1.688  0.1757 -0.4567  1.1716
  780MOL0     C 5226   0.886   4.383   1.821  0.5360 -0.1043 -0.4513
  780MOL0     C 5227   0.974   4.370   1.947  0.4306 -0.9851 -0.5611
  780MOL0     C 5228   1.031   4.233   1.962 -0.0136  0.0594 -0.5519
  780MOL0     C 5229   1.073   4.116   1.975  0.3956 -0.5739 -0.4263
  780MOL0     C 5230   0.554   4.495   1.485  0.3848  0.5796  0.1711
  780MOL0     C 5231   0.431   4.467   1.425  0.3337  0.4820  0.2598
  780MOL0     C 5232   0.304   4.545   1.463  1.4643  0.6112 -0.1422
  780MOL0     H 5233   0.369   4.089   0.966  0.7974  0.2155 -4.6889
  780MOL0     H 5234   0.217   4.017   0.801 -1.8569  0.3713 -1.2565
  780MOL0     H 5235  -0.197   4.189   0.802 -0.4877  0.0283 -1.1688
  780MOL0     H 5236  -0.098   4.264   0.670 -0.3970  0.8510 -1.0661
  780MOL0     H 5237  -0.156   4.080   0.534  1.1398  2.5822  0.7848
  780MOL0     H 5238  -0.300   4.168   0.558  0.2956 -1.6219 -1.3051
  780MOL0     H 5239  -0.338   4.001   0.769 -1.2165  2.2998 -0.7530
  780MOL0     H 5240  -0.251   3.891   0.648  0.3217  1.0974 -1.8722
  780MOL0     H 5241  -0.491   4.042   0.560 -1.5468 -0.0718  1.3130
  780MOL0     H 5242  -0.386   3.919   0.488 -0.5574 -1.3939  0.6539
  780MOL0     H 5243  -0.447   3.748   0.674 -0.8422 -0.1116  2.9669
  780MOL0     H 5244  -0.522   3.872   0.760  1.2047 -0.1883 -0.5745
  780MOL0     H 5245  -0.708   3.905   0.586  2.2361  2.0613  0.2378
  780MOL0     H 5246  -0.628   3.786   0.481  1.9806 -0.0317  0.7875
  780MOL0     H 5247  -0.725   3.735   0.758  0.1621 -1.5061  1.4724
  780MOL0     H 5248  -0.691   3.609   0.641 -1.9504 -1.1432  1.1630
  780MOL0     H 5249  -0.923   3.630   0.670  2.0792 -1.5993  1.5349
  780MOL0     H 5250  -0.933   3.808   0.660 -1.7662 -1.5851  2.5882
  780MOL0     H 5251  -1.018   3.895   0.422 -1.8318 -0.9997  1.2292
  780MOL0     H 5252  -1.221   3.745   0.197 -1.9186  2.4241 -0.7574
  780MOL0     H 5253  -1.139   3.903   0.213  0.8992 -0.0716 -0.2859
  780MOL0     H 5254  -1.045   3.656   0.053 -3.9013 -1.6053  1.7638
  780MOL0     H 5255  -1.148   3.787  -0.020  0.9351  0.3078  0.3294
  780MOL0     H 5256  -0.971   3.951   0.048 -2.0978  0.0113 -1.0892
  780MOL0     H 5257  -0.931   3.857  -0.102  1.3911  0.5161 -0.7129
  780MOL0     H 5258  -0.782   3.724   0.003 -0.7722  2.0799 -3.3018
  780MOL0     H 5259  -0.811   3.790   0.178  0.9208  0.5046  0.1183
  780MOL0     H 5260  -0.641   3.691   0.189 -1.9033  1.8077 -0.3503
  780MOL0     H 5261  -0.424   3.649   0.308 -0.9583 -0.2607  0.0437
  780MOL0     H 5262  -0.017   3.859   0.514  1.6265  0.3545  2.4691
  780MOL0     H 5263   0.226   3.862   0.570  1.5404  1.3977 -0.6594
  780MOL0     H 5264   0.610   3.953   0.368 -0.8326 -2.3832  0.3230
  780MOL0     H 5265   0.491   4.045   0.290  0.8485 -2.0125 -1.6563
  780MOL0     H 5266   0.510   4.185   0.463 -1.9748  0.5070 -1.0263
  780MOL0     H 5267   0.397   4.072   0.554 -0.2979  0.6300 -1.5652
  780MOL0     H 5268   0.613   3.959   0.631 -0.1723 -1.6239 -2.4779
  780MOL0     H 5269   0.704   4.094   0.560 -0.5549  2.3374  0.9654
  780MOL0     H 5270   0.491   4.152   0.764 -0.5318 -3.2964  0.6806
  780MOL0     H 5271   0.642   4.248   0.742  0.5435 -0.3674  1.4770
  780MOL0     H 5272   0.639   3.961   0.831 -1.3406  0.0086 -0.5045
  780MOL0     H 5273   0.606   4.096   0.946 -1.1806  1.9950 -1.4039
  780MOL0     H 5274   0.870   3.988   0.878  1.6479  0.5765 -2.4177
  780MOL0     H 5275   0.854   4.147   0.796 -0.9924  0.7709 -0.2078
  780MOL0     H 5276   0.775   4.082   1.090 -0.7073  3.3820  2.9039
  780MOL0     H 5277   0.820   4.236   1.031  0.5498 -0.2415 -1.0882
  780MOL0     H 5278   1.004   3.991   1.072  3.9568  0.0292  2.1103
  780MOL0     H 5279   1.063   4.137   0.996  0.6125  0.2423  0.8243
  780MOL0     H 5280   0.320   3.912   0.152 -0.6665 -2.2383 -0.5077
  780MOL0     H 5281   0.084   3.902   0.100 -3.5687 -2.6113  0.9832
  780MOL0     H 5282  -0.282   4.031   0.165  1.5005 -1.7560  2.6875
  780MOL0     H 5283  -0.495   4.067   0.051 -0.3321  0.0642  0.3948
  780MOL0     H 5284  -0.066   4.328   0.924 -0.3696 -0.1109  0.3671
  780MOL0     H 5285   0.135   4.433   1.061  1.0031  0.0704 -1.3919
  780MOL0     H 5286   0.542   4.216   1.226  1.6790  0.8827 -0.4146
  780MOL0     H 5287   0.771   4.288   1.338 -1.5972 -1.2573 -0.1564
  780MOL0     H 5288   0.953   4.390   1.461 -0.4532 -3.3032 -1.5373
  780MOL0     H 5289   0.842   4.276   1.544 -0.8624 -0.0183  0.3105
  780MOL0     H 5290   1.010   4.487   1.680  0.6094 -0.7673 -1.1753
  780MOL0     H 5291   1.045   4.314   1.699  0.4267 -0.1476  1.4285
  780MOL0     H 5292   0.811   4.304   1.826  0.9445 -0.4572  0.2278
  780MOL0     H 5293   0.828   4.476   1.828 -0.0307 -0.1804 -3.0079
  780MOL0     H 5294   1.054   4.444   1.939 -1.2140  1.2420  1.7888
  780MOL0     H 5295   0.912   4.404   2.031  0.2322  0.6867 -1.3361
  780MOL0     H 5296   1.114   4.018   1.979 -1.1402 -1.2234  1.5461
  780MOL0     H 5297   0.563   4.572   1.560  1.7348 -1.3437  2.1031
  780MOL0     H 5298   0.229   4.480   1.508 -0.0981  1.9399 -0.6993
  780MOL0     H 5299   0.328   4.618   1.541 -0.9473 -0.3306  1.6076
  780MOL0     H 5300   0.264   4.596   1.374  1.8248 -1.8562 -1.8384
  781MOL0     O 5301   4.254   8.975   0.260 -0.6169 -0.0537  0.1965
  781MOL0     C 5302   4.225   8.856   0.277  0.9362  0.7325  0.1264
  781MOL0     O 5303   4.209   8.761   0.178 -0.1111 -0.9189 -0.0839
  781MOL0     C 5304   4.165   8.802   0.055 -0.4639  0.3472  0.0333
  781MOL0     C 5305   4.228   8.749  -0.065  0.3294  0.3247 -0.7079
  781MOL0     C 5306   4.181   8.776  -0.199  0.0076  0.8067 -0.0355
  781MOL0     C 5307   4.076   8.867  -0.201  0.1728 -0.1978  0.4300
  781MOL0     O 5308   4.014   8.914  -0.318 -0.4233 -0.0709 -0.1216
  781MOL0     C 5309   4.089   8.976  -0.422 -0.1807 -0.3714  0.4494
  781MOL0     C 5310   4.007   9.071  -0.511  0.5945 -0.4178 -0.5300
  781MOL0     C 5311   3.939   9.186  -0.436  0.0979  0.1351 -0.3560
  781MOL0     C 5312   4.039   9.287  -0.404 -0.1642  0.2945  0.8267
  781MOL0     C 5313   3.990   9.406  -0.311 -0.6017 -0.1042  0.5370
  781MOL0     C 5314   3.918   9.362  -0.183 -0.3696 -0.4552  0.0032
  781MOL0     C 5315   3.875   9.484  -0.097  0.4100  0.2821 -0.1970
  781MOL0     C 5316   3.783   9.429   0.011 -0.3305  0.6629  0.1478
  781MOL0     N 5317   3.847   9.353   0.122  0.8873 -0.1435 -0.1010
  781MOL0     C 5318   3.895   9.416   0.240  0.4891  0.6447  0.1087
  781MOL0     C 5319   3.994   9.336   0.286 -0.0299 -0.1966 -0.1257
  781MOL0     C 5320   4.078   9.367   0.400  0.6183 -0.1131  0.3918
  781MOL0     C 5321   4.180   9.466   0.351 -0.6872 -0.6279  0.7263
  781MOL0     C 5322   4.126   9.603   0.323 -0.3119  0.2958 -0.6535
  781MOL0     C 5323   4.235   9.714   0.349  0.0956 -0.0239  0.1615
  781MOL0     O 5324   4.199   9.811   0.447 -0.1185 -0.1002 -0.3986
  781MOL0     C 5325   4.250   9.939   0.443  0.2118 -0.3809  0.0580
  781MOL0     C 5326   4.174  10.036   0.503 -0.2821 -1.0800  0.1468
  781MOL0     C 5327   4.223  10.165   0.502  0.5742 -0.1701  0.1713
  781MOL0     C 5328   4.346  10.192   0.439  0.3341  0.2309  0.6380
  781MOL0     C 5329   4.419  10.315   0.457  0.6423 -0.2535  0.4464
  781MOL0     O 5330   4.556  10.302   0.486  0.4161 -0.5993  0.0534
  781MOL0     C 5331   4.628  10.421   0.465 -0.4492  0.4859  0.7903
  781MOL0     C 5332   4.652  10.473   0.341  0.2905  0.4159  0.9385
  781MOL0     C 5333   4.718  10.599   0.326 -0.5092 -0.6829 -0.3420
  781MOL0     C 5334   4.772  10.655   0.440  0.1654 -0.1147 -0.3527
  781MOL0     O 5335   4.830  10.778   0.434 -0.3773 -0.1887  0.8249
  781MOL0     C 5336   4.746  10.883   0.385 -0.1590 -0.2380  0.3482
  781MOL0     C 5337   4.632  10.911   0.478 -0.0117 -0.8579  0.3102
  781MOL0     C 5338   4.554  11.032   0.431  0.0581  0.3811  0.2719
  781MOL0     C 5339   4.410  11.052   0.496 -0.6782  0.7271 -0.5275
  781MOL0     C 5340   4.344  11.183   0.450  0.6820 -0.9170 -0.6870
  781MOL0     C 5341   4.192  11.160   0.432  0.2082 -0.7364  0.1520
  781MOL0     C 5342   4.114  11.284   0.395 -0.1271  0.3032 -0.4603
  781MOL0     C 5343   4.019  11.255   0.283 -0.2834  0.3030  0.1223
  781MOL0    Cl 5344   3.944  11.404   0.212 -0.4185  0.3174  0.2490
  781MOL0     C 5345   4.751  10.597   0.563  0.4049 -0.9363  0.6091
  781MOL0     C 5346   4.673  10.484   0.574 -0.2369  0.4440 -0.5560
  781MOL0     O 5347   4.352  10.413   0.426 -0.3001  0.0463  0.2067
  781MOL0     C 5348   4.409  10.088   0.374  0.4051  0.4842  0.3671
  781MOL0     C 5349   4.368   9.958   0.378  0.0547  0.1652 -0.0950
  781MOL0     N 5350   4.002   9.229   0.199  0.3503 -0.6723  0.4948
  781MOL0     N 5351   3.913   9.244   0.108 -0.0543  0.5031 -0.6597
  781MOL0     C 5352   4.034   8.937  -0.093 -0.0793 -0.2801  0.2838
  781MOL0     C 5353   4.072   8.898   0.037  1.3538 -0.2157 -0.1056
  781MOL0     C 5354   4.226   8.792   0.413  0.3736  1.0616  1.1066
  781MOL0     C 5355   4.256   8.654   0.419  0.3725  0.1281 -0.0067
  781MOL0     C 5356   4.254   8.589   0.544 -0.3238 -0.0955 -0.7496
  781MOL0     C 5357   4.212   8.653   0.658 -0.0561  0.1162  0.5394
  781MOL0     O 5358   4.192   8.574   0.772 -0.1867  0.7095 -0.8485
  781MOL0     C 5359   4.200   8.618   0.902  0.0553  0.6935 -0.0590
  781MOL0     C 5360   4.243   8.518   1.002  0.7031  0.7160  0.2360
  781MOL0     C 5361   4.155   8.391   1.005  0.2482  0.3359  0.5070
  781MOL0     C 5362   4.005   8.403   0.999 -0.6909  0.6355 -0.1421
  781MOL0     C 5363   3.955   8.491   1.111  0.8271 -0.0122  0.0436
  781MOL0     C 5364   3.889   8.550   1.201 -0.1044 -0.3510  0.5135
  781MOL0     C 5365   4.201   8.788   0.659 -0.4272  0.2052 -0.2942
  781MOL0     C 5366   4.204   8.859   0.533 -0.2051  0.1589 -0.4636
  781MOL0     C 5367   4.153   9.005   0.539  0.3481  0.7298  0.8122
  781MOL0     H 5368   4.312   8.681  -0.060  2.3615  2.6948  0.0165
  781MOL0     H 5369   4.234   8.749  -0.289 -0.0956  2.3506 -0.5977
  781MOL0     H 5370   4.171   9.034  -0.379  1.0173 -0.3327 -1.7611
  781MOL0     H 5371   4.127   8.895  -0.486  0.7610  0.5705 -0.2079
  781MOL0     H 5372   3.923   9.021  -0.560  1.6835 -2.0336 -0.8139
  781MOL0     H 5373   4.075   9.106  -0.588  0.4138  0.7785 -0.1711
  781MOL0     H 5374   3.876   9.149  -0.354 -2.7635 -1.2732 -3.0068
  781MOL0     H 5375   3.859   9.232  -0.494 -0.1530  0.4976  0.2679
  781MOL0     H 5376   4.132   9.250  -0.360 -1.3335 -0.6483  2.5982
  781MOL0     H 5377   4.061   9.322  -0.505 -0.0680  1.4054  1.2158
  781MOL0     H 5378   4.083   9.451  -0.274  1.8815 -2.6246 -2.1564
  781MOL0     H 5379   3.932   9.481  -0.365 -0.6090 -1.4802 -1.4553
  781MOL0     H 5380   3.819   9.326  -0.210 -2.0200  2.4134  1.6711
  781MOL0     H 5381   3.978   9.284  -0.135 -0.5328  1.0192  2.8204
  781MOL0     H 5382   3.834   9.568  -0.154  0.1556  0.8102  0.7416
  781MOL0     H 5383   3.957   9.541  -0.054  0.7797 -0.6023  0.2934
  781MOL0     H 5384   3.718   9.506   0.055  1.0994  0.5557  2.6838
  781MOL0     H 5385   3.724   9.349  -0.036  5.2195 -2.9071 -1.6893
  781MOL0     H 5386   3.852   9.508   0.277  2.4511  1.6010  0.1022
  781MOL0     H 5387   4.010   9.411   0.474  1.1967  2.3511 -0.4571
  781MOL0     H 5388   4.135   9.280   0.435  1.1995 -0.2228 -0.7984
  781MOL0     H 5389   4.257   9.471   0.429 -3.2679  5.8505  3.5073
  781MOL0     H 5390   4.241   9.430   0.267  0.2442  2.8469 -0.2541
  781MOL0     H 5391   4.037   9.621   0.383 -1.8321  0.9579 -2.9572
  781MOL0     H 5392   4.091   9.610   0.219 -0.5071  0.6510 -0.5674
  781MOL0     H 5393   4.247   9.759   0.250  0.4034  0.8652  0.5934
  781MOL0     H 5394   4.331   9.669   0.374  1.7383  1.7747 -2.3736
  781MOL0     H 5395   4.083  10.010   0.556  0.4891 -3.6120  0.3924
  781MOL0     H 5396   4.162  10.248   0.534 -1.0670 -1.2405 -0.0754
  781MOL0     H 5397   4.619  10.425   0.249  1.1841  1.5719 -0.0204
  781MOL0     H 5398   4.721  10.643   0.227  1.5409  0.7792  0.3010
  781MOL0     H 5399   4.810  10.970   0.375 -0.9896  0.3291 -0.1525
  781MOL0     H 5400   4.696  10.866   0.289 -1.8704 -1.7438  1.4330
  781MOL0     H 5401   4.565  10.824   0.483  0.9574 -1.7064 -0.8789
  781MOL0     H 5402   4.661  10.958   0.572  0.1035 -0.5959  0.1432
  781MOL0     H 5403   4.611  11.123   0.449 -0.7946  0.6586  1.6850
  781MOL0     H 5404   4.539  11.026   0.323 -3.1076  0.6287  0.5838
  781MOL0     H 5405   4.421  11.062   0.604  1.5277 -2.6560 -0.2798
  781MOL0     H 5406   4.343  10.968   0.476 -1.0293  1.0224 -0.6139
  781MOL0     H 5407   4.392  11.225   0.361  0.5184  2.0067  0.4657
  781MOL0     H 5408   4.346  11.260   0.528 -0.0382  0.1980 -1.7300
  781MOL0     H 5409   4.181  11.076   0.363  2.0007 -2.7164  2.1166
  781MOL0     H 5410   4.136  11.126   0.520  0.6845  0.0813  0.7799
  781MOL0     H 5411   4.180  11.357   0.348  2.0515 -0.7354  0.8195
  781MOL0     H 5412   4.071  11.328   0.485  0.6711  0.8811 -0.3518
  781MOL0     H 5413   4.078  11.218   0.199 -2.0856  0.4898 -1.2823
  781MOL0     H 5414   3.947  11.174   0.304  0.6983 -1.2232 -2.0680
  781MOL0     H 5415   4.779  10.642   0.658  0.6651 -3.6201  1.8895
  781MOL0     H 5416   4.654  10.432   0.668  3.8499 -0.3638  0.0514
  781MOL0     H 5417   4.508  10.113   0.336 -0.3654  0.8314 -1.5240
  781MOL0     H 5418   4.437   9.886   0.334  1.7579 -0.3905  3.1576
  781MOL0     H 5419   3.960   9.015  -0.104  1.9523  1.6557 -0.2292
  781MOL0     H 5420   4.034   8.961   0.117 -0.0032  0.6579 -1.3966
  781MOL0     H 5421   4.259   8.602   0.323  0.0132  2.1553 -1.1657
  781MOL0     H 5422   4.277   8.483   0.556 -0.5966  0.0517  1.3481
  781MOL0     H 5423   4.102   8.653   0.936  0.6053  0.5545  1.8291
  781MOL0     H 5424   4.265   8.706   0.912 -0.3047  0.7177  3.6091
  781MOL0     H 5425   4.246   8.567   1.100  1.2892 -1.4881  1.3760
  781MOL0     H 5426   4.344   8.479   0.988 -0.0501 -1.3959  0.3836
  781MOL0     H 5427   4.184   8.330   1.091  2.5310 -1.7709 -1.5830
  781MOL0     H 5428   4.184   8.335   0.915 -1.4742  0.2328 -0.0112
  781MOL0     H 5429   3.977   8.444   0.902  1.0782  1.0282 -0.5287
  781MOL0     H 5430   3.967   8.302   1.012 -1.3650  0.9848  0.7340
  781MOL0     H 5431   3.826   8.595   1.275  0.2099  1.0165 -0.0112
  781MOL0     H 5432   4.164   8.831   0.752  2.9431 -0.8523  1.6972
  781MOL0     H 5433   4.229   9.072   0.497 -1.3304  0.2462 -3.4682
  781MOL0     H 5434   4.056   9.012   0.488 -0.2181  2.4651  2.0394
  781MOL0     H 5435   4.154   9.047   0.640  3.0680 -0.8937  1.5579
  782MOL0     O 5436   5.357   2.108   7.301 -0.7288 -0.0557  0.9169
  782MOL0     C 5437   5.482   2.130   7.301  0.2119  0.3263 -0.8693
  782MOL0     O 5438   5.557   2.160   7.186 -0.3470  0.1198 -0.1930
  782MOL0     C 5439   5.482   2.152   7.067  0.4421 -0.1443  0.2249
  782MOL0     C 5440   5.488   2.029   7.004 -0.5561 -0.6761  0.2487
  782MOL0     C 5441   5.434   2.022   6.875 -0.8759  0.9854  0.0624
  782MOL0     C 5442   5.365   2.132   6.814  0.3571 -0.9547 -0.7239
  782MOL0     O 5443   5.310   2.117   6.692 -0.0807  0.4808  0.0873
  782MOL0     C 5444   5.203   2.207   6.656  0.7008  1.1386 -1.2887
  782MOL0     C 5445   5.151   2.163   6.516  0.0800 -0.8028  0.8708
  782MOL0     C 5446   5.243   2.213   6.406 -0.8261 -0.6417 -0.4009
  782MOL0     C 5447   5.214   2.142   6.275  0.0576  0.0285 -0.7195
  782MOL0     C 5448   5.347   2.111   6.195 -0.1272 -0.3301  0.2405
  782MOL0     C 5449   5.420   2.225   6.137  0.0454  0.2680 -0.1618
  782MOL0     C 5450   5.538   2.178   6.053  0.1755  0.2149  0.9449
  782MOL0     C 5451   5.622   2.288   5.985  1.1964  1.0297 -0.1619
  782MOL0     N 5452   5.750   2.312   6.055 -0.9127  0.2913  0.0267
  782MOL0     C 5453   5.854   2.223   6.064  0.1402 -0.8516  0.2941
  782MOL0     C 5454   5.936   2.281   6.159  0.3517  0.5019 -0.4842
  782MOL0     C 5455   6.058   2.219   6.223  0.0901 -0.9604  0.0645
  782MOL0     C 5456   6.196   2.279   6.181  0.1777 -0.1752 -0.4567
  782MOL0     C 5457   6.254   2.258   6.035  0.4648 -0.2328  0.1378
  782MOL0     C 5458   6.268   2.118   5.994 -0.4979  0.6963 -0.3197
  782MOL0     O 5459   6.337   2.054   6.099  0.6256 -0.0243  0.3329
  782MOL0     C 5460   6.469   2.046   6.090 -0.3395 -0.7826 -0.6175
  782MOL0     C 5461   6.553   2.092   5.998  0.2294 -0.2810  1.0009
  782MOL0     C 5462   6.689   2.092   6.003  1.0639  0.0766  0.1075
  782MOL0     C 5463   6.747   2.037   6.117 -0.1034  0.4629  0.5874
  782MOL0     C 5464   6.895   2.040   6.126 -1.3966 -0.0834 -0.2205
  782MOL0     O 5465   6.965   2.074   6.008 -0.1316  0.4561 -0.4771
  782MOL0     C 5466   7.097   2.066   5.985  0.4221  0.8624 -0.5987
  782MOL0     C 5467   7.176   2.173   5.957 -1.1862 -0.2377  0.7995
  782MOL0     C 5468   7.315   2.163   5.937  0.2156 -1.2965 -0.1647
  782MOL0     C 5469   7.368   2.035   5.945  0.1958 -0.7266  0.4090
  782MOL0     O 5470   7.502   2.031   5.911  0.1396  0.2200  0.0135
  782MOL0     C 5471   7.573   1.983   6.029  0.1623  1.1197  0.1739
  782MOL0     C 5472   7.710   1.922   6.001  0.0636 -0.0140  0.4283
  782MOL0     C 5473   7.808   2.034   5.954 -0.3653  0.0255 -0.2535
  782MOL0     C 5474   7.948   1.983   5.948  0.0146 -0.7762 -0.2303
  782MOL0     C 5475   8.046   2.101   5.915  0.3788 -0.4879 -1.0606
  782MOL0     C 5476   8.118   2.172   6.037 -0.3027 -0.2797 -0.3101
  782MOL0     C 5477   8.213   2.279   5.991 -0.0258 -0.9101  0.0913
  782MOL0     C 5478   8.319   2.310   6.097  0.0379 -0.3524 -0.0772
  782MOL0    Cl 5479   8.269   2.375   6.256  0.4393 -0.3764 -0.4264
  782MOL0     C 5480   7.287   1.918   5.966 -0.6206  0.0176 -0.7160
  782MOL0     C 5481   7.152   1.935   5.987  0.5109 -0.7020 -1.1114
  782MOL0     O 5482   6.952   2.006   6.231 -0.2129 -0.2869 -0.6254
  782MOL0     C 5483   6.661   1.995   6.226 -1.0155  0.2231  0.5048
  782MOL0     C 5484   6.522   1.997   6.206  0.1501 -0.3788  0.1720
  782MOL0     N 5485   5.884   2.407   6.197  0.2178  0.0059  0.4779
  782MOL0     N 5486   5.772   2.418   6.136  0.9985 -0.8029  0.0795
  782MOL0     C 5487   5.351   2.250   6.892  0.5017  0.1209 -0.1683
  782MOL0     C 5488   5.414   2.260   7.015  0.4083 -0.7114  0.1448
  782MOL0     C 5489   5.565   2.138   7.428 -0.4420  0.1394 -0.2183
  782MOL0     C 5490   5.672   2.226   7.432 -0.0728 -0.7116  0.2441
  782MOL0     C 5491   5.764   2.226   7.532  0.0804 -0.7409  0.1605
  782MOL0     C 5492   5.740   2.136   7.644  0.6441  0.0313 -0.1100
  782MOL0     O 5493   5.827   2.106   7.752 -0.5888  0.1467  0.8597
  782MOL0     C 5494   5.955   2.171   7.759 -0.2165 -0.3351 -0.1203
  782MOL0     C 5495   5.947   2.308   7.825  0.2893 -0.5880  0.2043
  782MOL0     C 5496   5.979   2.295   7.977  0.4775 -0.0339  0.3694
  782MOL0     C 5497   5.875   2.226   8.063  0.1786  0.0325  0.8003
  782MOL0     C 5498   5.911   2.230   8.204 -0.4282  0.2700 -0.0394
  782MOL0     C 5499   5.963   2.199   8.315 -1.0531 -0.5043 -0.5163
  782MOL0     C 5500   5.617   2.060   7.648 -0.1942 -0.0468  0.3244
  782MOL0     C 5501   5.532   2.050   7.536 -1.4770 -0.7052 -0.0682
  782MOL0     C 5502   5.416   1.959   7.531  0.5356 -0.1046 -0.3476
  782MOL0     H 5503   5.552   1.951   7.045  3.2922  0.6883 -2.5723
  782MOL0     H 5504   5.443   1.931   6.815 -2.0886  0.6622  0.3565
  782MOL0     H 5505   5.121   2.191   6.726  0.4242 -1.6735 -2.1128
  782MOL0     H 5506   5.220   2.315   6.662  1.7185  0.9500 -0.4886
  782MOL0     H 5507   5.060   2.216   6.487  0.5112  1.0064  2.5725
  782MOL0     H 5508   5.137   2.055   6.520 -3.3273 -0.4367  1.1078
  782MOL0     H 5509   5.348   2.190   6.427 -0.4855  0.7176 -0.5718
  782MOL0     H 5510   5.239   2.321   6.396  2.0656 -0.2375  1.5268
  782MOL0     H 5511   5.167   2.043   6.284  0.2708  0.0941  1.5506
  782MOL0     H 5512   5.137   2.206   6.231 -0.9771 -2.6785 -3.2763
  782MOL0     H 5513   5.415   2.061   6.265 -2.6960  0.0491  3.2473
  782MOL0     H 5514   5.324   2.037   6.118  3.0955 -3.5653  2.0626
  782MOL0     H 5515   5.350   2.285   6.079  0.1191  0.5292  0.0182
  782MOL0     H 5516   5.462   2.296   6.208 -0.8818  1.4477 -0.7743
  782MOL0     H 5517   5.491   2.107   5.984 -0.8223 -1.9460  3.6405
  782MOL0     H 5518   5.605   2.121   6.117  2.4546  0.0917 -1.3631
  782MOL0     H 5519   5.641   2.269   5.879 -0.2491  0.9224 -0.4243
  782MOL0     H 5520   5.565   2.381   5.995  0.6105  0.7517 -0.9166
  782MOL0     H 5521   5.862   2.128   6.013 -0.1737 -1.1362  0.7599
  782MOL0     H 5522   6.042   2.257   6.324  0.0435  3.0639 -1.2612
  782MOL0     H 5523   6.068   2.110   6.223  1.1169 -0.9472  3.0418
  782MOL0     H 5524   6.192   2.386   6.206  5.4069 -0.2642  1.8947
  782MOL0     H 5525   6.281   2.254   6.245 -0.1939 -0.5516 -0.1082
  782MOL0     H 5526   6.351   2.308   6.029 -1.6220  4.1402 -1.8655
  782MOL0     H 5527   6.191   2.313   5.964  0.1730 -3.4339 -2.2982
  782MOL0     H 5528   6.312   2.109   5.894  2.4899 -0.6917  0.9835
  782MOL0     H 5529   6.163   2.087   5.995 -0.6378  0.7158 -3.6010
  782MOL0     H 5530   6.509   2.133   5.908  1.8342 -1.7103 -0.5102
  782MOL0     H 5531   6.747   2.129   5.920  0.6692 -0.6091 -0.4794
  782MOL0     H 5532   7.128   2.271   5.958 -2.0763 -0.5772 -1.7598
  782MOL0     H 5533   7.378   2.250   5.921 -0.8976 -0.1153  1.5335
  782MOL0     H 5534   7.578   2.071   6.094 -0.3185  1.6481 -0.4832
  782MOL0     H 5535   7.523   1.902   6.082  2.4698  0.2147  1.0715
  782MOL0     H 5536   7.752   1.869   6.087  0.0599  1.5571  1.4375
  782MOL0     H 5537   7.693   1.857   5.916 -3.3440  1.2980 -0.0349
  782MOL0     H 5538   7.769   2.070   5.859 -3.3341 -0.1413  0.8099
  782MOL0     H 5539   7.801   2.122   6.019  0.2608 -0.1192  0.0182
  782MOL0     H 5540   7.945   1.905   5.871 -2.1646  0.8735 -1.9365
  782MOL0     H 5541   7.966   1.933   6.043  1.8639 -0.0427 -0.1506
  782MOL0     H 5542   7.991   2.175   5.857 -0.1245  1.0574  1.2141
  782MOL0     H 5543   8.129   2.055   5.860  0.6850  0.7410 -1.6673
  782MOL0     H 5544   8.055   2.211   6.118  1.1017  0.3961  0.4956
  782MOL0     H 5545   8.193   2.108   6.084 -1.2839 -0.3734  1.2172
  782MOL0     H 5546   8.144   2.356   5.953  0.9089 -1.0388 -2.0080
  782MOL0     H 5547   8.275   2.241   5.910  2.8984 -0.1973  1.8434
  782MOL0     H 5548   8.376   2.220   6.119  1.5972 -0.0686 -2.6385
  782MOL0     H 5549   8.385   2.383   6.049 -0.6888 -1.0544 -2.2204
  782MOL0     H 5550   7.327   1.817   5.974 -1.9440 -0.7199 -2.7516
  782MOL0     H 5551   7.088   1.853   6.017  1.9669 -1.7512 -0.7912
  782MOL0     H 5552   6.702   1.951   6.316  0.0462 -1.5363 -0.7712
  782MOL0     H 5553   6.460   1.965   6.289  0.7966 -3.7655 -0.4778
  782MOL0     H 5554   5.296   2.337   6.857  0.0353 -0.6365 -1.3893
  782MOL0     H 5555   5.393   2.352   7.068 -1.0596  0.4047 -2.1946
  782MOL0     H 5556   5.696   2.296   7.352  0.7390 -0.0066  1.0864
  782MOL0     H 5557   5.853   2.289   7.538 -0.8521  0.5025  1.8388
  782MOL0     H 5558   6.012   2.187   7.667 -0.7115  2.7504  0.0008
  782MOL0     H 5559   6.020   2.105   7.817  0.1503  0.4268  0.3494
  782MOL0     H 5560   5.853   2.357   7.801  0.9880  2.2008  2.6397
  782MOL0     H 5561   6.023   2.379   7.790 -0.7234  1.3956  1.8566
  782MOL0     H 5562   5.984   2.396   8.019 -4.2976  1.5764 -2.0723
  782MOL0     H 5563   6.078   2.252   7.986  0.8600  0.5050 -0.9939
  782MOL0     H 5564   5.778   2.267   8.033  1.0330  0.4272 -1.6497
  782MOL0     H 5565   5.855   2.123   8.034 -3.7133  1.5459 -2.8887
  782MOL0     H 5566   6.023   2.167   8.397 -0.3330  2.0557  0.0303
  782MOL0     H 5567   5.591   1.990   7.727 -1.6271 -0.0291 -0.1008
  782MOL0     H 5568   5.412   1.887   7.613 -2.6079  1.8431  1.4011
  782MOL0     H 5569   5.328   2.022   7.540 -0.0917 -1.0348  0.2697
  782MOL0     H 5570   5.415   1.898   7.440  1.9524 -1.4248  0.4710
  783MOL0     O 5571   3.016   1.800   1.371  1.1124 -0.3563  0.0650
  783MOL0     C 5572   3.047   1.917   1.366  0.2445 -0.2526  0.7235
  783MOL0     O 5573   2.966   2.024   1.349  0.6398  0.0868 -0.8213
  783MOL0     C 5574   2.831   1.999   1.341 -0.1598  0.5103 -0.1203
  783MOL0     C 5575   2.770   2.008   1.217 -0.2121 -0.2617 -0.5666
  783MOL0     C 5576   2.637   2.004   1.213  0.6972 -0.3162 -0.1266
  783MOL0     C 5577   2.556   1.994   1.328 -0.3317 -0.5232  0.4221
  783MOL0     O 5578   2.422   1.993   1.330  0.2332 -0.0371  0.2285
  783MOL0     C 5579   2.337   1.962   1.219 -0.2233  0.1712  0.4142
  783MOL0     C 5580   2.188   1.995   1.258 -0.3673 -0.3659 -0.3370
  783MOL0     C 5581   2.142   1.901   1.366  0.9240 -0.2416  0.2933
  783MOL0     C 5582   1.999   1.941   1.387 -0.1020  0.1162 -0.5125
  783MOL0     C 5583   1.932   1.865   1.504 -0.8590 -0.1248 -0.6556
  783MOL0     C 5584   1.780   1.908   1.509 -0.7509  1.0621 -0.8888
  783MOL0     C 5585   1.712   1.865   1.637 -0.0993  0.5004  0.0489
  783MOL0     C 5586   1.692   1.714   1.654 -0.5681 -0.1834  0.7553
  783MOL0     N 5587   1.602   1.679   1.768  0.0876  0.5063 -0.2016
  783MOL0     C 5588   1.626   1.675   1.901  0.1680  0.1446  0.3339
  783MOL0     C 5589   1.503   1.658   1.958  0.5869  0.6977 -0.6273
  783MOL0     C 5590   1.467   1.697   2.100 -0.0650 -0.3207 -0.5346
  783MOL0     C 5591   1.329   1.774   2.119 -0.4318 -0.2769 -0.8130
  783MOL0     C 5592   1.333   1.922   2.089 -0.8981  0.0461 -0.4849
  783MOL0     C 5593   1.343   1.948   1.942 -0.6703  0.0887  0.1653
  783MOL0     O 5594   1.354   2.087   1.909  0.1539  0.2290  0.2482
  783MOL0     C 5595   1.475   2.141   1.883 -0.0430  0.3599 -0.1118
  783MOL0     C 5596   1.596   2.076   1.892  0.6143 -0.2500  0.2619
  783MOL0     C 5597   1.710   2.150   1.876 -0.4561  0.0760 -0.0397
  783MOL0     C 5598   1.701   2.277   1.813  0.0965 -0.2933 -0.7013
  783MOL0     C 5599   1.817   2.344   1.761 -0.2394  1.4995  0.5048
  783MOL0     O 5600   1.930   2.267   1.744 -0.0508  0.1565  0.8103
  783MOL0     C 5601   2.050   2.336   1.726  0.8661  0.1038  0.5135
  783MOL0     C 5602   2.109   2.449   1.791 -0.7562 -0.3043 -0.0467
  783MOL0     C 5603   2.241   2.479   1.764 -0.5563  0.4933 -0.1673
  783MOL0     C 5604   2.308   2.420   1.651 -0.3326  0.7166  0.1270
  783MOL0     O 5605   2.444   2.456   1.631  0.6138 -0.3426  0.8015
  783MOL0     C 5606   2.523   2.358   1.561 -0.5148 -0.1258  0.7001
  783MOL0     C 5607   2.665   2.381   1.618  0.5017  0.0485 -0.1106
  783MOL0     C 5608   2.720   2.515   1.577  0.4130 -0.0687  0.2845
  783MOL0     C 5609   2.845   2.553   1.669 -0.0946  0.5090 -0.7297
  783MOL0     C 5610   2.889   2.689   1.628 -0.0644 -0.1919  0.2772
  783MOL0     C 5611   3.016   2.739   1.707  0.0534 -0.8249  0.6157
  783MOL0     C 5612   3.009   2.886   1.747 -0.8618 -0.7868 -0.3359
  783MOL0     C 5613   2.981   2.967   1.621 -0.3986  0.1516 -0.5742
  783MOL0    Cl 5614   3.018   3.135   1.658 -0.5103  0.1548  0.3492
  783MOL0     C 5615   2.236   2.330   1.568 -0.4013  0.0406  0.0706
  783MOL0     C 5616   2.109   2.295   1.608  0.1880 -0.1226  0.1700
  783MOL0     O 5617   1.815   2.467   1.752 -0.3718 -0.0084 -0.0493
  783MOL0     C 5618   1.582   2.349   1.807 -0.7291  0.2584  0.0334
  783MOL0     C 5619   1.466   2.278   1.843 -0.4405 -0.0688  0.3904
  783MOL0     N 5620   1.413   1.631   1.858  0.5654 -0.2537 -0.6489
  783MOL0     N 5621   1.475   1.637   1.741  0.4561 -0.9966  0.2354
  783MOL0     C 5622   2.622   1.984   1.448  0.4616 -0.2131 -0.1199
  783MOL0     C 5623   2.762   1.983   1.460  0.2604 -0.2192 -0.5097
  783MOL0     C 5624   3.191   1.950   1.386 -0.1195 -0.3120 -0.8070
  783MOL0     C 5625   3.259   1.896   1.491 -1.0336 -0.0773 -0.2020
  783MOL0     C 5626   3.399   1.922   1.508 -0.0280  0.8720 -0.2647
  783MOL0     C 5627   3.473   2.001   1.425 -0.3583 -0.4761  0.5064
  783MOL0     O 5628   3.609   2.009   1.451 -0.0951 -0.5522  0.4993
  783MOL0     C 5629   3.690   2.107   1.393 -0.5001 -0.8494  0.1868
  783MOL0     C 5630   3.753   2.202   1.495 -0.1259  0.1561  0.5064
  783MOL0     C 5631   3.843   2.120   1.574 -0.4582  0.7637 -0.8213
  783MOL0     C 5632   3.923   2.188   1.680  0.1347  1.0373 -0.4975
  783MOL0     C 5633   3.829   2.255   1.777  0.1280 -0.3403  1.3928
  783MOL0     C 5634   3.748   2.299   1.853  0.4948  0.2540  0.2950
  783MOL0     C 5635   3.400   2.067   1.318 -0.9062  0.3791 -0.0102
  783MOL0     C 5636   3.260   2.043   1.297 -0.0676  1.0509 -0.2596
  783MOL0     C 5637   3.201   2.095   1.172 -0.8740  0.0568  0.4368
  783MOL0     H 5638   2.823   2.020   1.123  0.1960  1.3510 -0.1617
  783MOL0     H 5639   2.582   2.007   1.120 -3.5108  0.4528  2.1383
  783MOL0     H 5640   2.360   2.008   1.122  0.7385  0.1042  0.5968
  783MOL0     H 5641   2.362   1.858   1.199  2.8071  0.6364  1.2334
  783MOL0     H 5642   2.128   1.982   1.167  0.2262 -0.5733 -0.7048
  783MOL0     H 5643   2.180   2.101   1.286 -0.5550 -0.5209  0.2083
  783MOL0     H 5644   2.199   1.902   1.459 -2.9157 -1.0989  2.8816
  783MOL0     H 5645   2.141   1.799   1.327 -1.7060  0.0069 -0.5084
  783MOL0     H 5646   1.999   2.042   1.430 -2.9191 -0.1787  0.3958
  783MOL0     H 5647   1.949   1.935   1.290  1.3410 -4.3482 -1.1990
  783MOL0     H 5648   1.947   1.760   1.478  0.7071  0.0025 -0.3521
  783MOL0     H 5649   1.986   1.885   1.597 -0.4073  0.3313 -1.0104
  783MOL0     H 5650   1.780   2.017   1.513 -0.7137  1.0213  0.9675
  783MOL0     H 5651   1.730   1.867   1.421  0.5928 -0.1170 -1.1418
  783MOL0     H 5652   1.618   1.921   1.643  0.8903  2.2774 -0.2448
  783MOL0     H 5653   1.784   1.891   1.714 -2.1144 -0.9541  2.5945
  783MOL0     H 5654   1.645   1.679   1.563  2.3448  0.6665 -1.2237
  783MOL0     H 5655   1.786   1.661   1.672  0.5089  1.9075  1.6433
  783MOL0     H 5656   1.722   1.699   1.946  0.2553 -0.1899  0.3265
  783MOL0     H 5657   1.467   1.601   2.151  2.9046 -0.1762 -0.0855
  783MOL0     H 5658   1.541   1.756   2.155 -0.3023 -0.7167  0.2187
  783MOL0     H 5659   1.256   1.732   2.050  0.1473 -0.7238 -1.1679
  783MOL0     H 5660   1.291   1.764   2.220 -3.2150  0.8032 -1.6668
  783MOL0     H 5661   1.418   1.970   2.138 -1.9017  1.2661  0.1102
  783MOL0     H 5662   1.245   1.970   2.132 -1.7011 -2.2809  0.6183
  783MOL0     H 5663   1.254   1.907   1.894 -0.5319 -2.2294  1.6954
  783MOL0     H 5664   1.420   1.885   1.896  0.4542  1.3057  0.3376
  783MOL0     H 5665   1.607   1.971   1.914  1.6034 -0.6392 -1.8900
  783MOL0     H 5666   1.800   2.091   1.890 -0.8314 -0.5365 -0.1566
  783MOL0     H 5667   2.077   2.487   1.887  0.8364 -4.6272  2.4767
  783MOL0     H 5668   2.308   2.551   1.810  0.2987  2.1960 -3.7297
  783MOL0     H 5669   2.486   2.256   1.577  1.1051 -0.9710 -0.7416
  783MOL0     H 5670   2.520   2.374   1.453 -0.3803  1.9094  0.9552
  783MOL0     H 5671   2.650   2.373   1.726 -0.5944 -1.0842 -0.3176
  783MOL0     H 5672   2.739   2.305   1.590 -0.9378 -0.9317 -1.4748
  783MOL0     H 5673   2.754   2.512   1.473  0.3061  1.6448  0.1660
  783MOL0     H 5674   2.634   2.583   1.584 -0.0711 -0.8332  2.2854
  783MOL0     H 5675   2.931   2.486   1.656 -1.4919 -1.4444 -0.2883
  783MOL0     H 5676   2.821   2.550   1.776 -0.1003  1.2449 -0.7073
  783MOL0     H 5677   2.805   2.758   1.622  0.5230  0.4335 -1.7152
  783MOL0     H 5678   2.922   2.680   1.524  0.2810  1.3190  0.2354
  783MOL0     H 5679   3.029   2.684   1.800  1.5968 -4.1944 -1.3753
  783MOL0     H 5680   3.109   2.708   1.657 -0.5178 -2.2312  0.3586
  783MOL0     H 5681   3.102   2.912   1.799 -0.6370 -2.2123  0.0160
  783MOL0     H 5682   2.924   2.907   1.812 -1.4024 -0.7817 -1.0346
  783MOL0     H 5683   3.052   2.932   1.545  0.1640  0.2470 -0.1027
  783MOL0     H 5684   2.879   2.960   1.583 -0.8491 -0.5988  0.7261
  783MOL0     H 5685   2.283   2.283   1.483 -0.2111  1.3663 -0.5857
  783MOL0     H 5686   2.071   2.217   1.543 -0.3821 -1.7831  2.3654
  783MOL0     H 5687   1.574   2.445   1.757  1.5575 -0.1878 -1.3433
  783MOL0     H 5688   1.371   2.331   1.838 -0.0490  0.9585  2.5519
  783MOL0     H 5689   2.563   1.985   1.539  0.5396 -0.7813 -0.0561
  783MOL0     H 5690   2.812   1.988   1.556 -1.4115  1.0582  0.3551
  783MOL0     H 5691   3.216   1.820   1.555  1.5632 -2.6621 -1.2965
  783MOL0     H 5692   3.450   1.872   1.590  0.9019  1.2960 -0.5676
  783MOL0     H 5693   3.640   2.174   1.322 -0.9524  2.2873  3.2264
  783MOL0     H 5694   3.772   2.074   1.329  1.3114  1.2866  1.2706
  783MOL0     H 5695   3.678   2.249   1.561 -0.4953 -1.1404  1.0428
  783MOL0     H 5696   3.812   2.281   1.448  0.3094 -0.7234 -0.4370
  783MOL0     H 5697   3.920   2.086   1.505  1.0440  0.4499  0.9341
  783MOL0     H 5698   3.779   2.044   1.619 -3.1942  2.2269 -1.9834
  783MOL0     H 5699   3.992   2.118   1.727  1.7772  3.7963  1.5481
  783MOL0     H 5700   3.990   2.264   1.637 -0.3950  1.8382  0.0769
  783MOL0     H 5701   3.664   2.336   1.908 -1.3668 -1.3808 -1.2885
  783MOL0     H 5702   3.449   2.138   1.251 -0.5901  2.1816  2.0213
  783MOL0     H 5703   3.285   2.109   1.103  0.6392  0.9235  2.3521
  783MOL0     H 5704   3.123   2.026   1.139  1.2057 -2.3225  0.1650
  783MOL0     H 5705   3.157   2.194   1.192 -2.3067 -0.6743  1.0430
  784MOL0     O 5706   7.635   0.048  11.274 -0.7639  0.1132  0.6566
  784MOL0     C 5707   7.565   0.015  11.373 -0.7260  0.3119  0.0072
  784MOL0     O 5708   7.578   0.049  11.505  0.1840  0.6370 -0.1310
  784MOL0     C 5709   7.665   0.144  11.551  0.7726 -0.6519 -0.2601
  784MOL0     C 5710   7.785   0.169  11.488  0.4055 -0.2289 -0.5266
  784MOL0     C 5711   7.874   0.256  11.552  0.1351 -0.3600  0.1194
  784MOL0     C 5712   7.836   0.339  11.663 -0.1369  0.0129 -0.0208
  784MOL0     O 5713   7.923   0.430  11.718  0.2513  0.4284  0.9271
  784MOL0     C 5714   7.870   0.555  11.756 -0.2575 -0.4977 -0.7609
  784MOL0     C 5715   7.987   0.661  11.780 -0.7560 -0.1684 -0.6764
  784MOL0     C 5716   8.077   0.687  11.666 -0.9967  0.0727 -0.0992
  784MOL0     C 5717   8.156   0.813  11.690  0.2314  0.9313 -0.0096
  784MOL0     C 5718   8.244   0.837  11.568  0.2279  0.3777 -0.3263
  784MOL0     C 5719   8.315   0.969  11.587  0.0451 -0.2973 -0.9315
  784MOL0     C 5720   8.373   1.026  11.458  0.3937  0.7106 -0.0843
  784MOL0     C 5721   8.492   0.939  11.413  0.5396  0.6414  0.5323
  784MOL0     N 5722   8.609   0.969  11.499  0.1408 -0.4066  0.6424
  784MOL0     C 5723   8.692   1.077  11.491  0.6811  0.1175  0.3902
  784MOL0     C 5724   8.768   1.072  11.604 -1.1720 -0.4273  0.2091
  784MOL0     C 5725   8.866   1.183  11.647  0.7579  0.7711 -0.0689
  784MOL0     C 5726   8.801   1.272  11.754 -0.1692  0.7018  0.2197
  784MOL0     C 5727   8.903   1.347  11.830 -0.1844  0.2702  0.3674
  784MOL0     C 5728   8.839   1.455  11.919  0.4757 -0.0030  0.0270
  784MOL0     O 5729   8.780   1.570  11.850  0.8226  0.0559 -0.4242
  784MOL0     C 5730   8.648   1.598  11.857 -0.0076  0.3274 -0.2978
  784MOL0     C 5731   8.621   1.719  11.788 -0.6781 -0.1073  0.1413
  784MOL0     C 5732   8.499   1.778  11.795  0.7797 -1.2753  0.3889
  784MOL0     C 5733   8.397   1.729  11.872 -0.0277  0.8355  0.0213
  784MOL0     C 5734   8.268   1.806  11.897  0.5755  0.3624 -0.1973
  784MOL0     O 5735   8.175   1.749  11.983  0.1255 -0.1827 -0.7143
  784MOL0     C 5736   8.063   1.819  12.019  0.0109 -0.1324  0.4919
  784MOL0     C 5737   7.959   1.848  11.916 -1.1619  0.0770 -0.8363
  784MOL0     C 5738   7.838   1.912  11.948 -0.2807  0.2036 -0.4982
  784MOL0     C 5739   7.823   1.958  12.080 -0.4786 -0.8931  0.2676
  784MOL0     O 5740   7.713   2.036  12.099  0.2011 -0.2165  0.1987
  784MOL0     C 5741   7.680   2.076  12.224 -0.1164 -1.1676 -0.7073
  784MOL0     C 5742   7.539   2.121  12.230  0.0096  0.4866 -1.2316
  784MOL0     C 5743   7.494   2.199  12.361  0.5486  0.2014 -0.2740
  784MOL0     C 5744   7.343   2.176  12.391 -0.4895  0.1924  0.7354
  784MOL0     C 5745   7.286   2.283  12.479 -0.3591 -0.5280  0.0678
  784MOL0     C 5746   7.135   2.277  12.493 -0.3408 -0.0600  0.1697
  784MOL0     C 5747   7.055   2.303  12.365  0.5488 -0.0265  0.1946
  784MOL0     C 5748   6.908   2.342  12.404 -0.2029  0.6152 -0.1552
  784MOL0    Cl 5749   6.796   2.318  12.266  0.3977 -0.3789  0.2946
  784MOL0     C 5750   7.921   1.923  12.171 -0.1178 -0.2748  0.0424
  784MOL0     C 5751   8.038   1.859  12.143 -0.2794  0.3765 -0.1378
  784MOL0     O 5752   8.251   1.905  11.834  0.0369 -0.0860  0.2022
  784MOL0     C 5753   8.424   1.611  11.946 -0.0484  0.0464 -1.0137
  784MOL0     C 5754   8.546   1.535  11.933  0.0839 -0.8091 -0.0740
  784MOL0     N 5755   8.738   0.951  11.668 -0.5996  0.5686  0.4106
  784MOL0     N 5756   8.640   0.894  11.609  0.0815  0.2018  0.8384
  784MOL0     C 5757   7.709   0.315  11.707 -0.2968 -0.0938  0.1520
  784MOL0     C 5758   7.629   0.208  11.666  0.4540  0.3233  0.1723
  784MOL0     C 5759   7.452  -0.081  11.344  0.0948 -0.8262  0.1965
  784MOL0     C 5760   7.409  -0.084  11.209 -0.9574 -0.3905  0.2237
  784MOL0     C 5761   7.296  -0.156  11.168  0.7020 -0.0573  0.4289
  784MOL0     C 5762   7.224  -0.230  11.259 -0.7653  0.7923  0.1101
  784MOL0     O 5763   7.106  -0.284  11.214 -0.5056 -0.2605 -0.1111
  784MOL0     C 5764   7.037  -0.373  11.301  0.5598 -0.1440 -0.4583
  784MOL0     C 5765   6.910  -0.414  11.230  0.7238  0.9002  0.8726
  784MOL0     C 5766   6.929  -0.546  11.145 -0.0000 -0.6982 -0.0421
  784MOL0     C 5767   6.800  -0.583  11.069 -0.1959  0.0461 -0.6600
  784MOL0     C 5768   6.805  -0.719  11.017 -0.1995 -0.5059 -0.3059
  784MOL0     C 5769   6.830  -0.836  10.993 -0.7185  1.0086 -2.1292
  784MOL0     C 5770   7.277  -0.246  11.396 -0.7135 -0.2650  0.4484
  784MOL0     C 5771   7.388  -0.172  11.437  0.5350 -0.0825  0.1128
  784MOL0     C 5772   7.427  -0.184  11.577  0.2755 -0.0782 -0.9086
  784MOL0     H 5773   7.822   0.108  11.406 -0.3929 -2.9926  1.0494
  784MOL0     H 5774   7.980   0.259  11.527  0.5822 -1.2724  1.7325
  784MOL0     H 5775   7.806   0.597  11.678  0.5293  2.6047  0.1312
  784MOL0     H 5776   7.800   0.536  11.838  0.2177  1.3505  0.1242
  784MOL0     H 5777   8.046   0.617  11.860  0.9292  1.1359 -1.1287
  784MOL0     H 5778   7.951   0.756  11.822 -1.3562 -1.5289  2.1141
  784MOL0     H 5779   8.015   0.703  11.577 -3.4216  1.3012  1.7039
  784MOL0     H 5780   8.147   0.604  11.655 -1.8985 -0.6647 -0.3393
  784MOL0     H 5781   8.088   0.897  11.705 -2.9393 -1.0347 -2.2885
  784MOL0     H 5782   8.211   0.807  11.785 -0.3739  0.3408  0.3121
  784MOL0     H 5783   8.311   0.752  11.562  1.2546  0.8755  2.6440
  784MOL0     H 5784   8.186   0.824  11.476  1.2342 -2.2835 -0.6691
  784MOL0     H 5785   8.248   1.049  11.620 -0.4583 -0.5834 -1.2683
  784MOL0     H 5786   8.390   0.955  11.666  0.8355 -3.5167 -2.1189
  784MOL0     H 5787   8.403   1.131  11.464  1.5705  0.3752  0.1843
  784MOL0     H 5788   8.302   1.016  11.376  3.5855 -1.3345 -2.8663
  784MOL0     H 5789   8.450   0.840  11.430 -0.1917  0.5580 -1.5548
  784MOL0     H 5790   8.512   0.954  11.307  0.5403 -0.5839  0.3440
  784MOL0     H 5791   8.679   1.161  11.423  0.4520 -0.4440 -0.2694
  784MOL0     H 5792   8.956   1.126  11.673  0.1002 -1.4690 -2.2849
  784MOL0     H 5793   8.900   1.246  11.565  2.2300  1.9398  1.3880
  784MOL0     H 5794   8.731   1.343  11.709  0.0201  1.3581  0.9268
  784MOL0     H 5795   8.750   1.200  11.819  2.9038 -0.9413  0.9666
  784MOL0     H 5796   8.977   1.395  11.764 -1.1267  1.4444  0.1207
  784MOL0     H 5797   8.966   1.284  11.893  1.4641  0.4396 -1.0469
  784MOL0     H 5798   8.930   1.490  11.970  0.6182 -0.2202 -0.0774
  784MOL0     H 5799   8.776   1.407  11.994  2.0192 -0.6888  0.9353
  784MOL0     H 5800   8.689   1.757  11.712 -0.3951 -3.1055 -1.2390
  784MOL0     H 5801   8.479   1.870  11.741  0.0270  0.7668  3.8678
  784MOL0     H 5802   7.970   1.817  11.813  2.3670 -1.3275 -0.1944
  784MOL0     H 5803   7.762   1.933  11.873 -2.6878 -1.4278  1.3336
  784MOL0     H 5804   7.698   1.986  12.283  2.5601 -1.9598 -2.5487
  784MOL0     H 5805   7.737   2.163  12.257 -0.3958 -0.0045 -3.0989
  784MOL0     H 5806   7.515   2.188  12.147  0.8589 -0.0497 -1.9188
  784MOL0     H 5807   7.477   2.032  12.219 -0.7161  1.1733 -2.9806
  784MOL0     H 5808   7.556   2.168  12.446 -1.6970 -1.7401  0.7626
  784MOL0     H 5809   7.509   2.305  12.338 -0.8998  0.1747 -1.5219
  784MOL0     H 5810   7.317   2.074  12.419 -0.4856 -0.1291 -0.3644
  784MOL0     H 5811   7.287   2.188  12.298 -1.3688 -2.1040  0.9162
  784MOL0     H 5812   7.313   2.383  12.443  0.1192 -0.1269  1.4716
  784MOL0     H 5813   7.326   2.273  12.580 -0.5371 -0.5608  0.1363
  784MOL0     H 5814   7.102   2.182  12.537  0.8543 -0.5259  0.1053
  784MOL0     H 5815   7.129   2.356  12.567 -0.9777 -1.0270  1.1794
  784MOL0     H 5816   7.049   2.207  12.313  0.3465 -0.2203  0.5673
  784MOL0     H 5817   7.099   2.380  12.301  0.9639  0.4155  0.9987
  784MOL0     H 5818   6.882   2.270  12.482  0.9026  0.4902  0.1152
  784MOL0     H 5819   6.891   2.441  12.447  1.6446  2.0788 -2.5092
  784MOL0     H 5820   7.908   1.961  12.272  1.1352 -0.7037  0.3846
  784MOL0     H 5821   8.118   1.835  12.213  3.0757  4.3625 -2.1211
  784MOL0     H 5822   8.350   1.569  12.013  1.4576 -2.1746 -0.6537
  784MOL0     H 5823   8.542   1.449  11.999 -0.9610 -1.1540 -0.5654
  784MOL0     H 5824   7.674   0.371  11.793 -3.3290 -1.1752 -0.2781
  784MOL0     H 5825   7.535   0.196  11.719  1.8266 -1.8487  2.2687
  784MOL0     H 5826   7.464  -0.034  11.130  0.8243 -1.5688  0.6487
  784MOL0     H 5827   7.239  -0.151  11.076 -0.1740  3.0859  1.0078
  784MOL0     H 5828   6.997  -0.330  11.394 -2.6834 -0.6148 -1.5035
  784MOL0     H 5829   7.103  -0.456  11.329  1.8009  1.0743  0.3007
  784MOL0     H 5830   6.880  -0.331  11.166 -4.4217  0.2532  2.0213
  784MOL0     H 5831   6.831  -0.426  11.304 -0.2070  2.0438  0.0862
  784MOL0     H 5832   6.941  -0.633  11.210 -0.5293 -0.5972  0.1969
  784MOL0     H 5833   7.013  -0.529  11.077 -0.9946 -0.1156 -1.1668
  784MOL0     H 5834   6.710  -0.573  11.132  0.6032  1.8465  0.2636
  784MOL0     H 5835   6.779  -0.517  10.985  2.9142  0.2704 -1.3572
  784MOL0     H 5836   6.853  -0.939  10.978  0.1514 -0.0732  3.8964
  784MOL0     H 5837   7.228  -0.315  11.464  0.9404  0.7126  2.7692
  784MOL0     H 5838   7.392  -0.095  11.631  1.3499 -0.4407  0.4409
  784MOL0     H 5839   7.367  -0.267  11.616 -1.9104  1.6047 -0.4560
  784MOL0     H 5840   7.533  -0.194  11.601  0.2117  2.5664  0.9056
  785MOL0     O 5841   0.785   2.942   2.531 -0.5919  0.1340  0.1866
  785MOL0     C 5842   0.804   2.825   2.546 -0.2620  0.1018 -0.3114
  785MOL0     O 5843   0.875   2.773   2.648 -0.6074 -0.3246 -0.6783
  785MOL0     C 5844   0.939   2.851   2.736 -0.0833  0.3254  0.7364
  785MOL0     C 5845   0.878   2.907   2.850  0.8467  0.0578  0.1390
  785MOL0     C 5846   0.952   2.975   2.951  0.6425  1.7985  0.5354
  785MOL0     C 5847   1.094   2.986   2.948  0.5752  0.4246 -0.5634
  785MOL0     O 5848   1.178   3.034   3.047  0.0546 -0.5707  0.0329
  785MOL0     C 5849   1.131   3.153   3.113  0.2649 -0.2665  0.1800
  785MOL0     C 5850   1.221   3.201   3.237  0.2815  0.0128 -0.4612
  785MOL0     C 5851   1.153   3.316   3.305  0.5716  0.7819 -0.3180
  785MOL0     C 5852   1.257   3.403   3.375 -0.6711 -0.1386 -0.4126
  785MOL0     C 5853   1.205   3.547   3.391  0.1497  0.0874 -0.0505
  785MOL0     C 5854   1.082   3.541   3.487  0.3528 -0.4788  0.6997
  785MOL0     C 5855   1.044   3.672   3.552 -0.9672 -0.3772  0.3901
  785MOL0     C 5856   0.893   3.679   3.584 -0.6211 -0.8595  0.1885
  785MOL0     N 5857   0.811   3.744   3.485  0.2036 -0.2990  0.9254
  785MOL0     C 5858   0.682   3.702   3.454 -0.7573  0.0046  0.2962
  785MOL0     C 5859   0.624   3.810   3.385 -0.1701  0.0047 -0.5736
  785MOL0     C 5860   0.495   3.796   3.322  0.0925 -0.6281  0.1026
  785MOL0     C 5861   0.503   3.708   3.203  0.5405  1.3551  0.9719
  785MOL0     C 5862   0.378   3.716   3.112  0.3732  0.0308  0.7714
  785MOL0     C 5863   0.387   3.636   2.989  0.1025  0.3993 -1.3169
  785MOL0     O 5864   0.268   3.652   2.904 -0.3269  0.3409  0.0013
  785MOL0     C 5865   0.253   3.551   2.808  0.8370  0.3918  0.5234
  785MOL0     C 5866   0.358   3.473   2.755  0.4473 -0.3245 -0.8445
  785MOL0     C 5867   0.342   3.374   2.668 -0.8631 -0.3101 -0.0272
  785MOL0     C 5868   0.223   3.354   2.605 -0.6684  0.1367  0.2404
  785MOL0     C 5869   0.220   3.251   2.502  0.5227  1.3254 -0.1364
  785MOL0     O 5870   0.120   3.254   2.415 -0.5915 -0.4607 -0.0776
  785MOL0     C 5871   0.115   3.176   2.297 -0.0302  0.0607 -0.6627
  785MOL0     C 5872   0.226   3.102   2.241  0.2680 -0.4445 -0.9409
  785MOL0     C 5873   0.198   3.028   2.134 -0.1311 -0.4972 -0.5579
  785MOL0     C 5874   0.078   3.026   2.068  0.7929 -0.6099 -0.1976
  785MOL0     O 5875   0.076   2.972   1.944 -0.3081  0.4418 -0.5862
  785MOL0     C 5876  -0.049   2.967   1.876 -0.1683 -0.3284 -0.1164
  785MOL0     C 5877  -0.010   2.927   1.732  0.3814  0.3264 -0.5634
  785MOL0     C 5878  -0.014   2.767   1.722 -0.4782 -0.1450  0.2788
  785MOL0     C 5879   0.067   2.712   1.600  0.3604  0.4394 -0.8718
  785MOL0     C 5880   0.136   2.580   1.637 -0.9485  1.0559 -0.7839
  785MOL0     C 5881   0.219   2.565   1.766 -0.3252  0.0588 -0.4823
  785MOL0     C 5882   0.306   2.691   1.782 -0.8302 -0.1346 -0.5572
  785MOL0     C 5883   0.362   2.700   1.924 -0.3870 -0.0451  0.0486
  785MOL0    Cl 5884   0.456   2.834   1.960  0.3063 -0.1155 -0.6787
  785MOL0     C 5885  -0.030   3.100   2.125  0.2489 -0.6944  0.4561
  785MOL0     C 5886  -0.010   3.161   2.247 -0.2666  0.2311 -0.1406
  785MOL0     O 5887   0.303   3.165   2.503  0.4402 -0.1657 -0.5521
  785MOL0     C 5888   0.106   3.432   2.639  0.1304  0.1524 -0.1066
  785MOL0     C 5889   0.126   3.527   2.742  1.1850 -0.2472  0.3734
  785MOL0     N 5890   0.724   3.903   3.371 -0.2838  0.3867  0.4143
  785MOL0     N 5891   0.833   3.871   3.440 -0.1738  0.2672  0.0971
  785MOL0     C 5892   1.142   2.936   2.832 -0.7944 -0.4681 -0.0696
  785MOL0     C 5893   1.078   2.867   2.730 -0.5302 -0.0946 -1.2238
  785MOL0     C 5894   0.734   2.715   2.465  0.1691  0.3125  0.6869
  785MOL0     C 5895   0.739   2.578   2.508  0.1004 -0.1498  0.4619
  785MOL0     C 5896   0.673   2.468   2.442  0.5081 -0.6550  0.2393
  785MOL0     C 5897   0.601   2.503   2.329 -0.2230 -0.2028 -1.1655
  785MOL0     O 5898   0.529   2.410   2.255 -0.2534 -0.2539 -0.8866
  785MOL0     C 5899   0.544   2.267   2.275  0.1542  0.1883 -0.0259
  785MOL0     C 5900   0.670   2.222   2.208 -0.0569  0.1780  0.3976
  785MOL0     C 5901   0.667   2.073   2.161 -0.6183  0.8731 -0.2609
  785MOL0     C 5902   0.568   2.042   2.044  0.0754 -0.0142  0.3605
  785MOL0     C 5903   0.571   1.898   2.007  0.2106 -0.3664  0.4939
  785MOL0     C 5904   0.584   1.781   1.982 -0.5069 -0.8636 -0.6218
  785MOL0     C 5905   0.583   2.634   2.283 -0.0611 -0.4138 -0.0517
  785MOL0     C 5906   0.660   2.737   2.346  0.1009  0.1605 -0.5722
  785MOL0     C 5907   0.655   2.865   2.281  0.1496 -0.3864  0.2190
  785MOL0     H 5908   0.772   2.889   2.864  0.6185  1.7443  0.9631
  785MOL0     H 5909   0.903   2.983   3.048  2.0228 -1.1429  1.6072
  785MOL0     H 5910   1.126   3.226   3.032  1.3834  1.3253  1.4876
  785MOL0     H 5911   1.029   3.139   3.152 -0.1869 -0.1043 -0.9104
  785MOL0     H 5912   1.317   3.232   3.195  1.0762 -0.8217  0.6957
  785MOL0     H 5913   1.235   3.116   3.304  1.2634  0.0980 -0.5450
  785MOL0     H 5914   1.081   3.276   3.377 -0.2096  0.1766 -1.4075
  785MOL0     H 5915   1.108   3.387   3.234  0.0559  3.4541  2.4787
  785MOL0     H 5916   1.286   3.366   3.473 -3.4787  0.2568  0.6317
  785MOL0     H 5917   1.340   3.416   3.305 -0.8932  0.5247 -0.5587
  785MOL0     H 5918   1.288   3.611   3.422 -0.3526  0.4651  0.5568
  785MOL0     H 5919   1.174   3.581   3.292 -1.2511 -0.0316  0.3167
  785MOL0     H 5920   1.000   3.515   3.419 -1.3953  3.5539  0.9343
  785MOL0     H 5921   1.082   3.454   3.553 -0.5954 -2.0141 -1.2211
  785MOL0     H 5922   1.064   3.749   3.476  1.1249 -3.1114 -2.0549
  785MOL0     H 5923   1.098   3.695   3.644 -2.1424 -0.0892  1.0267
  785MOL0     H 5924   0.869   3.576   3.607  1.3468 -1.9072 -1.9394
  785MOL0     H 5925   0.870   3.733   3.676 -1.3575 -0.2437 -0.3435
  785MOL0     H 5926   0.639   3.611   3.493  0.3913 -1.1625 -1.0536
  785MOL0     H 5927   0.423   3.742   3.384 -3.3236  3.1456 -0.1024
  785MOL0     H 5928   0.450   3.895   3.310  0.0436 -0.5817  0.6617
  785MOL0     H 5929   0.594   3.726   3.144  0.8952 -1.0848  0.6653
  785MOL0     H 5930   0.504   3.604   3.235 -1.2430  0.6281 -1.0639
  785MOL0     H 5931   0.361   3.818   3.078  2.0502 -0.0483 -0.4371
  785MOL0     H 5932   0.289   3.684   3.167  0.4540 -2.9222 -0.6110
  785MOL0     H 5933   0.383   3.534   3.030 -0.7687  0.1112 -2.0867
  785MOL0     H 5934   0.471   3.664   2.924 -1.8769  4.2516 -2.5303
  785MOL0     H 5935   0.460   3.488   2.788  0.0986  1.6913 -0.5844
  785MOL0     H 5936   0.428   3.309   2.655  0.4243  1.4835 -0.9485
  785MOL0     H 5937   0.329   3.114   2.273 -0.3625  0.7697  0.7954
  785MOL0     H 5938   0.285   2.985   2.086  0.5602 -0.2104  0.4134
  785MOL0     H 5939  -0.125   2.901   1.919 -0.2896  0.8452  1.5502
  785MOL0     H 5940  -0.085   3.069   1.865  2.3640  0.5050 -1.7982
  785MOL0     H 5941  -0.073   2.976   1.656  3.1908  0.0005 -3.2957
  785MOL0     H 5942   0.088   2.972   1.711  0.3939  0.3920 -0.3637
  785MOL0     H 5943   0.024   2.713   1.809 -1.3327 -0.9926  0.1446
  785MOL0     H 5944  -0.114   2.724   1.714 -0.5548  0.4178 -3.5295
  785MOL0     H 5945   0.143   2.784   1.568 -0.3917  1.9413  0.5944
  785MOL0     H 5946  -0.005   2.697   1.520 -0.2006 -0.5269 -0.2057
  785MOL0     H 5947   0.208   2.550   1.560  0.6430  0.5903  0.8351
  785MOL0     H 5948   0.062   2.499   1.647  1.7909 -1.5094  0.2048
  785MOL0     H 5949   0.156   2.562   1.855  0.3540  0.7153  0.0395
  785MOL0     H 5950   0.286   2.478   1.761 -1.8322 -1.2784  1.1175
  785MOL0     H 5951   0.249   2.782   1.765 -0.0442  0.4018 -0.3474
  785MOL0     H 5952   0.403   2.682   1.732  0.6600  0.5408  2.0540
  785MOL0     H 5953   0.281   2.692   1.997 -0.3917 -0.3967  0.0096
  785MOL0     H 5954   0.425   2.612   1.939 -2.5349 -1.5338  0.8462
  785MOL0     H 5955  -0.129   3.098   2.079 -0.8802  1.8673  2.5186
  785MOL0     H 5956  -0.098   3.207   2.290  0.0743 -0.6236  1.5545
  785MOL0     H 5957   0.017   3.416   2.579 -0.0115 -2.8730  0.7479
  785MOL0     H 5958   0.050   3.598   2.772  0.4085 -1.1135  0.4656
  785MOL0     H 5959   1.250   2.938   2.821 -0.6543 -2.6921  0.4044
  785MOL0     H 5960   1.145   2.832   2.653 -0.9130 -3.5692 -0.1648
  785MOL0     H 5961   0.792   2.544   2.597  3.1099 -2.1011 -1.8932
  785MOL0     H 5962   0.680   2.367   2.480  0.2417 -0.3242  1.1937
  785MOL0     H 5963   0.455   2.231   2.222  0.5673 -1.4575  0.3264
  785MOL0     H 5964   0.537   2.236   2.380 -3.0117  1.8997  0.4114
  785MOL0     H 5965   0.757   2.250   2.268 -0.5345  3.7511 -0.3388
  785MOL0     H 5966   0.683   2.286   2.120  0.3129 -1.7856 -1.0641
  785MOL0     H 5967   0.660   2.012   2.251  0.8312  3.2621  1.5875
  785MOL0     H 5968   0.765   2.046   2.121 -0.8913  0.7397 -0.8496
  785MOL0     H 5969   0.470   2.083   2.072  1.6031  2.7991  1.9952
  785MOL0     H 5970   0.606   2.098   1.958  1.0932 -0.5604  0.4378
  785MOL0     H 5971   0.604   1.677   1.963 -2.1408 -1.0303 -1.6151
  785MOL0     H 5972   0.511   2.641   2.202  0.8906 -0.2577 -0.9072
  785MOL0     H 5973   0.653   2.859   2.172  1.7382  0.1363  0.1272
  785MOL0     H 5974   0.582   2.933   2.326 -1.2408 -0.9094 -1.1783
  785MOL0     H 5975   0.750   2.916   2.302 -0.6830  1.3830 -0.0711
  786MOL0     O 5976   0.267   6.077   5.724  0.8766  0.1125  0.1376
  786MOL0     C 5977   0.219   5.991   5.791 -0.2386  1.0982  0.1832
  786MOL0     O 5978   0.283   5.873   5.821  0.4507  0.5502  0.7116
  786MOL0     C 5979   0.392   5.835   5.747  0.7753 -0.0252  0.1031
  786MOL0     C 5980   0.381   5.798   5.605  0.0808  0.2605 -0.1449
  786MOL0     C 5981   0.486   5.734   5.549 -0.7802  0.0593  0.1071
  786MOL0     C 5982   0.609   5.723   5.611  0.5230 -0.8498  0.2927
  786MOL0     O 5983   0.710   5.679   5.529  0.6170 -1.1799 -0.7716
  786MOL0     C 5984   0.824   5.622   5.592  0.4161  0.4254  0.0614
  786MOL0     C 5985   0.933   5.567   5.506  0.2512 -0.4062  0.8987
  786MOL0     C 5986   0.911   5.430   5.438 -0.1232  0.2496 -0.6438
  786MOL0     C 5987   1.042   5.390   5.370  0.3210  0.2211  0.5991
  786MOL0     C 5988   1.028   5.247   5.303 -0.0111 -0.3942 -0.4687
  786MOL0     C 5989   1.163   5.176   5.314 -0.1943 -0.3183  0.0352
  786MOL0     C 5990   1.157   5.056   5.218  0.0062 -0.4530 -0.6613
  786MOL0     C 5991   1.261   4.956   5.251 -0.3331  0.1540 -1.2480
  786MOL0     N 5992   1.398   5.025   5.242  1.1297 -0.4043  0.7047
  786MOL0     C 5993   1.465   5.057   5.129 -0.0460 -0.4916 -0.3971
  786MOL0     C 5994   1.569   5.139   5.157  0.0328 -0.1593 -0.8246
  786MOL0     C 5995   1.676   5.194   5.060 -0.3564 -0.1402 -0.3751
  786MOL0     C 5996   1.824   5.159   5.088 -0.2458  0.1267 -0.5586
  786MOL0     C 5997   1.916   5.237   4.996 -0.1540 -0.7319 -0.3681
  786MOL0     C 5998   2.068   5.227   5.037  0.5866  0.1954 -0.4323
  786MOL0     O 5999   2.136   5.265   4.924 -0.0567 -0.3458 -0.2698
  786MOL0     C 6000   2.253   5.193   4.934  0.5471 -1.0592  0.5004
  786MOL0     C 6001   2.344   5.215   5.035 -0.1429  0.1476 -0.0914
  786MOL0     C 6002   2.470   5.157   5.031 -0.2648 -0.2788  0.4548
  786MOL0     C 6003   2.506   5.087   4.915 -0.4637  0.6708  0.2067
  786MOL0     C 6004   2.642   5.019   4.912  0.8146 -0.1639  0.6804
  786MOL0     O 6005   2.726   5.047   5.018  0.1563 -0.6597  0.1520
  786MOL0     C 6006   2.866   5.029   5.021  0.9651  0.8812 -0.1979
  786MOL0     C 6007   2.951   5.011   4.906 -0.4316 -0.1032  0.4755
  786MOL0     C 6008   3.077   4.968   4.933  0.1082 -0.3398 -0.1177
  786MOL0     C 6009   3.132   4.958   5.053  0.2499 -0.2853 -0.4411
  786MOL0     O 6010   3.268   4.932   5.067 -0.1001 -0.1013 -0.3313
  786MOL0     C 6011   3.337   4.977   5.190  1.1989 -0.0767  0.5752
  786MOL0     C 6012   3.477   4.932   5.166 -0.2319 -0.1410  0.1348
  786MOL0     C 6013   3.506   4.788   5.210  0.8293 -0.9212 -0.3953
  786MOL0     C 6014   3.624   4.744   5.129  0.0344  0.6796  0.3891
  786MOL0     C 6015   3.701   4.623   5.197  0.1493  0.9843 -0.2512
  786MOL0     C 6016   3.747   4.648   5.338 -0.5734  0.7293 -0.4333
  786MOL0     C 6017   3.845   4.544   5.398  0.1308 -0.3278  0.4471
  786MOL0     C 6018   3.981   4.525   5.338  0.0927 -0.0355  0.7158
  786MOL0    Cl 6019   4.074   4.678   5.332  0.8981 -0.0350  0.4460
  786MOL0     C 6020   3.055   4.985   5.168 -0.0956  0.4124  0.1883
  786MOL0     C 6021   2.923   5.019   5.147  0.6560 -0.4380  0.4419
  786MOL0     O 6022   2.674   4.946   4.818 -0.1974  0.1825  0.4818
  786MOL0     C 6023   2.422   5.076   4.807 -1.4072  0.2331  0.4656
  786MOL0     C 6024   2.291   5.121   4.818 -0.2761 -1.0076 -0.4531
  786MOL0     N 6025   1.558   5.153   5.287 -0.7885  0.2576  0.0590
  786MOL0     N 6026   1.460   5.092   5.340 -0.0555  0.3602 -0.2673
  786MOL0     C 6027   0.619   5.744   5.747 -0.7354 -0.1943  0.0803
  786MOL0     C 6028   0.509   5.800   5.814  0.0591 -0.9409 -0.9404
  786MOL0     C 6029   0.081   6.000   5.845 -0.3850 -0.0877 -0.4324
  786MOL0     C 6030   0.038   5.912   5.945 -0.4380  0.4007  0.7611
  786MOL0     C 6031  -0.085   5.920   6.010  0.1129 -0.4629  0.5304
  786MOL0     C 6032  -0.180   6.013   5.974 -0.5933 -0.4595 -0.6590
  786MOL0     O 6033  -0.295   6.036   6.042 -0.0426  0.3941 -0.4428
  786MOL0     C 6034  -0.363   5.938   6.114  0.2393  0.3193  0.1173
  786MOL0     C 6035  -0.461   6.016   6.205 -0.8777  0.2924 -0.7771
  786MOL0     C 6036  -0.582   6.062   6.133  0.7345  0.0125  0.6673
  786MOL0     C 6037  -0.611   6.215   6.132 -0.1399  0.1009 -0.4607
  786MOL0     C 6038  -0.729   6.241   6.051  0.3650 -0.8350  1.0655
  786MOL0     C 6039  -0.825   6.270   5.982  0.4096 -0.1201 -0.3711
  786MOL0     C 6040  -0.140   6.105   5.873  0.1726  0.7865  0.2523
  786MOL0     C 6041  -0.015   6.091   5.805  0.9155 -0.4268  0.4298
  786MOL0     C 6042   0.009   6.201   5.691  0.3072  0.1854  0.7624
  786MOL0     H 6043   0.289   5.799   5.546  0.9167  1.0426 -1.4978
  786MOL0     H 6044   0.475   5.703   5.445  1.5063  1.5717 -0.6614
  786MOL0     H 6045   0.869   5.697   5.658  0.9873 -0.7936  1.1004
  786MOL0     H 6046   0.778   5.542   5.651 -2.5240 -0.3196 -2.9653
  786MOL0     H 6047   1.020   5.564   5.572  2.9789 -0.1338 -2.4336
  786MOL0     H 6048   0.951   5.644   5.431  1.8432 -0.8216  0.8198
  786MOL0     H 6049   0.828   5.428   5.368 -1.0136 -2.0129  0.3653
  786MOL0     H 6050   0.890   5.357   5.517  0.1480  0.6184 -0.2211
  786MOL0     H 6051   1.069   5.460   5.290  0.2999 -1.5450 -1.0309
  786MOL0     H 6052   1.126   5.397   5.440 -1.1172 -2.3824  2.7694
  786MOL0     H 6053   0.942   5.193   5.345  2.3527 -3.3421  1.0446
  786MOL0     H 6054   0.997   5.255   5.198  0.4553 -0.5996 -0.6241
  786MOL0     H 6055   1.248   5.240   5.286 -0.8566  0.2646 -0.6559
  786MOL0     H 6056   1.185   5.149   5.418 -0.6357  3.9808  1.4374
  786MOL0     H 6057   1.177   5.091   5.116  1.7555 -3.4398 -1.4630
  786MOL0     H 6058   1.059   5.007   5.214 -0.9790  1.4285 -0.9512
  786MOL0     H 6059   1.245   4.919   5.352 -0.5328  2.3752 -0.4074
  786MOL0     H 6060   1.246   4.869   5.186 -1.9400 -0.4584 -0.1256
  786MOL0     H 6061   1.446   5.014   5.031 -1.4489 -0.7046 -0.0430
  786MOL0     H 6062   1.652   5.165   4.957  1.3107  1.2234 -1.1876
  786MOL0     H 6063   1.673   5.303   5.061  0.8579 -0.0871  0.5278
  786MOL0     H 6064   1.845   5.185   5.192 -0.8993 -2.0818  0.1791
  786MOL0     H 6065   1.835   5.054   5.061 -3.3283 -0.4439 -0.0462
  786MOL0     H 6066   1.895   5.344   4.992 -1.7459 -0.8621  2.0745
  786MOL0     H 6067   1.907   5.197   4.895 -1.1350  2.2930 -1.5954
  786MOL0     H 6068   2.092   5.126   5.073  1.8217  0.7409  0.3458
  786MOL0     H 6069   2.098   5.289   5.122  4.3412 -0.3505 -1.1568
  786MOL0     H 6070   2.323   5.278   5.122  2.7642  1.9031 -0.5243
  786MOL0     H 6071   2.533   5.172   5.118  3.2179 -1.1619 -1.7306
  786MOL0     H 6072   2.898   5.009   4.811  0.5472 -4.2315 -0.1917
  786MOL0     H 6073   3.151   4.945   4.857  0.6680  0.1560  0.2626
  786MOL0     H 6074   3.344   5.086   5.196  2.8434 -0.1791  0.9409
  786MOL0     H 6075   3.282   4.958   5.283 -0.4467 -1.8343 -0.6624
  786MOL0     H 6076   3.515   4.954   5.066 -1.0275  0.2200 -0.0969
  786MOL0     H 6077   3.540   4.988   5.236 -0.3236  0.6363 -0.3940
  786MOL0     H 6078   3.530   4.789   5.316  0.7621  1.9216 -0.3294
  786MOL0     H 6079   3.416   4.728   5.197 -0.2808  0.5200  0.4538
  786MOL0     H 6080   3.690   4.830   5.117 -2.0038  2.8206  3.0953
  786MOL0     H 6081   3.580   4.701   5.039 -3.6002 -0.4754  2.5003
  786MOL0     H 6082   3.787   4.592   5.137  2.2730  0.5615  2.8273
  786MOL0     H 6083   3.636   4.536   5.211 -0.5754  1.3400 -1.2898
  786MOL0     H 6084   3.785   4.750   5.329  0.3657  0.4568  0.2528
  786MOL0     H 6085   3.660   4.645   5.404  0.5237  0.7940  1.0728
  786MOL0     H 6086   3.787   4.451   5.394 -1.7064  0.8182 -1.8177
  786MOL0     H 6087   3.866   4.568   5.503  0.3197 -0.2978  0.4020
  786MOL0     H 6088   4.039   4.446   5.388  2.3920  1.3471  0.3762
  786MOL0     H 6089   3.969   4.491   5.235  0.8294 -0.5610  0.7869
  786MOL0     H 6090   3.079   4.984   5.273  0.4307  0.5140  0.0745
  786MOL0     H 6091   2.851   5.029   5.228 -1.1939 -0.2908 -1.1298
  786MOL0     H 6092   2.456   5.026   4.717 -2.0813  0.4486  0.0790
  786MOL0     H 6093   2.228   5.110   4.731 -3.0809  1.4657  1.0719
  786MOL0     H 6094   0.705   5.718   5.808  0.0803 -0.8832 -1.3238
  786MOL0     H 6095   0.513   5.823   5.920  1.2249 -2.1848 -0.6872
  786MOL0     H 6096   0.110   5.839   5.981  0.4012  0.7516 -0.1370
  786MOL0     H 6097  -0.097   5.845   6.088  2.7740  0.0556  1.5353
  786MOL0     H 6098  -0.304   5.862   6.164  0.7419 -0.2865 -1.3494
  786MOL0     H 6099  -0.416   5.888   6.032  0.2628  1.3720 -0.5632
  786MOL0     H 6100  -0.409   6.096   6.259 -0.0289 -1.2925  0.8592
  786MOL0     H 6101  -0.489   5.938   6.276  0.3947 -1.3350 -1.9903
  786MOL0     H 6102  -0.665   6.030   6.198  0.6809  3.1561  2.3859
  786MOL0     H 6103  -0.597   6.017   6.035 -0.4166  0.5040  0.5975
  786MOL0     H 6104  -0.616   6.249   6.236 -0.4986  1.7013 -0.9707
  786MOL0     H 6105  -0.524   6.259   6.082 -0.4478  0.1530 -0.9621
  786MOL0     H 6106  -0.911   6.295   5.924 -0.2788 -0.9817  0.2489
  786MOL0     H 6107  -0.191   6.200   5.855  2.3840  1.8839 -0.6501
  786MOL0     H 6108  -0.082   6.241   5.646 -0.6901 -0.9376  1.7302
  786MOL0     H 6109   0.065   6.283   5.739 -0.8180  0.6799  1.2564
  786MOL0     H 6110   0.075   6.157   5.616  0.8432 -1.3573  2.0746
  787MOL0     O 6111   1.397   3.281   3.743  0.0050 -0.3940 -0.4943
  787MOL0     C 6112   1.429   3.334   3.852 -0.1281 -0.3177  0.5117
  787MOL0     O 6113   1.521   3.442   3.859 -0.3633  0.3465 -0.4601
  787MOL0     C 6114   1.604   3.466   3.746  0.9038 -0.5088 -0.6240
  787MOL0     C 6115   1.745   3.448   3.764  0.7427 -1.2602  0.6235
  787MOL0     C 6116   1.833   3.465   3.661 -0.0682  0.1932 -1.2667
  787MOL0     C 6117   1.788   3.490   3.537 -0.3344 -0.1171 -0.8144
  787MOL0     O 6118   1.871   3.487   3.430  0.4230 -0.8402 -0.9904
  787MOL0     C 6119   1.867   3.592   3.330 -0.4285 -0.7334 -0.1542
  787MOL0     C 6120   1.992   3.557   3.237  0.0355 -0.5946  0.6685
  787MOL0     C 6121   2.019   3.672   3.144  0.0651  0.4278 -0.0550
  787MOL0     C 6122   2.148   3.664   3.054 -0.6792 -0.4947  0.5522
  787MOL0     C 6123   2.166   3.799   2.963 -0.1041 -0.2644 -0.9333
  787MOL0     C 6124   2.279   3.773   2.862 -0.9019  0.0560  0.0664
  787MOL0     C 6125   2.302   3.881   2.758  0.1851 -0.1633  0.4289
  787MOL0     C 6126   2.197   3.881   2.646  0.4015 -0.8538 -0.2072
  787MOL0     N 6127   2.209   3.767   2.565  0.1638  0.6600  1.2892
  787MOL0     C 6128   2.249   3.783   2.438 -0.1446 -0.1555  0.3324
  787MOL0     C 6129   2.216   3.661   2.383  0.5568 -0.2135  0.5158
  787MOL0     C 6130   2.254   3.632   2.239  0.7571 -0.3432  0.2407
  787MOL0     C 6131   2.389   3.690   2.194  0.4851  0.1653 -0.3666
  787MOL0     C 6132   2.396   3.684   2.043 -1.1155 -1.0403 -1.1350
  787MOL0     C 6133   2.537   3.658   1.980 -0.4945  0.2236 -0.6954
  787MOL0     O 6134   2.651   3.712   2.065 -0.0054  0.0705 -0.5914
  787MOL0     C 6135   2.780   3.698   2.022 -0.3376 -0.5562 -1.0412
  787MOL0     C 6136   2.820   3.644   1.903 -0.4382  0.4423 -0.3584
  787MOL0     C 6137   2.955   3.638   1.870  1.0769  0.1550 -0.1696
  787MOL0     C 6138   3.056   3.680   1.952  0.4538 -0.0255 -0.5595
  787MOL0     C 6139   3.192   3.674   1.918 -0.8155 -0.5012  0.6795
  787MOL0     O 6140   3.286   3.705   2.013 -1.4956 -0.3544  0.4366
  787MOL0     C 6141   3.419   3.696   2.013 -0.2165 -0.5009  0.3564
  787MOL0     C 6142   3.485   3.593   1.944  0.0656  0.6452  0.0459
  787MOL0     C 6143   3.627   3.603   1.931  0.2680 -0.7041  0.0186
  787MOL0     C 6144   3.695   3.709   2.002 -0.6456  0.3171  0.7772
  787MOL0     O 6145   3.827   3.718   1.994  0.2642  0.0379  0.1969
  787MOL0     C 6146   3.885   3.762   1.869  0.5886 -0.0927 -0.5890
  787MOL0     C 6147   4.028   3.700   1.882 -0.1233 -0.8570  0.3005
  787MOL0     C 6148   4.131   3.782   1.799  0.4881 -0.0949 -0.1604
  787MOL0     C 6149   4.273   3.736   1.816 -0.3763 -0.6450  0.0401
  787MOL0     C 6150   4.367   3.861   1.797 -0.0088 -0.0262 -0.3604
  787MOL0     C 6151   4.524   3.839   1.811 -0.5057  0.5844 -0.2208
  787MOL0     C 6152   4.614   3.948   1.764 -0.0741 -1.1132  0.1128
  787MOL0     C 6153   4.763   3.896   1.759 -0.0554  0.3677 -0.2085
  787MOL0    Cl 6154   4.848   4.027   1.666 -0.2620 -0.3586  0.0209
  787MOL0     C 6155   3.622   3.811   2.047  0.4525 -0.4820 -0.5148
  787MOL0     C 6156   3.483   3.811   2.059 -1.0512  0.0818 -0.2966
  787MOL0     O 6157   3.217   3.643   1.804  0.3861 -1.0636  0.3842
  787MOL0     C 6158   3.011   3.739   2.071  0.2420 -0.1645  0.1760
  787MOL0     C 6159   2.880   3.735   2.112 -0.4750  0.1166 -0.1306
  787MOL0     N 6160   2.156   3.582   2.476  0.9638  0.2017  0.0252
  787MOL0     N 6161   2.145   3.652   2.585 -0.0956  0.0548  0.4453
  787MOL0     C 6162   1.652   3.485   3.516  0.4619  0.6012  0.3231
  787MOL0     C 6163   1.558   3.489   3.614 -0.2919  0.6711 -0.1447
  787MOL0     C 6164   1.350   3.291   3.968 -0.2360  0.1851  0.3961
  787MOL0     C 6165   1.331   3.386   4.075  0.3057 -1.1153 -0.1861
  787MOL0     C 6166   1.255   3.351   4.188  0.1142 -0.0788 -0.1266
  787MOL0     C 6167   1.198   3.228   4.208 -0.0165  0.0599  0.2168
  787MOL0     O 6168   1.128   3.206   4.328  0.7733  0.5853 -0.1103
  787MOL0     C 6169   1.043   3.098   4.321  0.3513 -0.6724 -1.2448
  787MOL0     C 6170   0.936   3.114   4.439 -0.3526 -0.1684  0.2977
  787MOL0     C 6171   0.885   3.257   4.470 -0.3032 -0.1678  0.2419
  787MOL0     C 6172   0.838   3.332   4.349  0.2984 -0.5656 -0.2715
  787MOL0     C 6173   0.709   3.275   4.320 -0.3990 -0.2507  0.1508
  787MOL0     C 6174   0.598   3.235   4.290  0.1594 -0.7804 -0.6614
  787MOL0     C 6175   1.225   3.134   4.109  0.5831 -0.3478  0.8504
  787MOL0     C 6176   1.293   3.162   3.985  0.0191  0.2727 -0.5027
  787MOL0     C 6177   1.323   3.036   3.896  0.7604 -0.8408  0.2705
  787MOL0     H 6178   1.780   3.434   3.866 -1.1686  0.2730  1.5571
  787MOL0     H 6179   1.938   3.460   3.687  0.3544 -0.1716 -2.9198
  787MOL0     H 6180   1.771   3.586   3.278 -0.6829  0.9618  0.0761
  787MOL0     H 6181   1.869   3.695   3.366  3.2376 -0.6667 -0.2268
  787MOL0     H 6182   1.972   3.465   3.181 -1.8593  0.2485 -0.1275
  787MOL0     H 6183   2.078   3.538   3.301  0.3814 -1.7914 -0.1129
  787MOL0     H 6184   2.038   3.764   3.200  1.2318 -0.5407  1.2329
  787MOL0     H 6185   1.927   3.689   3.088  0.1311  0.2046 -0.2310
  787MOL0     H 6186   2.245   3.670   3.103  0.9013 -1.3966 -2.3020
  787MOL0     H 6187   2.157   3.574   2.993  0.8084  0.1201 -0.1767
  787MOL0     H 6188   2.070   3.810   2.913 -0.7776 -2.4913 -0.2395
  787MOL0     H 6189   2.190   3.884   3.029 -1.8702  0.1288 -0.7391
  787MOL0     H 6190   2.373   3.749   2.912 -1.1961 -0.0556  0.5675
  787MOL0     H 6191   2.258   3.677   2.813  2.3331  0.0170 -1.5702
  787MOL0     H 6192   2.405   3.868   2.725  0.9216  0.2511  2.3982
  787MOL0     H 6193   2.305   3.982   2.800  1.0425  1.1866 -2.6118
  787MOL0     H 6194   2.098   3.886   2.693  0.5970 -2.9609  0.5441
  787MOL0     H 6195   2.205   3.975   2.591  0.6211 -0.3953  0.5906
  787MOL0     H 6196   2.302   3.864   2.389 -1.3979 -0.6772 -2.0465
  787MOL0     H 6197   2.240   3.526   2.220 -0.6157 -0.6419  2.5443
  787MOL0     H 6198   2.174   3.682   2.183 -1.6573 -2.9596  1.1047
  787MOL0     H 6199   2.414   3.793   2.223  2.3793 -0.2160 -0.4937
  787MOL0     H 6200   2.461   3.627   2.247 -2.1876 -1.1674  1.9507
  787MOL0     H 6201   2.354   3.780   2.012 -0.6481  1.0653  3.8187
  787MOL0     H 6202   2.334   3.599   2.010  0.1953 -2.1755 -0.7624
  787MOL0     H 6203   2.537   3.715   1.887 -0.3420  4.8044  1.8155
  787MOL0     H 6204   2.546   3.550   1.969 -2.0816  0.0330 -0.3904
  787MOL0     H 6205   2.748   3.590   1.841 -0.0649  0.1160 -0.5116
  787MOL0     H 6206   2.976   3.585   1.778 -0.9200  1.0677 -1.2289
  787MOL0     H 6207   3.431   3.509   1.901  0.5788 -0.1895  0.9983
  787MOL0     H 6208   3.682   3.528   1.874  0.0774  0.3775 -1.6479
  787MOL0     H 6209   3.841   3.715   1.781  0.9491  1.2982 -1.5467
  787MOL0     H 6210   3.890   3.871   1.879 -1.5692 -0.0298  0.3884
  787MOL0     H 6211   4.063   3.706   1.986  1.1027 -3.2325  0.0843
  787MOL0     H 6212   4.034   3.593   1.861  3.9649 -1.2289  2.2880
  787MOL0     H 6213   4.091   3.787   1.698 -0.2603 -0.7271  0.0978
  787MOL0     H 6214   4.119   3.881   1.844  0.4617 -0.5129  0.7727
  787MOL0     H 6215   4.294   3.661   1.739  2.2824  0.4615 -0.4447
  787MOL0     H 6216   4.295   3.688   1.912  1.3270 -2.7185 -1.2871
  787MOL0     H 6217   4.334   3.931   1.874  3.0761  0.5172  0.6241
  787MOL0     H 6218   4.341   3.908   1.702 -2.0697 -0.6686 -0.1731
  787MOL0     H 6219   4.545   3.815   1.916  1.2922  1.0460 -0.4337
  787MOL0     H 6220   4.539   3.748   1.753  0.4276  1.0033 -0.6648
  787MOL0     H 6221   4.610   4.044   1.816 -0.8101 -0.3852 -1.2292
  787MOL0     H 6222   4.580   3.971   1.662 -1.8252 -2.4892  0.3366
  787MOL0     H 6223   4.805   3.871   1.857 -0.2881  3.8000  0.9346
  787MOL0     H 6224   4.757   3.805   1.700  0.8420 -1.4899  2.4023
  787MOL0     H 6225   3.658   3.910   2.072 -2.1866  0.2765  0.6964
  787MOL0     H 6226   3.427   3.900   2.086  2.8324  3.4162 -2.3669
  787MOL0     H 6227   3.087   3.765   2.144  1.5232 -0.2914 -1.0599
  787MOL0     H 6228   2.854   3.780   2.207 -1.3100 -0.1284 -0.2352
  787MOL0     H 6229   1.627   3.476   3.411  2.1772  0.4912 -0.0997
  787MOL0     H 6230   1.450   3.493   3.597 -0.4605  1.0941  0.9638
  787MOL0     H 6231   1.371   3.487   4.065 -1.2919 -0.4947 -0.4885
  787MOL0     H 6232   1.241   3.420   4.271  2.2487 -0.0324  0.2522
  787MOL0     H 6233   1.089   3.000   4.334 -1.4229 -1.3923  0.0090
  787MOL0     H 6234   0.978   3.096   4.233 -1.3367 -0.9171 -0.0476
  787MOL0     H 6235   0.997   3.085   4.525  0.1294  2.9693  1.1592
  787MOL0     H 6236   0.863   3.035   4.419 -1.8126  1.4938 -1.3202
  787MOL0     H 6237   0.967   3.315   4.512  1.6044 -2.8897  0.5370
  787MOL0     H 6238   0.812   3.246   4.550 -3.5426 -0.0353 -2.4803
  787MOL0     H 6239   0.824   3.433   4.387 -4.3010 -0.9191 -0.5434
  787MOL0     H 6240   0.912   3.345   4.269 -0.3386  2.2023 -0.5064
  787MOL0     H 6241   0.503   3.189   4.276 -1.6023  1.9829  1.2357
  787MOL0     H 6242   1.195   3.031   4.124 -1.3949  0.3619  2.2444
  787MOL0     H 6243   1.266   2.950   3.933  0.2800 -0.1380  1.1926
  787MOL0     H 6244   1.278   3.060   3.799 -1.2575 -2.1613  0.8204
  787MOL0     H 6245   1.430   3.024   3.876  1.2545  2.6393  0.2376
  788MOL0     O 6246   7.631   4.785   8.793 -0.4463 -0.5611  0.2302
  788MOL0     C 6247   7.664   4.899   8.839 -0.6330  0.0325  0.0146
  788MOL0     O 6248   7.770   4.973   8.795 -0.9888  0.3139  0.1790
  788MOL0     C 6249   7.821   4.947   8.674  0.9068  0.4139  0.3578
  788MOL0     C 6250   7.961   4.958   8.661  0.1637  0.5662 -0.9248
  788MOL0     C 6251   8.025   4.924   8.543 -0.0732  0.0321 -0.2978
  788MOL0     C 6252   7.957   4.874   8.432 -0.0617  0.3157 -0.3146
  788MOL0     O 6253   8.016   4.851   8.313 -0.7847 -0.0180 -0.1545
  788MOL0     C 6254   8.122   4.750   8.314  0.4730  0.4996 -0.1251
  788MOL0     C 6255   8.060   4.613   8.326  0.0772 -1.4834 -0.5565
  788MOL0     C 6256   7.969   4.578   8.217 -0.1277  0.1209 -1.1673
  788MOL0     C 6257   8.037   4.586   8.082 -0.5250 -0.0037  0.8243
  788MOL0     C 6258   7.955   4.522   7.969 -0.2665  0.3517  0.3250
  788MOL0     C 6259   7.807   4.561   7.964  0.6752  0.3099  0.4501
  788MOL0     C 6260   7.733   4.466   7.872 -0.7216 -0.2205 -0.4239
  788MOL0     C 6261   7.586   4.514   7.851  0.0124 -0.5234 -0.0725
  788MOL0     N 6262   7.579   4.659   7.814  0.2411  0.1062  0.1300
  788MOL0     C 6263   7.621   4.712   7.696 -0.7848 -0.1100  0.2497
  788MOL0     C 6264   7.569   4.840   7.682 -0.3963  0.8396 -0.2004
  788MOL0     C 6265   7.570   4.920   7.554  0.2473 -0.7456 -0.8644
  788MOL0     C 6266   7.712   4.945   7.501  0.3843  0.3291  0.0123
  788MOL0     C 6267   7.707   5.035   7.376  0.1435 -0.2410 -1.1372
  788MOL0     C 6268   7.852   5.071   7.335  0.4285 -0.5003  0.8341
  788MOL0     O 6269   7.927   5.126   7.446  0.0191 -0.3147  0.7462
  788MOL0     C 6270   8.061   5.126   7.451 -0.3596  0.3932 -0.1250
  788MOL0     C 6271   8.146   5.074   7.350  0.4041 -0.1807 -0.0800
  788MOL0     C 6272   8.281   5.074   7.362 -0.5348 -1.0899 -0.5592
  788MOL0     C 6273   8.351   5.123   7.476 -0.5286 -0.0482 -0.6362
  788MOL0     C 6274   8.499   5.122   7.483 -0.5263  0.6150 -0.1193
  788MOL0     O 6275   8.559   5.166   7.600 -0.5840  0.2009  0.8409
  788MOL0     C 6276   8.689   5.140   7.603 -0.0750  0.0649  0.0260
  788MOL0     C 6277   8.782   5.239   7.566 -1.0743 -0.0911 -0.5464
  788MOL0     C 6278   8.921   5.213   7.593  0.5165 -0.4023  0.1624
  788MOL0     C 6279   8.970   5.093   7.636  0.4058  0.0510  0.8588
  788MOL0     O 6280   9.099   5.053   7.664  0.0153  0.4285 -0.0009
  788MOL0     C 6281   9.190   5.150   7.633 -0.6176 -0.6249 -0.0473
  788MOL0     C 6282   9.328   5.097   7.667 -0.4283 -0.2049 -0.1946
  788MOL0     C 6283   9.353   5.034   7.809 -0.4875 -0.0162  0.0368
  788MOL0     C 6284   9.502   4.990   7.832 -0.8011  0.1976 -0.0115
  788MOL0     C 6285   9.536   4.983   7.981 -0.1243  0.3655 -0.9782
  788MOL0     C 6286   9.666   4.907   8.021 -0.0556  0.0575  0.9278
  788MOL0     C 6287   9.794   4.985   7.959  1.0869 -0.1909  0.6378
  788MOL0     C 6288   9.924   4.928   8.008  0.4038  0.1875 -0.0923
  788MOL0    Cl 6289   9.950   4.768   7.935 -0.1276 -0.0640 -0.4236
  788MOL0     C 6290   8.877   4.988   7.662  0.0987 -0.3548  0.6090
  788MOL0     C 6291   8.738   5.021   7.649  0.6399 -0.8713 -0.1926
  788MOL0     O 6292   8.562   5.068   7.383  0.4625 -0.4229  0.2019
  788MOL0     C 6293   8.270   5.161   7.584 -1.1402  0.7231 -0.7606
  788MOL0     C 6294   8.125   5.161   7.576  1.1164  0.5123 -1.0167
  788MOL0     N 6295   7.511   4.858   7.807 -0.1536 -1.0970  0.4118
  788MOL0     N 6296   7.499   4.748   7.871 -0.1437 -0.6692  1.0546
  788MOL0     C 6297   7.818   4.872   8.442  1.1757  0.6657  0.1830
  788MOL0     C 6298   7.750   4.902   8.559  0.0453 -0.2115  0.4178
  788MOL0     C 6299   7.571   4.947   8.950 -0.1777  0.0703  0.4098
  788MOL0     C 6300   7.506   4.853   9.030  0.2771  1.1208  0.4964
  788MOL0     C 6301   7.411   4.892   9.128 -0.7462  0.0312 -0.0067
  788MOL0     C 6302   7.378   5.030   9.153 -0.6943 -0.1111  0.4699
  788MOL0     O 6303   7.289   5.079   9.252 -0.0103 -0.5447  0.9284
  788MOL0     C 6304   7.201   4.972   9.305 -0.6479  0.1841 -0.1974
  788MOL0     C 6305   7.076   5.028   9.384 -0.3181 -0.3333  0.4894
  788MOL0     C 6306   6.989   5.100   9.283 -0.1822 -0.3259 -1.2466
  788MOL0     C 6307   6.849   5.147   9.344 -0.3814  0.1496  0.5767
  788MOL0     C 6308   6.867   5.220   9.467  0.3612 -0.2362  2.3737
  788MOL0     C 6309   6.906   5.271   9.572  0.6841 -0.4101  0.1670
  788MOL0     C 6310   7.460   5.118   9.082 -1.4877 -0.2435  0.4939
  788MOL0     C 6311   7.547   5.081   8.981  0.2267  0.2199  0.4054
  788MOL0     C 6312   7.617   5.197   8.914  0.2448 -0.7156 -0.1012
  788MOL0     H 6313   8.001   5.017   8.743  0.8836  1.5278 -1.9348
  788MOL0     H 6314   8.132   4.938   8.532 -0.2007  1.2257 -0.1167
  788MOL0     H 6315   8.171   4.746   8.216 -0.7452  1.4819 -0.8011
  788MOL0     H 6316   8.208   4.774   8.377  4.1378 -2.8094 -3.2780
  788MOL0     H 6317   8.007   4.599   8.420  0.8216 -0.1470  0.0947
  788MOL0     H 6318   8.152   4.554   8.327  0.1376 -1.3886 -0.4173
  788MOL0     H 6319   7.880   4.641   8.225  0.5610  0.8812  3.1692
  788MOL0     H 6320   7.930   4.480   8.245 -1.5634  0.5503 -1.6118
  788MOL0     H 6321   8.046   4.684   8.036  1.8650 -0.6551 -0.2529
  788MOL0     H 6322   8.131   4.531   8.088 -1.3870 -1.4996  1.2064
  788MOL0     H 6323   8.014   4.531   7.877  1.2340 -2.7440  0.8648
  788MOL0     H 6324   7.950   4.415   7.991 -0.2600 -0.2642 -2.2627
  788MOL0     H 6325   7.771   4.549   8.067  1.4141 -3.9709  0.3914
  788MOL0     H 6326   7.800   4.666   7.935  3.5273  0.1783 -1.0080
  788MOL0     H 6327   7.727   4.365   7.914  0.5772 -1.0771 -2.1988
  788MOL0     H 6328   7.789   4.473   7.778 -0.0772  3.3985  0.0859
  788MOL0     H 6329   7.543   4.459   7.767 -1.2081  1.6218 -0.9381
  788MOL0     H 6330   7.524   4.506   7.941  0.6950  0.8013  0.5474
  788MOL0     H 6331   7.659   4.652   7.613 -2.0211  1.7755 -1.7863
  788MOL0     H 6332   7.504   4.883   7.476 -1.3728 -1.4199  0.7524
  788MOL0     H 6333   7.528   5.018   7.580 -2.1064 -1.4400 -1.7826
  788MOL0     H 6334   7.775   4.981   7.583  4.1435 -0.8621 -2.0731
  788MOL0     H 6335   7.762   4.850   7.478 -0.7599 -0.0911 -0.8286
  788MOL0     H 6336   7.651   5.127   7.393 -2.6911 -2.1356  0.5577
  788MOL0     H 6337   7.652   4.985   7.295 -1.7778 -1.9620  1.1071
  788MOL0     H 6338   7.853   5.145   7.254  2.3754 -2.3112 -0.8884
  788MOL0     H 6339   7.895   4.984   7.285  0.2091 -0.0338 -0.1950
  788MOL0     H 6340   8.104   5.060   7.251  0.8868  2.1870 -0.6583
  788MOL0     H 6341   8.327   5.040   7.270 -1.6168  2.5918 -2.6660
  788MOL0     H 6342   8.752   5.342   7.550 -0.8644 -0.1229 -1.1487
  788MOL0     H 6343   8.985   5.300   7.593 -1.0681  0.8625  1.8487
  788MOL0     H 6344   9.186   5.193   7.532  3.4032  1.5278  0.5270
  788MOL0     H 6345   9.156   5.234   7.695 -3.4108 -2.9200  1.8320
  788MOL0     H 6346   9.365   5.025   7.593  0.6752  0.5585 -0.4015
  788MOL0     H 6347   9.390   5.187   7.666  1.5790 -1.2850  3.8454
  788MOL0     H 6348   9.324   5.099   7.893 -0.4580 -0.1705  0.1672
  788MOL0     H 6349   9.287   4.947   7.808 -1.4310  0.6565  1.0407
  788MOL0     H 6350   9.568   5.069   7.793  1.4436 -0.2782  2.5272
  788MOL0     H 6351   9.519   4.895   7.780 -1.3581 -1.2536  2.3330
  788MOL0     H 6352   9.453   4.926   8.024  0.2698  1.0101  0.7204
  788MOL0     H 6353   9.537   5.087   8.015 -0.8623  0.1258 -0.1780
  788MOL0     H 6354   9.668   4.896   8.130 -1.9451 -3.6644  0.7662
  788MOL0     H 6355   9.661   4.805   7.981  0.0180  0.9569 -1.5673
  788MOL0     H 6356   9.781   5.086   7.998 -1.3588 -0.5742  0.9886
  788MOL0     H 6357   9.795   4.986   7.849  0.6022 -1.1132  0.6122
  788MOL0     H 6358  10.001   4.998   7.976  1.4010  0.9707  3.4958
  788MOL0     H 6359   9.929   4.921   8.117  1.3388 -2.2286 -0.2370
  788MOL0     H 6360   8.912   4.890   7.693 -1.4113 -0.2707  2.8090
  788MOL0     H 6361   8.659   4.948   7.658 -1.2268  0.9239 -1.0818
  788MOL0     H 6362   8.325   5.210   7.663 -2.0326  5.1639 -2.5962
  788MOL0     H 6363   8.064   5.187   7.662  1.0421  3.4506 -1.8407
  788MOL0     H 6364   7.764   4.847   8.351  1.4461  1.5903 -0.2462
  788MOL0     H 6365   7.644   4.880   8.563 -1.0610  3.6529 -1.9169
  788MOL0     H 6366   7.528   4.750   9.006  2.1826  2.0094 -2.1260
  788MOL0     H 6367   7.366   4.817   9.192 -1.2430 -2.0831 -2.6585
  788MOL0     H 6368   7.252   4.909   9.378  0.9996  3.1418  1.3701
  788MOL0     H 6369   7.167   4.909   9.222 -3.4772  1.0761  0.1675
  788MOL0     H 6370   7.109   5.096   9.463  1.2751 -1.5154  0.8974
  788MOL0     H 6371   7.028   4.937   9.420 -2.6439 -0.4538 -2.5314
  788MOL0     H 6372   6.976   5.038   9.194  1.5940 -0.0084 -1.7640
  788MOL0     H 6373   7.046   5.192   9.269  1.7032 -0.6369  2.9133
  788MOL0     H 6374   6.789   5.208   9.276  1.0733  0.5265 -0.4152
  788MOL0     H 6375   6.790   5.056   9.360 -0.7433  0.1025 -0.9360
  788MOL0     H 6376   6.947   5.313   9.662  1.3703  2.9911 -1.5957
  788MOL0     H 6377   7.439   5.222   9.103 -0.1300 -0.2997  2.4344
  788MOL0     H 6378   7.555   5.286   8.932  0.7665 -0.9341  3.2845
  788MOL0     H 6379   7.717   5.222   8.952 -0.7253  2.2821  0.7762
  788MOL0     H 6380   7.620   5.177   8.806  0.1133  5.0589 -1.5139
  789MOL0     O 6381   9.504   4.563  10.572  0.1983 -0.2323 -1.2505
  789MOL0     C 6382   9.551   4.532  10.467 -0.8086  0.8152 -0.7188
  789MOL0     O 6383   9.513   4.571  10.343 -0.2524  0.2695 -0.5566
  789MOL0     C 6384   9.380   4.612  10.350 -0.6986  0.7712  0.2830
  789MOL0     C 6385   9.343   4.733  10.414  0.0464  1.5414 -0.0117
  789MOL0     C 6386   9.212   4.772  10.413  1.0624 -0.5675  0.9077
  789MOL0     C 6387   9.112   4.692  10.355  0.7099  0.2286 -0.9228
  789MOL0     O 6388   8.981   4.718  10.374 -0.1234 -0.2804  0.0505
  789MOL0     C 6389   8.936   4.850  10.404  0.3561 -0.9805  0.7215
  789MOL0     C 6390   8.786   4.862  10.374 -0.0674 -0.3599 -0.0472
  789MOL0     C 6391   8.697   4.749  10.432  0.2749  0.4608 -0.5676
  789MOL0     C 6392   8.549   4.758  10.380  0.4961  0.0879 -0.3499
  789MOL0     C 6393   8.476   4.866  10.454  0.7843 -0.6719  0.7570
  789MOL0     C 6394   8.336   4.922  10.415  0.1961 -0.8446  0.1918
  789MOL0     C 6395   8.230   4.832  10.480 -0.4837 -0.1462 -0.0345
  789MOL0     C 6396   8.200   4.875  10.630 -0.0338  0.5003 -0.0149
  789MOL0     N 6397   8.145   4.768  10.719 -0.8149  0.8469 -0.0221
  789MOL0     C 6398   8.033   4.785  10.800  0.3435  0.2151 -0.7903
  789MOL0     C 6399   7.987   4.663  10.832  0.0233 -0.0818 -0.2506
  789MOL0     C 6400   7.888   4.634  10.938 -0.2503 -0.7714  0.0646
  789MOL0     C 6401   7.885   4.494  10.986 -0.2158 -0.3784 -0.0237
  789MOL0     C 6402   7.768   4.418  10.902  0.7271 -0.2804 -0.1761
  789MOL0     C 6403   7.745   4.287  10.970 -0.1799 -0.3520  0.0171
  789MOL0     O 6404   7.679   4.318  11.089  0.7016  0.5093 -0.2973
  789MOL0     C 6405   7.564   4.263  11.118  0.8088 -0.1703 -0.1414
  789MOL0     C 6406   7.531   4.267  11.260  0.2293 -0.3908  0.5263
  789MOL0     C 6407   7.429   4.188  11.307  0.3047  0.5575 -0.6761
  789MOL0     C 6408   7.337   4.122  11.219 -0.3707  0.3385 -0.5024
  789MOL0     C 6409   7.231   4.032  11.275 -1.5148 -0.6490 -0.0446
  789MOL0     O 6410   7.222   4.007  11.409 -0.3582  0.4376 -0.2181
  789MOL0     C 6411   7.110   3.963  11.465  0.2938 -0.6318  0.1047
  789MOL0     C 6412   7.091   3.825  11.482  0.7853  0.0150 -0.3932
  789MOL0     C 6413   6.966   3.770  11.539 -0.0076 -1.3806  0.2907
  789MOL0     C 6414   6.868   3.867  11.582 -0.8148  0.6745 -0.0983
  789MOL0     O 6415   6.748   3.836  11.648  0.1144 -0.3901 -0.3195
  789MOL0     C 6416   6.758   3.745  11.753 -0.1467 -0.4650  0.3211
  789MOL0     C 6417   6.634   3.761  11.843  0.7010 -0.0012  0.0539
  789MOL0     C 6418   6.633   3.890  11.921 -0.8086 -0.1213  0.4215
  789MOL0     C 6419   6.510   3.900  12.009 -0.1838 -0.1280 -0.1171
  789MOL0     C 6420   6.515   4.004  12.118 -0.2607  0.7267 -0.9948
  789MOL0     C 6421   6.532   4.150  12.077 -0.6265 -0.4035 -0.9105
  789MOL0     C 6422   6.422   4.194  11.985  0.1353 -0.7721  0.4479
  789MOL0     C 6423   6.412   4.342  11.974 -0.7170 -0.6104 -0.4152
  789MOL0    Cl 6424   6.334   4.407  12.116 -0.1457 -0.2903 -0.2764
  789MOL0     C 6425   6.890   4.000  11.563  0.5510 -0.1941  0.8165
  789MOL0     C 6426   7.007   4.051  11.504  0.7926 -0.1026  0.4851
  789MOL0     O 6427   7.146   3.997  11.194 -0.1172  1.0464 -0.2183
  789MOL0     C 6428   7.359   4.134  11.082 -0.2080  0.5155  0.7637
  789MOL0     C 6429   7.476   4.194  11.035 -0.1451 -0.3148  0.4805
  789MOL0     N 6430   8.090   4.579  10.785  0.6700  1.0306  0.0521
  789MOL0     N 6431   8.182   4.638  10.726  0.1729 -0.0797 -0.1953
  789MOL0     C 6432   9.155   4.567  10.301  0.3454  0.3459 -0.5014
  789MOL0     C 6433   9.289   4.531  10.287 -0.1952 -0.4849 -0.6384
  789MOL0     C 6434   9.669   4.432  10.475 -0.0852 -0.4810  2.0116
  789MOL0     C 6435   9.760   4.426  10.368 -0.3922 -0.0561  0.0327
  789MOL0     C 6436   9.861   4.329  10.380 -0.4882 -0.9861  0.1200
  789MOL0     C 6437   9.866   4.239  10.488 -0.5504 -0.0919  0.2882
  789MOL0     O 6438   9.980   4.164  10.492  0.6413 -0.1468 -0.0444
  789MOL0     C 6439  10.014   4.097  10.621 -0.3588  0.0084  0.4966
  789MOL0     C 6440  10.150   4.033  10.601 -0.0430 -0.4631 -0.5044
  789MOL0     C 6441  10.257   4.127  10.542 -0.7055  0.5917  0.3720
  789MOL0     C 6442  10.386   4.053  10.539  0.2437 -0.4637 -0.1591
  789MOL0     C 6443  10.488   4.126  10.458  0.1815  0.2947 -0.1298
  789MOL0     C 6444  10.575   4.189  10.397  0.0357 -0.2443 -1.4982
  789MOL0     C 6445   9.783   4.249  10.585  0.0642  0.3727  0.0567
  789MOL0     C 6446   9.681   4.347  10.592 -0.1615 -0.6928  1.2444
  789MOL0     C 6447   9.586   4.328  10.707  0.6861 -0.1866  0.3190
  789MOL0     H 6448   9.416   4.798  10.461  0.1806  0.4967  1.2926
  789MOL0     H 6449   9.193   4.867  10.462  1.1709  1.6614 -2.9295
  789MOL0     H 6450   8.954   4.862  10.511  3.1689 -0.9568  0.3261
  789MOL0     H 6451   8.998   4.920  10.348 -1.3650 -0.4322 -0.5857
  789MOL0     H 6452   8.764   4.851  10.267  0.3639  0.0777 -0.1851
  789MOL0     H 6453   8.745   4.952  10.419 -0.5985 -1.8503  2.6656
  789MOL0     H 6454   8.696   4.760  10.541  3.1786  3.3830 -0.6858
  789MOL0     H 6455   8.743   4.652  10.413  2.3598  1.8485 -3.1126
  789MOL0     H 6456   8.550   4.771  10.271 -1.1869  2.2842 -0.1763
  789MOL0     H 6457   8.506   4.665  10.418  3.3309 -0.1861  2.5569
  789MOL0     H 6458   8.469   4.834  10.559  0.5895 -1.7060  0.4416
  789MOL0     H 6459   8.532   4.959  10.440 -1.8660  0.8676 -0.5804
  789MOL0     H 6460   8.324   5.027  10.442  0.5179 -1.1324  1.5403
  789MOL0     H 6461   8.319   4.917  10.307 -2.0218  3.1974  0.1496
  789MOL0     H 6462   8.258   4.726  10.475 -4.0113 -1.1599 -0.7158
  789MOL0     H 6463   8.139   4.827  10.420  1.2676  0.6933 -2.9455
  789MOL0     H 6464   8.295   4.899  10.679  0.0293 -0.6913  0.4949
  789MOL0     H 6465   8.138   4.965  10.630 -2.0068 -0.7433 -2.7041
  789MOL0     H 6466   7.983   4.870  10.845 -0.1820  0.5772 -2.0102
  789MOL0     H 6467   7.908   4.701  11.022 -0.4242 -3.0092  1.9660
  789MOL0     H 6468   7.789   4.665  10.901  0.0842  2.8403  1.7854
  789MOL0     H 6469   7.974   4.436  10.959 -0.2457 -1.0978  1.3431
  789MOL0     H 6470   7.873   4.497  11.094  3.4508  1.9219  0.5018
  789MOL0     H 6471   7.810   4.399  10.803  1.1390 -0.5849  0.0521
  789MOL0     H 6472   7.671   4.469  10.899  0.1650 -1.3649 -0.9593
  789MOL0     H 6473   7.844   4.252  11.003 -0.3642  1.3166  2.5831
  789MOL0     H 6474   7.704   4.204  10.911  2.0380 -2.2108  0.9241
  789MOL0     H 6475   7.593   4.318  11.334  2.0693 -4.3262  1.9625
  789MOL0     H 6476   7.396   4.172  11.409 -3.8630 -2.6716 -2.2429
  789MOL0     H 6477   7.159   3.751  11.441 -1.5926 -3.3720  1.2991
  789MOL0     H 6478   6.941   3.664  11.531 -1.6867 -0.9165 -1.2837
  789MOL0     H 6479   6.757   3.639  11.725 -2.5655 -0.1858 -0.9150
  789MOL0     H 6480   6.841   3.772  11.820  1.1713  2.5668 -2.2668
  789MOL0     H 6481   6.537   3.751  11.795  1.3816 -0.1581 -1.3380
  789MOL0     H 6482   6.638   3.684  11.921  0.1259  0.9741  1.0621
  789MOL0     H 6483   6.722   3.884  11.984  0.4852  1.3364 -1.1755
  789MOL0     H 6484   6.655   3.975  11.855  4.2540  0.9631  2.9449
  789MOL0     H 6485   6.483   3.802  12.049  0.2680  1.0594  3.3769
  789MOL0     H 6486   6.430   3.929  11.940 -2.3656 -0.9404  1.9268
  789MOL0     H 6487   6.599   3.970  12.180 -2.8984  0.4778  2.7620
  789MOL0     H 6488   6.429   3.997  12.186  1.5563 -1.6520  1.2964
  789MOL0     H 6489   6.545   4.217  12.163 -1.1297 -1.4957  0.0477
  789MOL0     H 6490   6.624   4.176  12.023  0.3662  3.7778  2.2868
  789MOL0     H 6491   6.324   4.161  12.019 -0.1403 -0.0279  0.3863
  789MOL0     H 6492   6.445   4.144  11.891  0.4862 -0.7075  0.4979
  789MOL0     H 6493   6.511   4.384  11.954 -1.6736  2.6272  0.9039
  789MOL0     H 6494   6.344   4.365  11.891 -0.7914  4.8886  0.7610
  789MOL0     H 6495   6.819   4.076  11.592  0.3203 -0.4771  0.9885
  789MOL0     H 6496   7.021   4.157  11.487  0.5383  0.1692  1.8389
  789MOL0     H 6497   7.294   4.086  11.009 -0.4482  0.8649  0.7489
  789MOL0     H 6498   7.490   4.191  10.927 -0.3371 -4.4382  0.4246
  789MOL0     H 6499   9.076   4.497  10.277 -0.6578  1.1772  0.2955
  789MOL0     H 6500   9.314   4.429  10.257  3.8437  0.4204 -0.8475
  789MOL0     H 6501   9.746   4.480  10.274  0.5461 -0.6848 -0.4818
  789MOL0     H 6502   9.929   4.323  10.295 -1.7750 -0.0289 -1.0191
  789MOL0     H 6503   9.945   4.018  10.651  0.6771 -1.5731 -1.0506
  789MOL0     H 6504  10.037   4.177  10.692  0.5748  0.8838 -0.7423
  789MOL0     H 6505  10.133   3.946  10.536  2.3576  0.7794 -3.0231
  789MOL0     H 6506  10.194   3.996  10.694 -0.5944  1.5853  0.6311
  789MOL0     H 6507  10.268   4.217  10.602 -0.7703  0.5321  0.4722
  789MOL0     H 6508  10.233   4.148  10.437 -1.6585 -1.1006  0.2149
  789MOL0     H 6509  10.429   4.042  10.639  0.1792 -3.6542 -0.3600
  789MOL0     H 6510  10.374   3.951  10.501 -0.7007  0.3281 -2.0654
  789MOL0     H 6511  10.642   4.246  10.335 -0.3608  0.6704 -1.1019
  789MOL0     H 6512   9.800   4.204  10.683 -4.0266  1.8355  1.6424
  789MOL0     H 6513   9.581   4.229  10.752 -4.2207  0.1476  1.0433
  789MOL0     H 6514   9.608   4.397  10.788  0.0176 -0.6797  0.9299
  789MOL0     H 6515   9.482   4.343  10.677  1.5640  2.8397 -1.6872
  790MOL0     O 6516   9.313   9.398   3.209  0.4601  0.1950  0.4950
  790MOL0     C 6517   9.283   9.332   3.110  0.2262 -0.6963  0.5987
  790MOL0     O 6518   9.275   9.389   2.987  0.3754 -0.5016  0.5678
  790MOL0     C 6519   9.257   9.521   2.981  0.7295 -0.0811  0.6887
  790MOL0     C 6520   9.136   9.580   3.022  0.2759  0.2309  0.2452
  790MOL0     C 6521   9.118   9.721   2.991 -1.1347  0.2788 -0.4277
  790MOL0     C 6522   9.216   9.792   2.919  0.3740 -0.2498  0.3074
  790MOL0     O 6523   9.199   9.923   2.880  0.3589 -0.3951  0.5666
  790MOL0     C 6524   9.295   9.986   2.803  0.1657  0.4422 -0.0806
  790MOL0     C 6525   9.255  10.133   2.762  0.0662 -0.2194 -0.3349
  790MOL0     C 6526   9.361  10.185   2.669 -0.1887  0.5989 -0.3612
  790MOL0     C 6527   9.486  10.240   2.733 -0.2956  0.0748  0.1131
  790MOL0     C 6528   9.558  10.343   2.648  0.1732  0.5817 -0.2365
  790MOL0     C 6529   9.701  10.361   2.700  0.6084 -0.6199 -0.7392
  790MOL0     C 6530   9.776  10.416   2.580 -0.1668 -0.3776  0.2801
  790MOL0     C 6531   9.740  10.558   2.544  0.3678  0.3112  0.3071
  790MOL0     N 6532   9.828  10.621   2.455  0.0956 -0.6282 -0.3808
  790MOL0     C 6533   9.808  10.644   2.317 -0.3278 -0.5398 -0.9626
  790MOL0     C 6534   9.916  10.723   2.284  0.4555 -0.2260  0.0753
  790MOL0     C 6535   9.962  10.764   2.141 -1.0248  0.7168 -0.5339
  790MOL0     C 6536  10.094  10.686   2.113 -0.1645 -0.2157 -0.2933
  790MOL0     C 6537  10.147  10.731   1.976  0.4749 -0.0451 -0.3357
  790MOL0     C 6538  10.296  10.695   1.962 -1.1484  0.2307 -1.1815
  790MOL0     O 6539  10.319  10.558   1.938  0.9583  0.9016  0.4436
  790MOL0     C 6540  10.441  10.512   1.935 -0.6639 -0.2099  0.0497
  790MOL0     C 6541  10.518  10.493   1.814 -0.6971 -0.6299  0.8097
  790MOL0     C 6542  10.652  10.451   1.826 -0.1514 -0.5305 -0.7086
  790MOL0     C 6543  10.705  10.414   1.956 -0.3506  0.1183 -0.1323
  790MOL0     C 6544  10.848  10.357   1.962  0.1619  0.4315  0.7887
  790MOL0     O 6545  10.902  10.324   1.841  0.5406  0.6454 -0.3053
  790MOL0     C 6546  11.031  10.274   1.844 -0.7552  0.3741  0.2800
  790MOL0     C 6547  11.065  10.145   1.877  0.0349 -0.6878  0.5531
  790MOL0     C 6548  11.187  10.087   1.852 -0.3076  0.7000  0.0612
  790MOL0     C 6549  11.298  10.162   1.818 -0.4358 -0.8024  0.8180
  790MOL0     O 6550  11.424  10.110   1.802  0.2437  0.0872  0.5586
  790MOL0     C 6551  11.480  10.135   1.668  0.2538  0.1942 -0.3082
  790MOL0     C 6552  11.557  10.019   1.607  0.2844 -0.0321 -0.7621
  790MOL0     C 6553  11.672   9.940   1.678  0.1511 -0.8608  0.1434
  790MOL0     C 6554  11.779  10.032   1.737 -0.3228  0.1143  0.1616
  790MOL0     C 6555  11.896   9.943   1.755 -0.7593 -0.7756  0.4583
  790MOL0     C 6556  12.015  10.023   1.806 -0.1208  0.6851  0.3284
  790MOL0     C 6557  12.141   9.947   1.832  0.2260  0.4530 -0.9406
  790MOL0     C 6558  12.208   9.880   1.717  0.1263 -0.4097 -0.1151
  790MOL0    Cl 6559  12.149   9.722   1.693 -0.6969 -0.1087  0.2750
  790MOL0     C 6560  11.266  10.292   1.786 -0.2290  0.0760 -0.5232
  790MOL0     C 6561  11.138  10.349   1.803 -0.3647 -0.0472  0.3341
  790MOL0     O 6562  10.904  10.341   2.070  0.3712 -1.2343 -0.3698
  790MOL0     C 6563  10.628  10.430   2.079 -0.1514 -0.8798  0.2099
  790MOL0     C 6564  10.500  10.485   2.062  0.1210 -0.4719 -0.3378
  790MOL0     N 6565   9.986  10.749   2.403  0.3890 -0.3607 -0.0008
  790MOL0     N 6566   9.934  10.694   2.504 -0.0808  0.4400  0.1980
  790MOL0     C 6567   9.330   9.722   2.887  0.7540 -1.2748  0.5749
  790MOL0     C 6568   9.358   9.597   2.930  0.5812 -0.6962  0.4945
  790MOL0     C 6569   9.240   9.191   3.112 -0.7517 -0.3389 -0.5576
  790MOL0     C 6570   9.212   9.130   2.987  0.1416 -0.3992 -0.0915
  790MOL0     C 6571   9.174   8.996   2.977  0.0456  0.4027 -0.2808
  790MOL0     C 6572   9.170   8.921   3.089 -0.3894  0.2461  1.0994
  790MOL0     O 6573   9.140   8.788   3.065 -0.6711  0.0492 -0.7884
  790MOL0     C 6574   9.097   8.711   3.171 -0.5658 -1.0993  0.4037
  790MOL0     C 6575   9.047   8.581   3.123  0.8706  0.5864 -0.0855
  790MOL0     C 6576   9.117   8.524   2.998  0.1812 -0.2764 -0.5773
  790MOL0     C 6577   9.261   8.502   3.017 -1.4375 -0.2333  0.7514
  790MOL0     C 6578   9.276   8.391   3.113  1.3054  0.0428  0.2039
  790MOL0     C 6579   9.289   8.303   3.194  0.4400 -0.9676 -0.4940
  790MOL0     C 6580   9.193   8.975   3.215 -0.1598 -0.6966  0.2866
  790MOL0     C 6581   9.219   9.110   3.229 -0.2079  0.3243 -0.8786
  790MOL0     C 6582   9.269   9.162   3.368  0.1791  0.4580  0.0375
  790MOL0     H 6583   9.050   9.527   3.061  1.1498  1.7405  4.8460
  790MOL0     H 6584   9.028   9.766   3.031 -0.3196 -0.5363  2.5147
  790MOL0     H 6585   9.387   9.996   2.862 -0.1239 -1.0487  0.6833
  790MOL0     H 6586   9.315   9.935   2.708 -0.0386  2.8638 -1.4902
  790MOL0     H 6587   9.236  10.200   2.847 -0.7259  0.7531 -1.2441
  790MOL0     H 6588   9.165  10.118   2.701  2.4146 -2.6581 -3.5044
  790MOL0     H 6589   9.320  10.272   2.618  1.1497  2.9352  2.2898
  790MOL0     H 6590   9.396  10.103   2.605  2.5825  1.9419 -0.7034
  790MOL0     H 6591   9.475  10.292   2.828  0.3176  0.5702 -0.0810
  790MOL0     H 6592   9.545  10.153   2.762 -0.0681  0.6220  1.3317
  790MOL0     H 6593   9.581  10.298   2.551  1.5972 -1.6341  1.0296
  790MOL0     H 6594   9.496  10.433   2.637 -4.1930 -2.1276 -0.3984
  790MOL0     H 6595   9.703  10.445   2.770 -0.4607  0.1182 -1.5637
  790MOL0     H 6596   9.742  10.270   2.746 -0.7239 -0.9834 -0.2323
  790MOL0     H 6597   9.766  10.363   2.485 -0.0896 -1.9004  1.0981
  790MOL0     H 6598   9.882  10.435   2.601 -0.0570 -2.3767  1.8775
  790MOL0     H 6599   9.642  10.566   2.496  0.9848  1.6439 -0.7885
  790MOL0     H 6600   9.724  10.617   2.634  0.0536 -2.2262  2.0304
  790MOL0     H 6601   9.733  10.603   2.249 -0.4671 -0.0847 -1.0835
  790MOL0     H 6602   9.888  10.725   2.070  0.6066 -4.6363  0.2763
  790MOL0     H 6603   9.982  10.871   2.134 -0.6746  0.5600 -2.6406
  790MOL0     H 6604  10.157  10.716   2.196  0.3671  1.0163 -1.0979
  790MOL0     H 6605  10.079  10.578   2.107 -0.6738 -0.0948 -1.7985
  790MOL0     H 6606  10.132  10.833   1.938 -1.8585 -1.5156 -3.8671
  790MOL0     H 6607  10.089  10.671   1.906 -1.5496  0.0605  1.1498
  790MOL0     H 6608  10.346  10.735   2.051 -0.6841 -0.0199 -1.3266
  790MOL0     H 6609  10.342  10.748   1.878  1.1986 -1.9373 -1.3960
  790MOL0     H 6610  10.479  10.537   1.723  0.1072  0.2930  0.8967
  790MOL0     H 6611  10.701  10.441   1.730  0.5587 -0.6696 -0.3389
  790MOL0     H 6612  10.981  10.081   1.902 -2.8523  0.6383 -4.3604
  790MOL0     H 6613  11.204   9.980   1.861 -0.8910  0.6789  0.9565
  790MOL0     H 6614  11.402  10.158   1.595  0.6547  1.5427 -0.3399
  790MOL0     H 6615  11.544  10.224   1.662  0.7050 -0.0571  0.6117
  790MOL0     H 6616  11.485   9.938   1.593 -1.7026  1.0536  2.2738
  790MOL0     H 6617  11.593  10.060   1.512  1.5675  1.1097  0.1771
  790MOL0     H 6618  11.626   9.892   1.765 -1.9582  0.4155 -0.1908
  790MOL0     H 6619  11.711   9.865   1.608 -0.1980  1.0297 -2.2377
  790MOL0     H 6620  11.745  10.085   1.826 -2.4598 -0.4589 -0.2689
  790MOL0     H 6621  11.820  10.111   1.674  2.4187  1.7283  3.6326
  790MOL0     H 6622  11.916   9.885   1.664  2.8574 -0.6460  1.0258
  790MOL0     H 6623  11.872   9.868   1.831 -0.9992 -0.0488  1.1114
  790MOL0     H 6624  12.037  10.096   1.727  1.5022 -1.6760 -1.5150
  790MOL0     H 6625  11.969  10.079   1.888 -1.6999  0.8958 -0.6554
  790MOL0     H 6626  12.122   9.877   1.913  1.9625  0.7732 -0.2085
  790MOL0     H 6627  12.220  10.012   1.870  0.1664 -0.4356  0.8073
  790MOL0     H 6628  12.194   9.937   1.625 -1.9246 -1.7099 -0.6776
  790MOL0     H 6629  12.313   9.871   1.743  0.5150  0.7568 -1.1769
  790MOL0     H 6630  11.349  10.359   1.765 -0.1549  0.2963  0.4434
  790MOL0     H 6631  11.118  10.452   1.776 -0.7637 -0.4569 -1.0175
  790MOL0     H 6632  10.676  10.415   2.175  0.3412 -1.5745 -0.1447
  790MOL0     H 6633  10.432  10.500   2.145  0.7720  2.7569 -0.2742
  790MOL0     H 6634   9.413   9.757   2.827 -1.4993 -0.4176 -2.3246
  790MOL0     H 6635   9.461   9.563   2.914  2.1890  2.3769  3.2502
  790MOL0     H 6636   9.226   9.184   2.894  2.9581 -2.7339 -1.2067
  790MOL0     H 6637   9.153   8.955   2.879  2.2152  0.1648 -0.7084
  790MOL0     H 6638   9.019   8.760   3.229 -0.5038 -1.0861  0.4776
  790MOL0     H 6639   9.181   8.695   3.240 -0.5806 -1.4239  0.3458
  790MOL0     H 6640   8.946   8.603   3.087  1.1863 -0.9214 -2.0810
  790MOL0     H 6641   9.028   8.520   3.211 -2.5710  0.1098 -1.0284
  790MOL0     H 6642   9.093   8.602   2.926 -0.1521 -0.2410 -0.4303
  790MOL0     H 6643   9.065   8.437   2.957 -0.0489 -0.2914 -0.2585
  790MOL0     H 6644   9.315   8.478   2.925 -0.6300 -0.1184  1.1856
  790MOL0     H 6645   9.304   8.594   3.059 -1.0654  0.7195 -1.5781
  790MOL0     H 6646   9.298   8.222   3.264 -1.3275  0.2795  1.3122
  790MOL0     H 6647   9.180   8.912   3.302  1.6924  1.9528  2.6819
  790MOL0     H 6648   9.266   9.085   3.446  0.9207 -0.3588 -0.7248
  790MOL0     H 6649   9.371   9.191   3.341  0.2887 -0.7189 -0.8730
  790MOL0     H 6650   9.214   9.244   3.416  0.7279  0.7791  0.1249
  791MOL0     O 6651   3.225   3.390   6.051  0.5665  0.5015  0.0610
  791MOL0     C 6652   3.269   3.409   5.940  0.2906  0.3090  0.3668
  791MOL0     O 6653   3.379   3.484   5.910 -1.2688 -0.1971 -0.5410
  791MOL0     C 6654   3.444   3.556   6.014  0.9478 -0.3281 -0.2789
  791MOL0     C 6655   3.452   3.693   5.991 -0.0495 -0.6357 -0.6607
  791MOL0     C 6656   3.506   3.791   6.091 -1.1358 -0.0062  0.0165
  791MOL0     C 6657   3.564   3.736   6.208 -0.4757  0.7702  0.4030
  791MOL0     O 6658   3.626   3.815   6.304 -0.7732 -0.1323  0.1648
  791MOL0     C 6659   3.728   3.755   6.390 -0.6259  0.4907  0.4995
  791MOL0     C 6660   3.842   3.846   6.423  0.9065 -0.8751 -0.2239
  791MOL0     C 6661   3.793   3.977   6.500  0.8621  0.3380  0.4869
  791MOL0     C 6662   3.914   4.072   6.528 -0.9820 -0.0726  0.0899
  791MOL0     C 6663   3.864   4.210   6.575  0.8052 -0.4539  0.2609
  791MOL0     C 6664   3.982   4.312   6.606 -0.2372 -0.2900 -0.1223
  791MOL0     C 6665   3.939   4.441   6.667 -0.1926 -0.0706  0.3217
  791MOL0     C 6666   3.895   4.434   6.811  0.3144  0.3178  0.6252
  791MOL0     N 6667   3.858   4.563   6.863  0.6329  0.3724 -0.1815
  791MOL0     C 6668   3.864   4.604   6.997 -0.6981 -0.8302 -0.5829
  791MOL0     C 6669   3.816   4.730   6.987  0.1716 -0.5090 -0.3134
  791MOL0     C 6670   3.802   4.819   7.105 -0.0040 -0.7794  0.2967
  791MOL0     C 6671   3.897   4.942   7.085 -0.2058 -0.0000 -0.6043
  791MOL0     C 6672   3.897   5.039   7.199  0.3188 -0.3045  0.5454
  791MOL0     C 6673   3.979   5.168   7.149  0.5547  0.5046 -1.0998
  791MOL0     O 6674   3.984   5.258   7.259  0.2911  0.2985  0.4778
  791MOL0     C 6675   3.877   5.343   7.280 -0.0774  0.3803  0.0208
  791MOL0     C 6676   3.868   5.397   7.411 -0.2797 -0.3200  0.1123
  791MOL0     C 6677   3.776   5.488   7.447  0.0678 -0.0719 -0.0654
  791MOL0     C 6678   3.684   5.523   7.352 -0.0956  0.0595  0.5160
  791MOL0     C 6679   3.593   5.635   7.384 -0.1437 -0.7163 -0.3139
  791MOL0     O 6680   3.627   5.724   7.490  0.3748  0.3473  0.2353
  791MOL0     C 6681   3.536   5.823   7.510 -0.3557 -0.1971  0.3018
  791MOL0     C 6682   3.584   5.953   7.518  0.5744 -0.0814  0.2534
  791MOL0     C 6683   3.506   6.069   7.527 -0.7263  0.7127 -0.1719
  791MOL0     C 6684   3.365   6.041   7.531 -0.4080 -0.5076 -0.2459
  791MOL0     O 6685   3.266   6.125   7.572 -0.2672 -0.0349  0.1774
  791MOL0     C 6686   3.276   6.266   7.585 -0.7565  0.8134 -0.8958
  791MOL0     C 6687   3.161   6.342   7.661  0.1737 -0.0296  0.8391
  791MOL0     C 6688   3.058   6.394   7.559  0.0903  0.5257 -0.2210
  791MOL0     C 6689   2.937   6.475   7.611 -0.9682  0.0009  0.6532
  791MOL0     C 6690   2.828   6.489   7.506 -0.5152 -0.1044  0.5764
  791MOL0     C 6691   2.885   6.546   7.375 -0.5240  0.3882 -0.6513
  791MOL0     C 6692   2.915   6.697   7.391  0.0032 -0.5000  0.2739
  791MOL0     C 6693   2.914   6.774   7.263 -0.0567  0.6605 -0.2394
  791MOL0    Cl 6694   3.022   6.917   7.292  0.0382  0.3146 -0.1900
  791MOL0     C 6695   3.315   5.913   7.540  0.3486 -1.0705  0.1707
  791MOL0     C 6696   3.399   5.804   7.525  0.0542 -0.2236 -0.1700
  791MOL0     O 6697   3.502   5.644   7.305  0.8358  0.3948 -0.5471
  791MOL0     C 6698   3.680   5.467   7.223 -0.4040  0.6521 -0.4322
  791MOL0     C 6699   3.775   5.364   7.186  0.6056  0.3907 -1.0005
  791MOL0     N 6700   3.787   4.768   6.852  0.7938  0.5832  0.2199
  791MOL0     N 6701   3.812   4.660   6.777 -0.0897  0.2862  0.2204
  791MOL0     C 6702   3.564   3.593   6.224  0.4635 -0.0868 -0.3115
  791MOL0     C 6703   3.514   3.512   6.128  0.3457  1.1167  0.9747
  791MOL0     C 6704   3.195   3.364   5.819 -0.5356  0.5678  0.3805
  791MOL0     C 6705   3.189   3.460   5.718 -0.0225 -0.1634  0.7333
  791MOL0     C 6706   3.115   3.441   5.597  0.7634  0.3621 -0.3550
  791MOL0     C 6707   3.052   3.319   5.581 -0.2249 -0.0976 -0.3269
  791MOL0     O 6708   2.975   3.296   5.462 -0.4458  0.1902 -0.2331
  791MOL0     C 6709   2.864   3.205   5.477  0.8135  0.9275 -1.0101
  791MOL0     C 6710   2.765   3.223   5.366 -0.9022  0.1720  1.1616
  791MOL0     C 6711   2.820   3.202   5.217  0.8298  0.3214 -0.3525
  791MOL0     C 6712   2.728   3.227   5.096  0.4859  0.7149  0.7329
  791MOL0     C 6713   2.798   3.194   4.973 -0.5815  0.6723  0.2076
  791MOL0     C 6714   2.845   3.167   4.863 -0.2322 -0.3477 -0.1845
  791MOL0     C 6715   3.051   3.227   5.687  0.1148  0.1029 -0.8191
  791MOL0     C 6716   3.121   3.248   5.800  0.4069 -0.3043  0.4133
  791MOL0     C 6717   3.118   3.136   5.892 -0.1094 -0.5305  0.4497
  791MOL0     H 6718   3.410   3.727   5.896 -1.1126 -0.6539 -0.2071
  791MOL0     H 6719   3.511   3.897   6.072 -2.1335 -0.0391 -0.4766
  791MOL0     H 6720   3.681   3.714   6.480 -1.3346  0.4682  0.1268
  791MOL0     H 6721   3.777   3.675   6.334  0.7465  2.7035 -1.6714
  791MOL0     H 6722   3.896   3.879   6.334 -1.0785  4.0349  0.0184
  791MOL0     H 6723   3.907   3.781   6.481 -2.9587 -4.5723  0.5199
  791MOL0     H 6724   3.743   3.954   6.595  0.7755  1.2172  0.6593
  791MOL0     H 6725   3.721   4.033   6.439 -0.3227 -0.4483  1.1238
  791MOL0     H 6726   3.991   4.037   6.597 -0.6512  0.8941  0.2196
  791MOL0     H 6727   3.973   4.088   6.437 -0.2618 -1.1817  0.3415
  791MOL0     H 6728   3.796   4.261   6.506 -3.2900 -2.2674  2.5759
  791MOL0     H 6729   3.814   4.193   6.671 -0.7600  0.8817 -0.2636
  791MOL0     H 6730   4.063   4.270   6.667  1.0887  1.3231 -0.7153
  791MOL0     H 6731   4.017   4.344   6.507  0.7492 -0.0986  0.2817
  791MOL0     H 6732   3.851   4.475   6.612  0.9936 -0.7446 -2.1224
  791MOL0     H 6733   4.016   4.517   6.649  0.2735 -0.3632  1.0567
  791MOL0     H 6734   3.815   4.360   6.816  2.7050 -2.4475  0.8469
  791MOL0     H 6735   3.982   4.399   6.868 -0.2847  1.5017  2.3518
  791MOL0     H 6736   3.865   4.540   7.085 -1.4860 -0.4734 -0.3042
  791MOL0     H 6737   3.698   4.853   7.108 -0.0251 -0.8281  0.1597
  791MOL0     H 6738   3.822   4.768   7.200 -0.2575 -0.7266  0.3793
  791MOL0     H 6739   3.994   4.893   7.082 -0.9419 -1.7670  1.5869
  791MOL0     H 6740   3.875   4.995   6.992  0.1633  3.0598  0.8941
  791MOL0     H 6741   3.946   4.998   7.288 -1.7155 -3.8358  0.2367
  791MOL0     H 6742   3.792   5.053   7.225  0.3141 -0.6678  0.7295
  791MOL0     H 6743   3.945   5.222   7.060 -0.8824  0.5248 -0.5583
  791MOL0     H 6744   4.081   5.146   7.116  1.3830  0.8683  1.0224
  791MOL0     H 6745   3.941   5.355   7.480  0.6695 -0.4863 -0.9469
  791MOL0     H 6746   3.778   5.525   7.549  0.6317  0.3853 -0.2375
  791MOL0     H 6747   3.689   5.981   7.508  0.3785  0.0392 -2.1739
  791MOL0     H 6748   3.540   6.171   7.543  1.5224  0.1284 -0.9278
  791MOL0     H 6749   3.362   6.298   7.643 -2.1480  1.6547  0.7909
  791MOL0     H 6750   3.290   6.297   7.481  0.2794  0.4751 -0.8719
  791MOL0     H 6751   3.107   6.276   7.729 -2.9163  0.4106 -0.9973
  791MOL0     H 6752   3.212   6.426   7.709 -3.1163  1.7771  1.4542
  791MOL0     H 6753   3.112   6.445   7.478 -0.9451 -0.5222 -1.6244
  791MOL0     H 6754   3.005   6.306   7.521 -0.1055  0.3585  0.4155
  791MOL0     H 6755   2.971   6.575   7.640  0.1709 -0.2708  0.3054
  791MOL0     H 6756   2.894   6.437   7.705  1.0107 -1.9010  0.8818
  791MOL0     H 6757   2.745   6.546   7.549  1.6858  3.1421  0.8085
  791MOL0     H 6758   2.803   6.384   7.483 -1.3689 -0.1721  1.7426
  791MOL0     H 6759   2.973   6.487   7.347  0.7260  1.2946  1.2216
  791MOL0     H 6760   2.810   6.542   7.295  0.7187  3.5685 -2.1331
  791MOL0     H 6761   3.017   6.701   7.430  0.4835 -0.5420 -0.9177
  791MOL0     H 6762   2.851   6.740   7.469 -0.6245 -1.3788  0.2597
  791MOL0     H 6763   2.966   6.722   7.182  1.4565 -0.6277  1.5015
  791MOL0     H 6764   2.809   6.790   7.236 -0.4352 -1.4297 -0.1623
  791MOL0     H 6765   3.214   5.896   7.576  0.3983  1.9871  2.1737
  791MOL0     H 6766   3.356   5.704   7.530  0.3088 -0.3033  0.5626
  791MOL0     H 6767   3.610   5.513   7.154  0.4026 -1.5762 -2.9049
  791MOL0     H 6768   3.772   5.320   7.087  0.0718  0.0366 -0.8343
  791MOL0     H 6769   3.601   3.546   6.314  0.9455 -0.0923 -0.5079
  791MOL0     H 6770   3.518   3.408   6.160 -3.8274  1.0755  1.9341
  791MOL0     H 6771   3.220   3.564   5.721 -0.1884 -0.1167  0.8677
  791MOL0     H 6772   3.108   3.517   5.520  1.0831  1.6058  0.7986
  791MOL0     H 6773   2.809   3.214   5.570 -0.2940  2.2083 -1.7494
  791MOL0     H 6774   2.913   3.107   5.467  2.4778  1.5845  0.2107
  791MOL0     H 6775   2.741   3.329   5.363 -0.7591  0.2042 -1.6375
  791MOL0     H 6776   2.674   3.165   5.384 -1.2908  0.4375  0.1555
  791MOL0     H 6777   2.843   3.096   5.204 -2.3215 -0.4153 -0.7293
  791MOL0     H 6778   2.907   3.265   5.193  0.9926  0.3651  0.3240
  791MOL0     H 6779   2.634   3.174   5.112  0.0719  0.9933 -0.6784
  791MOL0     H 6780   2.710   3.335   5.093 -1.8474  0.3439 -1.5457
  791MOL0     H 6781   2.885   3.155   4.764  1.2994  1.6602  0.1257
  791MOL0     H 6782   3.001   3.131   5.682  4.0102 -2.0599 -2.1275
  791MOL0     H 6783   3.020   3.140   5.940 -1.5518 -1.8138 -2.1667
  791MOL0     H 6784   3.134   3.047   5.831  0.0736 -0.7412  0.7991
  791MOL0     H 6785   3.185   3.139   5.979  0.7068 -1.2406 -0.1416
  792MOL0     O 6786   9.872  10.023   3.955 -0.0591  0.6325 -0.8209
  792MOL0     C 6787   9.842  10.084   3.856 -1.1373 -0.7183 -0.4169
  792MOL0     O 6788   9.932  10.151   3.781 -0.0804 -0.5407  0.3749
  792MOL0     C 6789  10.038  10.211   3.844 -0.5868 -0.3391 -0.1418
  792MOL0     C 6790  10.151  10.140   3.887  1.1481  0.5095  0.5445
  792MOL0     C 6791  10.248  10.200   3.965  0.0810 -0.2113 -0.2213
  792MOL0     C 6792  10.239  10.337   3.990  0.5118 -0.6075 -0.6406
  792MOL0     O 6793  10.331  10.404   4.066 -0.2524 -0.0709 -0.9142
  792MOL0     C 6794  10.460  10.339   4.090 -0.6345  0.0199  0.1309
  792MOL0     C 6795  10.534  10.439   4.181 -1.2893 -0.0188 -0.3144
  792MOL0     C 6796  10.653  10.377   4.261  0.2712  0.5247  0.2890
  792MOL0     C 6797  10.722  10.489   4.347 -0.6261 -1.0163  0.1323
  792MOL0     C 6798  10.857  10.456   4.415 -0.0852 -0.4749 -0.6513
  792MOL0     C 6799  10.835  10.361   4.525  0.2830 -0.2902  0.4406
  792MOL0     C 6800  10.963  10.298   4.581  0.0762 -0.2083 -0.0644
  792MOL0     C 6801  11.028  10.208   4.476  0.0995  0.2576  0.0298
  792MOL0     N 6802  11.134  10.137   4.547 -0.4560 -0.4629 -0.5776
  792MOL0     C 6803  11.250  10.194   4.587  0.7628  0.5250 -0.1491
  792MOL0     C 6804  11.324  10.095   4.646 -0.0347  0.3412 -0.7149
  792MOL0     C 6805  11.452  10.126   4.722 -0.3173  0.7420  0.2780
  792MOL0     C 6806  11.564  10.158   4.622  0.7886 -0.4924 -0.6609
  792MOL0     C 6807  11.575  10.054   4.512 -0.3400 -0.0449 -0.4422
  792MOL0     C 6808  11.704  10.079   4.444 -0.5583  0.4836 -0.3043
  792MOL0     O 6809  11.826  10.045   4.523  0.4877 -0.1722 -0.1816
  792MOL0     C 6810  11.954  10.069   4.463  0.6333  0.6154 -0.7307
  792MOL0     C 6811  11.979  10.122   4.328 -0.1368 -0.6707 -0.3740
  792MOL0     C 6812  12.105  10.150   4.288  0.0626  0.3384  0.8232
  792MOL0     C 6813  12.219  10.113   4.371 -0.3756 -0.5046 -0.3232
  792MOL0     C 6814  12.359  10.136   4.333  1.0105 -0.2765  0.2269
  792MOL0     O 6815  12.455  10.100   4.420 -0.3993  0.4021 -0.4358
  792MOL0     C 6816  12.581  10.153   4.430  0.3702 -0.0125 -0.2886
  792MOL0     C 6817  12.605  10.288   4.386 -0.1084  0.7547  0.1395
  792MOL0     C 6818  12.740  10.338   4.398 -0.3430  0.1779  0.1267
  792MOL0     C 6819  12.843  10.276   4.464 -0.4967  0.7312 -0.0605
  792MOL0     O 6820  12.967  10.340   4.485  0.1771 -0.1711 -0.0083
  792MOL0     C 6821  13.040  10.361   4.363 -1.1144 -0.3777  0.1980
  792MOL0     C 6822  13.191  10.356   4.391  0.0304 -0.5524 -0.7105
  792MOL0     C 6823  13.240  10.407   4.522 -0.1785 -0.7220  0.4252
  792MOL0     C 6824  13.357  10.494   4.498 -0.6019 -0.8984 -0.4960
  792MOL0     C 6825  13.382  10.560   4.641  0.2847  0.6198  0.0072
  792MOL0     C 6826  13.501  10.657   4.642 -0.4936 -1.0995  0.5142
  792MOL0     C 6827  13.560  10.691   4.783  0.1746  1.0169  0.6397
  792MOL0     C 6828  13.675  10.795   4.761 -0.2025  0.8086 -0.3296
  792MOL0    Cl 6829  13.812  10.741   4.668  0.0549  0.1081  0.5506
  792MOL0     C 6830  12.816  10.137   4.488  0.1253  0.4969 -1.2422
  792MOL0     C 6831  12.685  10.077   4.482 -0.2879  0.4101 -0.4507
  792MOL0     O 6832  12.377  10.202   4.231  0.0406 -0.2459 -0.4973
  792MOL0     C 6833  12.197  10.034   4.491  0.1768 -0.3795 -0.7925
  792MOL0     C 6834  12.063  10.012   4.533 -0.0226 -0.8685  0.3269
  792MOL0     N 6835  11.249   9.982   4.634  0.1959 -0.3194 -0.8513
  792MOL0     N 6836  11.138  10.008   4.580 -0.0918  0.3498 -0.1703
  792MOL0     C 6837  10.127  10.411   3.943 -0.9656  0.5352  0.5946
  792MOL0     C 6838  10.026  10.348   3.872  0.4903  0.3075 -0.9373
  792MOL0     C 6839   9.698  10.070   3.817 -0.4240 -0.0934 -0.2760
  792MOL0     C 6840   9.658  10.121   3.693  0.1057 -1.0814  0.5442
  792MOL0     C 6841   9.540  10.098   3.639 -0.1860  0.3942  0.2247
  792MOL0     C 6842   9.439  10.033   3.703 -0.1213 -0.6560  0.2035
  792MOL0     O 6843   9.321  10.001   3.656  0.1472 -0.1104  0.2753
  792MOL0     C 6844   9.283  10.033   3.524  0.0992  0.1442 -0.2885
  792MOL0     C 6845   9.333   9.943   3.419  0.4580  0.3064 -0.4493
  792MOL0     C 6846   9.297   9.970   3.279  0.0854  0.5612 -0.0974
  792MOL0     C 6847   9.156  10.026   3.235  0.2938  0.5839 -0.0204
  792MOL0     C 6848   9.048   9.928   3.277 -0.0100 -0.2489 -0.1295
  792MOL0     C 6849   8.958   9.874   3.335  1.1431  0.0521 -0.0080
  792MOL0     C 6850   9.463   9.984   3.829  0.0888 -0.1762 -0.1391
  792MOL0     C 6851   9.590  10.000   3.888  0.4256 -1.0879 -0.5691
  792MOL0     C 6852   9.591   9.967   4.035 -0.1239  0.4542 -0.0318
  792MOL0     H 6853  10.140  10.039   3.849 -0.2614  0.3064  1.4346
  792MOL0     H 6854  10.321  10.131   4.007  0.9187  2.1500  2.5077
  792MOL0     H 6855  10.448  10.242   4.139 -0.4396 -1.2171 -2.1138
  792MOL0     H 6856  10.514  10.327   3.995 -0.7082 -1.7623  0.2748
  792MOL0     H 6857  10.470  10.484   4.257  2.4006  3.1486  1.2796
  792MOL0     H 6858  10.568  10.530   4.129  1.1437 -0.4124  0.4486
  792MOL0     H 6859  10.723  10.334   4.188  3.1328 -0.3708  3.3356
  792MOL0     H 6860  10.632  10.284   4.315 -0.0827  0.1193 -0.5224
  792MOL0     H 6861  10.748  10.570   4.279  2.7272 -1.6161  0.4963
  792MOL0     H 6862  10.650  10.519   4.423 -0.6649  0.3221 -0.4171
  792MOL0     H 6863  10.925  10.415   4.339 -1.6328 -0.6172 -2.0227
  792MOL0     H 6864  10.879  10.549   4.468 -2.5073  0.4511 -1.1349
  792MOL0     H 6865  10.777  10.418   4.599 -1.1266 -1.0064 -0.0774
  792MOL0     H 6866  10.770  10.278   4.497 -1.7893  0.3212  3.0293
  792MOL0     H 6867  10.931  10.242   4.669  2.1143  1.3546  1.7843
  792MOL0     H 6868  11.034  10.374   4.614 -1.1073  0.5405  0.8477
  792MOL0     H 6869  10.946  10.152   4.430 -1.4582  1.3678  1.3277
  792MOL0     H 6870  11.079  10.267   4.399  0.2059 -0.8215 -0.7632
  792MOL0     H 6871  11.272  10.299   4.572 -1.2802  0.7019 -2.5870
  792MOL0     H 6872  11.438  10.218   4.781  2.7267  1.0743  0.6305
  792MOL0     H 6873  11.490  10.046   4.786 -1.1835  1.3498  1.6063
  792MOL0     H 6874  11.545  10.263   4.598 -0.9786 -0.1496  1.8083
  792MOL0     H 6875  11.653  10.150   4.685 -1.0879 -3.4130  1.8927
  792MOL0     H 6876  11.485  10.067   4.451 -2.2161 -3.5591  1.2754
  792MOL0     H 6877  11.573   9.957   4.563 -1.0034 -0.2728 -0.8920
  792MOL0     H 6878  11.714  10.186   4.424  1.2011  0.3673 -0.1977
  792MOL0     H 6879  11.709  10.018   4.353 -0.9837 -0.6460  0.4132
  792MOL0     H 6880  11.900  10.138   4.256 -0.0744 -4.0363 -1.3733
  792MOL0     H 6881  12.114  10.189   4.187 -1.4665  1.7980  1.2101
  792MOL0     H 6882  12.523  10.348   4.349 -3.5731 -3.3235  0.4436
  792MOL0     H 6883  12.763  10.439   4.365  0.2439  0.0821  0.2350
  792MOL0     H 6884  13.019  10.300   4.275 -3.0037 -1.3154  1.2348
  792MOL0     H 6885  13.013  10.464   4.341  1.0631  0.4618  1.1075
  792MOL0     H 6886  13.229  10.253   4.385  0.7123 -0.2145 -3.2384
  792MOL0     H 6887  13.235  10.411   4.308  1.8443 -1.8530 -0.6779
  792MOL0     H 6888  13.170  10.470   4.578  1.8575 -0.4787  2.8274
  792MOL0     H 6889  13.261  10.323   4.588  2.7643 -2.9226 -2.9349
  792MOL0     H 6890  13.330  10.576   4.431  1.4979  0.0347 -0.3048
  792MOL0     H 6891  13.447  10.448   4.455  1.3322  0.9651  1.3482
  792MOL0     H 6892  13.412  10.484   4.714  3.1120  0.4187 -1.2343
  792MOL0     H 6893  13.302  10.621   4.684  1.5977  1.9996  0.6183
  792MOL0     H 6894  13.574  10.622   4.567 -1.1390 -0.2043 -0.5604
  792MOL0     H 6895  13.458  10.749   4.603  1.5334 -2.1746 -5.2780
  792MOL0     H 6896  13.608  10.606   4.832 -1.5815 -0.1993  0.3402
  792MOL0     H 6897  13.486  10.722   4.857  0.7951 -1.9165  2.6690
  792MOL0     H 6898  13.637  10.888   4.716  0.4157  1.3790  0.3129
  792MOL0     H 6899  13.712  10.817   4.861 -1.8036  3.0454 -0.1380
  792MOL0     H 6900  12.904  10.082   4.519  0.8682  0.9968 -2.3921
  792MOL0     H 6901  12.660   9.979   4.520 -1.4650  1.4626  1.6830
  792MOL0     H 6902  12.277   9.994   4.552 -0.1072 -0.9513 -0.7849
  792MOL0     H 6903  12.043   9.950   4.619 -1.4327  0.0439  0.6929
  792MOL0     H 6904  10.123  10.516   3.971  0.3292  1.0429 -0.9881
  792MOL0     H 6905   9.935  10.385   3.826 -0.9722 -1.7022  0.2019
  792MOL0     H 6906   9.734  10.159   3.626  0.7093 -1.5099  0.9797
  792MOL0     H 6907   9.525  10.143   3.541 -0.2565  2.6052  1.1844
  792MOL0     H 6908   9.317  10.136   3.510  2.2592 -0.1480  2.0387
  792MOL0     H 6909   9.174  10.021   3.522  0.0803 -0.0486  1.1166
  792MOL0     H 6910   9.305   9.838   3.431 -3.1469  0.8150 -2.9103
  792MOL0     H 6911   9.443   9.949   3.419  0.5401 -0.7926  0.9361
  792MOL0     H 6912   9.318   9.881   3.219 -1.7587 -0.7367  1.0821
  792MOL0     H 6913   9.354  10.055   3.240 -3.0627  1.5819 -2.9589
  792MOL0     H 6914   9.139  10.122   3.284 -0.7324 -0.1838  1.1941
  792MOL0     H 6915   9.158  10.052   3.129 -1.0475 -2.9484 -1.0542
  792MOL0     H 6916   8.887   9.813   3.387  1.1571 -0.6787 -0.8417
  792MOL0     H 6917   9.383   9.922   3.868 -1.2720  0.4012 -1.8727
  792MOL0     H 6918   9.624   9.864   4.054 -0.4280  0.5933  1.3242
  792MOL0     H 6919   9.671  10.018   4.088  1.3244 -3.9998  2.6397
  792MOL0     H 6920   9.495   9.983   4.085  1.7243  1.6054  3.5203
  793MOL0     O 6921   1.248   4.720   4.155 -0.1163 -0.2401  0.6939
  793MOL0     C 6922   1.203   4.692   4.265 -0.4328  0.9003 -0.9657
  793MOL0     O 6923   1.283   4.639   4.368  0.2055  0.2687 -0.2664
  793MOL0     C 6924   1.408   4.593   4.352  0.7026  0.4975 -0.9764
  793MOL0     C 6925   1.451   4.497   4.443 -0.6362  0.5365 -0.1973
  793MOL0     C 6926   1.586   4.473   4.472 -0.6540  0.5477  0.8159
  793MOL0     C 6927   1.685   4.537   4.395 -0.6784 -0.2993 -1.1774
  793MOL0     O 6928   1.819   4.511   4.411  0.8124 -0.2335 -0.1958
  793MOL0     C 6929   1.858   4.411   4.495  0.7568  0.7722  0.1822
  793MOL0     C 6930   2.001   4.388   4.464 -0.0459  0.0308 -0.8109
  793MOL0     C 6931   2.069   4.273   4.532  0.3872  0.2176 -0.4247
  793MOL0     C 6932   2.194   4.317   4.616 -0.4590 -0.5647  0.2185
  793MOL0     C 6933   2.240   4.212   4.716 -0.1710  0.7823 -0.3529
  793MOL0     C 6934   2.389   4.219   4.751 -0.3516  0.8076  0.5373
  793MOL0     C 6935   2.409   4.178   4.903  0.2369  0.5743  0.9232
  793MOL0     C 6936   2.548   4.112   4.914  0.1557 -0.7334  0.7649
  793MOL0     N 6937   2.579   4.080   5.055 -0.2593 -0.1553 -0.7697
  793MOL0     C 6938   2.700   4.106   5.113  0.0903 -0.6450  0.8666
  793MOL0     C 6939   2.684   4.074   5.240  0.1862  0.4872 -0.1288
  793MOL0     C 6940   2.784   4.096   5.345  0.2153 -0.4790  0.2526
  793MOL0     C 6941   2.809   4.252   5.378 -0.2523  0.2445 -0.0711
  793MOL0     C 6942   2.933   4.317   5.304 -0.3629 -0.0176  0.0943
  793MOL0     C 6943   3.057   4.334   5.386 -0.8654  0.7567  0.2293
  793MOL0     O 6944   3.104   4.202   5.423 -0.0996 -0.2260  0.7977
  793MOL0     C 6945   3.223   4.194   5.498 -0.5911  0.6553  0.2023
  793MOL0     C 6946   3.299   4.311   5.523 -0.0785  0.0351  0.0545
  793MOL0     C 6947   3.436   4.282   5.555 -0.3143 -0.0600  0.1636
  793MOL0     C 6948   3.493   4.153   5.577 -0.1527  0.1281  0.5740
  793MOL0     C 6949   3.624   4.130   5.632  0.4100 -0.0729 -0.2080
  793MOL0     O 6950   3.648   4.031   5.721  0.4495 -0.3707  0.1156
  793MOL0     C 6951   3.775   3.974   5.745 -0.7946  0.1010 -0.3656
  793MOL0     C 6952   3.805   3.918   5.869 -0.0047  0.4423 -0.0900
  793MOL0     C 6953   3.930   3.855   5.900 -1.5088  0.0755  0.1925
  793MOL0     C 6954   4.033   3.858   5.812  0.0895  0.4946  0.0628
  793MOL0     O 6955   4.157   3.824   5.862  0.4211  0.3555 -0.5666
  793MOL0     C 6956   4.272   3.882   5.801  0.1518  0.5786 -0.9073
  793MOL0     C 6957   4.334   3.786   5.704  0.3938  0.4226 -0.6584
  793MOL0     C 6958   4.440   3.695   5.750 -0.2489  0.2085  0.2908
  793MOL0     C 6959   4.392   3.604   5.862 -0.9143 -0.0644 -1.0678
  793MOL0     C 6960   4.506   3.490   5.878  0.3442 -0.9449 -0.2096
  793MOL0     C 6961   4.481   3.391   5.987 -0.2555  0.0054  0.1682
  793MOL0     C 6962   4.598   3.301   6.025  0.1051  0.4923 -0.1271
  793MOL0     C 6963   4.587   3.240   6.160 -0.8682 -0.0113 -0.3238
  793MOL0    Cl 6964   4.447   3.122   6.174 -0.4465  0.1662 -0.2816
  793MOL0     C 6965   4.014   3.924   5.692  0.0730  0.0351 -0.6333
  793MOL0     C 6966   3.882   3.975   5.654 -0.6707  0.4464  0.3185
  793MOL0     O 6967   3.704   4.212   5.594 -0.6777 -0.3733 -0.3585
  793MOL0     C 6968   3.418   4.038   5.561 -0.0070  0.0984 -0.2351
  793MOL0     C 6969   3.286   4.062   5.513 -1.1510  0.2132  0.6537
  793MOL0     N 6970   2.568   4.002   5.244  0.4618 -0.1598  0.5943
  793MOL0     N 6971   2.496   4.009   5.139  0.0320 -0.3672  0.6496
  793MOL0     C 6972   1.641   4.614   4.288 -0.3446  0.4846  0.4015
  793MOL0     C 6973   1.507   4.650   4.279 -0.2596  0.2996 -0.1968
  793MOL0     C 6974   1.061   4.668   4.287  0.6127 -0.4399  0.7892
  793MOL0     C 6975   1.015   4.554   4.357 -0.5319  0.9635  0.3525
  793MOL0     C 6976   0.881   4.507   4.358 -0.1223 -0.6696  0.1992
  793MOL0     C 6977   0.785   4.580   4.289  0.3875  0.2951  0.1252
  793MOL0     O 6978   0.654   4.547   4.284  0.5441  0.7724 -0.5698
  793MOL0     C 6979   0.601   4.449   4.189 -0.1271 -0.8863 -0.2404
  793MOL0     C 6980   0.590   4.311   4.247 -0.5682 -1.7479  0.4407
  793MOL0     C 6981   0.499   4.287   4.368  0.0170 -0.5289  0.3643
  793MOL0     C 6982   0.496   4.136   4.419 -0.0536  0.8780  0.1892
  793MOL0     C 6983   0.409   4.108   4.533 -0.7516 -1.1378 -0.6672
  793MOL0     C 6984   0.341   4.085   4.627  0.6113 -0.7926 -0.5630
  793MOL0     C 6985   0.825   4.697   4.225 -0.2292 -0.1425 -0.3157
  793MOL0     C 6986   0.961   4.745   4.219 -0.1467  0.0613  0.5279
  793MOL0     C 6987   0.994   4.872   4.139  0.9438  0.2342  0.7603
  793MOL0     H 6988   1.381   4.440   4.503 -1.0905  0.2901 -0.9565
  793MOL0     H 6989   1.618   4.391   4.535  0.5749  0.5062  0.1580
  793MOL0     H 6990   1.829   4.441   4.596 -3.6449 -0.2750 -0.5453
  793MOL0     H 6991   1.796   4.323   4.476 -0.5084  2.1443 -2.4412
  793MOL0     H 6992   2.045   4.485   4.490  1.1299 -1.0598  1.6293
  793MOL0     H 6993   2.022   4.368   4.358  1.1731 -3.3886 -0.0490
  793MOL0     H 6994   2.096   4.194   4.461  3.2729  1.0417 -0.4078
  793MOL0     H 6995   1.996   4.240   4.606 -1.9752  3.3823 -1.1335
  793MOL0     H 6996   2.272   4.354   4.549 -0.3662  2.8616  2.0305
  793MOL0     H 6997   2.158   4.402   4.674 -3.3869  0.1140 -2.3092
  793MOL0     H 6998   2.184   4.228   4.809  2.9832 -0.1428  1.8465
  793MOL0     H 6999   2.230   4.112   4.674 -0.1708  0.6625 -0.0672
  793MOL0     H 7000   2.442   4.151   4.684  1.0200  1.6081  0.7674
  793MOL0     H 7001   2.431   4.318   4.732  0.9211 -0.1096 -1.7702
  793MOL0     H 7002   2.330   4.105   4.924 -0.7434  0.7583 -1.7341
  793MOL0     H 7003   2.392   4.262   4.971 -2.4375  1.7003 -0.9185
  793MOL0     H 7004   2.560   4.029   4.844  0.5171  0.9288 -1.2761
  793MOL0     H 7005   2.627   4.183   4.885 -0.2668  0.0501  1.4725
  793MOL0     H 7006   2.780   4.158   5.061  0.1776 -1.8467 -0.2509
  793MOL0     H 7007   2.745   4.031   5.424 -2.1758 -2.4143 -2.3186
  793MOL0     H 7008   2.878   4.045   5.324  1.1920  0.1480  2.8086
  793MOL0     H 7009   2.712   4.297   5.354  0.5425  0.0812 -4.2722
  793MOL0     H 7010   2.828   4.271   5.484  1.0600 -0.0565 -0.2426
  793MOL0     H 7011   2.918   4.415   5.258  0.8776  0.7286  1.2059
  793MOL0     H 7012   2.958   4.256   5.216 -2.9539 -0.6938 -0.2418
  793MOL0     H 7013   3.029   4.399   5.469  0.5894  1.4120  0.2297
  793MOL0     H 7014   3.137   4.384   5.331  1.8610 -2.5501  0.8274
  793MOL0     H 7015   3.272   4.413   5.501  1.1532  0.7898  1.8031
  793MOL0     H 7016   3.507   4.363   5.568 -1.0148  1.4124 -3.8486
  793MOL0     H 7017   3.725   3.927   5.942  1.4272 -1.6657  1.9192
  793MOL0     H 7018   3.959   3.820   5.999  0.4543 -0.1207 -0.4090
  793MOL0     H 7019   4.258   3.981   5.757 -0.1323 -0.5086 -3.4371
  793MOL0     H 7020   4.347   3.904   5.878 -1.6512  2.0927  0.5073
  793MOL0     H 7021   4.260   3.724   5.654  0.1190  0.4142 -0.2504
  793MOL0     H 7022   4.387   3.843   5.627  1.9837 -1.3434 -0.9385
  793MOL0     H 7023   4.479   3.644   5.662 -0.6068 -1.2077  0.9243
  793MOL0     H 7024   4.533   3.746   5.777  0.3994 -1.0266  0.4693
  793MOL0     H 7025   4.287   3.577   5.843 -1.7228  2.3279 -0.3763
  793MOL0     H 7026   4.388   3.663   5.954  1.8396 -1.7984  0.3153
  793MOL0     H 7027   4.600   3.546   5.885 -1.1542  1.7287 -0.1823
  793MOL0     H 7028   4.495   3.431   5.786 -0.8721  0.3746 -0.9552
  793MOL0     H 7029   4.452   3.436   6.082 -0.9669 -4.1106  2.1431
  793MOL0     H 7030   4.399   3.325   5.959  1.0074 -1.8952  0.7491
  793MOL0     H 7031   4.690   3.360   6.024  0.4446  0.1107  2.3128
  793MOL0     H 7032   4.605   3.220   5.951  0.7130 -0.1958  0.6574
  793MOL0     H 7033   4.676   3.184   6.189 -1.1550 -1.6838 -2.4363
  793MOL0     H 7034   4.573   3.315   6.239  0.8843 -0.1970  0.1908
  793MOL0     H 7035   4.087   3.919   5.611 -2.5267 -0.7098 -3.1065
  793MOL0     H 7036   3.879   4.014   5.553  2.9655 -3.7951 -1.7582
  793MOL0     H 7037   3.443   3.936   5.588 -1.3810  0.3053  2.2094
  793MOL0     H 7038   3.218   3.980   5.490 -1.4002  0.7938 -0.8448
  793MOL0     H 7039   1.708   4.662   4.217 -1.6739  4.0072  1.2773
  793MOL0     H 7040   1.480   4.739   4.224  0.2832  1.6689  1.6489
  793MOL0     H 7041   1.086   4.482   4.395 -2.0297 -1.0193 -0.4129
  793MOL0     H 7042   0.844   4.417   4.406 -0.8470 -1.5610 -1.8980
  793MOL0     H 7043   0.666   4.441   4.101 -0.0239  0.1037 -0.2653
  793MOL0     H 7044   0.500   4.473   4.154  0.9269 -1.2512 -4.0435
  793MOL0     H 7045   0.692   4.281   4.275 -0.9234 -1.7434  1.7777
  793MOL0     H 7046   0.558   4.246   4.165 -1.1285  0.4095 -1.1290
  793MOL0     H 7047   0.398   4.327   4.354  0.3784 -0.0646 -1.1374
  793MOL0     H 7048   0.544   4.349   4.446  1.2113  0.5099 -1.0756
  793MOL0     H 7049   0.453   4.076   4.338 -0.3097  2.0967 -0.6082
  793MOL0     H 7050   0.594   4.108   4.458  1.0607  4.0889  0.0083
  793MOL0     H 7051   0.269   4.066   4.705  1.3404  0.0112  0.3345
  793MOL0     H 7052   0.752   4.764   4.181  2.9396  2.0150 -2.7865
  793MOL0     H 7053   1.076   4.929   4.185  0.3795  1.4800  0.2553
  793MOL0     H 7054   1.017   4.862   4.033 -2.0195  0.6823 -0.0169
  793MOL0     H 7055   0.912   4.943   4.150  1.7253  1.1111  1.1358
  794MOL0     O 7056   2.336   5.327  10.818  0.7089 -0.5165  0.4167
  794MOL0     C 7057   2.302   5.347  10.938  0.9233 -0.1136 -0.5993
  794MOL0     O 7058   2.373   5.311  11.045 -0.1344  0.7509 -0.5490
  794MOL0     C 7059   2.483   5.229  11.023  0.2371  0.0534  0.7074
  794MOL0     C 7060   2.474   5.084  11.015 -0.1189  0.4736 -0.3188
  794MOL0     C 7061   2.592   5.011  11.001 -0.2903 -0.5157 -0.0634
  794MOL0     C 7062   2.723   5.075  11.005  0.5076 -0.3403 -0.0006
  794MOL0     O 7063   2.844   5.011  10.997  0.5317  0.4022 -0.2108
  794MOL0     C 7064   2.832   4.891  10.928  0.2062 -0.3743  0.1177
  794MOL0     C 7065   2.973   4.848  10.914 -0.1059  0.6131  0.5100
  794MOL0     C 7066   3.020   4.894  10.778 -0.3659  0.3090 -0.0435
  794MOL0     C 7067   3.158   4.842  10.750  0.0068 -0.1567  0.9475
  794MOL0     C 7068   3.266   4.946  10.772  0.2303  0.5984 -0.3741
  794MOL0     C 7069   3.403   4.882  10.737 -0.2442  0.0136  0.2178
  794MOL0     C 7070   3.511   4.972  10.801  0.8454  0.3617 -0.0135
  794MOL0     C 7071   3.652   4.934  10.766 -0.0090  0.0106  0.2464
  794MOL0     N 7072   3.685   4.971  10.626  0.4891 -1.0826  1.2568
  794MOL0     C 7073   3.657   5.101  10.578 -0.4221  0.2904  1.3449
  794MOL0     C 7074   3.661   5.105  10.442 -0.5599  0.5482  0.8854
  794MOL0     C 7075   3.617   5.216  10.357  0.0935  0.3680  0.1509
  794MOL0     C 7076   3.737   5.312  10.342  0.3780 -0.7758  0.8344
  794MOL0     C 7077   3.703   5.426  10.246  0.7798 -0.9414  0.3188
  794MOL0     C 7078   3.815   5.519  10.209 -0.6823  0.6893 -0.7072
  794MOL0     O 7079   3.886   5.567  10.323  0.7221 -0.0864 -0.6145
  794MOL0     C 7080   3.979   5.668  10.315  0.4672  0.5330  1.6000
  794MOL0     C 7081   4.038   5.705  10.435  0.0137 -0.8534 -0.2742
  794MOL0     C 7082   4.134   5.805  10.436 -0.3633  0.5822 -0.6885
  794MOL0     C 7083   4.178   5.866  10.319 -1.0290 -0.8221 -0.0217
  794MOL0     C 7084   4.280   5.979  10.320 -0.0927 -0.7367  1.1822
  794MOL0     O 7085   4.329   6.013  10.195 -0.0394 -0.5031  0.3038
  794MOL0     C 7086   4.412   6.120  10.190 -0.8639  0.0358 -0.3535
  794MOL0     C 7087   4.393   6.248  10.249 -0.2017 -0.3206  0.4156
  794MOL0     C 7088   4.480   6.359  10.229  0.4536  0.2351 -0.1715
  794MOL0     C 7089   4.595   6.342  10.146 -0.3259  1.0565 -0.2845
  794MOL0     O 7090   4.691   6.438  10.110  0.2388  0.4152  0.1402
  794MOL0     C 7091   4.698   6.552  10.194  0.1950  0.1614  0.3757
  794MOL0     C 7092   4.770   6.669  10.107  0.0702 -0.1743 -0.0016
  794MOL0     C 7093   4.898   6.613  10.054  0.0608 -0.2872 -0.4563
  794MOL0     C 7094   5.000   6.717  10.040 -1.6748 -0.2743 -0.8304
  794MOL0     C 7095   5.105   6.690   9.931  0.2817 -0.8295 -0.8853
  794MOL0     C 7096   5.180   6.555   9.953  0.6125  0.2724 -0.6768
  794MOL0     C 7097   5.259   6.542  10.083 -0.3161 -0.3616 -0.0973
  794MOL0     C 7098   5.382   6.639  10.069 -0.0792 -0.4738 -0.7247
  794MOL0    Cl 7099   5.505   6.583  10.184  0.5522  0.2936 -0.4071
  794MOL0     C 7100   4.615   6.214  10.092 -0.1302  0.1984 -0.2298
  794MOL0     C 7101   4.528   6.109  10.114  0.0671  0.6671 -1.0199
  794MOL0     O 7102   4.304   6.036  10.420  0.7481  0.4991 -0.5164
  794MOL0     C 7103   4.129   5.816  10.200 -0.6055 -0.4135 -0.9128
  794MOL0     C 7104   4.026   5.727  10.191 -0.1404 -0.1814  0.6618
  794MOL0     N 7105   3.692   4.972  10.402 -0.7812 -0.2688 -0.1634
  794MOL0     N 7106   3.703   4.894  10.510  0.1835 -0.7818 -0.1054
  794MOL0     C 7107   2.720   5.217  11.007  0.2098  0.4677 -0.1823
  794MOL0     C 7108   2.607   5.290  11.011  0.4958  0.6884 -1.2449
  794MOL0     C 7109   2.168   5.416  10.960 -0.8492  0.1267 -0.2197
  794MOL0     C 7110   2.067   5.384  10.868  0.6733  0.4866  0.1965
  794MOL0     C 7111   1.933   5.425  10.889  0.1829  0.1017 -0.7783
  794MOL0     C 7112   1.907   5.503  11.005 -0.0078 -0.2332 -0.7913
  794MOL0     O 7113   1.774   5.535  11.048  0.1128  0.3781 -0.4200
  794MOL0     C 7114   1.659   5.480  10.973  0.6264  0.7109 -0.1758
  794MOL0     C 7115   1.531   5.559  11.007  0.3331 -0.7749  0.3034
  794MOL0     C 7116   1.535   5.714  10.952  0.6944  1.0984 -0.7252
  794MOL0     C 7117   1.397   5.756  10.916  0.0686 -1.1480 -0.4919
  794MOL0     C 7118   1.377   5.882  10.838 -0.6209  0.0335  0.8146
  794MOL0     C 7119   1.360   5.982  10.784  0.6862 -0.8155  0.4422
  794MOL0     C 7120   2.006   5.537  11.093  0.8793 -0.3142  0.4700
  794MOL0     C 7121   2.135   5.493  11.072  0.1829  0.2716  0.5802
  794MOL0     C 7122   2.230   5.538  11.179  0.2069 -0.6939 -1.2282
  794MOL0     H 7123   2.383   5.026  11.023  0.1039  0.2777  1.2132
  794MOL0     H 7124   2.599   4.903  11.010  3.4384 -0.3099  1.6453
  794MOL0     H 7125   2.783   4.815  10.989  2.8403 -2.4043 -0.1161
  794MOL0     H 7126   2.776   4.895  10.834  1.2533 -0.5999 -0.5363
  794MOL0     H 7127   2.953   4.742  10.900 -1.0494  1.0424 -1.8890
  794MOL0     H 7128   3.044   4.878  10.991  2.6221  2.1493 -2.3681
  794MOL0     H 7129   3.028   5.004  10.778 -3.1512  0.7585  4.4172
  794MOL0     H 7130   2.947   4.857  10.705  0.6982  0.9703 -1.4913
  794MOL0     H 7131   3.176   4.748  10.804 -0.1652 -0.3041  0.7474
  794MOL0     H 7132   3.160   4.818  10.644 -0.0052  0.4144  0.8168
  794MOL0     H 7133   3.256   5.044  10.723 -0.9213 -0.1617 -1.7282
  794MOL0     H 7134   3.276   4.965  10.879  3.2178  1.7173 -0.7471
  794MOL0     H 7135   3.408   4.777  10.768  1.5217  0.0508  0.1662
  794MOL0     H 7136   3.399   4.891  10.628 -1.9320 -0.7450  0.1871
  794MOL0     H 7137   3.512   4.960  10.910  1.8069  0.3643 -0.0083
  794MOL0     H 7138   3.488   5.078  10.790  2.3309  0.6163 -0.9390
  794MOL0     H 7139   3.711   4.992  10.838 -0.8729 -0.1350  1.0830
  794MOL0     H 7140   3.669   4.828  10.785 -2.5222 -0.2469  1.4930
  794MOL0     H 7141   3.634   5.185  10.643  0.3140  2.6841 -1.2716
  794MOL0     H 7142   3.565   5.179  10.268 -0.8359  1.2184  0.3340
  794MOL0     H 7143   3.535   5.262  10.412  0.8667 -0.6608  2.3030
  794MOL0     H 7144   3.771   5.350  10.438 -0.6639  1.2507  0.4608
  794MOL0     H 7145   3.820   5.254  10.301 -1.7436 -3.8138  0.4864
  794MOL0     H 7146   3.637   5.484  10.311  0.0277  1.7894 -2.6162
  794MOL0     H 7147   3.653   5.399  10.152 -0.6942  1.1973  0.4259
  794MOL0     H 7148   3.787   5.595  10.136 -5.2755 -0.1092 -0.0702
  794MOL0     H 7149   3.881   5.454  10.151 -1.8535  1.9509 -3.6680
  794MOL0     H 7150   3.995   5.654  10.521 -0.3293  1.5400  1.0765
  794MOL0     H 7151   4.167   5.855  10.526  1.2773 -2.3028  0.4249
  794MOL0     H 7152   4.303   6.258  10.308  1.0241 -0.5162  2.4283
  794MOL0     H 7153   4.479   6.441  10.300 -0.9211 -1.2600  1.6543
  794MOL0     H 7154   4.603   6.596  10.223 -0.0118  0.0872 -0.1818
  794MOL0     H 7155   4.742   6.524  10.291 -1.1767  0.2370  1.0384
  794MOL0     H 7156   4.706   6.705  10.026 -0.8668 -2.9715 -0.6428
  794MOL0     H 7157   4.799   6.750  10.174  0.2367 -0.2148 -0.0249
  794MOL0     H 7158   4.930   6.528  10.116 -0.1515  0.3086  0.4902
  794MOL0     H 7159   4.869   6.574   9.956  0.0993 -0.0257 -0.5735
  794MOL0     H 7160   5.046   6.733  10.138 -1.2608  0.0803 -1.0819
  794MOL0     H 7161   4.950   6.809  10.008  0.1981  0.3856 -2.0770
  794MOL0     H 7162   5.173   6.775   9.932  0.2637 -0.8079  0.5370
  794MOL0     H 7163   5.049   6.684   9.837  0.2001 -0.6068 -0.8493
  794MOL0     H 7164   5.096   6.485   9.959  0.5384  0.4710  1.0891
  794MOL0     H 7165   5.231   6.524   9.862 -0.7823 -1.5136 -0.9012
  794MOL0     H 7166   5.301   6.441  10.088  0.4894 -0.2118 -2.5654
  794MOL0     H 7167   5.210   6.560  10.179  0.3646  2.1525 -0.1542
  794MOL0     H 7168   5.426   6.631   9.970 -0.5572  0.3490 -1.0130
  794MOL0     H 7169   5.360   6.740  10.107  5.6354  1.0247 -0.4832
  794MOL0     H 7170   4.692   6.210  10.016 -1.4004  1.5854 -1.6647
  794MOL0     H 7171   4.538   6.012  10.066  1.3770 -0.4954  1.4203
  794MOL0     H 7172   4.157   5.869  10.110 -0.4171 -0.5452 -0.9328
  794MOL0     H 7173   3.973   5.702  10.100 -1.3105 -0.9370  1.5122
  794MOL0     H 7174   2.810   5.276  11.002 -0.4379  1.4211 -1.0316
  794MOL0     H 7175   2.616   5.397  11.028 -0.0087  0.5438  0.0424
  794MOL0     H 7176   2.091   5.331  10.776  3.6368 -1.4173  1.9157
  794MOL0     H 7177   1.870   5.413  10.802 -2.3373  2.9916  0.4668
  794MOL0     H 7178   1.640   5.376  11.004 -0.1305  1.8632  3.7768
  794MOL0     H 7179   1.672   5.485  10.865 -0.2442  2.2881 -0.2265
  794MOL0     H 7180   1.536   5.554  11.117  2.1092 -1.5381  0.2179
  794MOL0     H 7181   1.434   5.514  10.986 -0.2217  0.4395  0.1514
  794MOL0     H 7182   1.597   5.714  10.862  2.0696 -0.6929  0.1614
  794MOL0     H 7183   1.590   5.774  11.024  0.2106 -1.0442  1.5985
  794MOL0     H 7184   1.349   5.671  10.866 -1.6230  0.2856 -1.4039
  794MOL0     H 7185   1.343   5.778  11.008  3.1684  1.4257  0.9070
  794MOL0     H 7186   1.352   6.073  10.728  0.8635 -1.2509 -0.3040
  794MOL0     H 7187   1.974   5.599  11.176 -1.0862 -2.2169  1.2103
  794MOL0     H 7188   2.272   5.453  11.234 -2.7917 -0.4600  1.7808
  794MOL0     H 7189   2.313   5.600  11.144  2.8354 -1.3941  3.0970
  794MOL0     H 7190   2.170   5.588  11.255  2.0426 -1.9294  1.1700
  795MOL0     O 7191   4.945   4.512  10.236 -0.4111 -0.1128 -0.3814
  795MOL0     C 7192   4.829   4.509  10.268  1.1743 -0.1024 -0.5381
  795MOL0     O 7193   4.787   4.507  10.398 -0.1842  0.0237  0.0865
  795MOL0     C 7194   4.874   4.501  10.498  0.1242 -0.2926  0.2381
  795MOL0     C 7195   4.838   4.585  10.603 -0.1774 -0.6718 -1.0864
  795MOL0     C 7196   4.922   4.588  10.714  0.3508  0.7350 -1.7233
  795MOL0     C 7197   5.038   4.511  10.718 -0.5992  0.1138 -0.3456
  795MOL0     O 7198   5.135   4.518  10.819 -0.2375  0.0006 -0.2818
  795MOL0     C 7199   5.147   4.650  10.876  0.1812  0.9526  0.1689
  795MOL0     C 7200   5.271   4.665  10.955  0.1499 -0.1333 -0.4662
  795MOL0     C 7201   5.377   4.716  10.856 -0.5104  0.6215 -1.2368
  795MOL0     C 7202   5.509   4.707  10.932  0.1128 -0.4941  0.4693
  795MOL0     C 7203   5.631   4.719  10.846 -0.1567  0.0412 -0.2149
  795MOL0     C 7204   5.640   4.850  10.776 -0.6385 -0.2933 -0.2189
  795MOL0     C 7205   5.644   4.969  10.873  0.0353 -0.4397 -1.1042
  795MOL0     C 7206   5.674   5.105  10.809 -0.0494 -0.2352 -0.0346
  795MOL0     N 7207   5.799   5.118  10.737  0.0333 -0.1400 -0.6154
  795MOL0     C 7208   5.926   5.127  10.789 -0.1555  0.3875 -0.0509
  795MOL0     C 7209   6.008   5.139  10.677  0.1693  1.0028 -0.4979
  795MOL0     C 7210   6.158   5.162  10.691  0.6268 -0.3516  0.2385
  795MOL0     C 7211   6.201   5.309  10.656  0.6460 -0.3683 -0.7306
  795MOL0     C 7212   6.157   5.402  10.764 -0.1981 -0.4351 -0.5517
  795MOL0     C 7213   6.259   5.504  10.820 -0.2678 -0.2442 -0.2428
  795MOL0     O 7214   6.395   5.462  10.814 -0.3098  0.8703  0.1443
  795MOL0     C 7215   6.498   5.514  10.875 -0.2947  0.7118 -0.5230
  795MOL0     C 7216   6.623   5.470  10.837 -0.2062 -0.0393 -0.2528
  795MOL0     C 7217   6.734   5.516  10.919 -0.6334 -0.3543  0.2450
  795MOL0     C 7218   6.719   5.591  11.031 -0.4413  0.0434 -0.0478
  795MOL0     C 7219   6.827   5.636  11.121 -0.4349  0.1636  0.0416
  795MOL0     O 7220   6.810   5.755  11.180  0.0487  0.4897 -0.1543
  795MOL0     C 7221   6.920   5.808  11.250 -0.6152 -0.2625 -0.2421
  795MOL0     C 7222   6.989   5.919  11.193 -0.0602  0.1484  0.3238
  795MOL0     C 7223   7.104   5.965  11.258 -0.3048 -0.5243 -0.8893
  795MOL0     C 7224   7.144   5.906  11.376 -0.4677 -0.2819 -1.1254
  795MOL0     O 7225   7.255   5.942  11.449  0.9078 -0.1658 -0.6308
  795MOL0     C 7226   7.291   6.079  11.443  0.1569  0.5045 -0.5269
  795MOL0     C 7227   7.395   6.115  11.547 -0.6089 -0.6187 -0.3845
  795MOL0     C 7228   7.401   6.270  11.582 -0.2771 -0.1792  0.6030
  795MOL0     C 7229   7.274   6.339  11.652 -0.7295 -0.3239  0.0675
  795MOL0     C 7230   7.305   6.488  11.673 -1.0845 -0.9930  0.7290
  795MOL0     C 7231   7.331   6.576  11.540 -1.0664 -0.1165  0.1985
  795MOL0     C 7232   7.221   6.577  11.427  0.1488 -1.1347 -0.7640
  795MOL0     C 7233   7.277   6.641  11.299  0.6351  0.4721 -0.0251
  795MOL0    Cl 7234   7.381   6.529  11.209  0.4745  0.1927  0.4481
  795MOL0     C 7235   7.082   5.796  11.423  0.2549 -0.6822 -0.3319
  795MOL0     C 7236   6.968   5.746  11.366 -0.2561 -0.2388 -0.0581
  795MOL0     O 7237   6.920   5.555  11.138 -0.1350 -0.3560 -0.1419
  795MOL0     C 7238   6.586   5.644  11.060  0.3312 -0.3005  1.0040
  795MOL0     C 7239   6.485   5.619  10.970  0.1116  0.8983  0.2921
  795MOL0     N 7240   5.925   5.138  10.573  0.3579 -0.2183  0.5085
  795MOL0     N 7241   5.798   5.132  10.606 -0.2414 -0.2400  0.0099
  795MOL0     C 7242   5.069   4.413  10.617  0.1203 -1.9073 -0.7698
  795MOL0     C 7243   4.982   4.418  10.507  1.1309 -0.6324 -0.0957
  795MOL0     C 7244   4.729   4.511  10.154  0.7111 -0.1694  0.2345
  795MOL0     C 7245   4.784   4.500  10.022  0.8802 -0.8651 -0.7345
  795MOL0     C 7246   4.693   4.483   9.917 -0.3082  0.7467 -0.6351
  795MOL0     C 7247   4.554   4.476   9.924 -0.9485 -0.1696 -0.4707
  795MOL0     O 7248   4.464   4.453   9.825  1.0093 -0.1039 -0.2634
  795MOL0     C 7249   4.501   4.469   9.689  0.6695 -0.2107 -0.2789
  795MOL0     C 7250   4.526   4.325   9.628  0.1380 -0.2625  1.0860
  795MOL0     C 7251   4.648   4.338   9.532  0.1536  0.3659  0.1774
  795MOL0     C 7252   4.663   4.204   9.457  0.5673  0.0554 -0.1525
  795MOL0     C 7253   4.776   4.214   9.376 -0.0177  0.2530  0.3700
  795MOL0     C 7254   4.862   4.235   9.295 -0.6127  0.6966 -0.0503
  795MOL0     C 7255   4.508   4.487  10.053 -0.1679  0.0423  0.0141
  795MOL0     C 7256   4.586   4.507  10.169 -0.7485  0.7484 -0.3212
  795MOL0     C 7257   4.515   4.526  10.301 -0.3609 -0.3356 -0.3118
  795MOL0     H 7258   4.752   4.650  10.588 -1.1158 -2.1761 -2.5299
  795MOL0     H 7259   4.889   4.654  10.793  3.6107  0.9613 -0.4044
  795MOL0     H 7260   5.144   4.731  10.803  0.7979 -0.7309 -1.8162
  795MOL0     H 7261   5.059   4.669  10.938 -0.6278 -1.2282 -0.2184
  795MOL0     H 7262   5.305   4.568  10.993 -0.3773 -0.2225 -0.2161
  795MOL0     H 7263   5.259   4.735  11.038  4.7985  0.2309  0.1118
  795MOL0     H 7264   5.345   4.815  10.821 -1.9366  2.0192  3.3671
  795MOL0     H 7265   5.394   4.645  10.774 -0.8747 -2.8431  1.4982
  795MOL0     H 7266   5.511   4.780  11.014  1.6333  1.5099 -1.2474
  795MOL0     H 7267   5.518   4.617  10.995  0.8542  0.5373  1.8929
  795MOL0     H 7268   5.720   4.698  10.905  0.2279  0.4313 -0.6409
  795MOL0     H 7269   5.641   4.638  10.773 -0.5613 -0.3899  0.2033
  795MOL0     H 7270   5.728   4.841  10.711  0.8088 -0.4619  1.6655
  795MOL0     H 7271   5.558   4.858  10.704 -0.4645  2.6261 -0.2195
  795MOL0     H 7272   5.706   4.942  10.959  0.8815 -0.3468 -1.6713
  795MOL0     H 7273   5.541   4.983  10.907 -0.1201 -2.4627 -0.5986
  795MOL0     H 7274   5.594   5.124  10.737  0.2982  0.1596 -0.3168
  795MOL0     H 7275   5.671   5.179  10.890 -1.1582  0.3298 -0.5769
  795MOL0     H 7276   5.955   5.151  10.891  1.4250  3.3962 -1.0752
  795MOL0     H 7277   6.193   5.144  10.793  2.1526 -1.5490 -0.4586
  795MOL0     H 7278   6.215   5.103  10.618  0.4159  1.1821 -1.2575
  795MOL0     H 7279   6.309   5.304  10.638  0.8509 -1.5570  0.6202
  795MOL0     H 7280   6.166   5.347  10.560  1.7798  0.6254 -0.7815
  795MOL0     H 7281   6.130   5.354  10.858 -0.0334 -0.6752 -0.6253
  795MOL0     H 7282   6.074   5.461  10.722 -0.6140 -0.3895  0.3233
  795MOL0     H 7283   6.222   5.543  10.915 -1.7528 -2.4774  0.1694
  795MOL0     H 7284   6.251   5.590  10.753  0.3614 -0.8882 -1.1667
  795MOL0     H 7285   6.643   5.385  10.772  0.2545 -0.8272  0.8847
  795MOL0     H 7286   6.830   5.466  10.906 -0.6681 -0.4776  0.4543
  795MOL0     H 7287   6.956   5.961  11.099  2.1933  0.8489 -0.2295
  795MOL0     H 7288   7.162   6.047  11.217 -0.3362 -0.3098 -0.5030
  795MOL0     H 7289   7.327   6.106  11.344  1.6945  0.0371 -0.1316
  795MOL0     H 7290   7.202   6.139  11.461  0.6542  1.1987 -0.3633
  795MOL0     H 7291   7.379   6.065  11.643  0.9788 -0.3807  0.0369
  795MOL0     H 7292   7.494   6.079  11.518  0.1880  0.5652  0.7258
  795MOL0     H 7293   7.490   6.282  11.644 -1.5562 -2.7401  3.2047
  795MOL0     H 7294   7.426   6.322  11.489  2.5458 -1.9356  0.2750
  795MOL0     H 7295   7.256   6.281  11.743 -0.4009 -5.1423 -2.6077
  795MOL0     H 7296   7.187   6.325  11.587 -3.8059  2.7159  3.0902
  795MOL0     H 7297   7.397   6.503  11.730  1.5749  0.0456 -3.3570
  795MOL0     H 7298   7.213   6.526  11.718 -0.7782  0.6151  0.0936
  795MOL0     H 7299   7.357   6.679  11.565  4.9148 -1.3111  0.5310
  795MOL0     H 7300   7.422   6.540  11.491  0.1319 -0.8056  2.7408
  795MOL0     H 7301   7.126   6.617  11.462  0.7680 -0.6295  0.4148
  795MOL0     H 7302   7.199   6.474  11.398 -1.6298 -1.6008  1.9242
  795MOL0     H 7303   7.185   6.660  11.242 -1.1412  0.0319  2.5032
  795MOL0     H 7304   7.334   6.731  11.325 -2.2103  2.0549  1.3202
  795MOL0     H 7305   7.122   5.756  11.516 -0.7430 -2.7683 -0.7318
  795MOL0     H 7306   6.908   5.668  11.411 -1.4788  0.1006 -1.0431
  795MOL0     H 7307   6.561   5.717  11.137 -3.9304  2.8534 -2.7765
  795MOL0     H 7308   6.392   5.666  11.000 -1.6855 -3.0162  1.5711
  795MOL0     H 7309   5.162   4.358  10.630 -1.4804 -4.8577 -0.8258
  795MOL0     H 7310   4.996   4.340  10.433 -0.6109 -3.0436  1.9685
  795MOL0     H 7311   4.891   4.505  10.008  0.6199  3.8729 -3.1384
  795MOL0     H 7312   4.723   4.465   9.814 -3.6043 -1.8240 -1.3264
  795MOL0     H 7313   4.578   4.544   9.669 -0.2128  0.3971 -1.5918
  795MOL0     H 7314   4.406   4.496   9.641  0.4123  0.0903  0.3954
  795MOL0     H 7315   4.436   4.286   9.579  1.8063 -2.5619 -0.3384
  795MOL0     H 7316   4.551   4.253   9.707  2.6832 -2.0311 -1.1403
  795MOL0     H 7317   4.728   4.357   9.603 -1.2774  1.6660  1.5265
  795MOL0     H 7318   4.642   4.416   9.456  0.8943 -1.6167 -2.0324
  795MOL0     H 7319   4.677   4.119   9.524  0.1820 -0.0011 -0.1461
  795MOL0     H 7320   4.577   4.185   9.392 -0.3761  1.9831  0.4660
  795MOL0     H 7321   4.944   4.229   9.227 -0.7230 -1.0833 -0.0575
  795MOL0     H 7322   4.400   4.481  10.065 -0.1349 -1.9513 -0.2263
  795MOL0     H 7323   4.414   4.568  10.291 -0.2662  0.5717  2.0539
  795MOL0     H 7324   4.507   4.430  10.353 -3.8263 -0.4414 -0.8109
  795MOL0     H 7325   4.578   4.596  10.355  2.0103  0.4259 -3.7331
  796MOL0     O 7326   7.312   8.638   2.051 -0.0552 -0.1784  0.7102
  796MOL0     C 7327   7.273   8.526   2.003  0.5615  0.3194  0.1060
  796MOL0     O 7328   7.139   8.501   1.968  0.0013 -0.2304  0.4269
  796MOL0     C 7329   7.042   8.599   1.992 -0.0121  0.3514  1.0598
  796MOL0     C 7330   6.929   8.569   2.068 -0.0919  0.3525  0.6063
  796MOL0     C 7331   6.824   8.668   2.088  0.4160 -0.1951  0.7936
  796MOL0     C 7332   6.836   8.798   2.041  0.2331 -0.4489  0.3800
  796MOL0     O 7333   6.743   8.892   2.070 -0.2598 -0.5192  0.1751
  796MOL0     C 7334   6.673   8.894   2.187  0.0441  1.4875 -0.0210
  796MOL0     C 7335   6.565   9.002   2.177  0.5447 -0.4155 -0.1241
  796MOL0     C 7336   6.620   9.146   2.170  0.3155  0.3932  0.6319
  796MOL0     C 7337   6.667   9.173   2.027 -0.9375  0.0666  0.6528
  796MOL0     C 7338   6.708   9.318   2.008  0.2893 -0.1491 -0.1775
  796MOL0     C 7339   6.708   9.349   1.857  0.8316 -0.4198 -0.1650
  796MOL0     C 7340   6.573   9.357   1.789 -0.4674  1.0686  0.3945
  796MOL0     C 7341   6.565   9.293   1.647 -0.1359 -0.0294  0.5681
  796MOL0     N 7342   6.547   9.146   1.658 -0.0869 -0.5745 -0.6380
  796MOL0     C 7343   6.650   9.057   1.659  0.1904 -0.2521 -0.4679
  796MOL0     C 7344   6.584   8.938   1.690  0.6192 -0.2437  0.1635
  796MOL0     C 7345   6.655   8.809   1.720  0.5179  0.3238 -0.9888
  796MOL0     C 7346   6.715   8.739   1.597  0.8344 -0.2127  0.3605
  796MOL0     C 7347   6.855   8.674   1.629  0.1653 -0.0117 -0.1580
  796MOL0     C 7348   6.958   8.765   1.585  0.1820 -0.1506  0.0916
  796MOL0     O 7349   7.091   8.707   1.618 -0.0497 -0.3445 -0.3970
  796MOL0     C 7350   7.197   8.757   1.538  0.2504  1.4958  0.2421
  796MOL0     C 7351   7.319   8.687   1.552 -0.3334  0.1966 -0.2270
  796MOL0     C 7352   7.436   8.721   1.482 -0.5212 -0.9735 -0.6916
  796MOL0     C 7353   7.438   8.820   1.386  1.2839 -0.0380 -1.0888
  796MOL0     C 7354   7.560   8.855   1.313  0.1016  0.6295  1.3263
  796MOL0     O 7355   7.676   8.831   1.387  0.4259 -0.0099  0.5027
  796MOL0     C 7356   7.795   8.842   1.325  0.0455  0.5649  0.5129
  796MOL0     C 7357   7.879   8.727   1.314 -0.0804 -0.1946  0.3070
  796MOL0     C 7358   7.993   8.743   1.242 -0.4443  1.0339 -0.7444
  796MOL0     C 7359   8.033   8.859   1.186 -0.0017 -0.0448  0.1666
  796MOL0     O 7360   8.155   8.853   1.122  0.8329 -0.1841  0.1110
  796MOL0     C 7361   8.257   8.914   1.204 -0.2830  0.5406 -0.5387
  796MOL0     C 7362   8.383   8.826   1.206 -0.6738  0.2355  0.5390
  796MOL0     C 7363   8.369   8.697   1.295  0.0672 -0.3161  0.0575
  796MOL0     C 7364   8.486   8.600   1.280 -0.1569 -0.1575  0.8854
  796MOL0     C 7365   8.459   8.462   1.338 -1.2486 -1.0162 -0.2364
  796MOL0     C 7366   8.407   8.372   1.230  1.0691  0.6828 -0.2233
  796MOL0     C 7367   8.360   8.235   1.269  0.3052  0.2253 -0.7777
  796MOL0     C 7368   8.313   8.153   1.148 -0.1623  0.3730  0.0276
  796MOL0    Cl 7369   8.261   7.994   1.201 -0.2763 -0.5601  0.6010
  796MOL0     C 7370   7.959   8.978   1.211 -0.4446 -0.2625  0.3168
  796MOL0     C 7371   7.842   8.968   1.284  0.2282 -0.3232 -0.5361
  796MOL0     O 7372   7.548   8.869   1.189 -0.2298 -0.1577  0.0568
  796MOL0     C 7373   7.312   8.894   1.375 -0.8048 -0.6209  0.4462
  796MOL0     C 7374   7.200   8.867   1.448  0.6590  0.4038  0.1510
  796MOL0     N 7375   6.445   8.963   1.694 -0.3382 -0.3904 -0.2728
  796MOL0     N 7376   6.432   9.087   1.683 -0.2904  0.3828 -0.2300
  796MOL0     C 7377   6.949   8.829   1.967 -0.0706 -0.2544  0.1773
  796MOL0     C 7378   7.055   8.732   1.948  0.8644 -1.1229 -0.2754
  796MOL0     C 7379   7.382   8.417   1.983 -0.0635 -0.2552  0.3825
  796MOL0     C 7380   7.509   8.429   2.049  0.6452 -0.6939 -0.5756
  796MOL0     C 7381   7.607   8.336   2.026 -0.0424 -0.9082  0.2747
  796MOL0     C 7382   7.590   8.240   1.937 -0.8262  0.1524 -0.1217
  796MOL0     O 7383   7.687   8.155   1.904  0.2177  0.2855 -0.4812
  796MOL0     C 7384   7.725   8.159   1.766  0.2695 -0.2689  0.0698
  796MOL0     C 7385   7.871   8.120   1.752  0.3552 -0.2130 -0.7119
  796MOL0     C 7386   7.909   8.077   1.605 -0.0010 -0.2813 -0.7141
  796MOL0     C 7387   8.055   8.050   1.588  0.1077 -0.9161  0.3616
  796MOL0     C 7388   8.128   8.172   1.604  0.3458 -0.4906 -0.4669
  796MOL0     C 7389   8.201   8.267   1.628  0.1272 -1.0383  0.0843
  796MOL0     C 7390   7.472   8.228   1.866  0.2041  0.7951  0.1082
  796MOL0     C 7391   7.368   8.319   1.887  0.1663 -0.0515 -0.1104
  796MOL0     C 7392   7.251   8.312   1.785 -0.5997  0.7358 -1.0813
  796MOL0     H 7393   6.920   8.463   2.089  0.0600  0.1040 -0.5205
  796MOL0     H 7394   6.732   8.636   2.136  2.2265 -3.6633  2.2800
  796MOL0     H 7395   6.623   8.797   2.194  3.4051 -0.6073 -2.1177
  796MOL0     H 7396   6.730   8.911   2.279  2.1780  0.0483 -1.0196
  796MOL0     H 7397   6.508   8.985   2.269 -0.2693 -2.2258 -0.9203
  796MOL0     H 7398   6.492   8.983   2.098 -1.9036 -0.8275  2.1004
  796MOL0     H 7399   6.702   9.169   2.238  0.8533  2.4975 -0.6667
  796MOL0     H 7400   6.537   9.217   2.178  0.5914  0.9373 -1.0369
  796MOL0     H 7401   6.759   9.121   1.999 -0.5883  0.8136  0.3717
  796MOL0     H 7402   6.590   9.147   1.954 -0.5891  1.8848 -0.4451
  796MOL0     H 7403   6.650   9.393   2.063  0.0294 -0.4363 -0.0576
  796MOL0     H 7404   6.813   9.340   2.028  0.4501  1.2844 -2.2852
  796MOL0     H 7405   6.747   9.451   1.850  2.6971 -1.0048  0.8337
  796MOL0     H 7406   6.782   9.287   1.804  2.8256  1.6193  0.0752
  796MOL0     H 7407   6.529   9.457   1.792  2.2238  2.8183 -4.7917
  796MOL0     H 7408   6.502   9.297   1.848 -1.0439 -1.7920 -2.8491
  796MOL0     H 7409   6.483   9.345   1.597 -1.8902 -2.0243  1.2184
  796MOL0     H 7410   6.660   9.316   1.598  1.2632 -2.5396  1.9228
  796MOL0     H 7411   6.757   9.073   1.651 -0.0384  0.7141 -2.2175
  796MOL0     H 7412   6.732   8.829   1.794 -0.4885 -0.8686  0.4488
  796MOL0     H 7413   6.590   8.753   1.787  4.0674  0.5764  3.0494
  796MOL0     H 7414   6.650   8.655   1.569  1.3202 -0.3833 -0.2766
  796MOL0     H 7415   6.714   8.803   1.509 -1.5779  1.1690  1.2999
  796MOL0     H 7416   6.859   8.574   1.584 -2.5524 -0.3907  0.2953
  796MOL0     H 7417   6.856   8.658   1.737 -3.7444 -1.4944 -0.1842
  796MOL0     H 7418   6.947   8.860   1.639 -2.3420 -0.9341  1.0980
  796MOL0     H 7419   6.951   8.789   1.478 -0.9749 -2.4191 -0.3936
  796MOL0     H 7420   7.322   8.601   1.618  3.3366 -0.5463 -1.1442
  796MOL0     H 7421   7.530   8.672   1.507  0.7770  2.2232  1.2650
  796MOL0     H 7422   7.846   8.633   1.358  2.6582 -1.2178  0.3573
  796MOL0     H 7423   8.055   8.655   1.241 -0.3043  0.9946  2.1917
  796MOL0     H 7424   8.284   9.010   1.159 -1.7917  2.2038  1.8886
  796MOL0     H 7425   8.218   8.942   1.302 -2.2679  0.8601 -1.3636
  796MOL0     H 7426   8.421   8.805   1.106  2.4309  2.1652  1.1565
  796MOL0     H 7427   8.463   8.879   1.259  1.2569 -1.5120 -0.4946
  796MOL0     H 7428   8.354   8.724   1.400 -0.7522 -2.5352  0.5588
  796MOL0     H 7429   8.285   8.631   1.271 -0.7519  0.8325 -0.3680
  796MOL0     H 7430   8.566   8.646   1.339 -1.2641  2.3715  0.5513
  796MOL0     H 7431   8.526   8.602   1.178  0.9249 -2.4039  1.2077
  796MOL0     H 7432   8.395   8.468   1.427  1.3850  0.0950  1.7073
  796MOL0     H 7433   8.551   8.418   1.377  1.2851  4.0709  0.4592
  796MOL0     H 7434   8.322   8.407   1.170 -0.9866  2.4436  3.3701
  796MOL0     H 7435   8.488   8.358   1.159 -1.2644 -0.1796 -2.9162
  796MOL0     H 7436   8.282   8.240   1.346  1.0372 -0.1951  0.0084
  796MOL0     H 7437   8.449   8.183   1.307 -0.7394 -0.1305  1.3299
  796MOL0     H 7438   8.222   8.200   1.111  0.3613  1.8291  0.5112
  796MOL0     H 7439   8.393   8.144   1.074  0.2334  1.0645  0.3550
  796MOL0     H 7440   8.003   9.068   1.171  1.7966 -1.2998  0.2850
  796MOL0     H 7441   7.774   9.050   1.302  0.8643  0.0478  0.2082
  796MOL0     H 7442   7.317   8.972   1.299  0.4022 -1.1236 -0.0098
  796MOL0     H 7443   7.109   8.924   1.435  0.4710 -0.0507 -0.5887
  796MOL0     H 7444   6.971   8.932   1.943  1.0902 -0.5685 -0.1851
  796MOL0     H 7445   7.130   8.764   1.875  0.4565  0.4404 -0.0546
  796MOL0     H 7446   7.530   8.509   2.119  0.8230  0.2481 -1.6679
  796MOL0     H 7447   7.698   8.335   2.085 -0.1608 -1.1363  0.4536
  796MOL0     H 7448   7.714   8.258   1.722  0.2780  1.0103  2.7565
  796MOL0     H 7449   7.671   8.082   1.709 -1.4404  0.4317  0.6847
  796MOL0     H 7450   7.892   8.040   1.824  1.0835 -1.7341 -2.5276
  796MOL0     H 7451   7.925   8.211   1.778 -0.2199 -0.6070  2.1399
  796MOL0     H 7452   7.873   8.154   1.536  0.4058  0.5534 -0.0070
  796MOL0     H 7453   7.853   7.986   1.581  1.4980 -1.7737  1.0676
  796MOL0     H 7454   8.088   7.975   1.660 -0.5084 -0.0899  1.5367
  796MOL0     H 7455   8.088   8.019   1.488  0.8892  1.3263 -0.1249
  796MOL0     H 7456   8.267   8.351   1.641  2.3728 -2.5183 -0.9501
  796MOL0     H 7457   7.451   8.143   1.802  0.6191 -1.6163  2.9078
  796MOL0     H 7458   7.237   8.411   1.742 -1.8059  0.6581 -0.8992
  796MOL0     H 7459   7.269   8.235   1.709  2.1160  1.0973 -0.8954
  796MOL0     H 7460   7.158   8.280   1.832  1.4158 -2.8916  0.9278
  797MOL0     O 7461   6.202   2.875   3.381  0.5631  0.2391 -0.3583
  797MOL0     C 7462   6.256   2.794   3.311 -0.2459 -0.2154 -0.2822
  797MOL0     O 7463   6.196   2.693   3.236  0.6126 -0.5944  0.9584
  797MOL0     C 7464   6.068   2.691   3.199  0.4983 -0.2576  0.5240
  797MOL0     C 7465   5.995   2.804   3.167  0.5529 -0.4228 -0.3225
  797MOL0     C 7466   5.872   2.805   3.092  0.4870  0.3885 -0.4982
  797MOL0     C 7467   5.823   2.685   3.044 -0.0148 -0.0720 -0.4406
  797MOL0     O 7468   5.712   2.676   2.969  0.0277 -0.0517  0.3646
  797MOL0     C 7469   5.639   2.794   2.911 -0.2714 -0.0987  1.1336
  797MOL0     C 7470   5.497   2.763   2.871 -0.2935 -0.1626 -0.1358
  797MOL0     C 7471   5.411   2.669   2.963 -0.2544 -0.8224 -0.2536
  797MOL0     C 7472   5.384   2.743   3.100  0.4046  0.4247  0.5890
  797MOL0     C 7473   5.298   2.649   3.198 -0.0077  0.7064  0.1896
  797MOL0     C 7474   5.148   2.662   3.172  0.0801 -0.2605 -0.3165
  797MOL0     C 7475   5.052   2.575   3.249 -0.3275 -0.1069 -1.0675
  797MOL0     C 7476   5.071   2.569   3.405  0.0679  0.7552  0.2840
  797MOL0     N 7477   4.978   2.489   3.482  0.2360 -0.2204 -0.8627
  797MOL0     C 7478   5.016   2.378   3.555  0.9351  0.0793  0.9407
  797MOL0     C 7479   4.893   2.335   3.615  0.6672  0.3140 -0.2208
  797MOL0     C 7480   4.858   2.218   3.700 -0.1512  0.0990  0.2703
  797MOL0     C 7481   4.915   2.081   3.653  0.9026 -1.0403 -0.4889
  797MOL0     C 7482   4.804   1.994   3.596  0.1323 -0.0368  0.7624
  797MOL0     C 7483   4.741   2.061   3.474 -0.1723  0.1959  0.5983
  797MOL0     O 7484   4.647   1.970   3.419  0.0756  0.6333  0.3290
  797MOL0     C 7485   4.637   1.976   3.280 -0.0529  0.7831 -0.2166
  797MOL0     C 7486   4.619   1.845   3.224 -0.3539  0.4974 -0.2807
  797MOL0     C 7487   4.605   1.828   3.087 -0.6235 -0.1188  0.6432
  797MOL0     C 7488   4.602   1.945   3.002  0.3577  0.1712 -0.3603
  797MOL0     C 7489   4.573   1.928   2.858 -0.2659 -0.7292  0.1068
  797MOL0     O 7490   4.564   1.794   2.800 -0.2110 -0.2337 -0.0310
  797MOL0     C 7491   4.516   1.790   2.671  0.3848 -0.5260  0.5333
  797MOL0     C 7492   4.391   1.824   2.638 -0.2863 -0.4065 -0.6156
  797MOL0     C 7493   4.340   1.821   2.503 -0.1188 -0.5772 -0.3829
  797MOL0     C 7494   4.418   1.767   2.407  0.3398  0.7935  0.3298
  797MOL0     O 7495   4.372   1.765   2.275  0.5112 -0.1455  1.0718
  797MOL0     C 7496   4.304   1.643   2.253  0.0661 -0.6049  0.1580
  797MOL0     C 7497   4.247   1.652   2.106 -0.3241 -0.1771 -0.5166
  797MOL0     C 7498   4.118   1.739   2.110 -0.1020  0.5233 -0.4700
  797MOL0     C 7499   4.042   1.739   1.984  0.1506  0.2157  0.1873
  797MOL0     C 7500   3.909   1.817   2.003 -0.5175  0.0608  0.4903
  797MOL0     C 7501   3.821   1.835   1.882  0.4700  0.0079  0.3600
  797MOL0     C 7502   3.686   1.913   1.931  0.7274  0.7939 -0.2889
  797MOL0     C 7503   3.571   1.936   1.820 -0.3700  0.1099  0.1923
  797MOL0    Cl 7504   3.436   2.022   1.888 -0.3757  0.2417  0.1846
  797MOL0     C 7505   4.551   1.741   2.440 -0.3719 -0.2285  0.6414
  797MOL0     C 7506   4.601   1.754   2.569  0.1943  0.4426  0.1098
  797MOL0     O 7507   4.552   2.040   2.804 -0.6862  0.0177  0.3744
  797MOL0     C 7508   4.615   2.071   3.059  0.7017  0.3769  0.7772
  797MOL0     C 7509   4.630   2.084   3.197 -0.0356  0.0036 -0.9608
  797MOL0     N 7510   4.793   2.427   3.573 -0.5778  0.3700  0.2306
  797MOL0     N 7511   4.845   2.510   3.496 -0.3871 -0.1349  0.1146
  797MOL0     C 7512   5.888   2.568   3.085 -0.3210  0.2312 -0.2642
  797MOL0     C 7513   6.008   2.571   3.157  0.4586  1.1163  0.3909
  797MOL0     C 7514   6.406   2.823   3.290  0.4421  0.3821  0.2819
  797MOL0     C 7515   6.461   2.826   3.160  1.1971  0.2662 -0.0491
  797MOL0     C 7516   6.596   2.867   3.139 -0.6629 -0.0097  0.2439
  797MOL0     C 7517   6.678   2.905   3.251 -0.8262 -0.3274  0.0135
  797MOL0     O 7518   6.809   2.946   3.243 -0.5514  0.2563  0.5752
  797MOL0     C 7519   6.863   2.926   3.118 -0.3716 -0.5774 -0.8226
  797MOL0     C 7520   6.850   3.066   3.052  1.5067 -0.4814  0.4666
  797MOL0     C 7521   6.946   3.161   3.119  0.2121 -0.7628 -0.0814
  797MOL0     C 7522   6.942   3.304   3.068  0.3787 -0.0681 -0.5683
  797MOL0     C 7523   7.001   3.313   2.933 -0.5407 -0.2587 -0.9267
  797MOL0     C 7524   7.069   3.330   2.834  0.3838  1.3209  0.1194
  797MOL0     C 7525   6.629   2.894   3.378  0.2010  0.1931  0.0268
  797MOL0     C 7526   6.487   2.866   3.400 -0.8093 -0.3109 -0.4526
  797MOL0     C 7527   6.443   2.880   3.542 -0.1446  0.2183  0.6833
  797MOL0     H 7528   6.033   2.905   3.180  0.9061 -0.4603 -1.0305
  797MOL0     H 7529   5.819   2.900   3.090 -1.3382 -0.4136  2.7235
  797MOL0     H 7530   5.623   2.875   2.984 -2.5813  4.2135 -3.5210
  797MOL0     H 7531   5.698   2.835   2.828 -1.1530 -0.8857  0.1074
  797MOL0     H 7532   5.489   2.716   2.773 -0.4258 -1.1501  0.3409
  797MOL0     H 7533   5.433   2.852   2.864 -1.6847 -1.2680 -2.4843
  797MOL0     H 7534   5.463   2.574   2.980 -0.4899 -0.7186  1.1706
  797MOL0     H 7535   5.314   2.646   2.917 -1.2909 -0.6424  1.7400
  797MOL0     H 7536   5.476   2.769   3.154 -1.1492  1.7340  2.7392
  797MOL0     H 7537   5.318   2.829   3.082  0.1894  0.5510  1.8695
  797MOL0     H 7538   5.324   2.543   3.186  2.2083  1.2005  0.2901
  797MOL0     H 7539   5.329   2.667   3.301  1.5499 -0.6102 -0.0087
  797MOL0     H 7540   5.123   2.767   3.188 -3.1409 -0.7137 -1.7260
  797MOL0     H 7541   5.143   2.642   3.064 -2.4895  0.4116 -0.3833
  797MOL0     H 7542   5.061   2.472   3.215  3.2316 -0.0876 -0.5814
  797MOL0     H 7543   4.946   2.601   3.236 -1.4549 -2.9886  1.2190
  797MOL0     H 7544   5.174   2.533   3.409  0.6765  2.5031  0.9477
  797MOL0     H 7545   5.075   2.670   3.446 -0.9301  1.1486 -0.5297
  797MOL0     H 7546   5.113   2.334   3.535 -0.0276 -0.2574 -4.2406
  797MOL0     H 7547   4.894   2.243   3.800  0.7367 -1.4705  0.3774
  797MOL0     H 7548   4.748   2.218   3.698 -0.1463  1.1457 -0.6682
  797MOL0     H 7549   4.985   2.094   3.570  1.6700 -0.2874  0.2576
  797MOL0     H 7550   4.961   2.045   3.746  0.9467  1.4780  0.5306
  797MOL0     H 7551   4.734   1.964   3.675  0.9883 -0.3840  1.4011
  797MOL0     H 7552   4.847   1.898   3.566  2.8532  1.3917 -0.2137
  797MOL0     H 7553   4.816   2.079   3.397 -2.0041  2.8730 -0.7101
  797MOL0     H 7554   4.696   2.158   3.499 -0.7594  0.7021 -2.0937
  797MOL0     H 7555   4.616   1.753   3.280  0.4382  1.1904  0.9382
  797MOL0     H 7556   4.601   1.731   3.039  0.5770 -0.0978  0.4734
  797MOL0     H 7557   4.338   1.869   2.721  0.6834  0.0605 -0.2416
  797MOL0     H 7558   4.237   1.849   2.481 -0.0800 -2.8209 -4.5824
  797MOL0     H 7559   4.361   1.551   2.270 -0.2558 -0.6719  0.9129
  797MOL0     H 7560   4.219   1.634   2.321 -1.6608  1.1290 -1.6841
  797MOL0     H 7561   4.330   1.680   2.040 -0.0694 -1.4003 -0.7426
  797MOL0     H 7562   4.211   1.555   2.071  3.1339 -3.3438  3.5693
  797MOL0     H 7563   4.058   1.721   2.199 -1.5095 -0.4996 -1.5797
  797MOL0     H 7564   4.154   1.842   2.120  3.5246 -0.5295 -1.3309
  797MOL0     H 7565   4.024   1.636   1.951  0.4544  0.6345 -1.3569
  797MOL0     H 7566   4.093   1.801   1.910 -4.9970  2.3784 -2.0788
  797MOL0     H 7567   3.926   1.912   2.055  0.2376  0.0816  0.2136
  797MOL0     H 7568   3.849   1.754   2.069 -2.5925  1.1676 -0.2598
  797MOL0     H 7569   3.885   1.893   1.815 -2.1980  1.7960 -0.8438
  797MOL0     H 7570   3.798   1.740   1.833  0.6224  1.9411 -3.9731
  797MOL0     H 7571   3.718   2.012   1.963  0.6226  1.3570 -1.8768
  797MOL0     H 7572   3.638   1.856   2.012  2.7372  0.7214  0.9316
  797MOL0     H 7573   3.613   1.997   1.739  0.9246 -0.1577  0.6501
  797MOL0     H 7574   3.550   1.839   1.775  3.4703 -0.8461  0.1768
  797MOL0     H 7575   4.623   1.699   2.370 -3.3548  0.8811 -3.4788
  797MOL0     H 7576   4.704   1.728   2.590  0.5254  2.0258  0.5392
  797MOL0     H 7577   4.609   2.163   3.000  1.2401 -1.7564 -2.8818
  797MOL0     H 7578   4.643   2.179   3.248 -1.2631  1.0725 -2.5348
  797MOL0     H 7579   5.832   2.479   3.056  0.2220  0.9755 -4.1540
  797MOL0     H 7580   6.078   2.488   3.161 -0.9370 -0.0641  1.0784
  797MOL0     H 7581   6.395   2.806   3.076 -0.7639 -0.9952  1.6854
  797MOL0     H 7582   6.626   2.882   3.036  0.7827  1.5676  0.8535
  797MOL0     H 7583   6.832   2.839   3.061  0.2474 -1.1248 -0.3423
  797MOL0     H 7584   6.972   2.917   3.121 -0.1799  1.4105 -0.3508
  797MOL0     H 7585   6.746   3.099   3.059  2.0379  1.6276 -0.6788
  797MOL0     H 7586   6.870   3.041   2.947 -0.2991 -2.0984  0.4544
  797MOL0     H 7587   7.050   3.128   3.129  1.8856  4.3702  3.2933
  797MOL0     H 7588   6.916   3.170   3.224 -0.4507 -0.2457 -0.3079
  797MOL0     H 7589   6.838   3.331   3.049  0.6928  0.1900 -1.9846
  797MOL0     H 7590   6.982   3.375   3.141 -5.1149 -0.7194  3.8206
  797MOL0     H 7591   7.127   3.332   2.744  1.1481 -2.7886  0.3306
  797MOL0     H 7592   6.692   2.912   3.465 -1.7045  0.7718  1.3602
  797MOL0     H 7593   6.531   2.913   3.599 -0.0109  1.0838 -0.0032
  797MOL0     H 7594   6.369   2.960   3.555 -1.6768 -1.2085  1.0716
  797MOL0     H 7595   6.393   2.790   3.580  0.4826  0.0845  1.2167
  798MOL0     O 7596  10.393   2.658   4.857  0.1340  0.2436  0.1745
  798MOL0     C 7597  10.453   2.621   4.759 -0.2310 -0.2426 -0.8886
  798MOL0     O 7598  10.394   2.581   4.640 -0.9192 -0.3804 -0.5360
  798MOL0     C 7599  10.260   2.582   4.628  0.2447 -0.2381  0.3371
  798MOL0     C 7600  10.197   2.467   4.574  0.0029  0.2087  0.4826
  798MOL0     C 7601  10.060   2.482   4.537 -0.4798 -0.4240  0.2334
  798MOL0     C 7602   9.992   2.604   4.540 -0.2647 -0.1703  0.7593
  798MOL0     O 7603   9.865   2.623   4.481 -0.7634 -0.6832  0.5071
  798MOL0     C 7604   9.790   2.515   4.429  0.1741  0.6360  0.0872
  798MOL0     C 7605   9.673   2.457   4.515  0.0545  0.2029 -0.1989
  798MOL0     C 7606   9.711   2.384   4.641 -0.4160 -0.0176  0.8393
  798MOL0     C 7607   9.598   2.319   4.706  0.2210  0.8581 -0.1853
  798MOL0     C 7608   9.638   2.247   4.837  0.1160  0.0350 -0.4368
  798MOL0     C 7609   9.525   2.167   4.900 -0.9018 -0.3668 -0.4646
  798MOL0     C 7610   9.557   2.141   5.051  0.0523 -0.0659  0.6891
  798MOL0     C 7611   9.645   2.017   5.073 -0.8807  1.1911 -0.4704
  798MOL0     N 7612   9.568   1.903   5.104 -0.7816  0.0113 -0.1973
  798MOL0     C 7613   9.477   1.830   5.030  0.3129 -0.4916  0.4478
  798MOL0     C 7614   9.442   1.718   5.102 -0.5389  0.1621 -0.3047
  798MOL0     C 7615   9.358   1.602   5.050  0.1051 -0.4780 -0.0944
  798MOL0     C 7616   9.451   1.478   5.019  0.4846 -0.0692 -0.2152
  798MOL0     C 7617   9.452   1.377   5.134 -1.0131  0.7847  0.3931
  798MOL0     C 7618   9.332   1.283   5.132  0.4955  0.0896 -0.2126
  798MOL0     O 7619   9.342   1.194   5.010 -0.5752 -0.5302 -0.8623
  798MOL0     C 7620   9.224   1.145   4.958 -0.1182  0.2242 -0.8252
  798MOL0     C 7621   9.102   1.108   5.024 -0.8172 -0.0905 -0.4099
  798MOL0     C 7622   8.992   1.047   4.955  0.8290  0.0371 -0.1736
  798MOL0     C 7623   9.005   1.022   4.821 -0.4174  0.6150  0.4689
  798MOL0     C 7624   8.909   0.951   4.746  0.9623  0.9070 -0.0725
  798MOL0     O 7625   8.797   0.918   4.828  0.1818 -0.5600  0.2952
  798MOL0     C 7626   8.685   0.859   4.764 -1.0701  0.1034  0.2186
  798MOL0     C 7627   8.682   0.723   4.748  0.5577 -0.2806 -0.2034
  798MOL0     C 7628   8.568   0.670   4.686  0.0043 -0.0639  0.4765
  798MOL0     C 7629   8.463   0.756   4.640 -0.1834  1.3778  0.1570
  798MOL0     O 7630   8.351   0.706   4.572  0.2400 -0.9511  0.5113
  798MOL0     C 7631   8.288   0.590   4.618  0.4384  0.4105  0.1420
  798MOL0     C 7632   8.136   0.582   4.587 -0.6187 -0.7594 -0.0563
  798MOL0     C 7633   8.064   0.692   4.663  0.2016 -0.6701 -0.2657
  798MOL0     C 7634   7.928   0.699   4.603  0.3938  0.7767  0.4291
  798MOL0     C 7635   7.858   0.817   4.660 -0.4393 -0.9720  0.2979
  798MOL0     C 7636   7.711   0.826   4.629  0.1859 -0.0386 -0.2124
  798MOL0     C 7637   7.660   0.953   4.697  0.4323  0.4647  0.1653
  798MOL0     C 7638   7.511   0.988   4.664 -0.2005  0.2483  0.4446
  798MOL0    Cl 7639   7.408   0.890   4.766  0.0154  0.1606  0.2330
  798MOL0     C 7640   8.478   0.899   4.657  0.4326  1.6871 -0.0954
  798MOL0     C 7641   8.589   0.948   4.714 -0.1286  0.4829 -0.1148
  798MOL0     O 7642   8.921   0.937   4.628 -0.1905 -0.7389  0.3706
  798MOL0     C 7643   9.127   1.057   4.756  0.3223 -0.4300  0.1236
  798MOL0     C 7644   9.236   1.118   4.821  0.5107 -0.4974 -0.7673
  798MOL0     N 7645   9.490   1.736   5.228  0.6268  0.5158  0.0228
  798MOL0     N 7646   9.573   1.836   5.224 -0.5854 -0.2001 -0.3398
  798MOL0     C 7647  10.054   2.719   4.589  0.6463  0.3308 -0.1461
  798MOL0     C 7648  10.191   2.705   4.617  0.0757 -0.2949  0.4907
  798MOL0     C 7649  10.593   2.604   4.776  0.0237  0.5183  0.0547
  798MOL0     C 7650  10.646   2.506   4.688 -0.0675 -0.0878 -0.0631
  798MOL0     C 7651  10.782   2.476   4.705 -0.3257 -1.3598 -0.4317
  798MOL0     C 7652  10.868   2.530   4.796 -1.4594  0.2599  0.2305
  798MOL0     O 7653  10.996   2.481   4.808 -0.5365 -0.1763 -0.9659
  798MOL0     C 7654  11.103   2.565   4.767 -0.1284 -0.4669 -1.3745
  798MOL0     C 7655  11.082   2.624   4.629 -0.6696 -0.9377 -0.4406
  798MOL0     C 7656  11.091   2.526   4.513 -0.5031 -0.4759 -0.1813
  798MOL0     C 7657  11.028   2.582   4.389  0.0880 -0.4694 -0.0845
  798MOL0     C 7658  10.886   2.592   4.389 -0.3489  0.4735 -0.4016
  798MOL0     C 7659  10.770   2.615   4.405 -0.4678 -0.1762  1.0968
  798MOL0     C 7660  10.821   2.646   4.863 -0.5835  0.5905  0.3550
  798MOL0     C 7661  10.685   2.675   4.865 -0.6710  0.1171  0.7045
  798MOL0     C 7662  10.632   2.776   4.960  0.0056 -0.2982 -0.0948
  798MOL0     H 7663  10.251   2.373   4.583  1.8682  1.4031  2.8629
  798MOL0     H 7664  10.013   2.398   4.485 -2.3233  1.0723 -0.6179
  798MOL0     H 7665   9.754   2.558   4.335  1.3491  4.0057  1.0535
  798MOL0     H 7666   9.849   2.428   4.399  0.0783 -0.3878  2.6136
  798MOL0     H 7667   9.616   2.385   4.457  0.7715 -3.0297  2.7614
  798MOL0     H 7668   9.608   2.542   4.538 -2.2454 -0.7893 -2.5399
  798MOL0     H 7669   9.751   2.454   4.714  1.8439  1.4980 -1.6798
  798MOL0     H 7670   9.784   2.305   4.618 -1.1858 -0.1307 -1.5068
  798MOL0     H 7671   9.515   2.384   4.736  0.8527  1.1078  1.1069
  798MOL0     H 7672   9.550   2.244   4.644 -0.4456  0.4536  0.7881
  798MOL0     H 7673   9.714   2.174   4.810 -0.4261 -1.7922  2.5116
  798MOL0     H 7674   9.681   2.320   4.905 -0.3276 -0.0647 -0.0434
  798MOL0     H 7675   9.431   2.223   4.892 -0.1772  0.8963 -0.4269
  798MOL0     H 7676   9.519   2.069   4.852  0.2804 -2.6848  3.6080
  798MOL0     H 7677   9.465   2.115   5.103 -1.0263  1.3429 -0.4121
  798MOL0     H 7678   9.593   2.235   5.094  0.2028 -0.8848  2.3961
  798MOL0     H 7679   9.703   1.996   4.982 -1.5127  0.2128 -0.6575
  798MOL0     H 7680   9.719   2.029   5.153 -1.7515 -2.8509  1.1306
  798MOL0     H 7681   9.453   1.852   4.927 -1.8444  0.7844  1.1520
  798MOL0     H 7682   9.285   1.586   5.130  0.0213  2.9440  0.6923
  798MOL0     H 7683   9.302   1.645   4.967 -0.6450  2.3776  1.7393
  798MOL0     H 7684   9.422   1.433   4.923  1.2105 -2.0390  0.4499
  798MOL0     H 7685   9.556   1.508   5.005  0.9830 -0.6961  1.8311
  798MOL0     H 7686   9.450   1.428   5.231 -2.8903 -0.7199  1.2080
  798MOL0     H 7687   9.545   1.324   5.113 -1.4700  0.6385 -1.4045
  798MOL0     H 7688   9.245   1.349   5.124  1.1788  0.8584 -2.1357
  798MOL0     H 7689   9.326   1.221   5.221 -1.3647  1.3200  0.5702
  798MOL0     H 7690   9.101   1.109   5.133  1.0830 -3.4851 -0.2238
  798MOL0     H 7691   8.908   1.016   5.016 -0.0057 -2.1643 -2.2769
  798MOL0     H 7692   8.767   0.663   4.781  0.8094  2.2707  4.6889
  798MOL0     H 7693   8.572   0.565   4.657  1.3211  0.1994 -0.3677
  798MOL0     H 7694   8.335   0.500   4.579 -2.3811 -0.8182 -0.6210
  798MOL0     H 7695   8.289   0.579   4.727 -1.8854  3.2239  0.5688
  798MOL0     H 7696   8.124   0.592   4.479  0.3728  1.1639 -0.0348
  798MOL0     H 7697   8.111   0.479   4.613 -0.6347 -1.4491 -2.5355
  798MOL0     H 7698   8.055   0.674   4.771  1.9307 -2.0339 -0.3077
  798MOL0     H 7699   8.101   0.794   4.649  1.1398 -0.5471  2.4095
  798MOL0     H 7700   7.875   0.607   4.628  1.5079 -0.2590 -0.8729
  798MOL0     H 7701   7.940   0.715   4.495  1.0984  1.9787  0.6674
  798MOL0     H 7702   7.918   0.904   4.633  2.5859 -3.3265 -1.1926
  798MOL0     H 7703   7.862   0.799   4.768 -2.8366  1.2680  0.8507
  798MOL0     H 7704   7.698   0.831   4.520 -0.5888 -2.5064 -0.2971
  798MOL0     H 7705   7.652   0.744   4.669  0.1743  0.3666  0.6263
  798MOL0     H 7706   7.725   1.035   4.665  1.4283  0.5268  2.1696
  798MOL0     H 7707   7.675   0.960   4.805  1.3635  0.9915  0.0111
  798MOL0     H 7708   7.503   1.093   4.693  0.9003  0.3192  0.5439
  798MOL0     H 7709   7.481   0.983   4.559 -1.2463 -0.4501  0.7619
  798MOL0     H 7710   8.399   0.964   4.621  0.4430  1.0400 -1.3504
  798MOL0     H 7711   8.619   1.052   4.722  0.7071  0.5285 -2.8388
  798MOL0     H 7712   9.144   1.037   4.651  2.5138  3.4828 -0.4665
  798MOL0     H 7713   9.321   1.137   4.756 -1.0765 -2.6118 -3.7676
  798MOL0     H 7714   9.989   2.806   4.598  0.1545 -0.1447  1.2121
  798MOL0     H 7715  10.237   2.794   4.658  0.7882 -0.6015  0.3661
  798MOL0     H 7716  10.594   2.448   4.613  1.5869 -1.6035 -0.0995
  798MOL0     H 7717  10.826   2.392   4.653  3.6705 -1.3934  2.4966
  798MOL0     H 7718  11.197   2.510   4.767  1.5294  2.0080  2.0401
  798MOL0     H 7719  11.119   2.644   4.841  0.3544 -1.4391 -0.4089
  798MOL0     H 7720  11.164   2.696   4.618 -0.7337 -0.8595 -0.4094
  798MOL0     H 7721  10.991   2.684   4.625 -0.0495  0.2139  1.1938
  798MOL0     H 7722  11.060   2.427   4.547  0.0930 -0.0605  1.6855
  798MOL0     H 7723  11.198   2.520   4.490 -0.2937  0.1937  0.5522
  798MOL0     H 7724  11.072   2.682   4.380  2.3533 -1.3456  0.6534
  798MOL0     H 7725  11.056   2.518   4.305  1.2378 -1.4863  1.0369
  798MOL0     H 7726  10.669   2.650   4.412 -0.4662 -0.0448  0.5443
  798MOL0     H 7727  10.890   2.707   4.920 -0.1346 -0.6173  1.1144
  798MOL0     H 7728  10.566   2.734   5.036 -0.5366  0.1256 -0.3257
  798MOL0     H 7729  10.714   2.825   5.014  0.4117 -1.3341  0.2607
  798MOL0     H 7730  10.577   2.854   4.907  1.5877  1.3060  0.5267
  799MOL0     O 7731   3.604   5.631   7.957  1.0771 -0.5339  0.4701
  799MOL0     C 7732   3.665   5.645   8.059 -0.0841  0.4073 -0.9770
  799MOL0     O 7733   3.778   5.575   8.095 -0.0929 -0.0920  0.5027
  799MOL0     C 7734   3.818   5.489   8.005 -0.5702  0.2153  0.5914
  799MOL0     C 7735   3.733   5.389   7.954  0.4583 -0.4587 -1.0498
  799MOL0     C 7736   3.780   5.306   7.846  0.4754  0.5593 -0.3155
  799MOL0     C 7737   3.922   5.305   7.828  0.4753 -0.0997 -0.2212
  799MOL0     O 7738   3.990   5.215   7.743  0.1341 -0.5477 -0.3654
  799MOL0     C 7739   3.950   5.075   7.739  1.0852 -0.1424  0.4064
  799MOL0     C 7740   3.869   5.040   7.612 -0.7204 -0.7399  0.3845
  799MOL0     C 7741   3.871   4.893   7.582 -0.2233 -0.4167  0.0358
  799MOL0     C 7742   4.011   4.843   7.533  0.7203  0.1053 -0.6700
  799MOL0     C 7743   4.003   4.709   7.463 -0.5232  0.0585  1.4821
  799MOL0     C 7744   4.140   4.665   7.398  0.0190  0.1792 -0.5102
  799MOL0     C 7745   4.167   4.741   7.268  0.2957  0.0802 -0.1462
  799MOL0     C 7746   4.292   4.694   7.194  0.2014 -0.5214 -0.0216
  799MOL0     N 7747   4.259   4.573   7.111 -0.4847 -0.1068  0.2632
  799MOL0     C 7748   4.306   4.450   7.141  0.1441 -0.2816  0.1037
  799MOL0     C 7749   4.264   4.376   7.037  0.1656  0.6205 -0.0527
  799MOL0     C 7750   4.290   4.234   7.029 -0.1538 -0.0345  0.0735
  799MOL0     C 7751   4.168   4.134   7.018 -0.4463 -0.4646 -0.2375
  799MOL0     C 7752   4.128   4.100   6.867  0.4318  1.4570  0.0499
  799MOL0     C 7753   4.162   3.954   6.831 -0.7747  0.1093  0.2810
  799MOL0     O 7754   4.296   3.936   6.863  0.1716 -0.5199 -0.1678
  799MOL0     C 7755   4.378   3.844   6.801  0.6515 -0.1970  0.3763
  799MOL0     C 7756   4.339   3.730   6.734 -0.2786 -0.0628 -0.0286
  799MOL0     C 7757   4.436   3.656   6.666  0.2145 -0.7541 -0.6127
  799MOL0     C 7758   4.575   3.689   6.684  0.3808 -0.2065  1.0738
  799MOL0     C 7759   4.672   3.626   6.588  0.8592  0.2197  0.9802
  799MOL0     O 7760   4.626   3.557   6.476  0.3243  0.1608 -0.2470
  799MOL0     C 7761   4.712   3.528   6.369  0.3731  0.4479 -0.6983
  799MOL0     C 7762   4.695   3.595   6.251  1.1627 -0.0380  1.1177
  799MOL0     C 7763   4.797   3.594   6.155  0.4423 -0.7504 -0.4111
  799MOL0     C 7764   4.899   3.506   6.165  0.1761  0.4713  0.3566
  799MOL0     O 7765   4.983   3.501   6.058  0.0140  0.6256 -1.0685
  799MOL0     C 7766   5.072   3.609   6.054  0.4157 -0.4293  0.6152
  799MOL0     C 7767   5.133   3.611   5.913  0.3082 -0.6107 -0.7794
  799MOL0     C 7768   5.214   3.485   5.879  0.1824 -0.2550  0.0793
  799MOL0     C 7769   5.290   3.491   5.749  0.1715 -0.1781  0.2633
  799MOL0     C 7770   5.359   3.366   5.723 -0.0472 -0.0809  0.5159
  799MOL0     C 7771   5.288   3.262   5.633  0.1879 -0.6771 -0.5582
  799MOL0     C 7772   5.288   3.323   5.489 -0.3814 -0.3840 -0.1446
  799MOL0     C 7773   5.426   3.324   5.426 -0.8224  0.7216  1.2608
  799MOL0    Cl 7774   5.440   3.153   5.364 -0.0187 -0.2171 -0.1029
  799MOL0     C 7775   4.910   3.421   6.283 -0.1010  0.4571 -0.1255
  799MOL0     C 7776   4.819   3.443   6.393 -0.1598  0.0710  0.5774
  799MOL0     O 7777   4.787   3.652   6.616 -0.4685 -0.1902 -0.2289
  799MOL0     C 7778   4.612   3.800   6.759  0.3275  0.2187  0.4911
  799MOL0     C 7779   4.512   3.877   6.812 -0.4532 -0.7774  0.5956
  799MOL0     N 7780   4.219   4.456   6.935  0.5686 -0.2118  0.3254
  799MOL0     N 7781   4.208   4.578   6.983  1.3780 -0.0806 -0.0792
  799MOL0     C 7782   4.009   5.393   7.904 -0.5891  0.5075  1.0199
  799MOL0     C 7783   3.958   5.492   7.974  0.3990  0.1990  0.6893
  799MOL0     C 7784   3.603   5.738   8.161  0.2765 -0.0083  0.3082
  799MOL0     C 7785   3.687   5.840   8.200  0.3024 -0.9428  0.7200
  799MOL0     C 7786   3.646   5.938   8.292 -0.0946  0.2067 -0.5305
  799MOL0     C 7787   3.515   5.924   8.357 -0.3315 -0.6212  0.2601
  799MOL0     O 7788   3.463   6.009   8.445 -0.4345 -1.0383 -0.9436
  799MOL0     C 7789   3.551   6.105   8.511  0.1090  0.2959  0.9304
  799MOL0     C 7790   3.467   6.180   8.614 -0.0818  0.6444  0.1542
  799MOL0     C 7791   3.412   6.085   8.720 -0.0176 -1.1166 -0.5097
  799MOL0     C 7792   3.302   6.175   8.798  0.0487  1.3598  1.1546
  799MOL0     C 7793   3.171   6.145   8.740 -0.5671 -0.4214 -0.2794
  799MOL0     C 7794   3.066   6.111   8.689 -0.0664  0.8207 -0.5062
  799MOL0     C 7795   3.437   5.824   8.300  0.6232 -0.4558 -0.3287
  799MOL0     C 7796   3.481   5.727   8.206  0.4359  0.3220 -0.4469
  799MOL0     C 7797   3.397   5.606   8.174 -0.0973  0.7547 -1.2278
  799MOL0     H 7798   3.634   5.392   7.998  1.1844  2.7099  0.7266
  799MOL0     H 7799   3.706   5.239   7.802  2.9765 -1.0191 -2.3327
  799MOL0     H 7800   4.031   5.003   7.750 -0.1451 -1.6009  0.2844
  799MOL0     H 7801   3.892   5.058   7.830  2.1602  3.3554  1.9214
  799MOL0     H 7802   3.903   5.107   7.532 -3.5174  1.8616  1.1621
  799MOL0     H 7803   3.767   5.077   7.626  1.0999  4.5706  2.1132
  799MOL0     H 7804   3.810   4.871   7.494  1.6386 -0.4096 -1.3441
  799MOL0     H 7805   3.838   4.846   7.675 -0.8415  2.7805  1.5692
  799MOL0     H 7806   4.041   4.916   7.457  0.5133 -1.4204 -2.2778
  799MOL0     H 7807   4.084   4.834   7.613  1.6213 -4.4476 -1.7327
  799MOL0     H 7808   3.952   4.635   7.525  0.1781 -1.7586 -0.0163
  799MOL0     H 7809   3.930   4.701   7.381  2.0368 -0.5536 -0.8883
  799MOL0     H 7810   4.228   4.674   7.462 -0.1927  0.3489 -0.2469
  799MOL0     H 7811   4.136   4.560   7.366  0.8841 -0.2497  0.7200
  799MOL0     H 7812   4.182   4.847   7.288  0.2453  0.2959 -1.1731
  799MOL0     H 7813   4.085   4.713   7.201  1.4156  0.2491 -1.6646
  799MOL0     H 7814   4.315   4.769   7.118 -0.2175 -0.0918  0.2690
  799MOL0     H 7815   4.377   4.685   7.263  0.9323  0.1678 -0.7960
  799MOL0     H 7816   4.342   4.420   7.239 -1.0262 -2.9168 -0.1841
  799MOL0     H 7817   4.362   4.223   6.947  0.6281 -1.4278  0.9075
  799MOL0     H 7818   4.345   4.219   7.122  0.0213  2.6520  0.4750
  799MOL0     H 7819   4.193   4.039   7.066 -3.2846 -0.9485  0.4865
  799MOL0     H 7820   4.077   4.167   7.069 -0.7464  1.5819 -1.9697
  799MOL0     H 7821   4.183   4.173   6.806  1.8404 -0.7594 -1.4925
  799MOL0     H 7822   4.022   4.118   6.847 -0.6540 -3.1987  0.5916
  799MOL0     H 7823   4.144   3.921   6.728  0.9095  0.2522 -0.0873
  799MOL0     H 7824   4.100   3.892   6.896  0.3666 -0.6611  0.6594
  799MOL0     H 7825   4.237   3.695   6.718  0.3526 -1.4051 -1.3033
  799MOL0     H 7826   4.395   3.568   6.617  1.1009 -1.7867  0.4464
  799MOL0     H 7827   4.615   3.665   6.231  0.9002 -0.7934 -0.7374
  799MOL0     H 7828   4.791   3.662   6.070 -1.6153 -0.3384 -0.0046
  799MOL0     H 7829   5.021   3.703   6.080  0.3792 -0.7310  1.7041
  799MOL0     H 7830   5.152   3.585   6.125 -0.0840 -3.5908  0.2228
  799MOL0     H 7831   5.061   3.625   5.832  0.4601  0.3299 -0.7547
  799MOL0     H 7832   5.205   3.692   5.918  1.5096 -1.7151  0.7362
  799MOL0     H 7833   5.286   3.477   5.961  0.4757 -1.8641 -0.2906
  799MOL0     H 7834   5.151   3.396   5.888  1.4293 -1.0259  1.6807
  799MOL0     H 7835   5.360   3.575   5.753  1.9573 -1.6023  0.3761
  799MOL0     H 7836   5.216   3.506   5.670 -0.6697 -1.5218  0.7443
  799MOL0     H 7837   5.377   3.316   5.818  2.6271  2.1004  1.2766
  799MOL0     H 7838   5.465   3.389   5.708  0.3824 -1.0021  1.9321
  799MOL0     H 7839   5.348   3.171   5.630  0.5742 -0.5645  1.7369
  799MOL0     H 7840   5.190   3.242   5.679  0.5504  0.1104  0.6020
  799MOL0     H 7841   5.255   3.425   5.466  0.8958 -0.1830 -1.1821
  799MOL0     H 7842   5.217   3.262   5.434 -0.9001 -1.7604  1.9693
  799MOL0     H 7843   5.429   3.398   5.346 -0.4653  0.8831  1.4217
  799MOL0     H 7844   5.511   3.351   5.489 -1.0164  0.8317  1.4806
  799MOL0     H 7845   4.996   3.358   6.301  0.8142  1.1242 -1.8812
  799MOL0     H 7846   4.844   3.402   6.491  0.0696  1.7127  1.2316
  799MOL0     H 7847   4.716   3.829   6.768  0.5119 -0.5772  1.1556
  799MOL0     H 7848   4.537   3.970   6.863 -0.5534 -0.1499 -0.4702
  799MOL0     H 7849   4.114   5.373   7.887 -1.2792 -2.8257 -0.0174
  799MOL0     H 7850   4.024   5.563   8.023 -0.9061  1.6864  0.3780
  799MOL0     H 7851   3.784   5.844   8.152  0.9524 -0.3342  2.0368
  799MOL0     H 7852   3.715   6.015   8.328 -0.3015 -0.3373  1.0889
  799MOL0     H 7853   3.589   6.174   8.435  3.1441 -2.7376 -0.6460
  799MOL0     H 7854   3.638   6.052   8.551 -0.1453 -1.4997 -0.7303
  799MOL0     H 7855   3.381   6.236   8.575 -1.1720  0.8959  2.6859
  799MOL0     H 7856   3.538   6.250   8.660  1.0011 -0.7798  0.7389
  799MOL0     H 7857   3.489   6.059   8.793 -2.2069 -0.5769  2.1585
  799MOL0     H 7858   3.361   5.993   8.692 -3.2961 -0.5366  2.8212
  799MOL0     H 7859   3.300   6.146   8.903  0.4735  3.4192  1.7655
  799MOL0     H 7860   3.336   6.279   8.797 -1.2666  1.8326  2.7457
  799MOL0     H 7861   2.971   6.096   8.643  0.5193  0.4795 -1.6325
  799MOL0     H 7862   3.334   5.811   8.332 -0.0945 -0.7105 -2.5815
  799MOL0     H 7863   3.304   5.611   8.230 -1.6856 -2.6872 -3.2148
  799MOL0     H 7864   3.371   5.597   8.068  0.5097 -2.6609 -1.1997
  799MOL0     H 7865   3.440   5.514   8.213 -0.8071  1.6307  1.8238
  800MOL0     O 7866  10.500   0.589  10.872  0.4697 -0.0756 -0.3860
  800MOL0     C 7867  10.480   0.613  10.990 -0.2083 -0.6547 -0.0485
  800MOL0     O 7868  10.354   0.645  11.047 -0.7524 -0.3854 -0.2641
  800MOL0     C 7869  10.240   0.612  10.991  0.1885  0.5662 -1.1402
  800MOL0     C 7870  10.148   0.715  10.961 -0.9079 -0.4918  1.1422
  800MOL0     C 7871  10.019   0.683  10.911 -0.3078  0.2607  0.6270
  800MOL0     C 7872   9.987   0.546  10.890 -0.1922  0.2959 -0.7116
  800MOL0     O 7873   9.863   0.526  10.839  0.0676  0.4010 -0.3568
  800MOL0     C 7874   9.805   0.393  10.840  0.0370 -0.3520 -0.4841
  800MOL0     C 7875   9.669   0.398  10.764 -0.9906 -0.0167  1.3918
  800MOL0     C 7876   9.595   0.526  10.779  0.0412 -0.6128  0.4676
  800MOL0     C 7877   9.458   0.523  10.733 -0.2509 -0.1709 -0.0605
  800MOL0     C 7878   9.372   0.651  10.744  0.1426  0.0516 -0.2133
  800MOL0     C 7879   9.227   0.650  10.707 -0.4593  0.3443  0.9093
  800MOL0     C 7880   9.207   0.595  10.559  0.2666 -1.0566 -0.1344
  800MOL0     C 7881   9.286   0.682  10.454 -0.2038 -0.1671  0.3773
  800MOL0     N 7882   9.254   0.621  10.321 -0.4503 -0.5360 -0.2260
  800MOL0     C 7883   9.172   0.672  10.232 -0.6974  0.8529  0.2691
  800MOL0     C 7884   9.174   0.584  10.123  0.8912  0.0918  0.1207
  800MOL0     C 7885   9.130   0.612   9.983 -0.6843 -1.2321 -1.0327
  800MOL0     C 7886   8.996   0.689   9.976  0.4264  0.1892 -0.4194
  800MOL0     C 7887   8.979   0.758   9.847 -0.2958  0.0748  0.2081
  800MOL0     C 7888   8.863   0.851   9.840  0.4738  0.8677 -0.1217
  800MOL0     O 7889   8.827   0.877   9.707 -0.3012 -0.1584 -0.1646
  800MOL0     C 7890   8.724   0.958   9.670 -0.4699  0.9781  0.5644
  800MOL0     C 7891   8.706   0.962   9.536  0.4284 -0.6366  0.6751
  800MOL0     C 7892   8.588   1.016   9.486  1.3235 -0.3207 -0.7223
  800MOL0     C 7893   8.488   1.072   9.569  0.9447 -0.5381 -0.1216
  800MOL0     C 7894   8.366   1.144   9.518 -0.2006  0.0811  0.4285
  800MOL0     O 7895   8.319   1.252   9.591  0.4902 -0.5877 -0.6984
  800MOL0     C 7896   8.199   1.315   9.564  0.9332 -0.3659  0.3102
  800MOL0     C 7897   8.081   1.233   9.555 -0.0494  0.3039  0.1489
  800MOL0     C 7898   7.948   1.285   9.546 -0.5849 -0.0040 -0.2711
  800MOL0     C 7899   7.936   1.430   9.548  0.4362 -0.1841  0.3420
  800MOL0     O 7900   7.820   1.501   9.552 -0.6761 -0.0977  0.3576
  800MOL0     C 7901   7.713   1.434   9.622  1.1258 -0.0511 -0.1795
  800MOL0     C 7902   7.606   1.550   9.629 -0.8507 -0.1941  0.0906
  800MOL0     C 7903   7.497   1.533   9.730 -0.1252 -0.9642  0.7112
  800MOL0     C 7904   7.399   1.645   9.702 -0.4824 -0.2517 -0.3509
  800MOL0     C 7905   7.320   1.689   9.821  0.3896 -0.6026  0.0279
  800MOL0     C 7906   7.256   1.821   9.783  0.3604 -0.7109  0.7636
  800MOL0     C 7907   7.156   1.866   9.893 -0.1009  0.5780 -0.3819
  800MOL0     C 7908   7.215   1.847  10.034 -0.4664 -0.1720  0.0709
  800MOL0    Cl 7909   7.090   1.903  10.148 -0.4562  0.2463 -0.7464
  800MOL0     C 7910   8.051   1.506   9.555 -0.4333  0.0309 -0.7734
  800MOL0     C 7911   8.181   1.454   9.561 -0.5173  0.7276 -1.2761
  800MOL0     O 7912   8.325   1.108   9.410 -0.5768  0.3118 -0.5391
  800MOL0     C 7913   8.518   1.065   9.709  0.9686 -1.1494  0.3927
  800MOL0     C 7914   8.630   1.007   9.760 -0.2996 -0.4252 -0.4828
  800MOL0     N 7915   9.248   0.473  10.158 -0.9613  0.7905  0.2661
  800MOL0     N 7916   9.303   0.496  10.273 -0.1094 -1.2941 -0.8500
  800MOL0     C 7917  10.087   0.442  10.925  0.4736  0.0505  0.1508
  800MOL0     C 7918  10.213   0.475  10.973 -0.6112 -0.1909 -0.1240
  800MOL0     C 7919  10.592   0.618  11.072 -0.7112 -0.5792 -0.1934
  800MOL0     C 7920  10.702   0.694  11.024  0.0789  0.8401  1.0397
  800MOL0     C 7921  10.816   0.707  11.103 -1.0151 -0.3813  0.7162
  800MOL0     C 7922  10.828   0.647  11.224  0.7816  0.5021  0.3910
  800MOL0     O 7923  10.947   0.646  11.299  0.8899 -0.5658 -0.4018
  800MOL0     C 7924  11.057   0.727  11.267 -0.5365  0.2584 -0.5645
  800MOL0     C 7925  11.166   0.706  11.374  0.5859 -0.2235  0.0566
  800MOL0     C 7926  11.238   0.569  11.364  0.1458  1.4023 -0.7390
  800MOL0     C 7927  11.327   0.539  11.482  0.2027 -0.6045  0.5264
  800MOL0     C 7928  11.369   0.399  11.502  0.9774 -0.0891 -0.7804
  800MOL0     C 7929  11.399   0.281  11.515  0.0233  0.1315 -0.6049
  800MOL0     C 7930  10.712   0.588  11.273 -0.5883  0.2628 -1.1167
  800MOL0     C 7931  10.593   0.570  11.200 -0.1118  0.1973  0.4695
  800MOL0     C 7932  10.478   0.492  11.276 -0.7951  0.5190 -0.0213
  800MOL0     H 7933  10.173   0.820  10.968  2.7715 -1.1389 -0.1165
  800MOL0     H 7934   9.932   0.746  10.896 -0.4249 -0.3667 -1.7631
  800MOL0     H 7935   9.867   0.317  10.792  0.7373 -0.0589 -0.0722
  800MOL0     H 7936   9.779   0.356  10.940 -0.2963 -1.2027 -0.8809
  800MOL0     H 7937   9.611   0.321  10.814 -0.7924 -2.4106 -1.7585
  800MOL0     H 7938   9.689   0.372  10.660  1.6444  1.5268  1.4079
  800MOL0     H 7939   9.643   0.610  10.728 -0.5084 -1.2871 -1.2358
  800MOL0     H 7940   9.600   0.543  10.887  1.0304 -0.9226  0.4829
  800MOL0     H 7941   9.450   0.513  10.624 -2.2220  0.9029 -0.0609
  800MOL0     H 7942   9.407   0.441  10.785  0.5028 -1.2940 -1.0328
  800MOL0     H 7943   9.371   0.672  10.852  2.6206  0.4908 -0.2147
  800MOL0     H 7944   9.426   0.738  10.705 -0.7822  0.3000 -0.9602
  800MOL0     H 7945   9.180   0.578  10.774 -1.4098  0.1473  0.0590
  800MOL0     H 7946   9.188   0.751  10.721 -0.0993  0.3993  1.5277
  800MOL0     H 7947   9.102   0.599  10.529  0.8513 -2.4832 -2.6897
  800MOL0     H 7948   9.245   0.494  10.545  3.6069 -0.3613  2.5080
  800MOL0     H 7949   9.246   0.783  10.468 -2.6057 -0.9931  0.0905
  800MOL0     H 7950   9.392   0.676  10.480 -0.0070 -3.9791 -0.6003
  800MOL0     H 7951   9.108   0.759  10.244 -0.1387  1.0587  2.0920
  800MOL0     H 7952   9.211   0.680   9.955 -1.0424  0.2213  1.1530
  800MOL0     H 7953   9.142   0.523   9.921  0.1140  0.6575 -3.7706
  800MOL0     H 7954   8.915   0.617   9.989  0.5593  0.0042 -0.6164
  800MOL0     H 7955   8.986   0.764  10.055 -4.0179 -1.7557  1.2130
  800MOL0     H 7956   8.966   0.683   9.768  1.5079  1.4251 -1.4666
  800MOL0     H 7957   9.065   0.820   9.821 -2.3105  1.6120 -3.7087
  800MOL0     H 7958   8.878   0.942   9.899 -1.0262  0.7122  0.5560
  800MOL0     H 7959   8.778   0.794   9.880 -2.2859  1.0283 -4.9839
  800MOL0     H 7960   8.771   0.925   9.457  0.3209  0.1890  0.1861
  800MOL0     H 7961   8.575   1.027   9.379  2.2246 -0.7542 -0.8929
  800MOL0     H 7962   8.106   1.128   9.565 -0.5453  0.1419 -0.2637
  800MOL0     H 7963   7.873   1.206   9.541 -1.3988  0.6938  0.6139
  800MOL0     H 7964   7.676   1.348   9.566 -2.4370 -0.3272  2.2151
  800MOL0     H 7965   7.756   1.404   9.718 -0.4162 -3.3370 -0.3702
  800MOL0     H 7966   7.664   1.638   9.656 -0.5282  0.7884 -3.3947
  800MOL0     H 7967   7.564   1.562   9.529 -0.8518  2.5077  0.3389
  800MOL0     H 7968   7.449   1.435   9.716  1.0978 -1.5033  0.1446
  800MOL0     H 7969   7.548   1.547   9.826 -0.4820  4.3179  0.4042
  800MOL0     H 7970   7.335   1.616   9.618 -0.1406 -0.7596 -0.4440
  800MOL0     H 7971   7.459   1.728   9.664 -1.1189  0.8077  0.8816
  800MOL0     H 7972   7.382   1.705   9.910  0.8005 -0.0789 -0.3435
  800MOL0     H 7973   7.241   1.616   9.838 -1.4403  0.9895 -1.1431
  800MOL0     H 7974   7.339   1.891   9.769 -0.3587 -0.2590 -1.7229
  800MOL0     H 7975   7.204   1.826   9.687  1.2117 -0.5008  0.3079
  800MOL0     H 7976   7.072   1.798   9.876  0.2588 -0.7371  2.6127
  800MOL0     H 7977   7.105   1.960   9.872 -0.9616  0.3718  0.7113
  800MOL0     H 7978   7.244   1.743  10.054 -1.0050 -0.2176  0.6619
  800MOL0     H 7979   7.297   1.918  10.045 -0.8573  1.0785 -3.7693
  800MOL0     H 7980   8.031   1.612   9.554  1.0452  0.3308 -0.3304
  800MOL0     H 7981   8.271   1.514   9.552  1.2730 -1.3657  1.1806
  800MOL0     H 7982   8.446   1.110   9.776 -0.2474 -2.4052 -0.0124
  800MOL0     H 7983   8.645   0.991   9.866  0.9956 -0.9572 -0.7349
  800MOL0     H 7984  10.078   0.336  10.906  0.9950  0.1922 -0.9650
  800MOL0     H 7985  10.283   0.398  11.004 -0.2677  0.4981  0.8586
  800MOL0     H 7986  10.702   0.747  10.930  0.1782  1.9176  1.6284
  800MOL0     H 7987  10.889   0.767  11.050  0.1956 -2.6557 -0.3019
  800MOL0     H 7988  11.030   0.833  11.259  3.4709  1.3260 -2.8115
  800MOL0     H 7989  11.087   0.698  11.166 -0.2371 -4.0529  0.5616
  800MOL0     H 7990  11.121   0.707  11.474  1.4881  0.1433  0.4711
  800MOL0     H 7991  11.239   0.787  11.370 -1.3142  1.5900  0.4683
  800MOL0     H 7992  11.302   0.560  11.275 -1.3513 -0.2866 -1.6908
  800MOL0     H 7993  11.164   0.490  11.356  0.4759  1.2788 -3.5536
  800MOL0     H 7994  11.419   0.598  11.474 -0.2076 -0.0924 -0.5951
  800MOL0     H 7995  11.269   0.558  11.572  1.4720  1.0407  1.0440
  800MOL0     H 7996  11.433   0.184  11.483  0.9561  1.0739 -2.6302
  800MOL0     H 7997  10.727   0.559  11.376 -0.9076 -2.0847 -1.6728
  800MOL0     H 7998  10.478   0.387  11.246 -0.6962  1.7513 -5.4989
  800MOL0     H 7999  10.492   0.507  11.383  0.4976  1.1473 -0.2585
  800MOL0     H 8000  10.378   0.532  11.259 -1.2587  0.4210  2.1950
  801MOL0     O 8001   0.951   8.048   2.265 -0.2239  0.0519  0.5803
  801MOL0     C 8002   1.005   8.041   2.149  0.1463  0.0940 -0.4915
  801MOL0     O 8003   1.131   7.986   2.128  0.2943 -0.3423 -0.6784
  801MOL0     C 8004   1.220   7.989   2.235  0.1417  0.1695 -0.3255
  801MOL0     C 8005   1.308   8.100   2.242  1.2745  0.8131  0.1290
  801MOL0     C 8006   1.391   8.100   2.363  0.4532 -1.1225  0.2890
  801MOL0     C 8007   1.409   7.997   2.452  0.0544  0.1857  0.1063
  801MOL0     O 8008   1.491   8.010   2.562 -0.4992 -0.6209  0.3085
  801MOL0     C 8009   1.521   7.901   2.651  0.8117 -0.4129 -0.0147
  801MOL0     C 8010   1.632   7.946   2.753 -0.1211  0.2980  0.9097
  801MOL0     C 8011   1.585   8.063   2.843 -0.3075  0.4997 -0.1693
  801MOL0     C 8012   1.708   8.131   2.907 -0.5254  0.4330 -0.9269
  801MOL0     C 8013   1.644   8.244   3.011 -0.4339 -0.1346 -0.5453
  801MOL0     C 8014   1.732   8.353   3.060 -0.5177 -0.0624  0.1969
  801MOL0     C 8015   1.801   8.335   3.195  0.1701 -0.2198 -0.4890
  801MOL0     C 8016   1.888   8.204   3.209 -0.6914  0.4572  0.0831
  801MOL0     N 8017   2.003   8.199   3.109  0.3748 -0.4131  0.7426
  801MOL0     C 8018   2.111   8.291   3.133  0.4546  1.0398 -1.1718
  801MOL0     C 8019   2.187   8.280   3.028 -0.3768  0.0884  0.0671
  801MOL0     C 8020   2.314   8.349   2.996  0.0959  0.1529 -0.0173
  801MOL0     C 8021   2.423   8.287   3.076  0.6179  0.2927  0.3386
  801MOL0     C 8022   2.454   8.394   3.182  0.1609 -0.5766 -0.1585
  801MOL0     C 8023   2.563   8.339   3.277 -0.1304  0.0461 -0.1489
  801MOL0     O 8024   2.688   8.294   3.205  0.0696 -0.5107 -0.0977
  801MOL0     C 8025   2.776   8.227   3.289 -0.9656  0.6667 -0.1281
  801MOL0     C 8026   2.875   8.162   3.215  0.1743  0.1074 -1.2440
  801MOL0     C 8027   2.980   8.106   3.276  0.5979  0.1498 -0.5816
  801MOL0     C 8028   2.987   8.082   3.412 -0.0923 -0.7670  0.6638
  801MOL0     C 8029   3.084   7.993   3.470 -0.1082  0.7382 -0.2075
  801MOL0     O 8030   3.057   7.959   3.600 -0.2354 -1.1200  0.6748
  801MOL0     C 8031   3.125   7.862   3.673 -0.7064 -0.8353 -0.5208
  801MOL0     C 8032   3.255   7.806   3.665 -0.5875 -0.5958 -0.1272
  801MOL0     C 8033   3.302   7.711   3.757  0.9030 -0.0097 -0.7102
  801MOL0     C 8034   3.234   7.666   3.869  0.2309 -0.3012 -0.9150
  801MOL0     O 8035   3.297   7.589   3.958 -0.3808  0.5511  0.0617
  801MOL0     C 8036   3.252   7.578   4.094  1.0216 -0.5999  0.0268
  801MOL0     C 8037   3.171   7.453   4.111  0.5460  0.1772 -0.0590
  801MOL0     C 8038   3.158   7.402   4.255 -0.3204 -0.6108  0.4473
  801MOL0     C 8039   3.053   7.298   4.268  0.1296 -0.4397  0.8583
  801MOL0     C 8040   3.029   7.231   4.403  0.2156  0.5971 -0.4654
  801MOL0     C 8041   2.909   7.137   4.399 -0.3151 -0.3499  0.2017
  801MOL0     C 8042   2.897   7.046   4.517 -0.2845  0.2098  0.5627
  801MOL0     C 8043   2.785   7.104   4.612 -0.4747  0.2130 -0.2225
  801MOL0    Cl 8044   2.879   7.146   4.758 -0.3419  0.1832 -0.1426
  801MOL0     C 8045   3.099   7.706   3.869 -0.5684 -0.3341 -0.2135
  801MOL0     C 8046   3.052   7.794   3.771  1.1562  0.1060  0.1020
  801MOL0     O 8047   3.182   7.945   3.403 -0.5345 -0.0666 -0.6828
  801MOL0     C 8048   2.889   8.142   3.486  0.2823 -0.4436  0.1818
  801MOL0     C 8049   2.792   8.226   3.433  0.9322 -0.0495 -0.0882
  801MOL0     N 8050   2.129   8.182   2.945  0.4254  0.2519 -0.0966
  801MOL0     N 8051   2.018   8.134   2.998 -0.2874  0.1245  0.7922
  801MOL0     C 8052   1.330   7.879   2.434  0.1589  0.0577  0.2884
  801MOL0     C 8053   1.239   7.872   2.321  0.4323 -0.6289  0.7439
  801MOL0     C 8054   0.917   8.073   2.039 -0.2638 -0.7738  0.6041
  801MOL0     C 8055   0.778   8.110   2.059 -0.7512 -0.0553 -0.5180
  801MOL0     C 8056   0.696   8.158   1.962  1.1141  0.3957  0.1636
  801MOL0     C 8057   0.735   8.152   1.831 -0.4785 -0.9120  1.0482
  801MOL0     O 8058   0.657   8.175   1.722  0.3454  0.2486  0.1116
  801MOL0     C 8059   0.542   8.253   1.713  0.7135 -0.0800  0.6062
  801MOL0     C 8060   0.534   8.292   1.573 -0.2686 -0.2841  0.3843
  801MOL0     C 8061   0.475   8.181   1.478 -0.4428  1.0818  0.5176
  801MOL0     C 8062   0.444   8.229   1.345  0.5083  0.1387  1.0232
  801MOL0     C 8063   0.313   8.297   1.364 -0.1226  0.3087 -1.1568
  801MOL0     C 8064   0.211   8.356   1.390  0.4489  1.3216  0.3874
  801MOL0     C 8065   0.857   8.112   1.796  0.5128  0.5283  0.9715
  801MOL0     C 8066   0.947   8.061   1.901  0.7307 -1.0009  0.2510
  801MOL0     C 8067   1.097   8.058   1.860  0.0629 -0.4078  0.4323
  801MOL0     H 8068   1.302   8.178   2.167  0.2027  1.6774  1.0782
  801MOL0     H 8069   1.450   8.182   2.403 -0.4244 -0.8684  1.1058
  801MOL0     H 8070   1.430   7.872   2.704 -0.4507  0.8419 -1.3999
  801MOL0     H 8071   1.562   7.815   2.597  0.6854 -0.2779 -0.3283
  801MOL0     H 8072   1.713   7.986   2.692  2.3521 -3.8506  1.0651
  801MOL0     H 8073   1.679   7.863   2.807  0.4401  0.4036  0.5893
  801MOL0     H 8074   1.515   8.020   2.915 -2.4406 -3.5388 -4.1621
  801MOL0     H 8075   1.537   8.140   2.781 -0.9175  0.1657 -0.1166
  801MOL0     H 8076   1.765   8.056   2.964  2.7893 -0.3733 -4.8472
  801MOL0     H 8077   1.787   8.157   2.836  4.4719 -0.8412  3.5029
  801MOL0     H 8078   1.570   8.295   2.950 -0.1125 -0.5735 -1.3206
  801MOL0     H 8079   1.595   8.199   3.098 -1.0651 -3.6857 -2.5287
  801MOL0     H 8080   1.810   8.374   2.987 -1.3228  0.3983 -0.5453
  801MOL0     H 8081   1.664   8.438   3.068  0.5280  0.9477 -1.2329
  801MOL0     H 8082   1.727   8.319   3.274  0.5570 -1.7725 -0.4073
  801MOL0     H 8083   1.858   8.426   3.219 -1.9483  1.1895 -0.5635
  801MOL0     H 8084   1.932   8.192   3.308 -0.4326 -0.2928 -0.1209
  801MOL0     H 8085   1.825   8.117   3.187 -0.2907  0.0834  0.3938
  801MOL0     H 8086   2.120   8.364   3.213 -1.8843  2.9480 -2.5170
  801MOL0     H 8087   2.330   8.343   2.888 -0.8376 -0.5780 -0.1192
  801MOL0     H 8088   2.308   8.456   3.018 -3.1943 -0.1488  0.9798
  801MOL0     H 8089   2.399   8.196   3.132  2.6322  0.0516  0.8565
  801MOL0     H 8090   2.510   8.263   3.016 -0.2310 -2.2936  0.0154
  801MOL0     H 8091   2.363   8.414   3.239  0.8626  2.1273  0.1466
  801MOL0     H 8092   2.479   8.491   3.139 -1.7182 -0.1756 -0.4280
  801MOL0     H 8093   2.514   8.254   3.325 -0.6244  0.5594  0.2811
  801MOL0     H 8094   2.582   8.412   3.356 -0.6046 -0.2164  0.2223
  801MOL0     H 8095   2.860   8.161   3.108 -1.2324 -1.4897 -1.0724
  801MOL0     H 8096   3.057   8.074   3.207 -0.8680  0.2859 -2.3515
  801MOL0     H 8097   3.317   7.832   3.580  2.0353 -1.7672  1.3073
  801MOL0     H 8098   3.407   7.685   3.743  0.9056  0.0074 -0.7218
  801MOL0     H 8099   3.331   7.578   4.169 -0.0327  2.2103  1.2819
  801MOL0     H 8100   3.192   7.663   4.127 -2.1198 -2.7679  0.2786
  801MOL0     H 8101   3.072   7.476   4.069  0.8502 -1.1304 -1.6065
  801MOL0     H 8102   3.217   7.376   4.049  0.4318  0.4326 -0.4699
  801MOL0     H 8103   3.253   7.368   4.298  0.6867  0.5446 -0.7573
  801MOL0     H 8104   3.110   7.483   4.310  3.2717  2.1404 -0.0729
  801MOL0     H 8105   3.068   7.223   4.190  1.7291  2.3493 -1.7295
  801MOL0     H 8106   2.959   7.348   4.244 -0.4859 -1.8369  0.2276
  801MOL0     H 8107   3.029   7.305   4.484  1.6783  1.5645 -1.3020
  801MOL0     H 8108   3.114   7.164   4.415  0.8685  1.5986  0.7263
  801MOL0     H 8109   2.819   7.198   4.390  0.2593  1.4594  4.5572
  801MOL0     H 8110   2.910   7.074   4.309 -1.5865 -0.0884 -0.0153
  801MOL0     H 8111   2.989   7.026   4.574 -0.7217 -1.3826  0.7454
  801MOL0     H 8112   2.880   6.946   4.475  4.9688 -1.2783  1.1648
  801MOL0     H 8113   2.738   7.195   4.573 -2.3559 -0.0090  1.4083
  801MOL0     H 8114   2.709   7.026   4.614 -1.8347  1.1636 -4.2899
  801MOL0     H 8115   3.025   7.686   3.946  0.2329  1.3145  1.0406
  801MOL0     H 8116   2.945   7.810   3.768  1.2896  0.8806 -0.7808
  801MOL0     H 8117   2.899   8.139   3.594 -2.3690  2.4560  0.6768
  801MOL0     H 8118   2.722   8.283   3.495  1.6880  0.6161  0.1719
  801MOL0     H 8119   1.331   7.801   2.509 -2.1835  0.7346  1.0880
  801MOL0     H 8120   1.175   7.785   2.308  0.2688 -0.2830 -1.0921
  801MOL0     H 8121   0.736   8.118   2.159  1.2023 -0.8175  0.4073
  801MOL0     H 8122   0.598   8.193   1.990  0.6750  1.4756 -2.3999
  801MOL0     H 8123   0.544   8.344   1.773 -2.6061  1.4135 -1.2281
  801MOL0     H 8124   0.461   8.188   1.746 -0.4394  2.3822  3.0912
  801MOL0     H 8125   0.629   8.332   1.536 -0.5450 -0.9470 -1.0931
  801MOL0     H 8126   0.470   8.381   1.564  1.4323  0.7789 -2.9092
  801MOL0     H 8127   0.391   8.132   1.528 -0.6868  0.4506 -0.4932
  801MOL0     H 8128   0.551   8.105   1.459 -1.2262 -0.1480  2.0779
  801MOL0     H 8129   0.525   8.288   1.300  1.5894 -1.0782  1.3227
  801MOL0     H 8130   0.436   8.140   1.283  1.3683 -0.8070  2.2056
  801MOL0     H 8131   0.118   8.405   1.408  0.6203  1.0162  2.2842
  801MOL0     H 8132   0.891   8.094   1.694  1.8992  1.4203  1.2568
  801MOL0     H 8133   1.136   7.956   1.862  2.5159  0.4708  1.3586
  801MOL0     H 8134   1.109   8.100   1.759  2.0139 -2.1122 -0.1098
  801MOL0     H 8135   1.154   8.120   1.929 -1.5273  0.2225  1.2247
  802MOL0     O 8136   4.214   5.811   6.601  0.4145  0.9201  0.0937
  802MOL0     C 8137   4.194   5.924   6.644 -0.4935  0.2051  0.4278
  802MOL0     O 8138   4.279   5.992   6.720  0.2040  0.2813 -0.0123
  802MOL0     C 8139   4.387   5.925   6.763  0.9605 -0.9513  1.2903
  802MOL0     C 8140   4.511   5.986   6.725  0.4992  0.1850  0.6773
  802MOL0     C 8141   4.625   5.917   6.748 -0.3778 -0.0866  0.2684
  802MOL0     C 8142   4.623   5.812   6.837  1.0359 -0.1190  0.2679
  802MOL0     O 8143   4.735   5.742   6.875  0.2367 -0.3040 -0.0030
  802MOL0     C 8144   4.809   5.681   6.766  0.2590  0.0245 -0.5811
  802MOL0     C 8145   4.941   5.627   6.817 -0.3701  0.0360  0.1187
  802MOL0     C 8146   5.033   5.740   6.866 -0.0732 -1.2021  0.0064
  802MOL0     C 8147   5.162   5.675   6.926  0.1918  0.5385 -0.3738
  802MOL0     C 8148   5.259   5.785   6.982  0.1400 -1.0945 -0.2664
  802MOL0     C 8149   5.385   5.744   7.041  0.0179  0.0318  0.2373
  802MOL0     C 8150   5.487   5.669   6.956  0.1468  0.7463 -0.1938
  802MOL0     C 8151   5.593   5.590   7.032  0.2671 -0.7214 -0.2526
  802MOL0     N 8152   5.673   5.675   7.118  0.6189  0.0817 -0.3616
  802MOL0     C 8153   5.682   5.654   7.253 -0.5835 -0.4824  0.1152
  802MOL0     C 8154   5.775   5.745   7.294 -0.7124 -0.0442 -0.4682
  802MOL0     C 8155   5.825   5.742   7.437 -0.0725  0.1853  0.3013
  802MOL0     C 8156   5.908   5.615   7.471 -0.4917  0.0725  0.4052
  802MOL0     C 8157   5.970   5.602   7.619 -0.1439 -0.1274  0.2675
  802MOL0     C 8158   6.089   5.501   7.626 -0.2340 -0.1071  0.0912
  802MOL0     O 8159   6.043   5.372   7.587 -0.0328  0.1401 -0.0125
  802MOL0     C 8160   6.141   5.292   7.543 -0.5338 -0.3439  1.1759
  802MOL0     C 8161   6.253   5.257   7.616  0.4962  0.7246  0.4618
  802MOL0     C 8162   6.337   5.150   7.568  0.8200  0.3595  0.3710
  802MOL0     C 8163   6.306   5.080   7.447 -0.0245 -0.0247 -0.2120
  802MOL0     C 8164   6.379   4.959   7.404 -0.6001 -0.1101 -0.6681
  802MOL0     O 8165   6.460   4.907   7.500  0.1051 -0.6358  0.1701
  802MOL0     C 8166   6.522   4.789   7.456 -0.5633 -0.4945 -0.9786
  802MOL0     C 8167   6.488   4.668   7.512  0.3264 -0.2999  0.6208
  802MOL0     C 8168   6.562   4.553   7.497 -0.9342 -0.3066 -0.2448
  802MOL0     C 8169   6.683   4.562   7.419 -0.7253 -1.1689  0.2051
  802MOL0     O 8170   6.757   4.454   7.393 -0.0443  0.6479  0.8410
  802MOL0     C 8171   6.693   4.325   7.370  0.0110 -0.3524 -0.1858
  802MOL0     C 8172   6.796   4.216   7.326  0.0501 -0.3781 -0.8132
  802MOL0     C 8173   6.733   4.085   7.281 -1.0897  1.0609 -0.2025
  802MOL0     C 8174   6.836   3.974   7.247  0.3566  0.8320  0.1387
  802MOL0     C 8175   6.886   3.910   7.377 -0.1994  0.5052 -0.2341
  802MOL0     C 8176   7.007   3.827   7.357 -0.6839  0.0070 -0.2439
  802MOL0     C 8177   6.974   3.693   7.280 -0.5357 -0.1063  0.3575
  802MOL0     C 8178   6.921   3.579   7.357 -0.0757  0.2232 -1.1655
  802MOL0    Cl 8179   6.867   3.438   7.249  0.0183  0.0287  0.1738
  802MOL0     C 8180   6.717   4.680   7.356  0.0378 -0.4695 -0.2393
  802MOL0     C 8181   6.640   4.794   7.385  0.0953  0.5516  0.3524
  802MOL0     O 8182   6.375   4.926   7.291 -0.2146  0.5478  0.2362
  802MOL0     C 8183   6.196   5.123   7.367  0.5824 -0.2870  0.0101
  802MOL0     C 8184   6.111   5.224   7.424  0.2293 -0.0914  0.0851
  802MOL0     N 8185   5.826   5.805   7.182 -1.0387 -0.3370  0.2694
  802MOL0     N 8186   5.767   5.765   7.076  0.4161  1.0568 -0.2187
  802MOL0     C 8187   4.503   5.749   6.872  0.3220 -0.6139 -0.1455
  802MOL0     C 8188   4.382   5.808   6.834  0.5783  0.4326 -0.1574
  802MOL0     C 8189   4.073   5.991   6.609 -0.4297 -0.1236  1.0532
  802MOL0     C 8190   4.049   6.046   6.483 -0.0540 -0.1148  0.4248
  802MOL0     C 8191   3.930   6.110   6.463 -0.2403 -0.1482  0.3723
  802MOL0     C 8192   3.831   6.139   6.564  0.4071 -0.6407  0.0414
  802MOL0     O 8193   3.734   6.225   6.527  0.1789 -0.1289  0.4082
  802MOL0     C 8194   3.627   6.245   6.627  0.1439  0.1537  0.0481
  802MOL0     C 8195   3.496   6.245   6.543 -0.5497 -0.0726  2.3955
  802MOL0     C 8196   3.467   6.110   6.479 -0.6312  0.3796 -0.4485
  802MOL0     C 8197   3.341   6.114   6.392 -0.1346  0.5832  0.5327
  802MOL0     C 8198   3.225   6.138   6.488  0.3521 -0.5081 -0.0256
  802MOL0     C 8199   3.134   6.149   6.569 -0.2547 -0.3032  0.0358
  802MOL0     C 8200   3.865   6.085   6.693 -0.2427 -0.4646  0.7701
  802MOL0     C 8201   3.976   6.013   6.718 -0.3036 -0.5232  0.7521
  802MOL0     C 8202   4.005   5.939   6.837  0.1734 -0.0192 -0.9381
  802MOL0     H 8203   4.499   6.078   6.669  3.1104 -0.2016 -0.7145
  802MOL0     H 8204   4.721   5.965   6.738  0.4387 -2.0125 -2.1822
  802MOL0     H 8205   4.754   5.595   6.727 -0.1338 -0.4186  0.8963
  802MOL0     H 8206   4.825   5.754   6.686 -0.7466  1.8711  0.8343
  802MOL0     H 8207   5.003   5.576   6.743  0.7078  1.2016  0.1854
  802MOL0     H 8208   4.913   5.559   6.898  1.3410 -1.4702 -0.4731
  802MOL0     H 8209   4.976   5.803   6.935  0.8028  1.9859 -1.9592
  802MOL0     H 8210   5.063   5.804   6.783  0.3357 -0.5306  0.6545
  802MOL0     H 8211   5.143   5.599   7.002 -1.0298  2.1359  1.0102
  802MOL0     H 8212   5.215   5.626   6.845  1.9572 -2.4109  2.3382
  802MOL0     H 8213   5.297   5.834   6.893  3.1757 -0.7043  1.1244
  802MOL0     H 8214   5.211   5.859   7.047  3.2024  1.0023 -0.2098
  802MOL0     H 8215   5.442   5.828   7.081  0.2052  0.4942 -0.9592
  802MOL0     H 8216   5.357   5.680   7.125 -3.2215 -1.8803 -2.0670
  802MOL0     H 8217   5.535   5.732   6.881  0.6575  0.6628  0.0617
  802MOL0     H 8218   5.434   5.589   6.904  2.5029 -0.4958 -0.8292
  802MOL0     H 8219   5.554   5.510   7.095 -3.9053  0.4761 -0.9938
  802MOL0     H 8220   5.664   5.542   6.963  1.4856 -2.9100  2.3570
  802MOL0     H 8221   5.633   5.580   7.316 -0.0157  0.9420  2.3240
  802MOL0     H 8222   5.898   5.820   7.460  0.1631  0.0720 -0.0657
  802MOL0     H 8223   5.741   5.761   7.505 -0.4596 -0.6365  0.0614
  802MOL0     H 8224   5.851   5.523   7.455 -0.7303  0.1896  0.5695
  802MOL0     H 8225   5.991   5.609   7.401  0.9318 -1.4878  2.1064
  802MOL0     H 8226   5.893   5.558   7.683  0.1348 -0.3231  0.4726
  802MOL0     H 8227   5.998   5.703   7.651 -1.4291  1.1754 -2.3914
  802MOL0     H 8228   6.132   5.496   7.726  0.4602  2.7957  0.0327
  802MOL0     H 8229   6.162   5.532   7.550 -1.7591 -0.0261 -1.4017
  802MOL0     H 8230   6.270   5.300   7.715  0.0785 -2.3266  1.9586
  802MOL0     H 8231   6.424   5.123   7.627  2.5511  0.7365 -1.8558
  802MOL0     H 8232   6.398   4.659   7.573 -0.6506 -0.8631 -0.8663
  802MOL0     H 8233   6.543   4.457   7.545 -1.8938 -1.0652 -2.0402
  802MOL0     H 8234   6.632   4.290   7.455 -0.6516  2.0598  0.4243
  802MOL0     H 8235   6.630   4.320   7.281  0.3050 -1.4735 -0.3482
  802MOL0     H 8236   6.859   4.263   7.250  2.0501  2.1319  2.1336
  802MOL0     H 8237   6.862   4.206   7.413 -0.0354  0.4348 -0.6388
  802MOL0     H 8238   6.670   4.055   7.365  3.3179  1.1290  3.5965
  802MOL0     H 8239   6.668   4.096   7.194 -0.8626 -2.0565 -0.8678
  802MOL0     H 8240   6.919   4.008   7.184  2.5048 -2.6491  0.7928
  802MOL0     H 8241   6.795   3.901   7.176  0.8200 -0.6199  1.3283
  802MOL0     H 8242   6.799   3.853   7.410 -0.7893  1.1255 -0.6898
  802MOL0     H 8243   6.907   3.982   7.456  1.9157 -0.7323  0.4203
  802MOL0     H 8244   7.084   3.882   7.302 -0.4460 -1.8046 -1.8070
  802MOL0     H 8245   7.052   3.792   7.450 -2.0514 -1.7677 -0.1882
  802MOL0     H 8246   7.068   3.655   7.239 -1.6907 -3.4528  0.5776
  802MOL0     H 8247   6.897   3.715   7.206  0.2734 -0.5628 -0.6479
  802MOL0     H 8248   6.994   3.544   7.430 -2.3702 -0.6550  0.8392
  802MOL0     H 8249   6.844   3.611   7.428  0.6681  0.7963 -0.6030
  802MOL0     H 8250   6.814   4.684   7.307 -0.1999  0.5641 -0.6324
  802MOL0     H 8251   6.687   4.891   7.366  1.2392  0.5280  2.7383
  802MOL0     H 8252   6.174   5.073   7.274 -1.0991  1.2569 -0.4840
  802MOL0     H 8253   6.022   5.250   7.366  0.5754  2.8326  0.7305
  802MOL0     H 8254   4.494   5.651   6.916  2.1514 -0.6327  0.2764
  802MOL0     H 8255   4.295   5.765   6.884 -0.3249  1.3882 -0.8597
  802MOL0     H 8256   4.103   6.036   6.389 -1.2913 -0.7403 -0.2467
  802MOL0     H 8257   3.901   6.155   6.368  1.6577  0.7584  0.1841
  802MOL0     H 8258   3.633   6.352   6.651  2.6173 -0.1411  1.0576
  802MOL0     H 8259   3.618   6.183   6.717  0.2835  0.0423 -0.0143
  802MOL0     H 8260   3.516   6.318   6.465  0.7451  0.2075  2.9675
  802MOL0     H 8261   3.408   6.284   6.595  0.6259  2.2555  2.7491
  802MOL0     H 8262   3.459   6.038   6.561  0.2955  1.8300  0.9796
  802MOL0     H 8263   3.554   6.085   6.417  0.0012  1.6555 -0.1049
  802MOL0     H 8264   3.348   6.193   6.316  2.2918  1.8964  2.0099
  802MOL0     H 8265   3.332   6.018   6.338 -0.2934  0.4764  0.7507
  802MOL0     H 8266   3.057   6.135   6.642 -0.8623 -1.4318 -0.7873
  802MOL0     H 8267   3.794   6.109   6.771 -2.0355 -0.7392 -0.7175
  802MOL0     H 8268   4.092   5.979   6.891 -0.5092 -0.7773  0.7883
  802MOL0     H 8269   3.925   5.950   6.910 -0.5457 -1.1878 -1.5173
  802MOL0     H 8270   4.008   5.831   6.820 -0.2601 -0.1763 -0.0571
  803MOL0     O 8271  10.750   7.853   0.761 -0.6014  0.2807  0.8569
  803MOL0     C 8272  10.814   7.772   0.826  0.7432  0.1282  0.8129
  803MOL0     O 8273  10.804   7.757   0.964 -0.1601  0.4228  0.2625
  803MOL0     C 8274  10.734   7.855   1.034  0.0018  0.1257  0.9477
  803MOL0     C 8275  10.602   7.836   1.068  0.5152  0.8395  0.1004
  803MOL0     C 8276  10.543   7.936   1.144  0.3752  0.0028 -0.0039
  803MOL0     C 8277  10.607   8.059   1.170  0.4346 -0.0080 -0.8256
  803MOL0     O 8278  10.524   8.152   1.235 -0.0198 -0.0782 -0.8600
  803MOL0     C 8279  10.523   8.282   1.178 -0.1948 -0.2466  0.3932
  803MOL0     C 8280  10.491   8.396   1.282 -0.4756 -0.1520  0.2918
  803MOL0     C 8281  10.339   8.383   1.322 -0.6989 -0.4577 -0.2175
  803MOL0     C 8282  10.296   8.506   1.392  0.0273  0.1608 -0.6471
  803MOL0     C 8283  10.154   8.498   1.447  0.0107 -0.6325 -0.1727
  803MOL0     C 8284  10.033   8.456   1.352 -0.1309 -0.2728  0.9295
  803MOL0     C 8285   9.911   8.406   1.434 -0.4356 -0.5291  0.1333
  803MOL0     C 8286   9.809   8.510   1.458 -0.7254  0.7259 -1.3932
  803MOL0     N 8287   9.868   8.629   1.537 -0.4059  0.5983  0.2503
  803MOL0     C 8288   9.885   8.639   1.673  0.5791 -0.4065 -0.2885
  803MOL0     C 8289   9.914   8.769   1.695 -0.4856 -0.1992  1.6235
  803MOL0     C 8290   9.946   8.826   1.830  0.3382 -0.3250 -1.1926
  803MOL0     C 8291   9.835   8.789   1.922  1.0444 -0.4588  0.3528
  803MOL0     C 8292   9.837   8.878   2.047  0.3843  0.6773  0.0689
  803MOL0     C 8293   9.719   8.832   2.148  0.2507 -0.0285 -0.2482
  803MOL0     O 8294   9.689   8.947   2.231 -0.1831  0.2346 -0.4687
  803MOL0     C 8295   9.583   8.919   2.311  0.5733  0.5004 -0.3155
  803MOL0     C 8296   9.594   8.951   2.448  0.1338  0.6825 -0.2346
  803MOL0     C 8297   9.491   8.917   2.530  0.2814 -0.9782 -0.2069
  803MOL0     C 8298   9.372   8.859   2.481 -0.3386  0.5662  0.6985
  803MOL0     C 8299   9.264   8.811   2.571  0.9189 -0.8871  0.0069
  803MOL0     O 8300   9.137   8.785   2.516  0.1685 -0.0635  0.1862
  803MOL0     C 8301   9.028   8.805   2.595  0.2806  1.3382  0.2166
  803MOL0     C 8302   8.997   8.712   2.696  0.2234 -0.0857  0.1563
  803MOL0     C 8303   8.899   8.736   2.789  0.5162 -0.0782  0.1506
  803MOL0     C 8304   8.823   8.849   2.786 -0.2700 -0.0149  0.6997
  803MOL0     O 8305   8.728   8.876   2.885  0.6520  0.0505  0.0204
  803MOL0     C 8306   8.778   8.968   2.978  0.4090  0.2589 -1.0661
  803MOL0     C 8307   8.747   8.920   3.126 -0.3764  0.4380  0.4895
  803MOL0     C 8308   8.597   8.893   3.148 -0.3303  1.2137  0.5230
  803MOL0     C 8309   8.563   8.748   3.110 -0.1356 -0.1658  0.2691
  803MOL0     C 8310   8.418   8.734   3.102 -0.4520  0.8447 -0.5956
  803MOL0     C 8311   8.364   8.724   3.249  0.8106 -0.2543  0.0085
  803MOL0     C 8312   8.402   8.600   3.335 -0.3520  0.1832  0.0422
  803MOL0     C 8313   8.362   8.472   3.263 -0.6052  1.0192 -0.5977
  803MOL0    Cl 8314   8.207   8.480   3.174 -0.3232  0.0451 -0.5425
  803MOL0     C 8315   8.853   8.944   2.688  0.2418  0.0618  0.4918
  803MOL0     C 8316   8.954   8.922   2.593  1.5405  0.1850  0.4566
  803MOL0     O 8317   9.290   8.818   2.688 -0.0704  0.3773  0.1161
  803MOL0     C 8318   9.359   8.835   2.341 -0.5430 -0.5880  0.0029
  803MOL0     C 8319   9.461   8.869   2.256 -0.4451  0.9743  0.7695
  803MOL0     N 8320   9.908   8.836   1.578 -0.4354 -0.1827  0.3520
  803MOL0     N 8321   9.884   8.750   1.482  0.4380  0.0762  0.0642
  803MOL0     C 8322  10.737   8.078   1.133 -0.2349  0.7579 -1.4084
  803MOL0     C 8323  10.798   7.974   1.067  0.2553  1.6453  1.3068
  803MOL0     C 8324  10.906   7.678   0.757 -0.6411 -0.1742 -1.0246
  803MOL0     C 8325  10.935   7.719   0.632  1.2147  0.8911  0.4997
  803MOL0     C 8326  11.020   7.645   0.555  0.4690  0.2652 -0.7042
  803MOL0     C 8327  11.072   7.525   0.608 -0.6994  0.3472 -0.8541
  803MOL0     O 8328  11.154   7.434   0.539  0.9473  0.4952  0.2676
  803MOL0     C 8329  11.181   7.442   0.393  0.0519  1.3326 -0.4922
  803MOL0     C 8330  11.303   7.546   0.384  0.1989  0.4814  0.1691
  803MOL0     C 8331  11.339   7.560   0.239 -0.6906  0.0017 -0.5620
  803MOL0     C 8332  11.448   7.666   0.226  1.5232 -0.6967 -0.5700
  803MOL0     C 8333  11.481   7.701   0.091 -0.0435 -0.4989  0.7851
  803MOL0     C 8334  11.500   7.735  -0.025 -0.1108  0.4936  0.4572
  803MOL0     C 8335  11.044   7.479   0.737  0.4958 -0.6959  0.0858
  803MOL0     C 8336  10.958   7.554   0.815 -0.5869 -0.0657 -0.0900
  803MOL0     C 8337  10.903   7.490   0.938  0.8803  0.5033 -0.4300
  803MOL0     H 8338  10.549   7.744   1.045 -0.7155  1.6063 -0.2072
  803MOL0     H 8339  10.443   7.920   1.184  0.5533  0.1093  0.4908
  803MOL0     H 8340  10.612   8.317   1.125 -1.0682  1.7071  0.1187
  803MOL0     H 8341  10.443   8.282   1.104  0.6929 -4.2541 -0.8451
  803MOL0     H 8342  10.528   8.486   1.232  3.8152 -2.2638 -0.7751
  803MOL0     H 8343  10.564   8.364   1.356  0.7617 -1.4557 -1.4084
  803MOL0     H 8344  10.325   8.297   1.388  0.7112 -1.2905 -0.9579
  803MOL0     H 8345  10.288   8.364   1.228 -0.8158  2.5523 -0.8844
  803MOL0     H 8346  10.368   8.528   1.471 -0.0746 -1.5705 -0.0338
  803MOL0     H 8347  10.289   8.593   1.326  0.2451 -1.7052 -3.2944
  803MOL0     H 8348  10.162   8.428   1.530  0.3564 -1.7660 -1.1388
  803MOL0     H 8349  10.127   8.597   1.485 -1.0685 -1.1424  0.4217
  803MOL0     H 8350  10.010   8.540   1.285  2.1097  0.4464  0.9907
  803MOL0     H 8351  10.067   8.369   1.295 -1.4013 -0.7101  0.7966
  803MOL0     H 8352   9.942   8.364   1.530  3.4240  1.4276 -0.0605
  803MOL0     H 8353   9.850   8.341   1.370 -2.0129 -0.7718  1.7846
  803MOL0     H 8354   9.757   8.541   1.367 -3.0657  2.0159  0.2615
  803MOL0     H 8355   9.726   8.463   1.512 -1.9554 -1.3184 -4.7709
  803MOL0     H 8356   9.894   8.560   1.748  0.3029  1.5913  1.9637
  803MOL0     H 8357  10.046   8.804   1.868  0.5540 -1.8166 -2.5215
  803MOL0     H 8358   9.951   8.934   1.811 -0.5372 -0.2369 -0.9885
  803MOL0     H 8359   9.742   8.799   1.865  1.1578 -1.4242 -0.0120
  803MOL0     H 8360   9.852   8.685   1.951 -2.6162 -2.3489 -3.2000
  803MOL0     H 8361   9.813   8.984   2.035 -0.4738  0.7078  1.7049
  803MOL0     H 8362   9.932   8.870   2.102  0.8131 -1.3873 -0.9068
  803MOL0     H 8363   9.737   8.747   2.214 -1.3233  0.5693  1.0083
  803MOL0     H 8364   9.640   8.805   2.077 -1.3594 -1.6301  1.9983
  803MOL0     H 8365   9.680   9.007   2.482  0.7902 -0.5262  0.1878
  803MOL0     H 8366   9.504   8.937   2.636 -2.7088  1.1379 -0.1041
  803MOL0     H 8367   9.059   8.624   2.699  2.1443  1.0449 -2.5645
  803MOL0     H 8368   8.887   8.663   2.869 -1.3255  0.5003  0.4512
  803MOL0     H 8369   8.880   9.004   2.960  0.2233  1.5476  0.2882
  803MOL0     H 8370   8.722   9.061   2.966  0.7534  0.6564  0.2559
  803MOL0     H 8371   8.808   8.839   3.166 -0.1898  0.3468  0.0283
  803MOL0     H 8372   8.774   9.009   3.185 -1.5117  2.4462 -1.8385
  803MOL0     H 8373   8.576   8.917   3.253  0.1196  1.8079  0.4854
  803MOL0     H 8374   8.531   8.960   3.091 -0.3500  1.0624  0.3695
  803MOL0     H 8375   8.622   8.684   3.177  1.9833 -0.0277 -1.3587
  803MOL0     H 8376   8.596   8.723   3.009 -1.5201  2.9580 -1.0794
  803MOL0     H 8377   8.393   8.640   3.052  1.5785  0.9274 -1.8834
  803MOL0     H 8378   8.377   8.822   3.052  0.3857  0.6099 -1.7560
  803MOL0     H 8379   8.380   8.810   3.314 -0.1595 -1.4502  1.9136
  803MOL0     H 8380   8.255   8.720   3.240  1.0084 -0.3603 -4.2775
  803MOL0     H 8381   8.358   8.604   3.435 -0.9509 -0.8659 -0.1626
  803MOL0     H 8382   8.509   8.609   3.357 -0.5595 -1.5473  2.0730
  803MOL0     H 8383   8.451   8.444   3.206  0.8325  0.8299  1.6088
  803MOL0     H 8384   8.361   8.398   3.344  1.1181  0.1435 -1.3315
  803MOL0     H 8385   8.785   9.028   2.672  1.3710  0.7692 -0.9379
  803MOL0     H 8386   8.973   8.994   2.513  1.9357 -1.2954 -0.8189
  803MOL0     H 8387   9.268   8.791   2.301 -1.0348 -1.4061  1.9018
  803MOL0     H 8388   9.444   8.851   2.151  0.1689  2.6025  0.3767
  803MOL0     H 8389  10.795   8.159   1.175  0.9121 -1.8112  2.5859
  803MOL0     H 8390  10.906   7.970   1.052  0.3502 -2.8510  1.7060
  803MOL0     H 8391  10.903   7.810   0.583 -0.1127  0.0815 -0.1933
  803MOL0     H 8392  11.059   7.673   0.458  1.0741  1.2689 -0.1781
  803MOL0     H 8393  11.101   7.476   0.327  0.8006  0.8560 -1.6629
  803MOL0     H 8394  11.207   7.346   0.349 -1.5049  1.4534 -1.7551
  803MOL0     H 8395  11.392   7.528   0.446  0.0206 -0.0264  0.2821
  803MOL0     H 8396  11.265   7.644   0.413 -1.8945  0.6298 -2.7244
  803MOL0     H 8397  11.248   7.592   0.189 -2.1450 -0.1653  1.8504
  803MOL0     H 8398  11.367   7.466   0.190 -2.2857  0.1631 -1.8560
  803MOL0     H 8399  11.413   7.756   0.276 -2.3324 -1.7182 -1.1064
  803MOL0     H 8400  11.543   7.635   0.272  2.2645  1.9068 -0.2051
  803MOL0     H 8401  11.521   7.759  -0.127  3.4074 -0.6499  0.7683
  803MOL0     H 8402  11.089   7.384   0.764  2.0712  0.3881  1.5290
  803MOL0     H 8403  10.952   7.521   1.031 -0.8096  0.1778  0.6186
  803MOL0     H 8404  10.794   7.499   0.949  0.1163 -2.7814 -3.3803
  803MOL0     H 8405  10.919   7.382   0.943  0.1164  0.4477  1.7405
  804MOL0     O 8406   6.732   7.054   6.702 -0.2072  0.6783 -0.3915
  804MOL0     C 8407   6.685   7.124   6.616 -0.4752  0.2111 -0.2255
  804MOL0     O 8408   6.725   7.123   6.483 -0.4938 -0.0221 -0.0648
  804MOL0     C 8409   6.849   7.067   6.447 -0.0373 -0.0336  0.9501
  804MOL0     C 8410   6.933   7.156   6.375 -0.9386 -0.4095  0.7005
  804MOL0     C 8411   7.064   7.118   6.344  1.2272  0.3106  0.2415
  804MOL0     C 8412   7.109   6.988   6.369  0.0551 -0.0454  0.2448
  804MOL0     O 8413   7.225   6.931   6.309 -0.7117 -0.3622 -0.6860
  804MOL0     C 8414   7.297   7.003   6.207 -0.0700  0.0264 -0.3756
  804MOL0     C 8415   7.447   6.970   6.216 -0.4961 -1.2314 -0.9421
  804MOL0     C 8416   7.479   6.815   6.181 -0.1389 -0.8183 -0.0959
  804MOL0     C 8417   7.634   6.810   6.158 -0.6224 -0.5408  0.1968
  804MOL0     C 8418   7.694   6.667   6.183  0.1756  0.4534  0.4927
  804MOL0     C 8419   7.644   6.565   6.082  0.4057 -0.0608  0.1964
  804MOL0     C 8420   7.735   6.440   6.059 -0.1509  0.1566 -0.5784
  804MOL0     C 8421   7.717   6.359   5.930  0.8183 -0.3796  0.6604
  804MOL0     N 8422   7.804   6.248   5.926  0.1892 -0.2812 -0.0223
  804MOL0     C 8423   7.938   6.255   5.919 -0.4944 -0.2325  0.3696
  804MOL0     C 8424   7.980   6.124   5.901  0.3854  0.1609  0.4814
  804MOL0     C 8425   8.123   6.076   5.877 -0.5551 -0.2041 -0.1385
  804MOL0     C 8426   8.158   6.094   5.730 -0.2432 -0.9358  0.2915
  804MOL0     C 8427   8.304   6.051   5.711 -1.0854  0.3573  0.1306
  804MOL0     C 8428   8.363   6.092   5.569  0.9708  0.5094 -1.3384
  804MOL0     O 8429   8.505   6.054   5.586  0.9429 -0.5231  0.4572
  804MOL0     C 8430   8.569   6.059   5.456  0.1519 -0.7936 -0.4706
  804MOL0     C 8431   8.685   5.991   5.455  0.3615  0.0423  0.4136
  804MOL0     C 8432   8.769   5.988   5.343 -0.0959  0.0779  0.0149
  804MOL0     C 8433   8.738   6.060   5.230 -0.7144 -1.3318  0.8917
  804MOL0     C 8434   8.839   6.070   5.119 -0.1496  0.1655  0.1960
  804MOL0     O 8435   8.807   6.160   5.021  0.2183 -1.2711  0.0326
  804MOL0     C 8436   8.905   6.203   4.932 -0.6467  0.9538  0.1652
  804MOL0     C 8437   8.987   6.112   4.869 -0.5876  0.5524  0.6536
  804MOL0     C 8438   9.082   6.158   4.771  0.0756  0.3622 -0.2111
  804MOL0     C 8439   9.086   6.299   4.751  0.6235  0.2132  0.3257
  804MOL0     O 8440   9.171   6.354   4.656  0.8822  0.3081 -0.3131
  804MOL0     C 8441   9.294   6.288   4.641 -0.3013  0.6322 -0.1916
  804MOL0     C 8442   9.383   6.388   4.566  0.3996  0.3206 -0.0449
  804MOL0     C 8443   9.502   6.308   4.509  0.2553  0.8706  0.4653
  804MOL0     C 8444   9.613   6.413   4.464  0.7160  0.0307 -0.4471
  804MOL0     C 8445   9.732   6.337   4.406  0.9757 -0.2646 -0.8987
  804MOL0     C 8446   9.734   6.346   4.259 -1.1402  0.3821 -0.2372
  804MOL0     C 8447   9.867   6.282   4.208 -0.3213  0.7145 -0.8130
  804MOL0     C 8448   9.877   6.297   4.055 -0.6059 -0.4285 -0.7339
  804MOL0    Cl 8449   9.769   6.195   3.960  0.5226  0.0140 -1.0547
  804MOL0     C 8450   8.990   6.384   4.810 -0.1523 -0.1658  0.6432
  804MOL0     C 8451   8.902   6.335   4.905  0.3365  0.0304  0.1669
  804MOL0     O 8452   8.937   5.995   5.126  0.4109 -0.0317  0.1272
  804MOL0     C 8453   8.622   6.135   5.230  0.0518 -0.1062  0.0760
  804MOL0     C 8454   8.539   6.144   5.344  0.2181  0.5536 -0.0041
  804MOL0     N 8455   7.875   6.041   5.909  0.3539  0.8639 -0.5321
  804MOL0     N 8456   7.771   6.114   5.916 -0.4143  0.3471  0.3047
  804MOL0     C 8457   7.029   6.908   6.451 -0.6122  0.2847  0.0174
  804MOL0     C 8458   6.902   6.942   6.485 -0.2541  0.2528  0.1163
  804MOL0     C 8459   6.554   7.183   6.640 -0.5198 -0.3196 -0.5243
  804MOL0     C 8460   6.466   7.193   6.540  1.0134  0.0905 -0.1472
  804MOL0     C 8461   6.342   7.252   6.558  0.5924 -0.7561 -0.7181
  804MOL0     C 8462   6.298   7.292   6.682  0.0637 -1.2075 -0.9567
  804MOL0     O 8463   6.194   7.376   6.707 -0.6883  0.2248  0.1373
  804MOL0     C 8464   6.086   7.380   6.616  0.1285  0.0437  0.0967
  804MOL0     C 8465   5.963   7.453   6.684 -0.0899 -0.3852  1.2387
  804MOL0     C 8466   5.910   7.415   6.818 -0.5759 -0.2980  0.6734
  804MOL0     C 8467   5.986   7.493   6.920  0.2881 -0.9175  0.6400
  804MOL0     C 8468   5.922   7.503   7.050  0.0581  0.2316  0.0619
  804MOL0     C 8469   5.848   7.511   7.139  0.1018  0.0075  0.6793
  804MOL0     C 8470   6.394   7.292   6.792 -0.6384 -0.3783 -0.5290
  804MOL0     C 8471   6.519   7.231   6.771 -0.2966  0.5040 -0.7955
  804MOL0     C 8472   6.614   7.243   6.889  0.4049  0.2090  0.2412
  804MOL0     H 8473   6.906   7.254   6.335  1.6905  1.0098  2.1293
  804MOL0     H 8474   7.114   7.192   6.282  0.2689  0.0094 -0.9285
  804MOL0     H 8475   7.264   6.964   6.110 -1.7018 -0.3968  0.3179
  804MOL0     H 8476   7.288   7.112   6.207  3.7984  0.5436  2.2278
  804MOL0     H 8477   7.484   6.993   6.317 -0.1695 -0.3483 -1.2563
  804MOL0     H 8478   7.496   7.042   6.150  2.1452 -3.4208 -1.5391
  804MOL0     H 8479   7.423   6.791   6.089  2.2677 -0.1033 -1.8496
  804MOL0     H 8480   7.458   6.750   6.266  0.4578 -0.6564  0.1719
  804MOL0     H 8481   7.656   6.853   6.060 -0.6714 -1.2163 -0.1166
  804MOL0     H 8482   7.685   6.875   6.229 -0.0081 -2.3425  1.4691
  804MOL0     H 8483   7.801   6.666   6.161 -0.1302  5.0371 -2.6634
  804MOL0     H 8484   7.678   6.635   6.286  5.0665 -1.1736  0.9889
  804MOL0     H 8485   7.539   6.541   6.102 -0.6853  3.6398 -0.2710
  804MOL0     H 8486   7.646   6.618   5.986  2.4481 -0.2054  0.1250
  804MOL0     H 8487   7.712   6.375   6.144 -2.5853  1.7587  0.0635
  804MOL0     H 8488   7.840   6.472   6.068 -0.5788  1.4178  0.2557
  804MOL0     H 8489   7.616   6.322   5.912  0.9485 -1.1326  1.4238
  804MOL0     H 8490   7.735   6.419   5.841  0.9360 -0.0763  0.8871
  804MOL0     H 8491   7.996   6.345   5.907 -0.6795 -0.1872 -0.2152
  804MOL0     H 8492   8.185   6.149   5.930  0.7123 -0.8186 -0.7272
  804MOL0     H 8493   8.138   5.974   5.913  0.0812 -0.6494 -1.6148
  804MOL0     H 8494   8.085   6.037   5.670 -0.9393  1.0313 -0.8158
  804MOL0     H 8495   8.144   6.201   5.713 -0.6175 -0.9574  0.4444
  804MOL0     H 8496   8.330   5.945   5.721 -0.4097  0.3658 -1.2768
  804MOL0     H 8497   8.379   6.105   5.768  1.5179 -2.3616 -0.4775
  804MOL0     H 8498   8.356   6.201   5.566  0.7405  0.5378 -0.2804
  804MOL0     H 8499   8.317   6.047   5.481 -1.2214 -1.2855  0.5742
  804MOL0     H 8500   8.705   5.924   5.538  2.6612  2.4040  1.8941
  804MOL0     H 8501   8.861   5.931   5.345  0.1123  0.4162  0.2704
  804MOL0     H 8502   8.985   6.005   4.887  0.2699 -0.2647 -3.2269
  804MOL0     H 8503   9.151   6.091   4.720  0.1780  0.3463 -0.0498
  804MOL0     H 8504   9.349   6.270   4.734  2.1792 -1.1679 -1.8702
  804MOL0     H 8505   9.285   6.195   4.585  0.9449  1.3496 -1.6463
  804MOL0     H 8506   9.320   6.425   4.485  1.4208  2.9027  0.2337
  804MOL0     H 8507   9.413   6.471   4.631  2.3371  0.0509 -0.5432
  804MOL0     H 8508   9.547   6.237   4.578  1.0515  1.2740  0.3650
  804MOL0     H 8509   9.463   6.251   4.424 -1.4744  3.3619 -0.5407
  804MOL0     H 8510   9.651   6.467   4.551 -2.3754 -1.0705  1.7540
  804MOL0     H 8511   9.575   6.486   4.392  3.0598  0.5053 -1.2820
  804MOL0     H 8512   9.724   6.234   4.442  0.3098  1.3725  4.5054
  804MOL0     H 8513   9.825   6.373   4.451 -0.5142  1.4379  0.9766
  804MOL0     H 8514   9.651   6.290   4.214 -1.9272 -1.0882  2.8165
  804MOL0     H 8515   9.736   6.452   4.233  0.8830 -0.0258 -1.9741
  804MOL0     H 8516   9.874   6.176   4.232 -2.5457  0.2457 -1.9869
  804MOL0     H 8517   9.946   6.330   4.268 -2.2187  1.7796  0.9522
  804MOL0     H 8518   9.862   6.403   4.033 -0.3960 -0.3679 -0.5896
  804MOL0     H 8519   9.976   6.272   4.016  0.1273  2.2540 -0.7910
  804MOL0     H 8520   9.015   6.489   4.797 -2.4037  0.3127 -0.3123
  804MOL0     H 8521   8.825   6.404   4.939 -1.6917  0.1097 -3.9954
  804MOL0     H 8522   8.593   6.190   5.141  2.8873  0.9200 -0.2924
  804MOL0     H 8523   8.442   6.192   5.334 -0.5267 -1.2737 -2.8836
  804MOL0     H 8524   7.076   6.812   6.471  0.8857  0.7070 -1.2601
  804MOL0     H 8525   6.835   6.875   6.537  0.0281  0.9639  1.4621
  804MOL0     H 8526   6.495   7.144   6.448 -0.5252 -3.7008  1.2017
  804MOL0     H 8527   6.279   7.270   6.471 -1.5803 -0.5904  0.7976
  804MOL0     H 8528   6.041   7.281   6.606 -0.0104  0.3343 -2.8117
  804MOL0     H 8529   6.106   7.427   6.520  3.2053 -0.9597  0.1504
  804MOL0     H 8530   5.893   7.444   6.600  3.1883 -0.4589 -1.7264
  804MOL0     H 8531   5.987   7.560   6.684 -0.5773 -0.2473 -0.2093
  804MOL0     H 8532   5.919   7.306   6.830  2.5002 -0.1757  0.2406
  804MOL0     H 8533   5.802   7.434   6.817 -0.4697  0.3218 -0.3443
  804MOL0     H 8534   6.088   7.458   6.937  1.1676  2.7275  4.8780
  804MOL0     H 8535   6.005   7.597   6.889  1.1772 -1.3876 -0.4540
  804MOL0     H 8536   5.783   7.531   7.222 -0.0921  3.1696 -0.0970
  804MOL0     H 8537   6.380   7.341   6.888  2.2735 -1.0604  0.3339
  804MOL0     H 8538   6.708   7.273   6.842  1.4345 -1.5002  1.1356
  804MOL0     H 8539   6.585   7.318   6.963  1.0674  1.7887 -1.0468
  804MOL0     H 8540   6.645   7.150   6.938  0.3044  0.2999  0.4767
  805MOL0     O 8541   8.015   9.181  10.714  1.0068 -0.6614  0.2990
  805MOL0     C 8542   7.986   9.079  10.764  0.9806  1.0324 -1.1524
  805MOL0     O 8543   7.877   9.060  10.840 -0.2557  0.5150 -0.3019
  805MOL0     C 8544   7.800   9.163  10.873  0.5945  0.4273  0.2504
  805MOL0     C 8545   7.850   9.272  10.950  0.2247  0.9892 -0.0491
  805MOL0     C 8546   7.755   9.367  10.992  0.6586 -0.8094 -0.6715
  805MOL0     C 8547   7.618   9.357  10.946 -0.1997 -0.0665  0.0792
  805MOL0     O 8548   7.521   9.452  10.986 -0.4181 -0.4792 -0.3282
  805MOL0     C 8549   7.570   9.576  11.025 -0.6934 -0.6362  0.0041
  805MOL0     C 8550   7.442   9.662  11.028  0.1853  0.1660 -0.2885
  805MOL0     C 8551   7.480   9.800  11.077 -0.5883 -0.2351 -0.2921
  805MOL0     C 8552   7.362   9.890  11.098  0.5263 -0.0671 -0.0691
  805MOL0     C 8553   7.409  10.040  11.129 -0.4775 -0.2758 -0.4333
  805MOL0     C 8554   7.521  10.047  11.230 -0.0904 -0.7238 -0.0773
  805MOL0     C 8555   7.536  10.190  11.281 -0.4027 -0.5760 -0.3366
  805MOL0     C 8556   7.655  10.210  11.372 -0.0637 -0.5771  0.7496
  805MOL0     N 8557   7.623  10.149  11.500  0.5175  0.1318  0.4698
  805MOL0     C 8558   7.545  10.215  11.593 -0.0869 -1.0149  1.6228
  805MOL0     C 8559   7.572  10.174  11.714 -0.8747  0.9169 -0.0214
  805MOL0     C 8560   7.496  10.200  11.834  0.9333 -0.3875 -0.6087
  805MOL0     C 8561   7.483  10.354  11.864  0.9054  0.4758  0.2981
  805MOL0     C 8562   7.395  10.378  11.994 -0.6231 -0.7208 -0.0875
  805MOL0     C 8563   7.329  10.512  11.996  0.8753 -0.0857 -0.6745
  805MOL0     O 8564   7.188  10.499  11.962  1.1001  0.2748  0.1261
  805MOL0     C 8565   7.098  10.603  11.986 -0.0796 -0.4057  0.0358
  805MOL0     C 8566   6.968  10.600  11.941 -0.3492  0.6182 -0.3576
  805MOL0     C 8567   6.879  10.705  11.962  0.4301 -0.1355  0.2157
  805MOL0     C 8568   6.916  10.819  12.032 -0.6384  0.0925 -0.0334
  805MOL0     C 8569   6.824  10.928  12.045 -0.0134 -0.4823 -0.0422
  805MOL0     O 8570   6.826  10.997  12.159 -0.3265  0.7411  0.4166
  805MOL0     C 8571   6.724  11.082  12.182 -0.8260 -0.4226 -0.7360
  805MOL0     C 8572   6.663  11.181  12.105 -1.1561  0.3860  0.3474
  805MOL0     C 8573   6.543  11.244  12.152  0.5675  0.2931 -0.1997
  805MOL0     C 8574   6.506  11.239  12.280  0.2686 -0.5468 -0.3614
  805MOL0     O 8575   6.421  11.329  12.331  0.7110  0.2782  0.3268
  805MOL0     C 8576   6.389  11.460  12.283  0.1511  0.5680 -0.6909
  805MOL0     C 8577   6.339  11.549  12.401 -0.5940  0.5657 -0.5500
  805MOL0     C 8578   6.241  11.471  12.495  0.8606 -0.0325  0.5715
  805MOL0     C 8579   6.194  11.563  12.612 -0.0176 -0.4602  0.0221
  805MOL0     C 8580   6.103  11.674  12.575  0.1719  0.0968 -0.0436
  805MOL0     C 8581   5.955  11.622  12.567 -0.1358 -0.3336 -0.5118
  805MOL0     C 8582   5.850  11.722  12.575 -0.9504  0.8109 -0.2508
  805MOL0     C 8583   5.722  11.654  12.605  0.7830  0.7344 -1.4747
  805MOL0    Cl 8584   5.719  11.621  12.791 -0.3865 -0.3073 -0.0142
  805MOL0     C 8585   6.569  11.146  12.355 -0.7668  0.7888  0.0482
  805MOL0     C 8586   6.671  11.062  12.314  0.3207  0.4486  0.9285
  805MOL0     O 8587   6.737  10.935  11.956 -0.0664  1.2546  0.5278
  805MOL0     C 8588   7.042  10.820  12.096  0.7018  0.1692 -0.4856
  805MOL0     C 8589   7.134  10.720  12.064  0.0638  0.6021 -0.3248
  805MOL0     N 8590   7.671  10.074  11.690 -0.1300 -0.1894  0.0462
  805MOL0     N 8591   7.696  10.065  11.569 -0.0139  0.1142  0.8544
  805MOL0     C 8592   7.572   9.242  10.885 -0.5935 -0.0419 -0.4635
  805MOL0     C 8593   7.659   9.143  10.847 -0.2909  0.3464 -0.0495
  805MOL0     C 8594   8.082   8.967  10.747 -0.7106  0.1362 -0.8796
  805MOL0     C 8595   8.161   8.955  10.635 -0.9227  0.0558 -0.1559
  805MOL0     C 8596   8.255   8.847  10.617 -0.6205 -0.9224 -0.4175
  805MOL0     C 8597   8.273   8.751  10.724 -0.8258  0.2114  0.0630
  805MOL0     O 8598   8.355   8.646  10.724  0.4739  0.2388  0.2419
  805MOL0     C 8599   8.425   8.625  10.607 -0.7048  0.9857  1.4522
  805MOL0     C 8600   8.469   8.476  10.593 -0.3564  0.2159  0.2757
  805MOL0     C 8601   8.510   8.433  10.450 -0.5042 -0.1738  0.3298
  805MOL0     C 8602   8.618   8.508  10.371 -0.4567  0.5399  0.0575
  805MOL0     C 8603   8.633   8.451  10.245 -1.1208 -0.6499 -0.3412
  805MOL0     C 8604   8.660   8.392  10.148 -0.7553  0.0538  0.3816
  805MOL0     C 8605   8.197   8.775  10.836  1.0184  0.3683  0.2790
  805MOL0     C 8606   8.118   8.883  10.859  0.0890  0.2767  0.5269
  805MOL0     C 8607   8.072   8.900  11.003 -0.0926 -0.3460  0.3743
  805MOL0     H 8608   7.957   9.279  10.965  0.1506  0.0340  1.1742
  805MOL0     H 8609   7.802   9.457  11.030  0.9207 -0.6830 -1.2828
  805MOL0     H 8610   7.621   9.582  11.122  1.9317  3.6860 -1.3917
  805MOL0     H 8611   7.641   9.604  10.946  0.3046 -0.6436  0.8699
  805MOL0     H 8612   7.378   9.616  11.104  2.0381 -2.5291 -0.2281
  805MOL0     H 8613   7.402   9.659  10.927  0.1205 -5.1254 -0.3480
  805MOL0     H 8614   7.552   9.835  11.002 -0.6530 -1.3153 -0.8730
  805MOL0     H 8615   7.534   9.789  11.172  0.2385 -1.4664 -0.8731
  805MOL0     H 8616   7.296   9.892  11.011  1.4713  1.7392 -0.7960
  805MOL0     H 8617   7.310   9.855  11.187 -2.1933  2.8806 -0.3299
  805MOL0     H 8618   7.445  10.089  11.038  1.4401 -2.0144 -0.6713
  805MOL0     H 8619   7.316  10.087  11.163 -2.8320 -4.2229 -0.7934
  805MOL0     H 8620   7.502   9.980  11.315 -1.0032 -0.8861 -0.4026
  805MOL0     H 8621   7.614  10.017  11.181  0.2067  0.5709 -0.3387
  805MOL0     H 8622   7.444  10.228  11.327  1.3680  1.4176  1.8228
  805MOL0     H 8623   7.539  10.270  11.207  2.8203  0.2006  0.5015
  805MOL0     H 8624   7.742  10.167  11.321  0.4969  0.3826  0.8738
  805MOL0     H 8625   7.668  10.316  11.392 -1.5914  0.1954 -1.8481
  805MOL0     H 8626   7.464  10.279  11.559  0.4492 -0.2078  1.8216
  805MOL0     H 8627   7.390  10.173  11.824 -0.4599  2.8041  3.1550
  805MOL0     H 8628   7.533  10.150  11.923 -1.5376 -1.6626 -0.2058
  805MOL0     H 8629   7.583  10.389  11.889  2.0374 -1.4319 -1.2713
  805MOL0     H 8630   7.444  10.407  11.777  1.2395  1.3008  0.6445
  805MOL0     H 8631   7.461  10.363  12.080  1.2029  0.2397 -1.2842
  805MOL0     H 8632   7.310  10.308  11.994 -1.6457  0.2905  3.2109
  805MOL0     H 8633   7.378  10.587  11.933  2.6282 -1.8925 -1.5687
  805MOL0     H 8634   7.322  10.542  12.101 -5.1530  0.8976 -1.0306
  805MOL0     H 8635   6.949  10.517  11.874 -1.2340  0.8972 -0.4629
  805MOL0     H 8636   6.788  10.710  11.904  1.9022  3.1275 -2.1041
  805MOL0     H 8637   6.696  11.201  12.003  3.6435  0.0251  1.5643
  805MOL0     H 8638   6.486  11.308  12.085  1.9071  0.7343 -0.9528
  805MOL0     H 8639   6.479  11.507  12.243  0.5526  1.8501  1.5735
  805MOL0     H 8640   6.320  11.456  12.199  0.6612  2.5372 -1.2336
  805MOL0     H 8641   6.428  11.574  12.460 -1.6915  1.0755  0.9701
  805MOL0     H 8642   6.305  11.645  12.361 -0.4165 -0.0972 -2.3626
  805MOL0     H 8643   6.162  11.436  12.428  2.2725 -0.3827 -0.9929
  805MOL0     H 8644   6.297  11.385  12.533  2.2832 -0.2723 -1.8507
  805MOL0     H 8645   6.284  11.601  12.661  0.1861 -3.6066  2.4002
  805MOL0     H 8646   6.151  11.505  12.694 -1.9454 -0.3288 -0.8370
  805MOL0     H 8647   6.127  11.714  12.476 -2.3198 -1.1298 -1.2025
  805MOL0     H 8648   6.117  11.755  12.647  2.6964 -1.1724  1.0462
  805MOL0     H 8649   5.954  11.576  12.468 -0.5841 -1.0475 -0.1792
  805MOL0     H 8650   5.942  11.535  12.632  2.1255 -2.9692 -3.2577
  805MOL0     H 8651   5.846  11.759  12.472 -2.9792 -1.2232 -0.9969
  805MOL0     H 8652   5.875  11.803  12.644 -1.9526  2.7705 -2.0841
  805MOL0     H 8653   5.639  11.720  12.577 -1.8879 -2.5384 -1.9527
  805MOL0     H 8654   5.710  11.560  12.550 -0.6817 -1.1068  1.7469
  805MOL0     H 8655   6.536  11.144  12.458  0.4325  0.9846  0.4620
  805MOL0     H 8656   6.718  10.996  12.387  0.4176  0.6826  1.0784
  805MOL0     H 8657   7.067  10.898  12.167  1.1345 -2.5472  2.5931
  805MOL0     H 8658   7.238  10.740  12.085  0.4403 -1.3082 -0.2505
  805MOL0     H 8659   7.464   9.232  10.875 -0.8729 -1.5353  2.9405
  805MOL0     H 8660   7.628   9.051  10.797 -1.4911  0.9261 -0.4072
  805MOL0     H 8661   8.154   9.027  10.554 -1.4374 -0.0069 -0.1738
  805MOL0     H 8662   8.307   8.844  10.522 -0.3322 -6.2746 -0.3767
  805MOL0     H 8663   8.514   8.688  10.599 -1.2482  1.9044  2.4945
  805MOL0     H 8664   8.369   8.655  10.518  0.5400  0.3016  0.3931
  805MOL0     H 8665   8.388   8.410  10.623 -0.0226  0.2085  1.1806
  805MOL0     H 8666   8.544   8.447  10.667  0.3770  0.4003 -0.3708
  805MOL0     H 8667   8.423   8.430  10.384  1.6114 -1.0350 -2.6166
  805MOL0     H 8668   8.547   8.331  10.459 -2.7814 -0.9066  2.8669
  805MOL0     H 8669   8.590   8.612  10.355 -3.1132 -0.1658 -0.3404
  805MOL0     H 8670   8.715   8.490  10.420 -0.2189 -4.2712 -1.6639
  805MOL0     H 8671   8.681   8.330  10.063 -1.8389  0.4929 -0.2357
  805MOL0     H 8672   8.226   8.699  10.908  0.8431 -1.4057 -1.4238
  805MOL0     H 8673   8.113   8.997  11.033  1.7704 -0.4788 -1.5293
  805MOL0     H 8674   7.963   8.911  11.000 -0.1889 -1.1632  0.7417
  805MOL0     H 8675   8.104   8.816  11.065 -2.0103 -3.2410 -2.2244
  806MOL0     O 8676   5.313   1.515   9.675 -0.2460  0.0743 -0.0480
  806MOL0     C 8677   5.245   1.453   9.751 -0.2893 -0.2704  0.2896
  806MOL0     O 8678   5.282   1.416   9.878  0.0051 -0.2067  0.4289
  806MOL0     C 8679   5.408   1.447   9.907 -0.1339 -0.4644  0.2012
  806MOL0     C 8680   5.521   1.380   9.858  0.1599 -0.1393 -0.0947
  806MOL0     C 8681   5.648   1.415   9.904 -0.1304 -0.4158  0.5357
  806MOL0     C 8682   5.666   1.523   9.990  0.0935  0.0362  0.4632
  806MOL0     O 8683   5.789   1.551  10.043  0.5505 -0.2646  0.0568
  806MOL0     C 8684   5.860   1.638   9.961 -0.1499 -0.2533 -0.1579
  806MOL0     C 8685   5.986   1.571   9.903  0.6572 -0.2275 -0.5443
  806MOL0     C 8686   6.068   1.503  10.010  0.2132 -0.0647  0.4272
  806MOL0     C 8687   6.147   1.621  10.092 -0.0454 -0.4671  0.1315
  806MOL0     C 8688   6.189   1.574  10.228  1.4666 -0.8475  0.3699
  806MOL0     C 8689   6.300   1.472  10.219  0.2082  0.8398  0.7882
  806MOL0     C 8690   6.357   1.410  10.349  0.4220  1.2205 -0.3604
  806MOL0     C 8691   6.468   1.305  10.324  0.0579  0.0314 -1.3334
  806MOL0     N 8692   6.405   1.176  10.294 -0.5451  1.1616 -0.3434
  806MOL0     C 8693   6.359   1.128  10.175 -0.1158  0.1320 -0.2994
  806MOL0     C 8694   6.338   0.998  10.195 -0.2665 -0.6439 -0.3129
  806MOL0     C 8695   6.279   0.925  10.080 -0.4267 -0.0972  0.5318
  806MOL0     C 8696   6.192   0.802  10.110 -1.3930 -0.2380 -0.3579
  806MOL0     C 8697   6.262   0.682  10.174 -0.4851 -0.4795 -0.7622
  806MOL0     C 8698   6.158   0.569  10.190 -0.0337 -0.8276 -0.6477
  806MOL0     O 8699   6.090   0.528  10.070  0.5356  0.3182 -0.0991
  806MOL0     C 8700   6.169   0.464   9.974  0.2183  0.1062 -0.0885
  806MOL0     C 8701   6.121   0.475   9.842  0.0037 -0.1700  0.6987
  806MOL0     C 8702   6.181   0.421   9.731 -0.1925 -0.3119 -0.9386
  806MOL0     C 8703   6.296   0.349   9.745  0.4001  0.5445 -0.5182
  806MOL0     C 8704   6.362   0.294   9.624  0.5915 -1.6041  0.1396
  806MOL0     O 8705   6.480   0.221   9.647 -0.1030 -0.3797 -0.0194
  806MOL0     C 8706   6.509   0.120   9.556 -0.6151 -0.1416  0.3577
  806MOL0     C 8707   6.625   0.126   9.472 -0.3701 -0.7483  0.1496
  806MOL0     C 8708   6.659   0.015   9.395 -0.0994  0.3491  1.0401
  806MOL0     C 8709   6.578  -0.097   9.395  0.5384  0.0015  0.4112
  806MOL0     O 8710   6.618  -0.222   9.348  0.4532  0.1930  0.5921
  806MOL0     C 8711   6.761  -0.236   9.340  0.2089  0.4354 -0.1526
  806MOL0     C 8712   6.798  -0.383   9.310 -0.1702 -0.4330 -0.1487
  806MOL0     C 8713   6.953  -0.411   9.296  0.4517 -0.3088  0.1811
  806MOL0     C 8714   6.997  -0.489   9.165 -0.1275 -0.6707 -0.9670
  806MOL0     C 8715   7.103  -0.592   9.206 -0.6183 -1.4393  0.1490
  806MOL0     C 8716   7.230  -0.527   9.271 -0.2268  0.1537  0.5473
  806MOL0     C 8717   7.342  -0.631   9.274  0.0121  0.0800 -0.3915
  806MOL0     C 8718   7.427  -0.631   9.150  0.7282 -0.4787 -0.3323
  806MOL0    Cl 8719   7.538  -0.777   9.127  0.1653 -0.0286 -0.0900
  806MOL0     C 8720   6.461  -0.095   9.472 -0.4286  0.1547  0.5004
  806MOL0     C 8721   6.425   0.011   9.559  0.3087  0.5144 -0.0770
  806MOL0     O 8722   6.307   0.309   9.513  0.6170 -0.2235 -0.3453
  806MOL0     C 8723   6.349   0.330   9.875  0.4912 -0.1520 -0.1180
  806MOL0     C 8724   6.287   0.389   9.989 -0.0350  0.3257  0.0140
  806MOL0     N 8725   6.379   0.965  10.326  0.1057  0.7811 -0.1754
  806MOL0     N 8726   6.428   1.068  10.377  0.1125 -0.3579  0.7430
  806MOL0     C 8727   5.554   1.583  10.052  0.2838  0.8747  0.0705
  806MOL0     C 8728   5.430   1.545  10.004  0.0640  0.2296 -0.2503
  806MOL0     C 8729   5.118   1.403   9.685 -0.7359 -0.1012  0.4735
  806MOL0     C 8730   5.071   1.285   9.746 -0.2305 -0.1226 -0.5776
  806MOL0     C 8731   4.966   1.219   9.687  0.0190  0.6994  0.6424
  806MOL0     C 8732   4.892   1.273   9.581 -0.8156 -1.3941 -0.6673
  806MOL0     O 8733   4.786   1.204   9.538  0.2033  0.2486  0.4840
  806MOL0     C 8734   4.724   1.095   9.600 -0.0926 -0.0143  0.3237
  806MOL0     C 8735   4.648   1.127   9.738 -1.1390  0.5764  0.9990
  806MOL0     C 8736   4.576   1.265   9.749  0.3050  0.9808  0.1114
  806MOL0     C 8737   4.461   1.277   9.647 -0.4848 -0.1400 -0.3224
  806MOL0     C 8738   4.373   1.161   9.624  0.4965  0.2115 -0.7327
  806MOL0     C 8739   4.303   1.070   9.586  0.0854  0.2104 -0.8223
  806MOL0     C 8740   4.930   1.396   9.532  0.1633  0.5036  0.3605
  806MOL0     C 8741   5.048   1.460   9.574  0.0573 -0.0529  0.2673
  806MOL0     C 8742   5.088   1.587   9.511  0.4260  0.2333 -0.3833
  806MOL0     H 8743   5.510   1.304   9.781 -0.1057  1.3605 -1.5997
  806MOL0     H 8744   5.738   1.360   9.880  1.0370  0.8938  1.6944
  806MOL0     H 8745   5.803   1.674   9.875  1.1049 -1.0354 -1.3603
  806MOL0     H 8746   5.891   1.723  10.022  2.2151  0.0409 -1.6405
  806MOL0     H 8747   6.048   1.639   9.845  0.2993 -0.2815 -0.9975
  806MOL0     H 8748   5.963   1.497   9.826 -0.7180 -1.1218  0.6538
  806MOL0     H 8749   6.148   1.438   9.974 -0.1638  0.3668 -1.2590
  806MOL0     H 8750   5.992   1.442  10.059 -2.0940  0.2713 -2.4746
  806MOL0     H 8751   6.233   1.650  10.031  0.7659 -3.6529 -0.4473
  806MOL0     H 8752   6.080   1.707  10.101  2.1062  1.3274 -0.1833
  806MOL0     H 8753   6.214   1.658  10.293 -2.4194  2.2870 -1.6907
  806MOL0     H 8754   6.100   1.527  10.273  0.5562 -0.7721 -1.2683
  806MOL0     H 8755   6.278   1.398  10.142 -0.8918 -1.2204  2.9391
  806MOL0     H 8756   6.385   1.531  10.184  0.5095  1.1482  1.9984
  806MOL0     H 8757   6.280   1.347  10.394  1.0245 -0.6144 -1.7972
  806MOL0     H 8758   6.378   1.491  10.421 -2.9033  0.0584  2.2032
  806MOL0     H 8759   6.529   1.333  10.238  0.4561  0.6824 -0.8536
  806MOL0     H 8760   6.529   1.294  10.415  0.4930 -1.5088 -1.7890
  806MOL0     H 8761   6.341   1.193  10.091  2.9789  1.0346 -0.3877
  806MOL0     H 8762   6.217   0.996  10.023  1.7050 -0.0107 -1.8095
  806MOL0     H 8763   6.366   0.895  10.022 -1.1440 -1.4492  0.1034
  806MOL0     H 8764   6.119   0.842  10.181 -0.2643  3.0224 -0.8694
  806MOL0     H 8765   6.139   0.766  10.021  1.0782 -1.7979 -1.3272
  806MOL0     H 8766   6.309   0.705  10.270 -1.5814 -1.9096  0.1681
  806MOL0     H 8767   6.338   0.640  10.107 -1.1856  0.4590 -2.2012
  806MOL0     H 8768   6.080   0.600  10.260 -0.8720 -0.9088 -1.5176
  806MOL0     H 8769   6.201   0.479  10.234 -1.0730 -1.1002 -0.1786
  806MOL0     H 8770   6.029   0.529   9.820 -0.0571  0.8041  3.0414
  806MOL0     H 8771   6.150   0.452   9.631  3.8692  2.4700 -1.5894
  806MOL0     H 8772   6.682   0.219   9.477 -1.1169 -0.1970 -1.1416
  806MOL0     H 8773   6.745   0.032   9.331 -3.2402  2.9692 -3.0827
  806MOL0     H 8774   6.806  -0.169   9.267  1.2323  3.2813  2.8499
  806MOL0     H 8775   6.816  -0.215   9.433  2.7228  2.9881 -2.0435
  806MOL0     H 8776   6.759  -0.446   9.390 -0.5076  1.5692  1.3494
  806MOL0     H 8777   6.742  -0.408   9.220 -1.6270 -1.5682  1.0194
  806MOL0     H 8778   7.018  -0.326   9.319  2.1775 -1.4502 -0.2799
  806MOL0     H 8779   6.980  -0.475   9.381 -1.4513 -1.1322  0.2240
  806MOL0     H 8780   7.029  -0.419   9.087  1.5947 -0.2195  0.0888
  806MOL0     H 8781   6.915  -0.548   9.123 -1.6746  0.9343 -0.3483
  806MOL0     H 8782   7.133  -0.646   9.116 -0.3165  1.5760 -1.6896
  806MOL0     H 8783   7.056  -0.663   9.275  3.2819  0.4040  5.4386
  806MOL0     H 8784   7.259  -0.442   9.208  4.2388  0.3640  2.5148
  806MOL0     H 8785   7.208  -0.499   9.374  0.1564  0.3321  0.5819
  806MOL0     H 8786   7.306  -0.734   9.281  0.8605 -0.0904  3.1299
  806MOL0     H 8787   7.402  -0.610   9.363 -0.6319  0.9215 -0.1470
  806MOL0     H 8788   7.354  -0.623   9.068 -1.2924 -0.9888  1.3230
  806MOL0     H 8789   7.481  -0.536   9.147  1.6980 -0.9556  0.9874
  806MOL0     H 8790   6.388  -0.175   9.484 -2.9749  2.2060 -0.3575
  806MOL0     H 8791   6.334   0.010   9.619 -0.4324 -2.1953 -1.0925
  806MOL0     H 8792   6.434   0.262   9.878  0.3291 -0.3889 -0.6928
  806MOL0     H 8793   6.326   0.382  10.090 -1.8034 -0.1114  0.6905
  806MOL0     H 8794   5.561   1.659  10.129  2.6330  1.1181 -0.2967
  806MOL0     H 8795   5.343   1.596  10.044 -0.3761 -2.2515  2.3135
  806MOL0     H 8796   5.131   1.228   9.817  0.1142  1.2091  0.2509
  806MOL0     H 8797   4.955   1.126   9.741 -0.6833  1.1276  1.2615
  806MOL0     H 8798   4.790   1.011   9.624 -0.4287 -0.2762  0.3401
  806MOL0     H 8799   4.651   1.056   9.528  1.2544  0.2842 -1.2745
  806MOL0     H 8800   4.726   1.137   9.814 -1.8200  1.2313  1.6274
  806MOL0     H 8801   4.577   1.048   9.762 -0.4389  0.2144  1.9664
  806MOL0     H 8802   4.647   1.347   9.736  0.3550  0.8308 -0.6149
  806MOL0     H 8803   4.522   1.278   9.843 -2.9025 -1.0826 -1.2391
  806MOL0     H 8804   4.391   1.358   9.672 -0.5271  0.4422 -2.1625
  806MOL0     H 8805   4.498   1.310   9.550 -0.4440  2.6355  0.5311
  806MOL0     H 8806   4.239   0.991   9.550 -1.2330 -1.6178  4.6204
  806MOL0     H 8807   4.887   1.435   9.440 -1.4506 -0.0886  0.8339
  806MOL0     H 8808   5.015   1.611   9.433 -1.1419 -2.0433  0.2861
  806MOL0     H 8809   5.085   1.672   9.581 -3.9423 -1.1421  1.4449
  806MOL0     H 8810   5.191   1.571   9.477  0.7621  2.8981 -0.8586
  807MOL0     O 8811   0.720  10.023   8.402  0.0853  0.1380  0.1588
  807MOL0     C 8812   0.731  10.146   8.373  0.0444 -1.2284 -0.6844
  807MOL0     O 8813   0.850  10.202   8.348 -0.5903  0.1619 -0.2336
  807MOL0     C 8814   0.965  10.168   8.417  0.5216  0.5952 -0.3008
  807MOL0     C 8815   0.953  10.172   8.560  0.1627 -0.7181 -0.7492
  807MOL0     C 8816   1.063  10.130   8.633 -0.0208 -0.4038 -0.1610
  807MOL0     C 8817   1.185  10.095   8.574  0.0668  0.8209  0.5590
  807MOL0     O 8818   1.288  10.050   8.652 -0.2847  0.0221  0.0849
  807MOL0     C 8819   1.323   9.910   8.610 -0.4917 -0.0311 -0.9236
  807MOL0     C 8820   1.281   9.806   8.721 -0.0189 -0.8261  0.5548
  807MOL0     C 8821   1.127   9.795   8.753 -0.0290 -0.6491  0.1808
  807MOL0     C 8822   1.056   9.763   8.627 -1.5338 -0.7528 -0.3947
  807MOL0     C 8823   0.903   9.777   8.660  0.3975  0.0458  0.5562
  807MOL0     C 8824   0.827   9.699   8.558  0.1233 -0.8722 -0.2970
  807MOL0     C 8825   0.677   9.693   8.597 -0.0914  0.5342  0.6816
  807MOL0     C 8826   0.585   9.597   8.513 -0.4289 -0.6245  0.0832
  807MOL0     N 8827   0.444   9.615   8.547  0.0740 -0.5387  0.5910
  807MOL0     C 8828   0.375   9.580   8.664  0.1477 -0.2050  0.2600
  807MOL0     C 8829   0.245   9.622   8.642 -0.1602 -0.3056  0.1857
  807MOL0     C 8830   0.140   9.628   8.749  0.6886 -0.3859 -0.5876
  807MOL0     C 8831   0.006   9.553   8.705 -0.4089  0.3053  0.2693
  807MOL0     C 8832  -0.103   9.558   8.817 -0.5731  0.3042 -0.7565
  807MOL0     C 8833  -0.068   9.458   8.941  0.6044 -0.3064  0.2195
  807MOL0     O 8834  -0.119   9.328   8.897  0.7800  0.0630  0.2513
  807MOL0     C 8835  -0.251   9.295   8.929  0.7649  0.1516 -0.1952
  807MOL0     C 8836  -0.284   9.164   8.915  1.0220 -0.7474  0.1760
  807MOL0     C 8837  -0.402   9.109   8.961  0.3114  0.4347 -0.4872
  807MOL0     C 8838  -0.499   9.191   9.019  0.0111  0.0372 -0.7994
  807MOL0     C 8839  -0.627   9.140   9.067  0.2138  0.0090 -1.2449
  807MOL0     O 8840  -0.667   9.021   9.013  0.5091 -0.0663  0.4436
  807MOL0     C 8841  -0.771   8.949   9.070 -0.1705 -0.2229  0.8563
  807MOL0     C 8842  -0.782   8.923   9.208  0.7136  0.4174  0.1971
  807MOL0     C 8843  -0.875   8.829   9.258  0.1129  1.1959 -0.1194
  807MOL0     C 8844  -0.958   8.757   9.178 -0.0314  0.2756 -0.0844
  807MOL0     O 8845  -1.057   8.677   9.224 -0.9999 -0.5947  0.2794
  807MOL0     C 8846  -1.172   8.750   9.275  0.7432 -0.5090 -0.3856
  807MOL0     C 8847  -1.299   8.750   9.186  0.0343 -0.0959  0.3690
  807MOL0     C 8848  -1.351   8.611   9.149 -0.1907  0.0477  0.5535
  807MOL0     C 8849  -1.499   8.610   9.138 -0.0631  0.3853 -0.1622
  807MOL0     C 8850  -1.551   8.468   9.087  0.1326 -0.9143  0.1334
  807MOL0     C 8851  -1.701   8.488   9.056 -0.4427  0.6258  0.3038
  807MOL0     C 8852  -1.765   8.347   9.056  0.8656 -0.3653 -0.7886
  807MOL0     C 8853  -1.912   8.360   9.002  0.0887  0.2908  1.2673
  807MOL0    Cl 8854  -1.915   8.433   8.832 -0.9673  0.1735  0.8351
  807MOL0     C 8855  -0.948   8.777   9.042  0.4107 -0.4349 -0.3861
  807MOL0     C 8856  -0.854   8.861   8.991 -0.4630  0.4079 -0.0458
  807MOL0     O 8857  -0.682   9.197   9.163 -0.0088 -1.1224 -0.0177
  807MOL0     C 8858  -0.468   9.323   9.031  0.6344  0.2617 -0.2133
  807MOL0     C 8859  -0.344   9.372   8.987  0.1803 -0.3258  0.1486
  807MOL0     N 8860   0.238   9.659   8.508 -0.4645 -0.0249  0.2867
  807MOL0     N 8861   0.356   9.654   8.448 -0.3643  0.1633  0.7719
  807MOL0     C 8862   1.196  10.106   8.436  0.2362 -1.5361 -0.3620
  807MOL0     C 8863   1.087  10.150   8.359 -0.5189  0.3659  0.2329
  807MOL0     C 8864   0.610  10.232   8.379  0.3370 -0.3461 -0.7823
  807MOL0     C 8865   0.626  10.375   8.373 -0.5049 -0.3729 -0.4876
  807MOL0     C 8866   0.517  10.457   8.378  0.0913 -0.8673 -0.5863
  807MOL0     C 8867   0.393  10.409   8.395 -0.1494 -0.2066 -0.1919
  807MOL0     O 8868   0.290  10.502   8.388  0.2112  0.1079  0.2227
  807MOL0     C 8869   0.177  10.487   8.475  0.1682  0.4920  0.4704
  807MOL0     C 8870   0.097  10.618   8.466  0.0564  0.8461  0.9872
  807MOL0     C 8871   0.027  10.672   8.588 -0.4487 -0.6258  0.9288
  807MOL0     C 8872   0.112  10.664   8.723 -0.4634 -0.4840  0.1984
  807MOL0     C 8873   0.241  10.736   8.718  1.0598  0.0268 -1.2972
  807MOL0     C 8874   0.337  10.811   8.709  0.2986 -0.4425 -0.3520
  807MOL0     C 8875   0.377  10.279   8.435  0.4053  0.8918 -0.1663
  807MOL0     C 8876   0.479  10.187   8.423 -1.1112  0.5781  0.7956
  807MOL0     C 8877   0.429  10.047   8.449 -0.4235  0.6836  0.3073
  807MOL0     H 8878   0.854  10.190   8.600  0.2856  0.2695 -0.8678
  807MOL0     H 8879   1.048  10.122   8.740  0.5576 -0.6722 -0.0982
  807MOL0     H 8880   1.282   9.868   8.518 -0.2109 -1.4312 -0.4386
  807MOL0     H 8881   1.432   9.908   8.616 -0.4349  2.5624  0.7955
  807MOL0     H 8882   1.345   9.828   8.806 -0.0402 -0.8112  0.5669
  807MOL0     H 8883   1.315   9.708   8.686 -1.0240 -1.5179  1.4403
  807MOL0     H 8884   1.083   9.885   8.798 -0.2757 -0.8677  0.3794
  807MOL0     H 8885   1.119   9.725   8.837 -1.3588  0.7979  1.3190
  807MOL0     H 8886   1.077   9.840   8.552  2.7074  0.5638  1.7929
  807MOL0     H 8887   1.091   9.665   8.594  2.3263 -0.0815  1.1397
  807MOL0     H 8888   0.882   9.746   8.762  1.6334  0.7593  1.0520
  807MOL0     H 8889   0.880   9.884   8.659 -4.1717 -0.6775 -2.0375
  807MOL0     H 8890   0.846   9.749   8.463  1.0383  1.1888  0.8893
  807MOL0     H 8891   0.869   9.598   8.547 -0.2722 -1.0498 -0.2146
  807MOL0     H 8892   0.632   9.791   8.612  1.1237  1.3368 -0.6237
  807MOL0     H 8893   0.684   9.645   8.695  0.0707 -1.5520 -0.2912
  807MOL0     H 8894   0.606   9.618   8.407 -0.4469  0.1589  0.2321
  807MOL0     H 8895   0.626   9.496   8.522  0.3143 -0.3968 -0.5652
  807MOL0     H 8896   0.402   9.541   8.762  0.9903 -0.0745  0.0894
  807MOL0     H 8897   0.186   9.587   8.840  0.1253  2.3192  1.0170
  807MOL0     H 8898   0.110   9.732   8.757 -0.1904 -0.4822 -2.1647
  807MOL0     H 8899  -0.026   9.599   8.611  1.0047  0.2577 -0.2493
  807MOL0     H 8900   0.032   9.450   8.682 -2.6370 -0.0870 -0.7722
  807MOL0     H 8901  -0.204   9.549   8.778 -1.7062 -1.2449  2.1698
  807MOL0     H 8902  -0.095   9.660   8.857  2.2655 -0.5250  1.0670
  807MOL0     H 8903  -0.109   9.491   9.038  0.0856 -1.4789  0.4147
  807MOL0     H 8904   0.040   9.453   8.957  0.7886 -2.1925 -1.3738
  807MOL0     H 8905  -0.216   9.094   8.867  0.1069 -2.4886  1.3147
  807MOL0     H 8906  -0.413   9.001   8.968  0.6842  0.3394 -1.3600
  807MOL0     H 8907  -0.714   8.969   9.279 -1.2828  1.5998  1.4245
  807MOL0     H 8908  -0.862   8.819   9.365 -1.5909  0.7985  0.0795
  807MOL0     H 8909  -1.208   8.708   9.369 -1.9873  0.3809 -0.9323
  807MOL0     H 8910  -1.136   8.851   9.296  4.2808 -1.8496  0.6432
  807MOL0     H 8911  -1.382   8.810   9.225 -1.3152  0.7061 -3.3695
  807MOL0     H 8912  -1.278   8.792   9.087 -1.3975 -1.4451 -0.5537
  807MOL0     H 8913  -1.308   8.599   9.049  0.7264 -1.3005  1.0829
  807MOL0     H 8914  -1.305   8.531   9.207 -1.9043 -1.9030 -0.6570
  807MOL0     H 8915  -1.540   8.699   9.089 -0.3552 -0.7466 -2.0992
  807MOL0     H 8916  -1.529   8.613   9.243 -0.6132 -0.0075 -0.3049
  807MOL0     H 8917  -1.536   8.392   9.164  0.8346 -0.6629  0.2493
  807MOL0     H 8918  -1.509   8.439   8.990  0.3930  2.1050 -0.7839
  807MOL0     H 8919  -1.742   8.550   9.136  0.1000  0.6311  0.5858
  807MOL0     H 8920  -1.702   8.545   8.962 -2.4309  2.9328  1.6092
  807MOL0     H 8921  -1.767   8.294   9.151 -1.2417  0.1945 -0.4706
  807MOL0     H 8922  -1.701   8.289   8.989  4.1780  1.4807  0.5160
  807MOL0     H 8923  -1.965   8.264   8.997 -1.6222  1.2471 -1.0214
  807MOL0     H 8924  -1.955   8.430   9.075  2.1075  3.7517 -0.5846
  807MOL0     H 8925  -1.020   8.719   8.984 -1.9909  1.0723  0.9162
  807MOL0     H 8926  -0.840   8.865   8.883  0.5803  1.1443  0.1020
  807MOL0     H 8927  -0.535   9.397   9.074  1.6732  1.4595 -0.5941
  807MOL0     H 8928  -0.329   9.477   9.008  1.5971 -0.8515  1.9083
  807MOL0     H 8929   1.298  10.098   8.400  1.7318  0.8707  2.7659
  807MOL0     H 8930   1.090  10.172   8.253 -4.2473 -0.0168 -0.0868
  807MOL0     H 8931   0.720  10.420   8.343 -1.1562  1.1900 -0.2845
  807MOL0     H 8932   0.529  10.565   8.376  0.0205 -0.6102  3.3862
  807MOL0     H 8933   0.214  10.459   8.574  3.5552 -0.2257 -0.8701
  807MOL0     H 8934   0.115  10.401   8.450 -0.4727 -0.2408  4.0261
  807MOL0     H 8935   0.031  10.621   8.379 -0.2027 -0.9010  1.0916
  807MOL0     H 8936   0.166  10.693   8.425  0.9492 -0.6427 -0.3555
  807MOL0     H 8937  -0.063  10.612   8.598  0.1839 -1.4051  2.1252
  807MOL0     H 8938   0.003  10.777   8.566 -1.0223 -1.0221 -0.4656
  807MOL0     H 8939   0.056  10.714   8.803 -0.0727  1.2020 -0.5314
  807MOL0     H 8940   0.120  10.561   8.758  0.9762  0.6963  3.7980
  807MOL0     H 8941   0.413  10.886   8.708  2.9040 -2.9453 -1.4739
  807MOL0     H 8942   0.280  10.238   8.462  1.6768 -2.4328 -0.1427
  807MOL0     H 8943   0.468  10.016   8.547 -1.3678  0.1987  0.5441
  807MOL0     H 8944   0.320  10.035   8.451 -0.2613 -1.1181  1.6541
  807MOL0     H 8945   0.457   9.976   8.371 -1.8833  0.0028  0.3604
  808MOL0     O 8946  10.375  10.545   4.991  0.1375  0.6727 -0.4308
  808MOL0     C 8947  10.407  10.426   4.999 -0.8156 -0.3073 -0.1251
  808MOL0     O 8948  10.322  10.324   5.020 -0.0183 -0.2713  0.0587
  808MOL0     C 8949  10.208  10.333   5.089 -0.6154  0.2812 -0.5558
  808MOL0     C 8950  10.132  10.213   5.103 -1.0081 -0.8433  1.4063
  808MOL0     C 8951  10.019  10.202   5.172 -0.4086  0.8117  0.3470
  808MOL0     C 8952   9.971  10.314   5.242 -0.5410  0.0909 -0.7331
  808MOL0     O 8953   9.867  10.309   5.324 -0.0790  0.2927  0.3384
  808MOL0     C 8954   9.756  10.227   5.278  0.4839  0.7077 -1.4400
  808MOL0     C 8955   9.657  10.216   5.398 -0.3488 -0.3499  0.1725
  808MOL0     C 8956   9.597  10.346   5.441  0.3917 -0.2030  0.0771
  808MOL0     C 8957   9.470  10.321   5.529 -0.5388 -0.3660  0.3353
  808MOL0     C 8958   9.412  10.435   5.615  0.2359  0.2585  0.1086
  808MOL0     C 8959   9.266  10.392   5.649  0.7547  0.1177  0.1997
  808MOL0     C 8960   9.211  10.492   5.747  0.1809  0.5770 -0.2582
  808MOL0     C 8961   9.211  10.634   5.705  0.0639 -0.0347  0.2040
  808MOL0     N 8962   9.127  10.656   5.583 -0.0698 -0.0451 -1.0776
  808MOL0     C 8963   9.002  10.600   5.568 -1.2929 -0.0146  0.1804
  808MOL0     C 8964   8.980  10.592   5.431 -0.2577 -0.2519 -0.2240
  808MOL0     C 8965   8.867  10.531   5.364  0.5666 -0.0938  0.1680
  808MOL0     C 8966   8.743  10.618   5.374 -0.7853 -0.5803  0.5706
  808MOL0     C 8967   8.615  10.551   5.409  0.5738  0.6396  0.4773
  808MOL0     C 8968   8.600  10.523   5.560 -0.0757 -0.1133  0.6893
  808MOL0     O 8969   8.655  10.393   5.577 -0.0003  0.6755  0.0369
  808MOL0     C 8970   8.662  10.336   5.698 -1.0019  1.1840 -0.6589
  808MOL0     C 8971   8.703  10.200   5.705 -0.2305  0.0827 -0.9572
  808MOL0     C 8972   8.727  10.140   5.826 -0.3094  0.0568 -0.3025
  808MOL0     C 8973   8.701  10.209   5.942 -0.5086 -0.3395  0.1030
  808MOL0     C 8974   8.738  10.144   6.069 -0.3251  0.4423 -0.4638
  808MOL0     O 8975   8.760  10.228   6.170 -0.2291 -0.2399  0.3384
  808MOL0     C 8976   8.825  10.175   6.275  0.5787  0.0413  0.1710
  808MOL0     C 8977   8.765  10.164   6.397  0.6017  0.8054 -0.4932
  808MOL0     C 8978   8.836  10.107   6.505 -0.4772 -0.6263  0.3529
  808MOL0     C 8979   8.971  10.085   6.490  0.5965 -0.0067 -0.9660
  808MOL0     O 8980   9.042  10.021   6.598 -0.2145  1.3571  0.3625
  808MOL0     C 8981   9.137  10.093   6.669 -0.1782 -1.0531  0.0554
  808MOL0     C 8982   9.229   9.999   6.752 -0.3489 -1.0647 -0.7824
  808MOL0     C 8983   9.365  10.064   6.783 -0.6936  0.3659  0.9915
  808MOL0     C 8984   9.477   9.968   6.730  0.0062  0.4106  0.6883
  808MOL0     C 8985   9.623  10.017   6.758  0.1615 -1.0496 -0.2152
  808MOL0     C 8986   9.680  10.120   6.658 -1.6398  0.0988 -0.3598
  808MOL0     C 8987   9.831  10.157   6.681 -0.1168  0.3879 -0.3392
  808MOL0     C 8988   9.861  10.268   6.576 -0.2267 -0.1391  0.6645
  808MOL0    Cl 8989  10.030  10.333   6.597  0.1142 -0.2422  0.6010
  808MOL0     C 8990   9.037  10.127   6.376 -0.4205 -0.4339  0.0480
  808MOL0     C 8991   8.964  10.171   6.264  1.3240 -0.2871  0.5962
  808MOL0     O 8992   8.765  10.020   6.070 -0.1129 -0.0358  0.1405
  808MOL0     C 8993   8.668  10.338   5.935 -0.5792  0.0602 -0.1406
  808MOL0     C 8994   8.647  10.400   5.818 -0.0870 -0.6773  0.7209
  808MOL0     N 8995   9.086  10.663   5.378 -0.6671 -0.0415  0.5749
  808MOL0     N 8996   9.178  10.688   5.465 -0.4737  0.5346  0.7016
  808MOL0     C 8997  10.041  10.432   5.232 -0.0008  0.6412 -0.7976
  808MOL0     C 8998  10.158  10.449   5.152  0.2266 -0.7240  0.5699
  808MOL0     C 8999  10.548  10.394   4.998 -0.9183 -0.8837 -0.3227
  808MOL0     C 9000  10.581  10.293   4.916 -0.1653  1.1704 -0.9466
  808MOL0     C 9001  10.716  10.253   4.896 -0.0179 -0.2618 -0.4412
  808MOL0     C 9002  10.825  10.323   4.958  0.1448  0.1626 -0.0386
  808MOL0     O 9003  10.956  10.285   4.945 -0.7492 -0.1573  0.7263
  808MOL0     C 9004  10.981  10.142   4.954 -0.5106 -0.4876  0.2856
  808MOL0     C 9005  11.120  10.104   4.995  0.2442  0.5489 -0.1479
  808MOL0     C 9006  11.151   9.966   4.988 -0.2090  0.7457  0.2374
  808MOL0     C 9007  11.308   9.938   4.985  1.7036 -0.8787 -0.0877
  808MOL0     C 9008  11.327   9.798   5.025  0.1749  0.4150  0.5761
  808MOL0     C 9009  11.348   9.685   5.062 -0.1756 -0.0196  0.0720
  808MOL0     C 9010  10.788  10.438   5.039 -0.2438 -0.6203  1.0253
  808MOL0     C 9011  10.654  10.467   5.066 -0.3079 -0.6276 -0.3880
  808MOL0     C 9012  10.626  10.581   5.153 -1.6365  0.5454 -0.1456
  808MOL0     H 9013  10.170  10.142   5.029  2.6607  2.3305 -0.1045
  808MOL0     H 9014   9.984  10.100   5.186  2.0261  0.1898  2.4960
  808MOL0     H 9015   9.693  10.263   5.196 -2.0046  0.4357  0.2411
  808MOL0     H 9016   9.777  10.122   5.256 -0.4019  0.0485  0.6043
  808MOL0     H 9017   9.711  10.179   5.486 -0.1849 -0.5842 -0.0242
  808MOL0     H 9018   9.573  10.156   5.362 -0.9665  0.9667 -0.6378
  808MOL0     H 9019   9.554  10.396   5.354 -0.1356 -1.5097 -0.4365
  808MOL0     H 9020   9.677  10.394   5.500  0.8764  0.3653 -1.0152
  808MOL0     H 9021   9.388  10.294   5.462  1.7341 -3.7098 -1.4024
  808MOL0     H 9022   9.503  10.238   5.593  2.2347  2.2943  2.6382
  808MOL0     H 9023   9.471  10.452   5.705 -1.4316 -0.2927  1.3701
  808MOL0     H 9024   9.409  10.527   5.555  1.9147  0.7987  0.7925
  808MOL0     H 9025   9.201  10.377   5.563 -0.4788  0.2689  1.0818
  808MOL0     H 9026   9.261  10.294   5.698 -2.7525 -0.3020 -0.7384
  808MOL0     H 9027   9.269  10.482   5.840  0.7590  0.7049 -0.5974
  808MOL0     H 9028   9.110  10.453   5.760  0.1626 -0.4317 -2.9025
  808MOL0     H 9029   9.160  10.687   5.785  1.9892 -0.0900  1.5299
  808MOL0     H 9030   9.314  10.670   5.703  0.7992 -1.9483 -2.5704
  808MOL0     H 9031   8.941  10.546   5.640  0.6151 -2.1422  0.3026
  808MOL0     H 9032   8.904  10.522   5.262  2.3112 -1.1439  0.8475
  808MOL0     H 9033   8.857  10.430   5.405 -0.3541  0.7618  2.1915
  808MOL0     H 9034   8.767  10.708   5.432  0.4690  0.4949 -1.4837
  808MOL0     H 9035   8.739  10.654   5.270 -2.4196  3.1616  1.7537
  808MOL0     H 9036   8.588  10.456   5.362  0.5187  1.0769 -0.3994
  808MOL0     H 9037   8.539  10.622   5.375 -0.9080 -0.2223  1.8900
  808MOL0     H 9038   8.493  10.521   5.582 -0.5441  0.7678 -1.2846
  808MOL0     H 9039   8.650  10.599   5.622  1.0051 -0.3697  0.1571
  808MOL0     H 9040   8.727  10.145   5.614  3.7354 -0.4238  0.2237
  808MOL0     H 9041   8.777  10.044   5.832 -0.7774 -0.2348 -0.9652
  808MOL0     H 9042   8.660  10.189   6.398  0.2344 -0.6152 -0.7112
  808MOL0     H 9043   8.795  10.075   6.600  2.1787  0.5444  1.9913
  808MOL0     H 9044   9.196  10.150   6.598  1.2643 -1.9696  0.4786
  808MOL0     H 9045   9.093  10.164   6.740 -0.7886  0.3539 -1.6533
  808MOL0     H 9046   9.180   9.974   6.846  2.7664  0.9664  1.5842
  808MOL0     H 9047   9.240   9.913   6.686  3.7308 -2.0488  0.8823
  808MOL0     H 9048   9.374  10.155   6.723 -0.4983  1.1746  2.1937
  808MOL0     H 9049   9.385  10.106   6.883  1.1172  0.7876  0.4897
  808MOL0     H 9050   9.452   9.955   6.625 -1.9443  0.1435  1.1455
  808MOL0     H 9051   9.461   9.868   6.771 -1.4272  0.8908  1.3828
  808MOL0     H 9052   9.689   9.930   6.766 -0.7690 -1.7864 -0.3873
  808MOL0     H 9053   9.639  10.059   6.857 -1.3916 -3.5127  1.1757
  808MOL0     H 9054   9.668  10.087   6.555 -2.9405  2.2337 -0.9430
  808MOL0     H 9055   9.640  10.219   6.683  1.4738  1.2789  0.4952
  808MOL0     H 9056   9.894  10.069   6.666  0.0644  0.6517 -1.1407
  808MOL0     H 9057   9.836  10.198   6.783 -0.7617 -2.6116  1.0244
  808MOL0     H 9058   9.840  10.235   6.474  2.0256  0.3795 -0.0221
  808MOL0     H 9059   9.788  10.349   6.589 -2.0977 -1.2883 -1.8369
  808MOL0     H 9060   9.145  10.135   6.370 -0.2893 -2.6125 -2.3785
  808MOL0     H 9061   9.015  10.202   6.173 -0.3066  0.3088 -0.1461
  808MOL0     H 9062   8.639  10.388   6.028 -2.7775  0.6358 -1.0634
  808MOL0     H 9063   8.622  10.505   5.822 -1.3107 -0.9946  3.2117
  808MOL0     H 9064  10.002  10.521   5.281 -0.2274  0.5744 -0.8563
  808MOL0     H 9065  10.216  10.538   5.169 -0.4368 -0.8658  4.4155
  808MOL0     H 9066  10.513  10.241   4.849  2.4289  2.8290 -5.3320
  808MOL0     H 9067  10.726  10.163   4.836 -0.4870 -0.2371 -0.5618
  808MOL0     H 9068  10.980  10.110   4.849  0.8349  2.3022 -0.6881
  808MOL0     H 9069  10.905  10.113   5.026 -0.7057  0.0776  0.3125
  808MOL0     H 9070  11.127  10.141   5.098 -0.1360 -0.0591  0.0967
  808MOL0     H 9071  11.184  10.157   4.923  0.3740 -0.5625 -0.8750
  808MOL0     H 9072  11.112   9.929   4.892 -0.7010  2.9834 -0.4800
  808MOL0     H 9073  11.105   9.910   5.069 -2.0082  1.5367 -0.1862
  808MOL0     H 9074  11.348   9.950   4.883  2.3993 -0.1934  0.2503
  808MOL0     H 9075  11.357  10.002   5.058 -1.6680  1.6373  0.1965
  808MOL0     H 9076  11.363   9.586   5.098 -1.3374 -1.4964 -3.1449
  808MOL0     H 9077  10.866  10.499   5.084 -2.9860  1.5177  3.3007
  808MOL0     H 9078  10.562  10.654   5.102 -1.6210  2.8440  2.8650
  808MOL0     H 9079  10.568  10.538   5.235 -3.3645  1.8427 -0.6367
  808MOL0     H 9080  10.717  10.627   5.194  0.0195 -0.2903 -2.6144
  809MOL0     O 9081   0.350   1.066   5.998 -0.3626 -0.9650 -0.7713
  809MOL0     C 9082   0.245   1.078   5.938  0.4527  0.2793 -1.0800
  809MOL0     O 9083   0.236   1.146   5.820 -0.2516  0.2128 -0.8945
  809MOL0     C 9084   0.337   1.221   5.768 -0.1528  0.0271 -0.8681
  809MOL0     C 9085   0.381   1.331   5.838 -0.0475 -0.2084  0.7975
  809MOL0     C 9086   0.500   1.402   5.787  0.8208  0.5189  0.3137
  809MOL0     C 9087   0.554   1.370   5.661 -0.1906 -0.3685 -0.3320
  809MOL0     O 9088   0.663   1.438   5.601  0.4782 -0.3528 -0.1171
  809MOL0     C 9089   0.698   1.568   5.649  0.5515  0.3399  0.2652
  809MOL0     C 9090   0.602   1.670   5.613  0.3389  0.4030  0.5777
  809MOL0     C 9091   0.567   1.660   5.462 -0.1725 -0.5736  0.0511
  809MOL0     C 9092   0.541   1.793   5.391 -0.7231  0.2355  1.1023
  809MOL0     C 9093   0.412   1.839   5.451 -0.0996  0.3972  0.2343
  809MOL0     C 9094   0.374   1.976   5.378  0.0965  0.9626  0.6548
  809MOL0     C 9095   0.316   1.963   5.235 -0.4454  0.5003  0.2618
  809MOL0     C 9096   0.222   2.081   5.196 -0.5476 -0.4588  0.9555
  809MOL0     N 9097   0.294   2.214   5.189 -0.0130 -0.3671  0.2024
  809MOL0     C 9098   0.413   2.232   5.134  0.1590  0.5458 -0.2347
  809MOL0     C 9099   0.439   2.365   5.117 -0.1267 -0.1872  0.3759
  809MOL0     C 9100   0.553   2.440   5.044  0.2508 -0.0673 -0.0130
  809MOL0     C 9101   0.541   2.440   4.890 -0.1310 -0.5493 -0.4771
  809MOL0     C 9102   0.429   2.523   4.831  0.7472  0.6443 -1.0124
  809MOL0     C 9103   0.422   2.524   4.677 -0.2760  1.0150 -0.1602
  809MOL0     O 9104   0.289   2.578   4.654 -0.2612 -0.1972 -0.0044
  809MOL0     C 9105   0.224   2.577   4.532  0.0035  1.1600  0.3312
  809MOL0     C 9106   0.274   2.540   4.409  0.3680 -0.2034  0.8179
  809MOL0     C 9107   0.200   2.554   4.291  0.1253 -0.3904  0.0942
  809MOL0     C 9108   0.068   2.605   4.303 -0.6542 -0.4017  0.1005
  809MOL0     C 9109  -0.007   2.642   4.182 -0.0739 -1.0721 -0.0480
  809MOL0     O 9110   0.050   2.598   4.062  0.4932 -0.2600 -0.2171
  809MOL0     C 9111   0.011   2.645   3.933 -0.4831  0.0163 -0.4035
  809MOL0     C 9112   0.057   2.567   3.825 -0.1484 -0.3767  0.6366
  809MOL0     C 9113   0.014   2.602   3.692 -1.4572  0.0440 -0.7226
  809MOL0     C 9114  -0.062   2.713   3.668  0.3179 -0.6099 -0.9032
  809MOL0     O 9115  -0.109   2.762   3.549  0.2564 -0.4410 -0.1445
  809MOL0     C 9116  -0.012   2.766   3.444  0.1151 -0.5541  0.0491
  809MOL0     C 9117   0.102   2.858   3.475 -0.2095 -0.2547 -0.5728
  809MOL0     C 9118   0.192   2.886   3.356 -0.9741  0.1842 -0.7065
  809MOL0     C 9119   0.295   2.781   3.338 -0.4334  0.7785  0.1627
  809MOL0     C 9120   0.411   2.815   3.248 -0.1067 -0.0977 -0.1827
  809MOL0     C 9121   0.537   2.776   3.316 -0.5431  0.2335 -0.4929
  809MOL0     C 9122   0.656   2.819   3.226  0.6131  0.1654 -0.2151
  809MOL0     C 9123   0.775   2.791   3.315 -0.5731 -0.6304  0.9614
  809MOL0    Cl 9124   0.775   2.896   3.451 -0.0915 -0.2019 -0.2390
  809MOL0     C 9125  -0.087   2.801   3.778  0.9777 -0.2436  0.5732
  809MOL0     C 9126  -0.053   2.765   3.910 -0.7995  0.1410  0.3502
  809MOL0     O 9127  -0.116   2.693   4.187 -0.2860  0.1807 -0.4596
  809MOL0     C 9128   0.014   2.645   4.428 -0.0176 -0.6696 -0.5317
  809MOL0     C 9129   0.097   2.628   4.541  1.4004 -0.7741  0.5226
  809MOL0     N 9130   0.333   2.428   5.181  0.0786  0.3988  0.9734
  809MOL0     N 9131   0.252   2.339   5.225 -0.0294  0.4387  0.1524
  809MOL0     C 9132   0.496   1.266   5.594  0.8887 -1.0425 -1.4378
  809MOL0     C 9133   0.394   1.186   5.644  0.2945  0.0499 -1.0323
  809MOL0     C 9134   0.118   1.020   5.999 -0.8004 -0.1253  0.5988
  809MOL0     C 9135   0.000   1.089   5.964  1.4036 -0.9073  0.0438
  809MOL0     C 9136  -0.121   1.064   6.020  0.5804  0.1510 -0.5971
  809MOL0     C 9137  -0.124   0.968   6.125  0.5302 -0.2114  0.4026
  809MOL0     O 9138  -0.238   0.943   6.196 -0.3393  0.1386 -0.4478
  809MOL0     C 9139  -0.345   1.042   6.183 -0.2889 -0.5560 -0.5555
  809MOL0     C 9140  -0.438   1.043   6.312  0.0415 -0.3938  0.0164
  809MOL0     C 9141  -0.364   1.034   6.439 -0.4616 -0.1374  0.2484
  809MOL0     C 9142  -0.460   1.056   6.557 -0.2114 -0.4330 -0.8013
  809MOL0     C 9143  -0.398   1.022   6.687 -0.1045 -0.2947 -0.2105
  809MOL0     C 9144  -0.331   1.002   6.786  0.4220  0.2339 -0.3695
  809MOL0     C 9145  -0.006   0.893   6.158  0.1374 -0.5061 -0.8787
  809MOL0     C 9146   0.113   0.911   6.093 -0.2364 -0.6991  0.2805
  809MOL0     C 9147   0.231   0.825   6.122 -0.3655 -0.0315 -0.9339
  809MOL0     H 9148   0.339   1.365   5.932 -2.3064 -1.0792  0.1622
  809MOL0     H 9149   0.529   1.489   5.845  1.8913 -0.0109  0.6075
  809MOL0     H 9150   0.697   1.566   5.758 -0.2405  2.6944  0.3527
  809MOL0     H 9151   0.796   1.593   5.608 -0.2283  0.8285 -1.4315
  809MOL0     H 9152   0.645   1.769   5.631  1.1181  0.0271  0.8575
  809MOL0     H 9153   0.503   1.666   5.658 -0.1784  0.7191 -0.5192
  809MOL0     H 9154   0.474   1.602   5.460 -2.3277  2.6424  0.5189
  809MOL0     H 9155   0.651   1.612   5.410  1.7053 -0.5753  2.8688
  809MOL0     H 9156   0.619   1.866   5.411 -2.7651  2.9387 -0.1386
  809MOL0     H 9157   0.522   1.779   5.284 -2.3122  2.1113  1.0871
  809MOL0     H 9158   0.331   1.766   5.441  0.7039 -0.1940 -2.8259
  809MOL0     H 9159   0.432   1.848   5.558  0.1038 -1.0592  0.3356
  809MOL0     H 9160   0.316   2.048   5.437  1.5561  2.2577  0.5892
  809MOL0     H 9161   0.466   2.029   5.349 -0.7693  1.9968 -0.2945
  809MOL0     H 9162   0.263   1.868   5.230  1.9606 -0.8563 -2.6745
  809MOL0     H 9163   0.402   1.957   5.167  0.7071  1.3385  1.5766
  809MOL0     H 9164   0.160   2.057   5.109 -2.5084  1.9789  1.5650
  809MOL0     H 9165   0.154   2.087   5.282  0.2103 -0.6169  1.5734
  809MOL0     H 9166   0.467   2.147   5.096  1.6370  0.7606  1.2608
  809MOL0     H 9167   0.564   2.544   5.075  3.4898  0.4534 -2.4047
  809MOL0     H 9168   0.647   2.391   5.070 -0.3627 -0.9144  0.6919
  809MOL0     H 9169   0.630   2.491   4.852 -1.0961  0.5112 -1.3710
  809MOL0     H 9170   0.540   2.336   4.855  1.6360 -0.4372 -0.9615
  809MOL0     H 9171   0.434   2.626   4.866 -1.4427  0.2785  0.5884
  809MOL0     H 9172   0.335   2.486   4.872  0.9816  0.7895 -0.3238
  809MOL0     H 9173   0.445   2.434   4.619  0.0724  2.0719 -1.7287
  809MOL0     H 9174   0.501   2.582   4.629 -0.2756  0.1412 -1.2624
  809MOL0     H 9175   0.379   2.515   4.403  0.9819  1.6915  2.6076
  809MOL0     H 9176   0.244   2.540   4.193  0.1912  3.8863 -0.6646
  809MOL0     H 9177   0.114   2.476   3.840 -0.0876 -0.4924 -0.2054
  809MOL0     H 9178   0.044   2.544   3.605  0.2147 -1.4431  0.7492
  809MOL0     H 9179   0.032   2.669   3.421 -1.0608 -0.3494 -3.6782
  809MOL0     H 9180  -0.063   2.806   3.355 -0.9377 -0.0820  0.8323
  809MOL0     H 9181   0.065   2.953   3.515  0.3802 -0.4712  0.5284
  809MOL0     H 9182   0.164   2.808   3.550  0.3565  1.6331  0.2809
  809MOL0     H 9183   0.151   2.897   3.255 -1.0369  3.1094 -0.4722
  809MOL0     H 9184   0.246   2.980   3.371 -1.7469  0.2745  2.1849
  809MOL0     H 9185   0.236   2.704   3.287 -0.5465  1.7317 -1.1775
  809MOL0     H 9186   0.337   2.741   3.431 -0.4424  0.0940 -0.1206
  809MOL0     H 9187   0.409   2.921   3.221 -0.7995 -0.4077 -1.3937
  809MOL0     H 9188   0.389   2.761   3.155  3.4249  0.4740 -1.5078
  809MOL0     H 9189   0.541   2.830   3.411  0.9836 -0.6087 -0.0481
  809MOL0     H 9190   0.545   2.668   3.333  1.2795  0.7191  2.3863
  809MOL0     H 9191   0.648   2.923   3.190 -0.3304  0.4197  0.6814
  809MOL0     H 9192   0.658   2.754   3.138  1.1473  0.4818 -0.4416
  809MOL0     H 9193   0.769   2.688   3.350  2.9118 -0.9404  0.9966
  809MOL0     H 9194   0.874   2.804   3.270 -0.4677  0.3518  1.4407
  809MOL0     H 9195  -0.136   2.897   3.765  0.1308 -0.5628  1.3223
  809MOL0     H 9196  -0.070   2.822   4.001 -4.0697 -1.9664  1.2345
  809MOL0     H 9197  -0.081   2.695   4.443  0.8420  0.6951  0.6481
  809MOL0     H 9198   0.062   2.673   4.633  2.6263  0.6365  0.3549
  809MOL0     H 9199   0.545   1.245   5.499 -0.4476 -0.9865 -2.1564
  809MOL0     H 9200   0.359   1.093   5.600 -0.7013 -1.0242  1.8154
  809MOL0     H 9201   0.009   1.170   5.892 -0.6505  1.4580  2.2524
  809MOL0     H 9202  -0.214   1.114   5.996 -2.2105 -3.2814  1.9985
  809MOL0     H 9203  -0.413   1.017   6.101 -0.0563 -3.3281  0.0042
  809MOL0     H 9204  -0.292   1.137   6.171  1.1085 -1.4394 -1.5991
  809MOL0     H 9205  -0.511   0.961   6.306 -0.0181 -0.2470 -1.9508
  809MOL0     H 9206  -0.504   1.130   6.318 -0.4041 -0.7987  4.9049
  809MOL0     H 9207  -0.298   1.121   6.450 -0.3095 -0.3988  1.6051
  809MOL0     H 9208  -0.300   0.945   6.450 -1.8493 -0.9699  2.3614
  809MOL0     H 9209  -0.493   1.160   6.564  0.5810 -0.1991 -0.4522
  809MOL0     H 9210  -0.549   0.992   6.552 -1.2429  0.5334  2.5095
  809MOL0     H 9211  -0.272   0.989   6.875 -0.5384 -1.7740  0.0271
  809MOL0     H 9212  -0.020   0.816   6.234  2.5253  0.2076  0.3841
  809MOL0     H 9213   0.294   0.876   6.195  0.4231 -3.3327  0.9345
  809MOL0     H 9214   0.207   0.733   6.177 -0.0269 -0.5849 -1.6960
  809MOL0     H 9215   0.292   0.797   6.036 -0.0260 -2.3394 -0.0301
  810MOL0     O 9216   9.309  10.526   7.755 -0.3804  0.3878  0.0257
  810MOL0     C 9217   9.249  10.592   7.845  0.8881 -0.4809 -0.5223
  810MOL0     O 9218   9.309  10.674   7.922 -0.3404 -0.1107 -0.7804
  810MOL0     C 9219   9.443  10.683   7.933  0.5012  0.2901 -0.1097
  810MOL0     C 9220   9.505  10.809   7.903  0.1856  0.4906 -0.0108
  810MOL0     C 9221   9.637  10.830   7.927 -0.3938  0.7115  0.2475
  810MOL0     C 9222   9.717  10.719   7.970  0.3014  0.0548  0.1005
  810MOL0     O 9223   9.844  10.731   8.013 -0.0712  0.1225  0.0226
  810MOL0     C 9224   9.916  10.851   7.989 -0.0344  0.4733 -0.2459
  810MOL0     C 9225  10.065  10.827   8.000  0.1296  0.0269  0.0559
  810MOL0     C 9226  10.122  10.832   8.147  0.1266  0.6140  0.4236
  810MOL0     C 9227  10.264  10.789   8.142 -0.7532 -0.7981 -0.7821
  810MOL0     C 9228  10.344  10.800   8.268 -0.1792  1.3122 -0.0935
  810MOL0     C 9229  10.281  10.700   8.368 -0.3525  0.0123  0.6646
  810MOL0     C 9230  10.382  10.681   8.488 -0.2339 -0.1779  0.3022
  810MOL0     C 9231  10.343  10.586   8.600 -0.2285  0.1189 -0.1328
  810MOL0     N 9232  10.339  10.442   8.562  0.6106 -0.1126  1.0794
  810MOL0     C 9233  10.223  10.374   8.530 -0.7400 -0.1980 -0.4005
  810MOL0     C 9234  10.255  10.243   8.513 -1.0854 -0.9482 -0.5375
  810MOL0     C 9235  10.151  10.140   8.496 -0.6452  0.3407 -0.4133
  810MOL0     C 9236  10.137  10.094   8.347  0.5970  0.7894 -0.0360
  810MOL0     C 9237   9.995  10.020   8.330 -0.2663  0.0260  0.1609
  810MOL0     C 9238   9.969   9.983   8.185  1.1008 -0.3745  0.0624
  810MOL0     O 9239  10.063   9.887   8.130 -0.1988 -0.8060  0.2918
  810MOL0     C 9240  10.071   9.766   8.184  0.1083 -0.7583 -0.1424
  810MOL0     C 9241   9.958   9.694   8.234 -0.4145 -0.6985  0.4101
  810MOL0     C 9242   9.970   9.569   8.298  0.0256  0.3260  0.2785
  810MOL0     C 9243  10.103   9.512   8.310 -0.2661  0.0802  0.2792
  810MOL0     C 9244  10.121   9.390   8.393  0.2066 -0.6105  0.0432
  810MOL0     O 9245  10.244   9.365   8.439  0.5311 -0.0187  0.0892
  810MOL0     C 9246  10.277   9.240   8.495 -0.1104 -0.3724  0.5329
  810MOL0     C 9247  10.194   9.133   8.505  0.8297  1.0328 -0.7404
  810MOL0     C 9248  10.236   9.018   8.578  0.4428 -0.5540 -0.0944
  810MOL0     C 9249  10.360   9.017   8.649 -0.0632 -0.8629 -0.6925
  810MOL0     O 9250  10.418   8.910   8.699 -0.2884 -0.2095 -0.9107
  810MOL0     C 9251  10.355   8.780   8.711  0.0364 -0.4446 -1.0437
  810MOL0     C 9252  10.339   8.710   8.575  0.0882 -0.6455  0.3868
  810MOL0     C 9253  10.331   8.553   8.584  0.8298 -0.1833  0.0265
  810MOL0     C 9254  10.263   8.488   8.463 -0.6772 -0.3730  0.3087
  810MOL0     C 9255  10.270   8.336   8.491  0.1677  1.1221 -0.5751
  810MOL0     C 9256  10.202   8.245   8.373  0.3503  0.4387 -0.4109
  810MOL0     C 9257  10.065   8.298   8.339  0.4387 -0.1118 -0.2179
  810MOL0     C 9258   9.970   8.205   8.269 -0.6569  0.3359 -0.0961
  810MOL0    Cl 9259  10.038   8.135   8.111 -0.0799 -0.1239 -0.0145
  810MOL0     C 9260  10.443   9.131   8.634  0.1855 -0.0345  0.7696
  810MOL0     C 9261  10.406   9.241   8.548 -0.1372  0.9643 -0.6198
  810MOL0     O 9262  10.020   9.332   8.425 -0.4264 -0.5027  0.3286
  810MOL0     C 9263  10.206   9.585   8.257 -1.3390  0.3426 -0.5882
  810MOL0     C 9264  10.189   9.702   8.186  1.0920 -1.0441 -0.3990
  810MOL0     N 9265  10.386  10.235   8.536 -0.4356  0.1164  0.5482
  810MOL0     N 9266  10.437  10.348   8.557  0.3880 -0.9000  0.5805
  810MOL0     C 9267   9.660  10.595   7.974 -0.0801  0.1183  0.8793
  810MOL0     C 9268   9.520  10.576   7.969 -0.6659  0.2579  0.5856
  810MOL0     C 9269   9.094  10.580   7.842  0.1846 -0.0677 -0.2299
  810MOL0     C 9270   9.036  10.519   7.730  0.4176  0.2147  0.9676
  810MOL0     C 9271   8.897  10.496   7.732  0.0650 -0.4574 -0.0136
  810MOL0     C 9272   8.819  10.536   7.834  0.2847  0.4712 -0.0669
  810MOL0     O 9273   8.689  10.499   7.830  0.2576 -0.1382 -0.3869
  810MOL0     C 9274   8.589  10.586   7.885 -0.0147 -0.6952 -0.9220
  810MOL0     C 9275   8.456  10.528   7.847 -1.1934 -0.4227  0.2491
  810MOL0     C 9276   8.400  10.589   7.718 -0.2794  0.1022  0.6836
  810MOL0     C 9277   8.264  10.521   7.671 -0.0641  0.0183 -0.0521
  810MOL0     C 9278   8.223  10.572   7.542  0.3958  0.1113 -0.1354
  810MOL0     C 9279   8.188  10.608   7.427 -0.0445 -0.5267 -0.2201
  810MOL0     C 9280   8.874  10.611   7.934  0.1489 -0.5938 -0.3913
  810MOL0     C 9281   9.012  10.639   7.946 -0.5773  0.1507  0.5129
  810MOL0     C 9282   9.063  10.716   8.065  0.1974 -0.8003 -0.0385
  810MOL0     H 9283   9.438  10.887   7.868 -1.8844 -1.9670 -1.9200
  810MOL0     H 9284   9.685  10.927   7.931 -0.6239  0.7905  2.5079
  810MOL0     H 9285   9.896  10.895   7.891 -0.1170  0.0167 -0.4380
  810MOL0     H 9286   9.893  10.927   8.064  1.0092  2.0655 -1.4621
  810MOL0     H 9287  10.124  10.893   7.936 -0.2843  0.0172 -0.3454
  810MOL0     H 9288  10.087  10.725   7.966  2.6530 -0.8404  3.6866
  810MOL0     H 9289  10.063  10.774   8.218 -0.9694  0.1131 -0.8527
  810MOL0     H 9290  10.116  10.936   8.181 -1.4666 -0.0258  2.2740
  810MOL0     H 9291  10.261  10.684   8.111 -3.6752 -1.5945  1.7257
  810MOL0     H 9292  10.307  10.855   8.067  1.2811 -1.0623  0.0897
  810MOL0     H 9293  10.448  10.777   8.245  0.1372  2.7657 -0.2220
  810MOL0     H 9294  10.352  10.903   8.305  1.4329  1.1022  0.1966
  810MOL0     H 9295  10.186  10.736   8.408 -0.2689 -2.3147  3.2782
  810MOL0     H 9296  10.270  10.603   8.320 -2.9154 -0.2477  1.6184
  810MOL0     H 9297  10.395  10.780   8.533  2.3387  0.3571 -1.4572
  810MOL0     H 9298  10.479  10.655   8.444 -0.2151  0.7999 -0.2732
  810MOL0     H 9299  10.417  10.586   8.680  0.2103 -1.2616 -0.5128
  810MOL0     H 9300  10.246  10.611   8.642  0.6222  0.1751  1.9212
  810MOL0     H 9301  10.125  10.418   8.517  0.1042  2.2048  0.6209
  810MOL0     H 9302  10.208  10.062   8.549  0.0042  0.0448 -1.5195
  810MOL0     H 9303  10.054  10.174   8.534 -0.9370  1.6981 -2.2483
  810MOL0     H 9304  10.145  10.188   8.290 -3.9154  1.0041 -0.7368
  810MOL0     H 9305  10.220  10.034   8.309 -0.4908  0.8351 -2.6825
  810MOL0     H 9306   9.916  10.084   8.371  1.2161  1.5710  0.7422
  810MOL0     H 9307   9.999   9.927   8.387 -2.5506 -0.8285 -0.9441
  810MOL0     H 9308   9.960  10.073   8.123 -0.6563  0.1729  1.0470
  810MOL0     H 9309   9.871   9.939   8.167  1.0144  0.2773 -1.1402
  810MOL0     H 9310   9.862   9.739   8.212  1.7170  2.5579 -3.4975
  810MOL0     H 9311   9.882   9.527   8.344  0.6945 -3.6673 -1.6773
  810MOL0     H 9312  10.100   9.119   8.453  0.9014 -3.4493 -0.0623
  810MOL0     H 9313  10.167   8.934   8.577  0.6229 -0.7002 -0.1371
  810MOL0     H 9314  10.418   8.723   8.781 -1.2580  0.6785  1.1147
  810MOL0     H 9315  10.263   8.787   8.769  1.1389  0.3172  0.7026
  810MOL0     H 9316  10.240   8.744   8.543 -0.9973 -2.0600  2.0189
  810MOL0     H 9317  10.417   8.745   8.508 -1.1963 -0.7371 -1.2129
  810MOL0     H 9318  10.429   8.511   8.609  0.7472 -0.9059 -0.8112
  810MOL0     H 9319  10.262   8.533   8.667 -0.7533 -0.3835 -1.2833
  810MOL0     H 9320  10.314   8.506   8.368 -1.4262 -1.3097 -0.2958
  810MOL0     H 9321  10.156   8.512   8.460 -1.1179 -2.0530  1.2980
  810MOL0     H 9322  10.221   8.300   8.583  1.4790 -1.4717 -0.8074
  810MOL0     H 9323  10.374   8.309   8.510 -0.8593 -2.8426  0.4072
  810MOL0     H 9324  10.267   8.240   8.285  0.9723  1.9670 -0.0849
  810MOL0     H 9325  10.180   8.146   8.414  1.0187  0.5301  0.2006
  810MOL0     H 9326  10.084   8.376   8.264  0.2011 -0.1995 -0.3729
  810MOL0     H 9327  10.010   8.345   8.421  2.3418 -0.5781  1.3872
  810MOL0     H 9328   9.954   8.120   8.336 -1.4239 -1.1116 -2.0085
  810MOL0     H 9329   9.877   8.252   8.237  1.1818  2.9017 -2.1219
  810MOL0     H 9330  10.547   9.120   8.662  0.6620  1.1946 -0.4065
  810MOL0     H 9331  10.472   9.325   8.528 -0.7803  1.5504 -0.3243
  810MOL0     H 9332  10.307   9.548   8.274 -0.7540  3.2960  4.1852
  810MOL0     H 9333  10.271   9.761   8.148  1.6917  1.6599  4.2849
  810MOL0     H 9334   9.717  10.508   8.005  2.9583  1.5969 -0.1566
  810MOL0     H 9335   9.487  10.477   7.999 -0.1958  0.4992  1.9925
  810MOL0     H 9336   9.098  10.488   7.647  0.6790 -2.1365  1.9675
  810MOL0     H 9337   8.850  10.444   7.649 -0.7108  1.2845 -0.7079
  810MOL0     H 9338   8.599  10.694   7.870 -1.0943  0.2722  3.6939
  810MOL0     H 9339   8.597  10.581   7.994  0.3818 -0.7821 -0.9495
  810MOL0     H 9340   8.388  10.543   7.931 -0.8720  0.8603  0.3073
  810MOL0     H 9341   8.483  10.426   7.819  0.6468 -0.0946  0.6882
  810MOL0     H 9342   8.471  10.576   7.637 -2.0289  0.1375 -0.9200
  810MOL0     H 9343   8.381  10.697   7.722 -0.7208  0.0676 -0.1703
  810MOL0     H 9344   8.285  10.415   7.656 -1.2147 -0.2575  0.2215
  810MOL0     H 9345   8.182  10.524   7.744 -1.0445  0.3001 -1.1335
  810MOL0     H 9346   8.163  10.643   7.329  1.3796 -3.2904 -1.6832
  810MOL0     H 9347   8.803  10.644   8.010 -0.5172 -0.2661 -1.1469
  810MOL0     H 9348   8.978  10.737   8.131  0.6519 -2.9276  1.3171
  810MOL0     H 9349   9.135  10.662   8.128  2.3196  3.2625  1.3516
  810MOL0     H 9350   9.103  10.813   8.035  0.0401  0.0696  2.3621
  811MOL0     O 9351  10.108   0.187   9.607 -0.7350 -0.8170 -0.6780
  811MOL0     C 9352  10.093   0.289   9.535 -0.7362 -0.5185 -0.9523
  811MOL0     O 9353  10.000   0.385   9.562  0.6633  0.3055  0.5082
  811MOL0     C 9354   9.918   0.371   9.670 -0.4441  0.1571 -0.1595
  811MOL0     C 9355   9.956   0.378   9.807 -0.0540  0.5381 -0.7483
  811MOL0     C 9356   9.854   0.369   9.907  0.5012  1.0987  0.0731
  811MOL0     C 9357   9.715   0.357   9.877 -0.5770 -0.2854  0.6218
  811MOL0     O 9358   9.609   0.371   9.965  0.2210 -0.0039  0.4198
  811MOL0     C 9359   9.622   0.386  10.105 -0.2085 -0.0489  0.4477
  811MOL0     C 9360   9.532   0.284  10.172 -0.3645 -0.4136 -0.2343
  811MOL0     C 9361   9.544   0.263  10.328  0.2307  0.4634  0.7262
  811MOL0     C 9362   9.433   0.173  10.382 -0.6169  0.7232  0.1638
  811MOL0     C 9363   9.433   0.140  10.533 -0.1360  0.2685  0.0041
  811MOL0     C 9364   9.575   0.085  10.572 -0.0927 -0.4365  0.4738
  811MOL0     C 9365   9.574   0.017  10.701 -0.0478 -0.6262 -0.0646
  811MOL0     C 9366   9.693  -0.071  10.739 -0.9732  0.0615 -0.1248
  811MOL0     N 9367   9.831  -0.031  10.708  0.7158 -0.5080 -0.1801
  811MOL0     C 9368   9.914  -0.097  10.619 -0.6821 -0.6386  0.6438
  811MOL0     C 9369  10.038  -0.040  10.638 -0.3842  0.9673  0.0302
  811MOL0     C 9370  10.171  -0.083  10.577  0.3340  0.4554 -0.5468
  811MOL0     C 9371  10.259  -0.173  10.662 -0.0560  0.4191 -0.5449
  811MOL0     C 9372  10.358  -0.094  10.754 -0.6123  0.1636  0.0809
  811MOL0     C 9373  10.474  -0.033  10.686  1.6235 -1.1100 -0.1448
  811MOL0     O 9374  10.556  -0.127  10.635  0.1668 -0.3212  0.7754
  811MOL0     C 9375  10.687  -0.141  10.677 -0.0093  0.8605 -0.0507
  811MOL0     C 9376  10.769  -0.029  10.682  0.3305 -0.2601 -0.7131
  811MOL0     C 9377  10.903  -0.040  10.726  0.0917 -0.5150  0.5349
  811MOL0     C 9378  10.954  -0.165  10.763  0.0928 -1.2646 -0.4182
  811MOL0     C 9379  11.096  -0.180  10.792 -0.6674  0.0846 -0.7756
  811MOL0     O 9380  11.147  -0.305  10.808 -0.3628 -0.4398 -0.2296
  811MOL0     C 9381  11.284  -0.319  10.817  0.5289  0.1413  1.2207
  811MOL0     C 9382  11.343  -0.367  10.930 -0.0960  0.8375 -0.1110
  811MOL0     C 9383  11.489  -0.387  10.936  0.7706  0.5989  0.2455
  811MOL0     C 9384  11.575  -0.357  10.824  0.8143 -0.0439 -0.3660
  811MOL0     O 9385  11.712  -0.356  10.826 -0.1430  0.7766  0.0351
  811MOL0     C 9386  11.778  -0.258  10.900 -0.2219  0.1029  0.4260
  811MOL0     C 9387  11.927  -0.307  10.924 -0.0083  0.5590 -0.7627
  811MOL0     C 9388  11.981  -0.268  11.076 -0.7302 -0.0217  0.1149
  811MOL0     C 9389  12.113  -0.335  11.104 -0.4570  0.4525 -0.4646
  811MOL0     C 9390  12.121  -0.395  11.242 -0.1447  0.2704 -0.0815
  811MOL0     C 9391  12.258  -0.467  11.239  0.3371  1.0780 -0.3749
  811MOL0     C 9392  12.315  -0.495  11.379 -1.2436  0.3592 -0.3229
  811MOL0     C 9393  12.357  -0.377  11.455 -0.7516 -0.3350 -0.4651
  811MOL0    Cl 9394  12.218  -0.315  11.544  0.0526 -0.2019 -0.1972
  811MOL0     C 9395  11.510  -0.317  10.706 -0.2612  0.1759 -0.3737
  811MOL0     C 9396  11.367  -0.289  10.706 -0.3068 -0.1597  0.2223
  811MOL0     O 9397  11.163  -0.069  10.801  0.1373  0.1147  0.4749
  811MOL0     C 9398  10.875  -0.280  10.763 -0.0526  0.5648  0.2971
  811MOL0     C 9399  10.743  -0.268  10.715  0.4461 -0.8698 -0.2916
  811MOL0     N 9400  10.022   0.054  10.745 -0.5159  0.2786  0.3008
  811MOL0     N 9401   9.900   0.065  10.776 -0.5503 -0.2328 -0.4215
  811MOL0     C 9402   9.689   0.341   9.739 -0.4605 -0.7061 -0.6475
  811MOL0     C 9403   9.786   0.368   9.639 -0.5642 -0.0405  0.3244
  811MOL0     C 9404  10.186   0.299   9.418  0.2151  0.3743  0.3892
  811MOL0     C 9405  10.306   0.233   9.404 -0.2429 -0.2362 -0.2766
  811MOL0     C 9406  10.399   0.265   9.295 -0.4567  0.7779 -0.5273
  811MOL0     C 9407  10.368   0.351   9.199  0.1786  0.4486  0.2817
  811MOL0     O 9408  10.449   0.377   9.094  0.0869  0.2067  0.1074
  811MOL0     C 9409  10.581   0.390   9.131 -0.1942 -0.1208 -0.5509
  811MOL0     C 9410  10.655   0.484   9.046  0.3497  0.0917  0.9933
  811MOL0     C 9411  10.570   0.595   8.991  0.2002 -0.3272  0.8164
  811MOL0     C 9412  10.655   0.679   8.906 -0.2892  0.3826 -0.1493
  811MOL0     C 9413  10.679   0.620   8.773  1.5090  0.0469 -0.2810
  811MOL0     C 9414  10.723   0.581   8.668  0.2892  0.0665  0.1024
  811MOL0     C 9415  10.249   0.418   9.210 -0.0239 -0.3948  1.2996
  811MOL0     C 9416  10.156   0.390   9.305  0.5361  0.1539  0.6239
  811MOL0     C 9417  10.027   0.467   9.287 -1.0675  0.0624 -0.0127
  811MOL0     H 9418  10.055   0.405   9.844 -1.4699  2.5635  1.9724
  811MOL0     H 9419   9.887   0.378  10.010  2.9456  2.3787 -0.7355
  811MOL0     H 9420   9.723   0.389  10.146  1.4564 -2.4042 -2.9892
  811MOL0     H 9421   9.583   0.484  10.133  0.8274  0.8796 -1.1840
  811MOL0     H 9422   9.561   0.191  10.123 -1.9428 -0.0028 -2.0774
  811MOL0     H 9423   9.428   0.313  10.153 -0.6321  1.0969  2.8548
  811MOL0     H 9424   9.538   0.359  10.379 -0.5712  0.3776  0.8093
  811MOL0     H 9425   9.643   0.224  10.350  0.2675  0.9965  1.5370
  811MOL0     H 9426   9.342   0.230  10.361  0.2663  2.7892  1.5780
  811MOL0     H 9427   9.431   0.076  10.332 -0.2131  1.1450 -0.6880
  811MOL0     H 9428   9.405   0.233  10.582  2.3071 -0.0549  2.2500
  811MOL0     H 9429   9.358   0.064  10.556  0.5456 -0.7771 -1.1024
  811MOL0     H 9430   9.604   0.001  10.507  0.2372 -1.4451  1.8850
  811MOL0     H 9431   9.647   0.166  10.578 -1.0529  0.6750 -1.6973
  811MOL0     H 9432   9.488  -0.051  10.712 -3.7068  3.9056  3.6218
  811MOL0     H 9433   9.555   0.095  10.775  1.5552  1.2707 -1.5612
  811MOL0     H 9434   9.701  -0.081  10.848  1.6256  3.6588  0.2006
  811MOL0     H 9435   9.674  -0.172  10.702 -0.7667 -0.4131  1.0094
  811MOL0     H 9436   9.899  -0.165  10.536  0.6391  1.0022 -1.0185
  811MOL0     H 9437  10.141  -0.142  10.490  1.7731 -3.3240  1.2908
  811MOL0     H 9438  10.223   0.009  10.547 -0.9881  2.1980  2.0671
  811MOL0     H 9439  10.199  -0.248  10.715 -0.7391 -0.2188 -2.1570
  811MOL0     H 9440  10.325  -0.233  10.599  0.1569 -1.1228  1.0619
  811MOL0     H 9441  10.397  -0.152  10.838 -0.5109  1.3969  0.9273
  811MOL0     H 9442  10.301  -0.007  10.788 -2.3435 -1.2541  0.9792
  811MOL0     H 9443  10.517   0.026  10.767 -1.3019  0.9557  0.0648
  811MOL0     H 9444  10.438   0.036  10.609  2.2578  0.8116  1.1928
  811MOL0     H 9445  10.735   0.070  10.652  0.6409 -0.1410 -0.6772
  811MOL0     H 9446  10.955   0.052  10.751  2.9524 -2.3100  1.7112
  811MOL0     H 9447  11.282  -0.389  11.016 -1.7779  0.7359 -1.2772
  811MOL0     H 9448  11.531  -0.417  11.032  0.4198 -0.0425  0.2040
  811MOL0     H 9449  11.776  -0.157  10.857  0.0765  1.2580  2.9293
  811MOL0     H 9450  11.728  -0.252  10.997 -0.5043  0.7753  0.2485
  811MOL0     H 9451  11.918  -0.415  10.909  0.3627  0.8073 -3.1069
  811MOL0     H 9452  12.002  -0.277  10.850  1.3474 -1.3254 -0.2276
  811MOL0     H 9453  12.007  -0.164  11.098 -0.4965 -0.3569  1.4782
  811MOL0     H 9454  11.905  -0.299  11.148 -2.0576  3.1608  0.2542
  811MOL0     H 9455  12.198  -0.266  11.098  0.6455 -0.8390 -0.1874
  811MOL0     H 9456  12.131  -0.413  11.028 -1.8048 -0.1785 -0.1585
  811MOL0     H 9457  12.032  -0.454  11.263 -0.2287  1.1198  2.2006
  811MOL0     H 9458  12.114  -0.312  11.312 -1.5036  0.9670 -1.0063
  811MOL0     H 9459  12.252  -0.553  11.172 -0.2775  1.8178 -1.3077
  811MOL0     H 9460  12.336  -0.402  11.196  3.0045  0.5623  3.1660
  811MOL0     H 9461  12.399  -0.564  11.372  0.6020  2.4649  0.1463
  811MOL0     H 9462  12.248  -0.560  11.437  0.7267 -4.4733 -2.8471
  811MOL0     H 9463  12.430  -0.403  11.531  0.7928  1.7497 -1.1574
  811MOL0     H 9464  12.409  -0.301  11.396  0.2031  0.0004  0.7741
  811MOL0     H 9465  11.567  -0.310  10.614 -1.7142  1.8203 -1.2191
  811MOL0     H 9466  11.306  -0.252  10.624  0.3606 -0.1857 -0.2954
  811MOL0     H 9467  10.916  -0.369  10.810  3.1055  1.7449  0.0332
  811MOL0     H 9468  10.666  -0.345  10.713  0.5749 -1.0668  1.3928
  811MOL0     H 9469   9.585   0.328   9.709 -0.8554  0.8356 -0.0394
  811MOL0     H 9470   9.748   0.364   9.537 -2.9413 -4.6648  1.1478
  811MOL0     H 9471  10.334   0.166   9.484 -2.1856 -0.7290  0.0317
  811MOL0     H 9472  10.494   0.213   9.293 -0.4826  0.7475 -1.3872
  811MOL0     H 9473  10.625   0.290   9.119  3.8107  1.6139 -1.9884
  811MOL0     H 9474  10.594   0.419   9.236  1.3284 -0.3519 -0.6462
  811MOL0     H 9475  10.703   0.419   8.973 -1.0476 -1.6739  1.5524
  811MOL0     H 9476  10.738   0.528   9.101  1.1764  2.1093 -1.6785
  811MOL0     H 9477  10.523   0.647   9.074  0.2341  2.0309 -0.5569
  811MOL0     H 9478  10.486   0.565   8.928  1.8320  1.7357 -2.6875
  811MOL0     H 9479  10.599   0.767   8.873 -1.1988 -1.0162 -2.7387
  811MOL0     H 9480  10.749   0.701   8.955  0.0231 -1.2662  0.0403
  811MOL0     H 9481  10.751   0.545   8.571  0.8169 -3.1528  1.3304
  811MOL0     H 9482  10.225   0.494   9.135  0.4661 -1.9421 -0.5036
  811MOL0     H 9483   9.938   0.406   9.305 -0.7824 -0.0801  0.9460
  811MOL0     H 9484  10.014   0.544   9.364  1.5387 -0.6584  1.2648
  811MOL0     H 9485  10.022   0.525   9.194 -2.2551  3.7307  2.1251
  812MOL0     O 9486   0.211   5.087   7.680  0.1049  0.5112 -0.5695
  812MOL0     C 9487   0.107   5.019   7.666  0.4096  0.0390 -0.2973
  812MOL0     O 9488   0.046   4.944   7.758 -0.0866 -0.1017 -0.4393
  812MOL0     C 9489   0.102   4.959   7.877  0.0811  0.0448 -1.2044
  812MOL0     C 9490   0.159   4.839   7.938  0.5027  0.4205  0.1681
  812MOL0     C 9491   0.216   4.841   8.062 -0.2767  0.2665 -0.4992
  812MOL0     C 9492   0.207   4.957   8.142  0.2981 -0.3008  0.3453
  812MOL0     O 9493   0.238   4.948   8.279 -0.2507 -0.1707  0.8023
  812MOL0     C 9494   0.238   5.064   8.354  0.0603 -0.0266  0.6845
  812MOL0     C 9495   0.333   5.049   8.481 -0.3087 -0.8323 -0.3599
  812MOL0     C 9496   0.308   4.921   8.547 -0.6725 -0.1256  0.2422
  812MOL0     C 9497   0.188   4.912   8.647 -0.1359 -0.1662 -0.3696
  812MOL0     C 9498   0.199   4.788   8.737 -0.8653  0.1067 -1.2984
  812MOL0     C 9499   0.282   4.821   8.862 -0.5925  0.9796 -1.0964
  812MOL0     C 9500   0.205   4.893   8.973  1.1362 -0.5540  0.2134
  812MOL0     C 9501   0.065   4.836   9.011  1.1002 -0.7407  0.0199
  812MOL0     N 9502   0.093   4.722   9.098  0.2181 -0.9363 -0.2891
  812MOL0     C 9503   0.094   4.712   9.236  0.9496 -0.3207  0.1405
  812MOL0     C 9504   0.060   4.579   9.251 -1.1317 -0.5956  0.4356
  812MOL0     C 9505   0.035   4.511   9.379 -0.2218 -0.0766 -0.2945
  812MOL0     C 9506   0.140   4.542   9.482 -0.2839  0.0824  0.5053
  812MOL0     C 9507   0.120   4.480   9.622 -0.1621 -0.3250  0.3360
  812MOL0     C 9508  -0.020   4.504   9.682  0.0140 -0.5618  1.1613
  812MOL0     O 9509  -0.040   4.645   9.683  0.4534 -0.2301 -0.6571
  812MOL0     C 9510  -0.155   4.700   9.729 -0.2874 -0.0940 -0.2593
  812MOL0     C 9511  -0.283   4.647   9.714 -0.1406  0.7377  0.0361
  812MOL0     C 9512  -0.389   4.702   9.784  0.5504 -0.0937  0.4194
  812MOL0     C 9513  -0.370   4.803   9.878  0.7806  0.4895  0.9316
  812MOL0     C 9514  -0.488   4.867   9.943 -0.2245 -0.5301 -0.4959
  812MOL0     O 9515  -0.616   4.814   9.926 -0.2251  0.5520  0.8058
  812MOL0     C 9516  -0.727   4.884   9.963 -0.0394 -1.0327 -0.2680
  812MOL0     C 9517  -0.781   4.857  10.084  0.0337 -1.0504 -0.4806
  812MOL0     C 9518  -0.900   4.915  10.132 -0.8279 -0.2872 -0.9197
  812MOL0     C 9519  -0.979   5.006  10.057  0.0797  0.7735  0.2030
  812MOL0     O 9520  -1.097   5.063  10.101  0.2021 -0.5079 -0.4958
  812MOL0     C 9521  -1.170   4.988  10.193  1.0878 -0.3355  0.0299
  812MOL0     C 9522  -1.273   5.074  10.252  0.0296  0.1605  1.2024
  812MOL0     C 9523  -1.380   5.148  10.172  0.0910  0.5502  0.7823
  812MOL0     C 9524  -1.492   5.051  10.140 -0.5719  0.6728  0.7385
  812MOL0     C 9525  -1.606   5.128  10.059 -0.0612  0.4472 -0.6760
  812MOL0     C 9526  -1.574   5.179   9.917 -1.0442 -0.3382 -1.4028
  812MOL0     C 9527  -1.700   5.230   9.834 -0.1708 -0.1316 -0.0485
  812MOL0     C 9528  -1.653   5.281   9.690  0.0264 -0.1612 -0.8329
  812MOL0    Cl 9529  -1.577   5.136   9.603 -0.0293 -0.2050 -0.5114
  812MOL0     C 9530  -0.921   5.034   9.930 -1.0566 -0.8099 -0.7962
  812MOL0     C 9531  -0.799   4.970   9.876  0.1255 -0.3950  0.6805
  812MOL0     O 9532  -0.465   4.957  10.025  0.4687 -0.4631  0.0348
  812MOL0     C 9533  -0.244   4.856   9.887  0.5153  0.8908 -0.6613
  812MOL0     C 9534  -0.133   4.811   9.817  0.6378 -0.2140 -0.9387
  812MOL0     N 9535   0.048   4.519   9.132 -0.3078  0.3718 -0.5421
  812MOL0     N 9536   0.067   4.611   9.044  0.1206 -0.0530 -0.7874
  812MOL0     C 9537   0.148   5.075   8.079 -0.1977 -0.9077 -0.0174
  812MOL0     C 9538   0.094   5.075   7.952 -0.1161 -0.0761 -0.0623
  812MOL0     C 9539   0.025   5.025   7.539  1.3110  0.0247  0.8518
  812MOL0     C 9540  -0.070   4.931   7.509  0.8313 -0.2600  0.5254
  812MOL0     C 9541  -0.156   4.941   7.396 -0.7113  0.6750 -0.1838
  812MOL0     C 9542  -0.141   5.057   7.309  0.8441 -0.4291  0.1628
  812MOL0     O 9543  -0.228   5.082   7.201  0.2292  0.1109  0.3201
  812MOL0     C 9544  -0.356   5.017   7.178  0.0372  0.4129  0.3174
  812MOL0     C 9545  -0.431   5.094   7.066  0.4506 -0.1284 -0.2538
  812MOL0     C 9546  -0.497   5.215   7.135  0.0409  0.4607 -0.1069
  812MOL0     C 9547  -0.531   5.323   7.028  0.1864  0.9499 -0.6624
  812MOL0     C 9548  -0.554   5.446   7.101 -0.1363 -0.2539 -0.6747
  812MOL0     C 9549  -0.580   5.548   7.162 -0.1712  0.7724  0.3086
  812MOL0     C 9550  -0.039   5.142   7.326  0.5740 -0.9027 -0.2532
  812MOL0     C 9551   0.037   5.138   7.445  0.8877 -0.2615  0.3743
  812MOL0     C 9552   0.144   5.245   7.457 -0.1238 -0.5582 -0.3433
  812MOL0     H 9553   0.141   4.751   7.878  1.5738  1.5336 -1.8772
  812MOL0     H 9554   0.244   4.748   8.112 -1.2368  0.4014  0.3074
  812MOL0     H 9555   0.269   5.151   8.295 -2.3962  0.0667 -0.6013
  812MOL0     H 9556   0.137   5.086   8.389  0.1405  1.1783  0.2334
  812MOL0     H 9557   0.317   5.136   8.545  0.7318 -1.4712  0.7925
  812MOL0     H 9558   0.437   5.043   8.449 -0.5218 -1.4418 -0.9702
  812MOL0     H 9559   0.404   4.890   8.590 -1.0441  0.1409  1.2993
  812MOL0     H 9560   0.303   4.838   8.477  1.6395 -1.2590  1.3015
  812MOL0     H 9561   0.197   5.006   8.702 -2.7229 -0.0766  0.0151
  812MOL0     H 9562   0.089   4.930   8.604 -0.3842  0.2226  0.3456
  812MOL0     H 9563   0.101   4.750   8.768 -0.9007 -0.6418 -2.2860
  812MOL0     H 9564   0.252   4.714   8.677  0.7591 -0.3907  0.6255
  812MOL0     H 9565   0.326   4.729   8.902  1.2035  1.4201 -1.9768
  812MOL0     H 9566   0.365   4.884   8.830 -0.2913  1.2999  0.2682
  812MOL0     H 9567   0.187   4.996   8.941  0.6081 -0.2586  1.4224
  812MOL0     H 9568   0.259   4.901   9.067 -3.6325  0.0492  3.2398
  812MOL0     H 9569   0.020   4.913   9.075 -2.6388  1.6278 -4.8401
  812MOL0     H 9570  -0.004   4.813   8.930  2.2920 -1.2833 -0.8741
  812MOL0     H 9571   0.103   4.780   9.320 -0.2221 -1.3112  1.1135
  812MOL0     H 9572  -0.062   4.553   9.409  0.9430  0.6902  2.7183
  812MOL0     H 9573   0.018   4.403   9.375 -0.6204 -0.0412  0.2987
  812MOL0     H 9574   0.240   4.519   9.444 -0.3430 -1.1249  1.0176
  812MOL0     H 9575   0.125   4.647   9.508 -0.7743 -0.1881  1.3734
  812MOL0     H 9576   0.197   4.518   9.690  0.6453  0.6087 -1.0555
  812MOL0     H 9577   0.136   4.372   9.611  0.5727  0.0433 -3.7279
  812MOL0     H 9578  -0.033   4.453   9.778  2.3093 -1.4627  1.0523
  812MOL0     H 9579  -0.102   4.463   9.621 -0.1413  0.0881  0.9293
  812MOL0     H 9580  -0.305   4.560   9.654  3.5692 -0.8350  0.6545
  812MOL0     H 9581  -0.485   4.654   9.768  0.8754 -0.5021 -0.3473
  812MOL0     H 9582  -0.728   4.785  10.145 -0.2243  0.8975  2.2299
  812MOL0     H 9583  -0.914   4.882  10.234  0.5315  3.4432  0.6204
  812MOL0     H 9584  -1.210   4.899  10.144  2.8317 -2.3273  1.9665
  812MOL0     H 9585  -1.102   4.954  10.272  0.1800 -3.4142 -0.3792
  812MOL0     H 9586  -1.316   5.020  10.336 -1.9189  1.7638  1.3189
  812MOL0     H 9587  -1.211   5.147  10.304  2.0598  0.1497 -1.0522
  812MOL0     H 9588  -1.421   5.232  10.228 -0.6933 -0.1272  1.2452
  812MOL0     H 9589  -1.342   5.193  10.080 -0.8158 -1.2094 -0.5301
  812MOL0     H 9590  -1.531   4.993  10.224 -2.0383 -1.2311 -1.1326
  812MOL0     H 9591  -1.462   4.972  10.071  0.5317 -0.4758  2.4645
  812MOL0     H 9592  -1.636   5.207  10.127  0.4487  1.6549 -1.8090
  812MOL0     H 9593  -1.692   5.063  10.039  1.1623 -0.5811 -3.0278
  812MOL0     H 9594  -1.503   5.262   9.926  0.9870 -2.2096  1.8544
  812MOL0     H 9595  -1.523   5.092   9.876 -1.6581 -2.7632  2.4633
  812MOL0     H 9596  -1.746   5.317   9.882 -2.4603 -0.5311 -1.3607
  812MOL0     H 9597  -1.784   5.162   9.816  1.5729 -3.0101  1.9045
  812MOL0     H 9598  -1.743   5.314   9.637  0.0852  2.8727  0.7671
  812MOL0     H 9599  -1.590   5.371   9.688 -1.5937  1.0676  0.5462
  812MOL0     H 9600  -0.976   5.096   9.861 -0.0473 -1.4369 -2.2238
  812MOL0     H 9601  -0.758   4.972   9.776 -0.4321 -2.6996  0.3522
  812MOL0     H 9602  -0.223   4.913   9.976 -0.9156  0.1105  0.2029
  812MOL0     H 9603  -0.035   4.854   9.833  0.0547  1.4416 -1.5532
  812MOL0     H 9604   0.127   5.160   8.143  0.3055 -0.3778 -0.5426
  812MOL0     H 9605   0.054   5.166   7.909  3.1683  1.0160 -1.1057
  812MOL0     H 9606  -0.084   4.837   7.560 -0.3535 -0.1202  0.4732
  812MOL0     H 9607  -0.223   4.856   7.389  0.2982 -0.0842 -0.9276
  812MOL0     H 9608  -0.414   5.004   7.270 -2.0847 -1.0867 -1.1404
  812MOL0     H 9609  -0.334   4.919   7.136 -2.7738  0.1345 -0.7249
  812MOL0     H 9610  -0.502   5.021   7.026  1.2229 -1.1309  0.1626
  812MOL0     H 9611  -0.364   5.125   6.985 -1.9299  1.0100 -1.9127
  812MOL0     H 9612  -0.427   5.255   7.209  2.0057  0.1377 -1.7214
  812MOL0     H 9613  -0.593   5.197   7.185 -0.9768  4.9045 -0.0074
  812MOL0     H 9614  -0.454   5.335   6.951 -2.7878  2.9849 -3.5895
  812MOL0     H 9615  -0.616   5.280   6.973 -0.0312 -2.3875  1.9358
  812MOL0     H 9616  -0.596   5.640   7.214 -0.9532  0.4344  0.6670
  812MOL0     H 9617  -0.032   5.210   7.241 -0.3578  2.3759  2.0921
  812MOL0     H 9618   0.125   5.307   7.544  4.2144 -1.6638  1.6456
  812MOL0     H 9619   0.250   5.220   7.469  1.1991  3.5195 -2.0084
  812MOL0     H 9620   0.139   5.314   7.372 -1.7907  0.3852  0.4720
  813MOL0     O 9621   6.674   8.675   5.885 -0.2623 -0.3885 -0.4206
  813MOL0     C 9622   6.666   8.696   6.007 -0.3889 -0.5716  0.0899
  813MOL0     O 9623   6.774   8.685   6.083 -0.3179 -0.8602 -0.4704
  813MOL0     C 9624   6.892   8.659   6.020  0.4047  1.6122  0.2540
  813MOL0     C 9625   6.973   8.759   5.979 -0.0528 -0.0492 -0.3127
  813MOL0     C 9626   7.096   8.722   5.915  0.5487 -0.2161 -0.3311
  813MOL0     C 9627   7.135   8.593   5.894  0.4207  0.0054 -0.9964
  813MOL0     O 9628   7.259   8.554   5.855  0.0018 -0.5527  0.2064
  813MOL0     C 9629   7.291   8.416   5.867  0.4313  0.1478 -0.9194
  813MOL0     C 9630   7.440   8.386   5.823  0.4694 -0.4612  0.3026
  813MOL0     C 9631   7.451   8.257   5.736  0.2982  0.3767 -0.6556
  813MOL0     C 9632   7.592   8.244   5.695  0.4653  0.2713  0.2571
  813MOL0     C 9633   7.628   8.170   5.570  0.3149  1.0971 -0.0837
  813MOL0     C 9634   7.596   8.020   5.589 -0.5294  0.1446  0.7373
  813MOL0     C 9635   7.641   7.938   5.470  1.4807 -1.1249 -0.0898
  813MOL0     C 9636   7.606   7.787   5.478 -0.4836 -0.5315  0.3561
  813MOL0     N 9637   7.710   7.717   5.412 -0.1804  0.4497  0.6073
  813MOL0     C 9638   7.801   7.631   5.462 -0.0095 -0.5660 -0.4474
  813MOL0     C 9639   7.860   7.563   5.363  0.7052  0.8571 -0.1991
  813MOL0     C 9640   7.963   7.447   5.369  0.2653  0.5373 -0.5198
  813MOL0     C 9641   7.921   7.322   5.291 -0.3083  0.9319 -0.6303
  813MOL0     C 9642   7.785   7.267   5.337  1.0049 -0.8108 -0.2804
  813MOL0     C 9643   7.780   7.151   5.429 -0.2558 -0.2341 -0.4210
  813MOL0     O 9644   7.841   7.160   5.561  0.1901 -0.2588  0.2860
  813MOL0     C 9645   7.756   7.188   5.669 -1.2507  0.4733  0.0251
  813MOL0     C 9646   7.827   7.204   5.792 -0.1320  0.1520 -0.7552
  813MOL0     C 9647   7.761   7.247   5.904  0.3813  0.8238 -0.6460
  813MOL0     C 9648   7.619   7.263   5.903 -0.1483  0.0906  0.0032
  813MOL0     C 9649   7.546   7.314   6.027  0.5723 -0.0712  0.5038
  813MOL0     O 9650   7.415   7.358   6.013 -0.3450 -0.6979 -0.2782
  813MOL0     C 9651   7.354   7.434   6.111 -0.3180 -0.1299 -0.3922
  813MOL0     C 9652   7.415   7.537   6.179 -0.5747 -1.0391  0.1555
  813MOL0     C 9653   7.331   7.617   6.266 -0.0199 -0.9143 -0.1806
  813MOL0     C 9654   7.199   7.597   6.270 -0.5310 -0.6208 -0.3764
  813MOL0     O 9655   7.106   7.685   6.326  0.3433  0.1200 -0.7772
  813MOL0     C 9656   7.145   7.794   6.404  0.0710 -0.2679 -0.3250
  813MOL0     C 9657   7.025   7.884   6.440  0.1150  0.4598 -0.3297
  813MOL0     C 9658   7.078   8.003   6.511 -0.4010  0.3353  0.4969
  813MOL0     C 9659   6.959   8.097   6.543  0.8394 -1.3647 -0.2804
  813MOL0     C 9660   6.909   8.083   6.687 -0.2500 -0.7346  0.3911
  813MOL0     C 9661   6.810   8.184   6.736 -0.1540 -0.8118  0.0547
  813MOL0     C 9662   6.801   8.172   6.901  0.1914  0.3564  0.7506
  813MOL0     C 9663   6.674   8.227   6.961 -0.0133  0.4235  0.2701
  813MOL0    Cl 9664   6.541   8.119   6.923 -0.3163 -0.7509  0.2511
  813MOL0     C 9665   7.139   7.497   6.193 -0.1362 -0.2457 -0.5211
  813MOL0     C 9666   7.219   7.429   6.111  0.4038  0.8613 -0.0480
  813MOL0     O 9667   7.610   7.315   6.133 -0.6764  0.0561 -0.0936
  813MOL0     C 9668   7.553   7.259   5.776  0.6235  0.1116  0.3434
  813MOL0     C 9669   7.622   7.229   5.665  0.8922  0.1567  0.4438
  813MOL0     N 9670   7.804   7.611   5.244  1.3471 -0.1465  0.0520
  813MOL0     N 9671   7.723   7.710   5.274 -0.4705 -0.5027 -0.9217
  813MOL0     C 9672   7.045   8.500   5.941  0.3851  0.3249  0.3932
  813MOL0     C 9673   6.915   8.531   5.986 -0.3071  0.4419  0.5692
  813MOL0     C 9674   6.545   8.760   6.057  0.6000  0.0053 -0.0383
  813MOL0     C 9675   6.480   8.864   5.984  0.0540 -0.1301 -0.0643
  813MOL0     C 9676   6.367   8.926   6.030  0.5096 -0.5909  0.7101
  813MOL0     C 9677   6.317   8.890   6.155  0.5536 -0.4833 -0.0527
  813MOL0     O 9678   6.207   8.956   6.196  0.5697  0.1884  0.1343
  813MOL0     C 9679   6.222   9.088   6.260  0.0609 -0.4078 -0.4501
  813MOL0     C 9680   6.256   9.080   6.411  0.5810  0.6394  0.4811
  813MOL0     C 9681   6.145   9.009   6.482 -0.3375  0.1741  0.0232
  813MOL0     C 9682   6.158   9.003   6.627  0.9257  0.1404  0.0046
  813MOL0     C 9683   6.135   9.132   6.680  0.7347  1.3036 -0.2585
  813MOL0     C 9684   6.130   9.247   6.706 -0.7355 -0.2724 -1.6906
  813MOL0     C 9685   6.376   8.795   6.231 -0.3050 -0.2914 -0.1948
  813MOL0     C 9686   6.489   8.734   6.188 -0.5063 -0.1509 -0.7235
  813MOL0     C 9687   6.548   8.626   6.276  0.4802  0.7833  0.5824
  813MOL0     H 9688   6.949   8.864   5.988 -0.8337 -0.2328 -0.1877
  813MOL0     H 9689   7.148   8.811   5.881 -1.2343  1.8425  1.9446
  813MOL0     H 9690   7.283   8.395   5.974  0.8274  4.2352  0.0638
  813MOL0     H 9691   7.216   8.356   5.814 -1.6390  2.8125 -1.2259
  813MOL0     H 9692   7.497   8.374   5.916  2.9665  0.4235 -1.0216
  813MOL0     H 9693   7.487   8.467   5.767  0.9076 -1.0871 -0.2467
  813MOL0     H 9694   7.376   8.272   5.657 -1.4582  0.8535  1.0129
  813MOL0     H 9695   7.432   8.169   5.798  1.4240  0.9748  0.5880
  813MOL0     H 9696   7.632   8.345   5.682 -3.9484  2.0551 -1.4159
  813MOL0     H 9697   7.655   8.194   5.769  2.6363 -1.4077 -2.4812
  813MOL0     H 9698   7.586   8.207   5.477 -0.4598 -1.7217 -0.9454
  813MOL0     H 9699   7.737   8.178   5.562  0.4999 -0.9802 -0.3084
  813MOL0     H 9700   7.637   7.990   5.686  0.0800 -0.3258  0.3428
  813MOL0     H 9701   7.487   8.013   5.591 -0.6526 -0.7538 -2.9136
  813MOL0     H 9702   7.749   7.947   5.484  1.1411 -0.8040  2.8956
  813MOL0     H 9703   7.609   7.976   5.372 -0.5483 -2.1957  0.1068
  813MOL0     H 9704   7.601   7.762   5.585 -2.5391  1.0658  0.7128
  813MOL0     H 9705   7.507   7.756   5.442 -0.3093 -0.8518  0.1521
  813MOL0     H 9706   7.811   7.620   5.570 -2.7044  1.9696  0.2001
  813MOL0     H 9707   8.064   7.484   5.347 -0.4711  0.9876 -3.5067
  813MOL0     H 9708   7.964   7.402   5.469  0.5592 -2.0197 -1.5942
  813MOL0     H 9709   7.916   7.352   5.186 -0.3622 -2.9785 -1.9108
  813MOL0     H 9710   7.996   7.243   5.299 -1.1853  0.1306 -0.1195
  813MOL0     H 9711   7.734   7.227   5.249 -0.1113 -0.7402  0.3086
  813MOL0     H 9712   7.719   7.347   5.372  1.2173 -2.0972  3.5558
  813MOL0     H 9713   7.830   7.068   5.378 -2.6410 -1.1531 -1.3946
  813MOL0     H 9714   7.677   7.117   5.434 -0.8168  1.2048 -1.6111
  813MOL0     H 9715   7.933   7.180   5.795 -0.5711 -2.3632 -2.2216
  813MOL0     H 9716   7.820   7.271   5.992  0.0390 -1.2258  0.2143
  813MOL0     H 9717   7.519   7.551   6.151 -0.0358 -1.0988  1.9413
  813MOL0     H 9718   7.361   7.709   6.316  1.7258 -2.0475  0.9790
  813MOL0     H 9719   7.196   7.754   6.492 -0.9718  1.5811  1.1975
  813MOL0     H 9720   7.217   7.857   6.351 -0.2763 -1.7498 -2.7102
  813MOL0     H 9721   6.986   7.924   6.346 -0.9008 -0.5729 -0.3550
  813MOL0     H 9722   6.945   7.833   6.494  0.7643 -1.8496 -1.4137
  813MOL0     H 9723   7.127   7.972   6.604 -2.1819  1.2486  1.8162
  813MOL0     H 9724   7.148   8.050   6.442 -3.4805 -1.0778 -4.0075
  813MOL0     H 9725   6.874   8.084   6.476 -1.3554  1.3872  1.7346
  813MOL0     H 9726   7.003   8.195   6.523 -1.9230  0.4634  1.8205
  813MOL0     H 9727   6.998   8.092   6.749  1.5121  0.0627 -2.1100
  813MOL0     H 9728   6.871   7.985   6.720 -0.1786 -0.5137  1.1345
  813MOL0     H 9729   6.836   8.286   6.711  1.2222 -1.3103 -0.6202
  813MOL0     H 9730   6.712   8.160   6.693 -0.3071  1.7658 -1.2083
  813MOL0     H 9731   6.882   8.237   6.938 -0.7157  1.8965  0.1350
  813MOL0     H 9732   6.806   8.068   6.933 -1.5039 -0.6859 -2.0941
  813MOL0     H 9733   6.680   8.225   7.070 -2.9527  0.0856  0.5010
  813MOL0     H 9734   6.656   8.329   6.926 -0.8955 -0.4298 -1.9684
  813MOL0     H 9735   7.032   7.482   6.201 -0.0745 -0.6974 -0.5084
  813MOL0     H 9736   7.183   7.353   6.041 -0.5072  3.4260 -2.5361
  813MOL0     H 9737   7.446   7.278   5.780  0.8925  1.5689  2.0023
  813MOL0     H 9738   7.567   7.225   5.572  1.4706  1.5167  0.0230
  813MOL0     H 9739   7.068   8.394   5.952  2.2899  0.4500 -1.6535
  813MOL0     H 9740   6.842   8.453   6.006 -1.2665  1.1379 -0.1344
  813MOL0     H 9741   6.508   8.874   5.880  1.6354  1.7019  0.4728
  813MOL0     H 9742   6.320   9.004   5.971  1.7429  0.0289  0.5128
  813MOL0     H 9743   6.127   9.142   6.263  1.5757  2.4171  0.3146
  813MOL0     H 9744   6.290   9.160   6.214  1.7590 -0.8785  1.1907
  813MOL0     H 9745   6.279   9.180   6.450  2.9903  0.2188  0.3246
  813MOL0     H 9746   6.356   9.034   6.416  0.1476 -0.2118  1.6403
  813MOL0     H 9747   6.147   8.909   6.437  4.8597  0.5807 -1.2742
  813MOL0     H 9748   6.048   9.051   6.453  1.1806  2.8150 -1.6224
  813MOL0     H 9749   6.086   8.931   6.667 -1.5561  0.4144 -3.4883
  813MOL0     H 9750   6.258   8.969   6.654  0.7722 -0.3992 -0.1048
  813MOL0     H 9751   6.131   9.354   6.710  3.7339 -0.1534 -0.8899
  813MOL0     H 9752   6.338   8.757   6.325 -0.1409 -3.2791 -1.2371
  813MOL0     H 9753   6.487   8.623   6.366 -1.4651  0.9600 -0.6585
  813MOL0     H 9754   6.551   8.524   6.238  0.3979 -0.5239  3.8052
  813MOL0     H 9755   6.650   8.651   6.307  0.5864 -2.8538  3.9021
  814MOL0     O 9756   6.320   9.492   3.663  0.1579  1.0556  0.9431
  814MOL0     C 9757   6.365   9.377   3.678  1.2367 -1.1195 -1.1335
  814MOL0     O 9758   6.485   9.329   3.626 -0.1137  0.2121 -0.7230
  814MOL0     C 9759   6.594   9.393   3.571  0.7475 -0.1773 -0.1388
  814MOL0     C 9760   6.690   9.307   3.526 -0.4627 -0.4926 -0.8352
  814MOL0     C 9761   6.821   9.352   3.488  0.7025  1.3334  0.2408
  814MOL0     C 9762   6.856   9.485   3.504  0.6333  0.4064 -0.2891
  814MOL0     O 9763   6.980   9.537   3.483 -0.4955 -0.3507 -0.1558
  814MOL0     C 9764   7.083   9.453   3.429 -0.2837 -0.2117  0.2221
  814MOL0     C 9765   7.195   9.550   3.388  0.0945 -0.3553 -0.4422
  814MOL0     C 9766   7.307   9.485   3.311  0.3785 -0.2655  1.1147
  814MOL0     C 9767   7.385   9.600   3.239  0.5608  0.4200  0.5566
  814MOL0     C 9768   7.498   9.559   3.136  0.7722 -0.0669 -0.1796
  814MOL0     C 9769   7.561   9.688   3.067 -0.7094 -0.3016  0.0141
  814MOL0     C 9770   7.713   9.675   3.031 -0.0124 -0.3800 -0.5053
  814MOL0     C 9771   7.754   9.790   2.933  0.8124 -1.1685  0.0218
  814MOL0     N 9772   7.884   9.763   2.874 -0.2847 -0.8979 -0.9531
  814MOL0     C 9773   7.910   9.790   2.748 -0.2859 -0.1410  0.3202
  814MOL0     C 9774   8.042   9.755   2.736 -0.4535 -0.0801  0.5915
  814MOL0     C 9775   8.130   9.785   2.615 -0.0564  0.5835 -0.2751
  814MOL0     C 9776   8.277   9.810   2.644  0.4215  0.3651 -0.6351
  814MOL0     C 9777   8.363   9.838   2.526  0.5672  0.4470 -0.4609
  814MOL0     C 9778   8.506   9.877   2.577  0.1634  0.1326  0.5138
  814MOL0     O 9779   8.520   9.992   2.666  0.2577 -0.3974 -0.6510
  814MOL0     C 9780   8.501  10.119   2.612  0.1711  0.2926  0.1611
  814MOL0     C 9781   8.502  10.154   2.479  0.1640 -0.1751  0.5840
  814MOL0     C 9782   8.456  10.284   2.438  0.3970  0.0608 -0.2133
  814MOL0     C 9783   8.405  10.381   2.534  0.6576 -0.2087 -0.1715
  814MOL0     C 9784   8.346  10.508   2.496 -0.2229 -0.1249 -0.2489
  814MOL0     O 9785   8.333  10.593   2.599 -0.2378 -0.0168 -0.1369
  814MOL0     C 9786   8.312  10.725   2.572 -0.0534  0.1221  0.0901
  814MOL0     C 9787   8.197  10.783   2.632 -1.1447  0.7583  0.1413
  814MOL0     C 9788   8.160  10.914   2.601  0.3907 -0.5238  0.0648
  814MOL0     C 9789   8.239  10.986   2.504 -0.2091  0.5655 -0.9767
  814MOL0     O 9790   8.217  11.114   2.467  0.5754 -0.2478 -0.1088
  814MOL0     C 9791   8.225  11.221   2.555  0.3981 -0.0905 -0.7134
  814MOL0     C 9792   8.360  11.283   2.557  0.1365 -0.3914  0.7055
  814MOL0     C 9793   8.409  11.338   2.424  0.4173  1.0770 -0.4587
  814MOL0     C 9794   8.560  11.367   2.419 -0.1587  0.1710 -0.2798
  814MOL0     C 9795   8.574  11.466   2.305  0.4309 -0.3170 -0.1297
  814MOL0     C 9796   8.525  11.423   2.162  0.2037  0.1423 -0.3247
  814MOL0     C 9797   8.571  11.278   2.133 -0.7686  0.1057 -0.5746
  814MOL0     C 9798   8.723  11.269   2.124 -1.1832  0.7717 -0.3545
  814MOL0    Cl 9799   8.748  11.098   2.091 -0.0256 -0.1424 -0.2814
  814MOL0     C 9800   8.348  10.921   2.442  0.5868 -0.4589 -0.4335
  814MOL0     C 9801   8.389  10.799   2.490 -0.1174  0.3532  0.0253
  814MOL0     O 9802   8.318  10.530   2.378 -0.1486  0.3751 -0.3476
  814MOL0     C 9803   8.412  10.344   2.668  0.3993  0.1884  1.2279
  814MOL0     C 9804   8.461  10.220   2.705 -0.3163 -1.5066 -0.5903
  814MOL0     N 9805   8.095   9.705   2.847  0.5635 -0.7602  0.6154
  814MOL0     N 9806   7.993   9.701   2.928  0.7387 -0.5554 -0.5304
  814MOL0     C 9807   6.752   9.571   3.530  0.1607 -0.1906 -0.1990
  814MOL0     C 9808   6.624   9.527   3.568  0.8266 -0.1250  0.1376
  814MOL0     C 9809   6.265   9.293   3.745  0.2606  0.4633 -1.2958
  814MOL0     C 9810   6.266   9.153   3.708 -0.3083  0.2609 -0.2446
  814MOL0     C 9811   6.184   9.062   3.762 -0.0499  0.2321 -0.4996
  814MOL0     C 9812   6.094   9.105   3.866 -0.7422  0.5952 -0.4722
  814MOL0     O 9813   6.022   9.003   3.921  0.0047  0.1023 -0.0069
  814MOL0     C 9814   5.976   9.017   4.060 -0.9361  0.6127 -0.3215
  814MOL0     C 9815   5.981   8.882   4.139  1.0282  0.5680  0.4000
  814MOL0     C 9816   5.888   8.782   4.069 -0.7520 -0.2854 -1.0647
  814MOL0     C 9817   5.821   8.689   4.171  0.0457 -0.0539  0.3046
  814MOL0     C 9818   5.736   8.763   4.267 -0.6633 -0.0699 -0.2658
  814MOL0     C 9819   5.648   8.822   4.328 -0.6901 -0.2321  0.5477
  814MOL0     C 9820   6.075   9.240   3.890  0.6257  0.3600 -0.7149
  814MOL0     C 9821   6.162   9.332   3.833 -0.0387  1.0487 -1.0620
  814MOL0     C 9822   6.144   9.477   3.876  0.4172 -0.5389  0.7200
  814MOL0     H 9823   6.679   9.199   3.524  2.6579 -0.9361  0.1281
  814MOL0     H 9824   6.892   9.278   3.453  0.3621  1.2721 -0.3426
  814MOL0     H 9825   7.113   9.384   3.508 -4.5487 -1.2561  1.2039
  814MOL0     H 9826   7.058   9.391   3.342  0.6567  1.0508 -1.0002
  814MOL0     H 9827   7.237   9.606   3.472 -4.2208  1.4843  0.7448
  814MOL0     H 9828   7.140   9.626   3.331 -1.5541 -0.7554  0.5739
  814MOL0     H 9829   7.278   9.424   3.225  1.1646 -0.4574  0.9851
  814MOL0     H 9830   7.380   9.439   3.378 -0.5373 -1.6305  1.2259
  814MOL0     H 9831   7.324   9.677   3.191  0.1385 -1.6417 -2.5728
  814MOL0     H 9832   7.443   9.646   3.319  1.3249  0.8695 -0.2299
  814MOL0     H 9833   7.567   9.492   3.188 -1.0962 -1.0087  1.2067
  814MOL0     H 9834   7.453   9.510   3.050  1.4160 -0.6784 -0.1684
  814MOL0     H 9835   7.503   9.722   2.981  1.7940  0.8526 -1.3179
  814MOL0     H 9836   7.555   9.763   3.146 -0.0128 -1.0765  0.8355
  814MOL0     H 9837   7.720   9.576   2.985  0.4565 -0.8707  0.5910
  814MOL0     H 9838   7.775   9.686   3.120 -1.5641  1.0316  0.4572
  814MOL0     H 9839   7.682   9.797   2.850 -1.0777  0.5650  1.6948
  814MOL0     H 9840   7.765   9.888   2.981 -0.6239 -0.8045 -0.3435
  814MOL0     H 9841   7.853   9.848   2.677 -1.1048  0.8440  1.7277
  814MOL0     H 9842   8.114   9.714   2.533  1.0433 -1.5075  1.2167
  814MOL0     H 9843   8.099   9.882   2.576  2.0127  1.2050 -0.4870
  814MOL0     H 9844   8.272   9.892   2.717 -0.2012 -0.8560  0.7338
  814MOL0     H 9845   8.316   9.722   2.695 -0.4954  0.6936  0.7019
  814MOL0     H 9846   8.319   9.915   2.463 -1.5855 -1.8850 -2.0484
  814MOL0     H 9847   8.356   9.743   2.472 -3.5000 -0.9136  2.0132
  814MOL0     H 9848   8.579   9.885   2.496  1.4281  2.0296  1.7560
  814MOL0     H 9849   8.533   9.791   2.639 -2.4787  0.5242  2.3713
  814MOL0     H 9850   8.549  10.095   2.401  0.6386 -0.2275  0.9069
  814MOL0     H 9851   8.463  10.321   2.336 -0.9908 -0.0562 -0.3623
  814MOL0     H 9852   8.157  10.731   2.718 -0.8551 -0.4848 -0.4543
  814MOL0     H 9853   8.083  10.964   2.658  1.8361 -0.5007  2.1337
  814MOL0     H 9854   8.161  11.302   2.518 -0.9037  0.1994  1.8822
  814MOL0     H 9855   8.181  11.192   2.652  1.3396 -0.7656 -0.4744
  814MOL0     H 9856   8.345  11.365   2.627  0.2508 -1.3337  1.8688
  814MOL0     H 9857   8.433  11.212   2.598 -0.5199 -0.0686  2.5315
  814MOL0     H 9858   8.376  11.278   2.339  0.1186  2.0750 -1.0586
  814MOL0     H 9859   8.346  11.426   2.409 -0.6326  0.1275 -1.8319
  814MOL0     H 9860   8.603  11.266   2.423  1.0902  0.6932 -0.1542
  814MOL0     H 9861   8.605  11.416   2.505 -0.5170  1.5336 -0.8406
  814MOL0     H 9862   8.680  11.492   2.294 -0.4262  3.4376 -1.0670
  814MOL0     H 9863   8.519  11.559   2.327  3.3374  1.3989  0.3666
  814MOL0     H 9864   8.416  11.426   2.175  0.1745  4.9333  0.0423
  814MOL0     H 9865   8.567  11.492   2.088  0.2414  3.1754  2.3109
  814MOL0     H 9866   8.532  11.248   2.036 -2.6417  0.1924  0.1179
  814MOL0     H 9867   8.535  11.208   2.209  0.3681  2.5843  2.5024
  814MOL0     H 9868   8.763  11.324   2.039 -0.4508  1.0621  0.1683
  814MOL0     H 9869   8.772  11.284   2.220 -1.0878 -0.8141 -0.1294
  814MOL0     H 9870   8.411  10.972   2.369 -1.8242 -1.1064 -3.1367
  814MOL0     H 9871   8.482  10.753   2.457 -0.6494 -0.3951 -0.4658
  814MOL0     H 9872   8.388  10.414   2.747  0.5751  0.7812  0.7556
  814MOL0     H 9873   8.455  10.199   2.812  2.6916  1.7738  0.4105
  814MOL0     H 9874   6.764   9.679   3.521 -4.7568  0.5213 -0.9108
  814MOL0     H 9875   6.547   9.595   3.605  0.1451 -1.1814  0.6944
  814MOL0     H 9876   6.343   9.123   3.638  0.2656 -1.2055  0.9437
  814MOL0     H 9877   6.185   8.954   3.750  1.2226  0.4790 -3.1960
  814MOL0     H 9878   5.880   9.070   4.059 -1.8785 -0.9448  1.1544
  814MOL0     H 9879   6.052   9.073   4.116  0.5074 -0.4025 -1.2107
  814MOL0     H 9880   5.958   8.889   4.246  1.5627 -0.7358  0.6042
  814MOL0     H 9881   6.081   8.838   4.138  0.4083 -0.9015  0.7033
  814MOL0     H 9882   5.948   8.729   3.995  1.1675  2.6103 -1.7224
  814MOL0     H 9883   5.818   8.825   3.997 -1.0780 -1.4140 -1.4423
  814MOL0     H 9884   5.761   8.617   4.115  1.1773 -1.9643  1.4656
  814MOL0     H 9885   5.892   8.626   4.225 -0.7133 -3.0366 -1.9393
  814MOL0     H 9886   5.578   8.886   4.377 -0.6892 -0.9091  1.4585
  814MOL0     H 9887   6.006   9.273   3.968 -4.0349 -1.2924 -3.6827
  814MOL0     H 9888   6.114   9.523   3.781  2.0116 -1.0921 -0.1018
  814MOL0     H 9889   6.064   9.487   3.949  2.1211  0.6835  2.5347
  814MOL0     H 9890   6.228   9.531   3.920  0.3986  1.2120 -1.2293
  815MOL0     O 9891  11.148  10.498   7.926  0.1304  0.1982 -0.5187
  815MOL0     C 9892  11.126  10.614   7.960 -0.9442 -0.1906  1.9640
  815MOL0     O 9893  11.078  10.705   7.876 -0.0453 -0.2702  0.2382
  815MOL0     C 9894  11.106  10.707   7.743  0.2281  0.2159 -0.4319
  815MOL0     C 9895  11.233  10.687   7.688  0.1642  0.5152 -0.0769
  815MOL0     C 9896  11.259  10.683   7.553  0.4929  0.0378  0.2954
  815MOL0     C 9897  11.152  10.701   7.458 -0.7183  0.8966  0.4864
  815MOL0     O 9898  11.172  10.680   7.330  0.0182  0.3022 -0.0648
  815MOL0     C 9899  11.246  10.559   7.295 -0.1445  0.0994 -0.3017
  815MOL0     C 9900  11.245  10.537   7.145  0.2812  0.6992 -0.8872
  815MOL0     C 9901  11.371  10.466   7.096 -0.5776  0.5818  1.0582
  815MOL0     C 9902  11.365  10.434   6.941 -0.1446  0.2797 -0.3357
  815MOL0     C 9903  11.484  10.347   6.882 -0.4599 -0.5355  0.9846
  815MOL0     C 9904  11.622  10.409   6.910  0.8565  0.0081  0.4769
  815MOL0     C 9905  11.735  10.341   6.820  0.3222  0.1579 -0.8354
  815MOL0     C 9906  11.729  10.403   6.679  0.8643  0.3593  0.2993
  815MOL0     N 9907  11.837  10.364   6.578  0.4336 -0.0484 -0.2194
  815MOL0     C 9908  11.932  10.435   6.496 -0.0134  0.0222  0.1264
  815MOL0     C 9909  12.004  10.343   6.435 -0.0979  0.1337 -0.0712
  815MOL0     C 9910  12.102  10.359   6.319  0.5590 -0.0653 -0.6967
  815MOL0     C 9911  12.234  10.401   6.376 -0.7720 -0.5027  0.5737
  815MOL0     C 9912  12.354  10.424   6.289  0.1790  1.0490  0.0889
  815MOL0     C 9913  12.492  10.435   6.356  0.3198  0.6092  0.3653
  815MOL0     O 9914  12.579  10.484   6.255 -0.3904 -0.4019 -1.0429
  815MOL0     C 9915  12.697  10.553   6.293  0.4590  0.5069  0.5151
  815MOL0     C 9916  12.747  10.642   6.195 -0.4495  0.5419 -0.8635
  815MOL0     C 9917  12.865  10.711   6.220  0.2617  0.0024 -0.0142
  815MOL0     C 9918  12.926  10.698   6.347 -0.4257  0.0950  0.1099
  815MOL0     C 9919  13.026  10.793   6.393 -0.2562  0.7347 -0.2627
  815MOL0     O 9920  13.036  10.902   6.309  0.0419 -0.6133  0.5740
  815MOL0     C 9921  13.128  11.003   6.328 -0.4255  0.6170  0.2694
  815MOL0     C 9922  13.255  10.995   6.380  0.1096 -0.2644 -0.3550
  815MOL0     C 9923  13.325  11.114   6.397  0.7337  0.8253  0.7311
  815MOL0     C 9924  13.273  11.238   6.341  0.4148  0.2159 -0.8395
  815MOL0     O 9925  13.343  11.358   6.341  0.4158 -0.5206  0.7217
  815MOL0     C 9926  13.469  11.378   6.412 -0.1470  0.0033  0.5129
  815MOL0     C 9927  13.449  11.410   6.554  0.7234 -0.3460 -0.6355
  815MOL0     C 9928  13.350  11.532   6.560  0.9738 -1.0701  0.2564
  815MOL0     C 9929  13.373  11.615   6.690  0.1721  0.1303 -0.2544
  815MOL0     C 9930  13.285  11.740   6.701 -0.5148  0.5115  0.2312
  815MOL0     C 9931  13.335  11.861   6.788 -0.0886 -0.0558  0.5779
  815MOL0     C 9932  13.243  11.983   6.779 -1.5285 -0.3849 -0.5309
  815MOL0     C 9933  13.317  12.106   6.828 -0.4074 -0.0735 -0.0275
  815MOL0    Cl 9934  13.231  12.254   6.782  0.0461  0.2510  0.2509
  815MOL0     C 9935  13.139  11.242   6.292 -0.1824  0.0086 -0.6883
  815MOL0     C 9936  13.080  11.120   6.288  0.0338 -0.3976  0.5842
  815MOL0     O 9937  13.085  10.779   6.502  0.3641  0.2228 -0.0906
  815MOL0     C 9938  12.876  10.609   6.439 -0.6520  0.8342  0.0425
  815MOL0     C 9939  12.762  10.535   6.419  0.8043 -0.1059  0.3862
  815MOL0     N 9940  11.959  10.220   6.481 -0.3700  0.1149  1.1072
  815MOL0     N 9941  11.865  10.234   6.567  0.3016 -0.2251 -0.4845
  815MOL0     C 9942  11.030  10.721   7.509  0.1892 -0.2929 -0.1055
  815MOL0     C 9943  11.003  10.723   7.647  1.3917  0.6874  0.0015
  815MOL0     C 9944  11.132  10.660   8.104  0.2945  0.3061 -0.2673
  815MOL0     C 9945  11.087  10.791   8.139 -0.2544 -0.6194 -0.4343
  815MOL0     C 9946  11.088  10.834   8.274 -1.2883 -0.2129 -0.2431
  815MOL0     C 9947  11.140  10.739   8.362 -1.2767 -1.0369 -0.2387
  815MOL0     O 9948  11.164  10.773   8.494  0.4543  0.3926 -0.6474
  815MOL0     C 9949  11.039  10.818   8.559  0.1870 -0.2308 -0.2420
  815MOL0     C 9950  10.966  10.694   8.595 -0.1539  0.3302 -0.0782
  815MOL0     C 9951  10.848  10.717   8.692  0.5868 -0.4770 -0.0465
  815MOL0     C 9952  10.715  10.696   8.624 -0.3323  0.6758 -0.6402
  815MOL0     C 9953  10.697  10.786   8.515 -0.0701  0.6615 -0.6261
  815MOL0     C 9954  10.669  10.859   8.420  0.0092 -1.0964  0.1069
  815MOL0     C 9955  11.184  10.617   8.336  0.0692  0.8945  0.9564
  815MOL0     C 9956  11.188  10.573   8.205 -0.6471 -1.2449 -0.0063
  815MOL0     C 9957  11.252  10.438   8.194 -0.3975  0.5135 -0.1884
  815MOL0     H 9958  11.314  10.671   7.759 -1.0967  0.1392  1.3233
  815MOL0     H 9959  11.364  10.676   7.527  1.7027  0.1688  4.4406
  815MOL0     H 9960  11.350  10.566   7.328  0.1258  0.9992 -1.2987
  815MOL0     H 9961  11.195  10.477   7.347  0.8295  0.1447  0.7760
  815MOL0     H 9962  11.227  10.629   7.089  2.3757  1.2653 -0.7087
  815MOL0     H 9963  11.158  10.474   7.125  0.9843 -1.1416  1.4347
  815MOL0     H 9964  11.401  10.370   7.139  2.1564  0.9396  0.1955
  815MOL0     H 9965  11.457  10.532   7.114 -2.5084  4.4536 -2.2237
  815MOL0     H 9966  11.272  10.380   6.921 -1.1179  1.4902  0.7781
  815MOL0     H 9967  11.368  10.528   6.885  1.0597  1.2144  1.2321
  815MOL0     H 9968  11.469  10.249   6.930 -4.4682 -1.1712 -1.1032
  815MOL0     H 9969  11.469  10.344   6.774 -2.7912  3.0442  1.0466
  815MOL0     H 9970  11.608  10.509   6.867 -1.6839  1.1899  3.6253
  815MOL0     H 9971  11.640  10.413   7.018 -4.4049 -1.0970  1.6441
  815MOL0     H 9972  11.726  10.233   6.806  2.3646 -0.2941  0.7351
  815MOL0     H 9973  11.835  10.346   6.865  1.0881  0.3101 -2.4698
  815MOL0     H 9974  11.632  10.383   6.633 -0.9473 -1.7956  4.5545
  815MOL0     H 9975  11.739  10.510   6.698  3.7775 -0.1586  2.5140
  815MOL0     H 9976  11.946  10.542   6.487 -0.8889  0.1258 -0.0226
  815MOL0     H 9977  12.106  10.268   6.259  3.7669 -0.3805 -0.2237
  815MOL0     H 9978  12.055  10.439   6.261 -0.1320  1.1489  1.4557
  815MOL0     H 9979  12.225  10.497   6.428  3.3936 -0.3776  1.4474
  815MOL0     H 9980  12.269  10.330   6.452 -0.7378  0.1224  1.1572
  815MOL0     H 9981  12.335  10.516   6.234  3.8211  0.8318 -1.7812
  815MOL0     H 9982  12.354  10.345   6.213 -0.7658  0.2906  0.8479
  815MOL0     H 9983  12.542  10.345   6.396 -2.3043 -0.1128  2.2854
  815MOL0     H 9984  12.478  10.500   6.443 -1.3477  0.2912  0.3640
  815MOL0     H 9985  12.699  10.637   6.098 -3.1917 -1.3628  0.4547
  815MOL0     H 9986  12.905  10.776   6.143  1.3563 -1.0750 -0.3885
  815MOL0     H 9987  13.305  10.903   6.410 -2.1802 -1.5659 -0.2896
  815MOL0     H 9988  13.425  11.102   6.437  1.0743  0.4806 -0.2026
  815MOL0     H 9989  13.532  11.289   6.405 -0.3603 -0.1714  0.8104
  815MOL0     H 9990  13.531  11.459   6.372 -0.7576 -0.3439 -1.2392
  815MOL0     H 9991  13.392  11.325   6.593 -1.6076  1.8246  1.0124
  815MOL0     H 9992  13.539  11.417   6.616  1.1887 -0.9496 -1.2267
  815MOL0     H 9993  13.363  11.588   6.467  0.7090 -0.4430  0.5988
  815MOL0     H 9994  13.246  11.499   6.569  1.6255 -2.6304  3.9197
  815MOL0     H 9995  13.475  11.649   6.666  0.3327 -0.2086 -0.0497
  815MOL0     H 9996  13.365  11.546   6.774  0.4561 -0.7997 -0.9767
  815MOL0     H 9997  13.187  11.711   6.740  0.0214 -1.7092  0.0469
  815MOL0     H 9998  13.274  11.780   6.600 -0.8236  1.5234  0.6454
  815MOL0     H 9999  13.323  11.834   6.894 -1.3797 -2.0766 -0.0385
  815MOL0     H10000  13.441  11.874   6.766 -0.1697 -2.7728 -2.0028
  815MOL0     H10001  13.156  11.966   6.844 -1.1283 -1.0170 -0.1426
  815MOL0     H10002  13.210  11.982   6.675 -1.9926 -0.2842 -0.3877
  815MOL0     H10003  13.306  12.094   6.936  0.0500 -0.2080  0.0080
  815MOL0     H10004  13.421  12.102   6.793 -1.0762  1.0004 -2.3674
  815MOL0     H10005  13.102  11.334   6.248 -1.0228  0.1823  0.3228
  815MOL0     H10006  12.979  11.117   6.246  0.0400  0.3340  0.5120
  815MOL0     H10007  12.933  10.604   6.531  2.2425  2.0082 -1.5679
  815MOL0     H10008  12.727  10.462   6.491 -1.1791  1.1803  0.8036
  815MOL0     H10009  10.938  10.737   7.453 -0.1893 -2.5004 -0.1923
  815MOL0     H10010  10.903  10.749   7.678  1.8004  0.5898  1.4674
  815MOL0     H10011  11.056  10.857   8.059 -1.8133  0.4058  0.9639
  815MOL0     H10012  11.055  10.935   8.300 -0.5405  0.3279 -1.3359
  815MOL0     H10013  10.975  10.891   8.508 -0.0232  0.3300  0.7957
  815MOL0     H10014  11.074  10.876   8.644  1.2467  0.2131 -0.9557
  815MOL0     H10015  11.042  10.631   8.641  1.7713  0.7774 -2.4039
  815MOL0     H10016  10.932  10.632   8.511 -1.7301 -2.7825  2.6460
  815MOL0     H10017  10.845  10.814   8.741 -0.7404  0.1333 -1.2605
  815MOL0     H10018  10.843  10.641   8.770 -3.2796  0.6308  0.9941
  815MOL0     H10019  10.714  10.590   8.599  2.4249 -0.0478  1.7600
  815MOL0     H10020  10.628  10.715   8.688 -0.6305  5.4958 -2.0846
  815MOL0     H10021  10.643  10.915   8.333 -0.1615 -0.1032  0.7783
  815MOL0     H10022  11.205  10.558   8.425 -0.3348 -1.0948 -0.2126
  815MOL0     H10023  11.333  10.449   8.122 -2.0936  6.3761 -1.6818
  815MOL0     H10024  11.281  10.403   8.294 -6.0362  1.5315  2.1990
  815MOL0     H10025  11.180  10.368   8.151  1.8746 -1.2166 -1.4245
  816MOL0     O10026  10.668   3.818   1.086  0.6958 -0.3344  0.5810
  816MOL0     C10027  10.707   3.721   1.018 -0.0791  0.5281  0.0372
  816MOL0     O10028  10.636   3.614   0.985 -0.8629 -0.2163 -0.3666
  816MOL0     C10029  10.497   3.615   0.970  1.0585  0.5427 -0.5601
  816MOL0     C10030  10.440   3.491   0.958  0.0705 -0.4198  0.1530
  816MOL0     C10031  10.302   3.489   0.926  0.6069  0.2362  0.7571
  816MOL0     C10032  10.218   3.606   0.903 -0.1765 -0.0131 -0.5149
  816MOL0     O10033  10.084   3.580   0.873 -0.3924  0.1214 -0.0338
  816MOL0     C10034  10.014   3.691   0.812  0.3719  0.9916 -0.3016
  816MOL0     C10035  10.062   3.722   0.668 -0.5874 -0.1028  0.5401
  816MOL0     C10036  10.114   3.605   0.581 -0.3760  0.1487 -1.1699
  816MOL0     C10037   9.982   3.523   0.536 -1.0120 -0.9206  0.6132
  816MOL0     C10038  10.001   3.480   0.386  0.6405 -0.6607 -0.0510
  816MOL0     C10039  10.110   3.376   0.359 -0.2578  0.2184  0.8944
  816MOL0     C10040  10.149   3.350   0.211 -0.2425  0.0691  0.0476
  816MOL0     C10041  10.258   3.241   0.218 -0.2859 -0.2882  0.1646
  816MOL0     N10042  10.347   3.227   0.103 -0.2022  0.0707  0.3550
  816MOL0     C10043  10.445   3.315   0.061  0.4284 -0.1896 -0.2368
  816MOL0     C10044  10.503   3.248  -0.040  0.4334 -0.3807  0.5688
  816MOL0     C10045  10.607   3.305  -0.125 -0.0490  0.3535 -0.1970
  816MOL0     C10046  10.554   3.413  -0.227 -0.2805 -1.0584  0.0683
  816MOL0     C10047  10.666   3.450  -0.312 -0.5610  0.2154 -0.2893
  816MOL0     C10048  10.771   3.542  -0.251 -0.0631 -0.5590 -0.1730
  816MOL0     O10049  10.842   3.615  -0.352  0.6635 -0.2804 -0.2123
  816MOL0     C10050  10.946   3.708  -0.329  1.0081  0.3608  0.3247
  816MOL0     C10051  11.006   3.718  -0.206 -0.4631 -0.2568  0.4206
  816MOL0     C10052  11.117   3.810  -0.191 -0.2823  0.0350  0.2157
  816MOL0     C10053  11.168   3.873  -0.308 -0.1007 -0.3316 -0.0521
  816MOL0     C10054  11.288   3.963  -0.294  1.1219  0.1193 -0.1355
  816MOL0     O10055  11.362   3.939  -0.183  0.0847  0.2172  0.1155
  816MOL0     C10056  11.486   3.992  -0.166  0.5166 -0.0622 -0.3926
  816MOL0     C10057  11.597   3.929  -0.216  0.2540  0.1017  0.8219
  816MOL0     C10058  11.726   3.987  -0.203 -1.0099 -0.6600 -1.1795
  816MOL0     C10059  11.755   4.106  -0.128  0.8474 -0.3928 -0.4033
  816MOL0     O10060  11.859   4.187  -0.136 -1.1546  0.1801 -0.1674
  816MOL0     C10061  11.967   4.165  -0.238  0.1943  0.1398 -0.0023
  816MOL0     C10062  12.076   4.097  -0.148  0.1179  0.1491  0.0428
  816MOL0     C10063  12.134   4.179  -0.024 -0.5904 -0.3473  0.1469
  816MOL0     C10064  12.237   4.092   0.053  0.2038 -0.3708 -0.7811
  816MOL0     C10065  12.261   4.165   0.184 -1.3009  0.4600  0.2341
  816MOL0     C10066  12.342   4.066   0.268 -0.7241 -0.6075 -0.1362
  816MOL0     C10067  12.380   4.145   0.400 -0.2693  0.2155 -0.2417
  816MOL0     C10068  12.470   4.059   0.490  0.1852 -0.3285 -0.9213
  816MOL0    Cl10069  12.588   3.966   0.407 -0.1053 -0.2762  0.6803
  816MOL0     C10070  11.639   4.165  -0.075  0.2711 -0.3453  1.0872
  816MOL0     C10071  11.506   4.112  -0.089 -0.2678 -0.7866 -0.0473
  816MOL0     O10072  11.317   4.038  -0.389  0.6754  0.9395  0.6254
  816MOL0     C10073  11.106   3.851  -0.429 -0.5888  0.3980 -0.4880
  816MOL0     C10074  10.998   3.771  -0.437 -0.3921  0.0621  0.6724
  816MOL0     N10075  10.443   3.122  -0.051  0.3601 -0.3606  0.2812
  816MOL0     N10076  10.346   3.114   0.029  0.8736 -0.0275  0.4030
  816MOL0     C10077  10.285   3.726   0.899  0.5242 -1.0060 -0.6494
  816MOL0     C10078  10.419   3.728   0.942 -0.5769 -1.3005 -0.3379
  816MOL0     C10079  10.855   3.701   0.996  0.0627 -0.8432 -0.6916
  816MOL0     C10080  10.906   3.571   0.974 -0.9453 -0.3361 -0.1063
  816MOL0     C10081  11.041   3.543   0.947 -0.0300  0.7796  0.8359
  816MOL0     C10082  11.132   3.647   0.943  0.1193 -0.2129 -0.4164
  816MOL0     O10083  11.268   3.625   0.920 -0.1808  0.1111 -0.3795
  816MOL0     C10084  11.329   3.514   0.996 -0.4133  0.3688  0.0492
  816MOL0     C10085  11.452   3.451   0.924  0.4419 -0.9052 -0.0865
  816MOL0     C10086  11.484   3.314   0.989 -0.3958 -0.3448  0.7246
  816MOL0     C10087  11.598   3.225   0.920  1.0086 -0.4798  0.2153
  816MOL0     C10088  11.713   3.301   0.960 -0.2829  0.8481  0.4932
  816MOL0     C10089  11.821   3.342   0.993  0.3208 -1.1605  0.1243
  816MOL0     C10090  11.083   3.773   0.974  0.7298  0.0935  0.7323
  816MOL0     C10091  10.943   3.800   1.002 -0.3100  0.2919  0.8603
  816MOL0     C10092  10.903   3.945   1.025  0.6145 -0.9900 -0.8677
  816MOL0     H10093  10.509   3.408   0.963 -1.1392 -1.4475  0.2796
  816MOL0     H10094  10.246   3.396   0.923  1.7051 -0.4217 -0.1552
  816MOL0     H10095   9.913   3.654   0.794 -0.1996  2.7754 -0.9722
  816MOL0     H10096  10.014   3.781   0.874  1.2878  0.4377  0.5159
  816MOL0     H10097  10.148   3.790   0.668 -0.1875 -0.5691 -0.8696
  816MOL0     H10098   9.986   3.786   0.622 -0.0750  0.4985  0.5183
  816MOL0     H10099  10.180   3.532   0.628  1.2320  1.5892 -1.0695
  816MOL0     H10100  10.166   3.639   0.491  3.3738  0.2989  0.8432
  816MOL0     H10101   9.965   3.437   0.602  1.5327 -0.9521  1.3114
  816MOL0     H10102   9.895   3.589   0.550  0.2346  0.3616  2.9931
  816MOL0     H10103   9.904   3.448   0.346 -1.8454  3.8529  1.5411
  816MOL0     H10104  10.041   3.572   0.341  2.5574  1.4094  5.0724
  816MOL0     H10105  10.203   3.416   0.401  0.2972  1.2957 -1.1984
  816MOL0     H10106  10.079   3.281   0.404 -2.8001  0.9978  0.9356
  816MOL0     H10107  10.185   3.441   0.162  1.0674  0.3045  1.3674
  816MOL0     H10108  10.056   3.306   0.173 -0.8316  0.9090  0.5006
  816MOL0     H10109  10.321   3.264   0.303 -0.0258  1.6849 -0.5138
  816MOL0     H10110  10.208   3.148   0.247 -2.5244  0.4645 -0.9728
  816MOL0     H10111  10.476   3.406   0.111 -0.3046  0.9883 -1.8200
  816MOL0     H10112  10.682   3.356  -0.064 -0.3019  0.4996 -0.0049
  816MOL0     H10113  10.656   3.230  -0.187 -2.4330 -2.8881  1.5586
  816MOL0     H10114  10.477   3.359  -0.283 -0.9223  0.2416 -0.3547
  816MOL0     H10115  10.504   3.495  -0.175 -1.8357 -2.7433  1.3347
  816MOL0     H10116  10.610   3.503  -0.389 -3.2728  0.9005  1.9810
  816MOL0     H10117  10.731   3.365  -0.337  4.1743  2.9542  1.4617
  816MOL0     H10118  10.847   3.486  -0.196  0.4668 -0.1836 -0.5180
  816MOL0     H10119  10.733   3.628  -0.194  0.9663  0.4783 -1.0072
  816MOL0     H10120  10.957   3.684  -0.115 -0.2998 -0.3127  0.4884
  816MOL0     H10121  11.150   3.832  -0.090 -2.5701  1.1787  0.7887
  816MOL0     H10122  11.600   3.836  -0.273 -2.4818  1.1811 -1.2980
  816MOL0     H10123  11.809   3.930  -0.243  0.6135  0.3707  0.5115
  816MOL0     H10124  11.928   4.100  -0.317 -1.0928  0.0286  0.6879
  816MOL0     H10125  12.007   4.253  -0.289 -0.6635  1.0276  0.8190
  816MOL0     H10126  12.028   4.013  -0.098 -1.8136  1.0267 -0.2694
  816MOL0     H10127  12.165   4.086  -0.211  0.0858  4.5086 -1.0613
  816MOL0     H10128  12.181   4.269  -0.063  1.0877 -2.0268 -1.9708
  816MOL0     H10129  12.044   4.204   0.033 -1.3827 -3.7479  0.6134
  816MOL0     H10130  12.326   4.080  -0.009  2.1968 -1.7186  2.1037
  816MOL0     H10131  12.200   3.989   0.063  3.0599 -1.2940  1.9447
  816MOL0     H10132  12.172   4.203   0.234 -0.9724  1.5829 -0.0161
  816MOL0     H10133  12.330   4.247   0.162 -0.7767 -0.7536 -3.4076
  816MOL0     H10134  12.277   3.981   0.292 -1.0588 -0.2082  0.3978
  816MOL0     H10135  12.429   4.040   0.208  0.1236  1.5152  0.1050
  816MOL0     H10136  12.292   4.177   0.457  0.1150  0.4600  0.2283
  816MOL0     H10137  12.443   4.232   0.379  2.7551 -1.6694  0.3758
  816MOL0     H10138  12.526   4.134   0.548  0.7330 -0.1263 -1.6911
  816MOL0     H10139  12.410   4.000   0.560  1.7441 -0.2903  0.5351
  816MOL0     H10140  11.650   4.266  -0.037  3.0870  0.6272 -1.8036
  816MOL0     H10141  11.423   4.163  -0.041  0.4374  0.3042  0.0493
  816MOL0     H10142  11.150   3.900  -0.515  0.5130  0.2276 -0.0398
  816MOL0     H10143  10.964   3.753  -0.539  0.4756  2.6044 -0.1482
  816MOL0     H10144  10.238   3.822   0.883  1.0494 -0.8274 -1.1586
  816MOL0     H10145  10.463   3.827   0.945  0.1190 -1.5752 -1.3741
  816MOL0     H10146  10.842   3.484   0.985  0.8269 -1.7122 -0.2437
  816MOL0     H10147  11.069   3.439   0.943 -0.0524  0.7912  0.3923
  816MOL0     H10148  11.261   3.437   1.036  0.5994 -0.4922  0.1562
  816MOL0     H10149  11.360   3.566   1.087  1.1029 -2.8234  1.5144
  816MOL0     H10150  11.532   3.526   0.933 -0.0822 -0.2464 -0.7804
  816MOL0     H10151  11.424   3.451   0.819 -2.4533 -0.0535  0.5997
  816MOL0     H10152  11.398   3.246   0.989  0.4307 -1.4197  1.9856
  816MOL0     H10153  11.505   3.324   1.096  0.8084  3.3656  0.2881
  816MOL0     H10154  11.607   3.125   0.964  0.3443 -0.6588 -0.0384
  816MOL0     H10155  11.581   3.205   0.814 -0.7198 -2.6562  0.8203
  816MOL0     H10156  11.919   3.367   1.030 -0.2480  3.3702 -0.7470
  816MOL0     H10157  11.147   3.860   0.956  1.5147 -0.3832  1.1675
  816MOL0     H10158  10.835   3.966   0.942  0.1935 -0.8611 -0.4889
  816MOL0     H10159  10.842   3.951   1.116  0.1741 -1.9541 -1.0890
  816MOL0     H10160  10.987   4.015   1.034 -0.2193 -0.0111 -0.5659
  817MOL0     O10161   8.894  10.552   4.719 -0.8904  0.6417  0.0211
  817MOL0     C10162   8.933  10.632   4.635 -0.6255  0.4931 -0.4790
  817MOL0     O10163   8.856  10.723   4.588  0.4649  0.5444  0.2248
  817MOL0     C10164   8.760  10.778   4.669 -0.3509 -0.5974  0.2045
  817MOL0     C10165   8.653  10.830   4.594 -0.5072  0.1909 -0.6651
  817MOL0     C10166   8.544  10.897   4.659 -0.5144 -0.0135  0.6341
  817MOL0     C10167   8.547  10.916   4.796 -0.0858  0.9356 -0.6476
  817MOL0     O10168   8.434  10.978   4.844 -0.5508  0.4939  0.2429
  817MOL0     C10169   8.356  10.894   4.927 -0.9673  0.5575  0.1660
  817MOL0     C10170   8.239  10.978   4.997 -0.4362  0.2394 -0.5347
  817MOL0     C10171   8.135  11.032   4.900  0.7854  0.4129 -0.4509
  817MOL0     C10172   8.181  11.096   4.762 -0.0241  0.0433 -0.4185
  817MOL0     C10173   8.082  11.165   4.677 -0.0259  0.1288 -0.1170
  817MOL0     C10174   8.157  11.235   4.554  0.6774 -0.0208  0.2307
  817MOL0     C10175   8.061  11.321   4.487  0.3386  0.3467  0.1179
  817MOL0     C10176   8.034  11.452   4.559 -0.4291 -0.0947 -0.6396
  817MOL0     N10177   7.895  11.462   4.578 -0.2710 -0.0713  1.0111
  817MOL0     C10178   7.804  11.493   4.480 -0.0159  0.4890 -0.9064
  817MOL0     C10179   7.687  11.468   4.539 -0.0723  1.5430 -0.6770
  817MOL0     C10180   7.554  11.472   4.468  0.8936 -0.1569 -0.0257
  817MOL0     C10181   7.516  11.614   4.416 -0.6041 -0.2420 -0.0610
  817MOL0     C10182   7.393  11.610   4.324  0.8668 -0.4874  0.5937
  817MOL0     C10183   7.260  11.590   4.405 -0.3798  0.6513 -0.2598
  817MOL0     O10184   7.159  11.528   4.326  0.1184  0.5412 -0.4732
  817MOL0     C10185   7.030  11.567   4.338 -0.7981 -0.9088 -0.5638
  817MOL0     C10186   6.998  11.708   4.310  0.3223  0.2615  0.5112
  817MOL0     C10187   6.865  11.743   4.307  0.2931 -0.3815  0.8447
  817MOL0     C10188   6.758  11.657   4.319 -0.1759  0.2348 -0.0965
  817MOL0     C10189   6.618  11.704   4.307  1.0110 -0.0804  0.6614
  817MOL0     O10190   6.524  11.609   4.324 -0.7343  0.1252  0.5933
  817MOL0     C10191   6.395  11.639   4.344  0.0119  0.0393 -0.0094
  817MOL0     C10192   6.347  11.755   4.404  0.1601 -0.7501 -0.6680
  817MOL0     C10193   6.213  11.759   4.437  0.0062 -1.0154  0.0008
  817MOL0     C10194   6.126  11.652   4.407  0.3990 -0.8440 -0.2913
  817MOL0     O10195   5.987  11.677   4.424 -0.4452 -0.5870 -0.0692
  817MOL0     C10196   5.898  11.572   4.453  0.4767 -0.2932  0.3974
  817MOL0     C10197   5.755  11.622   4.466  0.8407 -0.0840  0.1057
  817MOL0     C10198   5.722  11.708   4.594 -1.1962 -0.1325  0.0485
  817MOL0     C10199   5.579  11.754   4.570  0.6849 -0.9643 -0.1210
  817MOL0     C10200   5.540  11.835   4.696  0.4616 -0.6218  0.4193
  817MOL0     C10201   5.432  11.946   4.666 -0.3624 -0.3265  0.0002
  817MOL0     C10202   5.410  12.050   4.787  0.2281 -0.0982 -0.4288
  817MOL0     C10203   5.330  11.971   4.890 -0.1326 -0.6264  0.6835
  817MOL0    Cl10204   5.291  12.047   5.046 -0.3313  0.5542 -0.3341
  817MOL0     C10205   6.175  11.541   4.352  0.9393  0.5344  0.1244
  817MOL0     C10206   6.306  11.533   4.315 -0.4418 -0.1358 -0.3462
  817MOL0     O10207   6.595  11.822   4.278 -0.1777  1.3592 -0.1942
  817MOL0     C10208   6.794  11.518   4.344 -0.4712  0.0022  0.0950
  817MOL0     C10209   6.926  11.477   4.359 -0.0140  0.0640 -0.0990
  817MOL0     N10210   7.713  11.420   4.665  0.5716  0.1888  0.7553
  817MOL0     N10211   7.839  11.418   4.685 -0.3587  0.0735  0.1347
  817MOL0     C10212   8.665  10.876   4.878 -0.1435 -0.7334  1.0628
  817MOL0     C10213   8.764  10.796   4.808 -0.0332 -0.4144 -0.2196
  817MOL0     C10214   9.076  10.624   4.579 -0.7285 -0.0850  0.0461
  817MOL0     C10215   9.114  10.724   4.483 -0.5662  0.4408  0.6922
  817MOL0     C10216   9.240  10.730   4.432 -0.5080 -0.5563  0.0454
  817MOL0     C10217   9.335  10.638   4.469  0.5638 -0.1580  0.6726
  817MOL0     O10218   9.462  10.650   4.412  0.3163  0.1591 -0.3218
  817MOL0     C10219   9.540  10.753   4.463  0.1899 -0.7009  0.2878
  817MOL0     C10220   9.658  10.676   4.530 -0.1658 -0.0638 -0.1331
  817MOL0     C10221   9.764  10.775   4.590  0.1175 -0.3980 -0.6819
  817MOL0     C10222   9.834  10.846   4.478 -0.0610 -0.6013 -0.2983
  817MOL0     C10223   9.921  10.934   4.545 -0.7394 -1.2188  0.2822
  817MOL0     C10224  10.000  10.998   4.610 -0.5284 -0.2906  0.4148
  817MOL0     C10225   9.296  10.533   4.556  0.1298 -0.1004  0.1779
  817MOL0     C10226   9.176  10.530   4.623  1.0924  0.2587 -0.7914
  817MOL0     C10227   9.146  10.424   4.727  0.1826 -0.1192  0.1188
  817MOL0     H10228   8.646  10.817   4.486 -1.8815  1.0411 -0.6885
  817MOL0     H10229   8.461  10.929   4.596  2.0024  0.2457 -2.7991
  817MOL0     H10230   8.325  10.824   4.850  2.5998 -1.6315  0.4819
  817MOL0     H10231   8.415  10.833   4.996 -4.2343 -2.5489  0.4752
  817MOL0     H10232   8.277  11.067   5.048 -0.0766 -0.0347 -0.3169
  817MOL0     H10233   8.198  10.908   5.070  1.3098 -1.6880 -1.2995
  817MOL0     H10234   8.079  11.110   4.954  1.4928 -0.2802  1.3883
  817MOL0     H10235   8.058  10.956   4.885  0.3294  0.9680 -0.9228
  817MOL0     H10236   8.269  11.158   4.781  1.5586 -2.1495 -0.2237
  817MOL0     H10237   8.208  11.018   4.689  0.3238  0.9603 -1.2930
  817MOL0     H10238   8.011  11.087   4.649  0.3796 -0.7542  1.1998
  817MOL0     H10239   8.032  11.246   4.732 -0.2686 -0.6862  0.9028
  817MOL0     H10240   8.242  11.294   4.587  2.5606 -2.1471 -0.5965
  817MOL0     H10241   8.193  11.150   4.494  0.0747 -0.5698  0.6280
  817MOL0     H10242   7.963  11.272   4.486 -0.0900  1.1835  0.1933
  817MOL0     H10243   8.102  11.351   4.390  2.0248 -1.7578  0.0932
  817MOL0     H10244   8.089  11.458   4.654 -0.7972  1.2758 -0.4806
  817MOL0     H10245   8.063  11.539   4.498  0.5702  0.7331  0.9574
  817MOL0     H10246   7.821  11.544   4.385 -0.7448  0.2877 -1.1454
  817MOL0     H10247   7.552  11.405   4.382 -0.4459  2.0055 -1.7849
  817MOL0     H10248   7.485  11.424   4.538  1.9252 -2.7547 -0.6765
  817MOL0     H10249   7.496  11.662   4.513  0.0527 -0.0085 -0.0386
  817MOL0     H10250   7.603  11.660   4.370  0.8783 -1.0438  1.8076
  817MOL0     H10251   7.414  11.541   4.243  0.2990  2.0996 -1.9323
  817MOL0     H10252   7.383  11.706   4.272  0.6190 -1.4273 -1.1662
  817MOL0     H10253   7.233  11.687   4.447 -1.7866  0.3779 -0.4986
  817MOL0     H10254   7.283  11.518   4.484  1.1098 -1.6690 -2.6267
  817MOL0     H10255   7.078  11.777   4.289 -1.2954  1.7806 -0.9742
  817MOL0     H10256   6.847  11.850   4.297  1.8282 -0.1822 -0.1277
  817MOL0     H10257   6.410  11.840   4.427  0.2252 -0.5340 -1.6308
  817MOL0     H10258   6.179  11.855   4.472 -1.0270 -0.8864 -1.3171
  817MOL0     H10259   5.895  11.496   4.374 -2.4922  1.4828 -1.3794
  817MOL0     H10260   5.938  11.529   4.545 -0.5972 -2.0834  0.0709
  817MOL0     H10261   5.720  11.673   4.376  3.3085  2.6536  0.5598
  817MOL0     H10262   5.699  11.529   4.482  1.8198 -0.5150  1.2024
  817MOL0     H10263   5.722  11.648   4.686  0.8434 -0.3454 -0.0550
  817MOL0     H10264   5.787  11.795   4.607  0.4964 -1.2665 -0.4026
  817MOL0     H10265   5.510  11.669   4.565  2.0379 -2.1288  0.4060
  817MOL0     H10266   5.567  11.814   4.479 -0.0246 -0.6464  0.1677
  817MOL0     H10267   5.634  11.885   4.724  0.9046 -0.7462 -0.8114
  817MOL0     H10268   5.500  11.767   4.772 -4.2193  0.2387 -0.9942
  817MOL0     H10269   5.459  12.009   4.581 -0.5833  1.5275  1.2481
  817MOL0     H10270   5.334  11.901   4.649 -1.5703  2.4624 -0.9303
  817MOL0     H10271   5.350  12.138   4.762 -1.5476 -1.0117  0.3966
  817MOL0     H10272   5.509  12.079   4.823 -0.6968 -1.9188  4.2463
  817MOL0     H10273   5.240  11.936   4.838  0.3363  2.2904 -2.4599
  817MOL0     H10274   5.384  11.881   4.921 -0.4731 -0.1977  2.6232
  817MOL0     H10275   6.121  11.449   4.329  2.4757 -0.0900 -1.1834
  817MOL0     H10276   6.352  11.448   4.265  0.4235  0.3441 -0.3815
  817MOL0     H10277   6.728  11.432   4.338  2.1038 -2.0775 -0.6326
  817MOL0     H10278   6.963  11.375   4.370  1.2184  0.4511 -0.5573
  817MOL0     H10279   8.672  10.896   4.984  0.6822  2.3102  0.5281
  817MOL0     H10280   8.844  10.766   4.875 -0.7774 -0.4692  0.6609
  817MOL0     H10281   9.031  10.789   4.454  0.5779  1.5567 -0.1805
  817MOL0     H10282   9.261  10.806   4.357 -0.9327  0.3976  0.8728
  817MOL0     H10283   9.473  10.813   4.525 -0.8143 -1.4314 -0.0632
  817MOL0     H10284   9.574  10.805   4.372 -0.9451 -0.8031 -0.2149
  817MOL0     H10285   9.711  10.617   4.454  1.1716 -0.0997  0.8021
  817MOL0     H10286   9.633  10.606   4.610  2.0030  1.4228  1.9590
  817MOL0     H10287   9.825  10.711   4.655  0.3210  0.9573  0.4992
  817MOL0     H10288   9.707  10.847   4.650  0.5974 -1.4506  1.1230
  817MOL0     H10289   9.894  10.772   4.424 -1.9976 -1.4180 -1.4004
  817MOL0     H10290   9.771  10.907   4.412  0.5822  3.0676  2.1540
  817MOL0     H10291  10.075  11.053   4.663  2.1086 -2.5768 -0.6929
  817MOL0     H10292   9.369  10.456   4.575 -1.6683 -2.4102 -1.6121
  817MOL0     H10293   9.075  10.353   4.684  1.7988 -0.6700 -1.8417
  817MOL0     H10294   9.239  10.372   4.751 -0.2715 -1.9438 -1.7643
  817MOL0     H10295   9.115  10.479   4.816  4.7930  3.1071  0.1093
  818MOL0     O10296   3.052   0.791   7.795 -0.0545 -0.9988  0.1813
  818MOL0     C10297   3.128   0.750   7.706  0.9057 -1.0430  0.2414
  818MOL0     O10298   3.263   0.753   7.705  0.6838  0.2090 -0.7659
  818MOL0     C10299   3.322   0.802   7.817  0.6746 -0.3661 -0.3804
  818MOL0     C10300   3.326   0.733   7.932 -0.6934  0.1448 -0.2666
  818MOL0     C10301   3.396   0.786   8.038 -0.7078 -0.8286 -0.9370
  818MOL0     C10302   3.456   0.912   8.037  0.4657  0.7381 -0.3807
  818MOL0     O10303   3.506   0.963   8.151 -0.2968 -0.0753  0.3445
  818MOL0     C10304   3.599   1.065   8.132  0.2403 -0.0964  0.4019
  818MOL0     C10305   3.632   1.099   8.274 -0.8283 -0.4405  0.3346
  818MOL0     C10306   3.720   1.221   8.278 -0.1497 -0.8072 -1.2643
  818MOL0     C10307   3.768   1.253   8.427  0.4701  1.0810  0.8967
  818MOL0     C10308   3.854   1.380   8.440 -0.1618  1.1306 -0.7730
  818MOL0     C10309   3.907   1.396   8.589 -0.0696 -0.8466  0.5234
  818MOL0     C10310   4.017   1.506   8.606 -0.7033 -0.0256  0.4647
  818MOL0     C10311   4.080   1.490   8.736  0.7747  0.0562 -0.0883
  818MOL0     N10312   4.184   1.589   8.782  0.3879  0.7814 -0.6911
  818MOL0     C10313   4.180   1.629   8.911 -0.6677 -0.7416 -0.3851
  818MOL0     C10314   4.298   1.687   8.930 -0.4142  0.1438 -0.3808
  818MOL0     C10315   4.344   1.728   9.060 -0.6049  0.2805  0.5901
  818MOL0     C10316   4.342   1.885   9.082 -0.7284 -0.1754 -0.1827
  818MOL0     C10317   4.463   1.940   9.007 -0.7145 -0.0392 -0.4137
  818MOL0     C10318   4.596   1.931   9.085  0.4670  0.9167 -0.2681
  818MOL0     O10319   4.665   1.797   9.071  1.0420 -1.1509 -0.3192
  818MOL0     C10320   4.800   1.794   9.111 -0.1232 -0.3025  0.6495
  818MOL0     C10321   4.892   1.741   9.024  0.7077  0.0391  0.1756
  818MOL0     C10322   5.031   1.759   9.032  0.5024 -0.7162 -0.5389
  818MOL0     C10323   5.073   1.831   9.147 -0.1498 -0.6132  0.2950
  818MOL0     C10324   5.215   1.854   9.178 -0.8794 -0.3872  0.7880
  818MOL0     O10325   5.287   1.736   9.145 -0.1685 -0.7647  0.7163
  818MOL0     C10326   5.418   1.750   9.171 -0.8085 -0.2124 -1.0303
  818MOL0     C10327   5.495   1.851   9.114  0.2394 -0.4103  0.0299
  818MOL0     C10328   5.630   1.859   9.125  0.4945 -0.1639  0.7955
  818MOL0     C10329   5.698   1.757   9.201 -1.0750 -0.0209  0.8220
  818MOL0     O10330   5.836   1.756   9.219 -0.6322  0.7172  0.6924
  818MOL0     C10331   5.898   1.710   9.334  0.2852  0.0331 -0.4718
  818MOL0     C10332   6.031   1.780   9.357 -0.6548 -0.7105 -0.5488
  818MOL0     C10333   6.014   1.929   9.399  0.0934 -0.1849 -0.8814
  818MOL0     C10334   6.158   1.969   9.445  0.1387 -0.1234  0.8531
  818MOL0     C10335   6.154   2.117   9.492 -0.3282 -0.1671 -0.3280
  818MOL0     C10336   6.289   2.183   9.522 -0.4686 -0.6861  0.6240
  818MOL0     C10337   6.381   2.193   9.404 -0.8630  0.1828  0.2154
  818MOL0     C10338   6.493   2.293   9.431  0.5970 -0.4707 -0.6975
  818MOL0    Cl10339   6.434   2.459   9.396 -0.2634 -0.3647 -0.0212
  818MOL0     C10340   5.627   1.656   9.260 -0.2815 -0.5596  0.4558
  818MOL0     C10341   5.483   1.656   9.251 -0.2810 -0.1532  0.1312
  818MOL0     O10342   5.256   1.960   9.228  0.4841 -0.1861  0.2135
  818MOL0     C10343   4.982   1.880   9.245 -0.1131  0.9780 -0.2458
  818MOL0     C10344   4.839   1.862   9.221  0.4819 -0.4555 -0.2509
  818MOL0     N10345   4.372   1.679   8.814  0.4119  0.1852 -0.0431
  818MOL0     N10346   4.303   1.628   8.724  0.4686  0.1208 -0.6628
  818MOL0     C10347   3.451   0.984   7.905 -0.3775 -0.1809 -0.0101
  818MOL0     C10348   3.381   0.925   7.805  0.0756 -1.7830  0.7260
  818MOL0     C10349   3.050   0.714   7.580  0.3820 -0.0938  0.3142
  818MOL0     C10350   2.908   0.732   7.575  0.5983  1.5200 -1.5835
  818MOL0     C10351   2.825   0.692   7.474  0.1726 -0.5842 -1.1583
  818MOL0     C10352   2.889   0.627   7.362  0.3095 -0.2273 -0.2323
  818MOL0     O10353   2.808   0.597   7.254  0.3202 -0.1942  0.0336
  818MOL0     C10354   2.862   0.547   7.124 -0.3227 -0.2081 -0.1373
  818MOL0     C10355   2.888   0.397   7.117 -0.1359  0.3885  0.4735
  818MOL0     C10356   2.974   0.356   6.992  0.2882 -0.1224 -0.1621
  818MOL0     C10357   2.942   0.213   6.950 -0.3606 -0.0986 -0.5977
  818MOL0     C10358   3.005   0.106   7.041 -0.3458 -0.2011  1.1451
  818MOL0     C10359   3.063   0.037   7.126  0.2364 -0.1617  0.8141
  818MOL0     C10360   3.029   0.622   7.359  1.0053 -0.3600 -0.2284
  818MOL0     C10361   3.109   0.656   7.468  0.0602 -0.2128  0.6647
  818MOL0     C10362   3.250   0.609   7.465 -0.3357 -0.0081 -0.6620
  818MOL0     H10363   3.270   0.640   7.942 -0.1993 -0.0451  0.9342
  818MOL0     H10364   3.402   0.739   8.135  0.0204  1.7789  0.3634
  818MOL0     H10365   3.689   1.029   8.081  0.0344  1.4813 -1.1495
  818MOL0     H10366   3.562   1.150   8.074 -0.5937 -1.9336 -1.9266
  818MOL0     H10367   3.702   1.023   8.311  1.3827  1.4677  0.3436
  818MOL0     H10368   3.536   1.106   8.324 -2.6018  1.5765 -2.9630
  818MOL0     H10369   3.675   1.315   8.244  2.6323  1.8691  1.7568
  818MOL0     H10370   3.814   1.204   8.226  1.0401  2.9414 -0.6478
  818MOL0     H10371   3.673   1.262   8.480  1.9148  1.9194  3.5162
  818MOL0     H10372   3.820   1.167   8.469  0.2058  0.5856  0.2396
  818MOL0     H10373   3.947   1.367   8.383  1.4088  1.8927  1.4731
  818MOL0     H10374   3.803   1.470   8.404 -1.3223  0.0532 -1.9343
  818MOL0     H10375   3.818   1.417   8.649  0.6945 -2.2471  2.2547
  818MOL0     H10376   3.946   1.297   8.615  0.6878 -1.1221 -1.4985
  818MOL0     H10377   3.972   1.605   8.588 -1.5933 -0.8923 -2.9297
  818MOL0     H10378   4.090   1.495   8.525 -1.7331  1.5821 -0.7819
  818MOL0     H10379   4.002   1.488   8.814  0.0322 -0.4088 -0.8284
  818MOL0     H10380   4.125   1.390   8.739 -1.1882 -0.8762  0.2446
  818MOL0     H10381   4.102   1.613   8.985 -0.4402 -0.7619 -0.1464
  818MOL0     H10382   4.274   1.681   9.130 -2.9187  1.5281 -0.7688
  818MOL0     H10383   4.439   1.679   9.081  0.5222  2.3259  0.4921
  818MOL0     H10384   4.254   1.932   9.036 -1.1200 -0.9388 -0.2361
  818MOL0     H10385   4.352   1.896   9.191 -2.5982  2.9017 -0.2228
  818MOL0     H10386   4.445   2.048   9.005  1.1893  0.3385 -3.4257
  818MOL0     H10387   4.478   1.909   8.903  0.8394  1.7434 -0.7663
  818MOL0     H10388   4.565   1.936   9.190 -0.4324 -0.2857 -0.4577
  818MOL0     H10389   4.669   2.012   9.071  1.3268 -0.1301 -2.2744
  818MOL0     H10390   4.834   1.682   8.954  1.4883 -0.5480  0.0083
  818MOL0     H10391   5.098   1.716   8.959  2.6132  0.4956  0.5860
  818MOL0     H10392   5.439   1.917   9.048  1.7799  0.4997 -0.4345
  818MOL0     H10393   5.690   1.940   9.084  1.7597  0.1827  3.1273
  818MOL0     H10394   5.832   1.700   9.420  1.3172 -1.6624  0.1940
  818MOL0     H10395   5.925   1.607   9.308 -0.7266  0.0001 -1.4608
  818MOL0     H10396   6.098   1.726   9.423 -0.5766 -0.6939 -0.6146
  818MOL0     H10397   6.082   1.762   9.262 -0.4198 -0.4464 -0.4747
  818MOL0     H10398   5.956   1.978   9.320 -2.3688  0.1727  1.0058
  818MOL0     H10399   5.950   1.952   9.484  1.3789 -2.0285  0.6688
  818MOL0     H10400   6.215   1.963   9.351 -1.8797 -0.5165 -0.4137
  818MOL0     H10401   6.200   1.902   9.521 -0.6863  0.1525  1.5692
  818MOL0     H10402   6.090   2.129   9.579  2.2829  2.4731  1.4233
  818MOL0     H10403   6.106   2.167   9.408 -0.7809 -5.3561 -3.6331
  818MOL0     H10404   6.266   2.285   9.552  0.4949  0.5045 -2.3134
  818MOL0     H10405   6.329   2.135   9.612  0.3523 -0.1716  0.5467
  818MOL0     H10406   6.321   2.224   9.318  1.0912  1.3929 -0.7863
  818MOL0     H10407   6.418   2.093   9.380 -0.5384  0.9472 -2.8239
  818MOL0     H10408   6.557   2.282   9.519  3.5643 -1.9912 -2.8519
  818MOL0     H10409   6.567   2.268   9.354  0.6750  1.7389 -1.4210
  818MOL0     H10410   5.677   1.581   9.322  0.3747 -1.3231 -0.9640
  818MOL0     H10411   5.435   1.572   9.299  1.9441 -1.4375  0.2371
  818MOL0     H10412   5.017   1.934   9.332 -0.4480 -0.5769  0.9153
  818MOL0     H10413   4.781   1.930   9.282 -1.2725  0.3099 -2.6400
  818MOL0     H10414   3.498   1.081   7.896 -0.5985 -0.0143  0.5500
  818MOL0     H10415   3.385   0.974   7.708  2.1003 -0.9625  1.1699
  818MOL0     H10416   2.854   0.784   7.653  3.7990  0.4662  1.6286
  818MOL0     H10417   2.718   0.703   7.489  0.1040 -0.2917 -1.8434
  818MOL0     H10418   2.959   0.586   7.094  0.2804 -1.1620  0.5305
  818MOL0     H10419   2.786   0.574   7.050 -1.2844  1.6795  1.4560
  818MOL0     H10420   2.790   0.349   7.107  0.6820 -1.7077  1.8375
  818MOL0     H10421   2.941   0.368   7.208  1.2877 -0.5735 -0.6186
  818MOL0     H10422   3.081   0.359   7.016 -0.2965  0.5840  2.8223
  818MOL0     H10423   2.970   0.424   6.906 -1.0152 -0.4049 -0.3408
  818MOL0     H10424   2.832   0.216   6.954 -0.3222  0.0657  1.5672
  818MOL0     H10425   2.989   0.207   6.852  1.1476  1.1019  0.0249
  818MOL0     H10426   3.124  -0.016   7.197  2.7899  4.1383  2.2003
  818MOL0     H10427   3.083   0.590   7.271  1.0094 -2.9971  0.6633
  818MOL0     H10428   3.273   0.543   7.550  1.7320  0.6933 -0.6026
  818MOL0     H10429   3.274   0.552   7.375 -0.9577  1.2812 -1.6757
  818MOL0     H10430   3.315   0.696   7.476  0.0955 -0.5774  2.1637
  819MOL0     O10431   9.613   2.693   4.250  0.7026  0.3206 -0.3627
  819MOL0     C10432   9.524   2.734   4.174  0.1710 -0.9248  0.5383
  819MOL0     O10433   9.410   2.671   4.165  0.6003  0.7545  0.3412
  819MOL0     C10434   9.385   2.576   4.257 -0.3321 -0.0338  0.2023
  819MOL0     C10435   9.349   2.606   4.390  0.5782  0.1854  1.0869
  819MOL0     C10436   9.313   2.510   4.480 -0.3141 -0.5877 -1.1721
  819MOL0     C10437   9.307   2.376   4.444  0.0255  0.1624 -0.0684
  819MOL0     O10438   9.256   2.276   4.515  0.9549  0.2859  0.2871
  819MOL0     C10439   9.206   2.304   4.645  0.5818 -0.8393 -0.0615
  819MOL0     C10440   9.162   2.178   4.716  0.4480  1.2412 -0.3298
  819MOL0     C10441   9.110   2.170   4.859  0.3538  0.3635 -0.0624
  819MOL0     C10442   9.104   2.023   4.911  0.6498  0.6504  0.9989
  819MOL0     C10443   9.004   2.018   5.026 -0.0811  0.0284 -0.4033
  819MOL0     C10444   9.073   1.989   5.169 -0.0258  0.7052  0.4160
  819MOL0     C10445   9.169   2.094   5.215 -0.1074  0.5231  0.0045
  819MOL0     C10446   9.115   2.238   5.238  0.3017 -0.1724 -0.2694
  819MOL0     N10447   9.212   2.337   5.296 -0.2082 -0.0648 -0.1070
  819MOL0     C10448   9.309   2.398   5.227 -0.3669 -0.4102 -0.1640
  819MOL0     C10449   9.374   2.466   5.327  1.2668  0.2021 -0.0934
  819MOL0     C10450   9.505   2.535   5.324 -0.6806 -0.3315  0.1495
  819MOL0     C10451   9.628   2.450   5.368 -0.3372 -0.3782  0.7706
  819MOL0     C10452   9.626   2.378   5.499  1.0187 -0.6048 -1.2773
  819MOL0     C10453   9.769   2.361   5.559 -0.6693  0.3687 -0.6727
  819MOL0     O10454   9.771   2.322   5.693  0.4907  0.8167 -0.7112
  819MOL0     C10455   9.893   2.304   5.755 -0.2213  0.1860 -0.4659
  819MOL0     C10456  10.020   2.326   5.699 -0.4752  0.1353 -0.3354
  819MOL0     C10457  10.133   2.289   5.769  0.1122 -0.3408  0.0390
  819MOL0     C10458  10.127   2.233   5.903  0.4430 -0.5773 -0.1390
  819MOL0     C10459  10.253   2.208   5.980  0.0918 -0.1730 -0.0388
  819MOL0     O10460  10.367   2.266   5.924 -0.2513 -0.4212 -0.9004
  819MOL0     C10461  10.490   2.247   5.987 -0.1980  0.3152  0.8559
  819MOL0     C10462  10.515   2.242   6.125 -0.9797 -0.2913  0.3785
  819MOL0     C10463  10.646   2.220   6.169 -0.3109  0.2775  0.0400
  819MOL0     C10464  10.742   2.182   6.076 -0.3783 -0.9103  0.2795
  819MOL0     O10465  10.878   2.162   6.106  0.1429  0.1296  0.7326
  819MOL0     C10466  10.929   2.188   6.239 -0.0764 -0.1520 -0.6097
  819MOL0     C10467  11.063   2.120   6.268 -0.4646 -0.3110  1.0122
  819MOL0     C10468  11.120   2.146   6.414  0.3070  0.7562  0.0790
  819MOL0     C10469  11.217   2.271   6.415  0.5225 -0.0226 -0.8865
  819MOL0     C10470  11.302   2.285   6.552  0.7725 -0.9177 -0.8408
  819MOL0     C10471  11.395   2.163   6.558 -0.0589 -0.3475 -0.5000
  819MOL0     C10472  11.498   2.173   6.677  0.0486  0.1237  0.2478
  819MOL0     C10473  11.624   2.090   6.651  0.1044 -0.2964  0.0905
  819MOL0    Cl10474  11.583   1.920   6.648  0.2401  0.3075  0.6837
  819MOL0     C10475  10.717   2.179   5.938  0.8796 -0.0041  0.4458
  819MOL0     C10476  10.588   2.229   5.890 -0.4285  0.5738  0.5734
  819MOL0     O10477  10.260   2.132   6.076  0.1571 -0.1784  0.3857
  819MOL0     C10478   9.999   2.214   5.962  0.1778  0.0672  0.4516
  819MOL0     C10479   9.885   2.254   5.885  0.0859 -0.1039 -0.3649
  819MOL0     N10480   9.305   2.451   5.451 -0.1459 -0.0895 -0.0376
  819MOL0     N10481   9.199   2.384   5.427  0.4248  0.6103  0.3667
  819MOL0     C10482   9.327   2.349   4.309 -0.2035 -0.3141 -0.6614
  819MOL0     C10483   9.365   2.445   4.218 -0.2172 -0.1742 -0.4551
  819MOL0     C10484   9.548   2.865   4.094  0.3370  0.4868 -0.9759
  819MOL0     C10485   9.436   2.935   4.030  0.0906 -0.2338 -0.0156
  819MOL0     C10486   9.443   3.065   3.976  0.0256 -0.3137 -0.3997
  819MOL0     C10487   9.561   3.124   3.961  0.0879 -1.0639 -0.1452
  819MOL0     O10488   9.585   3.242   3.896 -0.2428  0.0460 -0.3525
  819MOL0     C10489   9.492   3.297   3.809 -0.2797 -0.5760 -0.5361
  819MOL0     C10490   9.415   3.408   3.890  1.3032 -0.3895  0.4721
  819MOL0     C10491   9.506   3.516   3.938 -0.2697 -0.0176  0.1258
  819MOL0     C10492   9.417   3.619   4.010 -0.9329  0.2893  0.0523
  819MOL0     C10493   9.500   3.729   4.067 -0.5887 -0.1648 -0.5311
  819MOL0     C10494   9.565   3.824   4.111  0.2802  0.0362 -0.6972
  819MOL0     C10495   9.673   3.058   4.006 -0.1267  0.4276  0.1240
  819MOL0     C10496   9.673   2.932   4.076  0.4183 -0.3686  0.4981
  819MOL0     C10497   9.803   2.875   4.129 -0.1305  0.2785 -0.5257
  819MOL0     H10498   9.341   2.712   4.409  1.6162  0.5669 -0.4404
  819MOL0     H10499   9.277   2.534   4.580 -2.5085  0.6051 -2.1713
  819MOL0     H10500   9.294   2.343   4.699 -0.9964  2.4223  0.4057
  819MOL0     H10501   9.141   2.391   4.630  0.8478 -0.7787 -0.9309
  819MOL0     H10502   9.248   2.110   4.715  0.2468  0.9775 -0.0758
  819MOL0     H10503   9.088   2.127   4.654  2.4203 -0.4535 -1.4371
  819MOL0     H10504   9.008   2.210   4.855 -0.5631 -1.8772 -1.2533
  819MOL0     H10505   9.170   2.231   4.927  2.6332 -0.2039 -1.4754
  819MOL0     H10506   9.069   1.959   4.829  1.6887 -0.4937  1.4197
  819MOL0     H10507   9.206   1.987   4.929  0.7867 -0.1849 -1.1281
  819MOL0     H10508   8.933   2.102   5.026  0.1710  0.3200 -2.8736
  819MOL0     H10509   8.950   1.926   5.003  2.2117 -0.7954 -3.0243
  819MOL0     H10510   8.988   1.972   5.235 -2.6425  0.9814 -2.6163
  819MOL0     H10511   9.130   1.896   5.164 -1.8690 -0.4291 -0.6792
  819MOL0     H10512   9.255   2.096   5.147  0.6261  2.1120  0.9196
  819MOL0     H10513   9.205   2.063   5.314 -2.3201  2.2763  1.4508
  819MOL0     H10514   9.077   2.277   5.144  2.0744 -0.9396 -1.3612
  819MOL0     H10515   9.035   2.235   5.313  1.6532  2.7424  1.4799
  819MOL0     H10516   9.339   2.390   5.123  0.8167 -0.6373  0.1712
  819MOL0     H10517   9.533   2.553   5.219 -0.2879  0.2850  0.3539
  819MOL0     H10518   9.516   2.629   5.379  0.0694 -0.0697 -0.4192
  819MOL0     H10519   9.652   2.386   5.283 -0.0134  2.1069 -1.0907
  819MOL0     H10520   9.708   2.524   5.379 -3.0987  2.5086  3.4084
  819MOL0     H10521   9.582   2.280   5.482  1.6629 -1.9012  3.2928
  819MOL0     H10522   9.567   2.436   5.571 -0.9733  0.9981 -3.9930
  819MOL0     H10523   9.825   2.454   5.552 -0.6026  0.3920  0.0482
  819MOL0     H10524   9.824   2.285   5.503 -0.4817 -1.3523  1.6869
  819MOL0     H10525  10.044   2.364   5.600  2.3244  0.6555  0.4513
  819MOL0     H10526  10.234   2.304   5.731  0.2121 -1.0089  0.0353
  819MOL0     H10527  10.435   2.275   6.190 -1.2708 -1.5690  0.7085
  819MOL0     H10528  10.655   2.232   6.276 -4.0494 -2.3168  0.8405
  819MOL0     H10529  10.944   2.296   6.251 -0.7368  0.1892 -2.5290
  819MOL0     H10530  10.864   2.148   6.318  1.1160  1.0903  1.0802
  819MOL0     H10531  11.034   2.014   6.259 -0.9773 -0.1622  0.8661
  819MOL0     H10532  11.131   2.156   6.191  0.3028  0.7879  2.1660
  819MOL0     H10533  11.041   2.152   6.489 -0.9254 -0.7175 -1.0501
  819MOL0     H10534  11.182   2.058   6.434 -2.8552 -1.4903  0.8001
  819MOL0     H10535  11.162   2.365   6.403 -0.2828 -0.6134 -1.8959
  819MOL0     H10536  11.279   2.259   6.325 -0.6524 -0.1688 -1.6899
  819MOL0     H10537  11.221   2.289   6.625  1.1250 -0.9229 -0.4461
  819MOL0     H10538  11.355   2.381   6.547  0.2924 -0.6639 -1.1671
  819MOL0     H10539  11.333   2.075   6.576  0.2792 -0.4834  0.0520
  819MOL0     H10540  11.439   2.140   6.461  1.8469 -1.2333  0.4985
  819MOL0     H10541  11.454   2.140   6.772  1.4002 -0.7650  0.5977
  819MOL0     H10542  11.541   2.273   6.692 -0.6883  0.7340 -1.4669
  819MOL0     H10543  11.672   2.113   6.555 -0.7993 -2.8950 -1.0639
  819MOL0     H10544  11.688   2.113   6.737  2.6312  0.0512 -1.7500
  819MOL0     H10545  10.797   2.142   5.875 -0.3082 -0.3054 -0.9335
  819MOL0     H10546  10.566   2.227   5.784  1.0029 -0.5515  0.2734
  819MOL0     H10547  10.002   2.175   6.063 -1.5700 -0.2925  0.4070
  819MOL0     H10548   9.783   2.255   5.922 -0.8313 -3.4860 -2.3328
  819MOL0     H10549   9.310   2.246   4.277 -0.0076 -1.0936  1.5817
  819MOL0     H10550   9.381   2.411   4.117  0.3368 -0.9504 -0.1159
  819MOL0     H10551   9.339   2.886   4.030  0.2828 -0.6971 -2.0078
  819MOL0     H10552   9.351   3.107   3.937  1.5137  3.6262 -0.0664
  819MOL0     H10553   9.423   3.220   3.774 -1.7904 -0.4737  1.9356
  819MOL0     H10554   9.545   3.342   3.725  1.0007  1.2419  1.1556
  819MOL0     H10555   9.362   3.362   3.973  2.1045  1.1108  1.8819
  819MOL0     H10556   9.339   3.449   3.822  4.0552  1.5106 -1.7058
  819MOL0     H10557   9.559   3.551   3.849  1.9160 -1.8440  0.5838
  819MOL0     H10558   9.586   3.480   4.005  0.2014 -0.1974 -0.5233
  819MOL0     H10559   9.356   3.662   3.930 -2.7888 -0.6162  0.9218
  819MOL0     H10560   9.357   3.580   4.092 -0.2079  0.2531  0.5786
  819MOL0     H10561   9.618   3.912   4.141  0.5662 -0.6301  0.8223
  819MOL0     H10562   9.769   3.095   3.972  0.0924 -1.8624 -2.0095
  819MOL0     H10563   9.798   2.852   4.236  0.7436 -1.1135 -0.7573
  819MOL0     H10564   9.825   2.777   4.085 -2.1571 -0.8561  0.8373
  819MOL0     H10565   9.884   2.948   4.120 -0.4519  0.6136 -0.7195
  820MOL0     O10566   8.218   2.519   9.705 -0.3851 -0.7740  0.1737
  820MOL0     C10567   8.185   2.484   9.595 -0.9574  0.0835 -0.1876
  820MOL0     O10568   8.254   2.487   9.484 -0.3581 -0.6771 -0.4799
  820MOL0     C10569   8.386   2.528   9.488 -0.6629 -0.0549  0.2597
  820MOL0     C10570   8.493   2.434   9.481  0.5424 -0.7142 -0.7986
  820MOL0     C10571   8.628   2.478   9.483 -0.7166 -0.0592  0.2174
  820MOL0     C10572   8.662   2.612   9.474  0.9535 -0.8056 -0.5357
  820MOL0     O10573   8.792   2.641   9.469  0.2188 -0.4422 -0.0421
  820MOL0     C10574   8.844   2.780   9.482  0.2914  0.5102  0.0507
  820MOL0     C10575   8.996   2.774   9.476 -0.6997  0.5858 -0.2663
  820MOL0     C10576   9.043   2.706   9.348  0.0174  0.3719  0.0312
  820MOL0     C10577   9.199   2.707   9.343 -0.3651  0.8574 -0.2715
  820MOL0     C10578   9.280   2.838   9.310  0.4137 -0.4103 -0.5425
  820MOL0     C10579   9.229   2.914   9.187 -0.3230  0.0860 -0.1071
  820MOL0     C10580   9.200   2.833   9.056 -0.6034 -0.1846 -0.1832
  820MOL0     C10581   9.333   2.771   9.011  0.0473 -0.1062 -0.5109
  820MOL0     N10582   9.328   2.716   8.869  0.4107  0.2531  1.0777
  820MOL0     C10583   9.274   2.594   8.835 -0.5833 -0.7375 -0.1996
  820MOL0     C10584   9.284   2.593   8.697 -0.3631 -0.7314 -0.3242
  820MOL0     C10585   9.247   2.471   8.619  0.5334 -0.2794 -1.1078
  820MOL0     C10586   9.114   2.484   8.555  1.0513  0.5806 -0.3399
  820MOL0     C10587   9.118   2.570   8.428 -0.6116 -0.2471  0.0840
  820MOL0     C10588   8.988   2.629   8.405  0.6197 -0.9532  1.0392
  820MOL0     O10589   8.880   2.535   8.401 -0.3584  0.1236 -1.1259
  820MOL0     C10590   8.758   2.563   8.333 -0.8438 -0.5463 -0.2568
  820MOL0     C10591   8.659   2.470   8.357 -0.7175 -0.5549  0.3198
  820MOL0     C10592   8.534   2.479   8.286  0.1636  0.2386 -1.0741
  820MOL0     C10593   8.507   2.581   8.197 -0.4971  0.6485 -0.4650
  820MOL0     C10594   8.387   2.587   8.113 -0.9338  0.1704  0.2346
  820MOL0     O10595   8.393   2.664   7.996  0.5467  0.1456 -0.1229
  820MOL0     C10596   8.267   2.685   7.932  0.8361  0.6293  0.2979
  820MOL0     C10597   8.147   2.692   7.996  0.6694 -0.2762 -0.3334
  820MOL0     C10598   8.028   2.713   7.916 -0.6309 -0.2687 -0.0651
  820MOL0     C10599   8.034   2.749   7.782  0.3145  0.3800 -0.3715
  820MOL0     O10600   7.917   2.803   7.735  0.2639  0.2385  0.2121
  820MOL0     C10601   7.921   2.859   7.602 -0.0180  0.1038  0.5774
  820MOL0     C10602   7.778   2.887   7.569  0.4808  0.1382 -0.4251
  820MOL0     C10603   7.770   2.988   7.457 -0.0527  0.7001 -0.0287
  820MOL0     C10604   7.629   3.063   7.468 -0.0119  0.6686  0.8710
  820MOL0     C10605   7.609   3.166   7.359 -0.4234  0.6403 -0.7845
  820MOL0     C10606   7.494   3.253   7.384  0.2588 -0.2043  0.2357
  820MOL0     C10607   7.354   3.183   7.400  0.1238  0.5799  0.1625
  820MOL0     C10608   7.253   3.288   7.424  0.0505  0.2497 -0.3016
  820MOL0    Cl10609   7.263   3.324   7.600 -0.4763 -0.1002 -0.3361
  820MOL0     C10610   8.160   2.736   7.715  0.7319 -0.5695 -0.1519
  820MOL0     C10611   8.273   2.710   7.797 -0.0511 -0.6240 -0.6756
  820MOL0     O10612   8.297   2.531   8.156 -0.6366  1.1050  0.5613
  820MOL0     C10613   8.612   2.678   8.180 -0.6935  0.3923  0.1186
  820MOL0     C10614   8.737   2.669   8.248  0.6190  0.2532 -0.1717
  820MOL0     N10615   9.343   2.701   8.652  0.0245 -0.7857 -0.6275
  820MOL0     N10616   9.373   2.779   8.754  0.5890 -0.4899  0.5961
  820MOL0     C10617   8.558   2.711   9.478  0.1447  0.2323 -0.7736
  820MOL0     C10618   8.423   2.668   9.487  0.1307 -1.1965 -0.0026
  820MOL0     C10619   8.045   2.434   9.585  0.3886 -0.3552 -0.4414
  820MOL0     C10620   7.994   2.402   9.463 -0.0546  1.4073  0.0056
  820MOL0     C10621   7.860   2.365   9.452 -0.1099  0.1533 -0.3257
  820MOL0     C10622   7.782   2.344   9.563 -0.1860  1.1279 -0.0986
  820MOL0     O10623   7.661   2.287   9.537  0.5006 -0.6392  0.5622
  820MOL0     C10624   7.557   2.272   9.634 -0.2444 -0.2196  0.2911
  820MOL0     C10625   7.432   2.223   9.563 -0.1280  0.5930  0.5097
  820MOL0     C10626   7.439   2.081   9.500 -1.2161 -0.8514  0.0933
  820MOL0     C10627   7.308   2.045   9.436 -0.1783 -0.8779  0.5572
  820MOL0     C10628   7.302   1.904   9.397 -0.3708 -0.3087  1.5351
  820MOL0     C10629   7.293   1.788   9.348  0.4318 -0.0790  0.9081
  820MOL0     C10630   7.835   2.358   9.690  1.2171 -0.2167  0.3898
  820MOL0     C10631   7.966   2.399   9.705 -0.3495 -0.3661  0.4910
  820MOL0     C10632   7.998   2.422   9.849  0.1672  1.0968  0.0685
  820MOL0     H10633   8.473   2.330   9.502  0.2009 -0.3984  0.5808
  820MOL0     H10634   8.712   2.409   9.489 -1.4005 -0.9494 -0.1716
  820MOL0     H10635   8.802   2.829   9.394 -0.3161 -0.1726 -0.0558
  820MOL0     H10636   8.802   2.820   9.575 -0.0648 -2.4180  1.2631
  820MOL0     H10637   9.039   2.722   9.562 -0.9874  2.3516  0.9872
  820MOL0     H10638   9.044   2.872   9.483 -1.2327  0.7394  2.5882
  820MOL0     H10639   9.003   2.769   9.269  1.0671  1.8642  0.6329
  820MOL0     H10640   9.006   2.605   9.331 -0.1528  0.2873  0.8304
  820MOL0     H10641   9.225   2.668   9.442  0.4643  1.6066 -0.1790
  820MOL0     H10642   9.214   2.627   9.270 -1.4172  0.8277 -0.4641
  820MOL0     H10643   9.267   2.910   9.392 -3.1622 -2.3930  0.8376
  820MOL0     H10644   9.386   2.821   9.289  0.9154 -0.1816  1.5529
  820MOL0     H10645   9.141   2.967   9.224  0.1568 -0.8615  2.5988
  820MOL0     H10646   9.298   2.996   9.166 -0.1898 -0.6294 -2.9384
  820MOL0     H10647   9.158   2.904   8.983 -1.3421 -0.2768  0.1433
  820MOL0     H10648   9.119   2.760   9.068 -0.2730 -0.3207  1.3860
  820MOL0     H10649   9.420   2.837   9.005 -0.3022  0.2377 -2.3843
  820MOL0     H10650   9.348   2.697   9.090 -1.1222  0.3153  0.1375
  820MOL0     H10651   9.230   2.522   8.903 -1.6618  0.3363  0.2750
  820MOL0     H10652   9.331   2.435   8.558  1.9409 -2.2743  1.7908
  820MOL0     H10653   9.246   2.392   8.695  5.0295  1.7812  1.5230
  820MOL0     H10654   9.084   2.384   8.524 -1.7308  1.3771 -0.4696
  820MOL0     H10655   9.038   2.520   8.624  0.2797  1.2873 -1.5207
  820MOL0     H10656   9.153   2.519   8.337  1.9634 -0.6736  1.2340
  820MOL0     H10657   9.198   2.644   8.431 -0.9953  0.2020 -0.5443
  820MOL0     H10658   9.011   2.679   8.311  0.0085  1.3728  2.0676
  820MOL0     H10659   8.960   2.699   8.484 -0.4691 -0.4179  0.1952
  820MOL0     H10660   8.677   2.382   8.417 -0.6859  0.1907  1.4370
  820MOL0     H10661   8.457   2.403   8.278  0.3266 -0.0035 -0.4202
  820MOL0     H10662   8.130   2.681   8.102 -0.1013 -1.1294 -0.5372
  820MOL0     H10663   7.935   2.732   7.967  1.8600 -0.0147  4.9995
  820MOL0     H10664   7.967   2.958   7.609 -1.2286  0.6444  1.1054
  820MOL0     H10665   7.966   2.808   7.517 -3.6458 -1.4545 -0.5926
  820MOL0     H10666   7.733   2.791   7.542  2.3917 -1.3298  1.2963
  820MOL0     H10667   7.728   2.917   7.662 -1.7308 -2.3342 -0.7260
  820MOL0     H10668   7.846   3.065   7.470 -0.7500  1.4659 -0.4271
  820MOL0     H10669   7.782   2.948   7.355  2.5044 -1.7188  1.0629
  820MOL0     H10670   7.625   3.101   7.570 -3.3042 -1.4812  1.6889
  820MOL0     H10671   7.541   2.998   7.460 -1.1524  2.2728 -0.7580
  820MOL0     H10672   7.590   3.110   7.267  2.3011 -0.2962 -0.8961
  820MOL0     H10673   7.707   3.213   7.346  0.1943 -0.5189 -0.4817
  820MOL0     H10674   7.511   3.299   7.482 -2.1822 -3.0383  2.1665
  820MOL0     H10675   7.485   3.334   7.310  0.6341  3.0086  3.4376
  820MOL0     H10676   7.356   3.109   7.481 -2.5185  2.6583  2.3005
  820MOL0     H10677   7.324   3.123   7.314 -0.1212 -1.2561  1.4670
  820MOL0     H10678   7.280   3.375   7.364 -2.0169  0.3973 -1.1012
  820MOL0     H10679   7.157   3.252   7.385  0.8264  1.6345 -3.9065
  820MOL0     H10680   8.170   2.760   7.609 -2.0441  0.2498 -0.3173
  820MOL0     H10681   8.375   2.713   7.760  1.1482  0.4105  2.3183
  820MOL0     H10682   8.595   2.755   8.104  1.8160 -1.2396 -2.2728
  820MOL0     H10683   8.814   2.744   8.233  1.0601  0.5481  2.9626
  820MOL0     H10684   8.583   2.811   9.512  2.1084 -0.6261  0.5170
  820MOL0     H10685   8.350   2.748   9.491  0.9525 -0.4723  1.2358
  820MOL0     H10686   8.054   2.414   9.373 -2.0855 -2.2280 -2.0862
  820MOL0     H10687   7.826   2.346   9.351  2.7279  2.4790 -1.8529
  820MOL0     H10688   7.536   2.375   9.664  2.3538  0.4596 -0.0107
  820MOL0     H10689   7.590   2.209   9.717  1.5071  0.9514  0.5385
  820MOL0     H10690   7.426   2.288   9.475  1.2502 -1.0681 -0.9064
  820MOL0     H10691   7.350   2.226   9.635 -0.2099  1.1785  0.3886
  820MOL0     H10692   7.453   2.007   9.579  0.0455 -0.9461 -0.1985
  820MOL0     H10693   7.511   2.079   9.417 -3.1471  0.3226 -1.7066
  820MOL0     H10694   7.226   2.076   9.502  0.5528 -1.3899  1.7329
  820MOL0     H10695   7.288   2.097   9.342 -2.9774  0.5575  1.8210
  820MOL0     H10696   7.291   1.689   9.307 -1.5758  0.8059 -1.4206
  820MOL0     H10697   7.781   2.328   9.780  3.4499 -1.6113  1.3798
  820MOL0     H10698   8.003   2.531   9.852 -1.1915  1.5265 -4.5227
  820MOL0     H10699   7.921   2.379   9.913  0.5532 -0.1540 -0.2924
  820MOL0     H10700   8.091   2.372   9.874 -0.5177 -1.1150 -1.4740
  821MOL0     O10701  10.625   7.856   8.247 -0.5906  0.4454 -0.1022
  821MOL0     C10702  10.618   7.861   8.124 -0.5481  0.5595 -0.2881
  821MOL0     O10703  10.600   7.750   8.046  0.3299 -0.8568  0.8662
  821MOL0     C10704  10.615   7.621   8.096 -0.1189  0.2785 -0.2479
  821MOL0     C10705  10.717   7.587   8.188 -0.1236  0.0246 -0.1800
  821MOL0     C10706  10.710   7.475   8.271  0.0321 -0.5394 -0.5399
  821MOL0     C10707  10.599   7.386   8.263  0.6454  0.5054  0.3288
  821MOL0     O10708  10.590   7.269   8.336  0.7448  0.7234 -0.0675
  821MOL0     C10709  10.576   7.281   8.477 -0.0586  0.0363  0.1872
  821MOL0     C10710  10.661   7.170   8.522  0.3787 -0.4594 -0.2927
  821MOL0     C10711  10.816   7.204   8.511 -0.2856 -0.0380  0.0408
  821MOL0     C10712  10.901   7.093   8.570  0.2450  0.4767  0.5245
  821MOL0     C10713  11.047   7.099   8.528 -0.7251 -0.1548 -0.0246
  821MOL0     C10714  11.080   7.147   8.389 -0.7097  0.2637  0.6232
  821MOL0     C10715  11.227   7.110   8.349  0.1990 -0.2092  0.2855
  821MOL0     C10716  11.338   7.192   8.404  0.7743 -0.4797 -1.1308
  821MOL0     N10717  11.324   7.336   8.375  0.1547 -0.7325  0.6554
  821MOL0     C10718  11.356   7.389   8.252 -0.1303  0.5122  0.3255
  821MOL0     C10719  11.317   7.519   8.255 -0.1317  0.2073 -0.3046
  821MOL0     C10720  11.331   7.622   8.138  0.5818  0.1832  0.0899
  821MOL0     C10721  11.465   7.679   8.143 -0.2103  0.0006  0.3975
  821MOL0     C10722  11.471   7.787   8.249  0.0612  0.7204 -0.7282
  821MOL0     C10723  11.608   7.858   8.240  0.1709 -0.2264 -0.5738
  821MOL0     O10724  11.577   8.001   8.270  0.9376 -0.7070  0.4749
  821MOL0     C10725  11.678   8.088   8.255  0.5610  0.1344  0.2470
  821MOL0     C10726  11.640   8.220   8.249 -0.4327  0.7729 -0.6533
  821MOL0     C10727  11.740   8.308   8.221  0.6652 -0.7840 -0.4516
  821MOL0     C10728  11.870   8.277   8.179  0.2125  0.2729 -0.0804
  821MOL0     C10729  11.972   8.388   8.147  0.5929  0.4937  0.0428
  821MOL0     O10730  12.093   8.369   8.192  0.5857  0.7101 -0.4146
  821MOL0     C10731  12.203   8.445   8.174 -0.2614 -0.0161  0.2863
  821MOL0     C10732  12.210   8.569   8.105  0.0120  0.3873 -0.0243
  821MOL0     C10733  12.329   8.637   8.091 -0.8740 -0.7881  0.3446
  821MOL0     C10734  12.456   8.590   8.143 -0.3512 -0.4540 -0.3261
  821MOL0     O10735  12.575   8.650   8.121 -0.3518  0.2356 -0.3115
  821MOL0     C10736  12.676   8.626   8.215 -0.4118 -1.2967  0.5144
  821MOL0     C10737  12.796   8.724   8.177  0.0659 -0.7143  0.4291
  821MOL0     C10738  12.917   8.698   8.268  0.3352  0.0785  0.6463
  821MOL0     C10739  12.994   8.564   8.254  0.9186 -0.2629  0.1155
  821MOL0     C10740  13.097   8.548   8.362 -0.2819  0.3768 -0.6999
  821MOL0     C10741  13.236   8.613   8.336  0.4644  0.0054  0.5535
  821MOL0     C10742  13.343   8.553   8.433  0.4823 -1.1430 -0.2661
  821MOL0     C10743  13.489   8.613   8.410 -0.3425 -0.0349 -0.7416
  821MOL0    Cl10744  13.607   8.526   8.523 -0.0497 -0.2388  0.1411
  821MOL0     C10745  12.441   8.468   8.217 -1.2996 -0.6294 -0.7817
  821MOL0     C10746  12.323   8.397   8.227  0.9225  1.2090  0.9797
  821MOL0     O10747  11.926   8.478   8.079 -0.5309  0.8213 -0.1344
  821MOL0     C10748  11.896   8.137   8.186  0.4169  0.9266 -0.4091
  821MOL0     C10749  11.811   8.043   8.226  0.0055  0.6172  0.2292
  821MOL0     N10750  11.255   7.541   8.384 -0.2043 -0.4577 -0.3446
  821MOL0     N10751  11.259   7.434   8.453 -0.4798  0.4087  0.1465
  821MOL0     C10752  10.504   7.418   8.170  0.0199 -0.3854  0.2003
  821MOL0     C10753  10.504   7.524   8.080 -0.2488 -1.2557 -1.2563
  821MOL0     C10754  10.665   7.989   8.062 -0.0168 -0.4509  0.0179
  821MOL0     C10755  10.711   7.981   7.927 -0.7983 -0.3077 -0.2234
  821MOL0     C10756  10.772   8.088   7.872 -0.4341  0.7860 -0.0282
  821MOL0     C10757  10.769   8.217   7.925  0.3839  0.1344  0.1021
  821MOL0     O10758  10.816   8.326   7.860 -1.1720 -0.5346  0.3157
  821MOL0     C10759  10.802   8.329   7.719 -0.2920 -0.0439  0.1147
  821MOL0     C10760  10.651   8.356   7.686 -0.2827 -0.6583  0.2572
  821MOL0     C10761  10.625   8.387   7.536  0.8547  0.1083  0.4421
  821MOL0     C10762  10.653   8.530   7.496  0.0562 -0.1108  0.5083
  821MOL0     C10763  10.794   8.558   7.464 -0.0522 -0.0611  0.9127
  821MOL0     C10764  10.906   8.600   7.456  0.9700 -0.2834 -0.9999
  821MOL0     C10765  10.721   8.235   8.056  1.2505 -0.4855 -0.0058
  821MOL0     C10766  10.673   8.119   8.129  0.2441  0.5026  0.2842
  821MOL0     C10767  10.592   8.140   8.264 -0.6539  0.7339  0.1170
  821MOL0     H10768  10.801   7.653   8.204  0.2133 -0.4935  0.2011
  821MOL0     H10769  10.794   7.467   8.339  0.9331  0.9222 -1.4328
  821MOL0     H10770  10.616   7.376   8.513 -4.2342  2.1573 -0.1670
  821MOL0     H10771  10.472   7.275   8.510 -0.5181  4.8572  0.3382
  821MOL0     H10772  10.644   7.077   8.468  0.9087  0.1697 -1.5704
  821MOL0     H10773  10.652   7.140   8.627  1.1847 -3.0363 -0.9077
  821MOL0     H10774  10.829   7.290   8.577 -1.9111 -0.6678  1.2456
  821MOL0     H10775  10.839   7.219   8.405 -1.5538  2.7987  0.0650
  821MOL0     H10776  10.896   7.084   8.679  1.5187 -2.9339  0.3967
  821MOL0     H10777  10.851   7.003   8.534  0.6840  0.5371 -0.2614
  821MOL0     H10778  11.109   7.153   8.600 -1.1556  1.3616 -0.7671
  821MOL0     H10779  11.081   6.995   8.537 -0.4023  0.1271  3.0750
  821MOL0     H10780  11.008   7.100   8.320 -1.2847  0.8401  0.8207
  821MOL0     H10781  11.066   7.255   8.382 -0.0187  0.2823 -0.8266
  821MOL0     H10782  11.232   7.123   8.241 -0.0120 -1.4374  0.1193
  821MOL0     H10783  11.246   7.007   8.379  0.6191 -0.4759 -0.8523
  821MOL0     H10784  11.320   7.155   8.506 -0.3297 -2.6468 -2.0392
  821MOL0     H10785  11.438   7.162   8.369  2.6176  2.1789  1.3766
  821MOL0     H10786  11.400   7.335   8.169  1.7753  4.4111 -1.4654
  821MOL0     H10787  11.313   7.582   8.038  1.4767  0.3949 -0.1672
  821MOL0     H10788  11.252   7.697   8.142 -2.4893 -2.7888 -0.0328
  821MOL0     H10789  11.549   7.610   8.155  1.6483  1.0918 -4.3300
  821MOL0     H10790  11.487   7.727   8.047  2.3281  2.1375  1.8895
  821MOL0     H10791  11.441   7.741   8.344 -1.0767  1.5865 -0.6451
  821MOL0     H10792  11.396   7.866   8.241 -2.5949 -1.5289  0.5749
  821MOL0     H10793  11.666   7.839   8.150 -0.4667  1.0927 -1.2877
  821MOL0     H10794  11.666   7.806   8.317 -0.1517  2.2837  1.5275
  821MOL0     H10795  11.538   8.241   8.278 -0.6405 -0.4717 -0.4253
  821MOL0     H10796  11.713   8.413   8.217  0.2457 -0.7589  1.7108
  821MOL0     H10797  12.132   8.601   8.036 -0.5010 -1.6565 -0.4483
  821MOL0     H10798  12.337   8.738   8.051  1.2538 -0.9324  0.3207
  821MOL0     H10799  12.650   8.651   8.318 -1.9689  2.0420 -0.5376
  821MOL0     H10800  12.695   8.519   8.211 -0.3157 -1.2534 -0.2761
  821MOL0     H10801  12.807   8.698   8.071 -2.8163 -0.5111  0.0146
  821MOL0     H10802  12.769   8.830   8.183 -1.1338 -0.9791 -0.0216
  821MOL0     H10803  12.989   8.776   8.239  1.0238 -0.7476  0.0766
  821MOL0     H10804  12.896   8.722   8.372  3.8080  1.9389  1.0984
  821MOL0     H10805  13.028   8.547   8.151 -2.0736 -0.6477 -0.9213
  821MOL0     H10806  12.916   8.488   8.267  0.1762  0.7020  1.4604
  821MOL0     H10807  13.112   8.440   8.365  0.3366  0.3844 -2.3246
  821MOL0     H10808  13.052   8.581   8.456 -1.0085  1.5142 -1.4188
  821MOL0     H10809  13.255   8.600   8.229  1.3018  2.2933  0.3667
  821MOL0     H10810  13.238   8.719   8.362  3.6825 -0.3421  2.3293
  821MOL0     H10811  13.332   8.445   8.416 -0.2629 -1.1902  0.4342
  821MOL0     H10812  13.308   8.559   8.536 -0.3823  0.0486 -0.6146
  821MOL0     H10813  13.526   8.586   8.311  1.1416  1.5073 -0.6482
  821MOL0     H10814  13.495   8.719   8.437 -1.0834  0.2690 -1.7269
  821MOL0     H10815  12.522   8.420   8.271  0.0679  0.5636 -1.7005
  821MOL0     H10816  12.314   8.309   8.290  3.4627 -0.9196 -1.3230
  821MOL0     H10817  12.000   8.120   8.162  0.8628  0.7232  1.4941
  821MOL0     H10818  11.854   7.943   8.234  0.8452  1.0449  1.2961
  821MOL0     H10819  10.418   7.352   8.177 -0.7743  0.5321 -0.5979
  821MOL0     H10820  10.423   7.554   8.015 -1.8543  0.0287  1.1932
  821MOL0     H10821  10.706   7.885   7.878  0.3202 -0.8509  0.6800
  821MOL0     H10822  10.810   8.074   7.771 -1.7521  0.9829 -0.5859
  821MOL0     H10823  10.825   8.237   7.664  0.4844 -1.0711  2.0604
  821MOL0     H10824  10.859   8.413   7.678 -0.5117 -0.4485 -1.0474
  821MOL0     H10825  10.626   8.437   7.756 -0.5943 -1.0058  0.5497
  821MOL0     H10826  10.592   8.266   7.709  1.4667 -1.3381  2.3941
  821MOL0     H10827  10.518   8.370   7.528  0.7039  0.7776  0.9780
  821MOL0     H10828  10.688   8.317   7.480  1.5575  1.2551 -0.2414
  821MOL0     H10829  10.601   8.559   7.404 -0.7491 -0.8987  0.7071
  821MOL0     H10830  10.621   8.592   7.580  0.2431  0.9146 -0.1613
  821MOL0     H10831  11.009   8.632   7.457  1.4072 -1.6304  0.0144
  821MOL0     H10832  10.719   8.329   8.110 -1.2316  0.4021 -1.4950
  821MOL0     H10833  10.583   8.246   8.289 -0.5720  0.8557 -0.3599
  821MOL0     H10834  10.491   8.098   8.257  0.7082 -3.3881  1.8406
  821MOL0     H10835  10.645   8.083   8.341 -3.4616 -1.9427  0.2646
  822MOL0     O10836   4.188   4.066   1.135  0.2202  0.4651 -0.2802
  822MOL0     C10837   4.199   4.155   1.042 -0.7019  0.2428  0.6162
  822MOL0     O10838   4.318   4.229   1.015  0.3721  0.2816 -0.5145
  822MOL0     C10839   4.409   4.256   1.116  0.5142  0.0148 -0.5482
  822MOL0     C10840   4.462   4.154   1.199 -0.1423 -0.0801 -0.8450
  822MOL0     C10841   4.515   4.193   1.328 -1.3478 -0.4219  0.0420
  822MOL0     C10842   4.547   4.319   1.352 -0.1780  0.1350  0.4572
  822MOL0     O10843   4.622   4.357   1.461 -0.5868 -0.5089 -0.2742
  822MOL0     C10844   4.745   4.280   1.470 -0.1083 -0.2189  0.6825
  822MOL0     C10845   4.842   4.322   1.363 -0.5644  0.5669  0.9269
  822MOL0     C10846   4.889   4.466   1.386 -0.3610 -0.2793 -0.1389
  822MOL0     C10847   5.011   4.493   1.296  0.2001 -0.3052 -0.0416
  822MOL0     C10848   5.059   4.638   1.294 -0.5193  0.1492  0.6426
  822MOL0     C10849   5.188   4.652   1.218  0.3298  0.3699 -0.0822
  822MOL0     C10850   5.237   4.800   1.228  0.6726  0.7919 -0.1760
  822MOL0     C10851   5.384   4.813   1.190 -0.0259 -0.1574 -0.0089
  822MOL0     N10852   5.413   4.955   1.157 -0.0005 -0.1802 -0.8462
  822MOL0     C10853   5.386   5.011   1.041 -0.4077 -0.3829  0.5310
  822MOL0     C10854   5.442   5.134   1.047 -0.2006  0.3933  0.4790
  822MOL0     C10855   5.452   5.239   0.934  0.3053 -0.0100 -0.0030
  822MOL0     C10856   5.341   5.208   0.824 -0.3488 -0.4075 -0.8634
  822MOL0     C10857   5.358   5.302   0.706  0.4390 -0.5523 -0.2049
  822MOL0     C10858   5.267   5.280   0.593 -0.1186  0.1963 -0.1325
  822MOL0     O10859   5.135   5.309   0.637  0.6936 -0.5864 -0.6890
  822MOL0     C10860   5.026   5.288   0.564  0.0623 -0.8960 -0.0187
  822MOL0     C10861   5.026   5.252   0.437  0.2980 -0.0385 -0.2153
  822MOL0     C10862   4.906   5.245   0.368 -0.5884 -0.4316  0.8161
  822MOL0     C10863   4.785   5.272   0.436 -0.9533 -1.1104 -1.0860
  822MOL0     C10864   4.657   5.273   0.369 -0.8058  0.4809  1.3973
  822MOL0     O10865   4.551   5.338   0.417  0.7221  0.0784  0.3977
  822MOL0     C10866   4.431   5.348   0.336  0.4796 -0.0612 -0.1182
  822MOL0     C10867   4.327   5.255   0.372  0.0787 -1.3080 -0.9931
  822MOL0     C10868   4.222   5.240   0.284  0.0401 -0.7548  0.2466
  822MOL0     C10869   4.204   5.323   0.168 -0.0037 -1.4877 -0.9477
  822MOL0     O10870   4.093   5.294   0.089 -0.0729 -0.3867 -0.1572
  822MOL0     C10871   4.092   5.339  -0.045  0.4055 -0.1628 -1.0185
  822MOL0     C10872   4.197   5.288  -0.142 -0.3961 -0.9217  0.3435
  822MOL0     C10873   4.199   5.129  -0.139  0.3937 -0.9906  0.5175
  822MOL0     C10874   4.340   5.097  -0.175 -0.3233 -0.2714 -0.1338
  822MOL0     C10875   4.353   4.940  -0.183 -0.7787 -0.0471 -0.1028
  822MOL0     C10876   4.487   4.890  -0.237 -0.6510  1.1188 -0.0089
  822MOL0     C10877   4.617   4.912  -0.155 -0.7606 -0.0186 -0.0303
  822MOL0     C10878   4.741   4.864  -0.228 -0.3017  0.0004 -0.4135
  822MOL0    Cl10879   4.754   4.697  -0.261  0.0064 -0.0266 -0.0677
  822MOL0     C10880   4.315   5.408   0.139 -0.4056  0.3229  0.6612
  822MOL0     C10881   4.424   5.414   0.217  0.2626 -0.0294  1.4820
  822MOL0     O10882   4.654   5.215   0.257 -0.2690  0.1077  0.4390
  822MOL0     C10883   4.784   5.296   0.574  0.5010 -0.4523  0.1714
  822MOL0     C10884   4.908   5.307   0.637 -0.2963 -0.2143  0.2844
  822MOL0     N10885   5.506   5.151   1.167 -0.1231 -1.1118  0.4396
  822MOL0     N10886   5.476   5.046   1.234 -0.3255  0.8520  0.2188
  822MOL0     C10887   4.507   4.419   1.260  0.6549 -0.4236  0.1900
  822MOL0     C10888   4.435   4.389   1.143 -0.5894 -0.0605 -1.0343
  822MOL0     C10889   4.092   4.162   0.938  0.2933 -0.4475 -0.0183
  822MOL0     C10890   4.003   4.050   0.939  0.2357  0.2385 -0.5671
  822MOL0     C10891   3.891   4.043   0.862  0.0456 -0.2822 -0.1571
  822MOL0     C10892   3.859   4.149   0.781 -0.1317 -0.7794 -0.0401
  822MOL0     O10893   3.732   4.144   0.727  0.3629  0.0224  0.2719
  822MOL0     C10894   3.670   4.257   0.667 -0.3780 -0.2818 -0.2928
  822MOL0     C10895   3.533   4.229   0.601 -0.5323 -0.3305 -0.5624
  822MOL0     C10896   3.474   4.362   0.548  0.3252  0.4976 -0.3649
  822MOL0     C10897   3.332   4.347   0.500  0.6511  0.2938 -0.0695
  822MOL0     C10898   3.280   4.468   0.436 -0.1965  0.1489 -0.2643
  822MOL0     C10899   3.255   4.569   0.372  0.9988 -1.1697 -1.2271
  822MOL0     C10900   3.955   4.249   0.760  0.2906 -0.2440 -0.3809
  822MOL0     C10901   4.064   4.268   0.846 -0.6219  0.0093 -0.3055
  822MOL0     C10902   4.146   4.388   0.840 -0.4411  0.1994  0.0481
  822MOL0     H10903   4.430   4.052   1.179 -1.0847 -1.1360  4.4207
  822MOL0     H10904   4.536   4.122   1.407  1.1273  1.8144  1.5364
  822MOL0     H10905   4.780   4.301   1.571 -3.0371 -2.5222  2.3288
  822MOL0     H10906   4.747   4.171   1.466  1.9096 -0.1892 -0.4651
  822MOL0     H10907   4.806   4.294   1.263 -0.3251 -3.0781  1.7190
  822MOL0     H10908   4.915   4.246   1.394 -2.3267 -1.3021  0.7243
  822MOL0     H10909   4.932   4.468   1.487  2.6289  0.0853 -1.3100
  822MOL0     H10910   4.808   4.539   1.376 -1.9183 -1.9675 -0.5024
  822MOL0     H10911   5.094   4.421   1.290 -0.2018 -0.6304 -3.5168
  822MOL0     H10912   4.992   4.465   1.192  3.8018 -5.5097  0.2689
  822MOL0     H10913   4.981   4.704   1.254  1.1327  1.8014  0.0097
  822MOL0     H10914   5.069   4.673   1.397 -0.0800 -2.2721  1.4923
  822MOL0     H10915   5.262   4.585   1.263 -0.7623 -3.0929 -2.9752
  822MOL0     H10916   5.177   4.624   1.113  2.0987  0.1065 -0.2300
  822MOL0     H10917   5.225   4.820   1.334  1.0101 -1.2624  0.3022
  822MOL0     H10918   5.171   4.859   1.164 -1.5648 -0.7169  0.6272
  822MOL0     H10919   5.437   4.773   1.277 -2.6110  0.5717  2.0490
  822MOL0     H10920   5.414   4.759   1.100  1.2192 -0.6579  0.6807
  822MOL0     H10921   5.329   4.974   0.956 -1.7940  4.8619 -1.1714
  822MOL0     H10922   5.435   5.331   0.990  1.5014 -0.6204  1.4404
  822MOL0     H10923   5.554   5.247   0.894  1.0681 -1.9930  1.3864
  822MOL0     H10924   5.353   5.104   0.791  1.5859  0.2909 -2.5478
  822MOL0     H10925   5.241   5.218   0.868 -1.5109 -2.4478 -2.7902
  822MOL0     H10926   5.460   5.286   0.667  1.1201 -3.7694  2.4210
  822MOL0     H10927   5.360   5.405   0.740  0.6603 -0.7715  0.4548
  822MOL0     H10928   5.269   5.178   0.554  1.6436 -0.1182  0.6914
  822MOL0     H10929   5.294   5.345   0.509  3.5120 -1.0406 -0.0849
  822MOL0     H10930   5.122   5.229   0.392  0.1784  0.8546 -0.9623
  822MOL0     H10931   4.908   5.217   0.264 -0.7998  0.2092  0.6342
  822MOL0     H10932   4.339   5.196   0.463  1.1237  0.5565  0.1572
  822MOL0     H10933   4.151   5.159   0.289 -1.3317  0.4085  0.2739
  822MOL0     H10934   3.994   5.312  -0.085 -1.0487 -0.8131  2.5862
  822MOL0     H10935   4.100   5.448  -0.052 -2.9017  0.3118  0.7103
  822MOL0     H10936   4.171   5.332  -0.239 -2.6458  0.3290  1.4180
  822MOL0     H10937   4.295   5.325  -0.111 -0.1325 -1.8547  0.6410
  822MOL0     H10938   4.165   5.100  -0.039 -4.7244  0.2011 -0.6071
  822MOL0     H10939   4.134   5.086  -0.216  1.5883  0.4132 -1.3542
  822MOL0     H10940   4.429   5.131  -0.122  0.4696 -1.5553 -0.5874
  822MOL0     H10941   4.346   5.129  -0.280  0.2762 -2.3011 -0.7643
  822MOL0     H10942   4.275   4.895  -0.244 -2.0749 -3.2207  3.5373
  822MOL0     H10943   4.346   4.899  -0.082  0.9838  0.3285  0.2120
  822MOL0     H10944   4.480   4.785  -0.267 -2.2856  1.1511  0.1743
  822MOL0     H10945   4.501   4.944  -0.331  0.9032 -1.4791 -1.4151
  822MOL0     H10946   4.593   4.848  -0.070 -1.3057  0.7118  0.3830
  822MOL0     H10947   4.628   5.018  -0.131 -3.5314  0.1082  1.0513
  822MOL0     H10948   4.749   4.917  -0.323 -0.8454 -0.7076 -0.8644
  822MOL0     H10949   4.821   4.909  -0.168 -1.8590  3.0819 -0.4603
  822MOL0     H10950   4.311   5.455   0.042 -1.7259 -2.5493 -0.7938
  822MOL0     H10951   4.512   5.468   0.183  1.6776 -3.4524 -0.7915
  822MOL0     H10952   4.694   5.333   0.623  0.8710  1.2910 -0.3937
  822MOL0     H10953   4.915   5.338   0.741  1.1667  1.5294 -0.2870
  822MOL0     H10954   4.526   4.524   1.279 -1.1439  0.0643 -0.5255
  822MOL0     H10955   4.407   4.477   1.087  2.3355 -0.1614 -2.8326
  822MOL0     H10956   4.010   3.961   1.000  0.2048 -1.0333 -2.3509
  822MOL0     H10957   3.832   3.955   0.840  0.2354 -0.3936 -0.2284
  822MOL0     H10958   3.736   4.290   0.586 -1.1095 -0.3682 -0.9278
  822MOL0     H10959   3.680   4.342   0.735  1.7483  0.6643 -1.6608
  822MOL0     H10960   3.472   4.185   0.680  3.2381 -3.0085  1.1936
  822MOL0     H10961   3.547   4.156   0.520  0.7021 -3.1616  1.9955
  822MOL0     H10962   3.541   4.396   0.468  3.6420  2.2276  2.8338
  822MOL0     H10963   3.470   4.438   0.626  1.3610  0.6390 -0.4354
  822MOL0     H10964   3.320   4.261   0.433 -0.2170 -1.1121  1.7823
  822MOL0     H10965   3.257   4.337   0.580 -1.0405  1.4717 -1.4258
  822MOL0     H10966   3.242   4.661   0.320  0.5823 -0.3212  0.3062
  822MOL0     H10967   3.923   4.337   0.705 -0.1962 -0.1395  0.0603
  822MOL0     H10968   4.180   4.421   0.938  0.2768 -3.3931  1.1234
  822MOL0     H10969   4.238   4.348   0.797 -0.8195 -0.6569  0.0123
  822MOL0     H10970   4.100   4.469   0.782  1.7594 -0.1575 -2.4121
  823MOL0     O10971   7.726  10.039  10.292 -0.4604  0.2047 -0.7046
  823MOL0     C10972   7.737   9.988  10.182 -0.0953 -0.1060  0.3837
  823MOL0     O10973   7.832  10.024  10.090 -0.8724 -0.6655 -1.2359
  823MOL0     C10974   7.946  10.096  10.124 -0.7573 -0.4342  0.3373
  823MOL0     C10975   8.022  10.088  10.244 -0.0210 -0.5717  0.5963
  823MOL0     C10976   8.149  10.146  10.263 -0.1749 -0.5781  0.2623
  823MOL0     C10977   8.204  10.228  10.162  0.5346 -0.6700 -0.6094
  823MOL0     O10978   8.331  10.280  10.167 -0.5943  0.1653  0.3234
  823MOL0     C10979   8.418  10.255  10.285  0.7950  0.1638  0.5469
  823MOL0     C10980   8.563  10.303  10.265 -1.0892  0.1533  0.5249
  823MOL0     C10981   8.599  10.446  10.232 -0.1697  0.3839  0.7536
  823MOL0     C10982   8.542  10.547  10.331 -0.0261  1.3659 -0.1470
  823MOL0     C10983   8.630  10.674  10.345  0.7204  0.6769 -1.2185
  823MOL0     C10984   8.748  10.649  10.449  0.9457 -0.2165 -0.1678
  823MOL0     C10985   8.860  10.754  10.449  1.0328  0.6659  0.3803
  823MOL0     C10986   8.805  10.886  10.491  0.2876  0.7870  0.3504
  823MOL0     N10987   8.904  10.988  10.528  0.0300  0.0749 -0.8535
  823MOL0     C10988   8.993  11.040  10.436 -0.6827  0.0901 -0.4404
  823MOL0     C10989   9.064  11.123  10.514  0.1273 -0.7369 -0.3365
  823MOL0     C10990   9.177  11.206  10.461 -0.0973 -1.1702 -0.1493
  823MOL0     C10991   9.151  11.360  10.483 -0.1709 -0.5104  0.5707
  823MOL0     C10992   9.006  11.396  10.410  0.4011  0.3811  0.7193
  823MOL0     C10993   8.990  11.555  10.405 -0.2353 -0.4746  0.4182
  823MOL0     O10994   8.886  11.586  10.317  0.6581 -0.0557  0.1687
  823MOL0     C10995   8.852  11.723  10.306  0.2062 -0.2312  1.5046
  823MOL0     C10996   8.749  11.747  10.228  0.6127  0.3294  0.0549
  823MOL0     C10997   8.709  11.881  10.197  0.2578  0.4387 -0.8095
  823MOL0     C10998   8.771  11.987  10.266 -0.4591  0.8373  0.1470
  823MOL0     C10999   8.705  12.121  10.251 -0.5761  0.4677 -1.5631
  823MOL0     O11000   8.578  12.119  10.224  0.6278  0.5485 -0.1317
  823MOL0     C11001   8.499  12.222  10.177 -0.1772  0.4547  1.1095
  823MOL0     C11002   8.405  12.182  10.077 -0.6965  0.0204  0.1845
  823MOL0     C11003   8.311  12.279  10.027  0.2377 -0.0132  0.3669
  823MOL0     C11004   8.330  12.417  10.049  0.2001 -0.0781  0.5918
  823MOL0     O11005   8.261  12.515   9.982 -0.1191 -1.2339 -0.7374
  823MOL0     C11006   8.184  12.478   9.871 -0.7701 -0.0436  0.0162
  823MOL0     C11007   8.043  12.470   9.920  0.4195  0.2896  0.7986
  823MOL0     C11008   7.982  12.608   9.937  0.5154  0.2279  0.2569
  823MOL0     C11009   7.837  12.585   9.991 -0.0779  0.2878  1.7067
  823MOL0     C11010   7.759  12.715   9.993  0.1240 -0.0292  0.2097
  823MOL0     C11011   7.785  12.794  10.116  0.1779  0.1443 -0.5888
  823MOL0     C11012   7.741  12.734  10.244  0.1086  0.3421  0.7347
  823MOL0     C11013   7.820  12.798  10.356 -0.1190 -0.1931  0.9050
  823MOL0    Cl11014   7.744  12.749  10.515  0.0003 -0.1214  0.5923
  823MOL0     C11015   8.434  12.455  10.141 -0.3888 -0.2674  0.1014
  823MOL0     C11016   8.515  12.360  10.206  0.2892 -0.4395 -0.1133
  823MOL0     O11017   8.777  12.217  10.267 -1.0721  0.1300  0.2614
  823MOL0     C11018   8.877  11.963  10.361 -0.4793  0.4105 -0.7930
  823MOL0     C11019   8.919  11.834  10.370 -1.0054 -0.4066 -0.2051
  823MOL0     N11020   9.026  11.116  10.648 -0.2007 -1.0681  0.6232
  823MOL0     N11021   8.927  11.033  10.652  0.3077 -0.7007 -1.2154
  823MOL0     C11022   8.135  10.234  10.035 -0.5089 -0.5013  0.0245
  823MOL0     C11023   8.014  10.163  10.017 -0.0118 -0.3020  0.7472
  823MOL0     C11024   7.652   9.870  10.160  0.3394 -1.2153 -0.2581
  823MOL0     C11025   7.701   9.768  10.089  0.7396  0.6656 -0.4534
  823MOL0     C11026   7.630   9.654  10.087 -0.4396  0.3027  0.0153
  823MOL0     C11027   7.514   9.635  10.162  0.0134 -0.4049  0.2491
  823MOL0     O11028   7.456   9.514  10.151  0.1179  0.0219  0.0995
  823MOL0     C11029   7.450   9.438  10.271 -0.5442  0.8397  0.3974
  823MOL0     C11030   7.591   9.379  10.301 -0.4040 -0.3576  0.6858
  823MOL0     C11031   7.627   9.273  10.195 -0.0615  0.0702 -0.1560
  823MOL0     C11032   7.775   9.242  10.185  1.0938  0.1574 -0.0880
  823MOL0     C11033   7.827   9.203  10.318 -0.6095  0.3657 -0.5611
  823MOL0     C11034   7.867   9.155  10.418  1.4727 -0.5617  0.1130
  823MOL0     C11035   7.458   9.742  10.233  0.8529 -0.0259 -0.6167
  823MOL0     C11036   7.519   9.865  10.235 -0.4379 -0.9493  0.5776
  823MOL0     C11037   7.452   9.973  10.307 -0.0535  0.5774 -0.1203
  823MOL0     H11038   7.978  10.036  10.329 -1.6505 -1.2062 -0.6030
  823MOL0     H11039   8.199  10.136  10.359  3.0459  1.3236 -1.0206
  823MOL0     H11040   8.377  10.302  10.375  1.9657 -2.3930  2.5341
  823MOL0     H11041   8.424  10.148  10.306 -0.6938  0.1208  0.8807
  823MOL0     H11042   8.602  10.246  10.180 -1.2037  0.2912  0.3778
  823MOL0     H11043   8.621  10.274  10.353 -1.2799 -1.0053  0.2848
  823MOL0     H11044   8.575  10.469  10.128  0.0384  0.4137  0.7118
  823MOL0     H11045   8.708  10.459  10.241 -0.1008  1.5519 -1.1843
  823MOL0     H11046   8.445  10.579  10.291 -0.2881 -0.1127 -0.7794
  823MOL0     H11047   8.533  10.503  10.431  2.8580  3.9268  1.3973
  823MOL0     H11048   8.682  10.699  10.251  2.1961  0.2359 -0.5448
  823MOL0     H11049   8.566  10.760  10.369  0.2179 -0.0096 -0.0355
  823MOL0     H11050   8.698  10.636  10.545  1.3975  0.1945  0.1285
  823MOL0     H11051   8.795  10.553  10.424  2.4526 -0.4750  3.1336
  823MOL0     H11052   8.875  10.764  10.341 -3.7859  0.9236 -0.4941
  823MOL0     H11053   8.947  10.732  10.512  0.8657 -0.7904  0.1353
  823MOL0     H11054   8.729  10.930  10.425  2.1495  2.0133 -1.0942
  823MOL0     H11055   8.744  10.869  10.580 -1.0245 -1.3537 -0.8813
  823MOL0     H11056   9.003  11.023  10.329  2.6359 -0.2296 -0.1996
  823MOL0     H11057   9.271  11.180  10.510 -0.8527 -1.0559  1.4386
  823MOL0     H11058   9.183  11.188  10.354 -2.7395 -0.8639 -0.4282
  823MOL0     H11059   9.151  11.388  10.588 -0.7666 -2.0255  0.9941
  823MOL0     H11060   9.225  11.424  10.432 -0.1518 -0.7459  0.3043
  823MOL0     H11061   8.934  11.341  10.472 -0.3146  1.7374  1.1331
  823MOL0     H11062   9.003  11.347  10.313 -0.3048 -1.2857  1.5443
  823MOL0     H11063   9.082  11.606  10.376 -3.3476  5.0136 -1.1606
  823MOL0     H11064   8.970  11.586  10.508 -0.5415  1.6935 -0.2505
  823MOL0     H11065   8.721  11.660  10.170  0.9196  0.1745  0.1351
  823MOL0     H11066   8.634  11.902  10.121 -0.0777 -0.3995 -0.7178
  823MOL0     H11067   8.406  12.080  10.041  1.0071 -0.1712  0.7131
  823MOL0     H11068   8.231  12.241   9.963 -1.3715 -1.7122  3.1892
  823MOL0     H11069   8.201  12.547   9.787  0.0883 -0.5059 -0.2024
  823MOL0     H11070   8.219  12.389   9.817  2.0982  1.2086 -0.3399
  823MOL0     H11071   7.980  12.409   9.855 -0.0454 -0.4349  1.8949
  823MOL0     H11072   8.029  12.416  10.014 -0.8872 -2.1119 -0.6746
  823MOL0     H11073   8.041  12.678   9.997  1.6958  0.2926 -0.9335
  823MOL0     H11074   7.987  12.647   9.835  1.4872 -1.5772 -0.4322
  823MOL0     H11075   7.847  12.535  10.087  1.6128  0.9918  1.9377
  823MOL0     H11076   7.784  12.513   9.928  0.1818  1.5153  0.0089
  823MOL0     H11077   7.654  12.686   9.983  0.6296 -1.5646 -1.0769
  823MOL0     H11078   7.783  12.772   9.903 -2.0176 -1.8891 -1.6650
  823MOL0     H11079   7.891  12.819  10.117  0.3252 -0.4759 -0.7615
  823MOL0     H11080   7.743  12.894  10.102  0.0738 -0.0336 -1.5742
  823MOL0     H11081   7.764  12.627  10.248 -3.2679 -0.6287 -1.6969
  823MOL0     H11082   7.633  12.747  10.254 -1.6843 -3.5916 -6.6492
  823MOL0     H11083   7.922  12.758  10.347  0.2457  0.5745  1.5468
  823MOL0     H11084   7.823  12.907  10.364  1.8078 -0.3708  4.4305
  823MOL0     H11085   8.443  12.557  10.176 -1.3009 -0.4592  0.9286
  823MOL0     H11086   8.584  12.380  10.287 -2.4033 -1.3994  2.5838
  823MOL0     H11087   8.917  12.034  10.433  2.6693 -2.4507  0.5131
  823MOL0     H11088   8.995  11.823  10.446 -3.3132  0.3364  2.3613
  823MOL0     H11089   8.181  10.286   9.951 -0.3518 -3.2397 -1.7099
  823MOL0     H11090   7.966  10.164   9.920  2.0142  0.7261 -0.3180
  823MOL0     H11091   7.791   9.760  10.030  2.1300  1.2520  1.4860
  823MOL0     H11092   7.656   9.572  10.020 -2.6807 -2.3656  2.2089
  823MOL0     H11093   7.370   9.366  10.255  0.1305  0.0503  0.5163
  823MOL0     H11094   7.410   9.494  10.357 -2.1548 -0.9526  0.8800
  823MOL0     H11095   7.595   9.327  10.397 -0.8672 -1.5662  0.0724
  823MOL0     H11096   7.667   9.457  10.304 -0.7224 -0.0324  0.3507
  823MOL0     H11097   7.608   9.326  10.101 -0.1044  2.1638  0.9739
  823MOL0     H11098   7.565   9.185  10.212 -0.3414  0.4559  0.8982
  823MOL0     H11099   7.795   9.162  10.114 -3.2278 -0.9231 -0.4039
  823MOL0     H11100   7.831   9.333  10.160 -1.7067  2.1401  0.3553
  823MOL0     H11101   7.892   9.114  10.514 -1.7629 -4.4992 -0.4510
  823MOL0     H11102   7.358   9.728  10.270  0.5128 -2.9284 -2.3269
  823MOL0     H11103   7.486   9.996  10.408 -0.4309  1.9590 -0.2859
  823MOL0     H11104   7.461  10.064  10.247  0.1912  0.2849 -0.5410
  823MOL0     H11105   7.347   9.949  10.323 -0.1567  1.8515  1.3246
  824MOL0     O11106   7.773   5.206   0.385 -0.1374  0.2028  0.4080
  824MOL0     C11107   7.702   5.191   0.287 -0.9176  0.1712  0.0058
  824MOL0     O11108   7.567   5.187   0.300  0.5245  0.6607 -0.0922
  824MOL0     C11109   7.502   5.257   0.391  0.1507  0.0551  0.3777
  824MOL0     C11110   7.525   5.254   0.533 -0.0132 -0.6895 -0.0269
  824MOL0     C11111   7.441   5.319   0.622 -0.9824  0.1262 -0.6481
  824MOL0     C11112   7.338   5.407   0.581  0.2051 -0.0441  0.1979
  824MOL0     O11113   7.251   5.488   0.657  0.0508 -0.3946 -0.2064
  824MOL0     C11114   7.265   5.481   0.802 -0.2456 -0.6619 -0.9499
  824MOL0     C11115   7.139   5.517   0.884 -0.1424 -0.3026  0.4205
  824MOL0     C11116   7.010   5.442   0.838  0.7415  0.2679  0.5531
  824MOL0     C11117   6.936   5.519   0.722  0.0800  0.7190  0.2509
  824MOL0     C11118   6.796   5.457   0.716  0.7724 -0.0544 -0.4294
  824MOL0     C11119   6.708   5.479   0.840 -1.2266 -0.4060 -0.4198
  824MOL0     C11120   6.573   5.411   0.833  0.1871 -0.4747 -0.4393
  824MOL0     C11121   6.483   5.483   0.735  0.0575 -0.1362  0.1717
  824MOL0     N11122   6.357   5.409   0.732 -0.5579  1.0456 -1.2082
  824MOL0     C11123   6.253   5.415   0.821 -0.6713  0.1791 -0.6333
  824MOL0     C11124   6.162   5.325   0.772  0.3796 -0.2431  1.5177
  824MOL0     C11125   6.027   5.305   0.822 -0.3338 -0.4084  0.6898
  824MOL0     C11126   6.009   5.180   0.914  0.8962  0.0855  0.4558
  824MOL0     C11127   6.131   5.145   0.992  0.1413 -0.3148  0.3953
  824MOL0     C11128   6.084   5.075   1.122  0.8905  0.6065  0.8206
  824MOL0     O11129   6.181   5.040   1.225 -0.7571 -0.1700  0.0803
  824MOL0     C11130   6.254   5.140   1.283  0.4666  0.1397  0.1899
  824MOL0     C11131   6.241   5.275   1.257  0.1621  0.1561  0.2760
  824MOL0     C11132   6.330   5.374   1.307 -0.3573 -0.6474 -0.8677
  824MOL0     C11133   6.450   5.335   1.373  0.0189 -0.7247  1.1511
  824MOL0     C11134   6.562   5.430   1.396  0.2131 -0.3268  0.2837
  824MOL0     O11135   6.608   5.521   1.302  0.1555  0.0643  0.2926
  824MOL0     C11136   6.720   5.595   1.302 -0.1333  0.2525  0.3821
  824MOL0     C11137   6.744   5.659   1.178  0.2978  0.2400  0.2369
  824MOL0     C11138   6.868   5.713   1.145 -0.2398 -0.4576  0.3522
  824MOL0     C11139   6.973   5.711   1.235  0.3373  0.0725 -0.0311
  824MOL0     O11140   7.099   5.762   1.193  0.5272  1.1263 -1.0415
  824MOL0     C11141   7.215   5.739   1.270  0.3250  0.2128  0.2727
  824MOL0     C11142   7.338   5.793   1.198 -0.2008 -0.2769 -0.0643
  824MOL0     C11143   7.364   5.718   1.062  0.3561  0.5908 -0.7457
  824MOL0     C11144   7.503   5.756   0.999  0.8851  0.2412 -0.5405
  824MOL0     C11145   7.503   5.902   0.956 -0.8202  0.0975 -0.6032
  824MOL0     C11146   7.646   5.942   0.917 -0.7365  0.6365  0.2921
  824MOL0     C11147   7.657   6.094   0.887 -0.3992 -0.0903  0.1090
  824MOL0     C11148   7.805   6.132   0.856 -0.3463 -0.8765 -0.7280
  824MOL0    Cl11149   7.823   6.303   0.837  0.1830 -0.6172 -0.2045
  824MOL0     C11150   6.945   5.656   1.359 -1.0479  1.6937 -0.3991
  824MOL0     C11151   6.819   5.599   1.397 -0.2976 -0.8468  0.1072
  824MOL0     O11152   6.609   5.424   1.506  0.5653  0.8144  0.0803
  824MOL0     C11153   6.462   5.194   1.390 -0.7806 -0.5811  0.2688
  824MOL0     C11154   6.357   5.105   1.359  0.4847  0.4436  0.0832
  824MOL0     N11155   6.214   5.275   0.653 -0.3938  1.2878 -0.2927
  824MOL0     N11156   6.330   5.320   0.644 -0.0607  0.3790 -0.5392
  824MOL0     C11157   7.322   5.417   0.438  0.7700  0.3559  0.2712
  824MOL0     C11158   7.391   5.339   0.346  0.2360  0.1458 -0.9023
  824MOL0     C11159   7.764   5.176   0.151 -0.4910 -0.1462 -0.6502
  824MOL0     C11160   7.905   5.211   0.137 -0.0449 -0.3348  1.0509
  824MOL0     C11161   7.967   5.203   0.015 -0.3785 -0.0179 -0.3311
  824MOL0     C11162   7.907   5.155  -0.100  0.4029 -1.4898 -0.5168
  824MOL0     O11163   7.992   5.156  -0.207 -0.7608  0.5782 -0.3383
  824MOL0     C11164   7.952   5.110  -0.331 -0.5880 -0.0684  0.8342
  824MOL0     C11165   8.064   5.125  -0.440 -0.8819  0.4395  0.7033
  824MOL0     C11166   8.121   5.265  -0.453  0.0951  0.5474  0.4452
  824MOL0     C11167   8.247   5.266  -0.546 -0.3734 -0.0706  0.2103
  824MOL0     C11168   8.326   5.395  -0.529  0.0247  0.2251  0.3766
  824MOL0     C11169   8.396   5.492  -0.518 -0.1989 -0.4745 -0.1568
  824MOL0     C11170   7.774   5.118  -0.095  0.2398  0.6185  0.3703
  824MOL0     C11171   7.704   5.128   0.024  0.0773 -0.2390 -0.5505
  824MOL0     C11172   7.560   5.078   0.023 -0.1637  0.7947  0.3736
  824MOL0     H11173   7.604   5.190   0.571 -0.8441 -1.1629  0.9845
  824MOL0     H11174   7.466   5.291   0.723 -0.2788 -0.1166 -0.8831
  824MOL0     H11175   7.293   5.377   0.819  2.0403 -0.4294 -2.8005
  824MOL0     H11176   7.336   5.560   0.829  0.3449 -1.7447  0.8358
  824MOL0     H11177   7.124   5.624   0.864  0.8110 -0.1738  0.3175
  824MOL0     H11178   7.148   5.515   0.993 -1.0429  2.6098  0.6293
  824MOL0     H11179   6.946   5.435   0.927  0.1131  2.6344  0.3548
  824MOL0     H11180   7.040   5.337   0.827  0.1001 -0.2534  3.1517
  824MOL0     H11181   6.922   5.625   0.744 -2.2577  1.2250 -2.9329
  824MOL0     H11182   6.996   5.519   0.630 -1.5512  1.9385 -0.8765
  824MOL0     H11183   6.737   5.496   0.633 -1.3082 -0.8307  0.6340
  824MOL0     H11184   6.797   5.352   0.685 -1.9689 -0.2569 -0.0389
  824MOL0     H11185   6.759   5.456   0.935 -1.7639  1.4035  0.3509
  824MOL0     H11186   6.692   5.587   0.846  0.0086 -0.2135 -0.1667
  824MOL0     H11187   6.525   5.428   0.930 -0.3086  0.2406 -0.7985
  824MOL0     H11188   6.566   5.302   0.823 -0.8758 -0.5154  0.4764
  824MOL0     H11189   6.473   5.590   0.755 -1.0468 -0.1681 -0.1369
  824MOL0     H11190   6.534   5.478   0.639  0.6127 -3.5601  0.5297
  824MOL0     H11191   6.250   5.472   0.914 -0.1875  2.7085 -2.0868
  824MOL0     H11192   5.996   5.393   0.880  0.6849 -0.2597  1.0238
  824MOL0     H11193   5.955   5.293   0.740  0.8628 -2.4385 -0.1341
  824MOL0     H11194   5.931   5.204   0.987  1.7372 -0.2045  1.4846
  824MOL0     H11195   5.966   5.102   0.851  0.9468  3.1708 -3.8248
  824MOL0     H11196   6.185   5.237   1.017 -1.0955  0.9555 -1.3592
  824MOL0     H11197   6.206   5.086   0.938 -0.0188 -0.2215  0.0722
  824MOL0     H11198   6.042   4.979   1.091  0.6105  1.0281 -0.1391
  824MOL0     H11199   6.000   5.124   1.173  0.1931  0.2483  0.0323
  824MOL0     H11200   6.153   5.316   1.209  1.1642  1.7426 -0.2770
  824MOL0     H11201   6.316   5.478   1.281  2.9808 -0.3948 -2.1425
  824MOL0     H11202   6.661   5.655   1.108 -1.4781  2.0176  2.1140
  824MOL0     H11203   6.884   5.754   1.045  0.7001  1.2918  1.1690
  824MOL0     H11204   7.199   5.786   1.368  2.4842  0.8663  0.3690
  824MOL0     H11205   7.234   5.632   1.284  3.6444  0.1452 -3.2194
  824MOL0     H11206   7.302   5.895   1.189 -0.9765 -0.5143  0.3137
  824MOL0     H11207   7.428   5.787   1.260  0.5629  1.7612 -0.8933
  824MOL0     H11208   7.354   5.614   1.094 -1.2837  1.4177  1.7308
  824MOL0     H11209   7.283   5.742   0.993 -0.6461  0.7143  0.4427
  824MOL0     H11210   7.514   5.695   0.910 -1.4394  1.7069 -1.9283
  824MOL0     H11211   7.587   5.735   1.066 -0.3935  2.2936  1.9237
  824MOL0     H11212   7.468   5.969   1.035  2.2139 -0.2402  1.2101
  824MOL0     H11213   7.437   5.915   0.870 -3.1986  0.2830  1.1341
  824MOL0     H11214   7.705   5.908   1.002 -2.3664 -2.2127  0.4155
  824MOL0     H11215   7.674   5.885   0.828 -3.7295  0.3669 -0.5878
  824MOL0     H11216   7.617   6.156   0.968  1.6146 -1.8738  2.6431
  824MOL0     H11217   7.601   6.116   0.795 -1.3222  2.0519  1.1191
  824MOL0     H11218   7.860   6.102   0.945 -0.8009 -0.1711 -0.1992
  824MOL0     H11219   7.842   6.075   0.770 -2.9951 -0.1442 -2.4736
  824MOL0     H11220   7.026   5.661   1.431 -1.5592  1.7662  0.1836
  824MOL0     H11221   6.815   5.570   1.501  0.5809  0.9209  0.6706
  824MOL0     H11222   6.554   5.162   1.437 -1.4854 -1.1584  1.2850
  824MOL0     H11223   6.368   5.000   1.385 -0.1675  0.3961  0.1741
  824MOL0     H11224   7.241   5.481   0.403  0.4493  0.5821  1.3889
  824MOL0     H11225   7.359   5.352   0.243 -0.4009  2.7122 -0.4394
  824MOL0     H11226   7.973   5.231   0.220 -0.2130  1.5001  0.7939
  824MOL0     H11227   8.074   5.218   0.018 -0.3377  0.2185  4.5619
  824MOL0     H11228   7.867   5.167  -0.369  0.5362  1.3428  0.3412
  824MOL0     H11229   7.923   5.005  -0.325 -1.5493  0.1736  0.5072
  824MOL0     H11230   8.035   5.076  -0.533 -1.1320  1.5686  0.1669
  824MOL0     H11231   8.145   5.058  -0.409 -2.3368 -1.8939 -0.2486
  824MOL0     H11232   8.151   5.290  -0.351 -1.3247  0.1741  0.9820
  824MOL0     H11233   8.039   5.331  -0.486 -0.0579  1.0848  1.8552
  824MOL0     H11234   8.315   5.185  -0.519 -1.2612 -0.7361  0.5144
  824MOL0     H11235   8.221   5.268  -0.652 -1.2591  1.0117  0.4332
  824MOL0     H11236   8.445   5.584  -0.494 -3.1112  0.9025  1.0614
  824MOL0     H11237   7.728   5.063  -0.176 -1.4000 -1.7837  2.7729
  824MOL0     H11238   7.495   5.162  -0.005 -1.5016  0.0208  1.0632
  824MOL0     H11239   7.554   4.998  -0.051  2.2642  1.6530 -0.8796
  824MOL0     H11240   7.538   5.041   0.124  1.5466 -0.2568  0.3970
  825MOL0     O11241   9.480   9.846   1.497 -0.3146 -0.4116 -0.3915
  825MOL0     C11242   9.531   9.802   1.394 -0.3125  0.2418  0.6243
  825MOL0     O11243   9.476   9.704   1.309  0.1860  0.3287  0.3859
  825MOL0     C11244   9.360   9.650   1.351  0.7819  0.7080 -0.3545
  825MOL0     C11245   9.245   9.651   1.257  0.0829  0.1313  0.2868
  825MOL0     C11246   9.134   9.569   1.274 -1.1170  0.5193  0.3802
  825MOL0     C11247   9.137   9.491   1.390  0.0247 -0.2797 -1.3200
  825MOL0     O11248   9.029   9.404   1.409  0.3984  0.1997 -0.3024
  825MOL0     C11249   9.058   9.266   1.372  0.1499 -0.9441 -0.3741
  825MOL0     C11250   8.997   9.219   1.239  0.4660 -0.4074 -1.0123
  825MOL0     C11251   9.054   9.085   1.195  0.3019  0.1493 -0.1153
  825MOL0     C11252   9.011   9.044   1.051 -0.2816 -0.4535 -0.3589
  825MOL0     C11253   9.064   8.910   1.004 -1.0383 -0.5889 -0.3059
  825MOL0     C11254   9.027   8.885   0.862 -0.1230  0.5793  0.1336
  825MOL0     C11255   9.115   8.773   0.804 -0.4761  0.0155  1.1340
  825MOL0     C11256   9.110   8.764   0.653  0.8098  0.1813 -0.8514
  825MOL0     N11257   9.143   8.624   0.625 -0.1743  0.8743 -0.0060
  825MOL0     C11258   9.065   8.523   0.565  0.4754  0.0627 -0.5522
  825MOL0     C11259   9.156   8.433   0.519  0.1568  0.3469 -0.4417
  825MOL0     C11260   9.115   8.312   0.427  0.7767 -0.0325 -0.4387
  825MOL0     C11261   9.222   8.306   0.314 -0.1349  0.6704 -0.4978
  825MOL0     C11262   9.195   8.211   0.202  0.2190 -0.0408 -0.0152
  825MOL0     C11263   9.312   8.212   0.101  0.1593 -1.5377  0.3369
  825MOL0     O11264   9.431   8.150   0.150  0.7341  0.6799 -0.2478
  825MOL0     C11265   9.427   8.010   0.163 -0.8439 -0.1640 -0.2921
  825MOL0     C11266   9.544   7.957   0.215  0.2034  0.1069  0.4839
  825MOL0     C11267   9.563   7.814   0.221  1.0225 -0.3159 -0.8636
  825MOL0     C11268   9.457   7.725   0.184 -0.0823  0.5071 -0.2344
  825MOL0     C11269   9.468   7.578   0.206 -0.1145  0.5412 -0.4013
  825MOL0     O11270   9.348   7.515   0.204 -0.4597  0.0962 -0.9522
  825MOL0     C11271   9.331   7.377   0.232 -1.4621 -0.3717  0.1756
  825MOL0     C11272   9.213   7.323   0.186 -0.4115 -0.2585  0.5154
  825MOL0     C11273   9.173   7.194   0.215  0.2829  0.1838 -0.4363
  825MOL0     C11274   9.239   7.120   0.309 -0.6335  0.1007 -0.8500
  825MOL0     O11275   9.197   6.998   0.348 -0.0544  0.4583  0.3661
  825MOL0     C11276   9.258   6.884   0.284 -0.2223 -0.3756  0.0582
  825MOL0     C11277   9.158   6.800   0.213  0.2090  0.2486 -0.0688
  825MOL0     C11278   9.151   6.863   0.079 -0.2888  0.1437 -0.7593
  825MOL0     C11279   9.027   6.806  -0.003 -0.0022 -0.3177 -0.4129
  825MOL0     C11280   8.891   6.843   0.037 -0.3439 -0.0476 -0.0963
  825MOL0     C11281   8.854   6.978  -0.002 -0.2559 -0.2100  0.0944
  825MOL0     C11282   8.699   6.982   0.012 -0.5811  0.2745 -0.1461
  825MOL0     C11283   8.642   7.127   0.024 -0.5847  0.3290  0.3354
  825MOL0    Cl11284   8.462   7.123  -0.010 -0.3728  0.0039 -0.2734
  825MOL0     C11285   9.358   7.177   0.363  0.9929 -0.5866 -0.0525
  825MOL0     C11286   9.403   7.308   0.324  0.0090  0.5158  0.0938
  825MOL0     O11287   9.583   7.530   0.224 -0.9366  0.0288 -0.4812
  825MOL0     C11288   9.344   7.787   0.122  0.2817 -0.1746 -0.5262
  825MOL0     C11289   9.328   7.928   0.118  0.8957  0.1687 -0.1711
  825MOL0     N11290   9.282   8.475   0.548 -0.1840 -0.1225 -0.1414
  825MOL0     N11291   9.265   8.589   0.603 -0.3919  0.2630 -0.7725
  825MOL0     C11292   9.248   9.487   1.485  0.3846  0.5282 -0.0081
  825MOL0     C11293   9.360   9.556   1.456 -0.5388 -0.2355 -0.1385
  825MOL0     C11294   9.664   9.857   1.355 -0.4009 -0.0650 -1.1130
  825MOL0     C11295   9.741   9.795   1.258  1.3697 -0.5287 -0.1931
  825MOL0     C11296   9.860   9.847   1.199 -0.2724 -1.1611 -0.3715
  825MOL0     C11297   9.920   9.953   1.263 -0.3157  0.0414 -0.1339
  825MOL0     O11298  10.049   9.985   1.223  0.0908  0.7441 -0.3130
  825MOL0     C11299  10.113  10.116   1.259  1.1523  1.1439  0.2280
  825MOL0     C11300  10.045  10.231   1.168  0.2156 -0.5794  1.0947
  825MOL0     C11301  10.141  10.312   1.081  0.3749 -0.6497  0.8637
  825MOL0     C11302  10.200  10.425   1.161 -0.7092 -0.0588  0.4196
  825MOL0     C11303  10.290  10.368   1.269 -1.0852  0.1656  1.0389
  825MOL0     C11304  10.383  10.342   1.341 -0.8814  0.6477 -0.0049
  825MOL0     C11305   9.861  10.016   1.370  0.4382 -0.1756  0.0339
  825MOL0     C11306   9.731   9.973   1.413  0.9470  0.6419 -0.9502
  825MOL0     C11307   9.670  10.045   1.530  0.0396 -0.0948  0.3008
  825MOL0     H11308   9.242   9.712   1.168  0.5021 -1.3786 -0.7925
  825MOL0     H11309   9.049   9.562   1.207 -1.7359 -0.7237  1.2492
  825MOL0     H11310   9.166   9.250   1.368 -0.2335 -3.8930 -1.9161
  825MOL0     H11311   9.036   9.205   1.460 -1.2993  1.3732  0.9981
  825MOL0     H11312   9.028   9.306   1.180  0.5307 -0.6219 -1.2921
  825MOL0     H11313   8.888   9.222   1.237  0.3381  2.5951  1.3855
  825MOL0     H11314   9.017   9.014   1.269 -2.6902  0.5470 -1.0939
  825MOL0     H11315   9.164   9.089   1.199  0.3158  0.3667 -0.5738
  825MOL0     H11316   8.903   9.054   1.041 -0.1362  1.1190 -0.6609
  825MOL0     H11317   9.050   9.116   0.978 -1.6540 -0.1579 -0.8333
  825MOL0     H11318   9.173   8.915   1.011 -1.0603 -1.6809  1.2322
  825MOL0     H11319   9.019   8.832   1.065  0.5529 -1.6576 -0.4498
  825MOL0     H11320   8.919   8.882   0.844 -0.1088  3.4924 -0.9704
  825MOL0     H11321   9.044   8.980   0.811 -2.8512  1.3606  0.5092
  825MOL0     H11322   9.076   8.679   0.846 -2.6785 -0.0406 -0.8212
  825MOL0     H11323   9.221   8.787   0.827 -0.0394  0.4280 -0.9429
  825MOL0     H11324   9.009   8.776   0.615 -0.0868  0.6784  1.5229
  825MOL0     H11325   9.180   8.834   0.606  0.3654  0.7750 -0.6365
  825MOL0     H11326   8.957   8.531   0.557  0.5216  2.2741  0.1572
  825MOL0     H11327   9.119   8.220   0.486 -4.1463 -0.1686  0.1304
  825MOL0     H11328   9.012   8.330   0.393  0.3877 -1.8410 -0.3255
  825MOL0     H11329   9.229   8.406   0.269 -3.3686  0.6681 -1.2660
  825MOL0     H11330   9.320   8.276   0.352 -0.2087 -3.6917 -3.1099
  825MOL0     H11331   9.100   8.240   0.157  1.0355  3.0327  0.0288
  825MOL0     H11332   9.184   8.111   0.246  0.8648 -0.1740 -0.1489
  825MOL0     H11333   9.331   8.316   0.073  0.7531 -2.1735 -1.8174
  825MOL0     H11334   9.278   8.161   0.011 -1.7556 -1.0121  0.7120
  825MOL0     H11335   9.632   8.020   0.227  1.0719 -0.8627 -0.5989
  825MOL0     H11336   9.657   7.774   0.259  0.4940 -0.7184  0.0593
  825MOL0     H11337   9.158   7.383   0.114  1.4536  1.9099  0.7999
  825MOL0     H11338   9.078   7.160   0.176 -0.4045 -0.6999  1.8473
  825MOL0     H11339   9.346   6.911   0.226 -1.7115 -0.2892 -2.3183
  825MOL0     H11340   9.296   6.820   0.364 -0.2885 -0.3015  0.1494
  825MOL0     H11341   9.181   6.694   0.204  0.5275  0.1768  1.3452
  825MOL0     H11342   9.066   6.813   0.271  0.0280  4.1960 -0.9285
  825MOL0     H11343   9.138   6.972   0.081 -2.9369 -0.1181 -0.4709
  825MOL0     H11344   9.239   6.841   0.018  0.0221 -0.6077 -0.0625
  825MOL0     H11345   9.038   6.698   0.006  2.3621 -0.2050 -1.0705
  825MOL0     H11346   9.031   6.823  -0.111 -0.8873 -4.4541 -1.2585
  825MOL0     H11347   8.873   6.838   0.145  0.3053  0.1877  0.0219
  825MOL0     H11348   8.821   6.768  -0.001 -0.1469 -1.1157  1.5167
  825MOL0     H11349   8.910   7.048   0.060  2.7061 -0.9627 -1.5546
  825MOL0     H11350   8.880   6.997  -0.107  0.5108 -2.1230 -0.0912
  825MOL0     H11351   8.662   6.920   0.094  1.2168 -3.2222 -1.7860
  825MOL0     H11352   8.657   6.929  -0.074  0.4478  0.7047 -0.9394
  825MOL0     H11353   8.667   7.175   0.119  0.4294  2.0328 -0.7349
  825MOL0     H11354   8.691   7.191  -0.051  2.1755 -1.8082  0.1314
  825MOL0     H11355   9.429   7.124   0.427  0.7932  0.2784  0.9160
  825MOL0     H11356   9.487   7.353   0.375  2.2961 -4.4356  1.2576
  825MOL0     H11357   9.257   7.721   0.120  0.8218 -1.0730  2.0081
  825MOL0     H11358   9.235   7.974   0.087  1.0511  2.0888  1.9640
  825MOL0     H11359   9.245   9.408   1.559 -2.7979  1.1124  0.6444
  825MOL0     H11360   9.452   9.539   1.511 -1.0674 -3.5691 -0.0781
  825MOL0     H11361   9.713   9.696   1.223  0.5190 -0.1148 -0.7242
  825MOL0     H11362   9.906   9.791   1.119  0.8343  0.2316 -0.7377
  825MOL0     H11363  10.218  10.106   1.227  0.8896 -1.7708  0.0634
  825MOL0     H11364  10.110  10.141   1.365  1.9060 -2.3874  1.2103
  825MOL0     H11365   9.979  10.296   1.225  0.4259  1.0631 -0.4638
  825MOL0     H11366   9.984  10.178   1.094  1.3494  3.0192 -2.7753
  825MOL0     H11367  10.089  10.350   0.992  0.3390 -0.2561  1.0498
  825MOL0     H11368  10.224  10.250   1.045  2.5301  1.9468  1.0029
  825MOL0     H11369  10.254  10.495   1.096 -3.6717  4.7833  2.6234
  825MOL0     H11370  10.128  10.489   1.214 -0.0937  0.2813  0.8531
  825MOL0     H11371  10.463  10.317   1.407 -1.9133 -2.2266  0.2742
  825MOL0     H11372   9.912  10.102   1.413 -0.1861 -0.2894  1.0284
  825MOL0     H11373   9.728  10.135   1.549  0.2275 -0.0972 -0.2439
  825MOL0     H11374   9.568  10.069   1.499 -0.9588 -1.0451  2.5833
  825MOL0     H11375   9.654   9.971   1.610 -2.8972  0.4094  0.3006
  826MOL0     O11376   3.919   7.763   0.172  0.1435 -0.2461 -0.1804
  826MOL0     C11377   3.823   7.712   0.234  0.0960 -0.3700  0.0630
  826MOL0     O11378   3.766   7.591   0.196  0.0727 -0.0525  0.4382
  826MOL0     C11379   3.847   7.519   0.118 -0.5342  0.2215  0.2265
  826MOL0     C11380   3.956   7.447   0.167 -0.6659 -0.2951 -0.2155
  826MOL0     C11381   4.027   7.345   0.092 -0.2817 -0.0819 -0.0518
  826MOL0     C11382   3.986   7.334  -0.050  0.1265 -0.5704 -0.1470
  826MOL0     O11383   4.060   7.243  -0.121 -0.2873  0.9257 -0.1170
  826MOL0     C11384   4.098   7.278  -0.250  1.0004  0.8078  0.4717
  826MOL0     C11385   4.135   7.155  -0.338  0.0708  0.3300  0.0693
  826MOL0     C11386   4.253   7.066  -0.284 -0.0356  0.1216 -0.4326
  826MOL0     C11387   4.370   7.138  -0.218  0.2866 -0.0690  0.3481
  826MOL0     C11388   4.489   7.048  -0.182 -0.1547  0.1382  0.2196
  826MOL0     C11389   4.602   7.122  -0.108 -0.1362  0.0553 -0.4865
  826MOL0     C11390   4.670   7.238  -0.187  0.2796  0.9966 -0.0110
  826MOL0     C11391   4.794   7.183  -0.263 -0.8589  0.5097  0.6674
  826MOL0     N11392   4.818   7.276  -0.373 -0.1114  0.4380 -0.2475
  826MOL0     C11393   4.751   7.284  -0.496  0.1062  0.0301  0.9888
  826MOL0     C11394   4.784   7.405  -0.542 -1.2776  0.3347  0.4690
  826MOL0     C11395   4.738   7.475  -0.662  0.1400 -0.5895 -0.3324
  826MOL0     C11396   4.735   7.625  -0.645  0.8200  0.8980  0.8805
  826MOL0     C11397   4.689   7.701  -0.775  0.8219  0.2634 -0.0833
  826MOL0     C11398   4.626   7.620  -0.886  0.0413  0.0378 -0.1343
  826MOL0     O11399   4.492   7.575  -0.850  0.1072 -0.2029 -1.1267
  826MOL0     C11400   4.419   7.525  -0.952  0.5510 -1.4671 -0.7209
  826MOL0     C11401   4.292   7.492  -0.923 -0.3613  0.2786 -0.2601
  826MOL0     C11402   4.213   7.430  -1.011  0.0934  0.8576  0.4299
  826MOL0     C11403   4.252   7.406  -1.147  1.0103 -1.4171  0.2719
  826MOL0     C11404   4.161   7.342  -1.236  0.7752 -0.0377  0.3939
  826MOL0     O11405   4.036   7.292  -1.192  0.0884  0.1928  0.0515
  826MOL0     C11406   3.949   7.236  -1.281 -0.9514 -0.1445 -0.2097
  826MOL0     C11407   3.939   7.102  -1.286 -0.4199 -0.0351 -0.2368
  826MOL0     C11408   3.844   7.043  -1.375 -0.7835  1.0922  0.0753
  826MOL0     C11409   3.751   7.129  -1.442 -0.7679 -0.6096 -0.3666
  826MOL0     O11410   3.653   7.074  -1.532 -0.2724 -0.5286  0.0883
  826MOL0     C11411   3.597   7.169  -1.626  0.5998  0.0334  0.1695
  826MOL0     C11412   3.501   7.080  -1.711  0.8206  0.5859  0.2622
  826MOL0     C11413   3.362   7.040  -1.642 -0.1820 -0.0539  0.1872
  826MOL0     C11414   3.367   6.986  -1.489 -0.3450  0.2268  0.9075
  826MOL0     C11415   3.230   6.952  -1.434 -0.0514  1.4115  0.8062
  826MOL0     C11416   3.240   6.930  -1.283  0.7786  0.7431 -1.0107
  826MOL0     C11417   3.099   6.892  -1.232 -0.0727  0.4508  0.0201
  826MOL0     C11418   3.087   6.875  -1.082  0.8046  0.0258 -0.5213
  826MOL0    Cl11419   3.072   7.028  -0.989  0.3328 -0.3049 -0.0410
  826MOL0     C11420   3.750   7.262  -1.419  0.0216 -0.7370 -0.1078
  826MOL0     C11421   3.853   7.317  -1.340  0.8675 -0.0348  1.4666
  826MOL0     O11422   4.197   7.328  -1.355 -0.1007  0.0308 -1.1616
  826MOL0     C11423   4.389   7.434  -1.175 -0.1995 -1.1247 -0.2438
  826MOL0     C11424   4.465   7.505  -1.079  0.0713  0.8237 -0.3703
  826MOL0     N11425   4.886   7.449  -0.470  0.4147  0.2080 -0.2205
  826MOL0     N11426   4.902   7.381  -0.366  0.0879 -1.0044 -1.0344
  826MOL0     C11427   3.875   7.407  -0.098  0.1912 -0.1578  0.4091
  826MOL0     C11428   3.810   7.493  -0.012 -0.1285 -0.5901  0.0729
  826MOL0     C11429   3.776   7.777   0.358 -0.4457 -0.4704  0.4208
  826MOL0     C11430   3.649   7.744   0.406 -0.6508  1.4338  0.3630
  826MOL0     C11431   3.576   7.810   0.512 -0.3058 -0.8254  0.3654
  826MOL0     C11432   3.651   7.900   0.585  0.4105  0.0700 -0.2914
  826MOL0     O11433   3.603   7.980   0.684  0.9596 -0.2395 -0.0118
  826MOL0     C11434   3.614   7.930   0.814  0.4413 -0.5314 -0.3432
  826MOL0     C11435   3.489   7.945   0.895  0.3247 -0.0806  0.8825
  826MOL0     C11436   3.387   7.850   0.838  0.6616  0.4140 -0.2902
  826MOL0     C11437   3.238   7.886   0.886 -1.0798 -0.5593  0.4351
  826MOL0     C11438   3.153   7.783   0.827  1.3853 -0.5959  0.8739
  826MOL0     C11439   3.100   7.687   0.773 -1.3748  0.9412  0.6532
  826MOL0     C11440   3.787   7.926   0.544 -0.1098 -0.5485 -0.6543
  826MOL0     C11441   3.842   7.870   0.432  0.2624 -0.6891 -0.3946
  826MOL0     C11442   3.981   7.921   0.379  0.0056 -0.2437 -0.7768
  826MOL0     H11443   3.990   7.464   0.268 -0.3519 -0.5285 -0.2780
  826MOL0     H11444   4.111   7.279   0.112 -0.2609 -0.9527 -2.6879
  826MOL0     H11445   4.007   7.318  -0.296 -2.0595 -2.9450  2.6850
  826MOL0     H11446   4.181   7.349  -0.245  2.4842 -0.8716  0.6357
  826MOL0     H11447   4.159   7.194  -0.438 -0.1867  3.7925  1.2120
  826MOL0     H11448   4.042   7.097  -0.346 -1.1161  2.3022 -1.5571
  826MOL0     H11449   4.287   7.003  -0.367  1.7166 -1.8014  1.6100
  826MOL0     H11450   4.216   6.996  -0.210  0.8145  1.8131  1.7085
  826MOL0     H11451   4.409   7.211  -0.290  0.5554 -0.2935  0.2642
  826MOL0     H11452   4.326   7.190  -0.133  1.5679  2.1755 -0.2605
  826MOL0     H11453   4.466   6.951  -0.137 -0.9770  0.1045 -0.2604
  826MOL0     H11454   4.534   7.016  -0.276 -2.8980  3.1250 -2.3539
  826MOL0     H11455   4.566   7.173  -0.018 -2.1661  2.3132 -2.4277
  826MOL0     H11456   4.682   7.057  -0.072  0.6760 -0.2164 -2.6318
  826MOL0     H11457   4.680   7.325  -0.121 -3.8278  1.7137 -0.0807
  826MOL0     H11458   4.588   7.262  -0.256  0.8962 -1.2490 -1.6670
  826MOL0     H11459   4.884   7.178  -0.202  0.9268  1.3212 -1.7564
  826MOL0     H11460   4.768   7.082  -0.296  0.3953 -0.3698  2.2470
  826MOL0     H11461   4.683   7.205  -0.525  1.2059 -0.4727 -0.3730
  826MOL0     H11462   4.814   7.461  -0.739  3.4944  1.5451  2.3302
  826MOL0     H11463   4.637   7.438  -0.681 -1.2420  2.1154  1.1643
  826MOL0     H11464   4.663   7.646  -0.565  0.6072 -1.9854  1.5517
  826MOL0     H11465   4.834   7.655  -0.610  3.6844 -4.3482 -1.5236
  826MOL0     H11466   4.780   7.756  -0.802  1.4134  0.4712  2.1436
  826MOL0     H11467   4.619   7.778  -0.740  1.6428  1.0912 -0.2003
  826MOL0     H11468   4.681   7.527  -0.907 -3.3237 -1.8828 -1.0994
  826MOL0     H11469   4.626   7.678  -0.979 -1.4824 -1.8549 -1.3869
  826MOL0     H11470   4.260   7.511  -0.821  1.6793  1.6239  0.1858
  826MOL0     H11471   4.122   7.398  -0.962  0.7551  2.3704  2.7741
  826MOL0     H11472   3.997   7.045  -1.214  1.0133  1.2059 -0.3668
  826MOL0     H11473   3.843   6.935  -1.381  0.3034  1.0555  0.3154
  826MOL0     H11474   3.533   7.250  -1.590 -3.7102 -0.5373 -4.9280
  826MOL0     H11475   3.680   7.212  -1.684  2.0384 -1.3484  1.1232
  826MOL0     H11476   3.474   7.136  -1.801 -0.2906 -0.8636 -0.3501
  826MOL0     H11477   3.555   6.991  -1.744  0.2264  0.9749 -1.9319
  826MOL0     H11478   3.293   7.125  -1.643 -2.7924 -2.0271 -0.0310
  826MOL0     H11479   3.314   6.966  -1.707 -0.5615 -1.6667  2.2104
  826MOL0     H11480   3.408   7.063  -1.422 -0.1183  1.4585 -0.5744
  826MOL0     H11481   3.433   6.899  -1.490  0.3107  0.7160  0.0220
  826MOL0     H11482   3.182   6.862  -1.473  0.1180  2.1970 -1.3839
  826MOL0     H11483   3.163   7.038  -1.438  0.6537  2.0097  1.5671
  826MOL0     H11484   3.309   6.845  -1.271  1.8578  1.1440 -3.7058
  826MOL0     H11485   3.279   7.020  -1.235 -1.0999  1.4364 -0.7197
  826MOL0     H11486   3.064   6.806  -1.290  0.6893  1.3340 -1.8750
  826MOL0     H11487   3.033   6.977  -1.255 -0.1183 -0.0316 -1.8535
  826MOL0     H11488   2.996   6.822  -1.055  0.7976  1.3643  2.3982
  826MOL0     H11489   3.168   6.812  -1.044 -0.8457 -1.8284  0.0770
  826MOL0     H11490   3.679   7.327  -1.470 -1.6352 -2.1837  0.2872
  826MOL0     H11491   3.868   7.424  -1.335 -2.5420  0.5698  1.2204
  826MOL0     H11492   4.425   7.410  -1.275 -0.6823  1.4530 -1.0983
  826MOL0     H11493   4.568   7.524  -1.106  0.5559 -1.8317 -0.7153
  826MOL0     H11494   3.841   7.404  -0.201 -0.5580  1.4133  0.5741
  826MOL0     H11495   3.734   7.555  -0.060  1.0891  1.8641  1.1288
  826MOL0     H11496   3.608   7.659   0.351  1.4818  0.7585 -0.2745
  826MOL0     H11497   3.470   7.806   0.537  0.0852  1.2497  2.8106
  826MOL0     H11498   3.696   7.981   0.867  2.6743 -1.9585 -2.2631
  826MOL0     H11499   3.631   7.822   0.811  3.6075 -0.1630  0.5895
  826MOL0     H11500   3.448   8.046   0.895 -3.1890 -1.3647  0.3190
  826MOL0     H11501   3.520   7.913   0.995  0.1954 -1.2311  0.5764
  826MOL0     H11502   3.414   7.749   0.870 -1.2374  0.4044  1.4525
  826MOL0     H11503   3.378   7.852   0.729 -1.2574  1.4680 -0.1645
  826MOL0     H11504   3.244   7.888   0.995  1.6656  0.4531  0.3286
  826MOL0     H11505   3.201   7.979   0.842 -1.5871 -0.3509  1.2797
  826MOL0     H11506   3.066   7.604   0.714  1.1146  0.3696 -0.1330
  826MOL0     H11507   3.844   7.999   0.601  1.1654  0.1230 -2.6890
  826MOL0     H11508   4.044   7.835   0.358  1.4187  0.1956  1.4404
  826MOL0     H11509   3.974   7.982   0.288  0.5639  0.3582 -0.4246
  826MOL0     H11510   4.024   7.982   0.458  0.4247  0.4524 -1.5309
  827MOL0     O11511   9.957   7.076   8.423 -0.1361  0.5764  0.6828
  827MOL0     C11512  10.006   6.963   8.439  0.8799  0.3299  0.6961
  827MOL0     O11513   9.931   6.850   8.484 -1.1077 -0.2273 -0.3225
  827MOL0     C11514   9.802   6.866   8.525 -1.2612  0.1155 -0.1629
  827MOL0     C11515   9.764   6.838   8.655  0.0211 -0.5427 -0.2445
  827MOL0     C11516   9.627   6.849   8.702 -0.1521  0.0269  0.1143
  827MOL0     C11517   9.524   6.890   8.608  0.0990 -0.6076  0.1160
  827MOL0     O11518   9.389   6.895   8.640  0.3812  0.1255 -0.9088
  827MOL0     C11519   9.322   6.838   8.748  0.8834 -0.0245  0.3246
  827MOL0     C11520   9.273   6.700   8.709 -0.4833 -0.1634 -0.0675
  827MOL0     C11521   9.306   6.587   8.815  0.3695  0.0900  0.6052
  827MOL0     C11522   9.250   6.626   8.958  0.0112 -0.1838  0.2181
  827MOL0     C11523   9.097   6.612   8.987  1.3126 -0.7657 -0.3296
  827MOL0     C11524   9.063   6.610   9.134  0.4172  0.3942 -0.0441
  827MOL0     C11525   9.084   6.756   9.183  0.0094 -0.3111  1.3093
  827MOL0     C11526   9.073   6.774   9.333  0.7660  0.2155 -0.0320
  827MOL0     N11527   9.106   6.900   9.383 -0.4838 -0.0459 -1.0492
  827MOL0     C11528   9.033   7.013   9.397  0.4131  0.2506  0.1600
  827MOL0     C11529   9.113   7.107   9.433 -0.5254  0.1512  0.0280
  827MOL0     C11530   9.070   7.249   9.467  0.6080  0.8275 -0.0436
  827MOL0     C11531   9.161   7.318   9.575  0.8948 -1.1072  0.5610
  827MOL0     C11532   9.284   7.395   9.515  0.0712  0.2587  0.3242
  827MOL0     C11533   9.373   7.469   9.618 -0.7451 -0.7711  0.6764
  827MOL0     O11534   9.463   7.542   9.537 -0.1035 -0.7548  0.1831
  827MOL0     C11535   9.590   7.569   9.583 -0.7145  0.1329  0.1126
  827MOL0     C11536   9.690   7.621   9.494  0.0572 -0.0356 -0.7046
  827MOL0     C11537   9.815   7.668   9.537  1.1449 -0.5412 -0.2053
  827MOL0     C11538   9.856   7.646   9.674  0.7380 -0.6759  0.1850
  827MOL0     C11539   9.988   7.703   9.719 -0.6417 -0.0654 -0.0246
  827MOL0     O11540  10.077   7.748   9.623 -0.4193 -0.2071  0.1047
  827MOL0     C11541  10.204   7.805   9.647  0.6113 -0.2885  0.4370
  827MOL0     C11542  10.246   7.903   9.551 -0.4569  0.4107  0.5670
  827MOL0     C11543  10.380   7.937   9.558 -0.4589 -0.8369 -0.6971
  827MOL0     C11544  10.476   7.885   9.656 -0.5606  0.2585  0.3202
  827MOL0     O11545  10.613   7.913   9.670  0.6916 -0.3450 -0.3579
  827MOL0     C11546  10.673   8.015   9.587  0.5862 -0.2639  0.2558
  827MOL0     C11547  10.816   7.982   9.595  0.0172 -0.7401 -0.2977
  827MOL0     C11548  10.882   8.076   9.500  0.2578  0.2157 -0.6339
  827MOL0     C11549  11.032   8.095   9.529  0.0237 -0.5025 -0.3635
  827MOL0     C11550  11.109   8.217   9.453  0.0333 -0.0043  0.3000
  827MOL0     C11551  11.254   8.238   9.493  0.4175  0.2235 -0.3595
  827MOL0     C11552  11.357   8.164   9.416 -0.0726 -0.2970  0.2278
  827MOL0     C11553  11.498   8.218   9.456 -0.1395 -0.4317  0.4541
  827MOL0    Cl11554  11.516   8.188   9.634 -0.5686 -0.0043  0.2570
  827MOL0     C11555  10.427   7.798   9.748 -0.7066  1.2233 -0.2167
  827MOL0     C11556  10.294   7.755   9.741  0.8068  0.7372 -0.2053
  827MOL0     O11557  10.012   7.697   9.839  0.2265 -0.8875 -0.0105
  827MOL0     C11558   9.758   7.584   9.765  0.6752  0.0808  0.1685
  827MOL0     C11559   9.635   7.556   9.717  0.1687 -0.2413  0.2407
  827MOL0     N11560   9.239   7.044   9.456 -0.5690 -0.2461  0.2495
  827MOL0     N11561   9.227   6.917   9.436  0.2869 -0.6581  0.8937
  827MOL0     C11562   9.566   6.924   8.479  1.1698  1.0535 -0.1858
  827MOL0     C11563   9.701   6.908   8.437 -1.2493 -0.9186  0.7873
  827MOL0     C11564  10.147   6.943   8.387  0.2698  0.1193  0.0755
  827MOL0     C11565  10.214   7.055   8.329  0.7643  0.6106  0.6398
  827MOL0     C11566  10.340   7.041   8.268  0.0268 -0.9661  0.7746
  827MOL0     C11567  10.412   6.914   8.269  0.0921 -0.4921 -1.0576
  827MOL0     O11568  10.535   6.879   8.222  0.6147  0.6487  0.1826
  827MOL0     C11569  10.606   6.976   8.149  0.3414 -0.0659 -0.1723
  827MOL0     C11570  10.751   6.960   8.169  1.3463 -1.2369 -0.7556
  827MOL0     C11571  10.823   6.826   8.151 -0.2290  0.0546 -0.6428
  827MOL0     C11572  10.970   6.827   8.204  0.3435 -0.0366 -0.7800
  827MOL0     C11573  11.057   6.902   8.116  0.0232  0.4511  1.0999
  827MOL0     C11574  11.126   6.962   8.037 -0.0660 -0.8292 -0.2699
  827MOL0     C11575  10.344   6.804   8.327  0.2479  0.1574  0.7404
  827MOL0     C11576  10.212   6.810   8.376 -0.2746  0.1641 -0.7052
  827MOL0     C11577  10.164   6.681   8.432  0.5268 -0.3802  0.1795
  827MOL0     H11578   9.849   6.819   8.719 -0.9922 -1.7568  0.7910
  827MOL0     H11579   9.594   6.828   8.803 -4.1779 -0.9409 -1.2223
  827MOL0     H11580   9.392   6.821   8.831  0.5442 -0.2625  0.5658
  827MOL0     H11581   9.242   6.904   8.783  1.2325  0.2460  0.6259
  827MOL0     H11582   9.327   6.670   8.619  0.5344 -0.2563  0.5553
  827MOL0     H11583   9.166   6.706   8.688 -0.5401 -0.4533  0.1338
  827MOL0     H11584   9.414   6.567   8.813  1.0223  2.9847  1.5976
  827MOL0     H11585   9.253   6.496   8.784 -0.6163 -0.1151  2.7555
  827MOL0     H11586   9.296   6.551   9.023 -3.3394 -3.2289 -0.6129
  827MOL0     H11587   9.280   6.730   8.976 -3.3234  1.5699 -2.9236
  827MOL0     H11588   9.049   6.696   8.936 -0.6047 -2.1291 -0.8607
  827MOL0     H11589   9.056   6.522   8.941 -0.5316  0.3974 -1.0880
  827MOL0     H11590   8.959   6.586   9.159  0.5376  1.6504  1.8763
  827MOL0     H11591   9.125   6.536   9.185 -0.3016  0.6241  1.1995
  827MOL0     H11592   9.025   6.822   9.119  0.1264 -2.8743 -1.6474
  827MOL0     H11593   9.185   6.793   9.167 -1.3961  3.5167  0.0966
  827MOL0     H11594   8.966   6.761   9.347  0.5926 -1.8519 -2.4475
  827MOL0     H11595   9.120   6.699   9.397  0.6745  0.5428  0.4203
  827MOL0     H11596   8.928   7.022   9.371  0.7045  2.6203 -0.4723
  827MOL0     H11597   9.059   7.301   9.371 -0.5379  0.9303  0.1361
  827MOL0     H11598   8.971   7.251   9.513  1.2041 -0.2517  1.3400
  827MOL0     H11599   9.098   7.385   9.634 -3.5207 -1.8200 -2.7901
  827MOL0     H11600   9.187   7.236   9.643 -0.6996 -1.5811  0.6379
  827MOL0     H11601   9.241   7.475   9.454  0.3071  1.0120  1.1249
  827MOL0     H11602   9.341   7.312   9.472 -1.9691 -0.9662 -0.2029
  827MOL0     H11603   9.424   7.393   9.678  0.6295 -1.1689 -0.9283
  827MOL0     H11604   9.323   7.535   9.689  1.3834  0.7025  0.8749
  827MOL0     H11605   9.648   7.628   9.395 -1.2209  3.0671 -0.0791
  827MOL0     H11606   9.889   7.712   9.471 -1.7389  2.2680 -1.8494
  827MOL0     H11607  10.186   7.938   9.468 -1.7105  1.1886  1.7668
  827MOL0     H11608  10.415   8.009   9.485 -0.7835 -0.8383 -0.8564
  827MOL0     H11609  10.634   7.992   9.487  2.2355 -0.1564 -0.4403
  827MOL0     H11610  10.643   8.116   9.615  0.5551  1.1615 -4.1661
  827MOL0     H11611  10.863   8.006   9.690  0.9896  1.8897 -1.3402
  827MOL0     H11612  10.848   7.880   9.572  2.8167 -0.2916  1.2326
  827MOL0     H11613  10.878   8.028   9.401  1.4784 -0.6381 -0.2931
  827MOL0     H11614  10.823   8.168   9.502 -0.0929 -0.0187  0.4465
  827MOL0     H11615  11.086   8.004   9.502 -1.1356 -1.0615 -0.8887
  827MOL0     H11616  11.033   8.111   9.637 -2.9191  0.3564 -0.3553
  827MOL0     H11617  11.059   8.311   9.475 -3.8714 -1.9868  0.6947
  827MOL0     H11618  11.102   8.195   9.346 -1.1694 -2.4723  0.8125
  827MOL0     H11619  11.267   8.345   9.480  1.6810  0.5246  2.4725
  827MOL0     H11620  11.251   8.217   9.601 -2.3082 -0.6238 -0.5372
  827MOL0     H11621  11.340   8.186   9.310  2.3405  2.1751  0.2583
  827MOL0     H11622  11.352   8.055   9.422  2.0007 -0.4537 -0.2029
  827MOL0     H11623  11.577   8.154   9.416  2.7564  2.0042  1.8220
  827MOL0     H11624  11.514   8.320   9.421  0.8139 -1.4122 -2.2146
  827MOL0     H11625  10.486   7.772   9.834 -3.0352  0.8767  1.3695
  827MOL0     H11626  10.256   7.688   9.818  1.5165 -2.5650 -2.5005
  827MOL0     H11627   9.796   7.556   9.863  0.8426  1.8630  0.6385
  827MOL0     H11628   9.570   7.506   9.788  0.2613 -0.9948 -0.2031
  827MOL0     H11629   9.496   6.977   8.414  2.1580  1.2374 -1.1306
  827MOL0     H11630   9.730   6.948   8.340 -1.7995 -1.3867  0.4196
  827MOL0     H11631  10.177   7.157   8.337  0.7108  0.5076  1.7979
  827MOL0     H11632  10.378   7.134   8.228 -1.1676  0.2548  2.3632
  827MOL0     H11633  10.579   7.072   8.193  1.4147  0.2437 -0.1468
  827MOL0     H11634  10.578   6.954   8.045 -1.6168  0.5108  0.2087
  827MOL0     H11635  10.783   6.991   8.269  1.2628 -2.0550 -0.4593
  827MOL0     H11636  10.806   7.024   8.100  2.0630  0.3371  1.1561
  827MOL0     H11637  10.831   6.796   8.046  1.5476 -0.1681 -0.4628
  827MOL0     H11638  10.761   6.751   8.201  0.1513 -0.0704 -0.3583
  827MOL0     H11639  10.971   6.873   8.303 -2.1408  3.1867 -2.0847
  827MOL0     H11640  11.005   6.723   8.212  4.9807  1.4374  0.9055
  827MOL0     H11641  11.181   7.017   7.964  1.5064 -1.5734  0.3223
  827MOL0     H11642  10.382   6.702   8.319  2.9219  1.2136 -2.6335
  827MOL0     H11643  10.089   6.651   8.358 -1.3973 -0.2426  2.0045
  827MOL0     H11644  10.238   6.603   8.453 -1.2033 -2.3223 -0.5521
  827MOL0     H11645  10.118   6.710   8.526  0.7755 -0.4440  0.3207
  828MOL0     O11646   1.081   8.078   7.837 -0.2526 -0.1335 -0.2409
  828MOL0     C11647   1.076   8.185   7.897  0.2967  0.8876  0.1501
  828MOL0     O11648   0.971   8.238   7.949  0.9568  0.3124 -0.1528
  828MOL0     C11649   0.846   8.189   7.906 -0.3649  1.0082 -0.6113
  828MOL0     C11650   0.805   8.049   7.929  0.3574 -1.2921  0.0784
  828MOL0     C11651   0.676   8.004   7.902  0.2792  0.0884  0.1605
  828MOL0     C11652   0.572   8.091   7.865 -0.0618 -0.7951 -0.0117
  828MOL0     O11653   0.446   8.036   7.835 -0.4724 -0.3926  0.5142
  828MOL0     C11654   0.339   8.133   7.863  0.0132  0.5252 -0.4590
  828MOL0     C11655   0.200   8.067   7.890 -1.5303 -0.3398  0.8143
  828MOL0     C11656   0.141   7.990   7.765  0.5788  0.6778 -1.0235
  828MOL0     C11657   0.113   7.838   7.807 -0.3014  0.1471 -0.1756
  828MOL0     C11658   0.115   7.746   7.687 -0.3098  0.3615 -0.9043
  828MOL0     C11659   0.090   7.600   7.733  0.1244  0.3891 -1.0243
  828MOL0     C11660   0.086   7.509   7.613  0.3352 -0.4929  0.3705
  828MOL0     C11661   0.079   7.363   7.656  0.4055 -0.4204 -0.8816
  828MOL0     N11662  -0.027   7.328   7.741 -0.0864  0.9103 -0.6799
  828MOL0     C11663  -0.159   7.367   7.738 -0.1386  0.0569 -0.4412
  828MOL0     C11664  -0.205   7.348   7.861  0.2721 -0.2583 -0.6115
  828MOL0     C11665  -0.338   7.403   7.915  0.7304 -0.2195 -0.6803
  828MOL0     C11666  -0.454   7.307   7.925 -0.4946  0.1440  0.2071
  828MOL0     C11667  -0.586   7.381   7.963  0.3960  0.2499 -1.0962
  828MOL0     C11668  -0.685   7.421   7.844  0.8066  0.0940  0.4646
  828MOL0     O11669  -0.631   7.421   7.716 -0.3395 -0.0710  0.3134
  828MOL0     C11670  -0.703   7.490   7.615  0.0394  0.3441  0.0815
  828MOL0     C11671  -0.640   7.486   7.495  0.1769  0.0501  0.8305
  828MOL0     C11672  -0.681   7.552   7.385  0.4099 -1.2981 -0.4658
  828MOL0     C11673  -0.806   7.636   7.396  0.1902 -0.0894  0.1384
  828MOL0     C11674  -0.857   7.711   7.281  0.2388 -0.2570 -0.3619
  828MOL0     O11675  -0.779   7.706   7.170  0.5122 -0.3070  0.1643
  828MOL0     C11676  -0.817   7.747   7.041  0.8274 -0.9802  0.3553
  828MOL0     C11677  -0.940   7.813   7.004 -0.8039 -0.7361  0.7117
  828MOL0     C11678  -0.965   7.832   6.865 -0.4936 -1.1111  0.3354
  828MOL0     C11679  -0.882   7.786   6.760  0.2552 -0.8844 -0.2536
  828MOL0     O11680  -0.901   7.795   6.619 -0.1525  0.2237 -0.2445
  828MOL0     C11681  -1.041   7.812   6.574  0.3569  1.0509 -0.1267
  828MOL0     C11682  -1.040   7.810   6.416 -0.1523 -1.1476  0.0097
  828MOL0     C11683  -1.000   7.669   6.359 -0.0365 -0.2416  0.4167
  828MOL0     C11684  -1.008   7.656   6.209  0.0586  0.6005  0.0217
  828MOL0     C11685  -0.944   7.532   6.157 -0.1975  0.1091 -0.7145
  828MOL0     C11686  -0.947   7.529   5.997  0.4090  0.4232  0.4766
  828MOL0     C11687  -0.931   7.386   5.934 -1.4961 -0.4464 -0.7483
  828MOL0     C11688  -1.048   7.293   5.966  0.7211 -0.9330 -0.8878
  828MOL0    Cl11689  -1.009   7.132   5.902 -0.7149  0.6815 -0.2969
  828MOL0     C11690  -0.761   7.725   6.803 -0.4048  0.3029  0.4263
  828MOL0     C11691  -0.735   7.707   6.933 -0.9222  0.3336  0.0896
  828MOL0     O11692  -0.967   7.777   7.294  0.1376  0.1459 -0.1756
  828MOL0     C11693  -0.867   7.645   7.521 -0.9647 -0.4738 -0.9561
  828MOL0     C11694  -0.823   7.567   7.629  0.0232 -0.1979  0.0975
  828MOL0     N11695  -0.104   7.294   7.934 -0.0219 -0.2526 -0.2726
  828MOL0     N11696  -0.001   7.270   7.861  0.0201 -0.0579  0.5250
  828MOL0     C11697   0.605   8.226   7.852 -0.2445 -0.0875 -0.9290
  828MOL0     C11698   0.737   8.276   7.881 -0.1425 -0.4048 -0.0686
  828MOL0     C11699   1.205   8.270   7.879  0.8633 -0.1267 -0.2270
  828MOL0     C11700   1.179   8.412   7.882 -0.6408  0.1574 -0.2362
  828MOL0     C11701   1.282   8.502   7.854  0.0877 -0.3228  0.5533
  828MOL0     C11702   1.411   8.456   7.820 -0.5444  0.0461  0.3338
  828MOL0     O11703   1.515   8.539   7.790 -0.7942 -0.1134 -0.0844
  828MOL0     C11704   1.490   8.678   7.747 -1.1583  0.3765  0.0066
  828MOL0     C11705   1.627   8.733   7.712 -0.4987  0.7118 -0.3034
  828MOL0     C11706   1.728   8.749   7.835  0.6255 -0.2455  0.4902
  828MOL0     C11707   1.878   8.727   7.795 -0.2508 -0.5823 -0.2766
  828MOL0     C11708   1.958   8.668   7.893 -0.9895 -0.6860 -1.2103
  828MOL0     C11709   2.014   8.618   7.986 -0.7340  0.9269  0.0575
  828MOL0     C11710   1.434   8.319   7.811 -0.8022  0.1213  1.0501
  828MOL0     C11711   1.333   8.224   7.845  0.3147 -0.0239  0.0086
  828MOL0     C11712   1.373   8.078   7.838  0.3535  1.0136 -0.2847
  828MOL0     H11713   0.872   7.976   7.973 -0.4601 -1.7179  0.6457
  828MOL0     H11714   0.657   7.898   7.916 -2.0070 -0.1521 -3.5613
  828MOL0     H11715   0.352   8.191   7.954 -4.3388 -2.8787  2.7263
  828MOL0     H11716   0.321   8.205   7.782 -1.9795  2.2668  1.4017
  828MOL0     H11717   0.133   8.148   7.920 -1.8799 -0.8019  1.2999
  828MOL0     H11718   0.215   8.007   7.980 -0.3124  2.8719  2.9257
  828MOL0     H11719   0.210   8.003   7.682  0.3137 -3.0229 -1.9967
  828MOL0     H11720   0.049   8.041   7.735  0.2882 -0.0066 -1.3322
  828MOL0     H11721   0.190   7.802   7.876  0.2383  0.2800 -0.6914
  828MOL0     H11722   0.012   7.821   7.843  0.2167 -2.2162  0.3256
  828MOL0     H11723   0.042   7.770   7.609 -1.0039  1.9534  0.1892
  828MOL0     H11724   0.214   7.746   7.639  0.1419  1.4723 -0.0058
  828MOL0     H11725   0.171   7.574   7.801 -1.9935 -0.4698  1.3358
  828MOL0     H11726   0.008   7.591   7.805  3.0443 -0.7453  2.4623
  828MOL0     H11727   0.167   7.527   7.542  0.7020  0.8924  1.1115
  828MOL0     H11728  -0.006   7.531   7.558  0.4070 -1.0491  0.0159
  828MOL0     H11729   0.072   7.309   7.562  0.3783  0.8122 -1.6141
  828MOL0     H11730   0.172   7.332   7.704 -1.2049  0.4222  3.3301
  828MOL0     H11731  -0.210   7.417   7.657 -2.2772  1.8312  1.8289
  828MOL0     H11732  -0.327   7.444   8.016  0.7642 -0.8934 -0.4089
  828MOL0     H11733  -0.358   7.488   7.848  0.4201  1.3939  1.3451
  828MOL0     H11734  -0.469   7.262   7.826 -2.1036  0.5205  0.2588
  828MOL0     H11735  -0.418   7.236   8.000  1.0578  2.4269  1.7560
  828MOL0     H11736  -0.553   7.478   8.002 -2.6413  1.1969 -0.6760
  828MOL0     H11737  -0.643   7.333   8.043  0.9315 -0.7666 -1.3078
  828MOL0     H11738  -0.742   7.512   7.868  0.9450  0.7558 -1.5450
  828MOL0     H11739  -0.765   7.347   7.842  0.1459  0.8047 -0.5285
  828MOL0     H11740  -0.556   7.417   7.488 -2.4280 -3.1926 -1.1487
  828MOL0     H11741  -0.624   7.548   7.293  1.5248 -2.7526  0.2668
  828MOL0     H11742  -1.018   7.854   7.066 -0.4560 -0.3063  0.8710
  828MOL0     H11743  -1.054   7.891   6.848 -0.5161 -1.1770  0.2217
  828MOL0     H11744  -1.088   7.721   6.613 -3.1037  1.7410 -2.2076
  828MOL0     H11745  -1.092   7.903   6.606 -0.1560 -0.0682  2.4709
  828MOL0     H11746  -1.141   7.834   6.380 -1.7311 -4.9834  1.2730
  828MOL0     H11747  -0.973   7.885   6.373 -3.2875  1.1977 -1.2040
  828MOL0     H11748  -0.896   7.651   6.389  0.3262  1.9002  0.6168
  828MOL0     H11749  -1.061   7.583   6.390 -0.3843  0.0312  0.4854
  828MOL0     H11750  -0.965   7.743   6.158 -0.3013 -0.8951 -2.9836
  828MOL0     H11751  -1.113   7.645   6.183 -0.4482 -0.3718  2.2171
  828MOL0     H11752  -1.013   7.458   6.199 -1.2134  1.4993  0.1496
  828MOL0     H11753  -0.842   7.516   6.193  0.3263 -1.3066 -2.6810
  828MOL0     H11754  -1.037   7.579   5.959 -1.5155 -1.4437  2.3109
  828MOL0     H11755  -0.863   7.594   5.970 -0.0777  1.5345  1.5393
  828MOL0     H11756  -0.838   7.339   5.967  0.4230  0.6975 -4.1032
  828MOL0     H11757  -0.922   7.387   5.825  0.2338 -1.4678 -0.6503
  828MOL0     H11758  -1.065   7.277   6.072 -2.2162  0.9935 -0.9418
  828MOL0     H11759  -1.142   7.329   5.924 -0.4486 -3.6311 -0.7590
  828MOL0     H11760  -0.691   7.706   6.722 -3.0903 -1.5542 -1.5905
  828MOL0     H11761  -0.638   7.664   6.957 -0.4267  1.9717  1.2148
  828MOL0     H11762  -0.947   7.715   7.543 -1.2170 -1.3881  1.3324
  828MOL0     H11763  -0.875   7.561   7.723 -1.3779 -2.8108 -0.7283
  828MOL0     H11764   0.530   8.300   7.825  0.0276  0.6709  0.2999
  828MOL0     H11765   0.741   8.383   7.864 -0.3182 -0.6275 -1.5877
  828MOL0     H11766   1.078   8.449   7.899 -0.0725  3.7326 -3.4150
  828MOL0     H11767   1.253   8.607   7.853 -0.2769 -0.2739  4.0711
  828MOL0     H11768   1.455   8.736   7.833 -0.4888 -0.1466  0.6517
  828MOL0     H11769   1.426   8.679   7.659 -0.2966  1.6126 -0.6215
  828MOL0     H11770   1.617   8.829   7.661 -0.0135  1.1040  0.3286
  828MOL0     H11771   1.675   8.670   7.637 -0.3546  0.2802  0.1495
  828MOL0     H11772   1.681   8.687   7.912 -0.3406 -0.9404 -0.6304
  828MOL0     H11773   1.734   8.853   7.865  1.6841 -0.0756 -0.2471
  828MOL0     H11774   1.882   8.665   7.706  2.3755 -0.3503 -0.4111
  828MOL0     H11775   1.919   8.825   7.768 -2.5010  0.5299  0.0602
  828MOL0     H11776   2.042   8.564   8.074 -1.4577 -0.5394 -0.5844
  828MOL0     H11777   1.535   8.291   7.784 -1.8519 -0.4519 -2.8332
  828MOL0     H11778   1.342   8.025   7.928  2.8103  2.6115  1.6173
  828MOL0     H11779   1.324   8.031   7.752  0.0008 -0.7913  0.8398
  828MOL0     H11780   1.481   8.060   7.833  0.3776  0.8837  0.6407
  829MOL0     O11781   7.455   7.864   7.581 -0.9731 -0.3163  0.2447
  829MOL0     C11782   7.427   7.784   7.668  0.0342  0.1618 -0.3537
  829MOL0     O11783   7.370   7.662   7.651 -0.4831  0.2170  0.2061
  829MOL0     C11784   7.339   7.627   7.522 -0.2774  0.2611  0.1454
  829MOL0     C11785   7.261   7.721   7.446  1.1526  0.6343  0.6794
  829MOL0     C11786   7.217   7.694   7.317  0.3579 -0.2724  0.7947
  829MOL0     C11787   7.261   7.576   7.254 -0.4205 -0.1630  0.0140
  829MOL0     O11788   7.228   7.563   7.121  0.0155  0.0683 -0.1751
  829MOL0     C11789   7.245   7.443   7.044 -0.4457  0.2285 -0.4881
  829MOL0     C11790   7.393   7.427   7.010 -0.0587 -0.8605 -0.6090
  829MOL0     C11791   7.456   7.547   6.925 -0.5527 -0.5227  0.8883
  829MOL0     C11792   7.586   7.507   6.845 -0.5421 -0.3895 -0.2732
  829MOL0     C11793   7.709   7.528   6.939  0.5684  0.2442  0.6333
  829MOL0     C11794   7.844   7.513   6.870  0.8396  0.5216  0.0762
  829MOL0     C11795   7.946   7.538   6.982  0.0831  0.2283 -0.3408
  829MOL0     C11796   7.993   7.685   6.999  0.4358  0.0622 -0.0390
  829MOL0     N11797   7.890   7.770   7.048  0.2016 -0.0463  0.1794
  829MOL0     C11798   7.822   7.754   7.169 -0.4377  0.3110  0.2862
  829MOL0     C11799   7.739   7.853   7.165  0.9694  0.2991  0.9944
  829MOL0     C11800   7.630   7.885   7.263  0.3901  0.3653 -0.4189
  829MOL0     C11801   7.672   7.993   7.363  0.4522 -0.6763  0.2887
  829MOL0     C11802   7.746   7.928   7.476  0.7048  0.8427 -0.0590
  829MOL0     C11803   7.760   8.002   7.603  0.4702 -0.0668  0.8359
  829MOL0     O11804   7.859   7.936   7.687  0.3182 -1.1647  1.0491
  829MOL0     C11805   7.902   7.969   7.811 -0.4464 -0.4884  0.3466
  829MOL0     C11806   7.994   7.887   7.870 -0.2972  0.5029  0.6584
  829MOL0     C11807   8.044   7.904   7.999 -0.0711  0.3346  0.4226
  829MOL0     C11808   7.996   8.015   8.068 -0.9048 -0.0782 -0.2318
  829MOL0     C11809   8.061   8.037   8.205  0.1910 -0.1714  0.3175
  829MOL0     O11810   8.148   7.948   8.253 -0.4232 -0.2536  0.2378
  829MOL0     C11811   8.201   7.968   8.377  0.4415 -0.2855  0.0822
  829MOL0     C11812   8.330   8.022   8.390 -0.2727  0.5989  0.6380
  829MOL0     C11813   8.389   8.029   8.511  0.6977 -0.3598  0.4405
  829MOL0     C11814   8.318   7.989   8.626 -0.0567 -0.0196 -0.8086
  829MOL0     O11815   8.372   8.004   8.755 -0.1934  0.4976 -0.0580
  829MOL0     C11816   8.299   7.971   8.875 -0.8150  0.0676 -0.2905
  829MOL0     C11817   8.370   8.041   8.995 -0.9682 -0.3176 -0.1368
  829MOL0     C11818   8.294   8.029   9.133  1.0780  0.0486  0.3160
  829MOL0     C11819   8.389   8.051   9.245 -0.0917  0.5698 -1.3102
  829MOL0     C11820   8.322   8.028   9.379 -0.4878  0.8132 -0.0500
  829MOL0     C11821   8.426   8.022   9.492 -0.1434 -0.4788 -0.4405
  829MOL0     C11822   8.356   8.013   9.635 -0.7324 -0.6776  0.2570
  829MOL0     C11823   8.448   8.026   9.758  0.6081  1.3537  0.0701
  829MOL0    Cl11824   8.612   7.947   9.725 -0.4051 -0.2101  0.1210
  829MOL0     C11825   8.189   7.953   8.614 -0.3412 -1.1239 -0.5340
  829MOL0     C11826   8.133   7.946   8.486  1.3268  0.0568 -0.7132
  829MOL0     O11827   8.015   8.134   8.267  0.2673  0.0891  0.7740
  829MOL0     C11828   7.916   8.111   8.006 -0.9199 -0.8670  1.1821
  829MOL0     C11829   7.869   8.089   7.878 -0.3842 -0.6336  0.5643
  829MOL0     N11830   7.749   7.929   7.053  0.1968  0.4061  0.8280
  829MOL0     N11831   7.838   7.875   6.987  0.1646  0.3534 -0.0236
  829MOL0     C11832   7.338   7.478   7.331 -0.1973  0.2044 -0.4979
  829MOL0     C11833   7.371   7.507   7.469 -0.0127 -0.0465 -0.2835
  829MOL0     C11834   7.473   7.810   7.806 -0.2395  0.1185  0.4748
  829MOL0     C11835   7.611   7.772   7.839 -0.2734  0.1285 -0.4792
  829MOL0     C11836   7.653   7.781   7.977 -0.3848  1.3357  0.0090
  829MOL0     C11837   7.571   7.822   8.070 -0.6758  1.2903 -0.6199
  829MOL0     O11838   7.602   7.803   8.204 -0.0131  0.7879  0.8444
  829MOL0     C11839   7.666   7.911   8.259 -0.0485  0.3121 -0.1143
  829MOL0     C11840   7.792   7.866   8.330 -0.6142  0.2599  0.1985
  829MOL0     C11841   7.776   7.749   8.425  0.6868 -0.8583 -0.4594
  829MOL0     C11842   7.695   7.780   8.550  0.1048  0.0941 -0.3900
  829MOL0     C11843   7.789   7.824   8.664 -0.1155 -0.4971 -0.2091
  829MOL0     C11844   7.851   7.878   8.755  0.2278 -0.5155 -0.2808
  829MOL0     C11845   7.445   7.865   8.030 -0.3090 -0.6307 -0.4583
  829MOL0     C11846   7.392   7.867   7.902 -0.1332 -0.1496  0.6784
  829MOL0     C11847   7.254   7.919   7.875 -0.6935 -0.8388 -0.7530
  829MOL0     H11848   7.220   7.807   7.500 -0.8799  0.7152 -0.8708
  829MOL0     H11849   7.161   7.761   7.252  3.4201 -2.8296 -5.3477
  829MOL0     H11850   7.214   7.356   7.103 -2.6328  0.8931 -0.5790
  829MOL0     H11851   7.189   7.445   6.950  0.9884 -0.8812 -1.4104
  829MOL0     H11852   7.398   7.346   6.937  0.4966  0.3900 -1.9887
  829MOL0     H11853   7.447   7.403   7.102 -2.2038  1.2988  1.3559
  829MOL0     H11854   7.481   7.633   6.987 -3.4691 -1.9285  4.3615
  829MOL0     H11855   7.374   7.572   6.855 -2.0806  4.1331  3.8477
  829MOL0     H11856   7.568   7.402   6.822 -0.9459 -0.4531  0.2938
  829MOL0     H11857   7.591   7.565   6.753 -1.6253  0.8474  0.4052
  829MOL0     H11858   7.698   7.631   6.973  0.6080  0.2447  0.6467
  829MOL0     H11859   7.709   7.473   7.034  2.9121 -0.2418  0.4148
  829MOL0     H11860   7.855   7.413   6.827  1.2357  1.0708 -1.1707
  829MOL0     H11861   7.852   7.591   6.794 -0.4697  1.5068  0.9159
  829MOL0     H11862   8.037   7.485   6.952  0.2355  0.7569 -0.8336
  829MOL0     H11863   7.925   7.493   7.079  0.5548 -1.0804 -0.8279
  829MOL0     H11864   8.070   7.678   7.077 -1.4847  0.5840  2.0385
  829MOL0     H11865   8.029   7.723   6.903 -0.1575 -0.5972 -0.5271
  829MOL0     H11866   7.825   7.679   7.247  2.3691  2.5024  2.5246
  829MOL0     H11867   7.555   7.933   7.199 -0.2043 -2.4949 -2.0732
  829MOL0     H11868   7.602   7.795   7.319  1.6580  0.1180 -0.1508
  829MOL0     H11869   7.718   8.078   7.311  1.8161 -1.0838  0.7987
  829MOL0     H11870   7.581   8.026   7.415 -0.0863 -0.8029 -0.5431
  829MOL0     H11871   7.850   7.909   7.446  0.6436  1.6633 -0.8168
  829MOL0     H11872   7.692   7.834   7.488 -1.1131  1.1526 -4.1577
  829MOL0     H11873   7.666   8.013   7.657  2.1973  3.4980  3.4957
  829MOL0     H11874   7.788   8.103   7.573  1.6471 -0.8740 -0.9960
  829MOL0     H11875   8.021   7.792   7.824 -4.4615 -0.7127  0.2764
  829MOL0     H11876   8.125   7.836   8.022  1.4765  0.9427 -2.6960
  829MOL0     H11877   8.391   8.047   8.304  0.9975  1.2128  1.6792
  829MOL0     H11878   8.495   8.053   8.505  1.1960 -2.6032 -1.6497
  829MOL0     H11879   8.195   8.005   8.880 -0.5943  0.8013 -0.6667
  829MOL0     H11880   8.299   7.863   8.892  0.4360 -0.2903 -2.3507
  829MOL0     H11881   8.464   7.986   9.004 -1.1497 -0.8643 -1.3524
  829MOL0     H11882   8.395   8.146   8.978 -2.0609 -0.4297 -2.9647
  829MOL0     H11883   8.217   8.106   9.132  2.5267  1.5628 -1.2736
  829MOL0     H11884   8.247   7.931   9.148  0.3930  0.7772  3.5392
  829MOL0     H11885   8.446   8.144   9.245  1.6356 -0.4438 -1.4202
  829MOL0     H11886   8.468   7.976   9.246  0.3171  0.8595  2.4958
  829MOL0     H11887   8.270   7.932   9.370 -0.6689  1.0361 -1.8247
  829MOL0     H11888   8.246   8.103   9.400 -1.4142 -0.5104  1.6369
  829MOL0     H11889   8.488   7.932   9.480 -1.2682 -1.4211  0.5566
  829MOL0     H11890   8.482   8.116   9.500 -0.5427 -0.3258  0.8221
  829MOL0     H11891   8.293   7.923   9.639 -3.1182  0.7405 -2.2412
  829MOL0     H11892   8.296   8.103   9.645 -0.4787 -0.2072 -1.9042
  829MOL0     H11893   8.466   8.127   9.797  1.7230  1.2045 -0.0119
  829MOL0     H11894   8.395   7.972   9.838 -1.2436 -1.3531 -2.7640
  829MOL0     H11895   8.124   7.917   8.693  2.0990  2.9059  3.8601
  829MOL0     H11896   8.029   7.917   8.497  1.1780 -0.7753 -3.5490
  829MOL0     H11897   7.900   8.205   8.059 -0.7018 -0.6972  0.9473
  829MOL0     H11898   7.822   8.174   7.830  0.0894  0.6306  2.2466
  829MOL0     H11899   7.364   7.381   7.290  1.6978  1.3252 -2.1154
  829MOL0     H11900   7.423   7.434   7.529 -0.2271  0.8089  0.9694
  829MOL0     H11901   7.683   7.749   7.762 -0.8127  0.6964 -1.1716
  829MOL0     H11902   7.754   7.751   8.003  0.4136  0.4700 -3.4768
  829MOL0     H11903   7.594   7.962   8.324 -2.3881 -2.8498 -0.0257
  829MOL0     H11904   7.707   7.983   8.187  3.5446 -0.4355  0.9665
  829MOL0     H11905   7.830   7.956   8.379 -1.3583  1.3249 -1.1135
  829MOL0     H11906   7.865   7.834   8.255 -0.6504 -1.4450  0.8527
  829MOL0     H11907   7.883   7.728   8.438  1.8450  1.7040 -4.2007
  829MOL0     H11908   7.731   7.666   8.370 -1.3263 -0.0356 -0.1287
  829MOL0     H11909   7.629   7.863   8.524  0.1386 -0.0235 -0.8496
  829MOL0     H11910   7.635   7.694   8.580 -3.0810  1.5835 -1.9378
  829MOL0     H11911   7.913   7.920   8.832 -0.2052  0.4370 -0.4383
  829MOL0     H11912   7.377   7.900   8.107 -1.2221 -0.9459 -1.0991
  829MOL0     H11913   7.174   7.846   7.895  1.0267 -3.1031 -1.6958
  829MOL0     H11914   7.224   8.008   7.932 -2.3457 -0.2388 -2.4206
  829MOL0     H11915   7.242   7.946   7.769 -1.2973 -0.8362 -0.6883
  830MOL0     O11916   3.724   6.740   8.826 -0.4963  0.0369  0.4918
  830MOL0     C11917   3.775   6.825   8.748  0.1111  1.0465  0.3074
  830MOL0     O11918   3.809   6.799   8.619 -0.3306  1.0893 -0.5555
  830MOL0     C11919   3.817   6.665   8.592  0.5142  0.3367  0.4791
  830MOL0     C11920   3.705   6.586   8.565  0.1332  0.3360  0.0508
  830MOL0     C11921   3.717   6.447   8.530 -0.1916  0.0821  0.1916
  830MOL0     C11922   3.837   6.393   8.513 -1.4409  0.0488  0.3895
  830MOL0     O11923   3.829   6.266   8.468  0.0595  0.5628  0.3285
  830MOL0     C11924   3.925   6.168   8.504  0.0576  0.6663 -0.4720
  830MOL0     C11925   3.909   6.141   8.654 -0.1519 -0.1285  0.7428
  830MOL0     C11926   3.936   6.001   8.696 -0.8549 -0.1998 -0.5076
  830MOL0     C11927   3.863   5.876   8.624  0.6062  0.2767  0.1084
  830MOL0     C11928   3.920   5.734   8.649 -0.4834 -0.0423  0.4946
  830MOL0     C11929   4.072   5.722   8.617  0.2959  0.5053  0.1627
  830MOL0     C11930   4.111   5.774   8.479 -0.7021  0.6693  0.7308
  830MOL0     C11931   4.050   5.722   8.352  0.2562  0.0660  0.8657
  830MOL0     N11932   4.097   5.799   8.232  0.6445  0.5247  0.0473
  830MOL0     C11933   4.089   5.934   8.230  0.5949 -0.2088  0.3349
  830MOL0     C11934   4.118   5.956   8.098  0.5034  0.6901 -1.0659
  830MOL0     C11935   4.101   6.085   8.024  0.0702  0.4328 -0.9637
  830MOL0     C11936   4.229   6.158   8.027  0.6084  0.2044  0.3752
  830MOL0     C11937   4.316   6.178   8.152 -0.3751 -0.3258  0.0005
  830MOL0     C11938   4.453   6.229   8.135 -0.3462 -0.3167 -0.0061
  830MOL0     O11939   4.510   6.257   8.260 -0.7535 -0.4971 -0.8892
  830MOL0     C11940   4.637   6.224   8.282  0.0913 -0.6178  0.1117
  830MOL0     C11941   4.672   6.094   8.319  1.1308 -0.6360  0.6297
  830MOL0     C11942   4.807   6.062   8.338 -0.5290 -0.1619 -0.3769
  830MOL0     C11943   4.907   6.159   8.322 -0.6106 -0.4084 -0.4763
  830MOL0     C11944   5.055   6.130   8.328  0.7767  0.2305  0.1517
  830MOL0     O11945   5.087   5.998   8.321  0.3946 -0.3101  0.4416
  830MOL0     C11946   5.214   5.966   8.320  0.1153  0.0998  0.4850
  830MOL0     C11947   5.290   5.967   8.440 -0.2110  0.6238 -0.3332
  830MOL0     C11948   5.411   5.901   8.442 -0.2148  0.9250  0.4020
  830MOL0     C11949   5.457   5.839   8.328 -0.7638 -0.0376  0.7530
  830MOL0     O11950   5.576   5.786   8.311 -0.2435 -0.2053 -0.2161
  830MOL0     C11951   5.605   5.686   8.404 -0.3253  0.6427  0.3427
  830MOL0     C11952   5.684   5.723   8.533 -0.1816  0.0021 -0.2206
  830MOL0     C11953   5.763   5.598   8.592 -0.8117  0.7304  0.7204
  830MOL0     C11954   5.843   5.647   8.722  0.1766 -0.1359 -0.6857
  830MOL0     C11955   5.941   5.759   8.701  0.4388  0.1614  0.4352
  830MOL0     C11956   6.039   5.732   8.581 -0.1281 -0.6826  0.1443
  830MOL0     C11957   6.146   5.851   8.581  0.3921  0.7105 -0.0145
  830MOL0     C11958   6.268   5.794   8.506 -0.4182  0.5918  0.3052
  830MOL0    Cl11959   6.231   5.706   8.350  0.3795 -0.1967 -0.2574
  830MOL0     C11960   5.390   5.848   8.204  0.4606 -0.3986  0.1859
  830MOL0     C11961   5.262   5.908   8.200 -0.8178  0.0750  0.4825
  830MOL0     O11962   5.128   6.221   8.350  0.7448 -0.1978  0.0856
  830MOL0     C11963   4.864   6.290   8.298  0.9540 -0.6797  0.6619
  830MOL0     C11964   4.734   6.312   8.268  0.8681 -0.4842  0.0132
  830MOL0     N11965   4.158   5.845   8.024  0.9490 -0.1586  0.2505
  830MOL0     N11966   4.152   5.758   8.117  0.4982  0.5773 -0.1404
  830MOL0     C11967   3.952   6.469   8.541  0.0726 -0.9288  1.5427
  830MOL0     C11968   3.941   6.602   8.581  0.2149  0.0252  0.5977
  830MOL0     C11969   3.786   6.962   8.786 -0.3754 -1.0902  0.5325
  830MOL0     C11970   3.778   6.992   8.922 -0.5173  0.2693  0.1002
  830MOL0     C11971   3.797   7.120   8.972 -0.4161  0.3643 -0.3287
  830MOL0     C11972   3.821   7.227   8.880 -0.3033  0.5766  0.7101
  830MOL0     O11973   3.838   7.362   8.919 -0.6131  0.9243  0.1872
  830MOL0     C11974   3.811   7.400   9.052 -0.4262 -0.6594  0.9145
  830MOL0     C11975   3.837   7.550   9.082 -0.4138 -0.1090 -0.2441
  830MOL0     C11976   3.986   7.581   9.043  0.2778  1.0907 -0.8164
  830MOL0     C11977   4.097   7.504   9.118 -0.3414 -0.8457  0.5835
  830MOL0     C11978   4.110   7.530   9.260 -0.7238  0.7128  0.1498
  830MOL0     C11979   4.131   7.560   9.379  0.4670 -0.6152  0.0246
  830MOL0     C11980   3.822   7.198   8.750 -0.2397 -0.3573  0.4436
  830MOL0     C11981   3.800   7.075   8.692  0.3020 -0.1772  0.5493
  830MOL0     C11982   3.767   7.068   8.546 -0.2742 -0.0098  1.1628
  830MOL0     H11983   3.609   6.637   8.570  0.2539  0.5376  0.3288
  830MOL0     H11984   3.620   6.405   8.511  0.9132 -3.1724  1.1439
  830MOL0     H11985   3.906   6.075   8.449 -0.9665 -1.3280  2.8876
  830MOL0     H11986   4.021   6.199   8.464 -0.0314  0.3561 -0.9258
  830MOL0     H11987   3.803   6.162   8.671  0.0897  3.2295 -0.9252
  830MOL0     H11988   3.964   6.205   8.723 -0.5997  0.4231  0.5998
  830MOL0     H11989   3.918   5.985   8.803 -0.1680 -0.0350 -0.3599
  830MOL0     H11990   4.045   5.994   8.687 -0.5367  1.1112  1.6770
  830MOL0     H11991   3.761   5.885   8.663  0.5696  2.4049 -0.3711
  830MOL0     H11992   3.852   5.893   8.517 -0.3208  0.7241  0.2632
  830MOL0     H11993   3.903   5.702   8.752 -0.8378 -0.7417  0.2232
  830MOL0     H11994   3.857   5.680   8.578 -1.3246  2.3642 -0.7203
  830MOL0     H11995   4.121   5.784   8.692  1.0236  1.9723 -1.4670
  830MOL0     H11996   4.090   5.614   8.625 -0.3677  0.3344 -0.4566
  830MOL0     H11997   4.214   5.739   8.461 -1.7576 -2.9210  0.8942
  830MOL0     H11998   4.109   5.883   8.489 -1.9313  0.7765 -0.4312
  830MOL0     H11999   4.082   5.619   8.333 -0.8016  0.2939 -3.0635
  830MOL0     H12000   3.941   5.720   8.354 -0.0878 -1.7056 -4.0575
  830MOL0     H12001   4.057   6.003   8.307  2.8769 -0.2331  1.3991
  830MOL0     H12002   4.074   6.057   7.922  0.1321 -2.3146 -0.3050
  830MOL0     H12003   4.031   6.158   8.068  0.0641 -1.2936  2.2111
  830MOL0     H12004   4.289   6.107   7.951 -1.3767  2.0742 -2.6437
  830MOL0     H12005   4.208   6.258   7.987  0.5217 -1.2139 -3.5292
  830MOL0     H12006   4.328   6.082   8.203  1.2778  0.0119  0.2896
  830MOL0     H12007   4.259   6.250   8.211 -1.2322 -0.7511 -0.2836
  830MOL0     H12008   4.460   6.322   8.078  0.4130 -1.0996 -1.2381
  830MOL0     H12009   4.524   6.164   8.083  1.2396 -0.5023  2.2579
  830MOL0     H12010   4.595   6.020   8.337  0.5679 -1.3200 -3.5955
  830MOL0     H12011   4.839   5.962   8.364  0.2031 -1.2433 -4.6743
  830MOL0     H12012   5.241   6.008   8.528 -2.5096  1.0203 -1.7200
  830MOL0     H12013   5.474   5.908   8.530  0.4047 -0.1021  0.0565
  830MOL0     H12014   5.513   5.635   8.433  0.5148 -1.3212 -0.2486
  830MOL0     H12015   5.666   5.613   8.349 -0.0829  1.1276 -0.0446
  830MOL0     H12016   5.757   5.797   8.498 -1.1149 -0.6703 -4.0478
  830MOL0     H12017   5.614   5.759   8.609 -0.2190 -0.1436 -0.1871
  830MOL0     H12018   5.686   5.525   8.618  2.5931 -2.6258  2.4319
  830MOL0     H12019   5.820   5.544   8.516 -1.2103  0.0061  0.9332
  830MOL0     H12020   5.903   5.570   8.772  0.0804  1.1435  1.4765
  830MOL0     H12021   5.777   5.693   8.796  1.2256  1.5703 -0.7507
  830MOL0     H12022   6.006   5.776   8.787 -2.7193  1.7232  2.6922
  830MOL0     H12023   5.875   5.844   8.684  1.0436  0.4414 -0.6316
  830MOL0     H12024   6.091   5.638   8.602  1.0176 -0.4452 -1.4746
  830MOL0     H12025   5.988   5.710   8.486 -1.1914 -2.3994  1.0595
  830MOL0     H12026   6.177   5.881   8.681  1.0580  1.1393 -0.3436
  830MOL0     H12027   6.112   5.939   8.526  4.8649  2.4759 -0.3800
  830MOL0     H12028   6.340   5.876   8.493  1.7832 -1.1292  1.0303
  830MOL0     H12029   6.316   5.730   8.580 -0.9625 -0.3494 -0.1307
  830MOL0     H12030   5.436   5.815   8.112 -1.1018  0.4748 -0.9548
  830MOL0     H12031   5.209   5.924   8.107 -0.9954  0.5313  0.6548
  830MOL0     H12032   4.929   6.376   8.288 -0.0861  0.1997  1.2354
  830MOL0     H12033   4.700   6.411   8.238 -0.9035 -0.7366  1.0996
  830MOL0     H12034   4.050   6.424   8.545  1.0309  0.6952 -0.9936
  830MOL0     H12035   4.031   6.660   8.604  0.6348 -0.2198 -0.3761
  830MOL0     H12036   3.752   6.912   8.990 -1.2446 -0.1443 -0.6418
  830MOL0     H12037   3.812   7.137   9.078  2.1238  1.4829 -0.7759
  830MOL0     H12038   3.870   7.340   9.122 -2.9487 -1.9847  2.0382
  830MOL0     H12039   3.706   7.382   9.076 -0.7281  0.6720  0.6806
  830MOL0     H12040   3.825   7.566   9.190 -0.5504  0.7471 -0.3788
  830MOL0     H12041   3.773   7.616   9.024  0.8370  2.6743  1.3360
  830MOL0     H12042   4.014   7.685   9.061  2.5558  0.3531  0.2455
  830MOL0     H12043   3.993   7.561   8.936  1.3059 -1.4654 -0.3382
  830MOL0     H12044   4.086   7.395   9.115  0.5846 -0.9295 -0.7971
  830MOL0     H12045   4.192   7.520   9.066 -1.2392  0.3485 -0.7868
  830MOL0     H12046   4.143   7.598   9.478 -2.8801  2.3080 -0.4850
  830MOL0     H12047   3.823   7.284   8.683 -1.1456  0.9940  2.0891
  830MOL0     H12048   3.738   7.170   8.518 -0.1648 -0.5012 -0.8917
  830MOL0     H12049   3.853   7.039   8.484 -1.1498 -2.7731  1.1200
  830MOL0     H12050   3.689   6.993   8.531 -2.1663  1.7397  1.7512
  831MOL0     O12051   6.000   6.493   7.609  0.3069  0.0824 -0.3162
  831MOL0     C12052   5.908   6.478   7.698 -0.5166  0.3780 -0.8156
  831MOL0     O12053   5.794   6.406   7.678  0.3637  0.1048 -0.1496
  831MOL0     C12054   5.750   6.352   7.556 -0.1970 -0.1016 -0.0726
  831MOL0     C12055   5.799   6.223   7.504  0.0810 -1.2722  0.3394
  831MOL0     C12056   5.751   6.169   7.387  0.6975  0.2960  0.1545
  831MOL0     C12057   5.664   6.241   7.309  1.0326 -0.2139  0.7065
  831MOL0     O12058   5.613   6.207   7.185  0.7399  0.3109  0.0624
  831MOL0     C12059   5.666   6.090   7.127 -0.9720 -0.0515 -0.0709
  831MOL0     C12060   5.618   6.074   6.982 -0.1695 -0.0776 -1.1654
  831MOL0     C12061   5.679   6.180   6.890  0.0717  0.4562  0.5043
  831MOL0     C12062   5.644   6.140   6.743 -0.3340  0.5720 -0.0933
  831MOL0     C12063   5.726   6.205   6.633 -0.3491 -0.7136  0.2348
  831MOL0     C12064   5.761   6.355   6.663 -0.8331 -0.4176 -0.3358
  831MOL0     C12065   5.846   6.413   6.550 -0.1776 -0.4146  0.0033
  831MOL0     C12066   5.897   6.550   6.591 -0.4340  0.5648  0.4089
  831MOL0     N12067   6.017   6.548   6.674 -0.3305 -0.6431  0.6307
  831MOL0     C12068   6.133   6.469   6.655  1.1784 -0.9669 -0.5387
  831MOL0     C12069   6.202   6.499   6.771 -0.0410 -0.2734 -0.0943
  831MOL0     C12070   6.348   6.463   6.794 -0.5319  0.8636  0.9586
  831MOL0     C12071   6.373   6.442   6.943  0.6125  0.5259  0.4298
  831MOL0     C12072   6.503   6.371   6.966  0.0988  0.9421 -0.4482
  831MOL0     C12073   6.556   6.376   7.114  0.0427 -0.6429  0.3728
  831MOL0     O12074   6.480   6.294   7.206  0.3491 -0.0448  1.1679
  831MOL0     C12075   6.466   6.337   7.337  0.1575 -0.1696 -0.1196
  831MOL0     C12076   6.569   6.412   7.401  0.5575  0.9323 -0.2315
  831MOL0     C12077   6.556   6.458   7.531 -0.3890 -0.2075  0.2400
  831MOL0     C12078   6.445   6.417   7.607 -0.2220 -0.7885 -0.2550
  831MOL0     C12079   6.436   6.471   7.740  0.2245  0.6266  0.1148
  831MOL0     O12080   6.527   6.568   7.778 -0.4253  1.0676 -0.2695
  831MOL0     C12081   6.516   6.626   7.898  0.1500  0.5805  0.2460
  831MOL0     C12082   6.585   6.585   8.012 -0.0457 -0.3573  0.3715
  831MOL0     C12083   6.582   6.664   8.121 -0.8433 -0.0674  0.3862
  831MOL0     C12084   6.514   6.786   8.136  0.7973  0.5059 -0.9241
  831MOL0     O12085   6.504   6.861   8.252  0.1175 -0.0313  0.3715
  831MOL0     C12086   6.627   6.853   8.326  0.0639 -0.6289  0.4452
  831MOL0     C12087   6.624   6.956   8.434  0.7864 -0.1475 -0.8781
  831MOL0     C12088   6.519   6.914   8.545  0.6459  0.0410  0.1663
  831MOL0     C12089   6.541   6.989   8.676 -0.0030 -0.3399 -0.6373
  831MOL0     C12090   6.418   7.001   8.765  0.8734  0.1029 -0.3613
  831MOL0     C12091   6.445   7.062   8.905 -0.0638 -0.2000 -0.0662
  831MOL0     C12092   6.327   7.052   8.995 -0.0966  0.0236 -0.2630
  831MOL0     C12093   6.370   7.101   9.137 -0.1818  0.3182  0.5629
  831MOL0    Cl12094   6.229   7.084   9.253  0.1608  0.4354  0.3374
  831MOL0     C12095   6.433   6.825   8.024  0.7037  0.5161  0.4371
  831MOL0     C12096   6.426   6.743   7.903 -0.9878  0.0289 -0.5362
  831MOL0     O12097   6.346   6.430   7.813 -0.2919  0.6182 -0.0728
  831MOL0     C12098   6.345   6.346   7.548 -0.4947  0.3061 -0.4267
  831MOL0     C12099   6.344   6.318   7.408  0.0753 -0.2292 -0.9177
  831MOL0     N12100   6.131   6.579   6.858 -0.2104 -0.0027 -0.1729
  831MOL0     N12101   6.019   6.616   6.790  0.1599 -0.5323 -0.7415
  831MOL0     C12102   5.615   6.369   7.354 -0.1731  0.1503 -0.7914
  831MOL0     C12103   5.665   6.422   7.470 -0.3827 -0.0791 -0.3772
  831MOL0     C12104   5.930   6.538   7.835 -0.6840 -0.6180  0.3250
  831MOL0     C12105   6.063   6.585   7.868  0.1624 -0.1358 -0.3329
  831MOL0     C12106   6.092   6.635   7.999  1.0222  0.5305  0.8832
  831MOL0     C12107   5.993   6.621   8.097  0.0413 -0.2531 -0.6850
  831MOL0     O12108   6.025   6.637   8.235 -0.2835 -0.5809 -0.0032
  831MOL0     C12109   6.114   6.728   8.291 -0.7128 -0.6471 -0.5050
  831MOL0     C12110   6.076   6.868   8.246  0.3225  0.6137  0.3446
  831MOL0     C12111   5.954   6.909   8.320  0.2276  0.0984  0.0677
  831MOL0     C12112   5.939   7.057   8.313 -0.9121 -0.1038 -0.8353
  831MOL0     C12113   5.799   7.092   8.362  0.3138  0.4236 -0.2428
  831MOL0     C12114   5.687   7.105   8.411  0.1105 -0.4761 -0.0064
  831MOL0     C12115   5.865   6.575   8.070  0.1532  0.2670  1.4686
  831MOL0     C12116   5.834   6.542   7.935 -0.2821  0.2887  0.1107
  831MOL0     C12117   5.686   6.505   7.918 -0.1455  0.7321 -0.6253
  831MOL0     H12118   5.869   6.159   7.557  0.1887 -2.3793 -1.0622
  831MOL0     H12119   5.795   6.071   7.370  2.8219  1.3952 -1.0883
  831MOL0     H12120   5.774   6.099   7.116 -0.9059  2.2953  1.6536
  831MOL0     H12121   5.638   6.002   7.185 -2.7944 -0.5256 -1.5510
  831MOL0     H12122   5.510   6.090   6.970  0.2269  1.4539 -3.3690
  831MOL0     H12123   5.641   5.972   6.951  3.2040 -0.0135  0.6496
  831MOL0     H12124   5.787   6.180   6.906  0.0535  0.0377  0.6608
  831MOL0     H12125   5.645   6.282   6.907  0.4098  0.6389  0.0843
  831MOL0     H12126   5.646   6.032   6.725 -0.9646  0.5244  0.0996
  831MOL0     H12127   5.540   6.161   6.719 -0.4486 -0.3400 -0.4543
  831MOL0     H12128   5.813   6.144   6.606 -0.8689 -1.8359  0.9937
  831MOL0     H12129   5.663   6.199   6.543  2.4244 -2.3246 -1.7595
  831MOL0     H12130   5.672   6.417   6.674 -0.5846 -0.2959  1.3631
  831MOL0     H12131   5.813   6.353   6.760 -2.4204  1.0284  0.5981
  831MOL0     H12132   5.789   6.409   6.457 -3.0317  1.0349  1.5288
  831MOL0     H12133   5.936   6.354   6.531  0.3768  0.6439 -0.6948
  831MOL0     H12134   5.921   6.600   6.497 -1.1748  1.0911  0.4938
  831MOL0     H12135   5.815   6.601   6.642 -1.0835 -1.9029  1.9964
  831MOL0     H12136   6.168   6.419   6.565 -0.1390  0.8556 -2.1690
  831MOL0     H12137   6.367   6.377   6.729 -1.5412  1.1930  0.2041
  831MOL0     H12138   6.405   6.546   6.752  2.7332 -2.3979 -1.7733
  831MOL0     H12139   6.390   6.538   6.993 -2.8890  0.5280  1.9065
  831MOL0     H12140   6.290   6.395   6.996 -0.1299  0.7574 -0.5041
  831MOL0     H12141   6.580   6.410   6.899  0.9675 -1.3362 -0.8525
  831MOL0     H12142   6.486   6.273   6.920 -0.1672  0.2283  1.1082
  831MOL0     H12143   6.556   6.482   7.140  1.5936 -0.4200 -0.3988
  831MOL0     H12144   6.663   6.356   7.123 -0.4576 -2.6329  3.1445
  831MOL0     H12145   6.663   6.437   7.353  1.5208 -0.7509  0.6685
  831MOL0     H12146   6.639   6.526   7.543 -1.2949  1.0720 -0.4456
  831MOL0     H12147   6.646   6.495   8.008 -0.4136 -0.5581 -1.6293
  831MOL0     H12148   6.637   6.621   8.204 -0.2146  2.3184  1.2663
  831MOL0     H12149   6.640   6.756   8.374  1.5065 -0.6140  0.1335
  831MOL0     H12150   6.715   6.869   8.264 -0.4576 -1.0125 -0.4123
  831MOL0     H12151   6.722   6.959   8.482 -0.3963 -0.0519  1.6865
  831MOL0     H12152   6.597   7.056   8.400  0.1233  0.2871  0.8587
  831MOL0     H12153   6.420   6.947   8.511  0.3177 -0.7536  0.3480
  831MOL0     H12154   6.523   6.806   8.561  1.1354  0.2246  1.3660
  831MOL0     H12155   6.574   7.091   8.656  2.1304  0.0645  3.7442
  831MOL0     H12156   6.620   6.946   8.738 -0.5279 -2.4130 -1.3248
  831MOL0     H12157   6.371   6.903   8.772 -0.1225  0.5282 -0.8641
  831MOL0     H12158   6.349   7.063   8.706  2.5192  0.8109 -1.6251
  831MOL0     H12159   6.535   7.018   8.948  1.2231  1.4826 -0.9346
  831MOL0     H12160   6.460   7.170   8.893  1.3349 -0.2889  0.7641
  831MOL0     H12161   6.298   6.946   9.003 -3.0671  0.8255  0.9402
  831MOL0     H12162   6.252   7.114   8.947 -0.9458 -0.7907 -0.0221
  831MOL0     H12163   6.455   7.042   9.172 -0.6648 -2.0294 -1.8310
  831MOL0     H12164   6.396   7.207   9.135 -0.4745  0.4028 -1.3761
  831MOL0     H12165   6.376   6.916   8.044  2.5614  1.7429  0.4080
  831MOL0     H12166   6.364   6.770   7.818  0.4347  0.7745 -1.3805
  831MOL0     H12167   6.259   6.323   7.611  2.2574  1.1551  4.1540
  831MOL0     H12168   6.259   6.267   7.364 -0.6131 -0.1015  0.2167
  831MOL0     H12169   5.546   6.428   7.295  0.4122  1.7503  0.0409
  831MOL0     H12170   5.631   6.514   7.516  0.5525 -0.9543  2.2605
  831MOL0     H12171   6.135   6.589   7.787 -0.5268  3.8300 -0.9331
  831MOL0     H12172   6.193   6.664   8.026  0.4667  4.0935 -0.2986
  831MOL0     H12173   6.216   6.716   8.251 -0.5106  2.5703 -1.1844
  831MOL0     H12174   6.128   6.720   8.399  0.4606 -3.7224 -0.7644
  831MOL0     H12175   6.066   6.869   8.137  1.4150  0.7354  0.2252
  831MOL0     H12176   6.166   6.928   8.264  1.5014 -1.2248  0.8125
  831MOL0     H12177   5.966   6.881   8.425  3.3914  0.2249 -0.1507
  831MOL0     H12178   5.862   6.860   8.286  0.8674 -0.7838 -0.4460
  831MOL0     H12179   6.016   7.110   8.369 -2.2360  2.5689 -1.3651
  831MOL0     H12180   5.947   7.097   8.211 -1.1715  1.4591 -0.2700
  831MOL0     H12181   5.582   7.114   8.430 -0.1473  0.0854 -1.5016
  831MOL0     H12182   5.786   6.563   8.143 -0.0003  1.8060  1.5784
  831MOL0     H12183   5.646   6.555   7.830  1.6699  4.3160  0.3945
  831MOL0     H12184   5.673   6.397   7.923 -1.2662  0.9081  1.7087
  831MOL0     H12185   5.623   6.552   7.995  0.8621  1.7132 -0.3709
  832MOL0     O12186   1.927   5.896   1.813 -0.1055  0.1699 -0.3961
  832MOL0     C12187   1.846   5.987   1.805 -0.1250 -0.0835  0.0725
  832MOL0     O12188   1.871   6.119   1.759  0.1778  0.2374 -0.4201
  832MOL0     C12189   1.994   6.155   1.720  0.1171 -0.1817 -0.3426
  832MOL0     C12190   2.037   6.292   1.725 -0.8734 -0.2482  0.0192
  832MOL0     C12191   2.152   6.335   1.660  0.1812 -0.1571  0.9000
  832MOL0     C12192   2.227   6.246   1.581 -0.1543  0.0244 -0.6623
  832MOL0     O12193   2.335   6.284   1.503  0.0922 -0.4023 -0.9940
  832MOL0     C12194   2.390   6.419   1.531  0.2626 -0.3544  0.1039
  832MOL0     C12195   2.525   6.424   1.457  0.2896 -0.3771 -0.0058
  832MOL0     C12196   2.609   6.546   1.478 -0.2723 -0.1030 -0.3791
  832MOL0     C12197   2.553   6.665   1.405  0.2296 -0.0507  0.2763
  832MOL0     C12198   2.657   6.775   1.379 -0.9922 -0.8936  0.2579
  832MOL0     C12199   2.605   6.888   1.282 -0.3611 -0.1675 -0.5851
  832MOL0     C12200   2.726   6.972   1.242 -0.1727 -0.2348  0.3037
  832MOL0     C12201   2.806   7.033   1.359 -0.9217 -0.0804  0.8277
  832MOL0     N12202   2.950   7.057   1.323 -0.8833  0.4768  0.1849
  832MOL0     C12203   3.046   7.072   1.421  0.5020  0.2979  0.0944
  832MOL0     C12204   3.144   7.132   1.350  0.5959 -0.2348  0.3091
  832MOL0     C12205   3.281   7.182   1.401 -2.1180 -0.9183 -0.2298
  832MOL0     C12206   3.396   7.088   1.366  0.2706  0.2497  0.4584
  832MOL0     C12207   3.530   7.158   1.375 -0.2938  0.3047  0.2893
  832MOL0     C12208   3.663   7.076   1.350 -0.0687 -1.5603 -0.0994
  832MOL0     O12209   3.789   7.148   1.367 -0.5355 -0.9492  0.0703
  832MOL0     C12210   3.907   7.080   1.354  0.4587  0.8342  1.0616
  832MOL0     C12211   3.909   6.944   1.364  1.2209 -0.1131 -0.3304
  832MOL0     C12212   4.037   6.893   1.372  0.0715 -0.0386  0.2561
  832MOL0     C12213   4.158   6.970   1.391  0.2497 -0.3609  1.0331
  832MOL0     C12214   4.291   6.906   1.406  0.5982  0.5855  0.7685
  832MOL0     O12215   4.299   6.773   1.450 -0.4307  0.6885 -0.2211
  832MOL0     C12216   4.413   6.693   1.458  0.5622 -0.2243  0.0752
  832MOL0     C12217   4.396   6.562   1.467  0.1791  1.6146  0.1142
  832MOL0     C12218   4.506   6.485   1.490  0.4657  0.5151  0.0994
  832MOL0     C12219   4.638   6.532   1.475  0.6728 -0.5689 -0.0809
  832MOL0     O12220   4.745   6.438   1.488 -0.3931  0.7175  0.0512
  832MOL0     C12221   4.861   6.452   1.414 -0.4822 -0.1361  0.6859
  832MOL0     C12222   4.974   6.342   1.431  0.1201  0.3926 -0.1488
  832MOL0     C12223   5.039   6.325   1.577 -0.6173  0.5718 -0.1347
  832MOL0     C12224   4.950   6.212   1.655 -0.1591  0.7268  0.9389
  832MOL0     C12225   4.998   6.187   1.803 -0.0229  1.1061  0.7281
  832MOL0     C12226   4.954   6.291   1.904 -0.1854 -0.3417  0.3113
  832MOL0     C12227   4.807   6.275   1.929  0.1147  0.1787 -0.0671
  832MOL0     C12228   4.755   6.365   2.038 -0.0667 -0.0350 -0.3153
  832MOL0    Cl12229   4.604   6.289   2.106 -0.0861 -0.4532 -0.3364
  832MOL0     C12230   4.659   6.661   1.446  0.2395  0.1584 -0.4059
  832MOL0     C12231   4.545   6.744   1.445  0.0351 -0.0430 -0.2292
  832MOL0     O12232   4.378   6.975   1.362  0.8039  1.5265 -0.7027
  832MOL0     C12233   4.142   7.107   1.375  0.3484  1.0038 -0.5996
  832MOL0     C12234   4.015   7.167   1.342 -0.5869  0.6433  0.6253
  832MOL0     N12235   3.107   7.163   1.215 -0.2449  1.3709 -0.1859
  832MOL0     N12236   2.993   7.113   1.204 -0.1590 -0.6041 -0.0360
  832MOL0     C12237   2.181   6.113   1.577  0.4287 -1.2701  0.8827
  832MOL0     C12238   2.076   6.068   1.648  0.1112  0.5538 -0.4551
  832MOL0     C12239   1.709   5.949   1.842  0.6839  0.0115 -0.9942
  832MOL0     C12240   1.685   5.811   1.880  0.3040 -0.2410  0.2723
  832MOL0     C12241   1.559   5.773   1.918  0.5203  0.1900 -0.3738
  832MOL0     C12242   1.443   5.861   1.907  0.4427 -0.0220 -0.4267
  832MOL0     O12243   1.314   5.807   1.912 -0.0500  0.4380 -0.2057
  832MOL0     C12244   1.202   5.897   1.941 -0.0207 -0.4345 -0.0169
  832MOL0     C12245   1.124   5.925   1.814 -0.5492 -1.4546  0.0203
  832MOL0     C12246   1.106   6.085   1.801 -0.5508  0.5119  1.0427
  832MOL0     C12247   0.956   6.115   1.815  0.2491 -0.6387 -0.3016
  832MOL0     C12248   0.883   6.092   1.691  0.4299 -0.1460 -0.2785
  832MOL0     C12249   0.816   6.043   1.597 -0.4209  0.5331  0.5654
  832MOL0     C12250   1.473   5.995   1.875 -0.1418 -0.1124  0.1930
  832MOL0     C12251   1.602   6.036   1.843 -0.1160 -0.1914 -0.4811
  832MOL0     C12252   1.612   6.194   1.834 -0.0349  0.1745 -0.0684
  832MOL0     H12253   1.981   6.366   1.782 -2.0493 -1.5561  0.6351
  832MOL0     H12254   2.170   6.441   1.673 -0.1170 -0.3145  2.8912
  832MOL0     H12255   2.319   6.489   1.486  0.9942 -0.1665 -0.7756
  832MOL0     H12256   2.408   6.434   1.638  0.2766 -2.3262  0.4304
  832MOL0     H12257   2.508   6.402   1.351  0.2076 -2.1535  0.3447
  832MOL0     H12258   2.585   6.342   1.497 -0.7258 -0.3884  1.5924
  832MOL0     H12259   2.705   6.520   1.433  0.2094  0.5620  0.2439
  832MOL0     H12260   2.638   6.569   1.581  1.1319 -0.8595 -0.5770
  832MOL0     H12261   2.512   6.632   1.309  1.8692 -0.5080 -0.2923
  832MOL0     H12262   2.468   6.709   1.458 -1.0814 -3.4442  1.2996
  832MOL0     H12263   2.689   6.812   1.477  1.3042  0.9708 -1.0889
  832MOL0     H12264   2.752   6.736   1.340 -1.2005 -1.1048 -0.0386
  832MOL0     H12265   2.546   6.851   1.198 -2.1600 -1.5596  1.2020
  832MOL0     H12266   2.536   6.952   1.338  2.8002 -1.7021  6.1620
  832MOL0     H12267   2.684   7.050   1.178  0.9628 -0.9260 -1.3699
  832MOL0     H12268   2.798   6.916   1.181  1.6496 -0.1462  2.2479
  832MOL0     H12269   2.762   7.131   1.381  2.6150  1.5361  1.4900
  832MOL0     H12270   2.804   6.967   1.446 -2.0748  1.0390  1.6724
  832MOL0     H12271   3.041   7.040   1.525 -1.3407 -1.6205 -0.5220
  832MOL0     H12272   3.297   7.278   1.350  1.6760 -1.4497 -0.3199
  832MOL0     H12273   3.285   7.202   1.508  2.5305  0.6361 -0.5065
  832MOL0     H12274   3.390   7.018   1.450 -0.5938  1.0218  1.0657
  832MOL0     H12275   3.378   7.042   1.269  0.3701 -2.9548  1.8325
  832MOL0     H12276   3.543   7.180   1.481  0.1667 -2.9030  0.9997
  832MOL0     H12277   3.540   7.242   1.305  3.2042  0.1458  0.4562
  832MOL0     H12278   3.652   7.059   1.242 -2.9378  5.4698 -1.4589
  832MOL0     H12279   3.664   6.984   1.410 -0.4429 -0.9182  0.9173
  832MOL0     H12280   3.821   6.885   1.384 -0.3259  2.5628  1.2881
  832MOL0     H12281   4.044   6.785   1.382  0.4141  0.0830  1.4789
  832MOL0     H12282   4.299   6.517   1.490  1.2661  0.6337  3.2656
  832MOL0     H12283   4.495   6.385   1.531 -2.1469  2.0789  3.7380
  832MOL0     H12284   4.829   6.466   1.310 -1.6688  2.8502  1.3531
  832MOL0     H12285   4.907   6.546   1.445 -0.0659  0.8701 -2.5530
  832MOL0     H12286   4.933   6.243   1.407 -2.0647  0.2104  3.6942
  832MOL0     H12287   5.052   6.369   1.359  0.1846 -0.1999 -0.3042
  832MOL0     H12288   5.141   6.291   1.557 -0.1954  1.6646  0.0966
  832MOL0     H12289   5.035   6.427   1.617 -2.1006  0.9449 -1.1563
  832MOL0     H12290   4.963   6.121   1.596 -1.3022  1.7274 -0.9865
  832MOL0     H12291   4.843   6.233   1.646 -0.2824 -0.7336 -2.4711
  832MOL0     H12292   5.107   6.182   1.811 -0.0904 -1.8184  0.9685
  832MOL0     H12293   4.971   6.087   1.838 -1.0168  1.1534  0.1384
  832MOL0     H12294   5.005   6.302   2.000  0.3082  3.7419 -0.2214
  832MOL0     H12295   4.972   6.390   1.860  2.7680 -0.8637  0.1855
  832MOL0     H12296   4.796   6.180   1.981 -0.7964 -0.0107 -0.5974
  832MOL0     H12297   4.747   6.275   1.838  1.4612  1.3612 -0.9970
  832MOL0     H12298   4.832   6.376   2.115 -1.0820  1.4426  0.5229
  832MOL0     H12299   4.732   6.467   2.006  1.5561  0.6514  0.5495
  832MOL0     H12300   4.750   6.719   1.433 -1.0572  2.2858 -0.2710
  832MOL0     H12301   4.574   6.847   1.429  2.4253 -0.8526 -1.6050
  832MOL0     H12302   4.231   7.160   1.409  0.9392  1.5141 -2.7907
  832MOL0     H12303   3.992   7.274   1.340  1.0750  1.0629  1.7144
  832MOL0     H12304   2.253   6.046   1.531  0.7470  0.0730 -0.6710
  832MOL0     H12305   2.050   5.963   1.638 -0.0987  0.2317  2.5518
  832MOL0     H12306   1.770   5.743   1.876  1.3587  0.7491  3.2997
  832MOL0     H12307   1.552   5.668   1.945  0.2538  0.7259  1.8926
  832MOL0     H12308   1.246   5.988   1.983  1.2453 -1.0862  0.1238
  832MOL0     H12309   1.137   5.856   2.018  0.5255 -0.9968  0.1516
  832MOL0     H12310   1.023   5.884   1.820 -0.7264 -1.0290  0.0289
  832MOL0     H12311   1.173   5.877   1.729 -1.1882 -0.5825 -0.8721
  832MOL0     H12312   1.134   6.129   1.705 -0.8533  1.3491  1.3320
  832MOL0     H12313   1.172   6.141   1.867  0.2620 -1.1850  1.7443
  832MOL0     H12314   0.925   6.050   1.897  2.3670  1.8538  2.7027
  832MOL0     H12315   0.950   6.220   1.845  0.7691 -0.7076  0.0564
  832MOL0     H12316   0.772   5.996   1.511 -1.0370 -2.1048  2.2273
  832MOL0     H12317   1.400   6.075   1.879  1.5673  1.5580 -0.8088
  832MOL0     H12318   1.698   6.230   1.891 -0.2313 -1.8444  1.6185
  832MOL0     H12319   1.640   6.224   1.732  3.3288 -1.0587  0.3720
  832MOL0     H12320   1.516   6.237   1.865 -0.4418 -0.3251 -0.6071
  833MOL0     O12321   2.234   1.482   2.756 -0.2262  0.9477  0.6366
  833MOL0     C12322   2.216   1.407   2.661  0.3890 -0.0278 -0.6643
  833MOL0     O12323   2.275   1.415   2.541 -0.0333 -0.2331  0.5619
  833MOL0     C12324   2.345   1.532   2.511 -0.4726 -0.4966 -1.2263
  833MOL0     C12325   2.464   1.576   2.585 -0.3232  0.1211  0.6472
  833MOL0     C12326   2.518   1.709   2.568 -0.5936  0.7615 -0.4010
  833MOL0     C12327   2.451   1.805   2.507  0.2749 -0.3735  0.3355
  833MOL0     O12328   2.494   1.932   2.526 -0.0968 -0.4494 -0.7723
  833MOL0     C12329   2.400   2.036   2.511 -0.5454  0.7510 -0.2495
  833MOL0     C12330   2.450   2.165   2.589  0.7615  0.9249  0.4622
  833MOL0     C12331   2.351   2.277   2.568 -0.3642  1.0909  0.1373
  833MOL0     C12332   2.200   2.248   2.590  0.2964  0.3405  0.5784
  833MOL0     C12333   2.110   2.377   2.568 -0.5788  0.7441 -0.4135
  833MOL0     C12334   1.967   2.362   2.614  0.2556  0.0385  0.3650
  833MOL0     C12335   1.889   2.492   2.616  0.5502 -0.0841 -0.3616
  833MOL0     C12336   1.920   2.572   2.744 -0.2901  0.5509 -1.4565
  833MOL0     N12337   1.817   2.669   2.772 -0.7618 -1.1977 -0.7318
  833MOL0     C12338   1.814   2.810   2.768  0.1404  0.0715 -0.0227
  833MOL0     C12339   1.699   2.849   2.825 -0.5815  1.0952 -0.4679
  833MOL0     C12340   1.647   2.982   2.845  0.2741 -0.6913  0.2343
  833MOL0     C12341   1.560   2.990   2.977 -0.3244 -0.0817 -0.2907
  833MOL0     C12342   1.526   3.137   3.004  0.1215 -0.2194  0.0035
  833MOL0     C12343   1.424   3.200   2.904  0.0235  0.3332 -0.1871
  833MOL0     O12344   1.384   3.326   2.939  0.4958  0.3762 -0.4814
  833MOL0     C12345   1.329   3.408   2.841  0.0222  0.0198  0.9153
  833MOL0     C12346   1.357   3.536   2.845  0.5391 -1.1685  0.1839
  833MOL0     C12347   1.293   3.638   2.765  0.2352  0.3745  0.7558
  833MOL0     C12348   1.205   3.597   2.664  1.0246  0.3596  0.2691
  833MOL0     C12349   1.147   3.699   2.579 -0.7273  0.1255  0.0236
  833MOL0     O12350   1.007   3.681   2.556  0.0946  0.2119  0.0808
  833MOL0     C12351   0.943   3.788   2.509  0.5242  0.4531 -0.3710
  833MOL0     C12352   0.813   3.793   2.552  0.2202 -1.2421 -0.2491
  833MOL0     C12353   0.738   3.903   2.520 -0.7177  0.9734 -0.1513
  833MOL0     C12354   0.777   3.996   2.423 -0.5012  0.9471  0.1269
  833MOL0     O12355   0.705   4.111   2.401 -0.3898  0.1189  0.4209
  833MOL0     C12356   0.682   4.145   2.264  0.4842 -0.4052  0.5758
  833MOL0     C12357   0.660   4.306   2.243 -0.6791  0.0793 -0.5603
  833MOL0     C12358   0.537   4.343   2.165  0.0397  0.0029  0.3933
  833MOL0     C12359   0.557   4.322   2.012  0.4004 -0.4306 -0.4549
  833MOL0     C12360   0.449   4.362   1.920 -0.6488 -0.2440  0.5003
  833MOL0     C12361   0.413   4.510   1.947  0.0697 -0.5424 -0.2114
  833MOL0     C12362   0.303   4.561   1.859 -0.3723 -0.1720  0.2045
  833MOL0     C12363   0.266   4.701   1.912 -0.2564 -0.3773 -0.1373
  833MOL0    Cl12364   0.102   4.756   1.877  0.2932 -0.7327  0.1833
  833MOL0     C12365   0.906   3.978   2.369  0.1838 -1.3885  0.1053
  833MOL0     C12366   0.988   3.869   2.407  0.1486  0.2306 -0.1362
  833MOL0     O12367   1.212   3.796   2.553  0.3936 -0.2896 -0.0449
  833MOL0     C12368   1.182   3.453   2.650  1.0718  0.0929 -1.2166
  833MOL0     C12369   1.230   3.363   2.746 -0.0824  0.6038  0.0265
  833MOL0     N12370   1.639   2.740   2.875  0.2851 -0.5785 -0.4344
  833MOL0     N12371   1.707   2.638   2.846  0.4113 -0.4923 -0.0614
  833MOL0     C12372   2.331   1.768   2.432 -0.2494  0.0147  0.1398
  833MOL0     C12373   2.280   1.634   2.442  0.2444  0.3687 -0.1743
  833MOL0     C12374   2.135   1.289   2.668 -0.0755  1.1407 -0.6324
  833MOL0     C12375   2.126   1.194   2.553  0.6693 -1.5042 -0.5813
  833MOL0     C12376   2.046   1.081   2.563  0.5032 -0.6677  0.6443
  833MOL0     C12377   1.988   1.043   2.683 -0.0521 -0.6108 -0.4993
  833MOL0     O12378   1.924   0.929   2.711 -0.7576  0.3364  0.7110
  833MOL0     C12379   1.908   0.824   2.610 -0.2871  0.3441 -0.1126
  833MOL0     C12380   1.857   0.707   2.693 -0.1203  0.2612 -1.0383
  833MOL0     C12381   1.845   0.586   2.599  1.3359 -0.1283 -0.9604
  833MOL0     C12382   1.752   0.480   2.652  0.8975  0.7730 -0.0821
  833MOL0     C12383   1.626   0.486   2.581 -0.3568 -0.2098 -0.1733
  833MOL0     C12384   1.512   0.478   2.542 -0.7698  0.2887  0.4737
  833MOL0     C12385   1.988   1.134   2.789 -0.4532  0.8833  0.7505
  833MOL0     C12386   2.062   1.252   2.784 -0.2834  0.2531 -0.1261
  833MOL0     C12387   2.041   1.339   2.915 -0.4929  0.8008 -0.3915
  833MOL0     H12388   2.511   1.512   2.659 -0.4377 -1.6343 -0.7387
  833MOL0     H12389   2.604   1.740   2.627 -0.5193  3.0695 -1.5833
  833MOL0     H12390   2.384   2.055   2.405  0.4158 -2.7908 -1.1426
  833MOL0     H12391   2.300   2.000   2.537 -0.7588  1.5405  0.0518
  833MOL0     H12392   2.545   2.184   2.539  1.9868 -1.7789  1.5840
  833MOL0     H12393   2.462   2.135   2.694 -3.6766 -4.6454 -0.1295
  833MOL0     H12394   2.360   2.321   2.468 -3.2481  0.9290 -0.2753
  833MOL0     H12395   2.374   2.356   2.640 -2.3159  1.2071  0.6961
  833MOL0     H12396   2.157   2.166   2.531  1.1651  0.9658 -0.9845
  833MOL0     H12397   2.185   2.218   2.694  1.0486  0.9086  0.8628
  833MOL0     H12398   2.146   2.469   2.614 -0.4623 -0.3161  1.7163
  833MOL0     H12399   2.111   2.391   2.459  0.7503 -0.0097 -0.5157
  833MOL0     H12400   1.920   2.294   2.542 -1.0842  2.2954 -1.0091
  833MOL0     H12401   1.979   2.316   2.713 -0.8642  1.4873  1.2135
  833MOL0     H12402   1.780   2.481   2.615  0.1968  2.6159 -2.5787
  833MOL0     H12403   1.918   2.540   2.522 -1.8936 -0.1276 -1.2109
  833MOL0     H12404   1.934   2.501   2.825 -1.2299  1.9770  0.0196
  833MOL0     H12405   2.011   2.632   2.730 -1.6276  2.7573 -1.0737
  833MOL0     H12406   1.889   2.878   2.727 -0.2991  0.4269 -0.2503
  833MOL0     H12407   1.732   3.051   2.843 -0.5659  0.3746 -1.5760
  833MOL0     H12408   1.578   3.017   2.767  1.8227  0.5541 -0.6427
  833MOL0     H12409   1.472   2.927   2.963  0.8933 -1.2047 -4.1594
  833MOL0     H12410   1.626   2.954   3.057  0.2443 -1.2411 -1.2544
  833MOL0     H12411   1.622   3.187   3.007  1.5677 -2.7758 -0.3914
  833MOL0     H12412   1.489   3.141   3.107 -0.8420 -0.3434 -0.3254
  833MOL0     H12413   1.335   3.137   2.893  1.1893 -1.0557 -2.6422
  833MOL0     H12414   1.482   3.205   2.811  5.7938 -0.9295  2.8433
  833MOL0     H12415   1.422   3.568   2.926 -0.7970  0.0588  0.8015
  833MOL0     H12416   1.327   3.739   2.787  1.1643  0.2248  0.0613
  833MOL0     H12417   0.770   3.745   2.639  1.1859  1.2367  1.6767
  833MOL0     H12418   0.648   3.919   2.579 -1.3746  0.9953 -1.1365
  833MOL0     H12419   0.754   4.113   2.188  1.0151 -1.8301  1.6300
  833MOL0     H12420   0.587   4.095   2.247 -0.1572  1.1851 -0.7169
  833MOL0     H12421   0.668   4.347   2.344  2.8684 -0.8725 -0.3265
  833MOL0     H12422   0.752   4.348   2.201  0.8534 -1.9382  0.6003
  833MOL0     H12423   0.457   4.274   2.193 -0.2397  1.2804  3.1735
  833MOL0     H12424   0.522   4.452   2.174 -3.3301 -0.2071 -1.2177
  833MOL0     H12425   0.585   4.218   1.989 -0.1955  0.1649 -4.6288
  833MOL0     H12426   0.642   4.387   1.991 -0.0865  0.6134  0.6795
  833MOL0     H12427   0.366   4.291   1.931  0.7917 -1.8137  1.6734
  833MOL0     H12428   0.471   4.352   1.813 -0.4915  3.9133 -0.0517
  833MOL0     H12429   0.385   4.533   2.050  0.1841  2.8318 -0.8245
  833MOL0     H12430   0.497   4.574   1.920 -0.6149  0.9866  1.1569
  833MOL0     H12431   0.212   4.504   1.878 -0.5488  0.7704  2.5038
  833MOL0     H12432   0.329   4.573   1.753  3.3392 -0.9787  0.8787
  833MOL0     H12433   0.264   4.686   2.021  0.3736 -2.7411 -0.3937
  833MOL0     H12434   0.333   4.779   1.877 -0.3948 -0.3639 -0.3787
  833MOL0     H12435   0.935   4.057   2.300  0.0150  1.0306  2.6034
  833MOL0     H12436   1.083   3.848   2.358 -0.8592 -1.5659 -1.4568
  833MOL0     H12437   1.120   3.419   2.568  1.6813 -3.1775 -0.4632
  833MOL0     H12438   1.199   3.259   2.750  0.1423  0.5296  3.7812
  833MOL0     H12439   2.266   1.847   2.396 -0.5078  0.3615  1.3364
  833MOL0     H12440   2.185   1.610   2.397  0.5420 -0.2519 -0.4956
  833MOL0     H12441   2.172   1.221   2.458 -0.6381 -0.7515 -1.0300
  833MOL0     H12442   2.059   1.019   2.475  0.4398  0.1679  0.0396
  833MOL0     H12443   2.000   0.789   2.563 -1.7326 -5.1732  0.4281
  833MOL0     H12444   1.831   0.853   2.538 -0.5442  1.5343  0.6226
  833MOL0     H12445   1.762   0.737   2.738  0.7329  1.5475 -0.0209
  833MOL0     H12446   1.923   0.673   2.774 -1.5222 -0.9413 -0.3654
  833MOL0     H12447   1.947   0.545   2.600  0.6934 -1.8802  1.2122
  833MOL0     H12448   1.813   0.623   2.500  0.0399  0.1678 -0.4551
  833MOL0     H12449   1.790   0.378   2.640 -0.1419 -0.0828  2.9194
  833MOL0     H12450   1.732   0.500   2.758 -0.9817 -1.1846  0.0169
  833MOL0     H12451   1.418   0.458   2.496 -0.3977 -1.9723  0.5987
  833MOL0     H12452   1.931   1.108   2.878 -3.2747 -0.5398 -1.3112
  833MOL0     H12453   2.122   1.326   2.988 -1.1143 -3.3472 -0.1759
  833MOL0     H12454   2.031   1.444   2.887 -1.7090  0.7550 -0.1845
  833MOL0     H12455   1.946   1.301   2.954  0.7234 -1.2187  0.7516
  834MOL0     O12456   9.622   4.214   0.570  0.2129 -0.6422  0.1556
  834MOL0     C12457   9.603   4.131   0.485 -0.4852  0.0392  0.4356
  834MOL0     O12458   9.636   4.135   0.356  0.2238 -0.8215 -0.3430
  834MOL0     C12459   9.638   4.255   0.283 -0.6400 -0.0631  0.1404
  834MOL0     C12460   9.662   4.384   0.328 -0.3595  0.1259 -0.5964
  834MOL0     C12461   9.672   4.492   0.240 -0.0188 -0.1860 -1.1957
  834MOL0     C12462   9.665   4.473   0.104 -0.5584 -0.4654 -0.4083
  834MOL0     O12463   9.672   4.571   0.002  0.1248 -0.1238 -0.1662
  834MOL0     C12464   9.696   4.704   0.048  0.8903 -0.1966 -0.0179
  834MOL0     C12465   9.771   4.773  -0.069  0.0969  1.0535  0.1253
  834MOL0     C12466   9.911   4.725  -0.105  0.0073  0.6395 -0.0105
  834MOL0     C12467   9.913   4.653  -0.236 -0.2315  0.4807  0.0772
  834MOL0     C12468  10.049   4.575  -0.247  0.0998 -0.9655 -0.5648
  834MOL0     C12469  10.042   4.480  -0.374 -1.0258  0.5025  0.0441
  834MOL0     C12470  10.051   4.557  -0.508  0.7015  0.1660 -0.0735
  834MOL0     C12471  10.084   4.475  -0.633 -0.6163  0.3373 -0.0330
  834MOL0     N12472  10.217   4.426  -0.633  0.3394  0.4539 -0.1293
  834MOL0     C12473  10.327   4.498  -0.672  0.7425  0.0238 -0.2444
  834MOL0     C12474  10.435   4.433  -0.630 -0.8732  0.4935  1.1083
  834MOL0     C12475  10.573   4.493  -0.632  0.8643 -0.0031 -0.0936
  834MOL0     C12476  10.680   4.394  -0.654  0.5983 -0.6053  0.0111
  834MOL0     C12477  10.816   4.452  -0.674 -0.7504 -0.6171 -0.9858
  834MOL0     C12478  10.857   4.561  -0.568 -0.7719 -0.9564  0.2845
  834MOL0     O12479  10.994   4.610  -0.591  0.4597  0.1926  0.8616
  834MOL0     C12480  11.049   4.703  -0.511  0.4380  0.0013 -0.2027
  834MOL0     C12481  10.993   4.771  -0.400 -0.2008  0.4102  0.4594
  834MOL0     C12482  11.066   4.861  -0.329 -0.0466  1.1636  0.1394
  834MOL0     C12483  11.205   4.891  -0.368 -0.4340 -0.3389  0.9406
  834MOL0     C12484  11.298   4.973  -0.288 -0.2227  0.0206  0.8161
  834MOL0     O12485  11.394   5.034  -0.361 -1.2877  0.0451 -0.6021
  834MOL0     C12486  11.504   5.060  -0.281 -0.4643 -0.2534  1.0059
  834MOL0     C12487  11.605   4.967  -0.246  0.2626  0.1322  0.1421
  834MOL0     C12488  11.728   5.005  -0.190  0.3949 -0.5044  1.0561
  834MOL0     C12489  11.757   5.149  -0.175 -0.0291  0.8597  0.0555
  834MOL0     O12490  11.885   5.181  -0.141 -0.4690  0.2773 -0.2098
  834MOL0     C12491  11.908   5.311  -0.095  0.0582 -0.2860 -0.3635
  834MOL0     C12492  12.052   5.344  -0.055 -0.1227  0.2854 -0.4100
  834MOL0     C12493  12.143   5.296  -0.169  0.1725  0.3921  0.3701
  834MOL0     C12494  12.285   5.318  -0.125 -0.1249 -0.7077 -0.6069
  834MOL0     C12495  12.343   5.462  -0.124 -0.2837  0.0214 -0.9307
  834MOL0     C12496  12.491   5.462  -0.109  0.1589  0.0882 -1.0075
  834MOL0     C12497  12.541   5.462   0.040  0.1321 -0.5003 -0.0237
  834MOL0     C12498  12.692   5.452   0.043 -0.8031  0.7457  0.3157
  834MOL0    Cl12499  12.746   5.387   0.208 -0.0681  0.0223 -0.5004
  834MOL0     C12500  11.653   5.236  -0.202 -0.1769 -0.4792 -0.1668
  834MOL0     C12501  11.526   5.190  -0.250 -0.0648  0.0911 -0.0238
  834MOL0     O12502  11.277   4.987  -0.169 -0.4642 -0.0475 -0.0008
  834MOL0     C12503  11.252   4.836  -0.492 -0.1612  0.4353  0.3977
  834MOL0     C12504  11.172   4.748  -0.558 -0.2788  0.0093 -0.2572
  834MOL0     N12505  10.395   4.302  -0.593  0.3551 -0.5705  0.4618
  834MOL0     N12506  10.262   4.296  -0.589  0.1537 -0.1511  0.0847
  834MOL0     C12507   9.663   4.339   0.060 -0.2320 -0.7027 -0.5631
  834MOL0     C12508   9.655   4.231   0.139 -0.5455 -0.4951  0.7808
  834MOL0     C12509   9.513   4.021   0.524  0.5766 -0.1012 -0.2516
  834MOL0     C12510   9.403   4.050   0.590  0.3845 -0.4018  0.1183
  834MOL0     C12511   9.323   3.967   0.662 -0.6326 -0.1428 -0.5340
  834MOL0     C12512   9.340   3.828   0.646 -0.3321  0.5783  0.6277
  834MOL0     O12513   9.249   3.733   0.676  0.3977  0.8305  0.0770
  834MOL0     C12514   9.172   3.765   0.795 -0.3774 -0.1877  0.4471
  834MOL0     C12515   9.069   3.662   0.827 -0.2332  0.5408 -1.0306
  834MOL0     C12516   9.135   3.527   0.874  0.5536 -0.9377  0.2123
  834MOL0     C12517   9.033   3.422   0.924  0.3719  0.0904 -0.0536
  834MOL0     C12518   8.997   3.437   1.061  0.0768  0.4491 -0.1053
  834MOL0     C12519   8.949   3.437   1.176 -0.8993  0.0327  0.0606
  834MOL0     C12520   9.448   3.796   0.552  0.7625 -0.1955 -0.3310
  834MOL0     C12521   9.531   3.885   0.493 -0.7870  0.3198 -0.9141
  834MOL0     C12522   9.650   3.833   0.413  0.4863  0.0164 -0.7202
  834MOL0     H12523   9.672   4.407   0.434 -0.4934  0.7858 -0.7214
  834MOL0     H12524   9.672   4.589   0.288 -1.7476 -1.0232  0.6508
  834MOL0     H12525   9.605   4.757   0.078  1.4145  0.7580 -0.0904
  834MOL0     H12526   9.772   4.701   0.127 -0.1012  0.8306  1.0288
  834MOL0     H12527   9.770   4.879  -0.045  1.6485  1.0236  0.3757
  834MOL0     H12528   9.702   4.757  -0.153 -1.7720  1.0380  1.5894
  834MOL0     H12529   9.958   4.658  -0.032  1.2180  0.3404 -1.0337
  834MOL0     H12530   9.974   4.814  -0.095 -1.4314  1.6368  0.6032
  834MOL0     H12531   9.832   4.579  -0.234 -1.0990  1.3776 -0.6336
  834MOL0     H12532   9.888   4.711  -0.325 -0.9987  0.9691  0.6020
  834MOL0     H12533  10.135   4.640  -0.262  0.3156 -1.3669 -1.1053
  834MOL0     H12534  10.050   4.514  -0.156 -1.0051 -0.4182 -0.1729
  834MOL0     H12535  10.126   4.411  -0.364  0.9497  2.8553  0.4251
  834MOL0     H12536   9.952   4.419  -0.384 -1.0556  0.8412 -2.1850
  834MOL0     H12537  10.126   4.635  -0.489  0.8377  0.3820 -1.4034
  834MOL0     H12538   9.958   4.613  -0.523  0.6455 -0.3649 -2.0333
  834MOL0     H12539  10.022   4.384  -0.640  0.6327 -0.4996 -0.5776
  834MOL0     H12540  10.077   4.538  -0.722  0.9968  3.2380  1.7521
  834MOL0     H12541  10.317   4.590  -0.728  0.1855 -0.0370 -0.2520
  834MOL0     H12542  10.581   4.575  -0.704 -2.2205  0.9761  0.5642
  834MOL0     H12543  10.585   4.536  -0.533 -1.0843  1.4604 -0.4530
  834MOL0     H12544  10.693   4.325  -0.570 -0.8576 -2.2042 -1.0110
  834MOL0     H12545  10.651   4.339  -0.744  0.6169  1.1268 -1.0974
  834MOL0     H12546  10.812   4.500  -0.772 -0.0065  1.0576 -0.2281
  834MOL0     H12547  10.888   4.370  -0.662  0.0391 -0.0556 -1.7349
  834MOL0     H12548  10.853   4.509  -0.472 -1.3662 -1.0653  0.2017
  834MOL0     H12549  10.783   4.642  -0.571 -1.0816 -1.2603 -1.8428
  834MOL0     H12550  10.902   4.736  -0.351  0.1440  0.5059  1.1903
  834MOL0     H12551  11.036   4.907  -0.235  2.6076 -0.1035  1.7297
  834MOL0     H12552  11.587   4.861  -0.259 -0.6345  0.2997 -0.0199
  834MOL0     H12553  11.799   4.926  -0.169 -1.9870 -2.8504  0.8260
  834MOL0     H12554  11.867   5.389  -0.161 -1.0134 -0.7907 -0.3121
  834MOL0     H12555  11.850   5.330  -0.005 -0.7858  0.3232 -1.0171
  834MOL0     H12556  12.066   5.452  -0.042 -0.5978  0.3704 -0.5709
  834MOL0     H12557  12.071   5.285   0.035  0.9550  0.7061 -0.3507
  834MOL0     H12558  12.137   5.187  -0.170 -1.9428  0.4005  2.1986
  834MOL0     H12559  12.114   5.346  -0.262  1.7319  1.1380  0.2571
  834MOL0     H12560  12.345   5.250  -0.185 -2.3399 -2.3007 -1.1646
  834MOL0     H12561  12.297   5.283  -0.022 -0.1876 -0.2020 -0.4235
  834MOL0     H12562  12.295   5.513  -0.039  0.3369  0.3361 -0.7615
  834MOL0     H12563  12.320   5.518  -0.215  1.1779  1.7686 -0.2986
  834MOL0     H12564  12.534   5.376  -0.160  1.2479 -0.0383  0.0849
  834MOL0     H12565  12.523   5.555  -0.157 -0.7318  0.1263 -1.5468
  834MOL0     H12566  12.514   5.370   0.092  2.0947 -2.8453 -2.8059
  834MOL0     H12567  12.515   5.555   0.090  2.0325  1.3938 -2.3068
  834MOL0     H12568  12.748   5.393  -0.031  2.9065  1.1008  2.5526
  834MOL0     H12569  12.732   5.553   0.028 -0.5363  0.6207  0.1547
  834MOL0     H12570  11.670   5.343  -0.194 -0.8432 -0.4151  0.5233
  834MOL0     H12571  11.460   5.267  -0.288  0.6548  1.4118  1.2953
  834MOL0     H12572  11.351   4.846  -0.535 -1.0246 -1.2390 -2.2468
  834MOL0     H12573  11.217   4.699  -0.643  1.5089 -1.3889  1.4007
  834MOL0     H12574   9.677   4.330  -0.048  1.3045 -1.2197 -0.3532
  834MOL0     H12575   9.659   4.131   0.099 -1.4979 -1.6669  3.3865
  834MOL0     H12576   9.379   4.155   0.603 -1.3691 -0.8968  1.1702
  834MOL0     H12577   9.236   4.006   0.715 -1.2922 -0.6809 -1.2045
  834MOL0     H12578   9.125   3.862   0.775 -1.8640 -0.6677  1.4580
  834MOL0     H12579   9.241   3.776   0.879  0.7537 -0.3115 -0.4449
  834MOL0     H12580   9.010   3.648   0.735  0.3862  1.0037 -1.5101
  834MOL0     H12581   9.000   3.709   0.898  1.4454  1.2433  0.1802
  834MOL0     H12582   9.208   3.544   0.954 -0.3545  0.3013  0.8279
  834MOL0     H12583   9.190   3.486   0.790  0.0767  1.4494 -1.3727
  834MOL0     H12584   8.942   3.441   0.867  0.3075  3.7319  0.9643
  834MOL0     H12585   9.071   3.320   0.911 -0.5317 -0.3896  0.9337
  834MOL0     H12586   8.903   3.436   1.272 -2.3351 -2.5825 -0.5502
  834MOL0     H12587   9.457   3.693   0.517  1.0984  0.1454 -1.2713
  834MOL0     H12588   9.742   3.834   0.471 -0.1872  1.2936  0.3805
  834MOL0     H12589   9.624   3.729   0.388  0.9300 -0.2443 -0.1095
  834MOL0     H12590   9.670   3.897   0.327  0.7623 -1.1273 -1.5265
  835MOL0     O12591   1.066   2.029   0.433 -0.8001  0.2810 -0.3090
  835MOL0     C12592   1.081   2.151   0.423  0.2014  1.1377  0.6399
  835MOL0     O12593   1.198   2.217   0.390 -0.0815  0.3165  0.9640
  835MOL0     C12594   1.299   2.149   0.325  0.7677  0.4179  0.9026
  835MOL0     C12595   1.427   2.184   0.345  0.6264  0.0031 -0.1791
  835MOL0     C12596   1.532   2.141   0.272 -0.5294 -0.0581 -0.1023
  835MOL0     C12597   1.514   2.035   0.178 -0.0123  0.3307 -0.7735
  835MOL0     O12598   1.616   1.983   0.101  1.0048 -0.7046 -0.0357
  835MOL0     C12599   1.722   1.921   0.165 -0.0176  0.8476 -0.5280
  835MOL0     C12600   1.846   1.990   0.119 -0.5612  0.8574  0.6505
  835MOL0     C12601   1.964   1.907   0.091  0.6170  0.6369 -1.2598
  835MOL0     C12602   2.068   1.970  -0.004 -0.0993 -0.5662 -0.1055
  835MOL0     C12603   2.205   1.906  -0.000 -0.4128 -0.4514 -0.1360
  835MOL0     C12604   2.310   2.001  -0.064 -0.1538  0.5245 -1.3022
  835MOL0     C12605   2.446   1.942  -0.024 -0.7563 -0.3859  0.1529
  835MOL0     C12606   2.558   2.015  -0.117 -0.6804  0.1496  0.6769
  835MOL0     N12607   2.695   1.994  -0.078 -0.3692  0.6811  0.0133
  835MOL0     C12608   2.808   2.078  -0.115  0.5692  0.0734 -0.1995
  835MOL0     C12609   2.903   2.007  -0.051  0.0122 -0.2192 -0.4075
  835MOL0     C12610   3.038   2.053  -0.070 -0.2433 -0.2519 -0.4154
  835MOL0     C12611   3.102   2.020  -0.205 -0.4558 -0.4010  0.9056
  835MOL0     C12612   3.244   2.069  -0.212  0.0531 -0.8508  0.2139
  835MOL0     C12613   3.311   2.048  -0.346 -0.5915  0.8156  0.6714
  835MOL0     O12614   3.455   2.053  -0.349  0.3833  0.0405 -1.2622
  835MOL0     C12615   3.510   2.011  -0.467  0.5606  1.1111 -0.3915
  835MOL0     C12616   3.514   2.097  -0.575  0.7864 -0.4057  1.0949
  835MOL0     C12617   3.569   2.069  -0.698  0.3136  0.6130  0.5021
  835MOL0     C12618   3.635   1.938  -0.707 -0.2428 -0.1357  0.0585
  835MOL0     C12619   3.677   1.885  -0.843  0.6888 -0.2026  0.4410
  835MOL0     O12620   3.758   1.774  -0.846 -0.2035 -0.0398 -0.6580
  835MOL0     C12621   3.849   1.751  -0.938 -1.7836 -0.6531 -0.1956
  835MOL0     C12622   3.895   1.839  -1.036 -0.7891 -0.1832 -0.1496
  835MOL0     C12623   3.966   1.787  -1.149 -0.7405 -0.1119 -0.1630
  835MOL0     C12624   4.004   1.653  -1.150 -0.0894 -1.0663 -0.1310
  835MOL0     O12625   4.079   1.625  -1.260 -0.2335  1.1475  0.0616
  835MOL0     C12626   4.135   1.491  -1.264  0.1660  0.0873  0.5007
  835MOL0     C12627   4.205   1.454  -1.399 -0.0738 -0.8223 -0.6630
  835MOL0     C12628   4.268   1.316  -1.407 -0.3494 -0.4519 -0.4824
  835MOL0     C12629   4.192   1.197  -1.339  0.9513 -0.2510 -0.1610
  835MOL0     C12630   4.266   1.069  -1.352  0.0004  0.3876 -0.3356
  835MOL0     C12631   4.245   0.975  -1.237 -0.0661  0.3408  0.0212
  835MOL0     C12632   4.342   1.003  -1.113 -0.3552  1.1386 -0.4436
  835MOL0     C12633   4.286   0.979  -0.975  0.7440  0.5793  1.0190
  835MOL0    Cl12634   4.397   1.068  -0.859  0.0646  0.8851  0.2146
  835MOL0     C12635   3.976   1.570  -1.043  0.4723  0.7432 -0.2579
  835MOL0     C12636   3.895   1.620  -0.941  0.5027 -0.4376 -0.3361
  835MOL0     O12637   3.645   1.951  -0.936 -0.0490  0.0637  0.1192
  835MOL0     C12638   3.651   1.858  -0.596 -0.9351 -0.3437  0.7274
  835MOL0     C12639   3.578   1.888  -0.479 -0.0403 -0.0705  0.3333
  835MOL0     N12640   2.858   1.898   0.025  0.5295 -0.2463  0.2891
  835MOL0     N12641   2.732   1.888  -0.010  0.1660 -0.0352  0.1123
  835MOL0     C12642   1.381   1.989   0.160  0.2241  0.3236  0.6763
  835MOL0     C12643   1.269   2.042   0.225 -0.3275 -1.0914 -0.3617
  835MOL0     C12644   0.981   2.240   0.483 -0.1686 -0.2218  0.8582
  835MOL0     C12645   0.986   2.383   0.474 -0.5265 -0.2583  0.4430
  835MOL0     C12646   0.892   2.470   0.530 -0.0882 -0.6190  0.5981
  835MOL0     C12647   0.786   2.424   0.604  0.0530  0.4660  0.8754
  835MOL0     O12648   0.698   2.515   0.660  0.1944 -0.3513  0.0875
  835MOL0     C12649   0.596   2.476   0.742  0.9189 -0.1473  0.1628
  835MOL0     C12650   0.500   2.599   0.767 -1.1321 -0.4010  0.8121
  835MOL0     C12651   0.432   2.642   0.642  0.7482  0.0190  1.0034
  835MOL0     C12652   0.309   2.736   0.661  0.3938 -0.1219  0.6958
  835MOL0     C12653   0.266   2.780   0.527 -0.7844  0.7318  0.1601
  835MOL0     C12654   0.247   2.814   0.411  0.2848  0.3958 -0.1593
  835MOL0     C12655   0.782   2.287   0.630  0.2246 -0.2318  0.8854
  835MOL0     C12656   0.873   2.198   0.561 -0.9597 -0.2503 -0.2794
  835MOL0     C12657   0.831   2.059   0.575 -0.9146 -0.3405 -0.3204
  835MOL0     H12658   1.451   2.259   0.420  0.1099 -0.7670  0.7883
  835MOL0     H12659   1.625   2.196   0.272 -0.5097 -0.0914 -0.1012
  835MOL0     H12660   1.712   1.937   0.273  1.2481  0.5901 -0.3639
  835MOL0     H12661   1.714   1.815   0.139 -1.1938 -0.0207  2.8577
  835MOL0     H12662   1.876   2.056   0.201  0.6307 -0.3620  1.2307
  835MOL0     H12663   1.818   2.043   0.027 -2.4896 -3.2216 -1.3688
  835MOL0     H12664   1.931   1.816   0.040  0.2015  0.6976 -1.0987
  835MOL0     H12665   2.003   1.881   0.190 -3.7532  0.6766  0.6894
  835MOL0     H12666   2.026   1.970  -0.106  1.1226 -0.0403 -0.6268
  835MOL0     H12667   2.082   2.073   0.031  0.8586 -0.8068  0.2530
  835MOL0     H12668   2.236   1.888   0.103  0.0064 -0.7905 -0.3196
  835MOL0     H12669   2.200   1.812  -0.054 -2.2470 -1.4512  1.6591
  835MOL0     H12670   2.287   2.017  -0.170  0.6701 -0.3760 -1.6357
  835MOL0     H12671   2.306   2.099  -0.014 -1.5906 -1.1271  2.1345
  835MOL0     H12672   2.447   1.834  -0.040  1.4754 -0.3095 -0.5131
  835MOL0     H12673   2.459   1.960   0.084 -0.0691  1.1227 -0.1499
  835MOL0     H12674   2.537   1.998  -0.223  0.0149 -1.3550  0.7587
  835MOL0     H12675   2.544   2.123  -0.107  0.0182  0.4075 -0.8134
  835MOL0     H12676   2.808   2.153  -0.194 -1.4283 -0.2966 -0.5978
  835MOL0     H12677   3.046   2.161  -0.055 -3.0703 -0.1400  0.8645
  835MOL0     H12678   3.104   2.018   0.010  2.2342  0.8565 -1.8703
  835MOL0     H12679   3.077   1.916  -0.229  0.3759 -0.6563  1.1170
  835MOL0     H12680   3.048   2.081  -0.279 -0.0883  0.3038  1.2057
  835MOL0     H12681   3.297   2.003  -0.144  0.7175  0.3832  0.9279
  835MOL0     H12682   3.250   2.173  -0.179 -0.4426 -0.5021 -0.7469
  835MOL0     H12683   3.272   2.127  -0.412  2.5566  1.4292 -0.6192
  835MOL0     H12684   3.278   1.950  -0.381  3.4075 -0.9717  1.4648
  835MOL0     H12685   3.472   2.197  -0.570 -0.1198 -0.7116  0.1191
  835MOL0     H12686   3.552   2.125  -0.790  1.1635 -0.2219 -0.1803
  835MOL0     H12687   3.868   1.943  -1.046  0.8196  0.6028  2.6021
  835MOL0     H12688   4.001   1.845  -1.233  0.3947  0.5877  0.7587
  835MOL0     H12689   4.210   1.480  -1.184  1.1190 -1.1659 -0.5277
  835MOL0     H12690   4.059   1.412  -1.259 -1.0535  0.4173 -5.7230
  835MOL0     H12691   4.137   1.472  -1.482 -2.1880  1.0808  1.3465
  835MOL0     H12692   4.291   1.519  -1.419  0.2669 -0.0920  2.6101
  835MOL0     H12693   4.285   1.308  -1.515 -0.5741  2.5345 -0.8123
  835MOL0     H12694   4.362   1.315  -1.352 -1.0178 -0.2684  0.7191
  835MOL0     H12695   4.090   1.198  -1.380  1.3651  2.0855 -1.2962
  835MOL0     H12696   4.189   1.219  -1.232 -1.5549 -0.0175 -0.2264
  835MOL0     H12697   4.374   1.085  -1.355  0.4390 -2.1066 -0.0557
  835MOL0     H12698   4.240   1.030  -1.451 -0.7579  3.3498 -1.4018
  835MOL0     H12699   4.139   0.972  -1.208 -0.9986  1.3471 -2.9447
  835MOL0     H12700   4.271   0.876  -1.274  0.2786  0.4835 -0.1162
  835MOL0     H12701   4.358   1.111  -1.108 -0.8544  1.2190 -0.5312
  835MOL0     H12702   4.438   0.954  -1.132 -0.3430 -0.1865  2.4930
  835MOL0     H12703   4.184   1.017  -0.964  0.5161  1.4097 -2.6707
  835MOL0     H12704   4.285   0.873  -0.948  1.0900 -0.7852 -3.4467
  835MOL0     H12705   4.009   1.468  -1.025  0.7921  0.7967 -0.5390
  835MOL0     H12706   3.881   1.545  -0.864 -0.3007 -0.8993 -0.9200
  835MOL0     H12707   3.693   1.758  -0.600  1.4970  0.6599 -1.3517
  835MOL0     H12708   3.601   1.826  -0.392  1.2406 -0.5146 -0.2912
  835MOL0     H12709   1.365   1.916   0.081 -0.5193  1.3137 -0.1134
  835MOL0     H12710   1.165   2.016   0.205 -0.7997 -0.4096  1.0820
  835MOL0     H12711   1.060   2.415   0.402 -0.0982 -2.2878 -0.0716
  835MOL0     H12712   0.907   2.573   0.499  0.1051 -0.4150  1.3639
  835MOL0     H12713   0.635   2.440   0.838 -0.7195 -2.0460  0.1764
  835MOL0     H12714   0.525   2.402   0.706 -2.5252  2.7667  0.3397
  835MOL0     H12715   0.570   2.674   0.806  0.9764 -2.2022  0.7227
  835MOL0     H12716   0.423   2.570   0.839  0.1911 -2.2722  1.5681
  835MOL0     H12717   0.388   2.547   0.610 -1.4570  0.6246  2.0666
  835MOL0     H12718   0.503   2.675   0.565 -0.1355 -1.3890 -0.4847
  835MOL0     H12719   0.219   2.695   0.707 -2.3951  3.4612 -1.0052
  835MOL0     H12720   0.350   2.818   0.720  0.2428  0.0479  0.5681
  835MOL0     H12721   0.255   2.848   0.310 -2.2179  1.3049 -0.1105
  835MOL0     H12722   0.711   2.245   0.700 -0.9154  2.3083  1.3740
  835MOL0     H12723   0.814   2.023   0.473 -3.5404  0.2593 -0.1848
  835MOL0     H12724   0.907   1.998   0.624 -0.8201  0.3254  0.3979
  835MOL0     H12725   0.732   2.045   0.620 -2.1680 -2.8333 -3.4442
  836MOL0     O12726   0.952   8.874   8.709  0.1517  0.4970 -0.5595
  836MOL0     C12727   1.031   8.939   8.776 -0.2880 -0.3034  0.0027
  836MOL0     O12728   1.016   8.955   8.903  0.0047  1.1388 -0.6913
  836MOL0     C12729   0.905   8.916   8.970 -0.0259  0.6151  0.7383
  836MOL0     C12730   0.872   8.771   8.987 -0.5044 -1.4244  0.5998
  836MOL0     C12731   0.757   8.738   9.048 -0.1766 -0.6850 -0.2510
  836MOL0     C12732   0.669   8.835   9.107 -0.5654  0.5252  0.3525
  836MOL0     O12733   0.556   8.797   9.174  0.0111 -0.1300 -0.0691
  836MOL0     C12734   0.536   8.666   9.230 -0.1458 -0.4974  0.2604
  836MOL0     C12735   0.438   8.687   9.351 -0.9168  0.7291  0.6420
  836MOL0     C12736   0.483   8.587   9.463 -0.0301 -0.8861 -0.2560
  836MOL0     C12737   0.364   8.547   9.554  0.5950  0.4356  0.2231
  836MOL0     C12738   0.384   8.409   9.632 -0.8358 -0.2729  0.0466
  836MOL0     C12739   0.510   8.394   9.716  0.6577 -0.2906 -0.5555
  836MOL0     C12740   0.527   8.291   9.822  0.3024 -0.2353 -1.1770
  836MOL0     C12741   0.487   8.145   9.773 -0.2795  0.4250 -0.3814
  836MOL0     N12742   0.586   8.100   9.674  0.2392 -0.0187 -0.8725
  836MOL0     C12743   0.707   8.034   9.715 -0.1307  0.3356 -0.0214
  836MOL0     C12744   0.754   8.008   9.590 -0.7453 -0.0194 -0.0353
  836MOL0     C12745   0.891   7.936   9.560  0.1917 -0.0516 -0.0372
  836MOL0     C12746   0.915   7.844   9.674  0.6277  0.0923 -0.6117
  836MOL0     C12747   1.038   7.769   9.651 -0.9679  0.4576  0.4635
  836MOL0     C12748   1.079   7.668   9.759  0.5348 -0.5590  0.7130
  836MOL0     O12749   1.198   7.597   9.718  1.0501  0.3538  0.3586
  836MOL0     C12750   1.262   7.511   9.816 -0.7853 -0.1950  0.1818
  836MOL0     C12751   1.205   7.452   9.928  0.0622 -0.5570 -0.1203
  836MOL0     C12752   1.281   7.378  10.027 -0.3072 -1.0452  0.0581
  836MOL0     C12753   1.416   7.345  10.011  0.9656  0.1704  0.2610
  836MOL0     C12754   1.499   7.262  10.105 -0.1012 -1.3869 -0.8495
  836MOL0     O12755   1.636   7.252  10.084  0.5386  0.2142 -0.6507
  836MOL0     C12756   1.719   7.207  10.185  0.3770 -0.3427  0.1186
  836MOL0     C12757   1.835   7.270  10.210  0.0223 -0.5023  0.1647
  836MOL0     C12758   1.928   7.228  10.300 -0.9512  0.1369 -0.3107
  836MOL0     C12759   1.915   7.109  10.371 -0.1054  0.3215  0.8575
  836MOL0     O12760   2.016   7.072  10.455 -0.4087 -0.2000 -0.3146
  836MOL0     C12761   1.990   6.965  10.548 -0.0154  0.3008  0.0504
  836MOL0     C12762   2.112   6.945  10.646 -0.5090  0.2894  0.1465
  836MOL0     C12763   2.240   6.917  10.561  0.2629 -0.2690  0.2519
  836MOL0     C12764   2.367   6.906  10.650 -0.2112  0.0772 -0.0406
  836MOL0     C12765   2.485   6.839  10.584 -0.1810  0.6015 -0.6652
  836MOL0     C12766   2.592   6.801  10.689  0.0208  0.9768 -0.7868
  836MOL0     C12767   2.717   6.733  10.616  0.4946  0.0880 -0.7243
  836MOL0     C12768   2.828   6.686  10.697 -0.1136 -0.2778  0.0062
  836MOL0    Cl12769   2.892   6.794  10.828  0.2106  0.6360  0.3874
  836MOL0     C12770   1.809   7.033  10.328 -0.0330  0.7242 -0.3633
  836MOL0     C12771   1.709   7.077  10.241 -0.8190  0.4391 -0.3521
  836MOL0     O12772   1.442   7.218  10.205 -0.6386  0.0859 -0.1209
  836MOL0     C12773   1.466   7.400   9.896  0.3530 -0.3335 -0.1099
  836MOL0     C12774   1.399   7.477   9.796  0.1147 -0.3741  0.5021
  836MOL0     N12775   0.667   8.049   9.488 -0.8587  0.8877 -0.0567
  836MOL0     N12776   0.567   8.098   9.545  0.2991 -0.7517  1.0103
  836MOL0     C12777   0.712   8.968   9.099 -0.2032 -0.8820  0.6498
  836MOL0     C12778   0.825   9.006   9.031 -0.2906  0.7979 -0.2433
  836MOL0     C12779   1.150   8.997   8.708  0.5221 -0.1446  0.2708
  836MOL0     C12780   1.163   8.965   8.568  0.4635 -0.3418  0.0653
  836MOL0     C12781   1.282   9.000   8.507 -0.3023 -0.1690  0.1442
  836MOL0     C12782   1.390   9.067   8.572  0.3225  0.2588 -0.3215
  836MOL0     O12783   1.501   9.095   8.499  0.4278  0.2814  1.2521
  836MOL0     C12784   1.603   9.177   8.558  0.8870  0.2575  0.0510
  836MOL0     C12785   1.685   9.243   8.454  0.2911  0.2738  0.7327
  836MOL0     C12786   1.765   9.135   8.371  0.4253  0.2694 -1.0591
  836MOL0     C12787   1.891   9.188   8.298  0.1726 -0.0005  0.1887
  836MOL0     C12788   1.955   9.088   8.209  0.1268 -0.3877  0.1188
  836MOL0     C12789   2.000   9.006   8.146  0.0367 -0.0958  0.2697
  836MOL0     C12790   1.374   9.108   8.705  0.5198 -0.5993 -0.9637
  836MOL0     C12791   1.258   9.065   8.776 -0.8057 -0.4816  0.2333
  836MOL0     C12792   1.258   9.082   8.933 -0.5872 -0.2849 -1.3359
  836MOL0     H12793   0.948   8.696   8.968 -1.4650 -2.6481  1.3768
  836MOL0     H12794   0.740   8.631   9.058  1.5715 -0.8073  2.5167
  836MOL0     H12795   0.492   8.602   9.153 -0.5016  0.1997 -0.1312
  836MOL0     H12796   0.631   8.624   9.263  0.9003 -0.6471 -2.6925
  836MOL0     H12797   0.344   8.649   9.310 -0.9894  2.3358 -0.8216
  836MOL0     H12798   0.437   8.793   9.381  2.1237  1.2040 -0.5286
  836MOL0     H12799   0.571   8.611   9.524 -0.4070 -1.5503  0.5736
  836MOL0     H12800   0.514   8.494   9.416 -0.0300 -1.0176  0.0052
  836MOL0     H12801   0.337   8.625   9.626  0.8384  1.5521 -0.8659
  836MOL0     H12802   0.275   8.527   9.494  2.1538 -3.4924 -1.0952
  836MOL0     H12803   0.287   8.395   9.681 -1.0619 -1.0017 -0.5850
  836MOL0     H12804   0.405   8.323   9.567  0.5145 -0.7473  1.0676
  836MOL0     H12805   0.609   8.397   9.669  2.1915  1.0230  2.4679
  836MOL0     H12806   0.498   8.484   9.776  2.5634 -1.5931  2.0027
  836MOL0     H12807   0.454   8.310   9.902 -0.0064 -1.7992 -1.0596
  836MOL0     H12808   0.631   8.291   9.856  0.2826  2.8076 -0.8780
  836MOL0     H12809   0.473   8.072   9.854 -0.5642  1.4347  0.5028
  836MOL0     H12810   0.393   8.152   9.718 -0.2628 -0.5073 -0.5479
  836MOL0     H12811   0.751   8.007   9.811 -2.1104 -1.4733  0.4450
  836MOL0     H12812   0.892   7.881   9.466  2.3883 -1.4381  0.7179
  836MOL0     H12813   0.963   8.017   9.553 -1.6748  1.6813 -0.2170
  836MOL0     H12814   0.922   7.893   9.772 -0.2504  0.1290 -0.5534
  836MOL0     H12815   0.837   7.770   9.695  2.7275 -1.8914  0.6579
  836MOL0     H12816   1.125   7.826   9.619 -0.7994  0.3618  0.7458
  836MOL0     H12817   1.020   7.705   9.564  1.6601 -0.1332  0.2705
  836MOL0     H12818   0.989   7.611   9.786 -1.0597  1.2199 -0.5301
  836MOL0     H12819   1.110   7.722   9.849  3.4637  0.4725 -0.7851
  836MOL0     H12820   1.098   7.466   9.937 -0.0133  1.6998 -2.8526
  836MOL0     H12821   1.246   7.338  10.122 -1.3811 -0.2220  0.0275
  836MOL0     H12822   1.837   7.366  10.159 -0.3241  0.3012  1.5982
  836MOL0     H12823   2.012   7.295  10.316  1.1053 -2.5560  1.2269
  836MOL0     H12824   1.903   6.975  10.614  0.2818  0.8439  0.3735
  836MOL0     H12825   1.975   6.878  10.484 -1.1685  0.7767 -0.3582
  836MOL0     H12826   2.128   7.022  10.721 -0.2823 -0.3364  0.7517
  836MOL0     H12827   2.099   6.847  10.692 -2.9838 -0.0376 -1.0606
  836MOL0     H12828   2.226   6.829  10.498  1.7485  0.3686 -1.0187
  836MOL0     H12829   2.256   6.994  10.484  1.3850  1.7215  2.3408
  836MOL0     H12830   2.344   6.858  10.746 -0.6204  2.6737  1.2369
  836MOL0     H12831   2.398   7.006  10.682 -6.0327  2.1284  0.2977
  836MOL0     H12832   2.547   6.903  10.521  2.5951 -1.1077  0.1839
  836MOL0     H12833   2.442   6.759  10.523 -1.9380  0.6982  0.3648
  836MOL0     H12834   2.621   6.880  10.758 -0.9000 -0.7428  1.7293
  836MOL0     H12835   2.547   6.730  10.759 -0.0674  1.1927 -0.6216
  836MOL0     H12836   2.749   6.808  10.543 -4.6536  1.7452 -1.6603
  836MOL0     H12837   2.684   6.648  10.556  0.0512  0.7016 -1.3593
  836MOL0     H12838   2.797   6.597  10.752 -0.0615  0.4602  1.2671
  836MOL0     H12839   2.910   6.668  10.627 -1.0499  0.3781 -1.2912
  836MOL0     H12840   1.797   6.931  10.363  0.0725  0.6333 -0.5945
  836MOL0     H12841   1.630   7.003  10.233 -0.4440 -0.2359  1.6042
  836MOL0     H12842   1.569   7.371   9.874  0.5818 -0.6819  1.3264
  836MOL0     H12843   1.451   7.503   9.704  0.6450 -1.6075  0.4370
  836MOL0     H12844   0.648   9.048   9.138  1.0049  0.4568 -0.0164
  836MOL0     H12845   0.860   9.108   9.026  1.4591  0.3897  1.8279
  836MOL0     H12846   1.086   8.907   8.518  2.1019 -1.3617 -1.3958
  836MOL0     H12847   1.306   8.969   8.406 -3.4250 -1.1364 -0.4102
  836MOL0     H12848   1.661   9.130   8.638  0.2609 -0.3749  0.1456
  836MOL0     H12849   1.557   9.258   8.615  2.7772  1.3137  0.1505
  836MOL0     H12850   1.750   9.311   8.510 -1.3819  1.8420  0.8367
  836MOL0     H12851   1.619   9.301   8.390 -0.3063  0.0830  1.1715
  836MOL0     H12852   1.707   9.090   8.290  1.7499 -0.7948 -1.4505
  836MOL0     H12853   1.784   9.058   8.446 -0.1133  2.1351  1.1068
  836MOL0     H12854   1.846   9.263   8.232 -1.7575 -0.7585  0.5691
  836MOL0     H12855   1.946   9.254   8.366 -1.6452  1.0167  0.7344
  836MOL0     H12856   2.028   8.911   8.104  2.2514 -0.2274  1.8709
  836MOL0     H12857   1.460   9.153   8.754  3.3184 -3.7679 -2.5263
  836MOL0     H12858   1.171   9.126   8.984  0.1084 -2.2283  1.7935
  836MOL0     H12859   1.262   8.989   8.989 -2.0011 -1.1389 -2.5889
  836MOL0     H12860   1.349   9.139   8.955  2.2165 -3.5793 -3.4522
  837MOL0     O12861   3.439   2.461   1.771  0.0892 -0.1430 -0.1090
  837MOL0     C12862   3.331   2.505   1.813  0.1957  0.2456  0.1767
  837MOL0     O12863   3.323   2.623   1.885  0.1237 -0.1176  0.4611
  837MOL0     C12864   3.448   2.681   1.909 -0.0019  0.1953  0.1021
  837MOL0     C12865   3.543   2.622   1.991  0.2291  0.2653 -0.1335
  837MOL0     C12866   3.672   2.670   2.013 -0.2379 -0.6360  0.3649
  837MOL0     C12867   3.719   2.778   1.938 -0.1290 -0.6010  0.5207
  837MOL0     O12868   3.849   2.830   1.936  0.3847 -0.3172 -0.6516
  837MOL0     C12869   3.955   2.749   1.990  0.4554 -0.9200  0.2835
  837MOL0     C12870   4.081   2.833   1.993 -0.3403 -0.5002 -0.5489
  837MOL0     C12871   4.154   2.870   1.855 -0.1019  0.0781  0.2158
  837MOL0     C12872   4.275   2.971   1.875  0.3727  0.9001 -0.2880
  837MOL0     C12873   4.398   2.902   1.836 -0.0320 -0.6057 -0.6418
  837MOL0     C12874   4.507   2.990   1.876 -0.1364 -0.4604 -0.9311
  837MOL0     C12875   4.560   2.984   2.024 -0.6057 -0.0765  0.0246
  837MOL0     C12876   4.713   3.042   2.016  1.1406  0.2496 -0.5747
  837MOL0     N12877   4.782   3.061   2.142 -0.7604 -0.1183  0.0117
  837MOL0     C12878   4.863   2.965   2.200  0.3908 -0.3592  0.3918
  837MOL0     C12879   4.891   3.008   2.319  0.9952 -1.0788  0.8421
  837MOL0     C12880   4.971   2.926   2.413 -1.2412  0.5508  0.1127
  837MOL0     C12881   5.119   2.963   2.395 -0.1292 -0.2313  0.0929
  837MOL0     C12882   5.138   3.114   2.422 -0.2668  0.3757  1.0174
  837MOL0     C12883   5.285   3.168   2.413  0.1442  0.2963 -0.4417
  837MOL0     O12884   5.376   3.091   2.494 -0.2197  0.2796  0.2811
  837MOL0     C12885   5.474   3.153   2.558 -0.3094  0.3134 -0.6045
  837MOL0     C12886   5.483   3.278   2.621  0.5205  0.3894 -0.0762
  837MOL0     C12887   5.591   3.309   2.698  0.6658 -0.1630  0.5682
  837MOL0     C12888   5.703   3.224   2.710 -0.5188 -0.5359  0.6115
  837MOL0     C12889   5.816   3.262   2.791 -0.5403  0.1698  0.6735
  837MOL0     O12890   5.833   3.392   2.832  0.5091  0.4204  0.2897
  837MOL0     C12891   5.916   3.436   2.935 -0.9330  0.7456 -0.5334
  837MOL0     C12892   6.024   3.365   3.007  0.0414 -0.2280  0.0340
  837MOL0     C12893   6.104   3.429   3.100 -0.4153 -0.9748  0.3453
  837MOL0     C12894   6.073   3.561   3.140 -0.4798  0.5157 -0.0385
  837MOL0     O12895   6.172   3.619   3.214  0.3973 -0.3526  0.3035
  837MOL0     C12896   6.163   3.751   3.275  0.4283  0.3234  0.5911
  837MOL0     C12897   6.239   3.850   3.198 -0.5914  0.7035  0.4446
  837MOL0     C12898   6.396   3.817   3.202  0.1585  0.1159  0.5627
  837MOL0     C12899   6.438   3.720   3.088  0.9445  0.7021  0.6331
  837MOL0     C12900   6.581   3.678   3.103 -0.0416 -0.1598  0.1415
  837MOL0     C12901   6.690   3.780   3.111  0.0230  0.2567  0.0653
  837MOL0     C12902   6.824   3.696   3.083  0.2756 -0.8856  0.6867
  837MOL0     C12903   6.948   3.763   3.143  0.5816 -0.4062 -0.5013
  837MOL0    Cl12904   7.073   3.766   3.024 -0.5861 -0.1099 -0.3413
  837MOL0     C12905   5.957   3.625   3.082 -0.7104 -0.6108 -0.5857
  837MOL0     C12906   5.891   3.566   2.983  0.2180  0.1924  0.0753
  837MOL0     O12907   5.904   3.175   2.802  0.3357  0.0572  0.6753
  837MOL0     C12908   5.695   3.097   2.648  0.2960  0.2210 -0.3857
  837MOL0     C12909   5.581   3.062   2.573  0.2785 -0.4157 -0.9959
  837MOL0     N12910   4.823   3.122   2.342 -0.1692  0.2763  0.3182
  837MOL0     N12911   4.741   3.151   2.241 -0.8211 -0.8346 -0.1745
  837MOL0     C12912   3.625   2.844   1.856  0.3283  0.6701 -0.6409
  837MOL0     C12913   3.492   2.798   1.834 -0.0793 -0.2568 -0.7037
  837MOL0     C12914   3.211   2.418   1.793 -1.1972  0.3623 -0.2323
  837MOL0     C12915   3.108   2.442   1.874 -0.4598 -0.8070 -0.0668
  837MOL0     C12916   2.991   2.364   1.873 -0.4275  0.1005  0.1396
  837MOL0     C12917   2.982   2.258   1.774 -0.0142 -0.9445  0.0991
  837MOL0     O12918   2.879   2.173   1.761 -0.6644 -0.3330  0.2141
  837MOL0     C12919   2.818   2.127   1.884 -0.5759  0.1730 -0.0543
  837MOL0     C12920   2.912   2.022   1.949 -0.9535  0.2625  0.9141
  837MOL0     C12921   2.962   1.917   1.845  0.1979 -0.4203 -0.6982
  837MOL0     C12922   2.846   1.816   1.808 -0.0513  0.9410  0.2757
  837MOL0     C12923   2.903   1.701   1.730 -0.0249  0.5501  0.2670
  837MOL0     C12924   2.956   1.613   1.664 -0.2190 -0.4782  0.1401
  837MOL0     C12925   3.080   2.250   1.678  0.7698 -0.2976 -0.8453
  837MOL0     C12926   3.198   2.320   1.693 -0.4905  0.0607  0.3068
  837MOL0     C12927   3.293   2.315   1.573 -0.2629 -0.6363  0.4313
  837MOL0     H12928   3.519   2.528   2.041  1.9956 -0.9093 -1.3923
  837MOL0     H12929   3.724   2.623   2.096  0.6936  0.5402  0.4813
  837MOL0     H12930   3.947   2.710   2.092  0.5391 -1.3920  0.1100
  837MOL0     H12931   3.964   2.661   1.925  2.8165 -1.7974  1.7074
  837MOL0     H12932   4.151   2.780   2.058  0.6621 -1.0026 -2.0042
  837MOL0     H12933   4.064   2.928   2.045 -0.9853 -1.3081  0.7907
  837MOL0     H12934   4.078   2.897   1.781 -1.2855 -1.9504  0.6003
  837MOL0     H12935   4.188   2.773   1.818  2.4960  0.4887  1.2737
  837MOL0     H12936   4.273   3.052   1.802 -1.7464  1.3833  0.2353
  837MOL0     H12937   4.278   2.999   1.981 -0.8242 -0.2425  0.0815
  837MOL0     H12938   4.401   2.808   1.890 -2.5505 -0.2304  0.3145
  837MOL0     H12939   4.406   2.873   1.731  1.6763 -1.8086 -0.2107
  837MOL0     H12940   4.586   2.957   1.807  2.2705 -1.4081  2.0351
  837MOL0     H12941   4.485   3.097   1.863 -2.6346 -0.7516  0.3929
  837MOL0     H12942   4.555   2.888   2.077 -0.6360  0.6486  1.3823
  837MOL0     H12943   4.510   3.056   2.089  0.2730  2.0236 -1.5351
  837MOL0     H12944   4.764   2.976   1.945  1.5307  0.4734 -0.5031
  837MOL0     H12945   4.708   3.137   1.963 -0.2471  1.4963  1.6735
  837MOL0     H12946   4.903   2.883   2.141 -0.2113 -0.7413  0.5012
  837MOL0     H12947   4.945   2.956   2.515  0.1984 -0.3503  0.7862
  837MOL0     H12948   4.948   2.819   2.406  0.8584  0.1553 -1.8227
  837MOL0     H12949   5.184   2.898   2.454 -0.7443 -0.3061  0.6939
  837MOL0     H12950   5.133   2.951   2.287  2.1967 -0.7166  0.3875
  837MOL0     H12951   5.096   3.140   2.519 -2.9188  1.2787 -0.2799
  837MOL0     H12952   5.079   3.172   2.350  0.4645 -0.9678 -0.7424
  837MOL0     H12953   5.290   3.275   2.434  2.6085  0.2621 -0.5701
  837MOL0     H12954   5.314   3.144   2.310 -2.2933 -0.2928 -1.0423
  837MOL0     H12955   5.397   3.342   2.606 -2.9311 -2.8523  3.3879
  837MOL0     H12956   5.595   3.406   2.747  2.2241 -0.1943  0.5715
  837MOL0     H12957   6.045   3.261   2.981  3.0218  0.8213 -2.4138
  837MOL0     H12958   6.186   3.367   3.134 -0.1508 -1.2821 -0.8011
  837MOL0     H12959   6.057   3.778   3.282  0.3787  0.3899 -0.3263
  837MOL0     H12960   6.207   3.740   3.374  1.2260  0.0305  0.2059
  837MOL0     H12961   6.198   3.856   3.097 -2.9194 -1.4780  1.1241
  837MOL0     H12962   6.230   3.945   3.250  1.3902  0.6339  0.9647
  837MOL0     H12963   6.466   3.900   3.212  3.3788 -1.9314 -2.8280
  837MOL0     H12964   6.414   3.749   3.286  2.2818 -0.7030 -0.4948
  837MOL0     H12965   6.425   3.777   2.996 -6.5717 -2.1084 -0.8022
  837MOL0     H12966   6.369   3.636   3.097  0.0427  1.3664  0.0825
  837MOL0     H12967   6.609   3.607   3.025  1.7975  0.4731  0.1945
  837MOL0     H12968   6.586   3.619   3.195 -1.8161  1.9892  1.7235
  837MOL0     H12969   6.679   3.868   3.048 -1.0325  0.0083 -0.1082
  837MOL0     H12970   6.706   3.825   3.210  0.7722  0.6985 -0.2471
  837MOL0     H12971   6.839   3.673   2.977  3.1152 -3.9324  1.5727
  837MOL0     H12972   6.808   3.601   3.134  0.4344 -1.9449 -1.1621
  837MOL0     H12973   6.929   3.866   3.173  0.1395 -0.9242  1.0775
  837MOL0     H12974   6.977   3.707   3.232 -0.4798  0.8506  0.6836
  837MOL0     H12975   5.937   3.728   3.111  0.7571 -0.2956 -0.5971
  837MOL0     H12976   5.799   3.605   2.940 -0.4570 -1.0532  0.3482
  837MOL0     H12977   5.770   3.024   2.674 -0.3254 -0.1582  0.4033
  837MOL0     H12978   5.567   2.970   2.517 -3.7247 -0.1849 -0.6752
  837MOL0     H12979   3.651   2.938   1.808  1.1630  0.5178 -0.5076
  837MOL0     H12980   3.419   2.851   1.774  0.4942 -0.0310 -1.2125
  837MOL0     H12981   3.115   2.531   1.935  1.4488 -0.9028 -0.0760
  837MOL0     H12982   2.922   2.373   1.956 -0.8767 -0.3828 -0.1775
  837MOL0     H12983   2.722   2.087   1.847  0.1295  0.2684 -2.1393
  837MOL0     H12984   2.788   2.211   1.947  1.5470  0.5769  0.4764
  837MOL0     H12985   2.871   1.966   2.034  1.1135  1.2810  2.6943
  837MOL0     H12986   3.005   2.074   1.974  0.2842 -0.8051 -1.1908
  837MOL0     H12987   3.047   1.862   1.886 -0.1408 -1.6478 -1.5564
  837MOL0     H12988   2.991   1.970   1.754 -1.7709 -0.9627 -1.7145
  837MOL0     H12989   2.810   1.773   1.903  0.5468  0.3914  0.2589
  837MOL0     H12990   2.764   1.864   1.755 -0.8922 -1.1398 -0.4004
  837MOL0     H12991   2.980   1.538   1.592 -2.2861 -2.4704  1.3938
  837MOL0     H12992   3.054   2.191   1.590 -0.6919 -0.1761 -0.5256
  837MOL0     H12993   3.314   2.418   1.543 -0.3619 -0.8467 -0.4125
  837MOL0     H12994   3.388   2.261   1.578  0.8239  0.9217 -1.7494
  837MOL0     H12995   3.239   2.280   1.484  0.4124 -0.5539 -0.0157
  838MOL0     O12996   3.596   6.147   4.904 -0.2084 -0.8241  0.0340
  838MOL0     C12997   3.636   6.079   4.995 -1.2037  0.1295 -1.0313
  838MOL0     O12998   3.617   6.101   5.133  0.5544 -0.1060 -0.0741
  838MOL0     C12999   3.551   6.215   5.159  0.4014 -0.0417 -0.5732
  838MOL0     C13000   3.602   6.339   5.131  0.1730  0.2137  0.9230
  838MOL0     C13001   3.526   6.452   5.152  0.9971 -0.7637  0.0757
  838MOL0     C13002   3.404   6.448   5.225 -1.4243  0.0091  0.5715
  838MOL0     O13003   3.345   6.567   5.264  0.6410 -0.2186 -0.0837
  838MOL0     C13004   3.206   6.572   5.288  0.9637 -0.3984  0.8957
  838MOL0     C13005   3.153   6.712   5.302  0.2817  0.0364  0.0469
  838MOL0     C13006   3.118   6.786   5.168  0.0237  0.9351  0.3947
  838MOL0     C13007   3.031   6.910   5.194 -0.3758 -0.0514  0.8965
  838MOL0     C13008   3.105   7.013   5.264  0.0655 -0.5803  0.2935
  838MOL0     C13009   3.056   7.162   5.258 -0.0194  0.8539 -0.2362
  838MOL0     C13010   2.934   7.188   5.346 -0.5012 -0.3681 -1.1440
  838MOL0     C13011   2.802   7.153   5.270  0.1321 -0.3823  0.2791
  838MOL0     N13012   2.684   7.152   5.358 -0.3094 -0.0327  0.4492
  838MOL0     C13013   2.575   7.240   5.342  0.5160  0.1988  0.1080
  838MOL0     C13014   2.493   7.202   5.448  1.1578 -0.5391  1.3145
  838MOL0     C13015   2.360   7.247   5.484  0.5125  0.7643  0.9812
  838MOL0     C13016   2.257   7.281   5.375 -0.5011  0.8183 -0.4966
  838MOL0     C13017   2.133   7.330   5.453  0.9218  0.3022 -0.2966
  838MOL0     C13018   2.048   7.413   5.354 -0.4471  0.4538  0.2519
  838MOL0     O13019   1.963   7.502   5.428  0.2406  0.1205 -0.9817
  838MOL0     C13020   1.841   7.547   5.374 -0.1237  0.3303 -1.3037
  838MOL0     C13021   1.785   7.511   5.248  1.0073  0.2165 -0.1471
  838MOL0     C13022   1.661   7.566   5.203 -0.6124 -0.9870  0.1243
  838MOL0     C13023   1.593   7.665   5.284 -1.1207  0.6911  0.9382
  838MOL0     C13024   1.457   7.713   5.235 -0.6675  0.0089  0.1819
  838MOL0     O13025   1.391   7.780   5.334  0.0355 -1.2145 -0.0821
  838MOL0     C13026   1.263   7.808   5.301  0.8155 -0.5544  1.2069
  838MOL0     C13027   1.237   7.938   5.263  0.2713 -0.9064  0.4328
  838MOL0     C13028   1.111   7.973   5.214  0.2823  0.4173 -0.3773
  838MOL0     C13029   1.011   7.878   5.210  0.7355 -0.0255  0.5207
  838MOL0     O13030   0.884   7.903   5.177  0.3721 -1.0524  0.0406
  838MOL0     C13031   0.841   8.038   5.136 -0.6798  0.3000 -0.3574
  838MOL0     C13032   0.691   8.037   5.102  0.6576  0.2260  0.2426
  838MOL0     C13033   0.642   8.177   5.068 -0.2559  0.4913  0.3910
  838MOL0     C13034   0.523   8.164   4.971 -0.1530 -0.0526  0.0543
  838MOL0     C13035   0.396   8.111   5.034 -0.2192 -0.1936 -0.0810
  838MOL0     C13036   0.267   8.180   4.978 -0.0182  0.2349 -0.2363
  838MOL0     C13037   0.133   8.134   5.042 -0.0108 -0.3286 -0.8375
  838MOL0     C13038   0.017   8.226   4.997  0.2244  0.1154 -0.3659
  838MOL0    Cl13039  -0.038   8.199   4.822  0.2027 -0.2437 -0.1029
  838MOL0     C13040   1.031   7.746   5.245 -0.0505 -0.4466  0.1032
  838MOL0     C13041   1.160   7.708   5.297  0.5935 -0.5359  0.7213
  838MOL0     O13042   1.406   7.679   5.126 -0.1385  0.5363 -0.7675
  838MOL0     C13043   1.640   7.682   5.413  0.4457  0.3318 -0.4498
  838MOL0     C13044   1.766   7.635   5.453  0.2069  0.4234 -0.6960
  838MOL0     N13045   2.564   7.110   5.521 -0.4484  0.8746 -1.2018
  838MOL0     N13046   2.670   7.073   5.463  0.3723  0.3222 -0.2488
  838MOL0     C13047   3.358   6.325   5.260  0.0004 -0.5836 -0.8566
  838MOL0     C13048   3.438   6.218   5.234  0.6409  0.6052  0.3404
  838MOL0     C13049   3.721   5.957   4.949  0.5575 -0.3800  0.5061
  838MOL0     C13050   3.688   5.888   4.829 -0.2822  0.3472 -0.4789
  838MOL0     C13051   3.776   5.790   4.774 -0.3855 -0.2151  0.7768
  838MOL0     C13052   3.894   5.758   4.835 -0.4916 -0.7120 -1.6211
  838MOL0     O13053   3.972   5.669   4.768  0.0236  0.6940  0.2268
  838MOL0     C13054   4.104   5.663   4.811 -0.4133  0.2934  0.6143
  838MOL0     C13055   4.185   5.549   4.738  0.7230 -1.3742 -0.2236
  838MOL0     C13056   4.334   5.557   4.776 -0.2742 -0.3806 -1.1839
  838MOL0     C13057   4.403   5.694   4.758  1.2639  0.3322 -0.5080
  838MOL0     C13058   4.542   5.675   4.720 -0.4549  0.1420 -0.1791
  838MOL0     C13059   4.658   5.663   4.686  0.8664 -1.1987 -0.8387
  838MOL0     C13060   3.928   5.832   4.953 -0.3264  0.1717 -0.2685
  838MOL0     C13061   3.847   5.931   5.007  0.6411 -0.3839  0.1758
  838MOL0     C13062   3.901   6.016   5.118 -0.8506  0.6123 -1.4239
  838MOL0     H13063   3.697   6.345   5.079  0.8970  2.0013  2.3363
  838MOL0     H13064   3.564   6.551   5.125  1.8987 -1.1478 -0.1186
  838MOL0     H13065   3.156   6.536   5.198 -2.3165  0.5479  2.2027
  838MOL0     H13066   3.193   6.512   5.378 -0.9526 -2.8234 -0.8641
  838MOL0     H13067   3.220   6.771   5.365 -1.4140  1.7166  0.3448
  838MOL0     H13068   3.057   6.711   5.354  0.1786  1.1247 -0.0895
  838MOL0     H13069   3.068   6.717   5.099  0.0727  1.3014 -0.0131
  838MOL0     H13070   3.213   6.814   5.122 -1.1508 -0.2965 -3.0690
  838MOL0     H13071   2.996   6.942   5.096 -2.1607  0.1282  1.5600
  838MOL0     H13072   2.934   6.888   5.239 -1.9939 -0.9068 -2.6644
  838MOL0     H13073   3.109   6.990   5.371 -1.5922  2.2427  1.0679
  838MOL0     H13074   3.203   7.011   5.216 -1.4659 -0.2853 -3.0866
  838MOL0     H13075   3.132   7.235   5.285 -0.0067  0.6891  0.1865
  838MOL0     H13076   3.040   7.188   5.153  1.2056 -0.8946 -0.9031
  838MOL0     H13077   2.940   7.287   5.391  0.0591 -1.0727  0.4117
  838MOL0     H13078   2.933   7.124   5.435 -2.8525  2.3764  0.9735
  838MOL0     H13079   2.793   7.231   5.194 -0.1998  0.7570  1.4511
  838MOL0     H13080   2.814   7.055   5.224  1.8137  0.2691 -0.7738
  838MOL0     H13081   2.551   7.320   5.273 -1.3866 -0.1410  0.3152
  838MOL0     H13082   2.322   7.153   5.525 -0.2516  1.0133  0.8704
  838MOL0     H13083   2.374   7.326   5.558  1.4806  0.6038  0.9809
  838MOL0     H13084   2.287   7.358   5.303  4.4774 -1.9902 -1.8223
  838MOL0     H13085   2.237   7.194   5.313  0.0642  0.1342  0.2672
  838MOL0     H13086   2.159   7.389   5.541  1.4161 -0.7175  0.2713
  838MOL0     H13087   2.081   7.241   5.489  2.7757 -1.3809 -1.5284
  838MOL0     H13088   1.981   7.347   5.298 -0.9800  2.5233 -1.6843
  838MOL0     H13089   2.111   7.471   5.286 -1.5270  0.8282 -0.4585
  838MOL0     H13090   1.830   7.435   5.184 -1.5224 -2.7843  1.3760
  838MOL0     H13091   1.612   7.536   5.111  0.4377 -2.5529  0.0409
  838MOL0     H13092   1.317   8.011   5.252 -1.0370  0.2848 -2.3237
  838MOL0     H13093   1.102   8.076   5.180  0.1582  0.9002  1.0433
  838MOL0     H13094   0.868   8.105   5.218 -0.3343 -2.2536  1.7312
  838MOL0     H13095   0.892   8.062   5.042 -0.8497 -2.7477 -1.3302
  838MOL0     H13096   0.667   7.971   5.019 -3.6306  0.7052  0.8793
  838MOL0     H13097   0.636   8.005   5.191 -3.1907  1.1146 -1.6086
  838MOL0     H13098   0.606   8.227   5.158 -1.7041 -0.7163  0.5112
  838MOL0     H13099   0.729   8.233   5.031  1.1269 -1.1596  1.0261
  838MOL0     H13100   0.554   8.110   4.882  1.6844  2.0101 -0.6473
  838MOL0     H13101   0.517   8.269   4.940 -2.0939  0.2684  1.3557
  838MOL0     H13102   0.411   8.122   5.142 -0.3536  1.0352 -0.1754
  838MOL0     H13103   0.399   8.002   5.026 -2.3307 -0.3358  0.5246
  838MOL0     H13104   0.273   8.288   4.994 -0.7962  0.3544 -0.7297
  838MOL0     H13105   0.267   8.166   4.870  2.6919 -1.9967 -0.0687
  838MOL0     H13106   0.132   8.156   5.150 -0.1337  2.1959 -1.2956
  838MOL0     H13107   0.110   8.028   5.027  2.1204 -1.1767  1.1794
  838MOL0     H13108  -0.072   8.197   5.053 -4.8987  1.1876 -6.7319
  838MOL0     H13109   0.046   8.327   5.025  2.3324 -1.2510  2.9461
  838MOL0     H13110   0.955   7.668   5.249  2.4731 -3.0570  0.3616
  838MOL0     H13111   1.174   7.602   5.314  0.2572 -0.9849 -1.4969
  838MOL0     H13112   1.582   7.748   5.476  0.3535  0.9498 -1.1662
  838MOL0     H13113   1.812   7.661   5.548  0.2507 -1.7583 -0.0722
  838MOL0     H13114   3.277   6.295   5.326  1.0063 -1.1584  0.1509
  838MOL0     H13115   3.412   6.117   5.266  0.4295 -0.3657 -2.5379
  838MOL0     H13116   3.592   5.915   4.787 -1.2848  2.9090  3.0307
  838MOL0     H13117   3.752   5.750   4.676 -1.4870 -1.7947  1.6492
  838MOL0     H13118   4.118   5.664   4.920  0.0737  1.1388  0.5586
  838MOL0     H13119   4.153   5.757   4.783 -0.2239 -0.6613 -2.7227
  838MOL0     H13120   4.182   5.563   4.630 -0.1085 -1.7098 -0.2525
  838MOL0     H13121   4.154   5.451   4.776 -1.5871 -0.6605 -0.1205
  838MOL0     H13122   4.388   5.479   4.721 -0.9697 -1.6002 -0.1766
  838MOL0     H13123   4.334   5.519   4.879 -2.7775 -3.2301 -2.1036
  838MOL0     H13124   4.357   5.743   4.671 -2.4540 -1.5686  0.1604
  838MOL0     H13125   4.390   5.750   4.850 -1.9375  0.3641 -0.8655
  838MOL0     H13126   4.763   5.654   4.664  1.0732  0.3033 -0.5311
  838MOL0     H13127   4.022   5.823   5.006 -2.0413  0.8349  3.1464
  838MOL0     H13128   3.857   5.985   5.213  0.6523  0.2568 -0.8201
  838MOL0     H13129   4.009   6.003   5.121 -0.9057  0.1723  0.9115
  838MOL0     H13130   3.883   6.123   5.101  0.0990  1.0486  0.1464
  839MOL0     O13131   2.563   8.721   3.411 -0.1685 -0.0355 -0.3082
  839MOL0     C13132   2.552   8.632   3.492 -0.2255 -0.9562  0.3422
  839MOL0     O13133   2.660   8.572   3.555  0.0310  0.0564 -0.3865
  839MOL0     C13134   2.784   8.636   3.527 -1.1345  0.7114 -0.3750
  839MOL0     C13135   2.872   8.597   3.425  0.3581 -0.5734 -0.2173
  839MOL0     C13136   3.007   8.638   3.409  0.4107 -0.4339  0.1121
  839MOL0     C13137   3.044   8.744   3.497 -0.3565  0.3399 -0.2687
  839MOL0     O13138   3.155   8.819   3.493 -0.1477 -0.0057 -0.0629
  839MOL0     C13139   3.261   8.782   3.405 -0.4175 -0.2705 -0.3733
  839MOL0     C13140   3.364   8.895   3.414  0.5270  0.4687 -0.6983
  839MOL0     C13141   3.478   8.873   3.316  1.4786  0.1773 -0.3811
  839MOL0     C13142   3.584   8.986   3.337  0.6805  0.3163  0.3596
  839MOL0     C13143   3.535   9.123   3.289  0.3109 -0.3512 -0.1479
  839MOL0     C13144   3.515   9.143   3.139  0.7573 -0.2646 -1.2342
  839MOL0     C13145   3.487   9.288   3.105 -0.8155  0.2409  0.6543
  839MOL0     C13146   3.331   9.308   3.118 -0.4437  0.1891  0.1938
  839MOL0     N13147   3.284   9.429   3.053 -0.3594 -0.3867  0.2601
  839MOL0     C13148   3.225   9.534   3.110  0.4558 -0.1477  0.8216
  839MOL0     C13149   3.184   9.615   3.008 -0.3123  0.0349  0.0347
  839MOL0     C13150   3.142   9.758   3.016  0.5714  0.4679 -0.3492
  839MOL0     C13151   3.018   9.771   3.106 -0.1541 -0.1480 -0.8446
  839MOL0     C13152   2.941   9.907   3.075  1.0349 -0.2964  0.5419
  839MOL0     C13153   2.790   9.925   3.135 -1.2676  0.7480 -0.3087
  839MOL0     O13154   2.703   9.855   3.058 -1.3942 -1.1678 -0.1494
  839MOL0     C13155   2.568   9.861   3.091 -0.3342  0.0359 -0.6166
  839MOL0     C13156   2.509   9.944   3.185  0.4467 -0.3117 -0.1293
  839MOL0     C13157   2.370   9.923   3.210  0.1738 -0.8724  0.3808
  839MOL0     C13158   2.300   9.826   3.141  0.3934 -0.2880 -0.2247
  839MOL0     C13159   2.157   9.807   3.166  0.5628  0.1886  0.9855
  839MOL0     O13160   2.096   9.900   3.252 -0.0145  0.1386  0.1237
  839MOL0     C13161   1.956   9.906   3.253 -0.0407 -0.3487 -0.0966
  839MOL0     C13162   1.899  10.010   3.178  0.0703 -0.5453 -0.7833
  839MOL0     C13163   1.765  10.038   3.194  0.9779  0.3047 -0.2122
  839MOL0     C13164   1.682   9.950   3.269  0.4136 -0.6029  0.2166
  839MOL0     O13165   1.546   9.983   3.281 -0.1608 -0.1288 -0.1052
  839MOL0     C13166   1.450   9.909   3.349 -0.6560 -0.4877 -0.9600
  839MOL0     C13167   1.336  10.000   3.383  0.4064  0.1742 -1.2040
  839MOL0     C13168   1.363  10.103   3.491  0.4781 -0.3359 -0.6152
  839MOL0     C13169   1.243  10.204   3.487 -0.5065  0.2013 -0.5901
  839MOL0     C13170   1.268  10.305   3.592 -0.2144 -0.4218 -1.0173
  839MOL0     C13171   1.163  10.414   3.604  0.5589 -0.6476 -0.5854
  839MOL0     C13172   1.186  10.527   3.706 -0.2551  0.9678  0.4850
  839MOL0     C13173   1.105  10.656   3.681  0.4185  0.0534  0.6741
  839MOL0    Cl13174   1.115  10.716   3.516  0.7496  0.7438  0.0477
  839MOL0     C13175   1.736   9.837   3.335 -0.7094 -0.2853 -0.3297
  839MOL0     C13176   1.874   9.818   3.329 -0.3115 -0.5449  0.6017
  839MOL0     O13177   2.092   9.721   3.097 -0.1825  0.1890  0.0399
  839MOL0     C13178   2.360   9.755   3.034  0.0362 -0.2423  0.3440
  839MOL0     C13179   2.496   9.775   3.013  0.2565 -0.0567 -0.7823
  839MOL0     N13180   3.209   9.550   2.889  0.0406 -0.2445  0.6147
  839MOL0     N13181   3.265   9.439   2.920 -0.3899  0.3855  0.9598
  839MOL0     C13182   2.960   8.775   3.607 -0.9355 -0.3197  0.8111
  839MOL0     C13183   2.833   8.733   3.619  0.3252  0.2195 -0.2056
  839MOL0     C13184   2.415   8.596   3.528 -0.2968  0.1500 -0.5529
  839MOL0     C13185   2.394   8.515   3.642  0.3585 -0.1069 -0.2015
  839MOL0     C13186   2.258   8.466   3.674 -0.5699  0.0750 -0.4372
  839MOL0     C13187   2.147   8.503   3.600 -0.1180 -0.4287 -0.0305
  839MOL0     O13188   2.025   8.445   3.637 -0.6650 -0.0902 -0.9382
  839MOL0     C13189   1.915   8.443   3.552  0.6064  0.0158 -0.0104
  839MOL0     C13190   1.804   8.363   3.610 -0.0812 -0.0374  0.1802
  839MOL0     C13191   1.719   8.446   3.719 -0.9439  0.5005  0.1710
  839MOL0     C13192   1.601   8.358   3.748  0.1019  0.3525 -0.4321
  839MOL0     C13193   1.497   8.441   3.812 -0.5992 -0.2710  0.2120
  839MOL0     C13194   1.409   8.521   3.858 -0.4920  0.0076 -0.1491
  839MOL0     C13195   2.173   8.592   3.490 -0.2533  0.4544  0.2892
  839MOL0     C13196   2.297   8.633   3.450  0.7020  0.4412 -0.5884
  839MOL0     C13197   2.299   8.708   3.321 -0.8932  0.3960 -0.6114
  839MOL0     H13198   2.834   8.531   3.347 -4.5837 -1.3826  2.4788
  839MOL0     H13199   3.069   8.596   3.331 -2.8377 -3.2912 -1.2044
  839MOL0     H13200   3.293   8.684   3.440 -1.3560 -1.2684 -2.1606
  839MOL0     H13201   3.223   8.782   3.302 -0.9243  1.4044 -0.2275
  839MOL0     H13202   3.406   8.903   3.515 -0.5225 -1.9519 -0.0043
  839MOL0     H13203   3.317   8.993   3.404  1.2033  0.8225 -0.4621
  839MOL0     H13204   3.443   8.867   3.213  0.6353  0.2867 -0.1053
  839MOL0     H13205   3.521   8.773   3.330  1.4310 -0.5075 -4.2143
  839MOL0     H13206   3.611   8.988   3.443 -0.7437 -0.5467  0.7710
  839MOL0     H13207   3.673   8.960   3.279 -0.1799  1.7679 -1.7307
  839MOL0     H13208   3.442   9.153   3.340 -0.6850  0.8179 -2.5040
  839MOL0     H13209   3.609   9.197   3.320  0.6052  0.0412 -1.7268
  839MOL0     H13210   3.608   9.109   3.093  0.6932 -0.5304 -1.1661
  839MOL0     H13211   3.437   9.079   3.096 -0.6520  1.3911 -1.2512
  839MOL0     H13212   3.509   9.307   2.999 -2.3954 -0.5711  0.1430
  839MOL0     H13213   3.541   9.359   3.169 -0.4403 -1.3223  2.1426
  839MOL0     H13214   3.297   9.220   3.063  1.3827 -0.1188 -0.5180
  839MOL0     H13215   3.293   9.300   3.220 -1.6647  1.2150 -0.1638
  839MOL0     H13216   3.225   9.558   3.216  0.7070  0.8460  0.6094
  839MOL0     H13217   3.217   9.825   3.060 -0.1591  1.1827 -0.1767
  839MOL0     H13218   3.120   9.797   2.916  3.1416  0.1682 -1.1149
  839MOL0     H13219   2.955   9.687   3.075  0.0141  0.3633 -2.6878
  839MOL0     H13220   3.045   9.770   3.212  2.1750 -3.7936 -1.3207
  839MOL0     H13221   2.918   9.908   2.968 -0.9607  0.5000  0.9253
  839MOL0     H13222   3.004   9.993   3.098  2.6555 -0.7652 -1.8285
  839MOL0     H13223   2.767  10.032   3.126  3.9782  2.2953  1.4491
  839MOL0     H13224   2.795   9.899   3.241  3.9827  2.0021  0.0373
  839MOL0     H13225   2.566  10.018   3.241 -1.4493  0.2881  1.0789
  839MOL0     H13226   2.325   9.979   3.291 -0.0718  1.7567 -1.4859
  839MOL0     H13227   1.960  10.088   3.134  0.1990  1.0610  1.9578
  839MOL0     H13228   1.734  10.130   3.146 -0.9536 -0.1764  0.0287
  839MOL0     H13229   1.419   9.829   3.281 -0.1709 -2.3434  0.8688
  839MOL0     H13230   1.499   9.887   3.444  1.5809  1.6288 -1.5301
  839MOL0     H13231   1.315  10.051   3.289 -3.5638 -4.2640 -3.1321
  839MOL0     H13232   1.242   9.948   3.406  1.9814 -1.4719  2.2747
  839MOL0     H13233   1.374  10.061   3.592  2.2014  0.1329 -0.5834
  839MOL0     H13234   1.460  10.148   3.470 -0.0816  0.2757 -2.0041
  839MOL0     H13235   1.150  10.146   3.495  0.1150 -1.1469 -2.4241
  839MOL0     H13236   1.246  10.257   3.392  0.0301  0.0828 -0.6397
  839MOL0     H13237   1.361  10.351   3.559  1.5466 -4.1445 -1.8121
  839MOL0     H13238   1.286  10.255   3.687  2.4856  0.5834 -0.9381
  839MOL0     H13239   1.167  10.462   3.506  2.6420  1.1792  0.2941
  839MOL0     H13240   1.070  10.359   3.622 -1.3511  1.2958 -3.6060
  839MOL0     H13241   1.295  10.542   3.706 -0.1195  0.0117  0.7231
  839MOL0     H13242   1.158  10.495   3.806 -3.7402  1.6931 -0.1275
  839MOL0     H13243   1.001  10.637   3.711  0.4019 -1.3702 -0.1707
  839MOL0     H13244   1.147  10.730   3.750  1.9784 -0.7472  0.6426
  839MOL0     H13245   1.675   9.778   3.403 -0.7049 -0.2602 -0.3045
  839MOL0     H13246   1.917   9.732   3.380  1.9669 -0.1929 -0.5839
  839MOL0     H13247   2.306   9.687   2.970  2.8226 -2.2414 -0.0502
  839MOL0     H13248   2.542   9.707   2.942  0.0906 -1.5323  0.4480
  839MOL0     H13249   3.001   8.837   3.686 -1.4077  0.4210  0.4836
  839MOL0     H13250   2.773   8.766   3.703 -2.6989  2.8311 -3.0667
  839MOL0     H13251   2.467   8.470   3.708  1.5818  0.0672 -1.3914
  839MOL0     H13252   2.239   8.395   3.754 -0.3468 -1.0822 -1.3838
  839MOL0     H13253   1.940   8.398   3.456  2.6324  0.6544  0.1669
  839MOL0     H13254   1.879   8.545   3.535 -0.1146  0.3057  2.7740
  839MOL0     H13255   1.848   8.268   3.644 -0.3454 -0.6738 -1.1782
  839MOL0     H13256   1.744   8.340   3.522  3.7468 -0.9374 -2.4202
  839MOL0     H13257   1.688   8.542   3.675  2.4987  1.6497 -0.0164
  839MOL0     H13258   1.779   8.455   3.809  1.9096  0.7506 -1.6182
  839MOL0     H13259   1.552   8.316   3.660  0.8117  0.1618 -0.7425
  839MOL0     H13260   1.619   8.283   3.825  0.8031  0.7741 -0.1768
  839MOL0     H13261   1.332   8.578   3.904 -2.0036  2.0909 -4.6813
  839MOL0     H13262   2.086   8.627   3.435  0.2882 -0.6571 -1.3701
  839MOL0     H13263   2.232   8.676   3.241 -0.2918  0.2040 -1.0508
  839MOL0     H13264   2.300   8.815   3.345  1.6237 -0.0030  1.5998
  839MOL0     H13265   2.393   8.691   3.266 -0.2147  0.5245  0.4729
  840MOL0     O13266   4.101   1.397   4.228 -0.3951 -0.0591  0.6728
  840MOL0     C13267   4.182   1.463   4.297  0.5557  0.7309  0.2536
  840MOL0     O13268   4.294   1.416   4.355 -0.8006 -0.2378  0.1512
  840MOL0     C13269   4.370   1.314   4.299 -0.8086  1.5270  0.3015
  840MOL0     C13270   4.483   1.263   4.379  0.7976  0.1485  0.3134
  840MOL0     C13271   4.539   1.142   4.343  0.3957  0.8843 -0.5423
  840MOL0     C13272   4.510   1.080   4.220 -0.4573 -0.7315 -0.1095
  840MOL0     O13273   4.550   0.953   4.199 -0.5583  0.3970 -0.4340
  840MOL0     C13274   4.674   0.937   4.128  0.6619 -0.1005 -0.1829
  840MOL0     C13275   4.743   0.804   4.159  0.4517  0.4697 -0.5994
  840MOL0     C13276   4.644   0.683   4.171 -0.5878 -0.3532  0.7835
  840MOL0     C13277   4.731   0.552   4.180 -0.3418  0.5882  0.1067
  840MOL0     C13278   4.651   0.425   4.147  0.2260 -0.3625  0.7138
  840MOL0     C13279   4.710   0.298   4.211 -0.3980 -0.2926 -0.2667
  840MOL0     C13280   4.668   0.310   4.359 -0.7430  1.0902 -0.4166
  840MOL0     C13281   4.721   0.184   4.451 -0.4799 -0.4207  0.2464
  840MOL0     N13282   4.854   0.202   4.495  0.0250 -0.2049  0.2972
  840MOL0     C13283   4.966   0.174   4.423  0.3218  0.4778  0.1449
  840MOL0     C13284   5.069   0.184   4.509 -0.2171  0.5702  1.1543
  840MOL0     C13285   5.216   0.162   4.470  0.1674  0.2235  0.8426
  840MOL0     C13286   5.246   0.061   4.344 -0.3804  0.2942  0.5143
  840MOL0     C13287   5.387  -0.000   4.350 -0.3142 -0.2319 -0.9043
  840MOL0     C13288   5.445  -0.034   4.214 -1.0578 -1.3930 -0.0814
  840MOL0     O13289   5.586  -0.084   4.237  0.2699  0.2557  0.3450
  840MOL0     C13290   5.656  -0.132   4.121 -1.0284 -0.6150 -0.2696
  840MOL0     C13291   5.794  -0.140   4.123 -0.1433 -0.6276  0.0091
  840MOL0     C13292   5.864  -0.178   4.005 -0.0846 -0.8046  0.4913
  840MOL0     C13293   5.791  -0.220   3.889 -0.3334  0.0615  0.4643
  840MOL0     C13294   5.878  -0.273   3.783 -0.2544 -0.5923  0.0067
  840MOL0     O13295   6.015  -0.296   3.803  0.5783  0.1723 -0.1847
  840MOL0     C13296   6.081  -0.390   3.718 -0.5891 -0.1262  0.1199
  840MOL0     C13297   6.086  -0.378   3.572 -0.3876  0.7162  0.0490
  840MOL0     C13298   6.152  -0.476   3.497  0.1956 -0.4189 -0.3524
  840MOL0     C13299   6.218  -0.582   3.562 -0.2052  0.2760 -0.3365
  840MOL0     O13300   6.316  -0.664   3.508 -0.1398  1.1547  0.1189
  840MOL0     C13301   6.315  -0.677   3.369  0.5180  0.0636  0.5291
  840MOL0     C13302   6.393  -0.806   3.342 -0.3843 -0.0006 -0.0302
  840MOL0     C13303   6.411  -0.840   3.197  0.7765 -1.3046  1.1663
  840MOL0     C13304   6.436  -0.713   3.108 -0.5369  1.0314 -0.1244
  840MOL0     C13305   6.468  -0.755   2.962  0.7047  0.2382 -0.7481
  840MOL0     C13306   6.455  -0.642   2.872 -0.8663 -1.3273 -0.2625
  840MOL0     C13307   6.479  -0.671   2.734  0.1840 -0.1365  0.2021
  840MOL0     C13308   6.625  -0.662   2.697  0.0151  0.0849  0.2888
  840MOL0    Cl13309   6.651  -0.660   2.522  0.1566  0.1449 -0.4150
  840MOL0     C13310   6.212  -0.592   3.699 -0.8061  0.4482  0.2197
  840MOL0     C13311   6.148  -0.497   3.775  0.4531  0.0693  0.4542
  840MOL0     O13312   5.818  -0.298   3.675 -0.7895 -0.3184 -0.3765
  840MOL0     C13313   5.655  -0.205   3.889  0.8131  0.2574  0.3168
  840MOL0     C13314   5.587  -0.156   3.996  0.1705  0.6069 -0.2791
  840MOL0     N13315   5.022   0.236   4.634 -0.0513 -0.1263  1.0679
  840MOL0     N13316   4.896   0.240   4.616  0.0213  0.0330 -0.4007
  840MOL0     C13317   4.420   1.145   4.142  0.3284 -0.6226  0.6071
  840MOL0     C13318   4.352   1.259   4.171  0.5395 -0.5455  0.3361
  840MOL0     C13319   4.147   1.604   4.336 -0.0093  0.0306  0.2991
  840MOL0     C13320   4.120   1.632   4.463  0.0294  0.0881 -0.4973
  840MOL0     C13321   4.062   1.757   4.509 -0.6803 -0.2954  1.0403
  840MOL0     C13322   4.032   1.851   4.409  0.0778  0.9237 -0.4896
  840MOL0     O13323   3.992   1.975   4.432  0.4824 -0.4028 -0.6816
  840MOL0     C13324   3.876   2.024   4.350 -0.1357  0.4279 -0.0491
  840MOL0     C13325   3.902   2.173   4.314 -0.0495 -1.1487 -0.5783
  840MOL0     C13326   3.977   2.195   4.181 -0.2728 -0.2058  0.0024
  840MOL0     C13327   3.905   2.279   4.076 -0.4845  0.2306  0.6421
  840MOL0     C13328   3.779   2.208   4.042 -0.5108 -0.5750  0.7147
  840MOL0     C13329   3.686   2.131   4.020  0.1025 -0.2831  0.3023
  840MOL0     C13330   4.069   1.814   4.269 -0.0612 -0.0087  0.4092
  840MOL0     C13331   4.131   1.696   4.236  0.0883 -0.1816  0.3994
  840MOL0     C13332   4.170   1.671   4.090  0.5579 -0.9893  0.4259
  840MOL0     H13333   4.493   1.319   4.471 -1.0892  2.4573 -0.7602
  840MOL0     H13334   4.604   1.090   4.413  0.4775  1.5944 -0.0774
  840MOL0     H13335   4.655   0.961   4.022  1.5910  1.3635 -0.0551
  840MOL0     H13336   4.745   1.018   4.151 -1.1316  1.3661  0.4679
  840MOL0     H13337   4.796   0.824   4.252 -1.0553  4.1566 -0.3616
  840MOL0     H13338   4.818   0.780   4.083  2.2369 -3.6503  2.1160
  840MOL0     H13339   4.581   0.669   4.083  1.9865  0.3286 -1.2860
  840MOL0     H13340   4.575   0.675   4.256 -1.7464 -0.7382 -0.1721
  840MOL0     H13341   4.816   0.560   4.111  0.1155  2.4335  0.8189
  840MOL0     H13342   4.774   0.543   4.280 -0.8820  1.5628  0.4407
  840MOL0     H13343   4.543   0.430   4.162 -0.2279  4.4515 -1.9085
  840MOL0     H13344   4.661   0.400   4.041 -2.3903 -0.2905  0.4039
  840MOL0     H13345   4.678   0.201   4.171  1.3243 -0.8938 -0.2796
  840MOL0     H13346   4.817   0.285   4.196 -0.6725 -6.9272  0.5187
  840MOL0     H13347   4.559   0.310   4.363 -0.9220  2.4385 -3.0228
  840MOL0     H13348   4.701   0.407   4.397  1.3394  0.2862 -0.0603
  840MOL0     H13349   4.655   0.165   4.536  1.5134 -0.5254  1.8316
  840MOL0     H13350   4.717   0.092   4.391  1.8224 -0.4784  0.0850
  840MOL0     H13351   4.966   0.143   4.319 -1.6268 -4.1233  1.2732
  840MOL0     H13352   5.276   0.251   4.447  1.9137 -0.3061  2.9368
  840MOL0     H13353   5.259   0.112   4.558 -0.0434 -3.5400 -0.9862
  840MOL0     H13354   5.178  -0.024   4.350 -0.6768  0.5312  0.5791
  840MOL0     H13355   5.240   0.110   4.247 -1.9792 -1.4687 -0.3457
  840MOL0     H13356   5.386  -0.098   4.398  4.0167 -0.6098 -1.2294
  840MOL0     H13357   5.455   0.058   4.412  0.3916 -2.7781  0.8694
  840MOL0     H13358   5.453   0.056   4.152 -2.2540 -2.3989 -1.7818
  840MOL0     H13359   5.382  -0.112   4.172  0.0403 -1.7785 -1.0487
  840MOL0     H13360   5.834  -0.119   4.222 -1.4250 -3.7666  1.3525
  840MOL0     H13361   5.971  -0.189   4.020  0.0014 -2.4517 -1.1134
  840MOL0     H13362   6.028  -0.296   3.529  1.6827  3.0737  1.4274
  840MOL0     H13363   6.156  -0.477   3.388  1.4621  1.7129 -0.3934
  840MOL0     H13364   6.214  -0.674   3.328 -0.1505  3.7411  2.0561
  840MOL0     H13365   6.357  -0.595   3.310 -1.7093 -0.8331 -2.6074
  840MOL0     H13366   6.493  -0.803   3.387  0.3145 -0.4895 -1.5009
  840MOL0     H13367   6.342  -0.886   3.397 -3.4857  1.5937 -0.3676
  840MOL0     H13368   6.493  -0.912   3.189  0.5939 -1.3793 -0.3656
  840MOL0     H13369   6.322  -0.890   3.158  0.0913  0.8021 -0.1198
  840MOL0     H13370   6.520  -0.659   3.154  1.7974 -2.1392 -0.3240
  840MOL0     H13371   6.343  -0.656   3.107 -0.1907  1.6306  0.3028
  840MOL0     H13372   6.401  -0.832   2.922  0.1846  1.5073 -2.4684
  840MOL0     H13373   6.568  -0.800   2.956  0.6849 -0.3952  2.1953
  840MOL0     H13374   6.347  -0.625   2.876 -0.9733 -2.1887  1.2641
  840MOL0     H13375   6.507  -0.553   2.910 -0.6369 -1.7376  0.4052
  840MOL0     H13376   6.422  -0.600   2.674  1.3220 -1.5341 -2.7515
  840MOL0     H13377   6.441  -0.769   2.703  0.0961  0.0595 -0.3221
  840MOL0     H13378   6.659  -0.567   2.740 -0.5190  0.7149 -0.6320
  840MOL0     H13379   6.670  -0.750   2.742 -0.3809 -0.1279  0.2704
  840MOL0     H13380   6.257  -0.677   3.749 -0.2812 -0.3071 -1.4598
  840MOL0     H13381   6.155  -0.492   3.883  0.5693  3.0672  0.4009
  840MOL0     H13382   5.609  -0.243   3.798  3.3797 -2.2916 -0.0438
  840MOL0     H13383   5.480  -0.134   3.991  0.0288 -0.0969 -0.4155
  840MOL0     H13384   4.382   1.096   4.052 -1.2012 -2.0419  1.9518
  840MOL0     H13385   4.278   1.305   4.105  0.5857  0.6165  1.0745
  840MOL0     H13386   4.141   1.559   4.541  1.1626  0.1678 -0.7045
  840MOL0     H13387   4.037   1.769   4.613  1.9538 -0.3523  1.7505
  840MOL0     H13388   3.788   2.026   4.415  0.1211  1.2533  0.2950
  840MOL0     H13389   3.845   1.969   4.261 -1.9040  0.6812  0.3887
  840MOL0     H13390   3.956   2.217   4.398  0.8519 -0.2209 -1.6307
  840MOL0     H13391   3.803   2.217   4.297 -0.3270 -2.7421 -4.0136
  840MOL0     H13392   3.992   2.090   4.153 -0.0922 -0.6127  1.5151
  840MOL0     H13393   4.078   2.231   4.201  1.2963 -4.4768  0.8728
  840MOL0     H13394   3.881   2.379   4.114  0.0909 -0.1109  1.9926
  840MOL0     H13395   3.967   2.291   3.987 -0.6241  0.6420  0.6003
  840MOL0     H13396   3.610   2.058   4.000  3.0134 -3.6105  0.3959
  840MOL0     H13397   4.056   1.888   4.191 -1.0371 -1.5721 -0.9753
  840MOL0     H13398   4.122   1.589   4.034 -1.5494  0.6068 -0.2380
  840MOL0     H13399   4.156   1.763   4.034 -0.3090 -0.3384  1.6712
  840MOL0     H13400   4.279   1.659   4.090  0.4453 -2.1123  1.0366
  841MOL0     O13401   8.386   6.062   0.860  0.0546  0.1783 -0.1136
  841MOL0     C13402   8.298   5.977   0.834  0.7761 -0.1537  0.6756
  841MOL0     O13403   8.172   6.005   0.788  0.4058 -0.6120  0.3011
  841MOL0     C13404   8.156   6.132   0.741  0.1637  0.0172 -1.0883
  841MOL0     C13405   8.161   6.252   0.818 -0.5505  0.1248  0.1624
  841MOL0     C13406   8.148   6.379   0.762  0.3490  1.1478  0.2203
  841MOL0     C13407   8.139   6.404   0.626  0.1998  1.0538 -0.3543
  841MOL0     O13408   8.115   6.532   0.583  0.1708  0.0406  0.1782
  841MOL0     C13409   8.198   6.570   0.468  0.1598 -0.3191  0.2541
  841MOL0     C13410   8.138   6.694   0.405  0.6208  1.5383  0.4077
  841MOL0     C13411   8.210   6.709   0.276  0.3110 -0.2409 -0.2614
  841MOL0     C13412   8.145   6.822   0.195  0.1228 -0.1454  0.2533
  841MOL0     C13413   8.166   6.958   0.263 -1.0488 -0.5175 -0.8310
  841MOL0     C13414   8.134   7.080   0.169  0.1297  0.6836 -0.1211
  841MOL0     C13415   8.183   7.213   0.223 -0.9473  1.3420 -0.4412
  841MOL0     C13416   8.089   7.277   0.324  0.3406  0.7072  0.6856
  841MOL0     N13417   8.125   7.415   0.353  0.2411 -0.6763  0.3531
  841MOL0     C13418   8.232   7.452   0.435 -0.2749 -0.3497 -0.6942
  841MOL0     C13419   8.235   7.590   0.437  0.0093 -0.5035  0.9661
  841MOL0     C13420   8.336   7.678   0.505  0.9294  0.0060  0.5513
  841MOL0     C13421   8.438   7.743   0.413  0.1529  0.1560 -0.5492
  841MOL0     C13422   8.391   7.799   0.281  0.3730 -0.1615 -0.3001
  841MOL0     C13423   8.315   7.937   0.298 -0.2108  0.0657 -0.0765
  841MOL0     O13424   8.267   7.976   0.164  0.2451  0.1103 -0.1769
  841MOL0     C13425   8.304   8.097   0.118  0.6619  1.0237 -0.2337
  841MOL0     C13426   8.212   8.188   0.083 -0.3322  0.1310 -0.4113
  841MOL0     C13427   8.245   8.323   0.049  0.6588 -0.0599  0.1940
  841MOL0     C13428   8.377   8.364   0.036  0.3341  0.1277 -0.3877
  841MOL0     C13429   8.416   8.494  -0.027  0.2943 -1.4085 -0.5294
  841MOL0     O13430   8.530   8.504  -0.089  0.2710  0.0342  0.2594
  841MOL0     C13431   8.553   8.609  -0.178  0.6332 -0.8176  0.4983
  841MOL0     C13432   8.469   8.641  -0.286 -0.8714  0.5331  1.0377
  841MOL0     C13433   8.498   8.725  -0.392  0.5678 -0.6934 -0.1413
  841MOL0     C13434   8.637   8.766  -0.403  0.4952  0.8039 -0.4271
  841MOL0     O13435   8.671   8.843  -0.513 -0.4879  0.1165  0.0203
  841MOL0     C13436   8.800   8.846  -0.551  0.0771  0.4012  0.3216
  841MOL0     C13437   8.784   8.866  -0.703 -0.5388  0.2135  0.4975
  841MOL0     C13438   8.912   8.933  -0.763 -0.1838 -0.4042  0.3561
  841MOL0     C13439   8.905   8.919  -0.920  0.6288 -0.3383  0.3812
  841MOL0     C13440   9.031   8.992  -0.975 -0.1311 -0.8461  0.2529
  841MOL0     C13441   9.030   8.997  -1.126  0.2904  0.0891 -0.0913
  841MOL0     C13442   9.154   9.068  -1.181 -0.0716  0.2373  0.3657
  841MOL0     C13443   9.161   9.063  -1.329 -0.5781  0.2909 -0.2841
  841MOL0    Cl13444   9.011   9.101  -1.408  0.0231 -0.0091  0.1150
  841MOL0     C13445   8.715   8.749  -0.290 -1.0230 -0.6196 -0.0593
  841MOL0     C13446   8.678   8.666  -0.179  0.2031 -0.9012  0.0018
  841MOL0     O13447   8.327   8.583  -0.028 -0.4115  0.1772  0.1776
  841MOL0     C13448   8.472   8.272   0.073 -0.4246 -0.6098  0.0931
  841MOL0     C13449   8.444   8.135   0.117 -0.7829 -0.5502  0.3739
  841MOL0     N13450   8.119   7.630   0.364 -0.2541 -0.4165 -0.3429
  841MOL0     N13451   8.057   7.527   0.318 -0.2659 -0.4306 -0.8162
  841MOL0     C13452   8.135   6.287   0.547  0.2518  0.2603  0.4455
  841MOL0     C13453   8.148   6.158   0.605  0.0538 -0.0375  0.7731
  841MOL0     C13454   8.314   5.831   0.850 -0.2250 -0.3207  0.4005
  841MOL0     C13455   8.248   5.745   0.759 -1.0890 -0.2764  0.2662
  841MOL0     C13456   8.255   5.610   0.771 -0.0996  0.8693  0.4988
  841MOL0     C13457   8.315   5.550   0.877 -0.5949  1.3950  0.5897
  841MOL0     O13458   8.308   5.410   0.884 -0.0562  0.5285 -0.4620
  841MOL0     C13459   8.354   5.341   1.010 -0.0061 -1.1351 -1.4609
  841MOL0     C13460   8.246   5.386   1.124 -0.4813  0.1521 -0.1064
  841MOL0     C13461   8.124   5.307   1.100  0.1262 -0.0899  0.0908
  841MOL0     C13462   8.124   5.164   1.147  0.1226 -0.6746 -0.8246
  841MOL0     C13463   8.082   5.162   1.295  0.9464  0.3655  0.2008
  841MOL0     C13464   8.046   5.156   1.408 -0.3797 -0.1103  0.1744
  841MOL0     C13465   8.384   5.632   0.966 -0.6776  0.6485 -0.0021
  841MOL0     C13466   8.393   5.766   0.951  0.6293 -0.7255  0.4900
  841MOL0     C13467   8.483   5.833   1.053  0.6876  0.0445  0.2776
  841MOL0     H13468   8.174   6.247   0.926  1.7946  1.1754 -0.0112
  841MOL0     H13469   8.166   6.467   0.824 -2.2065  1.1989  1.0144
  841MOL0     H13470   8.293   6.604   0.511  0.6606 -0.0299 -1.0535
  841MOL0     H13471   8.205   6.489   0.395  0.5319  0.7567 -0.9381
  841MOL0     H13472   8.164   6.776   0.472  0.2135  0.9315  1.3228
  841MOL0     H13473   8.031   6.676   0.387  0.2246  1.3630  2.7112
  841MOL0     H13474   8.197   6.614   0.223  2.5442 -0.6412 -0.1900
  841MOL0     H13475   8.317   6.711   0.298  0.0632 -1.1246  1.2069
  841MOL0     H13476   8.189   6.830   0.095 -2.9076 -1.2924 -1.2782
  841MOL0     H13477   8.037   6.809   0.189  0.0332  1.0318 -1.6211
  841MOL0     H13478   8.115   6.965   0.359 -1.2058  2.1639 -1.0490
  841MOL0     H13479   8.268   6.977   0.298 -2.3235  0.5942  2.7364
  841MOL0     H13480   8.184   7.055   0.075  0.5723 -0.5106  0.4136
  841MOL0     H13481   8.029   7.095   0.144 -0.1966 -2.7555 -1.3304
  841MOL0     H13482   8.174   7.276   0.134  2.6662  1.3344 -0.9603
  841MOL0     H13483   8.287   7.204   0.253 -1.2735  0.0448  0.3891
  841MOL0     H13484   7.988   7.261   0.286  0.5604  1.4205 -0.2473
  841MOL0     H13485   8.083   7.209   0.409 -2.4122 -4.6619 -3.1759
  841MOL0     H13486   8.301   7.384   0.484 -1.1364 -1.2729 -0.7468
  841MOL0     H13487   8.273   7.753   0.553  0.1802  0.3439 -0.9067
  841MOL0     H13488   8.388   7.611   0.574  0.1315 -0.8632  0.3283
  841MOL0     H13489   8.490   7.824   0.465  0.4796 -1.3073  1.4990
  841MOL0     H13490   8.510   7.665   0.387 -1.2575 -1.4877  0.3281
  841MOL0     H13491   8.316   7.735   0.234 -0.6629  1.9913 -1.7138
  841MOL0     H13492   8.473   7.821   0.211 -1.5673  2.9107 -1.7872
  841MOL0     H13493   8.378   8.010   0.350 -0.0491 -1.2978  1.7337
  841MOL0     H13494   8.225   7.926   0.360  0.9405 -0.8256  1.4966
  841MOL0     H13495   8.109   8.159   0.102  0.6774 -3.4824  0.1631
  841MOL0     H13496   8.169   8.390   0.011  0.5384 -1.1295 -1.5423
  841MOL0     H13497   8.382   8.579  -0.304  1.3596 -3.1843  1.7862
  841MOL0     H13498   8.430   8.737  -0.476 -0.2931  2.1850  0.8492
  841MOL0     H13499   8.841   8.933  -0.499  0.2471 -0.9345  2.5573
  841MOL0     H13500   8.859   8.755  -0.537  1.3857  1.1485 -0.1262
  841MOL0     H13501   8.761   8.774  -0.758  0.6939  0.6914 -0.8898
  841MOL0     H13502   8.697   8.932  -0.713 -0.5888  0.0222 -0.4231
  841MOL0     H13503   8.910   9.036  -0.726 -3.0072 -1.0433  2.3520
  841MOL0     H13504   9.006   8.888  -0.731  0.4148 -0.3943 -1.2774
  841MOL0     H13505   8.811   8.965  -0.949  0.0413 -1.5419  0.3357
  841MOL0     H13506   8.907   8.815  -0.954  1.6773  0.0516 -0.8257
  841MOL0     H13507   9.125   8.952  -0.937 -0.3907 -0.5938  1.1761
  841MOL0     H13508   9.038   9.096  -0.944 -3.3130 -0.1289 -1.0429
  841MOL0     H13509   9.014   8.894  -1.161 -1.7926 -0.5924  2.5620
  841MOL0     H13510   8.944   9.062  -1.145  0.9578  1.1928  0.5764
  841MOL0     H13511   9.243   9.016  -1.145 -0.2461 -1.9079 -2.0073
  841MOL0     H13512   9.147   9.173  -1.153 -3.1662  0.0111  0.8240
  841MOL0     H13513   9.247   9.121  -1.365  0.7189 -1.6859 -0.5153
  841MOL0     H13514   9.187   8.963  -1.365  0.3271  0.6126 -0.5423
  841MOL0     H13515   8.816   8.788  -0.298 -0.8144 -0.6212  2.0438
  841MOL0     H13516   8.743   8.665  -0.092 -3.2207 -0.0178  2.7989
  841MOL0     H13517   8.578   8.295   0.062  0.0425 -2.3383  0.6089
  841MOL0     H13518   8.516   8.065   0.157  0.8339  1.1516  0.5805
  841MOL0     H13519   8.134   6.284   0.438  4.4773 -2.0546  0.2577
  841MOL0     H13520   8.162   6.080   0.530  2.5031  0.7378  0.3363
  841MOL0     H13521   8.185   5.785   0.680 -1.7074  1.5014  1.5940
  841MOL0     H13522   8.203   5.548   0.699  1.0028  1.7718 -1.1167
  841MOL0     H13523   8.453   5.374   1.041 -0.3055 -0.7000 -0.9470
  841MOL0     H13524   8.360   5.232   1.005 -0.1672 -1.1280 -1.9077
  841MOL0     H13525   8.219   5.491   1.108 -0.7770  0.1463  0.3294
  841MOL0     H13526   8.279   5.364   1.226  1.2427  0.5134 -0.5494
  841MOL0     H13527   8.101   5.314   0.993  1.1209 -0.0535 -0.1346
  841MOL0     H13528   8.036   5.353   1.145  0.6002  0.3555  0.5760
  841MOL0     H13529   8.049   5.104   1.094  0.1259 -0.9945 -0.4747
  841MOL0     H13530   8.220   5.114   1.129 -0.5972 -2.3913 -0.1300
  841MOL0     H13531   8.023   5.151   1.512 -0.9197  0.8043  0.1014
  841MOL0     H13532   8.430   5.588   1.054 -0.5634  1.1264  0.1769
  841MOL0     H13533   8.537   5.913   1.002 -0.6620 -1.5615 -4.0856
  841MOL0     H13534   8.412   5.860   1.132  0.5597  1.3596 -0.2624
  841MOL0     H13535   8.544   5.761   1.108 -0.9397  0.7490  3.2326
  842MOL0     O13536   5.949   5.694   1.807 -0.2392  0.3952 -1.0014
  842MOL0     C13537   5.935   5.578   1.762  0.3908 -0.5642 -0.2373
  842MOL0     O13538   6.009   5.527   1.663  0.9171 -0.2350  0.0463
  842MOL0     C13539   6.127   5.602   1.629 -0.4131 -0.1249  0.5685
  842MOL0     C13540   6.253   5.543   1.636 -0.5088 -0.1589  0.2773
  842MOL0     C13541   6.371   5.617   1.602 -0.0004  0.7947 -0.1109
  842MOL0     C13542   6.358   5.747   1.559  0.7965 -0.6766 -0.6445
  842MOL0     O13543   6.470   5.813   1.509 -0.1360  0.4644  0.2722
  842MOL0     C13544   6.599   5.793   1.560 -0.2776  0.1769  0.5088
  842MOL0     C13545   6.699   5.885   1.482  0.8637  0.6363  0.0467
  842MOL0     C13546   6.676   6.034   1.530 -0.7952  0.1459 -0.1202
  842MOL0     C13547   6.740   6.121   1.422  0.3168  0.6088  0.7242
  842MOL0     C13548   6.749   6.267   1.460 -0.1895 -0.4239 -0.3360
  842MOL0     C13549   6.865   6.303   1.554  0.4155 -0.0085  0.7063
  842MOL0     C13550   6.851   6.448   1.607  0.8100  0.1171 -0.1473
  842MOL0     C13551   6.889   6.565   1.519 -0.1854 -0.4340  0.4488
  842MOL0     N13552   7.037   6.581   1.507 -0.0442 -0.3400  0.1502
  842MOL0     C13553   7.089   6.706   1.480 -0.5658 -0.0173  0.0575
  842MOL0     C13554   7.220   6.691   1.453  0.5568  0.0960 -0.0176
  842MOL0     C13555   7.319   6.803   1.423 -0.6064  0.7176  0.0478
  842MOL0     C13556   7.463   6.754   1.403 -0.0346  0.7396  0.6125
  842MOL0     C13557   7.483   6.701   1.263 -1.1076  0.7508  0.0275
  842MOL0     C13558   7.629   6.731   1.212 -0.5072  0.2625 -0.3908
  842MOL0     O13559   7.668   6.869   1.224 -0.1949  0.2098  0.5021
  842MOL0     C13560   7.632   6.959   1.127 -0.3673 -0.2577  0.3079
  842MOL0     C13561   7.544   6.944   1.020  0.0480  1.0552  0.4187
  842MOL0     C13562   7.526   7.051   0.940  0.1592 -0.1254  0.2565
  842MOL0     C13563   7.575   7.178   0.956 -0.3703 -0.6328  0.2904
  842MOL0     C13564   7.572   7.291   0.861  0.6408  0.1646  0.0913
  842MOL0     O13565   7.613   7.417   0.888 -0.9051 -0.6205 -0.3009
  842MOL0     C13566   7.640   7.525   0.801 -0.9893  0.3990  0.3665
  842MOL0     C13567   7.676   7.654   0.851 -1.0602 -0.0221  0.1239
  842MOL0     C13568   7.703   7.769   0.772 -0.9529  0.4108  0.0375
  842MOL0     C13569   7.705   7.741   0.633  0.5211  0.5614  0.6467
  842MOL0     O13570   7.742   7.847   0.549  0.1499 -0.3667 -0.2772
  842MOL0     C13571   7.796   7.816   0.424 -0.4293 -0.2166  0.3432
  842MOL0     C13572   7.895   7.926   0.389 -0.3489  0.4402  0.4280
  842MOL0     C13573   7.872   7.982   0.253 -0.0893  0.1990  0.6477
  842MOL0     C13574   7.865   7.877   0.136 -0.8963 -0.5451 -0.9731
  842MOL0     C13575   7.934   7.928   0.010 -0.3545 -0.0088 -0.8065
  842MOL0     C13576   7.888   7.854  -0.117  0.2290  0.5087 -0.2810
  842MOL0     C13577   7.748   7.910  -0.160 -0.5508 -0.0476  0.3559
  842MOL0     C13578   7.693   7.860  -0.291 -0.3074 -0.4270 -0.3477
  842MOL0    Cl13579   7.807   7.834  -0.428  0.3340 -0.2357  0.7360
  842MOL0     C13580   7.677   7.613   0.581 -0.8793 -0.3180 -0.6779
  842MOL0     C13581   7.646   7.507   0.664 -0.5909  1.4322 -0.0392
  842MOL0     O13582   7.535   7.257   0.751 -0.4419  0.0284 -0.8421
  842MOL0     C13583   7.673   7.190   1.064 -0.3853  0.8761  0.1322
  842MOL0     C13584   7.694   7.078   1.148  0.3596  0.1947  0.4131
  842MOL0     N13585   7.240   6.558   1.448  0.2410  0.3640 -0.2181
  842MOL0     N13586   7.137   6.489   1.487 -0.7272  0.7512 -0.2964
  842MOL0     C13587   6.236   5.806   1.560 -0.0637  0.0398  0.2752
  842MOL0     C13588   6.122   5.731   1.590  0.3479  0.0166 -0.4794
  842MOL0     C13589   5.823   5.502   1.813 -0.8458 -0.2627 -1.1663
  842MOL0     C13590   5.845   5.371   1.837  0.2051  1.2705 -0.1476
  842MOL0     C13591   5.743   5.285   1.885 -0.5773 -0.2448  0.4768
  842MOL0     C13592   5.621   5.343   1.927 -0.0199  0.4323 -0.4097
  842MOL0     O13593   5.526   5.244   1.951 -0.2723  0.2830 -0.9207
  842MOL0     C13594   5.390   5.284   1.997  0.7362  0.2461  0.9278
  842MOL0     C13595   5.284   5.174   1.959 -0.1832 -0.8224 -0.0426
  842MOL0     C13596   5.289   5.149   1.805 -0.4300 -0.5317 -0.1596
  842MOL0     C13597   5.230   5.263   1.718  0.6006  0.3320 -0.5807
  842MOL0     C13598   5.338   5.292   1.626 -0.2520  0.1384 -0.2763
  842MOL0     C13599   5.418   5.342   1.547 -0.4181  0.8442  0.3413
  842MOL0     C13600   5.602   5.475   1.925  0.1736 -0.3515 -0.1004
  842MOL0     C13601   5.706   5.555   1.864  0.2224  0.6561  0.2131
  842MOL0     C13602   5.665   5.696   1.839 -0.7434 -0.4379  0.0973
  842MOL0     H13603   6.261   5.440   1.671  1.9940  0.6443  2.3472
  842MOL0     H13604   6.473   5.581   1.595 -0.3889 -0.2203 -0.7045
  842MOL0     H13605   6.603   5.827   1.664 -1.1493 -1.4360  1.0982
  842MOL0     H13606   6.629   5.690   1.542  1.8325  0.5653  1.5365
  842MOL0     H13607   6.677   5.871   1.376  1.3063 -0.2669  0.0675
  842MOL0     H13608   6.802   5.858   1.508  0.5152  0.2464  1.0940
  842MOL0     H13609   6.726   6.052   1.626  1.3391 -2.7114 -0.5632
  842MOL0     H13610   6.571   6.065   1.534 -0.6661  0.5310  0.5303
  842MOL0     H13611   6.839   6.084   1.394 -0.1933  0.1709 -0.5743
  842MOL0     H13612   6.673   6.107   1.337  1.3933 -0.5886  0.0439
  842MOL0     H13613   6.765   6.333   1.374  0.2562  1.0426  0.8286
  842MOL0     H13614   6.658   6.295   1.515  0.4255 -0.0177  0.4850
  842MOL0     H13615   6.870   6.239   1.643 -0.3476 -0.7450  0.2384
  842MOL0     H13616   6.960   6.289   1.502 -0.8012 -0.8946 -1.4049
  842MOL0     H13617   6.910   6.462   1.698 -0.6131  3.0546  0.4418
  842MOL0     H13618   6.747   6.461   1.637  0.5378  0.1451 -1.0727
  842MOL0     H13619   6.850   6.550   1.418 -1.7293 -0.0544  0.9503
  842MOL0     H13620   6.848   6.653   1.569 -1.3011 -0.6455 -0.0471
  842MOL0     H13621   7.041   6.802   1.496  1.1266  0.2999  4.5963
  842MOL0     H13622   7.277   6.847   1.332  1.7002  1.6576 -0.6303
  842MOL0     H13623   7.319   6.873   1.508  1.1074 -1.7151  2.2088
  842MOL0     H13624   7.528   6.840   1.422  1.1242 -0.0209  0.2038
  842MOL0     H13625   7.495   6.681   1.478  0.9881  1.1067  0.5455
  842MOL0     H13626   7.404   6.732   1.193 -1.1886  1.0795  0.2617
  842MOL0     H13627   7.480   6.592   1.272  0.9424  0.8344  2.9326
  842MOL0     H13628   7.655   6.704   1.109  3.3736  4.0830 -0.7151
  842MOL0     H13629   7.691   6.665   1.274  0.0189  0.5999 -0.5523
  842MOL0     H13630   7.497   6.847   1.007 -1.5953  1.6510  1.6325
  842MOL0     H13631   7.461   7.036   0.855 -0.4388 -0.1985  0.7184
  842MOL0     H13632   7.664   7.666   0.959 -2.9124  0.3925 -0.0885
  842MOL0     H13633   7.731   7.864   0.815 -0.7570  0.1352  0.5225
  842MOL0     H13634   7.853   7.723   0.427  1.0953  0.6573 -0.2844
  842MOL0     H13635   7.714   7.820   0.351 -1.2043 -2.8923  0.9482
  842MOL0     H13636   7.881   8.012   0.455 -1.0822  1.5627 -1.1414
  842MOL0     H13637   8.000   7.898   0.396 -0.0019  1.9841  2.5266
  842MOL0     H13638   7.779   8.039   0.264 -0.0632  0.6524 -1.1314
  842MOL0     H13639   7.945   8.060   0.229  1.2136 -0.0566  3.4791
  842MOL0     H13640   7.759   7.853   0.121 -1.0511 -0.2999 -0.2958
  842MOL0     H13641   7.920   7.795   0.182 -3.2951 -0.4405  2.4617
  842MOL0     H13642   8.040   7.915   0.031 -0.2666  1.0393 -0.5234
  842MOL0     H13643   7.916   8.035  -0.004 -1.1359  0.4414  2.7071
  842MOL0     H13644   7.963   7.874  -0.195  1.5271 -2.7413 -0.0255
  842MOL0     H13645   7.879   7.745  -0.127  1.6244  0.4807 -1.7727
  842MOL0     H13646   7.759   8.018  -0.171  1.3438 -0.2067  0.4295
  842MOL0     H13647   7.673   7.884  -0.085 -1.0684 -2.1652 -0.8175
  842MOL0     H13648   7.639   7.765  -0.279  1.0246 -1.1610  0.0002
  842MOL0     H13649   7.620   7.937  -0.317 -1.2773 -1.9140 -2.2671
  842MOL0     H13650   7.667   7.598   0.474 -5.7525 -0.0231 -0.5185
  842MOL0     H13651   7.640   7.406   0.623 -3.1835  0.9855  1.2705
  842MOL0     H13652   7.731   7.280   1.080 -1.6567  1.5358  1.2143
  842MOL0     H13653   7.768   7.085   1.228  0.7320 -0.5862  0.1572
  842MOL0     H13654   6.217   5.901   1.512 -0.3287  0.8816  1.9524
  842MOL0     H13655   6.029   5.785   1.577 -0.7465 -1.8439 -0.7176
  842MOL0     H13656   5.942   5.332   1.808  1.4118  3.0042  1.2574
  842MOL0     H13657   5.746   5.177   1.881 -1.7338 -0.3257  1.2033
  842MOL0     H13658   5.363   5.378   1.949 -0.4791  0.1141  1.3387
  842MOL0     H13659   5.379   5.316   2.101 -0.1313 -1.2748  1.3356
  842MOL0     H13660   5.185   5.209   1.990  0.4647  2.0838 -0.9740
  842MOL0     H13661   5.306   5.088   2.024 -1.4490  0.1503  1.7732
  842MOL0     H13662   5.242   5.051   1.792  2.6958 -1.9988 -1.3940
  842MOL0     H13663   5.391   5.119   1.780 -0.2691  0.2234 -0.4471
  842MOL0     H13664   5.134   5.237   1.672  0.0738 -1.0258  1.1637
  842MOL0     H13665   5.202   5.347   1.782 -1.1605 -1.0028  0.4662
  842MOL0     H13666   5.486   5.381   1.474  0.9758  0.1465  1.2162
  842MOL0     H13667   5.519   5.532   1.966  0.4344  0.0617 -0.1327
  842MOL0     H13668   5.566   5.713   1.882 -1.1824 -0.2695 -0.9709
  842MOL0     H13669   5.739   5.762   1.886 -0.2394 -2.0379  1.6670
  842MOL0     H13670   5.654   5.729   1.735 -3.3704  1.7318  0.9266
  843MOL0     O13671   7.070  11.249   5.694 -0.9631 -0.3215  0.3799
  843MOL0     C13672   7.090  11.130   5.672 -1.1858  0.4802  0.3085
  843MOL0     O13673   7.215  11.067   5.662  0.0581 -0.6864  0.5859
  843MOL0     C13674   7.324  11.149   5.643  0.7253  0.0383 -0.3236
  843MOL0     C13675   7.344  11.243   5.544 -0.0456  0.1408 -0.4954
  843MOL0     C13676   7.459  11.330   5.553 -0.7977 -0.1377  0.5894
  843MOL0     C13677   7.564  11.316   5.654  0.7331  0.2974  0.5726
  843MOL0     O13678   7.671  11.400   5.677  0.5792 -0.2771  0.6207
  843MOL0     C13679   7.666  11.540   5.628 -0.2492 -0.2516 -0.4882
  843MOL0     C13680   7.782  11.621   5.685 -0.7651  0.1997  0.3292
  843MOL0     C13681   7.783  11.631   5.830  0.7107  0.2059  0.1163
  843MOL0     C13682   7.893  11.731   5.874 -1.0980  0.8727 -0.0122
  843MOL0     C13683   7.906  11.760   6.022  0.0427 -0.0439  0.0849
  843MOL0     C13684   8.007  11.868   6.052 -0.2395 -0.6530  0.1577
  843MOL0     C13685   7.987  11.924   6.193 -0.5513 -0.9422  0.5811
  843MOL0     C13686   7.996  11.822   6.297  0.4531  0.3468 -0.0088
  843MOL0     N13687   8.123  11.766   6.333  0.0111 -0.0930 -0.0125
  843MOL0     C13688   8.228  11.829   6.385 -0.9256 -0.7013 -1.0995
  843MOL0     C13689   8.317  11.730   6.393  0.0184 -0.0544 -0.5937
  843MOL0     C13690   8.441  11.747   6.473 -0.4958  0.7686 -0.0976
  843MOL0     C13691   8.536  11.849   6.404  0.3847  0.2935 -0.0086
  843MOL0     C13692   8.664  11.865   6.477  1.0395  0.0041  0.2212
  843MOL0     C13693   8.768  11.951   6.407 -1.1570 -1.2488  0.2286
  843MOL0     O13694   8.890  11.966   6.490  0.4315  0.1083 -0.2737
  843MOL0     C13695   9.009  11.994   6.426  0.8132  0.6582  1.8740
  843MOL0     C13696   9.129  11.957   6.483 -1.0739  0.1631 -0.2997
  843MOL0     C13697   9.255  11.976   6.423 -0.2619  0.2444  0.0514
  843MOL0     C13698   9.259  12.028   6.294 -1.3107 -0.1800 -0.5940
  843MOL0     C13699   9.386  12.046   6.218  0.1114  0.0028 -0.5329
  843MOL0     O13700   9.393  12.110   6.096  0.4950  0.0172 -0.2989
  843MOL0     C13701   9.522  12.159   6.085  0.3293  0.4826 -0.3864
  843MOL0     C13702   9.605  12.119   5.974  0.5952  1.3089 -1.3553
  843MOL0     C13703   9.724  12.183   5.928 -0.6568 -0.9898 -0.3434
  843MOL0     C13704   9.752  12.305   5.990 -0.1972 -0.0456  0.0890
  843MOL0     O13705   9.851  12.392   5.939  0.1726  0.0505 -0.6349
  843MOL0     C13706   9.992  12.370   5.971 -0.3543 -1.2728 -0.0307
  843MOL0     C13707  10.056  12.231   5.939  0.1590 -0.7728 -1.5823
  843MOL0     C13708  10.210  12.247   5.933  0.4071 -0.9918  0.3892
  843MOL0     C13709  10.254  12.289   5.788 -0.4214 -0.1722  0.3253
  843MOL0     C13710  10.412  12.300   5.783  0.7892 -0.3937  0.8832
  843MOL0     C13711  10.461  12.354   5.641  0.4496  0.6082 -0.8966
  843MOL0     C13712  10.461  12.245   5.536 -0.3473 -0.9929  0.3517
  843MOL0     C13713  10.573  12.134   5.563  0.1525  0.0111  0.5229
  843MOL0    Cl13714  10.562  11.988   5.466 -0.0050 -0.2411 -0.1594
  843MOL0     C13715   9.677  12.347   6.099  0.2240 -0.4244  0.9567
  843MOL0     C13716   9.561  12.280   6.141 -1.1584  0.3741  0.4103
  843MOL0     O13717   9.485  12.000   6.285  0.0760 -0.1159  0.3280
  843MOL0     C13718   9.136  12.054   6.230 -0.2408 -0.0462 -0.2979
  843MOL0     C13719   9.014  12.040   6.293  0.3079 -0.3902  0.6060
  843MOL0     N13720   8.271  11.614   6.343  1.1604 -0.7153  0.1852
  843MOL0     N13721   8.146  11.635   6.313 -0.9032 -0.8399 -0.0982
  843MOL0     C13722   7.541  11.219   5.754 -0.0010  0.0023  0.6648
  843MOL0     C13723   7.418  11.139   5.746 -0.0025 -0.0059  0.5205
  843MOL0     C13724   6.965  11.048   5.640  0.3785  0.2678  0.0716
  843MOL0     C13725   6.839  11.105   5.646 -0.1380  0.3588 -1.3428
  843MOL0     C13726   6.719  11.038   5.624  0.0101 -0.3397 -0.5045
  843MOL0     C13727   6.711  10.906   5.576  0.6076  0.8349  1.1695
  843MOL0     O13728   6.592  10.834   5.548 -0.3808  0.3075  0.3034
  843MOL0     C13729   6.464  10.899   5.563  0.9270 -0.3451 -1.3138
  843MOL0     C13730   6.346  10.821   5.515  0.5522  0.1016  0.1947
  843MOL0     C13731   6.206  10.864   5.560 -0.4341 -0.2172 -1.1871
  843MOL0     C13732   6.086  10.790   5.505  0.1102 -0.7216  0.7309
  843MOL0     C13733   6.061  10.827   5.367 -0.3196 -0.3988 -0.0801
  843MOL0     C13734   6.034  10.841   5.248  1.7989  0.4839 -0.4361
  843MOL0     C13735   6.834  10.843   5.562 -0.5898 -0.8905 -0.8771
  843MOL0     C13736   6.959  10.913   5.596 -1.2645  0.7754  0.1160
  843MOL0     C13737   7.077  10.818   5.593 -0.5735  0.3225  0.1698
  843MOL0     H13738   7.277  11.263   5.461 -0.5851 -2.0227 -0.6389
  843MOL0     H13739   7.454  11.407   5.477 -0.5504 -3.0809 -2.6409
  843MOL0     H13740   7.682  11.544   5.520  2.7550 -0.6543 -0.1402
  843MOL0     H13741   7.569  11.583   5.658 -1.4690 -1.9918 -1.7294
  843MOL0     H13742   7.789  11.717   5.633  1.0716 -0.0951 -0.0331
  843MOL0     H13743   7.866  11.555   5.662 -1.1472  0.1873 -1.1163
  843MOL0     H13744   7.803  11.532   5.871 -1.4286  0.8923  3.1789
  843MOL0     H13745   7.685  11.653   5.873 -0.6254 -1.1758 -2.0526
  843MOL0     H13746   7.991  11.689   5.847 -0.3190  3.4667 -1.5315
  843MOL0     H13747   7.880  11.833   5.838  2.5194  2.1003  1.7229
  843MOL0     H13748   7.804  11.786   6.053 -0.7819  1.7683 -3.6382
  843MOL0     H13749   7.932  11.670   6.078 -1.9016 -0.9813 -0.4204
  843MOL0     H13750   8.108  11.832   6.035  0.1635  0.4652  0.0675
  843MOL0     H13751   7.982  11.954   5.988 -2.2720 -1.2410  0.0702
  843MOL0     H13752   7.888  11.970   6.194 -0.2829 -0.2519  3.5380
  843MOL0     H13753   8.048  12.013   6.210 -3.3607  1.1900  0.1899
  843MOL0     H13754   7.962  11.873   6.388  0.9988 -3.0088  2.2782
  843MOL0     H13755   7.930  11.738   6.275  0.9947  0.9688 -5.2169
  843MOL0     H13756   8.240  11.921   6.442  3.2140 -0.9791 -1.2124
  843MOL0     H13757   8.419  11.775   6.576 -0.4885  1.7294 -0.3495
  843MOL0     H13758   8.493  11.651   6.477 -1.0587  0.4214 -0.9667
  843MOL0     H13759   8.544  11.817   6.300 -2.5077  0.1730 -0.2757
  843MOL0     H13760   8.496  11.951   6.402  1.5245  0.8215  1.9527
  843MOL0     H13761   8.717  11.770   6.487 -1.4567 -1.4467  0.1717
  843MOL0     H13762   8.641  11.914   6.572 -2.7545  1.4801 -1.2518
  843MOL0     H13763   8.722  12.049   6.392 -1.3483 -1.6078 -1.7727
  843MOL0     H13764   8.790  11.907   6.309  0.7942  1.8875 -0.8977
  843MOL0     H13765   9.133  11.917   6.584  0.7446  2.5705  0.6627
  843MOL0     H13766   9.345  11.942   6.474  0.5506 -0.6463 -1.8606
  843MOL0     H13767   9.564  12.034   5.920 -0.7043  0.6611  0.5161
  843MOL0     H13768   9.779  12.135   5.848  1.0509  0.5003 -0.1331
  843MOL0     H13769  10.041  12.439   5.901 -0.2398 -1.6116 -0.2858
  843MOL0     H13770  10.017  12.401   6.073 -0.8784  1.2206 -0.6004
  843MOL0     H13771  10.020  12.169   6.022  2.4033 -1.2552 -0.9210
  843MOL0     H13772  10.017  12.188   5.845 -2.5734 -2.9331  0.3589
  843MOL0     H13773  10.262  12.308   6.007  1.4937  0.9109 -1.7871
  843MOL0     H13774  10.252  12.150   5.959  1.0938 -0.8083 -0.0157
  843MOL0     H13775  10.216  12.392   5.779  1.2313  0.8285  3.3026
  843MOL0     H13776  10.203  12.214   5.727 -0.2055 -0.3901  0.4147
  843MOL0     H13777  10.446  12.199   5.809 -0.5323 -1.0499  0.1923
  843MOL0     H13778  10.445  12.374   5.856  0.1911  1.6862 -0.8273
  843MOL0     H13779  10.387  12.433   5.626 -2.6855 -1.0440  3.6627
  843MOL0     H13780  10.559  12.403   5.644 -0.3000  2.3023 -2.2291
  843MOL0     H13781  10.485  12.287   5.438  1.1577  2.7211  2.1164
  843MOL0     H13782  10.362  12.199   5.528 -2.0268  2.5427 -1.1139
  843MOL0     H13783  10.673  12.179   5.566 -0.1071  0.5590  1.6353
  843MOL0     H13784  10.553  12.099   5.665  0.4349 -2.5537 -0.2236
  843MOL0     H13785   9.695  12.443   6.146 -0.1477 -0.2669  0.7869
  843MOL0     H13786   9.488  12.318   6.212  0.1937 -1.2392  2.7942
  843MOL0     H13787   9.153  12.080   6.126 -2.6876 -0.2945 -0.8349
  843MOL0     H13788   8.927  12.064   6.233 -1.0039 -0.5420  2.3783
  843MOL0     H13789   7.621  11.209   5.827  1.5974 -2.6461 -1.2690
  843MOL0     H13790   7.384  11.081   5.831  1.7482  0.1623  1.3814
  843MOL0     H13791   6.843  11.210   5.675  1.5639 -0.1914  0.7305
  843MOL0     H13792   6.623  11.087   5.631  1.2455  1.8940  2.4659
  843MOL0     H13793   6.464  10.980   5.490  1.3554 -1.6560 -2.8184
  843MOL0     H13794   6.447  10.934   5.665 -2.1363  1.7810 -2.4107
  843MOL0     H13795   6.351  10.721   5.559 -2.6100 -0.4375 -0.4258
  843MOL0     H13796   6.345  10.811   5.406  1.3205  1.2805  0.0695
  843MOL0     H13797   6.186  10.967   5.529 -3.2371 -0.6437 -1.1373
  843MOL0     H13798   6.211  10.857   5.669  0.6794 -0.6564 -1.2531
  843MOL0     H13799   6.108  10.683   5.508 -0.7742 -0.9068  0.7070
  843MOL0     H13800   5.993  10.819   5.555 -1.4157  0.1090 -2.3613
  843MOL0     H13801   5.997  10.858   5.149 -1.1193  3.9130  0.9716
  843MOL0     H13802   6.817  10.738   5.544 -5.6454 -0.6928  1.0485
  843MOL0     H13803   7.157  10.855   5.528  1.1614  0.4530  2.2708
  843MOL0     H13804   7.110  10.808   5.697  0.4064  2.2230  0.0808
  843MOL0     H13805   7.056  10.717   5.556  0.6202 -0.3225  1.1836
  844MOL0     O13806   6.805  11.303   7.491  0.2327 -0.2874  0.7317
  844MOL0     C13807   6.725  11.400   7.488 -0.4399  0.0631  0.0071
  844MOL0     O13808   6.721  11.497   7.392 -0.0217  0.1157  0.2562
  844MOL0     C13809   6.819  11.501   7.293  0.5407  0.2415  0.7448
  844MOL0     C13810   6.774  11.539   7.166  0.0099  0.5719  0.7652
  844MOL0     C13811   6.860  11.548   7.062  0.1870  0.4789  0.4327
  844MOL0     C13812   6.993  11.519   7.080 -0.6758  0.0499  0.1242
  844MOL0     O13813   7.078  11.538   6.973  0.2118  0.0586  0.1184
  844MOL0     C13814   7.173  11.427   6.954  0.3327 -0.7565  0.7771
  844MOL0     C13815   7.248  11.435   6.823 -0.4594  1.1326  1.5051
  844MOL0     C13816   7.355  11.542   6.837 -1.4847 -0.4190  0.4193
  844MOL0     C13817   7.422  11.584   6.715 -0.8454  0.1425  0.0740
  844MOL0     C13818   7.451  11.736   6.710 -0.3004  0.6383  0.5322
  844MOL0     C13819   7.536  11.767   6.592 -0.7437  0.2197  0.5904
  844MOL0     C13820   7.568  11.921   6.581  0.4811  0.2278 -0.7529
  844MOL0     C13821   7.640  11.978   6.705  0.3214  0.0295 -0.6449
  844MOL0     N13822   7.778  11.935   6.728 -0.1413 -0.2790 -0.6872
  844MOL0     C13823   7.812  11.818   6.792 -0.9014 -0.9513  0.2956
  844MOL0     C13824   7.946  11.807   6.771 -0.2026 -0.5160  0.1509
  844MOL0     C13825   8.033  11.700   6.839  0.3635  0.3247  0.1055
  844MOL0     C13826   8.151  11.659   6.750  0.8037 -1.1914 -0.2844
  844MOL0     C13827   8.260  11.580   6.822 -0.4130 -0.0929 -0.2291
  844MOL0     C13828   8.359  11.676   6.898 -0.7225 -0.8552  0.4242
  844MOL0     O13829   8.478  11.598   6.919 -0.0692 -0.2525 -0.1021
  844MOL0     C13830   8.598  11.673   6.926 -0.0681 -0.7473 -0.3027
  844MOL0     C13831   8.606  11.760   7.032  0.0476 -0.2284 -0.0747
  844MOL0     C13832   8.719  11.840   7.039  0.5609  0.9041  0.4622
  844MOL0     C13833   8.837  11.822   6.964  0.0974 -0.1237 -0.9412
  844MOL0     C13834   8.960  11.901   6.996  0.3746  0.5591  0.0504
  844MOL0     O13835   9.046  11.918   6.897  0.0209 -0.1477  0.7267
  844MOL0     C13836   9.177  11.964   6.911 -0.4516 -0.1167 -0.5412
  844MOL0     C13837   9.224  12.052   6.811 -0.1695  0.0308 -0.5505
  844MOL0     C13838   9.347  12.116   6.835 -1.1354  0.3226  0.5095
  844MOL0     C13839   9.431  12.092   6.946 -0.0552  0.6603 -0.7163
  844MOL0     O13840   9.529  12.188   6.981  0.1765  0.0927  0.4598
  844MOL0     C13841   9.638  12.134   7.062 -0.0970  0.2329  0.2114
  844MOL0     C13842   9.745  12.236   7.115  0.4506  0.1182  0.3933
  844MOL0     C13843   9.760  12.240   7.271 -1.0485  0.3388 -0.6595
  844MOL0     C13844   9.857  12.348   7.321 -0.4861 -0.2661  0.0711
  844MOL0     C13845   9.862  12.357   7.479  1.2419 -0.5055 -0.2754
  844MOL0     C13846   9.892  12.497   7.530 -0.5599 -0.2097  0.1547
  844MOL0     C13847  10.047  12.534   7.517  0.6655  0.3889 -0.4223
  844MOL0     C13848  10.084  12.604   7.389 -0.0591 -0.0260 -0.3521
  844MOL0    Cl13849  10.032  12.776   7.377 -0.4082 -0.3428 -0.1325
  844MOL0     C13850   9.383  11.992   7.036 -0.1741  0.4828 -0.0161
  844MOL0     C13851   9.259  11.927   7.020 -0.6029  0.5751 -0.3252
  844MOL0     O13852   8.970  11.943   7.108  0.0396  0.0690  0.0549
  844MOL0     C13853   8.826  11.728   6.861  0.4160 -0.2277  0.0491
  844MOL0     C13854   8.710  11.655   6.838  0.5682 -0.9254 -0.2282
  844MOL0     N13855   7.986  11.916   6.690  0.8386 -0.1821 -0.3147
  844MOL0     N13856   7.883  11.980   6.651 -0.3791 -0.2639 -0.4710
  844MOL0     C13857   7.040  11.496   7.212 -0.5807  0.0275  0.0207
  844MOL0     C13858   6.955  11.484   7.325 -0.1585 -0.6640 -0.0681
  844MOL0     C13859   6.615  11.397   7.588  0.2115  0.7244  0.0731
  844MOL0     C13860   6.546  11.276   7.613 -0.4039  0.5920  0.4439
  844MOL0     C13861   6.426  11.269   7.691  0.5647 -0.0296  0.5057
  844MOL0     C13862   6.379  11.394   7.739 -0.2725  0.7052  0.3613
  844MOL0     O13863   6.249  11.410   7.782 -0.4199  0.3427 -0.4092
  844MOL0     C13864   6.199  11.308   7.880 -0.7427 -0.7276  0.8074
  844MOL0     C13865   6.072  11.248   7.827  0.1877 -0.6272  0.0175
  844MOL0     C13866   5.958  11.340   7.802 -0.1732  0.4587  0.7830
  844MOL0     C13867   5.834  11.262   7.748 -0.0485  0.1208  0.7291
  844MOL0     C13868   5.871  11.184   7.631 -0.5902  0.6163  0.3007
  844MOL0     C13869   5.916  11.126   7.537 -0.1522 -0.4674  0.5833
  844MOL0     C13870   6.464  11.502   7.739 -0.2505 -0.6788 -0.4488
  844MOL0     C13871   6.581  11.505   7.667  1.2965  0.0205 -0.2594
  844MOL0     C13872   6.651  11.631   7.659 -0.8511 -0.3234 -0.6669
  844MOL0     H13873   6.667  11.541   7.150  0.0496  0.4349  0.4778
  844MOL0     H13874   6.820  11.567   6.963  0.8864 -0.8293 -0.1380
  844MOL0     H13875   7.238  11.417   7.041  0.2805  0.0152  0.9105
  844MOL0     H13876   7.113  11.335   6.952  0.4221 -0.8082  0.3893
  844MOL0     H13877   7.180  11.460   6.741 -0.5292 -0.8389  0.8973
  844MOL0     H13878   7.293  11.339   6.793  1.3677  2.4246 -0.1433
  844MOL0     H13879   7.429  11.501   6.906 -1.2724 -1.0181 -0.1507
  844MOL0     H13880   7.315  11.633   6.882 -0.7350  0.2043 -0.1663
  844MOL0     H13881   7.517  11.529   6.711  0.1036  1.7581 -0.4405
  844MOL0     H13882   7.370  11.560   6.622  0.6606  1.0570 -1.0552
  844MOL0     H13883   7.355  11.787   6.708 -1.8991 -2.1777  0.4929
  844MOL0     H13884   7.496  11.766   6.806 -0.2453 -2.2410  1.4886
  844MOL0     H13885   7.628  11.707   6.588  0.9422  2.4726  2.4812
  844MOL0     H13886   7.471  11.740   6.508 -0.8041  0.2858  0.6165
  844MOL0     H13887   7.471  11.965   6.559 -1.3310 -3.0091  0.0853
  844MOL0     H13888   7.627  11.942   6.491  1.0050 -4.3530 -1.7296
  844MOL0     H13889   7.655  12.084   6.685  2.9229 -0.7578 -3.6429
  844MOL0     H13890   7.571  11.969   6.789 -0.5087 -0.9727 -1.4036
  844MOL0     H13891   7.757  11.748   6.855 -0.6715 -1.0845  0.3479
  844MOL0     H13892   8.070  11.753   6.927  0.5742 -0.8020  0.7234
  844MOL0     H13893   7.963  11.624   6.877 -1.3067  0.7991 -1.8230
  844MOL0     H13894   8.116  11.598   6.666  0.5172 -5.4384  2.6206
  844MOL0     H13895   8.195  11.750   6.708  1.6058 -0.6263  1.6650
  844MOL0     H13896   8.325  11.541   6.743  0.9074 -1.7036  1.5556
  844MOL0     H13897   8.233  11.502   6.894  0.1136  1.7387  2.0927
  844MOL0     H13898   8.309  11.716   6.987 -1.8582 -0.3494 -0.4187
  844MOL0     H13899   8.383  11.763   6.837  0.2594 -1.0807  0.4706
  844MOL0     H13900   8.526  11.764   7.104  0.6370  0.7679  0.5604
  844MOL0     H13901   8.714  11.917   7.116 -0.6828  1.3000  0.0225
  844MOL0     H13902   9.156  12.076   6.730  0.1758 -0.8424 -1.1155
  844MOL0     H13903   9.382  12.192   6.766  2.6039 -1.7845 -0.2372
  844MOL0     H13904   9.596  12.088   7.151 -1.2896 -0.1946 -0.5536
  844MOL0     H13905   9.696  12.065   7.002 -0.8096  1.0105 -1.4424
  844MOL0     H13906   9.846  12.213   7.079  0.9895  3.0244 -0.2742
  844MOL0     H13907   9.712  12.330   7.069  0.7270 -0.6064 -1.3535
  844MOL0     H13908   9.663  12.277   7.306  0.4450  7.2531 -2.3352
  844MOL0     H13909   9.774  12.140   7.313  1.3076  1.1605  0.6770
  844MOL0     H13910   9.825  12.442   7.276 -0.1907 -0.2666 -0.1471
  844MOL0     H13911   9.956  12.315   7.286 -0.3307 -1.2092  1.3312
  844MOL0     H13912   9.941  12.284   7.500  1.6269 -0.2552 -0.8365
  844MOL0     H13913   9.766  12.323   7.519  1.0543  2.4751  2.1889
  844MOL0     H13914   9.825  12.572   7.486  0.6099 -0.0195 -1.4111
  844MOL0     H13915   9.872  12.494   7.637 -2.0425 -4.5227 -0.0549
  844MOL0     H13916  10.105  12.442   7.529  0.2366  0.2839  1.0816
  844MOL0     H13917  10.070  12.608   7.595  1.9818  1.1205 -1.4715
  844MOL0     H13918  10.192  12.605   7.375 -0.0563 -1.6137 -0.6396
  844MOL0     H13919  10.050  12.540   7.306 -1.3150  0.3773 -0.1721
  844MOL0     H13920   9.436  11.954   7.123  2.6918 -0.4510 -2.0376
  844MOL0     H13921   9.220  11.858   7.095 -2.1591  1.9772  0.2187
  844MOL0     H13922   8.904  11.693   6.795  0.7505 -3.7454  2.0240
  844MOL0     H13923   8.708  11.578   6.762  1.0387 -0.5299 -0.6476
  844MOL0     H13924   7.148  11.492   7.223 -0.5786  1.1337  0.5242
  844MOL0     H13925   6.985  11.454   7.425  0.4330  0.7412  0.1967
  844MOL0     H13926   6.570  11.184   7.560  1.6962  0.4603  1.5083
  844MOL0     H13927   6.364  11.181   7.705 -0.0176  0.3380  0.2568
  844MOL0     H13928   6.193  11.360   7.976 -1.3988  1.2668 -0.2556
  844MOL0     H13929   6.277  11.231   7.877 -0.0839 -0.0723 -2.2699
  844MOL0     H13930   6.043  11.165   7.892  0.6155  0.5830  1.8212
  844MOL0     H13931   6.107  11.202   7.734 -1.7923  0.5846 -1.3904
  844MOL0     H13932   5.985  11.425   7.739  0.9611 -0.6958 -0.3429
  844MOL0     H13933   5.921  11.401   7.886  0.3440  0.6844  0.8533
  844MOL0     H13934   5.795  11.191   7.821  3.8614 -0.1254  2.8786
  844MOL0     H13935   5.760  11.337   7.717  0.0009  0.2193  0.8468
  844MOL0     H13936   5.981  11.078   7.466 -0.3508  1.2035 -0.7875
  844MOL0     H13937   6.430  11.577   7.809  0.2164 -0.9473  0.0733
  844MOL0     H13938   6.760  11.623   7.649 -0.6237  2.8161 -1.9736
  844MOL0     H13939   6.610  11.669   7.565 -2.0320 -1.3941 -0.6067
  844MOL0     H13940   6.635  11.711   7.731 -0.3934 -1.0693  0.2849
  845MOL0     O13941   2.748   3.228   1.311 -0.0775 -0.8363 -0.3539
  845MOL0     C13942   2.748   3.108   1.331 -0.8443  0.4930  0.8871
  845MOL0     O13943   2.855   3.034   1.316  0.5456  0.9091  0.1216
  845MOL0     C13944   2.978   3.070   1.268 -1.3284 -0.3868 -1.0303
  845MOL0     C13945   3.038   3.197   1.287 -0.3107 -0.3803 -0.0649
  845MOL0     C13946   3.172   3.217   1.251  0.0285  0.1419 -0.4715
  845MOL0     C13947   3.247   3.114   1.183 -0.3808  0.4326  0.4231
  845MOL0     O13948   3.377   3.124   1.128 -0.0747 -0.6193  0.6084
  845MOL0     C13949   3.477   3.172   1.219  0.7884  0.2288  0.3664
  845MOL0     C13950   3.572   3.069   1.277 -0.7034  1.0023 -0.2577
  845MOL0     C13951   3.653   3.000   1.164 -0.0202 -0.7228  0.3876
  845MOL0     C13952   3.765   3.099   1.116 -0.2873 -0.4138  0.8744
  845MOL0     C13953   3.899   3.037   1.078 -0.0978 -1.2201 -0.2348
  845MOL0     C13954   3.998   3.156   1.069 -0.1889  0.7926 -0.2112
  845MOL0     C13955   4.142   3.122   1.068  0.3322  0.1528  0.4993
  845MOL0     C13956   4.230   3.249   1.091  0.0990  0.8278  0.3001
  845MOL0     N13957   4.366   3.208   1.136 -0.1031  0.0824 -0.6417
  845MOL0     C13958   4.477   3.251   1.069  0.4692  0.6353 -0.5417
  845MOL0     C13959   4.582   3.205   1.150  1.0380 -0.4537  0.2145
  845MOL0     C13960   4.733   3.225   1.123  0.4183 -0.1100 -0.2305
  845MOL0     C13961   4.776   3.346   1.039  0.6049 -0.1682  1.2496
  845MOL0     C13962   4.924   3.365   1.046 -0.2059  0.0111  0.2165
  845MOL0     C13963   4.968   3.489   0.954  0.1066 -0.4631 -0.5662
  845MOL0     O13964   5.105   3.479   0.954 -0.3754  0.2208 -0.6609
  845MOL0     C13965   5.179   3.578   1.009  1.2821 -0.0890 -0.3881
  845MOL0     C13966   5.260   3.665   0.930  0.3381  0.5044 -0.2815
  845MOL0     C13967   5.347   3.749   0.989 -0.3555 -0.2650 -0.4037
  845MOL0     C13968   5.367   3.752   1.126  0.1332 -0.3657 -0.2509
  845MOL0     C13969   5.454   3.854   1.179 -0.6973 -0.1101  0.4683
  845MOL0     O13970   5.512   3.942   1.093 -0.2586  0.7064 -0.3226
  845MOL0     C13971   5.641   3.995   1.102 -0.3861  0.5801  0.7085
  845MOL0     C13972   5.684   4.070   0.993 -0.6124  0.3556  0.6733
  845MOL0     C13973   5.813   4.134   0.996  0.2324  0.9341 -0.4800
  845MOL0     C13974   5.879   4.147   1.124  0.2441 -0.1349 -0.0149
  845MOL0     O13975   5.986   4.226   1.144 -0.0676 -0.1678  0.2661
  845MOL0     C13976   6.097   4.211   1.051  0.5029 -0.4093 -0.6185
  845MOL0     C13977   6.212   4.269   1.127  0.1605  0.0248 -1.1170
  845MOL0     C13978   6.341   4.251   1.052  0.2113 -0.3153 -0.7187
  845MOL0     C13979   6.408   4.115   1.087  0.0731 -0.3650  0.3165
  845MOL0     C13980   6.519   4.142   1.188 -0.0521  0.3128  0.5270
  845MOL0     C13981   6.606   4.017   1.187  0.3042  0.1843 -0.4593
  845MOL0     C13982   6.663   3.993   1.338  0.2502  0.3638  0.8988
  845MOL0     C13983   6.796   3.924   1.357 -0.4716 -0.1792  0.1361
  845MOL0    Cl13984   6.926   4.038   1.296  0.5211  0.5855 -0.3365
  845MOL0     C13985   5.841   4.059   1.224 -0.7801  0.1304  0.6255
  845MOL0     C13986   5.722   3.984   1.217 -1.1203 -0.2078 -0.0041
  845MOL0     O13987   5.459   3.861   1.302 -0.5360  0.0957 -0.3833
  845MOL0     C13988   5.269   3.678   1.210  0.5206  0.4874  1.4929
  845MOL0     C13989   5.181   3.595   1.147  0.3658 -0.9147 -0.5865
  845MOL0     N13990   4.526   3.143   1.263  0.3540  0.5224 -0.3043
  845MOL0     N13991   4.398   3.146   1.251  0.4232  1.1211  0.3147
  845MOL0     C13992   3.180   2.990   1.170  0.3288  0.0123  0.3412
  845MOL0     C13993   3.050   2.966   1.220 -0.7872  0.9544  0.8222
  845MOL0     C13994   2.627   3.043   1.388 -0.2779 -0.2420  0.0560
  845MOL0     C13995   2.534   3.117   1.448  0.4248 -0.2930 -0.4285
  845MOL0     C13996   2.427   3.070   1.509 -0.0087  1.0286 -0.4574
  845MOL0     C13997   2.391   2.937   1.486 -0.5520  0.7780  0.3443
  845MOL0     O13998   2.266   2.908   1.516 -0.0308  0.5094 -0.4219
  845MOL0     C13999   2.211   2.779   1.487  0.1758  0.6808 -0.1434
  845MOL0     C14000   2.080   2.742   1.555 -1.3680 -0.1608  0.5159
  845MOL0     C14001   1.973   2.840   1.506  0.0100 -0.2250  0.5262
  845MOL0     C14002   1.837   2.780   1.494 -0.3672 -0.6938  0.9640
  845MOL0     C14003   1.733   2.881   1.473  0.4191 -0.1625  0.4894
  845MOL0     C14004   1.636   2.955   1.478 -1.4277  0.2407  0.1650
  845MOL0     C14005   2.477   2.849   1.423 -0.1834  0.2069 -0.0711
  845MOL0     C14006   2.600   2.900   1.378 -0.1886  0.0598 -0.1944
  845MOL0     C14007   2.692   2.799   1.320 -0.1798 -0.2715  0.3411
  845MOL0     H14008   2.984   3.280   1.331 -1.6881  0.2969 -2.8051
  845MOL0     H14009   3.224   3.312   1.252 -0.4556  0.4285 -1.3697
  845MOL0     H14010   3.535   3.243   1.159  0.2626  0.8358  0.5647
  845MOL0     H14011   3.436   3.231   1.302 -2.1048  1.4129 -1.7482
  845MOL0     H14012   3.517   2.989   1.326  1.2693  0.3532  1.0032
  845MOL0     H14013   3.630   3.124   1.351 -3.9153  0.8599  2.5757
  845MOL0     H14014   3.581   2.980   1.085 -1.1615  2.6229  0.4271
  845MOL0     H14015   3.699   2.910   1.206  0.4580 -0.1717  1.0678
  845MOL0     H14016   3.730   3.152   1.026 -1.4933 -0.6657  1.1747
  845MOL0     H14017   3.774   3.182   1.187 -2.5210  1.3535 -0.7549
  845MOL0     H14018   3.919   2.964   1.157 -3.1724 -1.4090  0.5019
  845MOL0     H14019   3.894   2.980   0.984 -0.6194 -1.4857 -0.0517
  845MOL0     H14020   3.969   3.199   0.973  0.9803 -0.6393 -1.2586
  845MOL0     H14021   3.987   3.224   1.154  0.7703 -0.2421  0.7815
  845MOL0     H14022   4.167   3.074   0.973 -2.0564 -0.0772 -0.0932
  845MOL0     H14023   4.163   3.054   1.152 -0.9732 -1.6458 -0.5575
  845MOL0     H14024   4.237   3.301   0.995 -2.6313 -1.8290 -1.5676
  845MOL0     H14025   4.174   3.310   1.162 -0.1114 -2.3834  3.1713
  845MOL0     H14026   4.477   3.305   0.975  0.1444  1.8594  0.1343
  845MOL0     H14027   4.786   3.227   1.218  0.7991 -3.5637 -0.2312
  845MOL0     H14028   4.776   3.138   1.072  2.2850 -0.5724  1.9984
  845MOL0     H14029   4.746   3.353   0.934  1.8662  0.1274  0.8862
  845MOL0     H14030   4.737   3.440   1.079  4.3898  0.6534  3.5321
  845MOL0     H14031   4.984   3.276   1.027  0.3053  0.8295 -2.2892
  845MOL0     H14032   4.944   3.385   1.152  3.3289 -0.9166 -0.1553
  845MOL0     H14033   4.923   3.579   0.998  0.1490  0.3328 -2.0888
  845MOL0     H14034   4.936   3.488   0.850 -1.4401 -1.7639 -0.1078
  845MOL0     H14035   5.244   3.662   0.823  1.1240 -2.0498 -0.3947
  845MOL0     H14036   5.396   3.816   0.920  2.0405 -0.3057  1.1313
  845MOL0     H14037   5.632   4.078   0.898  1.9060  1.7463 -0.6758
  845MOL0     H14038   5.846   4.198   0.916  1.3505  1.3090  0.2646
  845MOL0     H14039   6.114   4.105   1.029 -1.7214 -0.4024 -2.9195
  845MOL0     H14040   6.074   4.275   0.965  1.9563  0.6712 -0.2288
  845MOL0     H14041   6.199   4.376   1.144 -2.4830 -0.5918  1.6247
  845MOL0     H14042   6.222   4.233   1.230 -0.1213  3.7757  0.3775
  845MOL0     H14043   6.321   4.253   0.944  2.6964  2.5160 -1.2444
  845MOL0     H14044   6.410   4.334   1.068  2.3336 -2.2817  1.1953
  845MOL0     H14045   6.460   4.069   1.003  1.6476  2.5612 -0.4264
  845MOL0     H14046   6.332   4.043   1.121 -0.8983  0.1522 -0.7005
  845MOL0     H14047   6.481   4.156   1.290 -0.3242 -0.0861  0.4843
  845MOL0     H14048   6.579   4.231   1.165 -0.0618 -0.0379 -0.9884
  845MOL0     H14049   6.551   3.927   1.158 -1.8000  0.2224  2.8382
  845MOL0     H14050   6.679   4.031   1.107 -0.2152 -0.9780 -1.1631
  845MOL0     H14051   6.583   3.935   1.385 -0.3942  1.4005  1.1253
  845MOL0     H14052   6.679   4.091   1.385  1.3615  2.3715 -3.1885
  845MOL0     H14053   6.822   3.896   1.459  2.9922  1.0263 -0.2910
  845MOL0     H14054   6.804   3.824   1.313  0.4699  0.5549 -1.4235
  845MOL0     H14055   5.904   4.058   1.312  0.7644  0.2339 -0.4396
  845MOL0     H14056   5.677   3.942   1.307 -1.8349 -0.2440 -0.3742
  845MOL0     H14057   5.277   3.695   1.317  3.0925 -0.7968  1.5830
  845MOL0     H14058   5.111   3.540   1.209  1.0746 -0.4706  0.6396
  845MOL0     H14059   3.218   2.907   1.111  0.8547  0.3520  0.1899
  845MOL0     H14060   3.003   2.872   1.192 -2.5685  0.5880  4.4075
  845MOL0     H14061   2.524   3.225   1.450 -0.9163 -0.2678 -3.0771
  845MOL0     H14062   2.351   3.122   1.566 -1.3454  0.8825 -2.0406
  845MOL0     H14063   2.273   2.701   1.532  3.2410  2.1236 -1.5966
  845MOL0     H14064   2.198   2.767   1.379  3.1832 -0.6794 -0.4426
  845MOL0     H14065   2.093   2.746   1.664  1.1162  0.3626  0.2606
  845MOL0     H14066   2.050   2.640   1.527  0.7985 -1.2338  1.8462
  845MOL0     H14067   2.006   2.869   1.406 -0.1192  1.9723  1.0530
  845MOL0     H14068   1.978   2.928   1.571  0.3355 -2.7836  4.2903
  845MOL0     H14069   1.834   2.717   1.404 -0.0770  3.9704 -2.7303
  845MOL0     H14070   1.818   2.722   1.585  0.2061 -1.8281  0.3908
  845MOL0     H14071   1.549   3.016   1.464 -1.5629 -0.1743 -0.9608
  845MOL0     H14072   2.446   2.746   1.406  1.7306 -0.0314 -2.9111
  845MOL0     H14073   2.767   2.764   1.392 -1.7023 -3.5901  0.4930
  845MOL0     H14074   2.637   2.706   1.300 -1.2786  0.2851  0.7344
  845MOL0     H14075   2.741   2.849   1.236 -0.8057  0.3117  0.3114
  846MOL0     O14076  10.855   5.822   5.771 -0.1587 -0.7739  0.0436
  846MOL0     C14077  10.754   5.797   5.839  0.0340 -0.0354 -0.3902
  846MOL0     O14078  10.742   5.738   5.964  0.0659 -0.0006  0.1828
  846MOL0     C14079  10.851   5.677   6.016  0.6793  0.2290  0.2754
  846MOL0     C14080  10.951   5.608   5.942  0.3361 -0.7008 -0.1308
  846MOL0     C14081  11.057   5.546   6.007 -0.6051 -0.2457  0.5807
  846MOL0     C14082  11.071   5.559   6.147 -0.1961  0.6198  0.3146
  846MOL0     O14083  11.175   5.504   6.217  0.7550 -0.4649 -0.4911
  846MOL0     C14084  11.237   5.383   6.182 -0.4641 -0.7972 -0.6041
  846MOL0     C14085  11.318   5.330   6.297 -0.9710 -0.4204  0.3317
  846MOL0     C14086  11.450   5.408   6.341  0.1567 -1.1964  0.1677
  846MOL0     C14087  11.540   5.346   6.447  0.3760  0.3319 -0.3666
  846MOL0     C14088  11.639   5.449   6.505 -0.4443 -0.4438 -0.2599
  846MOL0     C14089  11.718   5.386   6.620  0.3241 -0.0333 -0.5601
  846MOL0     C14090  11.801   5.273   6.577 -0.0459  0.5800 -0.1187
  846MOL0     C14091  11.890   5.321   6.456 -0.5038  0.6899 -0.5769
  846MOL0     N14092  12.009   5.406   6.469 -0.4881 -0.0501  0.3359
  846MOL0     C14093  12.021   5.543   6.444  0.5796 -0.4478  0.4191
  846MOL0     C14094  12.149   5.573   6.460 -0.4538 -0.1264  0.7040
  846MOL0     C14095  12.207   5.706   6.440 -0.9190 -0.2110  0.4760
  846MOL0     C14096  12.361   5.719   6.484  0.1778 -0.4448  1.0055
  846MOL0     C14097  12.435   5.843   6.422  0.3414 -0.2230  0.3128
  846MOL0     C14098  12.573   5.865   6.476 -1.1897  0.1644  0.1929
  846MOL0     O14099  12.652   5.766   6.399 -0.0943 -0.1181  0.0502
  846MOL0     C14100  12.784   5.772   6.389 -0.0568  0.1824  0.3537
  846MOL0     C14101  12.853   5.850   6.480 -0.4890 -0.1994 -0.3284
  846MOL0     C14102  13.002   5.860   6.467 -0.0181 -0.3885 -0.2576
  846MOL0     C14103  13.070   5.795   6.361 -0.4106  0.2930 -0.1615
  846MOL0     C14104  13.220   5.797   6.348  0.7012  0.5780 -0.3088
  846MOL0     O14105  13.295   5.888   6.419  0.6663  0.6263 -0.0892
  846MOL0     C14106  13.427   5.901   6.396 -0.6990 -0.0849 -0.0904
  846MOL0     C14107  13.490   5.934   6.508  0.0553 -0.8157  0.4161
  846MOL0     C14108  13.626   5.953   6.510 -0.5758 -0.0837 -0.0584
  846MOL0     C14109  13.696   5.943   6.388 -0.8465 -0.8367  0.2418
  846MOL0     O14110  13.820   5.996   6.366  0.3850  0.1052 -0.5103
  846MOL0     C14111  13.922   5.918   6.417 -1.2403 -0.8622  0.0459
  846MOL0     C14112  14.009   5.848   6.309 -0.1697  0.7670  0.6552
  846MOL0     C14113  14.104   5.960   6.242 -0.4090  1.0132  0.5202
  846MOL0     C14114  14.162   5.870   6.132 -0.6638 -0.2132  0.0329
  846MOL0     C14115  14.298   5.931   6.079  0.1525  0.2490 -0.1748
  846MOL0     C14116  14.298   6.057   5.990  0.5533 -0.6386  0.5511
  846MOL0     C14117  14.291   6.181   6.072  0.0965  0.3353  0.2267
  846MOL0     C14118  14.420   6.202   6.155  0.2792 -0.2317  0.5489
  846MOL0    Cl14119  14.575   6.186   6.055 -0.1078  0.1018  0.5140
  846MOL0     C14120  13.619   5.917   6.266 -0.4450 -1.0227  0.4816
  846MOL0     C14121  13.485   5.892   6.270 -0.4425  0.7038 -0.7411
  846MOL0     O14122  13.269   5.696   6.287 -0.0723 -0.2136  0.4795
  846MOL0     C14123  12.991   5.718   6.272  0.1395  0.4385 -0.6558
  846MOL0     C14124  12.850   5.705   6.290 -0.0657 -0.2605 -0.0956
  846MOL0     N14125  12.216   5.454   6.491 -0.0903  0.8358  0.1604
  846MOL0     N14126  12.134   5.358   6.486 -0.4009  0.0943  0.2117
  846MOL0     C14127  10.972   5.624   6.218 -0.1072 -0.0149  0.0194
  846MOL0     C14128  10.860   5.683   6.152  0.6863 -0.2078 -0.0727
  846MOL0     C14129  10.627   5.822   5.759 -0.4495  0.5606 -0.5143
  846MOL0     C14130  10.504   5.766   5.808  0.4208 -0.1290  0.7937
  846MOL0     C14131  10.391   5.787   5.720 -0.5252  0.2307 -0.1045
  846MOL0     C14132  10.391   5.858   5.600  0.0101  0.3500  0.0411
  846MOL0     O14133  10.276   5.874   5.520  0.2233 -0.5241  0.2082
  846MOL0     C14134  10.297   5.874   5.378 -0.0624 -0.1018  0.1377
  846MOL0     C14135  10.163   5.861   5.309  0.1734  0.1526  1.2237
  846MOL0     C14136  10.167   5.881   5.153  1.0071  0.4562 -0.1973
  846MOL0     C14137  10.022   5.845   5.112 -0.2579  0.9750 -1.0679
  846MOL0     C14138   9.917   5.945   5.156  0.1044 -0.3359  0.8214
  846MOL0     C14139   9.815   6.003   5.188  1.0723  0.3889  0.1661
  846MOL0     C14140  10.511   5.918   5.558 -0.5152 -0.7131 -0.6814
  846MOL0     C14141  10.622   5.911   5.646 -0.4117  0.8028 -0.1446
  846MOL0     C14142  10.731   6.015   5.604  0.1425  0.3637 -0.0026
  846MOL0     H14143  10.962   5.603   5.834  0.5578  0.5085 -0.1734
  846MOL0     H14144  11.136   5.489   5.959  0.0293 -2.1229  3.5381
  846MOL0     H14145  11.173   5.301   6.151  1.0258 -1.5158 -1.9345
  846MOL0     H14146  11.315   5.400   6.107  3.4978 -2.4975  2.7044
  846MOL0     H14147  11.339   5.226   6.274 -2.0476  0.1396 -4.0347
  846MOL0     H14148  11.248   5.324   6.381 -0.7358  0.5165  0.6188
  846MOL0     H14149  11.425   5.508   6.377  0.4865 -1.4994  1.2529
  846MOL0     H14150  11.502   5.423   6.246 -3.8823  2.6590 -1.7803
  846MOL0     H14151  11.480   5.286   6.516  2.5807 -0.1597  1.2335
  846MOL0     H14152  11.608   5.275   6.399  0.1213 -0.1989  0.0505
  846MOL0     H14153  11.700   5.496   6.427  0.1899 -1.7606 -0.5981
  846MOL0     H14154  11.587   5.532   6.554  2.1265  1.1319  0.0003
  846MOL0     H14155  11.784   5.463   6.662  0.7762 -0.9458  0.4303
  846MOL0     H14156  11.644   5.356   6.695 -0.5371  1.4398 -0.7776
  846MOL0     H14157  11.742   5.184   6.553 -0.3938  0.2635  1.7560
  846MOL0     H14158  11.874   5.247   6.654 -0.2889 -1.2954 -0.4795
  846MOL0     H14159  11.930   5.222   6.433 -0.1409 -0.0864  2.9067
  846MOL0     H14160  11.835   5.344   6.364 -0.2142 -1.3786 -1.3258
  846MOL0     H14161  11.943   5.616   6.422  1.0617  0.5446  1.8742
  846MOL0     H14162  12.207   5.735   6.334  1.4778 -2.7297 -0.3239
  846MOL0     H14163  12.145   5.782   6.487 -0.3173  0.6251 -0.0512
  846MOL0     H14164  12.355   5.738   6.591 -2.0482 -1.9076  1.2013
  846MOL0     H14165  12.398   5.619   6.460 -2.0667 -1.2694  0.7158
  846MOL0     H14166  12.383   5.933   6.456  1.2164  0.5323 -0.2981
  846MOL0     H14167  12.454   5.835   6.314  1.1688 -2.9600  0.5873
  846MOL0     H14168  12.583   5.851   6.584 -1.0758  3.0864  0.6566
  846MOL0     H14169  12.603   5.969   6.462  2.0052 -0.6466  0.3218
  846MOL0     H14170  12.802   5.900   6.562 -0.9129 -2.7790  1.0811
  846MOL0     H14171  13.058   5.916   6.540 -1.1684 -0.8512  1.0302
  846MOL0     H14172  13.430   5.943   6.598  0.5381 -0.4712  0.7073
  846MOL0     H14173  13.667   5.988   6.604 -0.6010  0.8011 -0.3680
  846MOL0     H14174  13.984   5.986   6.476  0.3960 -0.3235 -2.1331
  846MOL0     H14175  13.881   5.844   6.486  2.0206 -2.8204  0.1520
  846MOL0     H14176  14.068   5.775   6.365 -0.9729  1.2353  2.1616
  846MOL0     H14177  13.950   5.785   6.242 -0.3671 -1.5165  2.8433
  846MOL0     H14178  14.038   6.034   6.195  1.4468  2.0919 -0.5523
  846MOL0     H14179  14.175   6.006   6.311 -0.1874  1.4802 -0.0033
  846MOL0     H14180  14.090   5.870   6.050  0.7673  1.5463 -1.3339
  846MOL0     H14181  14.181   5.771   6.172 -0.3642  0.6981  2.2727
  846MOL0     H14182  14.346   5.853   6.019  1.8438  0.3780  0.9365
  846MOL0     H14183  14.365   5.924   6.165  0.8395 -2.9009 -0.8394
  846MOL0     H14184  14.385   6.061   5.923 -1.8687  2.0169 -2.7742
  846MOL0     H14185  14.205   6.054   5.933  1.7312 -1.3674 -1.4463
  846MOL0     H14186  14.212   6.177   6.148  1.0591  0.3815  1.2549
  846MOL0     H14187  14.282   6.268   6.006  0.9634  0.7612  0.6561
  846MOL0     H14188  14.423   6.301   6.202  0.0450 -0.2246  0.5471
  846MOL0     H14189  14.418   6.127   6.234 -1.4798 -0.8992 -0.0954
  846MOL0     H14190  13.675   5.925   6.174  1.8335  1.0875  1.9353
  846MOL0     H14191  13.428   5.882   6.178 -1.1845  0.8653 -0.3066
  846MOL0     H14192  13.038   5.671   6.185 -0.0418 -0.3759 -0.3220
  846MOL0     H14193  12.786   5.658   6.216 -0.8699 -0.5158  0.7343
  846MOL0     H14194  10.984   5.631   6.326 -0.9794  0.5499  0.0924
  846MOL0     H14195  10.786   5.726   6.218 -0.8150 -0.0870 -1.7668
  846MOL0     H14196  10.516   5.699   5.893  2.1458 -1.0503 -0.1292
  846MOL0     H14197  10.298   5.742   5.755  0.1643 -1.5894 -0.4744
  846MOL0     H14198  10.367   5.797   5.345 -2.2367 -1.8296 -0.7623
  846MOL0     H14199  10.324   5.976   5.349 -1.5864  0.2226 -0.2610
  846MOL0     H14200  10.096   5.938   5.349 -2.2120 -0.4748 -1.2288
  846MOL0     H14201  10.123   5.761   5.330  0.6578 -0.0315  1.2689
  846MOL0     H14202  10.233   5.815   5.096 -1.8821  0.4520 -3.9374
  846MOL0     H14203  10.184   5.985   5.126  0.1591  1.4276  2.6148
  846MOL0     H14204  10.019   5.843   5.003  2.7790  2.8342 -1.3049
  846MOL0     H14205  10.000   5.746   5.154  0.9978  1.5025  0.9870
  846MOL0     H14206   9.724   6.048   5.223  0.4166 -1.9229  1.6104
  846MOL0     H14207  10.519   5.984   5.473 -1.9659  1.5610  0.8371
  846MOL0     H14208  10.742   6.097   5.675  1.7752 -0.7849  1.1635
  846MOL0     H14209  10.832   5.975   5.593  1.2646  2.0799  2.9337
  846MOL0     H14210  10.722   6.050   5.501 -0.5653 -1.3844 -0.5821
  847MOL0     O14211   0.334   6.076   9.517 -0.1570  0.4078  0.2731
  847MOL0     C14212   0.253   5.990   9.547 -0.6745  1.2634  0.2674
  847MOL0     O14213   0.282   5.853   9.575  0.1165 -0.1058  0.0279
  847MOL0     C14214   0.406   5.789   9.543 -0.2475 -0.4492  0.3756
  847MOL0     C14215   0.496   5.838   9.443 -0.0470  0.0416  0.1633
  847MOL0     C14216   0.632   5.793   9.438 -0.4155  0.3952  0.6965
  847MOL0     C14217   0.678   5.700   9.523 -0.5614  0.4527  0.4538
  847MOL0     O14218   0.818   5.663   9.531  0.4211 -0.4777 -0.3902
  847MOL0     C14219   0.912   5.722   9.433  0.2502  0.7283 -0.1098
  847MOL0     C14220   1.058   5.681   9.464  0.5661 -0.3768 -1.1043
  847MOL0     C14221   1.165   5.721   9.353 -0.7644 -0.6623  0.1815
  847MOL0     C14222   1.138   5.680   9.208 -0.3454  0.1457  0.1097
  847MOL0     C14223   1.208   5.554   9.181  0.1488 -0.4085 -0.2502
  847MOL0     C14224   1.358   5.567   9.143  0.2731  0.1721  0.0164
  847MOL0     C14225   1.425   5.438   9.107 -0.6864 -1.0812  0.3574
  847MOL0     C14226   1.572   5.471   9.060 -0.4804  0.2014  0.4040
  847MOL0     N14227   1.631   5.351   8.995 -0.7128  0.3984  0.5028
  847MOL0     C14228   1.612   5.226   9.026  0.2319  0.9708 -0.1956
  847MOL0     C14229   1.693   5.150   8.947 -0.0084 -0.0638  0.0820
  847MOL0     C14230   1.710   5.006   8.924  0.1973 -0.4251  0.1418
  847MOL0     C14231   1.833   4.954   8.986 -0.3164 -0.1179 -0.9006
  847MOL0     C14232   1.895   4.824   8.924  0.4831  0.1863 -0.9277
  847MOL0     C14233   2.011   4.764   9.013  0.1583 -0.1825 -0.8450
  847MOL0     O14234   2.008   4.625   8.974 -0.5821  0.2493  0.4254
  847MOL0     C14235   2.104   4.546   9.036 -0.0910 -0.2116  1.0507
  847MOL0     C14236   2.171   4.575   9.153 -0.7860 -0.1368  0.0023
  847MOL0     C14237   2.256   4.491   9.218 -0.3213  0.2291  0.8503
  847MOL0     C14238   2.280   4.365   9.163 -0.2619 -2.0029 -0.1758
  847MOL0     C14239   2.370   4.275   9.229 -0.8078  0.7471 -0.7439
  847MOL0     O14240   2.417   4.317   9.360  1.2023 -0.1512  0.0609
  847MOL0     C14241   2.505   4.241   9.430 -0.2133  0.4054 -0.4522
  847MOL0     C14242   2.499   4.100   9.453  1.4252 -0.4335  1.3837
  847MOL0     C14243   2.602   4.037   9.529 -0.8993 -0.0220 -0.0999
  847MOL0     C14244   2.703   4.115   9.594 -0.0895  0.0791  0.3909
  847MOL0     O14245   2.804   4.057   9.660 -0.7394 -0.0372  0.2564
  847MOL0     C14246   2.928   4.129   9.676  0.1998 -1.2734 -0.0497
  847MOL0     C14247   3.047   4.032   9.707 -0.4435 -0.1395  0.8567
  847MOL0     C14248   3.103   3.960   9.575  0.3277  0.5882 -0.2157
  847MOL0     C14249   3.212   3.853   9.604 -0.2106  0.1930 -0.2208
  847MOL0     C14250   3.254   3.774   9.476  0.9270 -0.4292 -0.3250
  847MOL0     C14251   3.374   3.686   9.493  0.2548  0.3481 -0.1612
  847MOL0     C14252   3.425   3.631   9.359  0.7127 -0.2888  0.4949
  847MOL0     C14253   3.554   3.563   9.391 -0.6916  0.5979 -0.4844
  847MOL0    Cl14254   3.618   3.480   9.240 -0.5337  0.2345  0.0043
  847MOL0     C14255   2.702   4.257   9.571  0.3862  0.4428  0.5937
  847MOL0     C14256   2.610   4.319   9.487  0.3690  0.3869 -0.1846
  847MOL0     O14257   2.388   4.160   9.185 -0.0914 -0.3201 -0.1223
  847MOL0     C14258   2.223   4.330   9.037 -0.0775 -0.3217 -0.5435
  847MOL0     C14259   2.134   4.418   8.981  0.9033  0.2506  0.1401
  847MOL0     N14260   1.757   5.237   8.858  0.7024  0.0608  0.5075
  847MOL0     N14261   1.724   5.356   8.896 -0.5226  0.3032 -0.8731
  847MOL0     C14262   0.582   5.646   9.612 -0.3423 -0.5469 -0.1479
  847MOL0     C14263   0.454   5.681   9.621 -0.2361 -0.1706 -1.0177
  847MOL0     C14264   0.126   6.049   9.583  0.1843  0.6618 -0.1944
  847MOL0     C14265   0.076   6.030   9.720  1.1742 -0.9349 -0.2205
  847MOL0     C14266  -0.054   6.080   9.746  0.4750  0.0220  0.0250
  847MOL0     C14267  -0.135   6.139   9.651 -0.1341 -0.2739 -0.2376
  847MOL0     O14268  -0.261   6.170   9.692 -0.6063  0.0651 -0.1805
  847MOL0     C14269  -0.359   6.237   9.611 -0.1139  0.6400  0.2656
  847MOL0     C14270  -0.410   6.365   9.682  0.5160 -0.0093 -0.0149
  847MOL0     C14271  -0.296   6.475   9.685  0.5575  0.1293  0.0018
  847MOL0     C14272  -0.345   6.602   9.757 -0.0108 -1.0755 -0.3510
  847MOL0     C14273  -0.461   6.677   9.692 -0.2655 -0.1601 -0.4069
  847MOL0     C14274  -0.558   6.745   9.653  0.2516  1.3274 -0.2348
  847MOL0     C14275  -0.093   6.142   9.517  0.0055 -0.2767 -0.4457
  847MOL0     C14276   0.036   6.094   9.482  0.3103  0.5659 -0.1861
  847MOL0     C14277   0.069   6.096   9.330 -1.0844 -0.4786 -1.1639
  847MOL0     H14278   0.453   5.906   9.371 -1.5439 -1.5446 -0.5046
  847MOL0     H14279   0.697   5.840   9.365 -0.3478 -0.6067  0.0945
  847MOL0     H14280   0.879   5.678   9.338 -1.3990  1.0267  0.2836
  847MOL0     H14281   0.907   5.831   9.432 -1.0539  0.6962  0.2877
  847MOL0     H14282   1.060   5.574   9.489 -0.3208 -0.5322 -1.6235
  847MOL0     H14283   1.085   5.725   9.560  1.6210 -3.5229  0.1649
  847MOL0     H14284   1.258   5.670   9.380  0.7718  1.3656 -0.9258
  847MOL0     H14285   1.186   5.829   9.353  1.1677 -0.9847 -1.0097
  847MOL0     H14286   1.033   5.670   9.180 -0.2961 -2.5729  0.6127
  847MOL0     H14287   1.169   5.758   9.138  1.1299  0.3687  0.9757
  847MOL0     H14288   1.194   5.503   9.277 -2.6368  1.9616  0.7583
  847MOL0     H14289   1.155   5.502   9.101 -0.6858  2.1622 -1.4856
  847MOL0     H14290   1.350   5.637   9.059  0.5351 -1.3423 -1.3136
  847MOL0     H14291   1.413   5.606   9.229  0.3404 -1.1417  0.5980
  847MOL0     H14292   1.370   5.396   9.022 -2.5792 -1.5878  1.7831
  847MOL0     H14293   1.433   5.366   9.188  0.1633  0.0805  1.3509
  847MOL0     H14294   1.564   5.558   8.993 -2.2583 -0.9171 -0.9205
  847MOL0     H14295   1.630   5.498   9.148  1.4856  0.9359 -1.0420
  847MOL0     H14296   1.539   5.173   9.086 -0.2313 -1.0366 -2.3803
  847MOL0     H14297   1.633   4.948   8.977  0.0516 -0.2913  0.0781
  847MOL0     H14298   1.706   4.993   8.815 -2.2199  0.4260  0.0646
  847MOL0     H14299   1.911   5.030   8.975 -0.7084  0.6597  1.2941
  847MOL0     H14300   1.814   4.944   9.093 -1.1963  0.9843 -0.9397
  847MOL0     H14301   1.945   4.843   8.829  2.5959 -0.4136  0.0128
  847MOL0     H14302   1.823   4.744   8.905  0.0164  0.3556  0.0247
  847MOL0     H14303   1.979   4.774   9.117  1.4151  2.0657 -0.6226
  847MOL0     H14304   2.113   4.803   9.002  0.4305  0.2734  2.3283
  847MOL0     H14305   2.154   4.667   9.209  1.1313  2.2189 -2.9179
  847MOL0     H14306   2.302   4.526   9.310  1.1849 -0.0259  0.2223
  847MOL0     H14307   2.414   4.039   9.425 -0.5003  3.2792 -1.9214
  847MOL0     H14308   2.623   3.932   9.547  2.0549  0.8889  2.7483
  847MOL0     H14309   2.961   4.180   9.585  0.4807  1.7062  1.5861
  847MOL0     H14310   2.908   4.206   9.752 -1.1156 -1.7005  0.0650
  847MOL0     H14311   3.129   4.086   9.756 -0.6530 -0.1671  1.2334
  847MOL0     H14312   2.998   3.969   9.781 -1.6739  0.9974  1.0525
  847MOL0     H14313   3.022   3.897   9.538  0.5437 -0.8919  1.6735
  847MOL0     H14314   3.115   4.032   9.494 -4.7445  0.5280 -1.3544
  847MOL0     H14315   3.193   3.776   9.680  0.6117 -1.0304 -1.2055
  847MOL0     H14316   3.300   3.904   9.643  0.1858 -0.4614 -0.2334
  847MOL0     H14317   3.280   3.856   9.408 -1.3458  1.8532  1.3681
  847MOL0     H14318   3.168   3.716   9.444  0.5348 -0.8403  1.3965
  847MOL0     H14319   3.449   3.751   9.540 -2.0728  1.4286  2.3162
  847MOL0     H14320   3.349   3.602   9.559  0.4616  0.0708 -0.4310
  847MOL0     H14321   3.446   3.712   9.289  0.2857  1.6365  2.4725
  847MOL0     H14322   3.363   3.553   9.315  0.9078  0.5126 -1.2896
  847MOL0     H14323   3.628   3.639   9.417  1.5984 -2.1064  1.4257
  847MOL0     H14324   3.544   3.491   9.473  1.5161  0.3944 -0.3571
  847MOL0     H14325   2.779   4.328   9.596  0.6928  2.4211 -4.7360
  847MOL0     H14326   2.600   4.426   9.475  1.8592  0.4080 -1.6271
  847MOL0     H14327   2.246   4.232   8.997 -1.6014 -1.3235  0.9521
  847MOL0     H14328   2.094   4.386   8.885  2.7664 -1.0075 -0.2766
  847MOL0     H14329   0.627   5.570   9.675  2.2102  0.8853 -0.1068
  847MOL0     H14330   0.393   5.634   9.697  0.2130  0.0507 -0.5193
  847MOL0     H14331   0.135   5.977   9.793  2.1094 -0.6339 -0.7426
  847MOL0     H14332  -0.099   6.068   9.845 -1.2311  2.3792 -0.3512
  847MOL0     H14333  -0.445   6.169   9.603 -0.2623  0.0766  4.3759
  847MOL0     H14334  -0.324   6.264   9.511 -1.7886 -0.2522 -0.6063
  847MOL0     H14335  -0.439   6.349   9.786 -1.7279  1.7182 -0.2794
  847MOL0     H14336  -0.496   6.406   9.628 -0.3886  0.2159  1.5464
  847MOL0     H14337  -0.259   6.504   9.587  4.4419  0.6284  1.4493
  847MOL0     H14338  -0.212   6.431   9.739 -0.5014 -2.4305 -0.3054
  847MOL0     H14339  -0.376   6.580   9.860  1.0614  0.7733  0.4055
  847MOL0     H14340  -0.267   6.677   9.765  0.0432 -0.9479 -1.9308
  847MOL0     H14341  -0.646   6.788   9.610 -0.9445  0.2591  0.9936
  847MOL0     H14342  -0.157   6.178   9.437 -0.5858  1.2436  0.6714
  847MOL0     H14343   0.145   6.170   9.303 -0.0277 -1.6961 -1.6234
  847MOL0     H14344   0.109   6.000   9.299  0.0085 -2.0398  4.0609
  847MOL0     H14345  -0.017   6.131   9.272 -0.3745  3.3343 -0.2082
  848MOL0     O14346   5.852   9.124   8.975 -0.2750  0.1521  0.5735
  848MOL0     C14347   5.798   9.190   8.888 -0.1064 -0.5757 -0.0366
  848MOL0     O14348   5.680   9.165   8.817 -0.1102  0.1143 -0.2235
  848MOL0     C14349   5.621   9.051   8.861 -0.5377 -0.4795  0.1888
  848MOL0     C14350   5.653   8.931   8.811 -0.4178  0.5215 -0.0860
  848MOL0     C14351   5.571   8.813   8.842 -0.2172 -0.2236  0.5334
  848MOL0     C14352   5.454   8.831   8.929  0.5210  0.2764 -0.2998
  848MOL0     O14353   5.370   8.729   8.971 -0.0976 -0.2775  0.0785
  848MOL0     C14354   5.423   8.592   8.978  0.4467 -0.0508  0.0016
  848MOL0     C14355   5.381   8.536   9.117  0.7863  0.1696 -0.0514
  848MOL0     C14356   5.407   8.384   9.134 -0.3605  0.3306  0.2732
  848MOL0     C14357   5.343   8.327   9.264  0.5356  0.4376 -0.1558
  848MOL0     C14358   5.388   8.180   9.292 -0.6484 -0.3017  0.5601
  848MOL0     C14359   5.532   8.177   9.353  0.1879  0.9017 -0.9403
  848MOL0     C14360   5.602   8.045   9.321 -0.9408  0.1461  0.5071
  848MOL0     C14361   5.750   8.026   9.382 -0.1168 -0.7865  0.6317
  848MOL0     N14362   5.856   8.076   9.296 -0.1579  0.2141  0.5506
  848MOL0     C14363   5.987   8.037   9.276  0.2970 -0.5009 -0.2466
  848MOL0     C14364   6.036   8.109   9.173  0.3142 -0.2422  0.3366
  848MOL0     C14365   6.174   8.088   9.118 -0.3444 -0.7613  0.1653
  848MOL0     C14366   6.190   8.091   8.964 -0.7129  0.0097 -0.2261
  848MOL0     C14367   6.094   7.994   8.892  0.4760  0.8277 -0.6022
  848MOL0     C14368   6.077   7.859   8.959 -0.7995 -0.6971  0.3438
  848MOL0     O14369   6.204   7.797   8.965 -0.3283  0.1191 -0.1395
  848MOL0     C14370   6.257   7.720   8.859  0.3811 -0.3230 -0.0588
  848MOL0     C14371   6.221   7.707   8.718 -0.3572  0.1216  0.0170
  848MOL0     C14372   6.289   7.630   8.624 -0.5861  0.2729  0.1713
  848MOL0     C14373   6.404   7.556   8.666  1.1868 -0.8303 -0.5157
  848MOL0     C14374   6.468   7.464   8.570  0.1826 -0.3701 -0.9822
  848MOL0     O14375   6.431   7.469   8.442 -0.7280 -0.3708  0.8635
  848MOL0     C14376   6.487   7.385   8.351 -0.5399  0.0082  0.9532
  848MOL0     C14377   6.614   7.405   8.304 -0.1302  0.2882 -0.0148
  848MOL0     C14378   6.666   7.323   8.199 -0.2109  0.0595 -0.3955
  848MOL0     C14379   6.587   7.231   8.134 -0.6783  0.7185  0.4024
  848MOL0     O14380   6.656   7.152   8.046 -0.5062  0.7275 -0.7173
  848MOL0     C14381   6.615   7.167   7.909  0.0875  0.0777 -0.4325
  848MOL0     C14382   6.713   7.137   7.802 -0.8476  0.0301 -0.0465
  848MOL0     C14383   6.719   7.000   7.751  0.6734  0.1910 -0.8558
  848MOL0     C14384   6.832   6.945   7.663  0.2300 -0.3707 -0.0170
  848MOL0     C14385   6.783   6.835   7.568 -0.6723  0.0743 -0.7671
  848MOL0     C14386   6.897   6.751   7.509 -0.0865  0.2784  0.4869
  848MOL0     C14387   6.989   6.828   7.417  0.5675 -0.9706  0.1767
  848MOL0     C14388   7.081   6.739   7.333  0.6755 -0.0536 -0.4760
  848MOL0    Cl14389   7.173   6.602   7.417  0.2255  0.0099 -0.5260
  848MOL0     C14390   6.448   7.226   8.171  0.4696  0.1649  0.7074
  848MOL0     C14391   6.402   7.305   8.275  1.0160  0.1979  0.5775
  848MOL0     O14392   6.556   7.398   8.618  0.3430  0.9653  0.0993
  848MOL0     C14393   6.435   7.571   8.803 -0.2247 -0.4731  0.0013
  848MOL0     C14394   6.372   7.644   8.898  0.2747  0.4613  0.8487
  848MOL0     N14395   5.947   8.206   9.132  0.1150  1.0756 -0.2478
  848MOL0     N14396   5.843   8.180   9.209  0.6407  0.4719  0.5306
  848MOL0     C14397   5.433   8.958   8.985  0.0699  0.3512  0.0963
  848MOL0     C14398   5.519   9.066   8.954 -0.2421  0.3771 -0.4522
  848MOL0     C14399   5.857   9.316   8.848 -0.1939  0.0995 -0.5320
  848MOL0     C14400   5.880   9.336   8.711 -0.3656 -0.9529 -0.3547
  848MOL0     C14401   5.964   9.444   8.667 -0.4812  0.5842  0.5863
  848MOL0     C14402   6.025   9.531   8.757  0.1643  0.3400  0.2344
  848MOL0     O14403   6.099   9.648   8.724  1.1181  0.8828 -0.5328
  848MOL0     C14404   6.109   9.674   8.581 -0.1330  0.4678 -0.2491
  848MOL0     C14405   6.217   9.793   8.571  0.2985  0.1948  1.1214
  848MOL0     C14406   6.234   9.821   8.413 -0.2917  0.7094 -1.6659
  848MOL0     C14407   6.343   9.927   8.386  0.4654  0.2279  0.1944
  848MOL0     C14408   6.296  10.067   8.413 -0.3085  1.1271  0.2078
  848MOL0     C14409   6.260  10.178   8.439 -0.5334 -0.5553  0.5683
  848MOL0     C14410   5.993   9.515   8.894  0.1333  0.3702  0.4956
  848MOL0     C14411   5.920   9.404   8.942  0.1678 -0.4653 -0.7895
  848MOL0     C14412   5.911   9.389   9.091  0.2207  0.7027  0.6165
  848MOL0     H14413   5.736   8.907   8.745 -0.4427  2.4704 -0.8914
  848MOL0     H14414   5.620   8.721   8.812 -0.7109 -0.3465  0.0772
  848MOL0     H14415   5.394   8.533   8.890  2.0174 -0.7577 -0.0808
  848MOL0     H14416   5.533   8.595   8.982  0.3877  1.0407  1.4790
  848MOL0     H14417   5.274   8.540   9.140  0.5299 -2.8688 -0.3373
  848MOL0     H14418   5.432   8.590   9.197 -0.5777 -0.8223  1.5448
  848MOL0     H14419   5.515   8.367   9.141  0.0068  2.3707  0.0985
  848MOL0     H14420   5.378   8.332   9.042  0.7574 -0.4729  0.3562
  848MOL0     H14421   5.384   8.388   9.345 -0.3258 -0.2218  0.8189
  848MOL0     H14422   5.233   8.323   9.257  0.6787  0.1744 -3.5396
  848MOL0     H14423   5.319   8.139   9.367 -0.1579  0.5003  1.4641
  848MOL0     H14424   5.384   8.125   9.197  1.0880 -0.2495  0.4354
  848MOL0     H14425   5.599   8.255   9.315  1.4094  0.6938  0.6375
  848MOL0     H14426   5.522   8.186   9.462 -0.2425  2.8813 -1.1062
  848MOL0     H14427   5.609   8.040   9.212  0.7457  0.3284  0.5783
  848MOL0     H14428   5.540   7.958   9.342  1.2412 -1.4160  0.8377
  848MOL0     H14429   5.769   8.077   9.477 -0.0854 -0.5240  0.4836
  848MOL0     H14430   5.763   7.917   9.384 -0.7608 -1.1941 -4.5436
  848MOL0     H14431   6.041   7.956   9.325  0.5622  0.4840  1.1660
  848MOL0     H14432   6.229   8.169   9.165 -2.1526  1.2592 -1.0255
  848MOL0     H14433   6.211   7.997   9.168 -0.8441 -0.0669  1.8937
  848MOL0     H14434   6.156   8.190   8.932 -1.2731  0.3750  1.4025
  848MOL0     H14435   6.293   8.068   8.934 -0.9439 -0.7123 -0.4832
  848MOL0     H14436   6.130   7.969   8.792  2.8037  3.0466 -0.4298
  848MOL0     H14437   5.995   8.039   8.885  0.3277  1.7431  4.1066
  848MOL0     H14438   6.000   7.805   8.903  0.5136 -0.2307 -2.0430
  848MOL0     H14439   6.043   7.854   9.063  0.4862 -3.4221  0.7346
  848MOL0     H14440   6.132   7.763   8.690  1.2230  1.7364 -2.0751
  848MOL0     H14441   6.262   7.623   8.519  1.0086 -0.9528 -0.1939
  848MOL0     H14442   6.675   7.487   8.341 -0.8325  0.1720  1.4913
  848MOL0     H14443   6.767   7.343   8.166  0.0555  2.0198  1.3294
  848MOL0     H14444   6.532   7.100   7.886 -1.8424  2.3983 -0.5778
  848MOL0     H14445   6.578   7.268   7.890  0.1596 -0.3598 -3.3834
  848MOL0     H14446   6.708   7.205   7.717  1.0266 -1.2980 -1.2933
  848MOL0     H14447   6.816   7.144   7.838 -0.4980 -0.5040 -0.9108
  848MOL0     H14448   6.723   6.934   7.838  3.6496 -0.7868 -1.6215
  848MOL0     H14449   6.623   6.990   7.700 -0.1321  0.9401  0.4627
  848MOL0     H14450   6.912   6.901   7.724 -2.3519 -2.1564  2.3363
  848MOL0     H14451   6.874   7.023   7.599  0.1563 -1.1098 -0.9896
  848MOL0     H14452   6.712   6.884   7.500 -1.5603  1.0064  0.7714
  848MOL0     H14453   6.716   6.770   7.625 -0.5239  1.1100  0.6263
  848MOL0     H14454   6.961   6.706   7.585 -0.0900 -3.2137 -1.4058
  848MOL0     H14455   6.846   6.673   7.453 -0.3697  2.6040 -2.7578
  848MOL0     H14456   7.053   6.881   7.488  2.3598 -0.3276 -1.8215
  848MOL0     H14457   6.945   6.902   7.350  1.8841  0.5372  0.9362
  848MOL0     H14458   7.004   6.700   7.265  0.0490 -2.6100  1.5593
  848MOL0     H14459   7.160   6.801   7.288  1.3498 -0.8987 -0.4705
  848MOL0     H14460   6.394   7.160   8.103  3.9735  0.0571 -2.2730
  848MOL0     H14461   6.296   7.299   8.297  1.2278  0.5692  1.7560
  848MOL0     H14462   6.519   7.514   8.841 -0.4329 -1.2201 -0.6235
  848MOL0     H14463   6.400   7.651   9.003 -2.7289 -2.0971  1.9567
  848MOL0     H14464   5.345   8.983   9.043 -0.5550 -2.1008  0.3390
  848MOL0     H14465   5.492   9.162   8.996  2.1401  0.3236  1.4202
  848MOL0     H14466   5.839   9.277   8.631 -0.9226  0.4959 -1.1838
  848MOL0     H14467   5.987   9.457   8.562 -4.4975  1.0325 -0.4212
  848MOL0     H14468   6.021   9.710   8.527  1.5463  0.6422 -3.0581
  848MOL0     H14469   6.162   9.585   8.546  1.7354 -0.0020  3.2407
  848MOL0     H14470   6.314   9.776   8.618  1.2164  3.5053  0.7004
  848MOL0     H14471   6.180   9.884   8.620 -0.6572 -0.3526  1.4553
  848MOL0     H14472   6.139   9.843   8.362 -0.3471  0.0850 -1.8387
  848MOL0     H14473   6.277   9.725   8.384  0.7217  0.8006 -0.5453
  848MOL0     H14474   6.433   9.900   8.441 -0.2842 -0.7489  0.9833
  848MOL0     H14475   6.375   9.931   8.282 -0.4043  2.0323 -0.0428
  848MOL0     H14476   6.220  10.270   8.477 -3.1770  0.2377 -3.4638
  848MOL0     H14477   6.034   9.590   8.961  2.6729 -0.8334  0.3718
  848MOL0     H14478   5.937   9.294   9.138 -3.0002 -0.2511  0.7070
  848MOL0     H14479   5.956   9.481   9.130 -3.0166  3.0409 -0.6805
  848MOL0     H14480   5.806   9.394   9.123 -0.5847 -0.9245 -1.5298
  849MOL0     O14481   0.615   2.503   8.479 -0.0476  0.3175  0.1561
  849MOL0     C14482   0.518   2.545   8.545 -0.5277  0.4547  0.8785
  849MOL0     O14483   0.468   2.673   8.533  0.1767 -0.2078 -0.2119
  849MOL0     C14484   0.529   2.784   8.485  0.4406 -0.1828  0.9748
  849MOL0     C14485   0.642   2.798   8.414  0.2922  0.6010  0.2912
  849MOL0     C14486   0.685   2.922   8.368  0.0309  0.4105  0.5160
  849MOL0     C14487   0.614   3.045   8.392  0.2206  0.0052  0.5183
  849MOL0     O14488   0.650   3.165   8.339  0.2473 -0.0337 -0.2329
  849MOL0     C14489   0.734   3.166   8.226 -0.2776  0.8248 -0.0752
  849MOL0     C14490   0.752   3.294   8.152  1.1056 -0.4631 -1.0562
  849MOL0     C14491   0.826   3.403   8.238  0.5710 -0.8966 -0.6154
  849MOL0     C14492   0.931   3.460   8.145  0.4934  0.3940 -0.2936
  849MOL0     C14493   1.002   3.583   8.208  1.3910 -0.0404 -0.8516
  849MOL0     C14494   1.089   3.526   8.326  0.1158 -1.0967  0.7470
  849MOL0     C14495   1.140   3.652   8.397 -0.5689  0.0079  0.1269
  849MOL0     C14496   1.243   3.614   8.504  0.7754  0.1585  1.0879
  849MOL0     N14497   1.260   3.721   8.604  0.0026 -0.3248  1.0392
  849MOL0     C14498   1.172   3.759   8.705 -0.1291 -0.6608  0.7147
  849MOL0     C14499   1.232   3.851   8.786  0.2878 -0.5731 -0.5110
  849MOL0     C14500   1.161   3.929   8.892 -0.0214 -0.7957 -0.2281
  849MOL0     C14501   1.144   3.841   9.015  0.4263 -0.1233  0.2000
  849MOL0     C14502   1.035   3.900   9.107  0.0950  0.9812  0.0088
  849MOL0     C14503   1.054   4.045   9.153  0.7201  0.2517  0.7095
  849MOL0     O14504   1.174   4.053   9.228  0.6686  0.5973  0.4148
  849MOL0     C14505   1.200   4.164   9.298  0.0351 -1.0354 -0.1280
  849MOL0     C14506   1.153   4.291   9.252 -0.4801  0.2631 -0.0348
  849MOL0     C14507   1.191   4.404   9.321 -0.1299 -0.0192  0.6464
  849MOL0     C14508   1.273   4.398   9.437  0.6432  0.0292  0.5564
  849MOL0     C14509   1.302   4.517   9.510 -1.0768 -0.1745 -0.2809
  849MOL0     O14510   1.389   4.522   9.612 -1.0847  0.1220  0.2486
  849MOL0     C14511   1.404   4.630   9.695 -0.1195  0.2250  0.4727
  849MOL0     C14512   1.325   4.643   9.810 -0.2507 -0.2569  0.2724
  849MOL0     C14513   1.336   4.752   9.892  0.3405  0.9778  1.6585
  849MOL0     C14514   1.422   4.859   9.856  1.1082 -0.8460 -0.5523
  849MOL0     O14515   1.415   4.981   9.924 -0.3061 -0.5267 -0.1832
  849MOL0     C14516   1.304   5.011  10.009  0.6024 -0.3371 -0.0790
  849MOL0     C14517   1.283   5.156   9.982 -0.8144  0.5153 -0.1910
  849MOL0     C14518   1.179   5.203  10.084 -0.9522 -1.0247 -0.3533
  849MOL0     C14519   1.202   5.350  10.143  0.2307 -0.0121 -0.6046
  849MOL0     C14520   1.094   5.400  10.238 -0.1299 -0.5365  0.2060
  849MOL0     C14521   0.953   5.414  10.169  0.9033  0.0517  0.4158
  849MOL0     C14522   0.854   5.498  10.253  0.1939 -0.3041 -0.3273
  849MOL0     C14523   0.783   5.415  10.354  0.7903  0.2491  0.3958
  849MOL0    Cl14524   0.685   5.523  10.464 -0.1141 -0.2060  0.5681
  849MOL0     C14525   1.510   4.839   9.745 -0.2979 -0.0302  0.8871
  849MOL0     C14526   1.494   4.729   9.655 -0.3411  1.0013 -0.0167
  849MOL0     O14527   1.245   4.614   9.473 -0.4317  0.6983 -0.8009
  849MOL0     C14528   1.322   4.276   9.478  0.3614  0.6954  0.2504
  849MOL0     C14529   1.282   4.156   9.413  0.2438  0.5493  0.1553
  849MOL0     N14530   1.360   3.856   8.738  0.2417  0.3253  0.3282
  849MOL0     N14531   1.376   3.782   8.637 -1.0371  1.0487 -0.3020
  849MOL0     C14532   0.497   3.030   8.467 -1.0626 -0.5288  0.6416
  849MOL0     C14533   0.454   2.901   8.515  0.7416 -0.3817 -0.2621
  849MOL0     C14534   0.452   2.451   8.636  0.1168 -0.6751  0.5193
  849MOL0     C14535   0.519   2.331   8.665 -0.5088 -0.2009  0.4990
  849MOL0     C14536   0.458   2.243   8.753  0.1341 -0.3302  0.5131
  849MOL0     C14537   0.341   2.270   8.817  0.2801  0.1652  0.4009
  849MOL0     O14538   0.301   2.188   8.924 -0.0841  0.0034 -0.2487
  849MOL0     C14539   0.155   2.150   8.920  0.7433 -0.1578 -0.6554
  849MOL0     C14540   0.102   2.145   9.063 -0.0788  0.4677  0.1291
  849MOL0     C14541   0.198   2.073   9.164 -0.2349 -0.2544  0.2483
  849MOL0     C14542   0.135   2.020   9.294 -0.0733 -0.3234 -0.1239
  849MOL0     C14543   0.046   1.897   9.257 -1.0725 -0.8440 -0.5352
  849MOL0     C14544  -0.011   1.785   9.236 -0.0385 -0.8319 -0.0235
  849MOL0     C14545   0.287   2.388   8.789  0.3780  0.3415 -0.9455
  849MOL0     C14546   0.339   2.487   8.710 -0.1163 -0.4801 -0.0303
  849MOL0     C14547   0.254   2.617   8.685  0.8830 -0.8148  0.1162
  849MOL0     H14548   0.693   2.705   8.389  1.9726  1.6501 -0.3702
  849MOL0     H14549   0.780   2.921   8.317 -0.1865  2.6664 -0.0384
  849MOL0     H14550   0.841   3.142   8.235 -0.0595  0.7162 -2.3895
  849MOL0     H14551   0.689   3.104   8.148  3.2785 -1.6374 -0.4445
  849MOL0     H14552   0.653   3.328   8.122  0.2223 -2.3566 -0.4177
  849MOL0     H14553   0.801   3.278   8.055  0.7541 -2.1272 -0.9874
  849MOL0     H14554   0.857   3.370   8.338 -0.8921 -1.3623 -0.2883
  849MOL0     H14555   0.760   3.490   8.245  0.2188 -0.9495 -2.6816
  849MOL0     H14556   1.006   3.386   8.115  0.5071  1.1863 -2.4151
  849MOL0     H14557   0.879   3.478   8.051 -0.3710 -0.2693  0.0504
  849MOL0     H14558   1.064   3.626   8.129 -1.1942  1.0536 -2.4237
  849MOL0     H14559   0.927   3.655   8.242 -1.7829 -2.7317 -1.5949
  849MOL0     H14560   1.042   3.460   8.400  1.9761  1.0548  4.1080
  849MOL0     H14561   1.166   3.466   8.276 -1.9490 -2.0819 -1.4350
  849MOL0     H14562   1.063   3.695   8.462 -0.6478 -0.6847  0.5034
  849MOL0     H14563   1.185   3.733   8.338 -1.9770  1.1703  0.5800
  849MOL0     H14564   1.213   3.522   8.557  3.5978 -0.9934  0.8279
  849MOL0     H14565   1.334   3.585   8.451 -0.7691  0.4458 -1.9285
  849MOL0     H14566   1.072   3.720   8.722 -0.4134 -0.2445  0.0166
  849MOL0     H14567   1.226   4.013   8.915 -1.3205 -0.4439  2.6126
  849MOL0     H14568   1.066   3.968   8.856  0.4254  0.4246 -0.1160
  849MOL0     H14569   1.118   3.741   8.979 -1.4913  0.3949  0.0505
  849MOL0     H14570   1.239   3.833   9.068  1.4233  0.3907 -1.4097
  849MOL0     H14571   1.048   3.834   9.193 -1.2527  0.9111  0.1869
  849MOL0     H14572   0.936   3.884   9.062  1.1357 -1.8227 -1.5451
  849MOL0     H14573   0.974   4.081   9.219 -0.1799 -1.7876  0.8033
  849MOL0     H14574   1.063   4.103   9.061 -0.2446 -1.9375 -0.8615
  849MOL0     H14575   1.094   4.298   9.161 -0.1099  1.7868 -0.1943
  849MOL0     H14576   1.159   4.504   9.292  1.9759  1.4996  3.1458
  849MOL0     H14577   1.265   4.558   9.842 -1.5284  0.4444 -0.1701
  849MOL0     H14578   1.278   4.752   9.984 -1.6794 -0.5579  0.4695
  849MOL0     H14579   1.213   4.967   9.967  2.8750 -1.0770 -4.9679
  849MOL0     H14580   1.328   4.980  10.111  2.1713  0.6288 -0.1213
  849MOL0     H14581   1.374   5.213  10.000  1.2680 -1.9175 -2.2181
  849MOL0     H14582   1.255   5.177   9.879 -3.2895 -1.2345  0.0406
  849MOL0     H14583   1.087   5.210  10.025  1.6703 -0.0568 -4.7368
  849MOL0     H14584   1.167   5.136  10.170 -0.7989  1.8272  2.0609
  849MOL0     H14585   1.210   5.421  10.061 -0.3793 -1.3635 -1.8847
  849MOL0     H14586   1.293   5.360  10.204 -1.6857 -1.3249  2.7459
  849MOL0     H14587   1.130   5.493  10.282  0.7795 -0.9737  0.4122
  849MOL0     H14588   1.085   5.336  10.327  2.4919  1.5553  2.1327
  849MOL0     H14589   0.949   5.449  10.065  0.9669  0.5491  0.5758
  849MOL0     H14590   0.905   5.316  10.168 -1.6197  1.2096 -1.0135
  849MOL0     H14591   0.784   5.560  10.197  1.4002 -1.0423 -2.8071
  849MOL0     H14592   0.917   5.571  10.306 -1.5662  1.0715 -0.0438
  849MOL0     H14593   0.710   5.347  10.308  0.3488 -0.0484  1.4921
  849MOL0     H14594   0.848   5.341  10.400  0.1425 -0.8678 -0.4310
  849MOL0     H14595   1.575   4.922   9.720 -0.1474 -0.7591 -1.3238
  849MOL0     H14596   1.549   4.701   9.566 -1.2150  2.2387 -0.9805
  849MOL0     H14597   1.398   4.274   9.555  2.6937 -0.9833 -1.9425
  849MOL0     H14598   1.318   4.058   9.443 -1.1024 -0.8737 -2.5456
  849MOL0     H14599   0.463   3.127   8.503 -2.5347  0.0706 -2.0971
  849MOL0     H14600   0.373   2.885   8.585 -0.3989 -2.8323 -2.0148
  849MOL0     H14601   0.611   2.298   8.618  0.0014  0.6559  0.8771
  849MOL0     H14602   0.504   2.145   8.766  1.8058  0.5686  1.8748
  849MOL0     H14603   0.132   2.055   8.872  3.8918 -1.8892  0.9004
  849MOL0     H14604   0.099   2.232   8.875  0.4795 -0.4762 -0.9145
  849MOL0     H14605   0.011   2.085   9.057  0.9468 -0.9491 -3.5612
  849MOL0     H14606   0.083   2.247   9.098 -3.0325 -0.1403  0.4977
  849MOL0     H14607   0.274   2.145   9.198 -0.5020 -0.5802  1.5900
  849MOL0     H14608   0.246   1.989   9.113  1.4129  2.3090 -2.8413
  849MOL0     H14609   0.218   1.997   9.360 -0.8378 -0.3751  0.8356
  849MOL0     H14610   0.078   2.101   9.342  0.4706 -0.0136  0.0025
  849MOL0     H14611  -0.049   1.685   9.239 -0.2911 -0.7852 -1.2305
  849MOL0     H14612   0.206   2.415   8.856  1.3669 -2.0674  1.4093
  849MOL0     H14613   0.161   2.598   8.740  0.1569 -1.4979 -1.3026
  849MOL0     H14614   0.286   2.713   8.725  2.1428 -1.1453 -0.0718
  849MOL0     H14615   0.235   2.629   8.578  2.7402  0.1957 -0.1406
  850MOL0     O14616  10.958   3.204   4.295  0.2437  0.4084 -0.4667
  850MOL0     C14617  10.961   3.116   4.374  0.3468  0.1815 -1.0080
  850MOL0     O14618  10.924   2.986   4.350 -0.0853 -0.2757  0.6752
  850MOL0     C14619  10.934   2.942   4.224  0.0281 -0.9720  1.1255
  850MOL0     C14620  11.056   2.897   4.165  0.1519  0.5778  0.3475
  850MOL0     C14621  11.052   2.869   4.027  0.0618  0.1473  0.7378
  850MOL0     C14622  10.938   2.888   3.945 -0.2672  0.9067  0.5529
  850MOL0     O14623  10.918   2.857   3.806  0.2993  0.3413 -0.2419
  850MOL0     C14624  10.984   2.740   3.753 -0.3285 -0.4791  0.1643
  850MOL0     C14625  10.955   2.721   3.603  0.0350  0.0036  0.0300
  850MOL0     C14626  10.986   2.577   3.555  0.7241  0.0110 -0.7940
  850MOL0     C14627  10.936   2.567   3.410 -0.8504 -0.7475 -0.4725
  850MOL0     C14628  10.987   2.446   3.329 -0.1611 -1.0007 -0.7347
  850MOL0     C14629  10.980   2.314   3.396 -0.5210  0.6151 -0.2587
  850MOL0     C14630  11.033   2.201   3.310 -0.1714 -0.2975 -0.7097
  850MOL0     C14631  10.942   2.149   3.207  0.4501  1.1104 -0.0856
  850MOL0     N14632  11.010   2.024   3.157 -0.2215  0.6306 -0.3968
  850MOL0     C14633  10.997   1.905   3.221  0.7320  0.8539  0.5077
  850MOL0     C14634  11.078   1.815   3.155  0.2792 -0.0859  0.4260
  850MOL0     C14635  11.108   1.671   3.183  0.0470 -0.2842  0.5253
  850MOL0     C14636  11.106   1.570   3.064  1.0046 -0.3549 -0.3017
  850MOL0     C14637  10.954   1.537   3.025  0.4177  1.5768 -0.1200
  850MOL0     C14638  10.865   1.435   3.121 -0.9034 -0.7005 -0.4099
  850MOL0     O14639  10.954   1.326   3.153 -0.7871  0.2575 -0.0898
  850MOL0     C14640  10.912   1.220   3.227 -1.3923  0.2621 -0.7958
  850MOL0     C14641  10.781   1.202   3.264  0.4432 -0.5184 -0.3164
  850MOL0     C14642  10.736   1.081   3.318  0.0612 -0.5254  0.2218
  850MOL0     C14643  10.828   0.972   3.322  0.1979 -1.0176 -0.6173
  850MOL0     C14644  10.773   0.849   3.372 -0.3911 -0.4772 -0.5879
  850MOL0     O14645  10.660   0.860   3.452  0.6146 -0.0577  0.4088
  850MOL0     C14646  10.611   0.747   3.510  0.5241 -0.2489  0.8945
  850MOL0     C14647  10.654   0.718   3.644 -0.4875 -0.4067  0.7112
  850MOL0     C14648  10.591   0.623   3.719  0.5542 -0.1100  0.5744
  850MOL0     C14649  10.490   0.543   3.668 -0.2196  0.0962  0.5666
  850MOL0     O14650  10.446   0.444   3.754 -0.1144 -0.0678  0.2859
  850MOL0     C14651  10.326   0.383   3.719 -0.0336  1.2967 -0.7006
  850MOL0     C14652  10.281   0.297   3.844 -0.2725 -0.3743  0.7002
  850MOL0     C14653  10.331   0.154   3.825  0.4611  0.4123 -0.1178
  850MOL0     C14654  10.317   0.069   3.942  0.7299  0.5171 -0.4031
  850MOL0     C14655  10.375  -0.075   3.918  0.0854  0.9463 -0.0148
  850MOL0     C14656  10.516  -0.082   3.856 -0.2490 -0.4112  0.1410
  850MOL0     C14657  10.537  -0.230   3.828  0.3484 -0.0648 -0.2016
  850MOL0     C14658  10.684  -0.264   3.797  0.3943  0.0717 -0.8535
  850MOL0    Cl14659  10.790  -0.250   3.944 -0.3731 -0.2199 -0.5391
  850MOL0     C14660  10.459   0.556   3.534  0.8580  0.4390  0.0219
  850MOL0     C14661  10.534   0.653   3.448  0.2535  0.6499  0.2317
  850MOL0     O14662  10.842   0.744   3.351  0.1086 -0.2787  0.2374
  850MOL0     C14663  10.954   0.990   3.283 -0.5143 -0.0258 -0.9365
  850MOL0     C14664  11.003   1.111   3.237  0.9000  0.7656  0.3553
  850MOL0     N14665  11.144   1.889   3.059  0.5511  0.0208  0.8854
  850MOL0     N14666  11.106   2.011   3.060 -0.7685 -0.8769  0.7497
  850MOL0     C14667  10.826   2.941   4.005 -0.2939  0.0870  0.2986
  850MOL0     C14668  10.817   2.958   4.148 -0.1133  0.1154 -0.0723
  850MOL0     C14669  10.979   3.132   4.518 -0.2253  0.3433  0.0349
  850MOL0     C14670  10.915   3.035   4.613  0.1231 -0.0526 -0.3021
  850MOL0     C14671  10.937   3.030   4.746 -0.4607 -0.0361  0.7646
  850MOL0     C14672  10.995   3.149   4.799  0.0185  0.7071 -0.6338
  850MOL0     O14673  11.010   3.168   4.935 -0.1162 -0.5648  0.8020
  850MOL0     C14674  10.899   3.139   5.026  0.4208 -0.4089 -0.9047
  850MOL0     C14675  10.941   3.046   5.132 -0.5957  0.0170 -0.7026
  850MOL0     C14676  11.084   3.054   5.191 -0.4000 -0.6541 -0.1077
  850MOL0     C14677  11.109   3.166   5.280  0.4195 -0.9601  0.3524
  850MOL0     C14678  11.241   3.155   5.337 -0.4512  0.5644 -0.0624
  850MOL0     C14679  11.358   3.147   5.385 -1.1314 -0.4471  0.2499
  850MOL0     C14680  11.067   3.236   4.707  0.1437  0.5522 -0.8634
  850MOL0     C14681  11.060   3.229   4.562 -0.4327  0.6366 -0.7488
  850MOL0     C14682  11.132   3.337   4.490 -0.1066 -0.1798 -0.3245
  850MOL0     H14683  11.142   2.895   4.230 -0.5300 -0.3106  1.2492
  850MOL0     H14684  11.141   2.835   3.975  0.6130  2.4692  0.0416
  850MOL0     H14685  11.093   2.740   3.758 -0.2123 -2.6737 -1.0605
  850MOL0     H14686  10.957   2.654   3.816  1.2624 -3.9057 -3.3832
  850MOL0     H14687  11.028   2.788   3.557  1.3653  0.2312  2.3188
  850MOL0     H14688  10.851   2.741   3.576 -0.0146 -0.8053 -0.4034
  850MOL0     H14689  10.927   2.507   3.613  1.1139  1.2749  1.2216
  850MOL0     H14690  11.091   2.548   3.562  0.1100 -1.8232  2.4845
  850MOL0     H14691  10.827   2.571   3.416 -0.7670  1.8218  1.4474
  850MOL0     H14692  10.956   2.656   3.349 -0.7464 -0.3269  0.1598
  850MOL0     H14693  10.935   2.451   3.233 -0.8553 -0.3222 -0.3418
  850MOL0     H14694  11.090   2.472   3.301 -0.2011 -0.3868 -0.3453
  850MOL0     H14695  11.047   2.314   3.482  1.5179 -1.5677 -1.7186
  850MOL0     H14696  10.884   2.277   3.433  1.0540 -1.1240  2.4529
  850MOL0     H14697  11.058   2.125   3.385 -0.8597  1.1214  1.0150
  850MOL0     H14698  11.134   2.216   3.271 -0.4292 -0.1977 -1.3499
  850MOL0     H14699  10.845   2.125   3.252  0.7034 -1.6741 -0.8125
  850MOL0     H14700  10.924   2.214   3.122 -1.3595  1.2727  0.3899
  850MOL0     H14701  10.918   1.881   3.291 -0.3026  1.4785 -0.4208
  850MOL0     H14702  11.212   1.668   3.216 -0.0939  1.3095  1.2269
  850MOL0     H14703  11.044   1.634   3.264 -0.0243  0.3361  0.7578
  850MOL0     H14704  11.155   1.610   2.975 -0.7113  0.9633 -0.7071
  850MOL0     H14705  11.156   1.477   3.091 -0.3862 -2.0102 -3.0498
  850MOL0     H14706  10.960   1.500   2.922  1.9432  2.3027 -0.3068
  850MOL0     H14707  10.899   1.631   3.027 -3.9374 -0.6899  0.6550
  850MOL0     H14708  10.793   1.393   3.051  0.9275 -1.6834 -1.7919
  850MOL0     H14709  10.819   1.485   3.206  0.4447 -1.4543  0.8176
  850MOL0     H14710  10.713   1.286   3.252  1.8041  0.7848  0.7017
  850MOL0     H14711  10.635   1.058   3.351 -0.7192 -2.9503 -3.2918
  850MOL0     H14712  10.737   0.777   3.682 -0.2247 -1.4740  1.8416
  850MOL0     H14713  10.612   0.604   3.824  0.7362 -0.0377  0.5522
  850MOL0     H14714  10.247   0.449   3.681 -2.4468 -0.4968  0.8647
  850MOL0     H14715  10.351   0.310   3.642 -0.2188 -0.6561  1.0259
  850MOL0     H14716  10.315   0.348   3.934  1.7020  2.2990 -1.3910
  850MOL0     H14717  10.172   0.287   3.837 -0.3253  1.1875 -2.0307
  850MOL0     H14718  10.276   0.115   3.739 -0.0990  0.9489 -0.0204
  850MOL0     H14719  10.437   0.147   3.801  1.4301  0.9231  3.3550
  850MOL0     H14720  10.210   0.054   3.959  0.7172 -0.0508 -0.9497
  850MOL0     H14721  10.359   0.111   4.034  1.5410  0.2890 -0.6570
  850MOL0     H14722  10.304  -0.128   3.854  0.9389  1.2846 -1.2791
  850MOL0     H14723  10.381  -0.122   4.017  3.2898 -0.7273 -0.8903
  850MOL0     H14724  10.508  -0.042   3.754  0.1893 -1.3292 -0.2675
  850MOL0     H14725  10.597  -0.038   3.914 -0.2048 -0.0007 -0.2288
  850MOL0     H14726  10.487  -0.255   3.734 -0.1249  2.3393 -0.6713
  850MOL0     H14727  10.511  -0.290   3.915  0.6799 -1.1139 -0.8108
  850MOL0     H14728  10.688  -0.365   3.756  0.5263 -0.1665 -0.2577
  850MOL0     H14729  10.719  -0.196   3.719  2.6002 -0.8939 -0.7799
  850MOL0     H14730  10.387   0.487   3.490  0.1945  1.5241 -0.6310
  850MOL0     H14731  10.521   0.654   3.340  2.2060  1.6262 -0.0373
  850MOL0     H14732  11.028   0.913   3.300 -1.8803 -0.7518  2.8183
  850MOL0     H14733  11.102   1.103   3.193 -0.6700 -0.2222 -3.3498
  850MOL0     H14734  10.738   2.964   3.946  1.5582  0.2543 -2.5808
  850MOL0     H14735  10.734   3.014   4.191  1.9620  1.5331  2.3329
  850MOL0     H14736  10.849   2.955   4.580  1.6422 -1.8393  0.7729
  850MOL0     H14737  10.893   2.951   4.807  0.3197 -2.6548 -1.8028
  850MOL0     H14738  10.812   3.099   4.972  1.1233 -3.0787 -0.2387
  850MOL0     H14739  10.865   3.232   5.072 -0.7863 -2.8001  3.6614
  850MOL0     H14740  10.932   2.947   5.086 -0.5483 -0.5530  0.4740
  850MOL0     H14741  10.881   3.052   5.224  1.4006 -0.8490  0.7263
  850MOL0     H14742  11.163   3.058   5.115  2.7153  2.5472  2.9251
  850MOL0     H14743  11.106   2.973   5.262  0.4114  1.4583  2.2020
  850MOL0     H14744  11.105   3.264   5.232  2.3691 -0.3167  1.4092
  850MOL0     H14745  11.036   3.170   5.362  1.7623  0.4697  1.5321
  850MOL0     H14746  11.453   3.122   5.427 -0.5360 -1.1151 -1.4516
  850MOL0     H14747  11.130   3.302   4.766 -3.3468  1.5702  2.1864
  850MOL0     H14748  11.215   3.394   4.532  0.9191  0.7454 -3.3351
  850MOL0     H14749  11.182   3.295   4.402  0.9114  0.6262 -0.1538
  850MOL0     H14750  11.057   3.407   4.452  2.0034  1.1110 -2.3930
  851MOL0     O14751   8.362   3.586   5.350 -0.1106  0.1158  0.0673
  851MOL0     C14752   8.413   3.585   5.459  0.2241 -0.8517  0.6630
  851MOL0     O14753   8.384   3.671   5.561 -0.6091  0.1012  0.6566
  851MOL0     C14754   8.291   3.769   5.551 -0.1497  0.0039 -0.0051
  851MOL0     C14755   8.314   3.888   5.617  1.2869  0.9527 -0.4281
  851MOL0     C14756   8.227   3.991   5.634  0.4632  0.0897  0.4565
  851MOL0     C14757   8.101   3.989   5.562 -0.2420  0.5358  0.3119
  851MOL0     O14758   8.006   4.088   5.566  0.4763 -0.3443 -0.3336
  851MOL0     C14759   8.025   4.202   5.649  0.6460 -0.2476  0.2854
  851MOL0     C14760   7.924   4.305   5.607  0.8520 -0.5284 -0.0769
  851MOL0     C14761   7.939   4.364   5.468  0.2036  0.8342 -0.3186
  851MOL0     C14762   7.826   4.476   5.438 -1.3263  0.5425 -0.7494
  851MOL0     C14763   7.804   4.476   5.288 -1.1783  0.8395  1.4406
  851MOL0     C14764   7.939   4.501   5.205 -0.0905 -0.2049  0.0177
  851MOL0     C14765   8.014   4.629   5.244 -0.2528  0.3011  0.1106
  851MOL0     C14766   8.152   4.639   5.171  0.7971 -0.2016 -0.6909
  851MOL0     N14767   8.219   4.751   5.232  0.4487  0.4603 -0.2190
  851MOL0     C14768   8.355   4.761   5.246  1.0654 -0.7389  0.2210
  851MOL0     C14769   8.385   4.880   5.301 -0.2991 -0.2244 -0.3123
  851MOL0     C14770   8.518   4.948   5.319  0.1423 -0.3341 -2.2291
  851MOL0     C14771   8.567   4.981   5.469  0.6546 -0.1827  0.2990
  851MOL0     C14772   8.492   5.101   5.533 -0.4934  0.3917  0.5481
  851MOL0     C14773   8.561   5.125   5.664  0.2106  0.3406  0.4131
  851MOL0     O14774   8.533   5.007   5.754  0.0450  0.5348 -0.0108
  851MOL0     C14775   8.594   5.007   5.877 -0.1256  0.4225  0.3302
  851MOL0     C14776   8.663   5.116   5.938 -0.1113  0.3615  0.1194
  851MOL0     C14777   8.736   5.112   6.055 -0.2420  0.6941 -0.2948
  851MOL0     C14778   8.738   4.994   6.120 -0.1934 -0.1510 -0.0307
  851MOL0     C14779   8.800   4.983   6.251  0.4310 -1.1133 -0.3436
  851MOL0     O14780   8.833   4.855   6.288  0.0349 -0.5416 -0.6649
  851MOL0     C14781   8.906   4.838   6.405  0.9014 -0.2746 -0.2286
  851MOL0     C14782   8.850   4.864   6.526 -0.3761  0.1698 -1.1097
  851MOL0     C14783   8.925   4.839   6.639  0.0684 -0.0383 -1.6958
  851MOL0     C14784   9.054   4.780   6.636  0.2896 -0.1933  0.0775
  851MOL0     O14785   9.128   4.775   6.747 -0.0072 -0.6920  0.0139
  851MOL0     C14786   9.139   4.643   6.800 -0.1803 -0.0291 -0.3992
  851MOL0     C14787   9.225   4.652   6.927  0.0867  0.0769  0.0350
  851MOL0     C14788   9.372   4.671   6.894  0.2587 -0.1168 -0.3199
  851MOL0     C14789   9.463   4.684   7.014 -1.0594  0.4897 -0.4604
  851MOL0     C14790   9.615   4.697   6.979  0.5075  0.5881  0.0201
  851MOL0     C14791   9.698   4.723   7.100  1.1655 -0.2074  0.4544
  851MOL0     C14792   9.834   4.759   7.053  0.3108  0.0743 -0.8425
  851MOL0     C14793   9.933   4.744   7.172 -0.6299  0.3545 -0.4520
  851MOL0    Cl14794  10.062   4.870   7.150  0.0260 -0.1759 -0.0681
  851MOL0     C14795   9.105   4.744   6.514 -0.2744 -1.2524  0.0896
  851MOL0     C14796   9.033   4.777   6.398 -0.6995  0.1022 -0.3614
  851MOL0     O14797   8.833   5.089   6.306  0.6689 -0.2207 -0.3354
  851MOL0     C14798   8.669   4.873   6.067  0.1381  0.3918  0.5935
  851MOL0     C14799   8.604   4.889   5.948  0.3677  1.3451 -0.7618
  851MOL0     N14800   8.262   4.936   5.340  0.2282  0.2806 -0.1764
  851MOL0     N14801   8.166   4.867   5.281 -0.2711  0.3755 -0.8124
  851MOL0     C14802   8.070   3.877   5.491 -0.3855 -0.2692  0.0931
  851MOL0     C14803   8.163   3.764   5.494 -0.0019 -0.1623  0.1468
  851MOL0     C14804   8.517   3.487   5.500 -0.4752 -0.2391 -0.7839
  851MOL0     C14805   8.558   3.492   5.639  0.1351  0.6828 -0.0692
  851MOL0     C14806   8.660   3.414   5.676 -0.2021 -0.0270  0.0331
  851MOL0     C14807   8.711   3.313   5.600  0.0598  0.6697  0.1861
  851MOL0     O14808   8.817   3.244   5.643 -0.4679 -0.3529  0.1291
  851MOL0     C14809   8.800   3.119   5.701  0.3868 -0.0852  0.1622
  851MOL0     C14810   8.938   3.077   5.757  0.1104  0.4303  1.0300
  851MOL0     C14811   8.975   3.143   5.887 -1.3366  0.4211 -0.5095
  851MOL0     C14812   8.893   3.104   6.017  0.0944 -0.0394  0.0069
  851MOL0     C14813   8.776   3.181   6.026 -0.2250 -0.5465 -0.9004
  851MOL0     C14814   8.680   3.253   6.032  0.0077  0.6739  0.7159
  851MOL0     C14815   8.670   3.302   5.468 -0.7333  0.4027 -0.0495
  851MOL0     C14816   8.579   3.393   5.411 -0.4102 -0.5544  0.3768
  851MOL0     C14817   8.560   3.386   5.254  0.1571  0.2824  0.0905
  851MOL0     H14818   8.410   3.893   5.668  1.1445 -0.4549  0.0334
  851MOL0     H14819   8.257   4.064   5.709  0.4300 -0.7410  1.2906
  851MOL0     H14820   8.015   4.175   5.755 -1.9707  0.1654  0.2049
  851MOL0     H14821   8.124   4.243   5.629  0.7708  0.7716  2.6472
  851MOL0     H14822   7.943   4.384   5.680 -1.0287 -0.4836  0.4152
  851MOL0     H14823   7.821   4.271   5.623  0.7090  0.7529  2.1786
  851MOL0     H14824   7.931   4.284   5.394  0.7659 -2.2890  2.7837
  851MOL0     H14825   8.037   4.412   5.464  0.6396  0.4134  2.7195
  851MOL0     H14826   7.731   4.446   5.482 -0.7040  3.3381  2.9804
  851MOL0     H14827   7.856   4.572   5.481 -3.0105  1.1802 -0.9335
  851MOL0     H14828   7.766   4.382   5.247  0.6791  0.8911 -0.5711
  851MOL0     H14829   7.738   4.559   5.260 -0.4611  1.1129  0.5333
  851MOL0     H14830   7.999   4.410   5.199  0.6580  0.3535 -1.2808
  851MOL0     H14831   7.906   4.513   5.102 -0.6793 -1.3409  0.0560
  851MOL0     H14832   8.033   4.626   5.351 -2.3735 -0.8078  0.5031
  851MOL0     H14833   7.957   4.722   5.231 -1.3084 -0.5929 -2.4326
  851MOL0     H14834   8.207   4.546   5.188  0.2932 -0.4055 -0.1206
  851MOL0     H14835   8.141   4.663   5.064  0.5919  0.3878 -0.5395
  851MOL0     H14836   8.430   4.693   5.208  1.9089  1.0252 -1.4501
  851MOL0     H14837   8.601   4.887   5.281  2.2308  1.3429 -0.6227
  851MOL0     H14838   8.523   5.042   5.262  1.4549  2.4326  1.9651
  851MOL0     H14839   8.551   4.895   5.534  3.9713  0.0650  1.6610
  851MOL0     H14840   8.675   5.000   5.472  0.3774  2.0120 -1.0173
  851MOL0     H14841   8.384   5.085   5.533 -0.1802 -2.1308  1.2728
  851MOL0     H14842   8.505   5.185   5.463 -0.8783 -2.0436 -2.6382
  851MOL0     H14843   8.532   5.215   5.719 -0.8375 -0.3849  1.0802
  851MOL0     H14844   8.668   5.136   5.645  0.1920 -0.9156 -0.5415
  851MOL0     H14845   8.659   5.219   5.903 -0.4865  1.2532  2.6165
  851MOL0     H14846   8.764   5.203   6.108  0.9685 -0.1272  0.5436
  851MOL0     H14847   8.751   4.903   6.547  0.0999  0.2755  1.3032
  851MOL0     H14848   8.897   4.862   6.742  0.7285 -2.5551 -0.8673
  851MOL0     H14849   9.044   4.596   6.827  1.2376 -3.0346 -0.2034
  851MOL0     H14850   9.182   4.580   6.721 -0.0584 -0.5037  0.0390
  851MOL0     H14851   9.181   4.730   6.989 -0.7181  0.2267 -0.7089
  851MOL0     H14852   9.222   4.555   6.977 -0.1546  0.1007  0.0654
  851MOL0     H14853   9.396   4.587   6.827  1.7820  0.6719 -0.8080
  851MOL0     H14854   9.384   4.765   6.841 -5.3499  2.0924  1.6275
  851MOL0     H14855   9.444   4.596   7.076  0.1468  0.4352 -0.1450
  851MOL0     H14856   9.435   4.774   7.069  0.8272 -0.0883  1.5981
  851MOL0     H14857   9.607   4.779   6.907 -2.4956  1.1880  0.8901
  851MOL0     H14858   9.649   4.609   6.924 -1.7566  0.8905 -2.0183
  851MOL0     H14859   9.660   4.807   7.159  2.1122  0.8272 -0.3700
  851MOL0     H14860   9.691   4.628   7.154 -1.9213 -0.1432  0.3624
  851MOL0     H14861   9.821   4.860   7.013  1.1415  0.2823 -0.5911
  851MOL0     H14862   9.865   4.692   6.972  0.7236 -2.7930  1.5374
  851MOL0     H14863   9.890   4.770   7.269  1.0982  0.2860  0.3755
  851MOL0     H14864   9.976   4.644   7.182  2.0595  1.5793  1.6564
  851MOL0     H14865   9.209   4.710   6.516 -0.5760 -2.1867  1.7340
  851MOL0     H14866   9.085   4.756   6.305  0.3262 -0.8881  0.4030
  851MOL0     H14867   8.666   4.773   6.109  1.7415 -1.4569 -3.2155
  851MOL0     H14868   8.549   4.806   5.903 -0.9304  1.6731  0.1373
  851MOL0     H14869   7.975   3.883   5.439 -0.0970  4.6473 -0.3774
  851MOL0     H14870   8.140   3.676   5.435  2.7238 -1.5040  0.9262
  851MOL0     H14871   8.526   3.561   5.717  3.3996  0.2117  1.8421
  851MOL0     H14872   8.691   3.431   5.779 -1.1491  0.8014  0.1994
  851MOL0     H14873   8.759   3.044   5.633 -0.4171  0.1442  0.3747
  851MOL0     H14874   8.721   3.130   5.776  0.9110  1.7587  0.5096
  851MOL0     H14875   9.018   3.107   5.689  0.7329  0.9605  1.9846
  851MOL0     H14876   8.924   2.969   5.774 -0.8642  0.6185  1.4598
  851MOL0     H14877   8.966   3.251   5.873 -1.0462  0.4847 -0.2134
  851MOL0     H14878   9.080   3.115   5.899 -0.6519 -0.2713 -5.7763
  851MOL0     H14879   8.882   2.996   6.026  0.7498 -0.0774  0.4486
  851MOL0     H14880   8.954   3.138   6.101 -0.3283 -0.2059  0.3837
  851MOL0     H14881   8.592   3.310   6.013 -0.5832 -0.6112 -0.6196
  851MOL0     H14882   8.712   3.229   5.400 -2.0742 -1.4789  1.0414
  851MOL0     H14883   8.585   3.481   5.206  3.0201 -0.1064  0.6225
  851MOL0     H14884   8.617   3.302   5.215 -1.6138 -1.1945  0.5723
  851MOL0     H14885   8.462   3.356   5.217  0.1459  0.7018 -0.2253
  852MOL0     O14886   6.185   5.998   5.213  0.2478  0.5347  0.3025
  852MOL0     C14887   6.163   6.122   5.197 -0.3343  0.7071  0.5306
  852MOL0     O14888   6.261   6.208   5.180 -0.6696 -0.5457  0.0319
  852MOL0     C14889   6.395   6.170   5.161  0.5659 -0.7725 -0.4613
  852MOL0     C14890   6.433   6.058   5.084  0.5190  0.4939 -0.1136
  852MOL0     C14891   6.564   6.007   5.093 -0.6694  0.8768  0.3628
  852MOL0     C14892   6.664   6.084   5.163  0.5271  0.0368 -0.1908
  852MOL0     O14893   6.799   6.055   5.141 -0.4287  0.3338  0.8224
  852MOL0     C14894   6.842   5.995   5.261 -0.3129  0.3101  0.0800
  852MOL0     C14895   6.992   5.998   5.275  0.6688  0.6944  0.5355
  852MOL0     C14896   7.061   5.900   5.181 -0.2273  0.5514 -0.2236
  852MOL0     C14897   7.217   5.910   5.192 -0.0102  0.5432 -0.7371
  852MOL0     C14898   7.276   5.836   5.325  1.1667 -0.3486  0.0896
  852MOL0     C14899   7.424   5.864   5.329 -1.1208 -0.0054 -0.1242
  852MOL0     C14900   7.519   5.799   5.223 -0.0904 -0.1874 -0.5518
  852MOL0     C14901   7.471   5.653   5.182  0.7849 -0.3454 -0.2910
  852MOL0     N14902   7.568   5.593   5.085  0.2966  0.3063 -0.0062
  852MOL0     C14903   7.703   5.595   5.114  0.3088  0.5069 -0.0776
  852MOL0     C14904   7.756   5.505   5.033 -0.1316  0.7550  0.1578
  852MOL0     C14905   7.895   5.436   5.046  0.2945  0.1715  0.7013
  852MOL0     C14906   7.997   5.489   4.938  0.2784 -0.0934  0.5347
  852MOL0     C14907   8.146   5.457   4.976 -0.3083 -0.6120 -0.2226
  852MOL0     C14908   8.230   5.524   4.871  0.0255  0.0725  0.2837
  852MOL0     O14909   8.210   5.456   4.742 -0.5389 -0.1709 -0.4566
  852MOL0     C14910   8.316   5.479   4.656 -0.1242  0.7282  1.2990
  852MOL0     C14911   8.415   5.573   4.680 -0.8493  0.2189  0.8540
  852MOL0     C14912   8.528   5.590   4.598 -0.0458 -0.6400  0.0886
  852MOL0     C14913   8.546   5.496   4.489  0.9532 -0.6660 -0.0239
  852MOL0     C14914   8.653   5.507   4.395 -0.0861  0.1736 -0.0716
  852MOL0     O14915   8.647   5.439   4.283 -0.1768  0.9620 -0.7056
  852MOL0     C14916   8.749   5.462   4.189 -0.1399  0.5874 -0.4619
  852MOL0     C14917   8.872   5.418   4.236 -1.2151  0.4293  0.9626
  852MOL0     C14918   8.987   5.453   4.172  0.1579 -0.4846 -0.4802
  852MOL0     C14919   8.980   5.514   4.042 -0.9325  0.0686  0.0629
  852MOL0     O14920   9.095   5.528   3.966  0.3421 -0.5911  0.6085
  852MOL0     C14921   9.090   5.472   3.833 -0.5710 -0.4503 -0.2785
  852MOL0     C14922   9.151   5.330   3.843 -0.5670  0.0374 -0.1398
  852MOL0     C14923   9.064   5.233   3.920  0.2320 -0.4123 -0.1521
  852MOL0     C14924   9.085   5.090   3.869  0.2377  0.5825 -0.1305
  852MOL0     C14925   9.015   5.001   3.978  0.0242 -0.4827 -0.4627
  852MOL0     C14926   9.113   4.960   4.084  1.3540 -0.8147 -1.0143
  852MOL0     C14927   9.046   4.885   4.195 -0.0443  0.5544 -0.6670
  852MOL0     C14928   9.093   4.739   4.188 -0.5272  0.2427  0.4589
  852MOL0    Cl14929   9.046   4.656   4.335  0.0350 -0.1569 -0.5688
  852MOL0     C14930   8.849   5.562   4.003 -0.1735  0.5821 -0.9233
  852MOL0     C14931   8.738   5.540   4.074  0.1034 -0.0249  0.1185
  852MOL0     O14932   8.737   5.594   4.418 -0.5339 -1.3487 -0.8739
  852MOL0     C14933   8.454   5.395   4.475  0.2161 -0.3324 -0.2906
  852MOL0     C14934   8.335   5.389   4.551 -0.3857 -0.0917 -0.3933
  852MOL0     N14935   7.650   5.440   4.955 -0.6345 -0.4662 -0.6504
  852MOL0     N14936   7.546   5.514   4.981  0.1793 -0.2586  0.1930
  852MOL0     C14937   6.623   6.197   5.238  0.0576  0.3807  1.4371
  852MOL0     C14938   6.495   6.234   5.235  0.7186  0.2002  0.3789
  852MOL0     C14939   6.023   6.182   5.203  0.2101  0.2675 -0.7526
  852MOL0     C14940   6.006   6.321   5.182  0.2991  0.8559  0.3696
  852MOL0     C14941   5.881   6.387   5.187  0.2300 -0.3203  0.5182
  852MOL0     C14942   5.763   6.319   5.207  0.0459  0.3696 -1.5796
  852MOL0     O14943   5.652   6.399   5.211 -0.6572  0.2614  0.3589
  852MOL0     C14944   5.535   6.360   5.140 -0.0457 -0.6158 -0.0331
  852MOL0     C14945   5.450   6.488   5.114  0.1527 -0.3592 -0.5669
  852MOL0     C14946   5.518   6.590   5.016  0.1213 -0.9278  0.7985
  852MOL0     C14947   5.429   6.708   4.978  0.2931 -0.0514 -0.5222
  852MOL0     C14948   5.495   6.828   4.932 -0.1498  0.1262  0.3833
  852MOL0     C14949   5.552   6.927   4.887  0.0956  0.0833  0.3701
  852MOL0     C14950   5.772   6.181   5.230 -0.3921  0.0359  0.8632
  852MOL0     C14951   5.901   6.111   5.239  0.0679 -0.3596 -0.3687
  852MOL0     C14952   5.885   5.962   5.266  0.1412 -0.4008 -0.2197
  852MOL0     H14953   6.361   5.989   5.040  2.6594 -0.2808 -2.6439
  852MOL0     H14954   6.591   5.922   5.032 -0.2841  4.1741 -4.6680
  852MOL0     H14955   6.818   6.063   5.344 -1.3117  2.8864 -2.1514
  852MOL0     H14956   6.792   5.898   5.266  0.8698 -0.3211  0.0032
  852MOL0     H14957   7.015   5.969   5.378 -1.2116  2.3068  1.4715
  852MOL0     H14958   7.023   6.100   5.252  2.1923  0.0277 -0.5340
  852MOL0     H14959   7.044   5.944   5.082 -0.4360  1.9941  0.4314
  852MOL0     H14960   7.033   5.795   5.183  3.7413 -0.7984 -3.1211
  852MOL0     H14961   7.276   5.867   5.111  0.9613  1.7067 -0.6757
  852MOL0     H14962   7.246   6.015   5.204  0.1736  0.3503  0.7094
  852MOL0     H14963   7.227   5.879   5.413 -0.6826  1.1254 -1.5621
  852MOL0     H14964   7.257   5.728   5.315  0.1785 -0.0357 -1.9326
  852MOL0     H14965   7.452   5.969   5.347  1.5681 -1.0163  2.2926
  852MOL0     H14966   7.442   5.814   5.425 -2.1915 -0.6403 -0.2414
  852MOL0     H14967   7.622   5.806   5.261 -0.0422  0.2342 -0.7581
  852MOL0     H14968   7.521   5.867   5.138 -2.5848 -1.2850 -1.5669
  852MOL0     H14969   7.471   5.579   5.263  0.5404  1.6134  1.5555
  852MOL0     H14970   7.371   5.655   5.136  0.2715 -0.5132  0.7915
  852MOL0     H14971   7.753   5.643   5.197  1.3745 -0.1933 -0.2908
  852MOL0     H14972   7.935   5.447   5.148  3.4078  0.5251 -0.4366
  852MOL0     H14973   7.874   5.330   5.028 -0.6461  0.7975 -2.3871
  852MOL0     H14974   7.972   5.437   4.845  1.6995 -1.3436  0.8176
  852MOL0     H14975   7.982   5.597   4.926  1.7060  0.1637  0.9064
  852MOL0     H14976   8.167   5.349   4.979  0.1534 -0.5214 -0.0625
  852MOL0     H14977   8.176   5.496   5.074  2.3519  0.4967 -1.3796
  852MOL0     H14978   8.332   5.511   4.907 -0.0822 -0.0348  0.5480
  852MOL0     H14979   8.205   5.629   4.854 -1.5704 -0.2483  0.5023
  852MOL0     H14980   8.422   5.641   4.764  3.3939 -0.1774  1.0730
  852MOL0     H14981   8.589   5.678   4.612 -1.4388  0.4049 -0.2398
  852MOL0     H14982   8.871   5.358   4.327 -1.5751  0.0344  0.7008
  852MOL0     H14983   9.088   5.421   4.194 -0.3820 -1.5947  0.5071
  852MOL0     H14984   8.987   5.477   3.798 -0.4029  1.3407 -0.6108
  852MOL0     H14985   9.153   5.536   3.770  2.2131 -2.4210  0.2739
  852MOL0     H14986   9.163   5.287   3.744  0.0595 -1.7286  0.6671
  852MOL0     H14987   9.244   5.329   3.901 -2.2634  1.9612  2.9260
  852MOL0     H14988   9.088   5.252   4.025  1.0735  2.6762 -0.8193
  852MOL0     H14989   8.959   5.262   3.908  0.4501 -0.1714 -1.6176
  852MOL0     H14990   9.189   5.060   3.858  0.2891 -0.1960  2.0046
  852MOL0     H14991   9.023   5.069   3.781  0.1812 -0.8257  0.2087
  852MOL0     H14992   8.974   4.909   3.935 -0.1460 -0.5664 -0.1314
  852MOL0     H14993   8.939   5.059   4.032 -2.4187 -3.1000 -0.8710
  852MOL0     H14994   9.186   4.895   4.035  1.9427 -0.6366 -0.3857
  852MOL0     H14995   9.173   5.045   4.118 -1.4176  0.6590  0.4881
  852MOL0     H14996   8.937   4.893   4.189 -0.1024 -0.7154 -1.9198
  852MOL0     H14997   9.078   4.925   4.292  0.8208  1.3846 -1.2822
  852MOL0     H14998   9.047   4.691   4.101 -0.5291  3.6687 -1.5862
  852MOL0     H14999   9.202   4.739   4.199 -0.5790 -0.0292  0.9689
  852MOL0     H15000   8.838   5.605   3.903  0.1349  1.4800 -0.5860
  852MOL0     H15001   8.643   5.580   4.041  0.3954  0.9124  0.3770
  852MOL0     H15002   8.460   5.326   4.392  0.0427  0.6566 -1.1469
  852MOL0     H15003   8.254   5.319   4.537 -1.0049  0.2543  1.2698
  852MOL0     H15004   6.699   6.253   5.290  2.0222  0.1853 -1.0299
  852MOL0     H15005   6.470   6.319   5.298 -0.6657  1.0357 -1.2012
  852MOL0     H15006   6.093   6.383   5.165  2.2715 -2.4123 -3.1274
  852MOL0     H15007   5.876   6.495   5.174  2.8299 -0.1718  0.0482
  852MOL0     H15008   5.482   6.284   5.200  0.6868 -0.1881  1.2036
  852MOL0     H15009   5.555   6.305   5.048  1.6184 -0.4610  0.2004
  852MOL0     H15010   5.415   6.528   5.210  0.5598  2.0687 -1.3611
  852MOL0     H15011   5.364   6.455   5.056  0.7554 -1.3072 -0.9370
  852MOL0     H15012   5.549   6.542   4.923 -2.3083 -2.3169  0.6360
  852MOL0     H15013   5.608   6.625   5.069  1.0741 -1.1997 -0.5946
  852MOL0     H15014   5.351   6.689   4.904 -0.3316  2.3857 -0.5739
  852MOL0     H15015   5.381   6.739   5.071  0.4054 -0.8413 -0.1898
  852MOL0     H15016   5.610   7.014   4.866  0.2555 -0.0855  0.1054
  852MOL0     H15017   5.678   6.127   5.242  0.5439 -1.9597 -0.2783
  852MOL0     H15018   5.964   5.913   5.208  2.0926 -0.3162  2.2343
  852MOL0     H15019   5.908   5.930   5.368  1.7919 -2.2642 -1.1110
  852MOL0     H15020   5.781   5.932   5.250 -0.3362  1.2211 -0.3464
  853MOL0     O15021  10.637   5.508   6.463  0.8605  0.0232 -0.2479
  853MOL0     C15022  10.617   5.632   6.472 -0.4944 -0.2607  0.0174
  853MOL0     O15023  10.530   5.711   6.391 -0.2542 -0.2134  0.1464
  853MOL0     C15024  10.456   5.664   6.284  0.8154  0.4674  0.0634
  853MOL0     C15025  10.483   5.551   6.209  0.3446  0.4071  0.5090
  853MOL0     C15026  10.398   5.495   6.107  0.5256  0.2193 -0.1506
  853MOL0     C15027  10.275   5.557   6.100  0.3306  0.0129  0.6786
  853MOL0     O15028  10.176   5.495   6.027 -0.2289 -0.6217 -0.6283
  853MOL0     C15029  10.114   5.572   5.928  0.1077  0.0315  0.8516
  853MOL0     C15030   9.966   5.525   5.937  0.0106 -0.3084  0.0313
  853MOL0     C15031   9.955   5.391   5.868  0.8031  0.1119  0.5223
  853MOL0     C15032   9.807   5.361   5.859  0.0139  0.7787  0.4260
  853MOL0     C15033   9.727   5.350   5.993  0.0042  0.2412 -0.8176
  853MOL0     C15034   9.790   5.260   6.100  0.4846  0.5182  0.4203
  853MOL0     C15035   9.695   5.249   6.229 -1.1460  0.9263  0.5514
  853MOL0     C15036   9.605   5.116   6.224 -0.0718  0.8921  0.5093
  853MOL0     N15037   9.548   5.074   6.346  0.2762 -0.2277 -0.0930
  853MOL0     C15038   9.508   5.147   6.460  0.2461  0.0908  0.5308
  853MOL0     C15039   9.484   5.063   6.561  0.0221 -0.2179  0.9960
  853MOL0     C15040   9.450   5.090   6.705 -0.5759 -0.4613  0.3266
  853MOL0     C15041   9.532   5.216   6.755 -0.9924  0.0415 -0.6213
  853MOL0     C15042   9.495   5.251   6.906 -1.1950 -0.0263 -0.1580
  853MOL0     C15043   9.573   5.377   6.945 -0.1394 -0.0522  0.1903
  853MOL0     O15044   9.536   5.483   6.854  0.7241  0.4893  0.4358
  853MOL0     C15045   9.430   5.565   6.888 -0.6524 -0.3613 -0.0565
  853MOL0     C15046   9.437   5.647   7.001  0.7131  0.7766  0.0241
  853MOL0     C15047   9.318   5.722   7.041 -0.6551 -0.1574 -0.2269
  853MOL0     C15048   9.202   5.729   6.960  0.9172  0.2262  0.1223
  853MOL0     C15049   9.088   5.808   7.011 -0.4655  0.5062  0.1776
  853MOL0     O15050   9.085   5.860   7.137 -0.8410  0.3993 -0.4342
  853MOL0     C15051   8.972   5.933   7.176 -0.7486  0.2864  0.4607
  853MOL0     C15052   8.959   6.065   7.134 -0.1789  0.0512  0.1173
  853MOL0     C15053   8.850   6.146   7.177 -0.5518 -0.2848 -0.3130
  853MOL0     C15054   8.767   6.096   7.284  0.7726 -0.4761  0.2967
  853MOL0     O15055   8.665   6.180   7.330 -0.4399 -0.4566  0.2826
  853MOL0     C15056   8.618   6.160   7.466 -0.6964 -0.0942 -0.8180
  853MOL0     C15057   8.563   6.297   7.504 -0.4558  0.0665 -0.5954
  853MOL0     C15058   8.676   6.397   7.540  0.2421  0.5808  0.3599
  853MOL0     C15059   8.618   6.537   7.582  0.3181 -0.0358 -0.0356
  853MOL0     C15060   8.721   6.639   7.618 -1.2221 -0.0141  0.1971
  853MOL0     C15061   8.647   6.748   7.697 -0.6498  0.3201  0.5889
  853MOL0     C15062   8.724   6.864   7.731 -0.6427  0.2945 -0.6448
  853MOL0     C15063   8.850   6.846   7.811 -0.4837  0.7275 -0.9445
  853MOL0    Cl15064   8.822   6.795   7.984  0.2133  0.3266 -0.3502
  853MOL0     C15065   8.785   5.963   7.334  0.0488  0.4181 -0.2593
  853MOL0     C15066   8.885   5.881   7.268  0.4606 -0.0173  0.5919
  853MOL0     O15067   8.997   5.826   6.933 -0.1139  0.2860  0.1920
  853MOL0     C15068   9.207   5.663   6.841 -1.7289  0.8293  0.5502
  853MOL0     C15069   9.317   5.582   6.800  0.2579  0.0535 -1.6572
  853MOL0     N15070   9.507   4.935   6.506  0.0657 -0.7310 -0.9490
  853MOL0     N15071   9.537   4.945   6.381 -0.2971 -0.2214  0.7045
  853MOL0     C15072  10.245   5.675   6.174 -0.5384  0.3679 -0.3291
  853MOL0     C15073  10.330   5.721   6.267  0.9766 -1.2389  0.2647
  853MOL0     C15074  10.699   5.710   6.565 -0.0460 -0.6401  0.4236
  853MOL0     C15075  10.725   5.843   6.528 -1.2076 -0.0685  0.1726
  853MOL0     C15076  10.806   5.925   6.617  0.1346  0.1770 -0.2670
  853MOL0     C15077  10.873   5.872   6.730 -1.1294  0.3371 -0.6716
  853MOL0     O15078  10.952   5.953   6.803 -0.2095 -0.3803  0.4817
  853MOL0     C15079  10.938   5.931   6.944 -0.3524  0.4366 -0.3493
  853MOL0     C15080  11.052   5.842   7.001  0.6507 -0.3321 -0.6052
  853MOL0     C15081  11.147   5.941   7.060 -0.5490  1.1611 -0.4107
  853MOL0     C15082  11.211   5.887   7.189 -0.6155 -0.4082  0.0221
  853MOL0     C15083  11.289   5.765   7.174  0.4416  0.0777  0.9123
  853MOL0     C15084  11.336   5.663   7.138  0.2920  0.6211  0.5948
  853MOL0     C15085  10.845   5.734   6.760 -1.2825 -0.1738 -0.3695
  853MOL0     C15086  10.771   5.651   6.673 -0.3640 -0.1834 -0.2309
  853MOL0     C15087  10.763   5.503   6.726  0.6719 -0.1152 -0.1975
  853MOL0     H15088  10.577   5.498   6.222  0.9598  1.3944  0.1901
  853MOL0     H15089  10.412   5.407   6.044  0.4849 -1.3913  1.9736
  853MOL0     H15090  10.124   5.680   5.944 -0.5115  0.1621  0.3600
  853MOL0     H15091  10.161   5.549   5.832 -1.6606  2.3808 -0.6910
  853MOL0     H15092   9.905   5.602   5.889  1.4621  1.0603  0.2782
  853MOL0     H15093   9.936   5.528   6.042 -1.8213  0.3681 -0.4783
  853MOL0     H15094  10.006   5.305   5.912  1.2023  0.5795  0.9813
  853MOL0     H15095  10.020   5.405   5.781  2.0858 -1.6102  1.1559
  853MOL0     H15096   9.761   5.433   5.791  0.1886  1.9949  1.5455
  853MOL0     H15097   9.796   5.267   5.804  1.4391  0.9195 -0.1216
  853MOL0     H15098   9.714   5.446   6.045  4.6638 -1.0995  3.5827
  853MOL0     H15099   9.625   5.312   5.979 -0.4548  1.5889 -1.3551
  853MOL0     H15100   9.795   5.158   6.062 -0.0607  1.4654 -2.3832
  853MOL0     H15101   9.890   5.297   6.128  0.0910  1.8671  0.0950
  853MOL0     H15102   9.619   5.326   6.211 -1.9122  0.0512 -0.0803
  853MOL0     H15103   9.755   5.259   6.319 -0.1158  0.7201 -0.1036
  853MOL0     H15104   9.526   5.114   6.148  0.7645 -0.3818 -0.3647
  853MOL0     H15105   9.665   5.030   6.194 -0.1123  1.3488 -0.9679
  853MOL0     H15106   9.506   5.256   6.466 -2.8660  0.2095 -0.8333
  853MOL0     H15107   9.343   5.112   6.715 -0.6171 -1.1341  1.5545
  853MOL0     H15108   9.463   4.996   6.759 -0.9035 -1.1822 -0.8140
  853MOL0     H15109   9.640   5.200   6.745 -1.3146 -1.2391 -2.9606
  853MOL0     H15110   9.500   5.303   6.696 -0.0295  0.8357  0.0144
  853MOL0     H15111   9.541   5.169   6.962  0.1657 -1.2307 -2.8627
  853MOL0     H15112   9.388   5.268   6.923 -1.1683 -0.0715  0.0630
  853MOL0     H15113   9.679   5.351   6.937 -0.1668 -0.1415  0.1240
  853MOL0     H15114   9.548   5.416   7.044 -1.0144 -0.4296  0.1262
  853MOL0     H15115   9.522   5.629   7.067  1.3233  0.4745 -0.8253
  853MOL0     H15116   9.320   5.776   7.135 -0.3213  0.9395 -0.8472
  853MOL0     H15117   9.037   6.113   7.075 -0.5685  0.7372  0.1505
  853MOL0     H15118   8.835   6.247   7.140 -1.1072 -0.8894 -1.7900
  853MOL0     H15119   8.537   6.087   7.471  1.0040 -1.9887  1.2299
  853MOL0     H15120   8.704   6.138   7.530 -0.4050  0.3290 -1.0538
  853MOL0     H15121   8.511   6.347   7.422  0.2530 -0.6015 -1.4694
  853MOL0     H15122   8.505   6.280   7.595 -1.2491 -2.3141 -1.4609
  853MOL0     H15123   8.729   6.364   7.630 -1.1070 -1.6786  0.3841
  853MOL0     H15124   8.741   6.404   7.452  3.1490 -2.8420  1.9601
  853MOL0     H15125   8.558   6.531   7.673  0.8511 -0.2889  0.3074
  853MOL0     H15126   8.569   6.575   7.492 -0.4503  1.2393  0.8953
  853MOL0     H15127   8.775   6.670   7.528  1.7381 -1.4307  1.3527
  853MOL0     H15128   8.786   6.589   7.690 -0.0143  0.2253 -0.7023
  853MOL0     H15129   8.565   6.790   7.640  0.2949  1.1773 -0.1777
  853MOL0     H15130   8.595   6.707   7.784 -1.1276 -0.9177 -0.2626
  853MOL0     H15131   8.649   6.913   7.794 -1.6771 -1.3448 -0.5399
  853MOL0     H15132   8.744   6.930   7.647 -2.2995  3.2429  1.0867
  853MOL0     H15133   8.930   6.788   7.763 -2.4727 -3.1720 -0.0012
  853MOL0     H15134   8.891   6.947   7.820  0.4177  0.5547 -2.7985
  853MOL0     H15135   8.721   5.913   7.406  0.0019 -0.4921 -0.9110
  853MOL0     H15136   8.893   5.776   7.295 -1.3175  0.1257  1.9129
  853MOL0     H15137   9.117   5.662   6.780 -1.0025 -0.5324 -0.5400
  853MOL0     H15138   9.332   5.517   6.715  1.3089 -1.2921 -0.4942
  853MOL0     H15139  10.142   5.710   6.181 -0.6505 -0.2537  2.6095
  853MOL0     H15140  10.301   5.794   6.342 -2.7565 -4.5541  2.4557
  853MOL0     H15141  10.675   5.893   6.446  0.3492 -0.9444 -1.3669
  853MOL0     H15142  10.832   6.028   6.595  1.7157  0.5742  2.8363
  853MOL0     H15143  10.843   5.885   6.970 -1.2705  0.4910 -3.2747
  853MOL0     H15144  10.934   6.031   6.987  0.0283  0.0570  0.6026
  853MOL0     H15145  11.096   5.768   6.934 -0.4058 -3.3101  1.7857
  853MOL0     H15146  11.012   5.781   7.082 -1.6704  3.1741  1.1813
  853MOL0     H15147  11.095   6.028   7.101 -0.6082  2.2959 -2.7551
  853MOL0     H15148  11.220   5.963   6.982  0.0427  0.4961 -0.0561
  853MOL0     H15149  11.259   5.975   7.234 -1.9400  0.3093  0.1069
  853MOL0     H15150  11.135   5.859   7.263 -2.3316  2.1258 -0.6539
  853MOL0     H15151  11.356   5.563   7.105 -3.2964  0.0642 -0.3482
  853MOL0     H15152  10.881   5.687   6.851 -0.9051  1.3425  0.2941
  853MOL0     H15153  10.750   5.496   6.834  0.5924  0.8249 -0.1323
  853MOL0     H15154  10.683   5.440   6.686 -0.3698  1.8843 -1.4475
  853MOL0     H15155  10.858   5.460   6.694  1.7985 -0.4603  3.2128
  854MOL0     O15156   7.871   5.039   0.891 -0.0872  0.4205  0.0523
  854MOL0     C15157   7.867   5.055   0.765 -1.1083  0.8754 -0.5545
  854MOL0     O15158   7.815   4.966   0.676 -0.3452  0.0818 -0.1726
  854MOL0     C15159   7.724   4.884   0.734  0.6488 -0.0148 -0.5267
  854MOL0     C15160   7.770   4.756   0.769  0.0535  0.3919  0.2010
  854MOL0     C15161   7.690   4.664   0.841 -0.6603 -0.2279  0.3875
  854MOL0     C15162   7.561   4.707   0.876 -0.5180  0.0773 -0.2669
  854MOL0     O15163   7.481   4.631   0.949 -0.4982  0.3596 -0.1055
  854MOL0     C15164   7.530   4.495   0.977 -0.2567  0.7020  0.3488
  854MOL0     C15165   7.619   4.473   1.101  0.7391 -0.0426 -0.9107
  854MOL0     C15166   7.695   4.338   1.093  0.3925 -1.4878  0.3158
  854MOL0     C15167   7.812   4.325   1.190  0.0841  0.8126  0.2804
  854MOL0     C15168   7.850   4.187   1.231 -0.2550  0.9329  0.2040
  854MOL0     C15169   7.996   4.165   1.264 -1.1523 -0.3077 -0.5420
  854MOL0     C15170   8.009   4.018   1.287 -0.9280  0.5313  0.5336
  854MOL0     C15171   8.118   3.974   1.387 -0.2413 -0.6730 -0.8911
  854MOL0     N15172   8.245   4.044   1.354  0.5877  0.0755 -0.3036
  854MOL0     C15173   8.327   4.122   1.427  1.2124 -0.1223 -0.0683
  854MOL0     C15174   8.428   4.147   1.336  0.7108 -0.1401  0.0391
  854MOL0     C15175   8.543   4.237   1.353 -0.0619 -1.7559 -0.3882
  854MOL0     C15176   8.495   4.385   1.391  0.1068 -0.2781  0.5749
  854MOL0     C15177   8.615   4.453   1.457  0.4156  0.2285  0.0766
  854MOL0     C15178   8.731   4.482   1.371  0.4271  0.5005  0.6348
  854MOL0     O15179   8.691   4.525   1.239 -0.2698  0.3004 -1.0541
  854MOL0     C15180   8.799   4.564   1.162 -0.4679 -0.1005  0.8319
  854MOL0     C15181   8.940   4.565   1.194  0.7058  0.3923  0.3454
  854MOL0     C15182   9.031   4.611   1.097 -0.1140  0.1678 -0.3204
  854MOL0     C15183   8.983   4.654   0.970 -0.3746 -0.1518 -0.0176
  854MOL0     C15184   9.073   4.713   0.875  0.3507  0.6152  0.4887
  854MOL0     O15185   9.026   4.739   0.747  0.8702 -0.0012  0.1939
  854MOL0     C15186   9.095   4.779   0.640  0.1942  0.2545  0.4064
  854MOL0     C15187   9.010   4.827   0.535  0.3622 -0.2344  0.0907
  854MOL0     C15188   9.063   4.874   0.410  0.2479  0.5460 -2.1124
  854MOL0     C15189   9.205   4.867   0.398  0.8376 -0.9599  0.5266
  854MOL0     O15190   9.249   4.919   0.278  0.1352  0.5665 -0.3458
  854MOL0     C15191   9.381   4.957   0.270 -1.3918 -0.4547  0.5038
  854MOL0     C15192   9.413   5.015   0.132 -0.4162  0.2040  0.6661
  854MOL0     C15193   9.562   5.047   0.101  0.1179 -0.5080  0.0648
  854MOL0     C15194   9.654   5.022   0.226 -0.3866  0.5814  0.5235
  854MOL0     C15195   9.796   5.052   0.192 -0.6629  0.0405  0.5171
  854MOL0     C15196   9.878   5.020   0.316 -0.6180  0.2290 -0.3584
  854MOL0     C15197  10.032   5.023   0.287  0.7843  0.5486  0.6006
  854MOL0     C15198  10.088   5.151   0.228 -0.8898 -1.0650  0.6297
  854MOL0    Cl15199  10.260   5.121   0.185  0.2548  0.0812 -0.4237
  854MOL0     C15200   9.283   4.819   0.503 -0.3224 -0.0414  0.2949
  854MOL0     C15201   9.229   4.765   0.616  0.0469 -0.1499 -0.9690
  854MOL0     O15202   9.187   4.740   0.914  0.1550 -0.1950 -0.2521
  854MOL0     C15203   8.846   4.637   0.935 -0.1399  0.2562  0.3967
  854MOL0     C15204   8.765   4.578   1.026  0.4512  0.2912  0.0488
  854MOL0     N15205   8.401   4.074   1.221 -0.4918  0.3206  0.1694
  854MOL0     N15206   8.296   4.020   1.231  0.2061  0.3491 -0.3550
  854MOL0     C15207   7.519   4.833   0.829 -0.3038 -0.9626 -0.6084
  854MOL0     C15208   7.596   4.922   0.756 -0.1476  0.2889  0.5426
  854MOL0     C15209   7.971   5.141   0.706 -0.3319  0.0127  0.7598
  854MOL0     C15210   7.941   5.274   0.676  0.5283 -0.2455 -0.0633
  854MOL0     C15211   8.038   5.353   0.613 -0.3264 -1.1224  0.1694
  854MOL0     C15212   8.167   5.306   0.571  1.2006  0.4057 -1.8315
  854MOL0     O15213   8.247   5.388   0.505 -0.2498  0.1582  1.0057
  854MOL0     C15214   8.287   5.342   0.377 -0.1298  1.0539 -0.3970
  854MOL0     C15215   8.257   5.439   0.275 -0.3728  0.1382 -0.1095
  854MOL0     C15216   8.345   5.405   0.142 -0.1236  0.0130  0.6688
  854MOL0     C15217   8.319   5.492   0.028 -0.9122  0.6666  0.5477
  854MOL0     C15218   8.185   5.484  -0.029 -0.3624  0.2163 -0.5308
  854MOL0     C15219   8.073   5.495  -0.065  0.6722 -1.5857 -0.0507
  854MOL0     C15220   8.202   5.182   0.617  0.3644 -0.0916 -0.3894
  854MOL0     C15221   8.104   5.097   0.691 -0.2048  0.9669  0.3793
  854MOL0     C15222   8.160   4.966   0.745  0.5695 -0.5310  1.2114
  854MOL0     H15223   7.875   4.731   0.759  0.2981 -0.1784  3.2616
  854MOL0     H15224   7.736   4.577   0.886  0.7938 -0.6163 -1.7447
  854MOL0     H15225   7.435   4.443   0.992 -1.1218  0.9720 -3.2323
  854MOL0     H15226   7.567   4.454   0.882 -3.0811 -0.4326 -0.3769
  854MOL0     H15227   7.554   4.470   1.189 -0.1822  0.2196 -1.5679
  854MOL0     H15228   7.689   4.555   1.122  1.6645 -1.3140  1.4521
  854MOL0     H15229   7.727   4.320   0.990 -1.1544 -0.3055 -0.4131
  854MOL0     H15230   7.615   4.271   1.124 -2.2726  0.9089 -0.9287
  854MOL0     H15231   7.899   4.359   1.133  0.5291 -0.5901  0.1064
  854MOL0     H15232   7.786   4.383   1.279 -1.5691  1.3999 -0.5358
  854MOL0     H15233   7.785   4.161   1.315  0.2760  0.3564  0.4443
  854MOL0     H15234   7.820   4.117   1.153  0.1973  1.8613 -0.8325
  854MOL0     H15235   8.055   4.196   1.177 -3.4039  0.4078 -1.9202
  854MOL0     H15236   8.040   4.228   1.342  0.8377 -0.7850 -1.2058
  854MOL0     H15237   8.039   3.979   1.190  1.4071 -3.2465  2.5189
  854MOL0     H15238   7.922   3.964   1.328 -1.5047  2.1472  1.5422
  854MOL0     H15239   8.092   3.996   1.491 -1.6670  0.1743 -1.3927
  854MOL0     H15240   8.135   3.866   1.389 -0.0431 -0.6323  0.1045
  854MOL0     H15241   8.305   4.166   1.524  0.7511 -2.5775  1.0218
  854MOL0     H15242   8.621   4.193   1.415  1.2040 -0.2324 -0.8321
  854MOL0     H15243   8.586   4.257   1.254  2.8723  2.1188  1.4020
  854MOL0     H15244   8.461   4.438   1.301  1.6340 -1.8287 -0.9942
  854MOL0     H15245   8.407   4.380   1.455 -2.7674  2.8523 -2.6825
  854MOL0     H15246   8.637   4.399   1.550  0.7120 -1.1956 -0.7836
  854MOL0     H15247   8.571   4.545   1.497  0.7127 -0.2669  1.6114
  854MOL0     H15248   8.793   4.394   1.351 -1.9853 -0.4030 -4.5701
  854MOL0     H15249   8.795   4.563   1.409 -0.8993  1.4979  0.8154
  854MOL0     H15250   8.982   4.532   1.288 -0.9818 -1.8675  0.3768
  854MOL0     H15251   9.137   4.597   1.115  0.1898 -1.1950 -2.7289
  854MOL0     H15252   8.909   4.843   0.571  0.8042  0.3789  1.0913
  854MOL0     H15253   9.000   4.927   0.340  0.5685  3.6906 -0.2427
  854MOL0     H15254   9.402   5.023   0.355 -2.0991 -0.8022  0.9554
  854MOL0     H15255   9.435   4.863   0.285 -3.0232 -1.0426  3.6096
  854MOL0     H15256   9.375   4.935   0.068  1.1650 -1.2127  1.4122
  854MOL0     H15257   9.350   5.102   0.108 -3.1754 -1.7549  0.3629
  854MOL0     H15258   9.596   4.988   0.015 -1.9521 -2.5509  0.5615
  854MOL0     H15259   9.564   5.154   0.078 -3.4419 -0.4341 -0.5898
  854MOL0     H15260   9.650   4.917   0.256 -3.1621  0.7978  1.2230
  854MOL0     H15261   9.630   5.084   0.313 -1.7510 -0.7137  1.1196
  854MOL0     H15262   9.807   5.153   0.152  0.4035 -2.2573 -6.2630
  854MOL0     H15263   9.835   4.986   0.114  1.3657  1.8061 -0.0590
  854MOL0     H15264   9.853   5.086   0.399 -3.1813  0.9323 -1.6176
  854MOL0     H15265   9.857   4.920   0.356 -1.4876  0.5711  0.0675
  854MOL0     H15266  10.039   4.941   0.215 -2.3844 -0.8405  1.6730
  854MOL0     H15267  10.084   4.989   0.377 -3.6811  0.7016  3.5439
  854MOL0     H15268  10.026   5.176   0.141 -1.1472 -2.8726  0.2474
  854MOL0     H15269  10.072   5.232   0.300 -3.2598  1.7699 -2.7293
  854MOL0     H15270   9.391   4.817   0.498 -0.2101  1.0631  1.7319
  854MOL0     H15271   9.300   4.721   0.686  0.0564  1.6313  0.2255
  854MOL0     H15272   8.808   4.660   0.836 -0.2573  0.4419  0.4834
  854MOL0     H15273   8.662   4.568   0.994  1.2871 -0.0410 -2.8158
  854MOL0     H15274   7.422   4.862   0.868 -0.8701  0.2644 -2.7463
  854MOL0     H15275   7.558   5.015   0.713 -0.4671  0.3336  0.9108
  854MOL0     H15276   7.845   5.319   0.698  0.5691 -0.3647  0.3602
  854MOL0     H15277   8.014   5.457   0.590  2.8165 -0.6022 -1.2909
  854MOL0     H15278   8.231   5.250   0.359  0.7944  0.4724 -0.3556
  854MOL0     H15279   8.392   5.315   0.390  0.0018  2.2977  1.5419
  854MOL0     H15280   8.293   5.538   0.305  2.2024 -0.2307 -1.6742
  854MOL0     H15281   8.150   5.436   0.253 -0.1152  0.9339 -1.6208
  854MOL0     H15282   8.328   5.301   0.115 -0.1339 -0.1980  1.4707
  854MOL0     H15283   8.450   5.425   0.167 -1.2760  4.3031  3.1424
  854MOL0     H15284   8.338   5.596   0.059 -0.4000  0.3421  1.3461
  854MOL0     H15285   8.402   5.482  -0.043  2.5555  1.4912  4.1668
  854MOL0     H15286   7.968   5.501  -0.085  0.6175  0.4716  0.5487
  854MOL0     H15287   8.305   5.155   0.597  0.1102 -0.6173 -1.0221
  854MOL0     H15288   8.270   4.962   0.747  0.7654 -0.1232 -2.2774
  854MOL0     H15289   8.114   4.947   0.842 -2.4977  0.8111  0.1483
  854MOL0     H15290   8.122   4.882   0.686  0.3660 -0.7908  1.7042
  855MOL0     O15291   3.135  10.971   8.218 -0.2429  1.3796  0.6136
  855MOL0     C15292   3.161  10.951   8.339 -0.9933 -0.2689  0.1663
  855MOL0     O15293   3.158  10.834   8.403  0.0728  0.6905 -0.0115
  855MOL0     C15294   3.132  10.725   8.315  0.0122 -0.0539 -0.1114
  855MOL0     C15295   3.010  10.677   8.272  0.1108  0.2105 -0.6643
  855MOL0     C15296   3.001  10.552   8.207 -1.2783 -0.6288 -0.2480
  855MOL0     C15297   3.121  10.486   8.170 -0.4896 -0.6256 -0.4125
  855MOL0     O15298   3.124  10.372   8.095 -0.7904 -0.1215  0.1421
  855MOL0     C15299   3.007  10.342   8.016  0.2633 -0.8912 -0.4740
  855MOL0     C15300   3.050  10.245   7.909 -1.3089 -0.1855 -0.1163
  855MOL0     C15301   3.077  10.108   7.965 -0.1430 -0.1670  1.3476
  855MOL0     C15302   3.103   9.999   7.863 -0.0982 -0.3421  0.5671
  855MOL0     C15303   3.177   9.874   7.905 -1.0368  0.0287  0.1695
  855MOL0     C15304   3.330   9.899   7.908  0.6521  0.4417 -0.7376
  855MOL0     C15305   3.401   9.862   8.045 -0.0922  0.0471 -0.0837
  855MOL0     C15306   3.430   9.712   8.072  0.3973  0.3487  0.5643
  855MOL0     N15307   3.452   9.664   8.208  0.1076 -0.1003 -0.8696
  855MOL0     C15308   3.350   9.622   8.291 -0.2097  0.1062  0.0934
  855MOL0     C15309   3.401   9.633   8.410  0.3267  0.7888 -0.5857
  855MOL0     C15310   3.325   9.632   8.539  0.8185  0.1888 -0.3562
  855MOL0     C15311   3.280   9.486   8.562  0.5256 -0.5131 -0.4442
  855MOL0     C15312   3.397   9.382   8.581 -0.4624 -0.2648  0.5477
  855MOL0     C15313   3.363   9.279   8.689  0.1344  0.4439  0.7499
  855MOL0     O15314   3.239   9.219   8.656  0.1029 -0.0572  0.4651
  855MOL0     C15315   3.163   9.159   8.756 -0.5388 -0.1892 -0.8344
  855MOL0     C15316   3.204   9.149   8.892 -0.5280  0.2976  0.2464
  855MOL0     C15317   3.134   9.073   8.988  0.7318 -0.0726 -0.0871
  855MOL0     C15318   3.009   9.013   8.947 -0.0501  0.5330 -0.0761
  855MOL0     C15319   2.930   8.926   9.047  0.0186 -0.6836 -0.2791
  855MOL0     O15320   2.838   8.839   8.986 -0.8328 -0.1000  0.1947
  855MOL0     C15321   2.804   8.725   9.054 -0.2417  0.8719  0.0732
  855MOL0     C15322   2.850   8.611   8.999 -0.1008  0.5453 -0.0158
  855MOL0     C15323   2.816   8.491   9.059 -0.5683  0.6978  0.5410
  855MOL0     C15324   2.723   8.482   9.160 -0.0373  0.0988 -0.6525
  855MOL0     O15325   2.694   8.368   9.234  0.6100  0.4515 -0.5095
  855MOL0     C15326   2.703   8.237   9.177 -0.7774 -0.5020  0.0298
  855MOL0     C15327   2.566   8.169   9.197  0.9232  0.3344 -0.0479
  855MOL0     C15328   2.448   8.252   9.139 -0.4459  0.4368  0.3199
  855MOL0     C15329   2.314   8.182   9.148 -0.0327 -0.3719 -0.1422
  855MOL0     C15330   2.200   8.292   9.123 -0.0348 -0.7487  0.7747
  855MOL0     C15331   2.064   8.221   9.118  0.3547  0.4846 -0.0837
  855MOL0     C15332   1.955   8.332   9.100 -0.1079  0.0620 -0.2053
  855MOL0     C15333   1.815   8.285   9.064 -0.7255  0.6792 -0.2350
  855MOL0    Cl15334   1.681   8.395   9.116 -0.0158  0.0676  0.1402
  855MOL0     C15335   2.681   8.598   9.215  0.3418 -0.6343 -0.1836
  855MOL0     C15336   2.723   8.722   9.161  0.2614 -1.1048 -0.3290
  855MOL0     O15337   2.957   8.932   9.171  0.3408  0.7312  0.5041
  855MOL0     C15338   2.970   9.032   8.813 -0.3691  0.8637  0.0725
  855MOL0     C15339   3.045   9.106   8.725  0.1894 -0.2533 -0.2637
  855MOL0     N15340   3.542   9.641   8.405 -0.2367 -0.1963  0.5522
  855MOL0     N15341   3.569   9.665   8.277  0.2705  0.8129  0.2024
  855MOL0     C15342   3.246  10.541   8.201 -0.2729  0.3654 -0.6703
  855MOL0     C15343   3.252  10.654   8.281 -0.3486 -0.5977 -0.0352
  855MOL0     C15344   3.213  11.066   8.418  0.4393  0.1690 -0.8987
  855MOL0     C15345   3.301  11.041   8.523 -0.4423 -0.7183 -0.1419
  855MOL0     C15346   3.367  11.144   8.588  0.0849  0.3666  0.5778
  855MOL0     C15347   3.351  11.273   8.552  0.2408  0.4437  1.3236
  855MOL0     O15348   3.417  11.379   8.602 -0.1507 -0.8104  0.6469
  855MOL0     C15349   3.547  11.366   8.656 -0.3587  0.3104  0.0938
  855MOL0     C15350   3.554  11.391   8.806  0.0730  0.4555 -0.1189
  855MOL0     C15351   3.470  11.509   8.857 -0.2477  0.7460 -0.7615
  855MOL0     C15352   3.498  11.648   8.799  0.4872 -0.4884  1.2271
  855MOL0     C15353   3.635  11.698   8.798  0.1973  1.0613  0.6276
  855MOL0     C15354   3.753  11.737   8.784 -1.0849  0.0885  0.4961
  855MOL0     C15355   3.264  11.297   8.446  0.4617  0.0360 -0.0746
  855MOL0     C15356   3.193  11.194   8.379 -0.5233 -0.0351  0.4033
  855MOL0     C15357   3.101  11.245   8.273  0.1385 -0.0683 -0.3906
  855MOL0     H15358   2.914  10.720   8.300 -0.1360  0.5819 -2.0331
  855MOL0     H15359   2.909  10.500   8.183 -1.3688  0.1698 -1.7987
  855MOL0     H15360   2.929  10.292   8.075 -0.2991 -0.8749 -1.1899
  855MOL0     H15361   2.971  10.433   7.968  1.5022  0.1286  0.4701
  855MOL0     H15362   3.131  10.289   7.850 -2.8113  1.5950 -0.9651
  855MOL0     H15363   2.969  10.239   7.835 -3.2567  1.5318  1.7205
  855MOL0     H15364   2.986  10.067   8.008  0.2191 -1.2843  1.0668
  855MOL0     H15365   3.164  10.107   8.031  1.1310 -0.3592 -0.2577
  855MOL0     H15366   3.010   9.958   7.823 -2.4598  2.0083  3.1885
  855MOL0     H15367   3.146  10.037   7.770 -0.5177 -0.3125  0.3804
  855MOL0     H15368   3.143   9.828   7.998 -1.2852 -2.2274 -0.9493
  855MOL0     H15369   3.150   9.800   7.829 -2.0742  0.3994  0.1607
  855MOL0     H15370   3.368   9.849   7.819 -1.4949  2.8572 -3.1958
  855MOL0     H15371   3.351  10.005   7.891  2.2925 -0.0484 -2.0385
  855MOL0     H15372   3.329   9.886   8.124  3.9979  0.9692  3.7801
  855MOL0     H15373   3.483   9.933   8.060 -1.8553  2.1247  0.1372
  855MOL0     H15374   3.338   9.664   8.038 -0.2809  0.3169  2.3242
  855MOL0     H15375   3.516   9.690   8.009 -0.0028  0.5197 -0.0542
  855MOL0     H15376   3.246   9.615   8.259 -0.4398 -3.5452  1.1004
  855MOL0     H15377   3.396   9.651   8.620 -1.1139 -0.3477  1.5672
  855MOL0     H15378   3.240   9.702   8.541  0.9589  0.3646 -0.5361
  855MOL0     H15379   3.217   9.481   8.651  2.6244  1.6329  1.2919
  855MOL0     H15380   3.217   9.458   8.477  0.3284 -1.0722 -0.1200
  855MOL0     H15381   3.488   9.436   8.610 -0.1725 -1.2964  1.6023
  855MOL0     H15382   3.419   9.324   8.491  1.7394  0.8806  0.2787
  855MOL0     H15383   3.355   9.337   8.781  1.7647  1.0265  0.5640
  855MOL0     H15384   3.438   9.199   8.701 -0.7789 -0.4352  0.7001
  855MOL0     H15385   3.299   9.177   8.935 -0.3241  1.2017 -0.7520
  855MOL0     H15386   3.174   9.082   9.089 -0.2004  0.2791  0.2672
  855MOL0     H15387   2.911   8.634   8.912 -2.7612 -0.4727 -2.2764
  855MOL0     H15388   2.853   8.401   9.013  2.1667  1.3945  1.2236
  855MOL0     H15389   2.739   8.242   9.074 -3.9735  0.3472 -1.1781
  855MOL0     H15390   2.783   8.184   9.229  0.1399 -0.3082 -1.1729
  855MOL0     H15391   2.556   8.070   9.152 -1.9119  1.1879 -1.5180
  855MOL0     H15392   2.549   8.144   9.302  0.1709  1.6478  0.1638
  855MOL0     H15393   2.442   8.350   9.186 -1.5418  0.8208 -0.5779
  855MOL0     H15394   2.477   8.268   9.034  2.1725 -0.8272  0.7694
  855MOL0     H15395   2.301   8.155   9.253 -1.0862  0.1466 -0.1239
  855MOL0     H15396   2.297   8.099   9.079  0.2947 -0.2275 -0.3963
  855MOL0     H15397   2.204   8.349   9.030 -0.4123 -0.6667  0.8069
  855MOL0     H15398   2.201   8.368   9.201  1.5674 -0.4154  0.4743
  855MOL0     H15399   2.058   8.161   9.027  0.5231  1.2772 -0.6269
  855MOL0     H15400   2.038   8.150   9.197  1.5486 -0.8156 -0.8210
  855MOL0     H15401   2.003   8.406   9.036 -0.1251  2.9251  2.8391
  855MOL0     H15402   1.947   8.379   9.198  1.9439  0.1933 -0.0590
  855MOL0     H15403   1.805   8.274   8.956 -3.3280  3.4476 -0.4088
  855MOL0     H15404   1.799   8.189   9.113  0.3454  0.0599 -1.0678
  855MOL0     H15405   2.620   8.599   9.305  0.7832  1.8874  0.1392
  855MOL0     H15406   2.694   8.819   9.200  1.8804  0.1071 -2.0171
  855MOL0     H15407   2.887   8.982   8.765  1.5253 -0.1045 -2.4571
  855MOL0     H15408   3.014   9.125   8.622  1.5105 -1.7103 -0.9771
  855MOL0     H15409   3.328  10.474   8.175  0.3379  0.3875  1.0602
  855MOL0     H15410   3.342  10.706   8.310  0.0682 -3.7094  5.8613
  855MOL0     H15411   3.332  10.938   8.535 -0.5231 -0.7765 -0.4381
  855MOL0     H15412   3.446  11.126   8.661  1.9940  0.7376 -1.2883
  855MOL0     H15413   3.589  11.452   8.604 -1.8442  0.1203 -1.5054
  855MOL0     H15414   3.602  11.277   8.624 -1.5027  0.2301 -1.7776
  855MOL0     H15415   3.655  11.412   8.842 -0.5801  1.9068  0.9462
  855MOL0     H15416   3.524  11.300   8.859  1.7101 -0.9270 -1.4346
  855MOL0     H15417   3.487  11.513   8.965  1.1138 -0.1474 -0.9183
  855MOL0     H15418   3.369  11.473   8.836  0.6593 -1.1422 -2.1752
  855MOL0     H15419   3.446  11.652   8.703 -0.8318  1.0917  1.9564
  855MOL0     H15420   3.448  11.726   8.858  1.1346  1.5137 -0.7671
  855MOL0     H15421   3.857  11.760   8.785 -1.5263  2.3969  2.8384
  855MOL0     H15422   3.251  11.398   8.410  0.7383  1.1065  2.6253
  855MOL0     H15423   3.005  11.193   8.280 -0.5378  0.9195 -1.8816
  855MOL0     H15424   3.073  11.349   8.294 -1.9934 -0.7459  0.4380
  855MOL0     H15425   3.136  11.226   8.171 -4.6500 -0.7682 -2.1737
  856MOL0     O15426   3.290   4.644   1.108  0.9117  0.5343  0.9276
  856MOL0     C15427   3.222   4.680   1.012  0.1292  0.1962  0.3486
  856MOL0     O15428   3.263   4.703   0.883  0.2286 -0.2447  0.5876
  856MOL0     C15429   3.396   4.732   0.853  0.8513 -0.0667  0.5305
  856MOL0     C15430   3.437   4.859   0.863  0.1903 -0.2560 -0.6026
  856MOL0     C15431   3.574   4.888   0.847  0.0242 -0.3109 -1.2680
  856MOL0     C15432   3.665   4.782   0.816 -0.2798  0.6275  0.5988
  856MOL0     O15433   3.802   4.819   0.801 -0.4574 -0.2784 -0.2368
  856MOL0     C15434   3.907   4.736   0.836  0.3453  0.4959 -0.6322
  856MOL0     C15435   4.044   4.796   0.834  0.4284  0.9231  0.8538
  856MOL0     C15436   4.109   4.824   0.695  0.1950 -0.2705  0.1948
  856MOL0     C15437   4.238   4.921   0.675  1.1191  0.0837 -0.6447
  856MOL0     C15438   4.286   4.933   0.528  0.0469  0.3855  0.7482
  856MOL0     C15439   4.357   4.806   0.483 -0.0118  0.2468 -0.5341
  856MOL0     C15440   4.372   4.800   0.332  0.3455  0.2182  0.3157
  856MOL0     C15441   4.480   4.902   0.289  0.8401 -0.2229  0.6408
  856MOL0     N15442   4.618   4.864   0.314  0.0111 -0.3713 -0.0946
  856MOL0     C15443   4.717   4.903   0.242 -0.7012 -0.0908  0.2175
  856MOL0     C15444   4.830   4.848   0.296  0.2476  0.5251 -0.1679
  856MOL0     C15445   4.972   4.865   0.241  0.9017  0.3336  0.1441
  856MOL0     C15446   4.992   4.759   0.136  0.2342  0.2182  0.3355
  856MOL0     C15447   5.031   4.630   0.206 -0.2674  0.3799 -0.5685
  856MOL0     C15448   5.097   4.535   0.106  0.0567  0.0581  0.3677
  856MOL0     O15449   5.132   4.417   0.183  0.4172 -0.2789 -0.4682
  856MOL0     C15450   5.253   4.352   0.157  0.1789  0.6041  0.4249
  856MOL0     C15451   5.295   4.257   0.245 -0.4244  0.9704 -0.4828
  856MOL0     C15452   5.421   4.188   0.232 -0.1386  0.8473  0.8036
  856MOL0     C15453   5.514   4.232   0.131  0.5814  0.0188  0.6637
  856MOL0     C15454   5.663   4.178   0.132  0.0485 -0.4082  0.1204
  856MOL0     O15455   5.759   4.215   0.050  0.0387 -0.5185  0.6453
  856MOL0     C15456   5.883   4.159   0.042 -0.2970 -0.3318  0.2735
  856MOL0     C15457   6.004   4.236   0.038  0.1036  0.6675 -0.0814
  856MOL0     C15458   6.133   4.175   0.020  0.2344  0.5239 -0.1432
  856MOL0     C15459   6.146   4.034   0.009 -0.4580  0.3272 -1.0288
  856MOL0     O15460   6.273   3.975  -0.004 -0.7019  0.5833  0.3750
  856MOL0     C15461   6.284   3.830   0.006  1.1761 -1.2757 -0.1457
  856MOL0     C15462   6.429   3.797   0.035  0.8972  0.5168 -0.1278
  856MOL0     C15463   6.522   3.829  -0.082 -0.8096 -0.3620  0.7931
  856MOL0     C15464   6.596   3.700  -0.120  0.0428  0.4726  0.2094
  856MOL0     C15465   6.727   3.732  -0.184 -0.5186 -0.3708 -0.6144
  856MOL0     C15466   6.806   3.604  -0.213 -0.0716  0.2644 -0.6181
  856MOL0     C15467   6.949   3.634  -0.258 -0.0741 -0.2817  0.1069
  856MOL0     C15468   7.028   3.502  -0.259  0.5480 -0.2107  0.5625
  856MOL0    Cl15469   7.197   3.547  -0.267  0.1208 -0.4040 -0.4559
  856MOL0     C15470   6.025   3.961   0.023 -0.7736  0.1227  0.5352
  856MOL0     C15471   5.899   4.023   0.039 -0.1749  0.6753  0.4996
  856MOL0     O15472   5.674   4.095   0.225 -0.4225  0.2529 -0.2468
  856MOL0     C15473   5.474   4.324   0.033  0.2460 -0.2942  0.1818
  856MOL0     C15474   5.349   4.384   0.052  0.3949 -0.0846 -1.0803
  856MOL0     N15475   4.789   4.758   0.384 -0.3047  0.2169 -0.6586
  856MOL0     N15476   4.658   4.762   0.396 -0.7539  0.2907  0.2241
  856MOL0     C15477   3.615   4.648   0.803 -0.4557  0.1622 -0.3847
  856MOL0     C15478   3.482   4.620   0.831 -0.2267 -0.0771  0.7488
  856MOL0     C15479   3.076   4.695   1.038  0.3061  0.2209 -0.3931
  856MOL0     C15480   2.992   4.750   0.940 -0.2510 -0.4660  0.4639
  856MOL0     C15481   2.853   4.779   0.956  0.3851 -0.3394  0.7707
  856MOL0     C15482   2.776   4.714   1.054 -0.2043  0.0279 -0.3057
  856MOL0     O15483   2.638   4.693   1.049  0.0810  0.1767  0.7653
  856MOL0     C15484   2.566   4.770   0.955 -0.5574  0.2054 -0.7843
  856MOL0     C15485   2.559   4.704   0.816 -0.0075  0.1074  0.4097
  856MOL0     C15486   2.473   4.779   0.710  0.4559  0.1079 -0.5058
  856MOL0     C15487   2.560   4.857   0.614  0.8325 -0.3299 -0.7269
  856MOL0     C15488   2.620   4.977   0.670 -1.2204 -0.5132  0.5737
  856MOL0     C15489   2.670   5.075   0.719 -0.3188  0.1056  0.0782
  856MOL0     C15490   2.855   4.657   1.152  0.1269 -0.8608  0.1932
  856MOL0     C15491   2.999   4.638   1.151 -0.0032 -0.0859  0.5152
  856MOL0     C15492   3.056   4.559   1.266  1.3125 -0.1494 -0.0130
  856MOL0     H15493   3.366   4.940   0.870  1.0936  0.5419 -0.4086
  856MOL0     H15494   3.603   4.992   0.851  0.1339 -0.3634  2.3413
  856MOL0     H15495   3.879   4.708   0.938  1.5877 -1.9007 -0.8615
  856MOL0     H15496   3.898   4.647   0.772 -0.7329  0.5807 -0.6060
  856MOL0     H15497   4.116   4.733   0.886  0.1595  0.7306  0.9994
  856MOL0     H15498   4.030   4.896   0.878  1.6671  0.7983  1.5851
  856MOL0     H15499   4.032   4.854   0.623  0.1703 -3.4006 -1.2747
  856MOL0     H15500   4.129   4.726   0.651  2.3268  0.4881 -0.6724
  856MOL0     H15501   4.203   5.013   0.723  0.3269 -1.6386  2.2575
  856MOL0     H15502   4.333   4.895   0.723  1.4012  0.4762 -0.9686
  856MOL0     H15503   4.211   4.978   0.462  0.4202 -0.2688 -0.1429
  856MOL0     H15504   4.367   5.007   0.523  0.3692 -0.0130 -2.7476
  856MOL0     H15505   4.454   4.808   0.534 -0.8110  0.1540  1.0417
  856MOL0     H15506   4.297   4.726   0.528 -2.3809  2.8246  1.1746
  856MOL0     H15507   4.278   4.816   0.277  0.1509 -1.6762  0.0208
  856MOL0     H15508   4.412   4.701   0.312  0.4543  0.6662 -1.9403
  856MOL0     H15509   4.475   4.917   0.181 -0.9898  1.5576  0.8924
  856MOL0     H15510   4.461   4.999   0.337 -0.5161  0.2283 -0.7394
  856MOL0     H15511   4.726   4.979   0.166 -1.1983  0.3783  0.6174
  856MOL0     H15512   4.987   4.962   0.194  3.7147  0.6524  1.5031
  856MOL0     H15513   5.046   4.866   0.321  0.8419  1.8633  0.2192
  856MOL0     H15514   4.901   4.744   0.078 -0.7059  0.0382  1.8004
  856MOL0     H15515   5.072   4.794   0.070 -0.0202  0.3588  0.1019
  856MOL0     H15516   4.945   4.571   0.240  1.1346 -1.0843  0.6015
  856MOL0     H15517   5.098   4.645   0.291 -0.8318  1.3740 -0.2745
  856MOL0     H15518   5.187   4.584   0.068 -1.7920  1.6874 -2.2114
  856MOL0     H15519   5.027   4.514   0.025 -0.0740 -0.6434  0.6539
  856MOL0     H15520   5.223   4.213   0.313 -0.4236  0.1012 -1.0253
  856MOL0     H15521   5.453   4.109   0.299 -0.9608 -1.8337 -1.7572
  856MOL0     H15522   5.985   4.342   0.032 -0.5187  0.5200 -4.7340
  856MOL0     H15523   6.218   4.243   0.022  0.8167 -0.1556  2.3469
  856MOL0     H15524   6.233   3.799   0.098  3.1782 -0.9066  1.1699
  856MOL0     H15525   6.244   3.791  -0.087 -2.9559  1.7011  0.1181
  856MOL0     H15526   6.461   3.849   0.126  0.9072 -1.8361  1.3001
  856MOL0     H15527   6.433   3.692   0.067  0.5821 -0.3197 -2.5729
  856MOL0     H15528   6.475   3.876  -0.168  2.4931  1.7940 -0.0022
  856MOL0     H15529   6.603   3.895  -0.048 -1.0644  1.3673 -1.7018
  856MOL0     H15530   6.540   3.631  -0.183  1.2526  0.4397 -0.8666
  856MOL0     H15531   6.609   3.642  -0.027 -1.3240 -0.4045 -0.1186
  856MOL0     H15532   6.786   3.806  -0.129 -1.8081  1.3551 -1.4640
  856MOL0     H15533   6.707   3.776  -0.282  0.4960 -0.4441 -0.8658
  856MOL0     H15534   6.815   3.552  -0.117 -0.2412  0.4446 -0.5040
  856MOL0     H15535   6.756   3.547  -0.293 -0.8867  1.2345 -0.8089
  856MOL0     H15536   6.998   3.710  -0.196  2.7127 -1.4050 -0.5500
  856MOL0     H15537   6.936   3.672  -0.359  2.6131 -0.9906 -0.6000
  856MOL0     H15538   7.003   3.450  -0.166 -0.6095 -2.5441 -0.9469
  856MOL0     H15539   6.994   3.425  -0.328 -0.3830 -0.6851  1.5254
  856MOL0     H15540   6.029   3.853   0.029  2.7350  0.1494  0.2911
  856MOL0     H15541   5.810   3.961   0.047  0.4775 -0.4558 -0.7893
  856MOL0     H15542   5.540   4.374  -0.038  1.2144 -1.6188  0.1046
  856MOL0     H15543   5.327   4.466  -0.015  2.0632  1.6535  0.3807
  856MOL0     H15544   3.681   4.563   0.793  0.4465  0.9367 -1.3391
  856MOL0     H15545   3.441   4.520   0.824 -3.3779  1.0004  2.2045
  856MOL0     H15546   3.041   4.780   0.849  0.2589 -1.2676  0.4665
  856MOL0     H15547   2.816   4.820   0.862  2.5816 -1.9182 -0.8925
  856MOL0     H15548   2.605   4.871   0.937 -2.3055  1.1228  0.2570
  856MOL0     H15549   2.461   4.786   0.984 -1.1920  0.8619 -3.2234
  856MOL0     H15550   2.500   4.614   0.837 -1.6751  1.7971  3.8082
  856MOL0     H15551   2.651   4.673   0.767  0.6910  1.3568  0.8916
  856MOL0     H15552   2.408   4.856   0.751  0.9666 -0.0030  0.5281
  856MOL0     H15553   2.412   4.709   0.652 -1.9851  4.1158 -3.3065
  856MOL0     H15554   2.639   4.796   0.569  0.8634 -1.1880  0.4453
  856MOL0     H15555   2.500   4.881   0.526 -0.8872 -1.2900  0.1344
  856MOL0     H15556   2.715   5.169   0.741  0.5171 -0.3839  0.4917
  856MOL0     H15557   2.799   4.614   1.234  0.3026  0.3243  0.9545
  856MOL0     H15558   3.109   4.618   1.342  1.3887  0.1598 -0.3034
  856MOL0     H15559   2.973   4.514   1.320  0.1470  0.5025 -1.2144
  856MOL0     H15560   3.121   4.476   1.235 -1.2315 -2.7940  1.2300
  857MOL0     O15561   4.528   4.156  10.020  0.3125 -0.6914  0.3877
  857MOL0     C15562   4.499   4.101  10.130 -0.2496  0.4639 -0.1854
  857MOL0     O15563   4.588   4.042  10.217 -0.0392  0.3320 -0.3990
  857MOL0     C15564   4.727   4.043  10.181  0.8490  0.9046 -0.7132
  857MOL0     C15565   4.797   4.168  10.155 -0.5849  0.4806 -1.2884
  857MOL0     C15566   4.935   4.166  10.137  0.6052  0.6407  0.4803
  857MOL0     C15567   5.011   4.045  10.139  0.3404 -0.0017 -0.9764
  857MOL0     O15568   5.156   4.046  10.143  0.0984  1.3960  0.0313
  857MOL0     C15569   5.215   3.982  10.255 -0.1234  0.2142 -0.4272
  857MOL0     C15570   5.307   3.862  10.210 -0.1891 -1.1288  0.1984
  857MOL0     C15571   5.449   3.904  10.160  0.4123  0.5437  0.1570
  857MOL0     C15572   5.506   3.780  10.095 -0.1910  0.7990  0.6326
  857MOL0     C15573   5.658   3.797  10.066  0.0027  0.3994  0.2841
  857MOL0     C15574   5.715   3.663  10.012 -0.5847  0.1811 -0.8957
  857MOL0     C15575   5.856   3.679   9.946  0.3449 -0.8895 -0.3376
  857MOL0     C15576   5.954   3.791  10.000  1.0744  0.2402 -0.7145
  857MOL0     N15577   6.072   3.803   9.911  0.6125 -0.2484 -0.5532
  857MOL0     C15578   6.148   3.708   9.843 -0.4395  0.2493 -0.5754
  857MOL0     C15579   6.243   3.784   9.779 -0.3320 -0.1680  0.2002
  857MOL0     C15580   6.366   3.727   9.710  0.5275 -0.6222 -0.5078
  857MOL0     C15581   6.488   3.815   9.753  0.1472  0.3514 -0.3847
  857MOL0     C15582   6.618   3.744   9.767 -0.7417 -0.2169  0.1925
  857MOL0     C15583   6.726   3.846   9.809  0.6161 -0.5387 -0.9357
  857MOL0     O15584   6.737   3.970   9.741  0.4015  0.3407 -0.1785
  857MOL0     C15585   6.801   3.979   9.617  0.7375  1.0741 -0.0296
  857MOL0     C15586   6.863   4.103   9.596  0.3787  0.7804  0.6685
  857MOL0     C15587   6.921   4.139   9.482  0.4057 -0.1595  0.0454
  857MOL0     C15588   6.936   4.045   9.383  0.2188 -0.4025  0.6022
  857MOL0     C15589   7.026   4.071   9.262 -0.1670  0.1658 -0.5669
  857MOL0     O15590   7.011   4.002   9.147 -0.2722 -0.5118 -0.3129
  857MOL0     C15591   7.085   4.021   9.032 -0.5704 -0.5318  0.1796
  857MOL0     C15592   7.078   4.149   8.965 -0.1960  0.5143 -0.5449
  857MOL0     C15593   7.131   4.166   8.837 -0.0004 -0.0282  0.7542
  857MOL0     C15594   7.197   4.059   8.774  0.8856 -0.2136  0.6257
  857MOL0     O15595   7.231   4.083   8.643  0.1377 -0.2461 -0.2615
  857MOL0     C15596   7.284   3.975   8.562  0.0166 -0.3433  0.4080
  857MOL0     C15597   7.436   3.971   8.586  0.4787  0.2452  0.4211
  857MOL0     C15598   7.521   3.914   8.480 -0.0251 -0.2656 -0.1085
  857MOL0     C15599   7.479   3.772   8.429  0.1193 -0.0363 -0.0596
  857MOL0     C15600   7.596   3.728   8.349  0.3662 -0.8150  0.3202
  857MOL0     C15601   7.580   3.585   8.291  0.3139 -0.1232 -0.8522
  857MOL0     C15602   7.613   3.480   8.399  0.0138 -0.0095  0.1169
  857MOL0     C15603   7.584   3.350   8.329  1.0043  0.4604  0.1181
  857MOL0    Cl15604   7.602   3.193   8.400  0.1583 -0.0583  0.2031
  857MOL0     C15605   7.217   3.950   8.852 -0.3233  0.4637  1.0564
  857MOL0     C15606   7.150   3.919   8.967  0.3869 -0.7008  0.1892
  857MOL0     O15607   7.111   4.151   9.283  0.3524 -0.3191  0.5631
  857MOL0     C15608   6.892   3.910   9.405 -0.1565  0.5945 -0.7250
  857MOL0     C15609   6.824   3.875   9.522 -0.1800 -0.4402 -0.1580
  857MOL0     N15610   6.213   3.916   9.798 -0.0759  0.5028 -0.0848
  857MOL0     N15611   6.114   3.930   9.874  1.4790  0.6589  0.1241
  857MOL0     C15612   4.944   3.924  10.171  0.8034 -0.7185  0.3359
  857MOL0     C15613   4.803   3.928  10.191  1.1483  0.5871  0.3273
  857MOL0     C15614   4.362   4.088  10.173  0.1867 -0.0055  1.3655
  857MOL0     C15615   4.334   4.061  10.310  0.9722 -0.9173  0.5180
  857MOL0     C15616   4.212   4.092  10.363  0.3242  0.4423 -0.0839
  857MOL0     C15617   4.109   4.133  10.289  0.1186  0.0588 -0.3008
  857MOL0     O15618   3.990   4.165  10.359  1.0264 -0.3429  1.0558
  857MOL0     C15619   3.856   4.137  10.307  0.0420  1.2948  0.8677
  857MOL0     C15620   3.779   4.042  10.391  0.3642 -0.4675 -0.2718
  857MOL0     C15621   3.847   3.913  10.429 -0.1986 -0.6933  0.0389
  857MOL0     C15622   3.855   3.804  10.323 -0.0587  0.1808  0.4806
  857MOL0     C15623   3.914   3.679  10.367 -0.9316 -0.1006  0.0041
  857MOL0     C15624   3.951   3.559  10.372 -0.9152  0.2632  0.2478
  857MOL0     C15625   4.123   4.134  10.154 -0.5799 -0.3490  0.0314
  857MOL0     C15626   4.247   4.123  10.085  0.2096  0.7887  0.2381
  857MOL0     C15627   4.256   4.171   9.943 -1.0756 -0.0411  0.6441
  857MOL0     H15628   4.740   4.260  10.166  0.4335  1.0055 -0.0827
  857MOL0     H15629   4.992   4.259  10.140  1.6329  0.0155  1.0680
  857MOL0     H15630   5.276   4.055  10.309  2.1535 -3.0787  1.8413
  857MOL0     H15631   5.147   3.940  10.331  0.9108 -0.3295  0.2257
  857MOL0     H15632   5.251   3.816  10.128 -0.6729 -0.8961  0.3945
  857MOL0     H15633   5.326   3.792  10.292 -1.0656  0.6735  2.0094
  857MOL0     H15634   5.518   3.931  10.240  0.8437  1.1854 -0.4254
  857MOL0     H15635   5.445   3.983  10.084  3.7439  0.1429 -0.5683
  857MOL0     H15636   5.492   3.688  10.153 -2.8568 -0.8235 -2.2875
  857MOL0     H15637   5.455   3.759  10.001 -2.2153  2.8644  1.1756
  857MOL0     H15638   5.681   3.871   9.989  3.1821  0.5712  1.2632
  857MOL0     H15639   5.707   3.829  10.159 -0.0802  0.9176  0.1522
  857MOL0     H15640   5.727   3.593  10.095  0.8911 -0.5599 -1.6855
  857MOL0     H15641   5.654   3.626   9.928  1.8445 -1.1007 -2.2070
  857MOL0     H15642   5.847   3.694   9.838 -1.4745  0.5279 -0.0376
  857MOL0     H15643   5.898   3.583   9.978  2.4454  0.5366  1.4693
  857MOL0     H15644   5.902   3.887  10.009  3.3275  1.3799  1.3495
  857MOL0     H15645   5.987   3.762  10.100 -0.9063  0.9149  0.1743
  857MOL0     H15646   6.136   3.600   9.844 -0.2443  0.2229  0.3323
  857MOL0     H15647   6.391   3.623   9.733  1.4575  0.0774  2.0510
  857MOL0     H15648   6.354   3.743   9.602 -0.1346  0.1828 -0.3299
  857MOL0     H15649   6.490   3.897   9.681 -0.4649  2.0143  1.3997
  857MOL0     H15650   6.468   3.854   9.853  1.3020  0.7000 -0.2771
  857MOL0     H15651   6.647   3.691   9.676 -0.6823  0.3642 -0.1328
  857MOL0     H15652   6.609   3.667   9.844  0.7559 -0.9706 -0.3416
  857MOL0     H15653   6.826   3.803   9.816  0.2032 -1.5539 -1.1417
  857MOL0     H15654   6.686   3.881   9.905  0.5516  2.1398 -1.8510
  857MOL0     H15655   6.853   4.178   9.673  0.2061  2.6455 -1.1031
  857MOL0     H15656   6.956   4.240   9.462  0.5881 -0.1399  0.4529
  857MOL0     H15657   7.038   4.236   9.016  3.8318  1.6369  1.0705
  857MOL0     H15658   7.104   4.255   8.781  3.0026 -0.0215 -0.9234
  857MOL0     H15659   7.238   3.878   8.581 -1.9038  0.2891 -0.7386
  857MOL0     H15660   7.270   3.998   8.456  0.2096 -2.5016 -0.1271
  857MOL0     H15661   7.461   4.075   8.609  2.9701 -0.3744  0.8827
  857MOL0     H15662   7.453   3.923   8.683 -1.0836 -1.1570  0.0345
  857MOL0     H15663   7.526   3.971   8.387  1.8769 -1.6351 -0.9112
  857MOL0     H15664   7.622   3.915   8.523  0.3530  1.5025 -0.9536
  857MOL0     H15665   7.393   3.766   8.362  0.3281  1.4603 -0.4983
  857MOL0     H15666   7.454   3.714   8.518  1.7486 -1.3494 -0.4137
  857MOL0     H15667   7.670   3.737   8.429 -1.7899  0.5792  2.3040
  857MOL0     H15668   7.628   3.784   8.261  0.3268 -2.0308 -0.4992
  857MOL0     H15669   7.477   3.571   8.258  0.1797 -0.3289 -0.3521
  857MOL0     H15670   7.646   3.579   8.204 -0.0329  1.9305 -1.3011
  857MOL0     H15671   7.552   3.488   8.489  2.9866  0.6461  2.2363
  857MOL0     H15672   7.721   3.480   8.418 -0.0835  1.1163  0.7688
  857MOL0     H15673   7.478   3.365   8.308  0.7019  0.0767  1.3089
  857MOL0     H15674   7.625   3.354   8.228 -3.6145 -0.2543 -2.0561
  857MOL0     H15675   7.276   3.872   8.804 -1.8477  0.3666 -0.7360
  857MOL0     H15676   7.150   3.823   9.017 -0.2486  0.1040  1.8248
  857MOL0     H15677   6.922   3.824   9.345 -0.6011 -1.9670  2.4130
  857MOL0     H15678   6.801   3.770   9.538  0.2077 -0.2986  1.5946
  857MOL0     H15679   5.007   3.836  10.177  1.4332 -0.2125  1.4540
  857MOL0     H15680   4.741   3.840  10.207  0.1349  1.5121  1.6674
  857MOL0     H15681   4.412   4.042  10.384  2.6655  2.3959 -0.2359
  857MOL0     H15682   4.194   4.057  10.464  2.6802 -1.6102 -0.2732
  857MOL0     H15683   3.867   4.086  10.211  1.8972 -3.3461  3.2107
  857MOL0     H15684   3.800   4.230  10.295 -0.1980  1.0003 -0.5043
  857MOL0     H15685   3.687   4.028  10.334  0.4428  1.8808 -1.1331
  857MOL0     H15686   3.763   4.094  10.486  2.2055  1.0069 -0.7063
  857MOL0     H15687   3.788   3.871  10.510  1.9763  1.2450  2.8329
  857MOL0     H15688   3.945   3.935  10.474 -0.2676 -0.8852  0.2859
  857MOL0     H15689   3.755   3.773  10.292  1.1115  0.2691 -4.0740
  857MOL0     H15690   3.889   3.835  10.224 -0.4184 -2.3537 -0.5124
  857MOL0     H15691   3.967   3.453  10.380 -0.4880  0.3953  1.3833
  857MOL0     H15692   4.036   4.173  10.104  0.9762  2.9772 -0.3572
  857MOL0     H15693   4.309   4.265   9.924 -2.9155  0.8021 -0.6734
  857MOL0     H15694   4.305   4.100   9.876 -1.7039  0.6239 -0.5736
  857MOL0     H15695   4.153   4.193   9.911 -0.6423 -0.5254 -1.2176
  858MOL0     O15696   7.681   7.541   2.101 -0.0618 -0.4139 -0.4860
  858MOL0     C15697   7.659   7.663   2.113 -0.4538 -0.2691 -0.1499
  858MOL0     O15698   7.741   7.750   2.176 -0.4204  0.4342  0.1984
  858MOL0     C15699   7.831   7.700   2.262 -0.4814 -0.6281  0.0677
  858MOL0     C15700   7.791   7.610   2.364 -0.3499  0.7530  1.2154
  858MOL0     C15701   7.877   7.554   2.451 -0.5321  0.3713 -0.0880
  858MOL0     C15702   8.017   7.584   2.442 -0.1844  0.7526  0.4254
  858MOL0     O15703   8.114   7.541   2.527  0.0246  0.0796 -0.9500
  858MOL0     C15704   8.078   7.421   2.598 -0.4579 -1.1047 -0.3531
  858MOL0     C15705   8.190   7.332   2.633  0.2083  0.4401 -0.8517
  858MOL0     C15706   8.214   7.219   2.522  0.2350 -0.7413  0.3288
  858MOL0     C15707   8.333   7.138   2.559  0.6971 -0.4576  0.2748
  858MOL0     C15708   8.381   7.037   2.445 -0.0901 -0.0277 -0.6207
  858MOL0     C15709   8.289   6.917   2.438  0.1324  0.4208  0.6155
  858MOL0     C15710   8.316   6.821   2.330  0.2781 -0.5810  0.5005
  858MOL0     C15711   8.460   6.753   2.348 -0.3453  0.8268 -0.0341
  858MOL0     N15712   8.494   6.684   2.225 -0.1710 -0.1843 -0.0737
  858MOL0     C15713   8.525   6.750   2.112 -0.9352 -0.3795  0.1424
  858MOL0     C15714   8.533   6.643   2.025 -0.3199 -0.1864  0.1539
  858MOL0     C15715   8.577   6.672   1.887  0.0066 -0.5322  1.0589
  858MOL0     C15716   8.536   6.572   1.777  0.6323  0.4743 -0.5113
  858MOL0     C15717   8.581   6.609   1.641 -0.3555  0.1117 -0.0568
  858MOL0     C15718   8.729   6.566   1.612  0.0754  0.0663 -0.4119
  858MOL0     O15719   8.772   6.597   1.478 -0.5571 -0.2811  0.0679
  858MOL0     C15720   8.897   6.551   1.435  0.6846  0.4058 -0.7053
  858MOL0     C15721   8.969   6.447   1.504  0.2868 -0.3861  0.4376
  858MOL0     C15722   9.090   6.402   1.442 -0.0551  0.6211 -0.1373
  858MOL0     C15723   9.141   6.447   1.323 -0.2676 -1.1315  0.4692
  858MOL0     C15724   9.265   6.393   1.277  0.1463  0.8366 -0.3982
  858MOL0     O15725   9.364   6.346   1.365 -0.3940  0.4572  0.1003
  858MOL0     C15726   9.488   6.315   1.314 -0.4308  0.8516  0.4419
  858MOL0     C15727   9.543   6.380   1.206  0.2064 -0.7086  0.7163
  858MOL0     C15728   9.678   6.347   1.165  0.2292 -0.3075 -0.1798
  858MOL0     C15729   9.752   6.256   1.235 -0.1565 -0.2564 -0.3543
  858MOL0     O15730   9.878   6.234   1.191  0.4141 -0.1451  0.1812
  858MOL0     C15731   9.941   6.109   1.197 -0.1569  0.0703 -0.1530
  858MOL0     C15732   9.986   6.062   1.053  0.5908  0.5616 -0.3981
  858MOL0     C15733  10.015   5.913   1.032 -0.0168  0.0423 -0.0438
  858MOL0     C15734  10.100   5.841   1.133  0.6080  0.4429 -0.0808
  858MOL0     C15735  10.120   5.695   1.086  0.3236 -0.4035  0.3366
  858MOL0     C15736  10.222   5.672   0.973 -0.4037  0.0733  0.5039
  858MOL0     C15737  10.287   5.528   0.985 -0.2546  0.7441 -0.4778
  858MOL0     C15738  10.200   5.403   0.937 -0.4150 -0.1774  0.0805
  858MOL0    Cl15739  10.062   5.384   1.047 -0.3405  0.2200  0.0758
  858MOL0     C15740   9.701   6.196   1.351  0.1972 -0.1583 -0.3098
  858MOL0     C15741   9.567   6.228   1.386  0.4136 -0.0511 -0.2797
  858MOL0     O15742   9.273   6.400   1.153  0.3623 -0.1668  0.2567
  858MOL0     C15743   9.070   6.549   1.255  0.2511  0.4891  0.4527
  858MOL0     C15744   8.955   6.607   1.318 -0.4563 -0.0652 -0.1128
  858MOL0     N15745   8.517   6.519   2.076 -0.2514  0.1028  0.1337
  858MOL0     N15746   8.493   6.546   2.202 -0.3734  0.1774 -0.3662
  858MOL0     C15747   8.054   7.682   2.346 -0.8357  0.1909 -0.1173
  858MOL0     C15748   7.963   7.742   2.266  0.1652  0.0525  0.3856
  858MOL0     C15749   7.529   7.717   2.055  0.1647  0.0543 -0.0712
  858MOL0     C15750   7.510   7.848   2.086 -0.2809 -0.1387  0.4491
  858MOL0     C15751   7.401   7.922   2.033  0.3193  0.9749 -0.0943
  858MOL0     C15752   7.297   7.855   1.962 -0.8768  0.0528  1.3947
  858MOL0     O15753   7.187   7.931   1.927 -0.1200  0.4056 -0.1648
  858MOL0     C15754   7.088   7.892   1.829 -0.4551  0.0663  0.9202
  858MOL0     C15755   6.969   7.985   1.826 -0.0104 -0.0623  0.0886
  858MOL0     C15756   6.925   8.021   1.972  0.1279 -0.2906  0.1572
  858MOL0     C15757   6.797   8.108   1.985  0.9124  0.4996 -0.0711
  858MOL0     C15758   6.784   8.217   1.891  0.2528 -0.0395 -0.1395
  858MOL0     C15759   6.762   8.315   1.820  0.8613  0.8273 -0.0732
  858MOL0     C15760   7.325   7.722   1.924  0.0662  0.0778  0.1546
  858MOL0     C15761   7.443   7.649   1.964  0.8292 -0.4782  0.0891
  858MOL0     C15762   7.469   7.517   1.904 -0.7634 -0.8114  0.2210
  858MOL0     H15763   7.685   7.588   2.352 -0.0991 -0.0924  0.3343
  858MOL0     H15764   7.854   7.480   2.527  1.1455  0.1894  0.2803
  858MOL0     H15765   8.027   7.469   2.682 -1.5125 -2.5266 -0.1354
  858MOL0     H15766   8.017   7.357   2.534 -1.6730 -2.5466  2.0855
  858MOL0     H15767   8.170   7.294   2.734  0.1459  0.0454 -1.0138
  858MOL0     H15768   8.280   7.393   2.649 -0.3154  1.2638 -0.9649
  858MOL0     H15769   8.207   7.265   2.423 -1.6749 -1.7746 -0.0637
  858MOL0     H15770   8.135   7.143   2.526  0.0278 -0.4975  0.9548
  858MOL0     H15771   8.416   7.209   2.565 -1.1075  1.7366  0.5802
  858MOL0     H15772   8.330   7.091   2.658 -0.8079 -0.0522  0.4427
  858MOL0     H15773   8.376   7.097   2.353 -0.3055 -0.5446 -0.9563
  858MOL0     H15774   8.487   7.016   2.461  0.5113  3.6091  1.3744
  858MOL0     H15775   8.284   6.849   2.524  0.9087 -0.6526 -0.1553
  858MOL0     H15776   8.187   6.953   2.419  0.4576 -0.2194 -3.3803
  858MOL0     H15777   8.321   6.863   2.229  2.7407 -1.2494  0.2830
  858MOL0     H15778   8.246   6.737   2.331  0.9050 -1.1262 -0.1752
  858MOL0     H15779   8.539   6.826   2.368  0.4583 -0.0590  0.1141
  858MOL0     H15780   8.457   6.685   2.434  1.4868 -0.3277 -0.8042
  858MOL0     H15781   8.547   6.854   2.088  1.6984 -0.6137  1.2151
  858MOL0     H15782   8.542   6.770   1.852  0.9882  0.0667  1.7098
  858MOL0     H15783   8.685   6.685   1.875 -0.2711  0.2979 -1.1250
  858MOL0     H15784   8.578   6.474   1.799  1.5346  1.2381  1.4363
  858MOL0     H15785   8.428   6.560   1.789  0.8935 -0.5800  1.2209
  858MOL0     H15786   8.569   6.716   1.626  1.2499  0.9195  3.3578
  858MOL0     H15787   8.520   6.551   1.571 -2.2223  1.7776  0.0929
  858MOL0     H15788   8.736   6.457   1.617 -1.5486 -0.1206 -1.3651
  858MOL0     H15789   8.798   6.611   1.683  1.1690 -0.0459 -1.3805
  858MOL0     H15790   8.929   6.406   1.596  1.5208  0.0567  1.2058
  858MOL0     H15791   9.138   6.324   1.500  3.9297  2.6237 -0.3530
  858MOL0     H15792   9.497   6.468   1.162 -0.5565 -1.4252  0.0367
  858MOL0     H15793   9.721   6.397   1.078 -2.8709  0.8597 -1.1848
  858MOL0     H15794  10.034   6.134   1.249  1.0589  0.0435 -2.2048
  858MOL0     H15795   9.871   6.046   1.252 -0.4523  2.4633  2.4451
  858MOL0     H15796   9.900   6.090   0.993 -1.0672 -1.6890  0.7810
  858MOL0     H15797  10.069   6.131   1.032  1.0349  0.4452  0.8504
  858MOL0     H15798   9.920   5.862   1.013  0.8069 -1.9591  0.8908
  858MOL0     H15799  10.068   5.907   0.937  0.8312 -5.1890  0.4791
  858MOL0     H15800  10.034   5.837   1.221 -0.3354 -1.2213 -0.8251
  858MOL0     H15801  10.199   5.882   1.154  0.1895  1.5762 -0.2711
  858MOL0     H15802  10.025   5.647   1.061 -0.8586  1.9318  0.1028
  858MOL0     H15803  10.155   5.648   1.179  0.8431  0.4007  0.5596
  858MOL0     H15804  10.184   5.696   0.874 -2.0317  3.1389  1.7219
  858MOL0     H15805  10.308   5.741   0.980  0.9523 -1.6872  2.6731
  858MOL0     H15806  10.328   5.518   1.086  0.9904 -1.0562 -1.1130
  858MOL0     H15807  10.375   5.521   0.919 -0.3921  0.8517 -0.6742
  858MOL0     H15808  10.152   5.424   0.841 -0.1462 -0.8104 -0.1950
  858MOL0     H15809  10.249   5.305   0.938 -1.0401 -0.5720 -2.3691
  858MOL0     H15810   9.766   6.141   1.418  1.3184 -1.1456 -2.1283
  858MOL0     H15811   9.531   6.191   1.481 -1.4368 -1.4185 -1.4294
  858MOL0     H15812   9.104   6.599   1.165 -0.4178  1.7231  0.8615
  858MOL0     H15813   8.909   6.694   1.273 -0.1249  0.5284  0.6911
  858MOL0     H15814   8.153   7.727   2.337 -0.8489  0.4458  0.9299
  858MOL0     H15815   7.998   7.817   2.196 -1.4590 -2.0849 -2.9409
  858MOL0     H15816   7.572   7.909   2.151 -1.4979 -0.0621  1.5848
  858MOL0     H15817   7.397   8.027   2.063  2.5631  0.4457  2.5415
  858MOL0     H15818   7.051   7.790   1.843 -1.7386  0.2538 -0.7737
  858MOL0     H15819   7.131   7.892   1.728 -1.2666  0.5404  0.5661
  858MOL0     H15820   6.886   7.941   1.770  0.4929 -0.4143 -0.3891
  858MOL0     H15821   7.012   8.071   1.774  0.3314 -2.0999 -3.2639
  858MOL0     H15822   7.009   8.065   2.027  0.0391  0.5267 -0.3573
  858MOL0     H15823   6.912   7.927   2.026 -4.4414  1.5969  2.8796
  858MOL0     H15824   6.718   8.037   1.962 -1.4221  3.3246 -1.5091
  858MOL0     H15825   6.789   8.152   2.085  1.5312  0.7893 -0.1460
  858MOL0     H15826   6.754   8.400   1.756  2.3948  0.7620 -0.3826
  858MOL0     H15827   7.246   7.665   1.877  0.3161  0.9309 -1.3533
  858MOL0     H15828   7.472   7.431   1.971  0.2169 -0.5443  0.5386
  858MOL0     H15829   7.396   7.502   1.823 -0.3579 -0.3159 -0.2481
  858MOL0     H15830   7.570   7.514   1.862 -0.6686  1.1156  0.2146
  859MOL0     O15831   4.642   4.299   7.214  0.1025  0.1783 -0.9732
  859MOL0     C15832   4.746   4.263   7.278  0.0394 -0.1995 -0.8192
  859MOL0     O15833   4.763   4.140   7.331 -0.3920  0.1995  0.4397
  859MOL0     C15834   4.673   4.039   7.312  0.0709  0.2053  0.8905
  859MOL0     C15835   4.626   3.975   7.432 -0.3996  0.0509  0.8155
  859MOL0     C15836   4.531   3.879   7.421  0.0123  0.3152  1.1811
  859MOL0     C15837   4.484   3.835   7.295 -0.3906  0.0854 -0.6018
  859MOL0     O15838   4.395   3.728   7.291  0.2185 -0.4125 -0.2918
  859MOL0     C15839   4.321   3.700   7.173  0.9066  0.4378 -0.0565
  859MOL0     C15840   4.227   3.582   7.198  0.9622 -0.7516 -0.1071
  859MOL0     C15841   4.135   3.561   7.074  0.0911  0.7317  0.8908
  859MOL0     C15842   3.999   3.489   7.105 -0.2956  0.0768  0.1624
  859MOL0     C15843   4.022   3.354   7.165  0.0819  0.1005  1.0284
  859MOL0     C15844   3.890   3.272   7.171  0.2201 -0.3944  0.0746
  859MOL0     C15845   3.920   3.135   7.227  0.3401  0.1945 -0.3403
  859MOL0     C15846   3.790   3.046   7.241 -1.4117 -0.0119 -0.6069
  859MOL0     N15847   3.703   3.087   7.346 -0.2310 -0.0157  0.0598
  859MOL0     C15848   3.711   3.073   7.481  0.1739 -0.5223 -0.2042
  859MOL0     C15849   3.609   3.142   7.539 -0.4802  0.3658  1.1353
  859MOL0     C15850   3.597   3.152   7.684  0.3121 -0.5926 -0.8356
  859MOL0     C15851   3.496   3.264   7.722  0.4358  0.7476  0.0812
  859MOL0     C15852   3.449   3.259   7.866  0.0132 -0.5177 -0.1772
  859MOL0     C15853   3.341   3.356   7.891  0.6931 -0.5040 -0.4552
  859MOL0     O15854   3.240   3.362   7.784 -0.2733 -0.5690 -0.0669
  859MOL0     C15855   3.129   3.436   7.807 -0.4756  0.1420  1.1281
  859MOL0     C15856   3.021   3.412   7.724  0.6215 -0.3783 -0.4866
  859MOL0     C15857   2.907   3.484   7.731  0.0756  0.3644 -0.3948
  859MOL0     C15858   2.882   3.564   7.848 -0.2761  0.2778  0.4887
  859MOL0     C15859   2.755   3.636   7.868 -0.1747 -0.3392 -0.5230
  859MOL0     O15860   2.771   3.739   7.959  0.8670  0.4850  0.4122
  859MOL0     C15861   2.662   3.809   7.990 -0.5660 -0.2419 -0.2859
  859MOL0     C15862   2.628   3.810   8.123 -0.1885  0.8146  0.3297
  859MOL0     C15863   2.525   3.885   8.175  0.2406 -0.0039  0.0902
  859MOL0     C15864   2.463   3.979   8.089 -0.4519  0.5109 -0.0460
  859MOL0     O15865   2.372   4.067   8.131  0.0040 -0.0811  0.8223
  859MOL0     C15866   2.404   4.180   8.211  0.3223  0.2946  0.5880
  859MOL0     C15867   2.308   4.302   8.185  0.2665  0.3044 -0.2509
  859MOL0     C15868   2.334   4.371   8.049  0.4258  0.2972 -0.0585
  859MOL0     C15869   2.226   4.470   8.035  0.2620  0.7048 -0.3266
  859MOL0     C15870   2.241   4.543   7.908 -0.1445 -0.2233 -0.2263
  859MOL0     C15871   2.220   4.463   7.784  0.2576 -0.0406 -0.0953
  859MOL0     C15872   2.215   4.555   7.658  0.7395 -0.7961 -0.4524
  859MOL0     C15873   2.107   4.527   7.563 -0.7642  0.7984 -0.0440
  859MOL0    Cl15874   2.172   4.578   7.405  0.0923  0.0084  0.6846
  859MOL0     C15875   2.511   3.994   7.956 -0.1209  0.4575 -0.2596
  859MOL0     C15876   2.603   3.906   7.904  0.4413  0.0295  0.4237
  859MOL0     O15877   2.649   3.599   7.826 -0.7378 -0.1743 -0.1235
  859MOL0     C15878   2.990   3.584   7.939  0.2550 -0.9088 -0.4421
  859MOL0     C15879   3.112   3.529   7.909 -0.0518 -0.5617  0.0005
  859MOL0     N15880   3.540   3.207   7.440 -0.7569 -0.0276 -0.8818
  859MOL0     N15881   3.593   3.173   7.330  0.0238 -0.0835 -0.4326
  859MOL0     C15882   4.517   3.904   7.180 -0.5897  0.2681 -0.2377
  859MOL0     C15883   4.607   4.009   7.190 -0.4967 -0.6670  0.2966
  859MOL0     C15884   4.844   4.370   7.279  0.6736 -0.4266  0.0509
  859MOL0     C15885   4.971   4.323   7.278  0.2903  0.1931  0.5124
  859MOL0     C15886   5.078   4.407   7.318  0.3276  0.4285  0.4302
  859MOL0     C15887   5.050   4.540   7.328 -0.0713 -0.7955 -0.2022
  859MOL0     O15888   5.157   4.610   7.367  0.3044 -0.4589 -1.0800
  859MOL0     C15889   5.135   4.738   7.429  0.1236 -0.0882 -0.4673
  859MOL0     C15890   5.267   4.796   7.463 -0.7094 -0.3736  0.2855
  859MOL0     C15891   5.349   4.833   7.339  1.2133  0.2143 -0.7479
  859MOL0     C15892   5.500   4.861   7.362 -0.2297 -0.4018  0.5339
  859MOL0     C15893   5.579   4.735   7.384 -0.6351  0.1904 -0.2639
  859MOL0     C15894   5.632   4.634   7.403 -0.2891  0.7033  0.5685
  859MOL0     C15895   4.921   4.589   7.311  0.1868 -0.1467  0.4899
  859MOL0     C15896   4.813   4.509   7.291 -0.3504 -0.2079 -0.2780
  859MOL0     C15897   4.672   4.570   7.299  0.1337 -0.2555 -0.2961
  859MOL0     H15898   4.659   4.001   7.532 -0.4809  1.2108  0.5592
  859MOL0     H15899   4.510   3.819   7.509  1.0561 -1.1732  0.4540
  859MOL0     H15900   4.269   3.794   7.152 -0.0828 -0.0329  0.2301
  859MOL0     H15901   4.378   3.673   7.083 -1.1749  2.0496 -1.9876
  859MOL0     H15902   4.162   3.609   7.282 -0.6245 -6.9229  1.1173
  859MOL0     H15903   4.272   3.491   7.239 -0.8951 -0.8884  1.8197
  859MOL0     H15904   4.194   3.498   7.007  0.5495  2.3612 -0.3035
  859MOL0     H15905   4.116   3.647   7.010  0.7727 -0.4091 -0.9368
  859MOL0     H15906   3.936   3.547   7.173 -2.9107 -1.2915 -0.9165
  859MOL0     H15907   3.932   3.481   7.019  0.8485 -3.2870 -0.5850
  859MOL0     H15908   4.098   3.305   7.104 -0.2905  1.4645 -0.6147
  859MOL0     H15909   4.062   3.365   7.266  1.1557 -0.9248  0.7388
  859MOL0     H15910   3.821   3.325   7.238  1.5416  1.3021  0.1840
  859MOL0     H15911   3.843   3.256   7.073  0.5334 -4.0071  0.3933
  859MOL0     H15912   3.976   3.140   7.321 -0.0411 -1.3568 -0.0085
  859MOL0     H15913   3.986   3.090   7.152  1.7640  0.1093  0.9201
  859MOL0     H15914   3.759   3.042   7.136  1.2405  0.6908 -1.5164
  859MOL0     H15915   3.817   2.941   7.255 -3.2038 -0.6133 -1.4068
  859MOL0     H15916   3.770   3.004   7.540 -1.6309 -2.0883 -0.1427
  859MOL0     H15917   3.547   3.058   7.709 -1.5526 -0.2420 -2.9991
  859MOL0     H15918   3.700   3.170   7.716  0.6523 -1.7748 -1.2358
  859MOL0     H15919   3.536   3.363   7.696 -0.5224  1.0336 -0.3562
  859MOL0     H15920   3.405   3.252   7.662 -0.4821  1.0895  1.3684
  859MOL0     H15921   3.536   3.272   7.932 -0.6473 -1.6232  0.9583
  859MOL0     H15922   3.397   3.163   7.870 -0.1884 -0.7772 -4.6197
  859MOL0     H15923   3.375   3.459   7.907 -1.2119  0.0533  0.3455
  859MOL0     H15924   3.299   3.321   7.986  0.8367 -2.5452 -1.0972
  859MOL0     H15925   3.035   3.336   7.648 -0.6797  0.7475 -1.9153
  859MOL0     H15926   2.836   3.472   7.650 -0.0954  0.6424 -0.2896
  859MOL0     H15927   2.674   3.745   8.196 -0.2531 -0.0055 -0.3430
  859MOL0     H15928   2.492   3.860   8.275  0.2897  1.2016  0.4276
  859MOL0     H15929   2.388   4.160   8.318 -2.2568  1.9720  0.5993
  859MOL0     H15930   2.506   4.215   8.195 -0.3302  2.9641  1.7147
  859MOL0     H15931   2.204   4.272   8.197  0.1952  0.1958 -1.0673
  859MOL0     H15932   2.319   4.368   8.271 -1.1861 -1.7005  1.5675
  859MOL0     H15933   2.438   4.400   8.033  1.1359 -0.8140  2.0329
  859MOL0     H15934   2.311   4.287   7.983  0.1790 -0.6115  1.1357
  859MOL0     H15935   2.211   4.534   8.123 -6.0068  1.2251 -1.2924
  859MOL0     H15936   2.129   4.420   8.035  1.4121 -1.7854  1.8067
  859MOL0     H15937   2.340   4.589   7.904  1.1325 -2.9000 -1.9695
  859MOL0     H15938   2.166   4.623   7.912 -0.9821 -1.0319  1.1732
  859MOL0     H15939   2.307   4.397   7.774  0.8797  0.4973  1.3906
  859MOL0     H15940   2.130   4.402   7.799  0.7759 -0.9485 -0.6104
  859MOL0     H15941   2.309   4.551   7.602  1.3400 -2.6611  0.6018
  859MOL0     H15942   2.218   4.659   7.691  1.2422 -1.6974  2.6687
  859MOL0     H15943   2.089   4.419   7.561  3.7145 -0.1397  0.3976
  859MOL0     H15944   2.014   4.584   7.577 -0.6313  1.2128 -0.7867
  859MOL0     H15945   2.478   4.062   7.878  3.1570  2.1793 -0.3446
  859MOL0     H15946   2.625   3.908   7.798 -3.0915  0.7397 -0.4096
  859MOL0     H15947   2.988   3.647   8.027 -0.0687  0.3212 -1.3073
  859MOL0     H15948   3.194   3.547   7.978 -1.2891 -0.2058  1.4474
  859MOL0     H15949   4.467   3.892   7.084  2.2352 -2.8786 -1.5293
  859MOL0     H15950   4.617   4.067   7.099 -1.7100  0.6986  0.9948
  859MOL0     H15951   4.984   4.215   7.280 -0.7853  0.0271 -0.4163
  859MOL0     H15952   5.176   4.366   7.341 -0.1890 -0.2675  1.4348
  859MOL0     H15953   5.097   4.724   7.531  3.2301 -1.6951  0.6226
  859MOL0     H15954   5.078   4.810   7.371 -0.8460  1.1890  1.9203
  859MOL0     H15955   5.314   4.720   7.526 -0.0481 -1.8842 -1.9071
  859MOL0     H15956   5.251   4.888   7.520 -0.2285 -0.1706  0.0919
  859MOL0     H15957   5.294   4.915   7.291 -1.5413 -1.4100 -0.5403
  859MOL0     H15958   5.336   4.754   7.265 -1.0782  0.0557 -0.2360
  859MOL0     H15959   5.543   4.882   7.263 -1.8218  0.3164 -0.0288
  859MOL0     H15960   5.518   4.946   7.428  1.4008  0.0535 -0.4118
  859MOL0     H15961   5.688   4.543   7.396 -3.2281 -1.1244 -2.1973
  859MOL0     H15962   4.908   4.693   7.338  1.6258 -0.2866  1.8093
  859MOL0     H15963   4.613   4.514   7.372 -1.2244 -0.3280 -1.4128
  859MOL0     H15964   4.684   4.675   7.328  1.9523  0.5673 -3.5283
  859MOL0     H15965   4.621   4.564   7.203 -1.2502  0.7764  0.3476
  860MOL0     O15966   9.244   9.027  10.881 -0.3109  0.4108 -0.4968
  860MOL0     C15967   9.365   8.981  10.856  1.2557  0.4566  0.2550
  860MOL0     O15968   9.464   9.040  10.777  0.9871 -1.1028  0.2323
  860MOL0     C15969   9.420   9.148  10.705  0.2877 -0.5999 -0.3144
  860MOL0     C15970   9.350   9.259  10.754  0.3095 -0.0124 -0.0643
  860MOL0     C15971   9.313   9.362  10.672  0.0601  0.5164 -0.1882
  860MOL0     C15972   9.335   9.348  10.533  0.2048  1.2938 -0.5439
  860MOL0     O15973   9.293   9.443  10.439 -0.0942  0.4022 -0.3842
  860MOL0     C15974   9.200   9.543  10.482 -0.0066  0.6709 -0.5295
  860MOL0     C15975   9.150   9.609  10.349 -0.7461 -0.8011  0.6382
  860MOL0     C15976   9.084   9.504  10.253 -0.1060 -0.9004 -0.1128
  860MOL0     C15977   9.091   9.551  10.108  0.6775  0.0445 -0.3175
  860MOL0     C15978   9.011   9.446  10.019  0.3297 -0.2550 -0.6655
  860MOL0     C15979   8.937   9.512   9.900 -0.1478  0.8220 -0.4553
  860MOL0     C15980   8.938   9.424   9.775 -0.9769 -0.0033 -0.4870
  860MOL0     C15981   8.824   9.322   9.768 -0.0580  0.0624 -0.2024
  860MOL0     N15982   8.847   9.228   9.658  0.3877 -0.1380 -0.6794
  860MOL0     C15983   8.747   9.210   9.559 -0.2581  0.2808 -0.0744
  860MOL0     C15984   8.780   9.102   9.477 -0.8716  0.3465 -0.8562
  860MOL0     C15985   8.703   9.052   9.354  0.3671 -0.1706  0.1847
  860MOL0     C15986   8.763   9.115   9.230 -0.2051 -0.3959 -0.0837
  860MOL0     C15987   8.912   9.086   9.211 -0.4761  0.0317 -0.5561
  860MOL0     C15988   9.011   9.201   9.245  0.4795  0.2595 -0.3068
  860MOL0     O15989   8.979   9.309   9.155  0.0941 -0.8606 -0.4351
  860MOL0     C15990   9.043   9.431   9.162 -0.1048  0.3064  0.0273
  860MOL0     C15991   9.021   9.523   9.058 -0.3884 -0.1019  0.0119
  860MOL0     C15992   9.095   9.649   9.061  0.0556  0.7442  0.6185
  860MOL0     C15993   9.179   9.679   9.170 -0.3031  0.8580 -0.1972
  860MOL0     C15994   9.251   9.802   9.174  1.2942  0.4578 -0.8572
  860MOL0     O15995   9.377   9.804   9.220  0.6129 -0.0397 -0.1655
  860MOL0     C15996   9.439   9.922   9.248  0.5074  0.0283 -0.0189
  860MOL0     C15997   9.464  10.021   9.161  0.1774  0.3906  0.4646
  860MOL0     C15998   9.525  10.139   9.211 -0.4554 -0.5828  0.8154
  860MOL0     C15999   9.552  10.157   9.346  0.1691 -0.0094 -0.5695
  860MOL0     O16000   9.601  10.269   9.402  0.5834  0.6691 -0.0922
  860MOL0     C16001   9.701  10.340   9.330 -0.3020 -0.6252 -1.0045
  860MOL0     C16002   9.810  10.382   9.424 -0.5367 -0.2478  0.4313
  860MOL0     C16003   9.891  10.508   9.371  1.2109  1.0981  0.3894
  860MOL0     C16004  10.006  10.561   9.455  0.2707 -0.1447 -0.4377
  860MOL0     C16005  10.084  10.678   9.386 -0.4363  0.1557 -0.7169
  860MOL0     C16006  10.180  10.634   9.272  0.6759 -0.0224  0.0497
  860MOL0     C16007  10.229  10.751   9.198 -0.3485 -0.9669  0.6936
  860MOL0     C16008  10.294  10.734   9.060 -0.0748 -0.2227  0.6081
  860MOL0    Cl16009  10.193  10.669   8.931 -0.1561 -0.3765 -0.4208
  860MOL0     C16010   9.523  10.055   9.435  0.2567 -0.2185  0.3966
  860MOL0     C16011   9.479   9.940   9.379 -0.1796  0.2935 -1.0613
  860MOL0     O16012   9.185   9.906   9.160  0.1409  0.4582  0.6835
  860MOL0     C16013   9.205   9.581   9.275  0.9561 -0.5333  0.0760
  860MOL0     C16014   9.124   9.464   9.269 -0.0366  0.7994  0.1748
  860MOL0     N16015   8.901   9.055   9.526 -0.6829 -0.2253 -0.1892
  860MOL0     N16016   8.940   9.128   9.631 -0.4782  0.1159  0.7732
  860MOL0     C16017   9.396   9.235  10.480  0.0546 -0.0432  0.5636
  860MOL0     C16018   9.434   9.126  10.566  0.2389 -0.0312  0.7234
  860MOL0     C16019   9.400   8.857  10.926 -0.8353  0.4560 -0.3326
  860MOL0     C16020   9.526   8.794  10.893  0.3810 -0.1928 -0.5693
  860MOL0     C16021   9.571   8.682  10.964  0.3653 -0.5634  0.3791
  860MOL0     C16022   9.501   8.625  11.062 -0.5167 -0.5456 -0.0187
  860MOL0     O16023   9.573   8.533  11.140 -0.2023 -0.1774 -0.9103
  860MOL0     C16024   9.509   8.415  11.191  0.1118 -0.5306 -0.3830
  860MOL0     C16025   9.614   8.314  11.244  1.3754 -0.6540 -0.3893
  860MOL0     C16026   9.660   8.370  11.383 -0.3301  0.2053 -0.5453
  860MOL0     C16027   9.719   8.265  11.468  1.0829 -0.7765  0.1562
  860MOL0     C16028   9.854   8.205  11.442 -0.2660  0.1106 -0.3454
  860MOL0     C16029   9.963   8.157  11.410  1.3638  0.3742  0.0167
  860MOL0     C16030   9.377   8.678  11.106 -0.9566 -0.4823 -0.4071
  860MOL0     C16031   9.316   8.789  11.032  0.4613 -0.0795 -0.1383
  860MOL0     C16032   9.173   8.826  11.063  0.7144 -0.3082 -0.2291
  860MOL0     H16033   9.323   9.257  10.859 -3.2297 -2.1477 -0.8491
  860MOL0     H16034   9.274   9.452  10.719 -2.2469  0.2354 -1.3975
  860MOL0     H16035   9.117   9.496  10.536  1.3657 -0.0562  1.0136
  860MOL0     H16036   9.234   9.617  10.555 -1.3643 -0.6554  1.5374
  860MOL0     H16037   9.228   9.663  10.296 -1.1122 -1.1482 -0.2834
  860MOL0     H16038   9.072   9.682  10.374 -1.5887 -2.0989  1.9523
  860MOL0     H16039   8.978   9.515  10.280  0.3229  0.7663  0.9896
  860MOL0     H16040   9.117   9.400  10.260 -1.0444 -1.1582  0.7629
  860MOL0     H16041   9.030   9.641  10.102 -1.3073 -1.2046  0.1904
  860MOL0     H16042   9.191   9.578  10.073  1.1167 -0.0180  0.8363
  860MOL0     H16043   9.086   9.384   9.970  1.8422 -1.4393  2.7996
  860MOL0     H16044   8.947   9.384  10.083  1.0299  1.0067  1.3713
  860MOL0     H16045   8.839   9.535   9.944 -0.2634  1.4458 -1.0243
  860MOL0     H16046   8.988   9.605   9.872  0.7484  0.5524  0.2599
  860MOL0     H16047   9.036   9.376   9.764 -0.0400  1.3127  1.5133
  860MOL0     H16048   8.923   9.495   9.693 -1.8137  0.9457  0.4673
  860MOL0     H16049   8.824   9.279   9.869 -0.9998 -0.1326 -0.2708
  860MOL0     H16050   8.724   9.368   9.760  1.1907  3.5413  1.9856
  860MOL0     H16051   8.659   9.273   9.548 -0.1302  1.1363  2.8957
  860MOL0     H16052   8.705   8.943   9.345 -1.0450 -0.2555  0.7580
  860MOL0     H16053   8.603   9.094   9.352  1.6813  3.2784  0.3544
  860MOL0     H16054   8.709   9.066   9.148 -3.8215  2.0805  0.5848
  860MOL0     H16055   8.730   9.219   9.234 -0.3553 -0.4232 -0.5591
  860MOL0     H16056   8.921   9.071   9.103  1.4443 -0.7290 -0.3231
  860MOL0     H16057   8.944   8.997   9.264  0.1269  0.4107 -0.2748
  860MOL0     H16058   9.117   9.179   9.227  0.5153  2.0563 -2.8363
  860MOL0     H16059   8.997   9.238   9.347 -4.7034  4.8559 -2.2025
  860MOL0     H16060   8.967   9.485   8.972  0.6246 -2.5314  0.3923
  860MOL0     H16061   9.084   9.724   8.984  0.2628 -0.8475 -1.0360
  860MOL0     H16062   9.437  10.029   9.056  1.1158  0.5642  0.2269
  860MOL0     H16063   9.553  10.217   9.141  1.3053  0.8802  2.9867
  860MOL0     H16064   9.740  10.279   9.248  1.0986  0.8152 -1.4585
  860MOL0     H16065   9.656  10.429   9.285 -0.5318  1.4064  2.8861
  860MOL0     H16066   9.770  10.400   9.524  1.0163  0.4843  0.9611
  860MOL0     H16067   9.876  10.295   9.432  0.0942 -0.0481 -1.8937
  860MOL0     H16068   9.931  10.475   9.275 -0.4745 -1.7218  0.5835
  860MOL0     H16069   9.813  10.584   9.362 -0.0923 -0.0224  1.7662
  860MOL0     H16070  10.078  10.484   9.484 -3.1864 -2.7524  1.9739
  860MOL0     H16071   9.978  10.606   9.550 -0.8447 -1.8999  0.1033
  860MOL0     H16072  10.155  10.730   9.451 -0.7492 -0.0894 -0.1758
  860MOL0     H16073  10.001  10.741   9.351 -1.1199 -0.5979 -0.4871
  860MOL0     H16074  10.269  10.588   9.317 -0.1042 -0.6157  1.0550
  860MOL0     H16075  10.133  10.571   9.196 -2.6440  3.0519 -0.6862
  860MOL0     H16076  10.290  10.809   9.268  1.0547  1.3989 -2.2452
  860MOL0     H16077  10.145  10.817   9.172  0.7520 -0.8256 -3.0668
  860MOL0     H16078  10.338  10.827   9.023  1.5744 -0.6089  1.4917
  860MOL0     H16079  10.384  10.671   9.064  2.2516  2.8267  0.4541
  860MOL0     H16080   9.538  10.071   9.541  4.2725 -0.1024 -0.0216
  860MOL0     H16081   9.443   9.859   9.441  0.9733  1.8599  1.8325
  860MOL0     H16082   9.278   9.596   9.353  3.8816 -1.0703 -2.3644
  860MOL0     H16083   9.136   9.397   9.354 -3.9895  0.3228  0.5580
  860MOL0     H16084   9.426   9.224  10.377 -0.7974 -3.2776  0.5389
  860MOL0     H16085   9.475   9.038  10.517  1.6981  0.6182  0.7231
  860MOL0     H16086   9.592   8.849  10.827 -0.4185  2.8879  0.9708
  860MOL0     H16087   9.672   8.652  10.940 -0.2839 -0.7681 -2.3407
  860MOL0     H16088   9.448   8.365  11.115 -0.3799 -4.0842  2.0580
  860MOL0     H16089   9.433   8.441  11.266 -1.5871 -0.4592 -2.0407
  860MOL0     H16090   9.706   8.317  11.185  2.0321 -1.0752  0.5930
  860MOL0     H16091   9.578   8.211  11.249 -0.5562 -0.2054 -3.1042
  860MOL0     H16092   9.569   8.401  11.434  0.2017  2.7451 -0.9950
  860MOL0     H16093   9.725   8.457  11.371 -0.9562  0.5821 -1.3351
  860MOL0     H16094   9.729   8.302  11.570  1.8623 -3.0289  0.9752
  860MOL0     H16095   9.645   8.184  11.477 -1.9445  1.7423 -0.5733
  860MOL0     H16096  10.059   8.130  11.370  1.8457  3.4954 -1.1702
  860MOL0     H16097   9.321   8.620  11.179  0.5407 -0.6459  0.6616
  860MOL0     H16098   9.104   8.848  10.982 -2.8380 -3.0513  1.7171
  860MOL0     H16099   9.120   8.755  11.128 -1.3022 -0.0778 -1.5389
  860MOL0     H16100   9.184   8.918  11.122 -0.0018  0.5671 -1.4334
  861MOL0     O16101  10.906   4.055   3.645 -0.1385  0.8213  0.1989
  861MOL0     C16102  10.859   4.012   3.545 -0.0020 -0.2746  0.9567
  861MOL0     O16103  10.832   4.079   3.429  0.8606  0.5519  0.2945
  861MOL0     C16104  10.863   4.207   3.397 -0.0201 -0.5071 -0.9617
  861MOL0     C16105  10.850   4.303   3.499  0.3313 -0.8437 -0.3072
  861MOL0     C16106  10.906   4.425   3.485 -0.0656 -0.5234 -0.4697
  861MOL0     C16107  10.962   4.462   3.362 -1.1260 -0.1336 -0.3903
  861MOL0     O16108  11.018   4.586   3.334 -0.5672  0.5685 -0.0170
  861MOL0     C16109  10.988   4.705   3.402  0.9894  0.7526 -0.5341
  861MOL0     C16110  10.852   4.770   3.367 -0.2713  0.0655 -0.4552
  861MOL0     C16111  10.829   4.910   3.439 -0.2305 -0.0613  0.2392
  861MOL0     C16112  10.692   4.960   3.409  0.2952 -0.3228  0.1238
  861MOL0     C16113  10.673   5.091   3.492 -1.0816  0.1767 -0.1194
  861MOL0     C16114  10.614   5.048   3.625  1.4247  0.6093 -0.2077
  861MOL0     C16115  10.637   5.160   3.733 -0.0989 -0.4331  0.2019
  861MOL0     C16116  10.567   5.287   3.682  0.5002  0.0407 -0.0937
  861MOL0     N16117  10.521   5.382   3.796 -0.2545  0.5493 -0.2624
  861MOL0     C16118  10.611   5.441   3.893 -0.0125  0.4011  0.4474
  861MOL0     C16119  10.537   5.536   3.953 -0.5503  0.6004 -0.1434
  861MOL0     C16120  10.588   5.637   4.050  0.6206  0.7261 -0.2753
  861MOL0     C16121  10.659   5.744   3.977  0.7568 -0.6033 -0.3246
  861MOL0     C16122  10.683   5.864   4.073 -0.0829 -0.2347 -0.3146
  861MOL0     C16123  10.809   5.840   4.154  0.9032  0.5929  1.3361
  861MOL0     O16124  10.772   5.771   4.273  0.1732  0.0015 -0.5341
  861MOL0     C16125  10.724   5.841   4.380 -0.4716 -0.1876 -0.2706
  861MOL0     C16126  10.720   5.986   4.391 -0.3446 -0.8172  0.0790
  861MOL0     C16127  10.662   6.053   4.493  0.0448  0.0409 -0.1339
  861MOL0     C16128  10.581   5.981   4.593 -0.7187 -0.7021 -0.8565
  861MOL0     C16129  10.506   6.055   4.698  0.5340 -0.0010  0.0792
  861MOL0     O16130  10.450   5.987   4.800  1.0658  0.1558 -1.0620
  861MOL0     C16131  10.366   6.066   4.885  0.8840  0.5995 -0.4001
  861MOL0     C16132  10.229   6.089   4.852  0.4706  0.0786  0.9925
  861MOL0     C16133  10.157   6.181   4.940  0.5424  0.6768  0.3437
  861MOL0     C16134  10.218   6.250   5.049  0.5158  0.4978  0.1442
  861MOL0     O16135  10.150   6.332   5.135  0.2039  0.3926 -0.7529
  861MOL0     C16136  10.010   6.340   5.125 -0.1278 -0.0486 -0.0791
  861MOL0     C16137   9.950   6.425   5.248 -0.2025  0.5462  0.8124
  861MOL0     C16138   9.797   6.383   5.262 -0.2701 -0.8175  0.1673
  861MOL0     C16139   9.720   6.384   5.123 -0.5499 -0.6978 -0.6081
  861MOL0     C16140   9.574   6.360   5.154 -0.0396  1.3585  1.2190
  861MOL0     C16141   9.488   6.393   5.029 -0.4631 -0.3708 -0.9069
  861MOL0     C16142   9.352   6.329   5.036 -0.2537 -0.8504  0.0762
  861MOL0     C16143   9.244   6.432   5.102 -0.0061 -0.0077  0.5213
  861MOL0    Cl16144   9.265   6.478   5.274  0.0554 -0.0340  0.3289
  861MOL0     C16145  10.359   6.220   5.066  0.6004 -1.2852 -0.1719
  861MOL0     C16146  10.416   6.131   4.996  0.1877 -0.5131  0.1350
  861MOL0     O16147  10.498   6.174   4.689  0.2012  0.9152 -0.3648
  861MOL0     C16148  10.587   5.844   4.590 -0.4987 -0.1521  0.9284
  861MOL0     C16149  10.661   5.780   4.484 -0.4217  1.2089  0.6879
  861MOL0     N16150  10.421   5.527   3.904  0.4562 -0.7939 -0.1116
  861MOL0     N16151  10.400   5.441   3.817  0.1631 -0.0055 -0.0950
  861MOL0     C16152  10.968   4.370   3.262  0.8210  0.2002  1.1258
  861MOL0     C16153  10.915   4.241   3.276  0.4280 -0.0359 -1.1764
  861MOL0     C16154  10.830   3.864   3.535  0.2758 -0.5800  0.7199
  861MOL0     C16155  10.809   3.806   3.405  0.1412 -0.4611  0.9581
  861MOL0     C16156  10.791   3.672   3.386  0.0908  0.1515  0.2244
  861MOL0     C16157  10.767   3.587   3.493 -0.2015 -0.7373  0.9139
  861MOL0     O16158  10.735   3.459   3.468  0.0343 -0.2479  0.0945
  861MOL0     C16159  10.730   3.372   3.584  0.1167 -0.7303  0.8626
  861MOL0     C16160  10.691   3.233   3.541  0.1282 -0.1439 -0.0735
  861MOL0     C16161  10.722   3.133   3.656  0.0104 -0.1283 -0.3444
  861MOL0     C16162  10.646   3.000   3.664  0.1760  0.5249  0.3670
  861MOL0     C16163  10.616   2.936   3.533 -0.8111 -0.1295  0.9703
  861MOL0     C16164  10.599   2.877   3.425 -0.1943  0.3397  0.6191
  861MOL0     C16165  10.777   3.642   3.622 -0.3768  0.0802 -0.0969
  861MOL0     C16166  10.814   3.778   3.645  0.5977  0.7285 -0.3966
  861MOL0     C16167  10.779   3.832   3.783 -0.1351  0.0932  0.3007
  861MOL0     H16168  10.797   4.276   3.591 -2.2135  1.1068 -1.0957
  861MOL0     H16169  10.890   4.487   3.573 -0.7409  0.4512 -1.2528
  861MOL0     H16170  10.996   4.686   3.509 -2.3688 -1.3452 -0.5249
  861MOL0     H16171  11.064   4.782   3.382  0.4086  2.3275  2.6482
  861MOL0     H16172  10.775   4.696   3.390 -0.8602  0.4970 -1.0037
  861MOL0     H16173  10.836   4.779   3.259  0.3388  0.2604 -0.5309
  861MOL0     H16174  10.899   4.985   3.401  2.1316 -0.5835  3.1321
  861MOL0     H16175  10.850   4.899   3.546  1.9084 -0.8598 -0.2163
  861MOL0     H16176  10.681   4.991   3.305 -0.7569  3.8712  1.3045
  861MOL0     H16177  10.616   4.883   3.427  4.1786 -4.6649 -0.1099
  861MOL0     H16178  10.759   5.154   3.512  0.0785 -2.0429  2.4767
  861MOL0     H16179  10.593   5.145   3.440 -0.5529  0.9303 -0.1487
  861MOL0     H16180  10.507   5.030   3.612  1.1984 -3.1880  4.2956
  861MOL0     H16181  10.649   4.957   3.675 -1.4671  0.9049  2.6839
  861MOL0     H16182  10.743   5.189   3.730 -0.3135  0.3234 -1.7677
  861MOL0     H16183  10.600   5.140   3.834 -0.9809 -0.6644 -0.1543
  861MOL0     H16184  10.637   5.332   3.612 -1.8849  1.6275 -1.6177
  861MOL0     H16185  10.482   5.257   3.620  1.3998 -0.5722 -1.0708
  861MOL0     H16186  10.716   5.430   3.914  0.7533  4.9169  0.0587
  861MOL0     H16187  10.497   5.674   4.098  0.2110 -0.7527  0.1574
  861MOL0     H16188  10.647   5.569   4.113 -3.3101 -3.8548 -0.9635
  861MOL0     H16189  10.744   5.702   3.922  0.4883 -2.9021  0.8896
  861MOL0     H16190  10.584   5.779   3.905 -0.9198  0.5736  1.8771
  861MOL0     H16191  10.595   5.896   4.129 -0.3782  2.3445 -2.0658
  861MOL0     H16192  10.710   5.947   4.006 -1.4250  1.1657  0.8141
  861MOL0     H16193  10.860   5.933   4.181 -0.2808  0.9835  2.2831
  861MOL0     H16194  10.877   5.777   4.096 -0.3186  0.1092  0.3797
  861MOL0     H16195  10.761   6.057   4.322  2.0307 -2.9064 -0.8048
  861MOL0     H16196  10.677   6.160   4.490 -1.1005  0.4413  3.4982
  861MOL0     H16197  10.180   6.032   4.774  0.5329 -1.3792  1.9885
  861MOL0     H16198  10.052   6.198   4.922  0.6359  0.4193 -0.5002
  861MOL0     H16199   9.974   6.398   5.040  1.0069 -1.2697 -1.4334
  861MOL0     H16200   9.971   6.238   5.120  3.6253 -1.6154 -1.1779
  861MOL0     H16201  10.006   6.395   5.336 -1.0966 -0.0112  1.2108
  861MOL0     H16202   9.962   6.531   5.227 -1.5216  0.3993 -1.0026
  861MOL0     H16203   9.802   6.283   5.307  0.6335 -0.3305  1.2020
  861MOL0     H16204   9.756   6.452   5.337  0.4061  0.9818 -1.0540
  861MOL0     H16205   9.767   6.320   5.048  2.3536 -0.2964  0.7441
  861MOL0     H16206   9.733   6.485   5.083  0.5934  0.1702  1.7888
  861MOL0     H16207   9.536   6.411   5.243 -1.3287  0.7843  1.0191
  861MOL0     H16208   9.560   6.257   5.186 -0.7522  1.3890  1.0332
  861MOL0     H16209   9.480   6.502   5.027  1.2743 -0.1954 -0.5493
  861MOL0     H16210   9.537   6.356   4.939 -3.0048 -4.6540 -0.7605
  861MOL0     H16211   9.361   6.238   5.095 -0.8818 -2.3530 -2.0354
  861MOL0     H16212   9.323   6.294   4.936  1.5093 -0.6202 -0.5664
  861MOL0     H16213   9.231   6.521   5.040 -1.4268 -0.0894  0.6659
  861MOL0     H16214   9.155   6.369   5.100 -0.9843  1.3429  0.6257
  861MOL0     H16215  10.415   6.275   5.141 -1.9419  0.4601  0.5928
  861MOL0     H16216  10.521   6.116   5.019  0.3475  0.5741  0.1503
  861MOL0     H16217  10.547   5.787   4.673 -0.2534 -0.7711  0.6308
  861MOL0     H16218  10.678   5.673   4.476 -1.3746  1.1396 -1.0515
  861MOL0     H16219  11.019   4.386   3.168  1.3433  0.6049  1.4666
  861MOL0     H16220  10.897   4.165   3.200 -1.6401  1.6476 -2.5036
  861MOL0     H16221  10.829   3.868   3.318 -0.6019 -0.0975  1.0369
  861MOL0     H16222  10.771   3.642   3.283  0.7454  1.5549 -0.3469
  861MOL0     H16223  10.650   3.398   3.654 -1.1506 -0.8080 -0.4996
  861MOL0     H16224  10.827   3.381   3.632  0.7633 -1.7522 -0.2065
  861MOL0     H16225  10.752   3.200   3.457 -1.3276 -0.1646 -1.1665
  861MOL0     H16226  10.585   3.232   3.513 -0.3512  0.7993  1.6217
  861MOL0     H16227  10.720   3.204   3.739 -0.6473  2.5218 -2.4505
  861MOL0     H16228  10.825   3.101   3.641  0.2543  1.5448 -3.0800
  861MOL0     H16229  10.720   2.935   3.712  2.1506  2.2753 -0.1261
  861MOL0     H16230  10.552   3.005   3.720  0.1509  0.9803  0.2844
  861MOL0     H16231  10.580   2.815   3.339  0.0478  1.0552  0.0422
  861MOL0     H16232  10.749   3.591   3.713 -2.2560  1.9804  0.4734
  861MOL0     H16233  10.858   3.895   3.824 -0.9123 -0.0270  2.1128
  861MOL0     H16234  10.688   3.891   3.770  0.5291  0.9335 -0.6584
  861MOL0     H16235  10.763   3.755   3.860  0.2525  0.6750  0.9794
  862MOL0     O16236   5.957   7.702   4.831  0.6113  0.6169  0.0021
  862MOL0     C16237   5.991   7.639   4.931  0.1509  0.0556  1.8522
  862MOL0     O16238   5.909   7.623   5.040  0.3740 -0.1225  0.1592
  862MOL0     C16239   5.771   7.633   5.030 -0.5111 -1.3499  0.2195
  862MOL0     C16240   5.704   7.543   5.113 -0.6319  0.3071  0.3445
  862MOL0     C16241   5.566   7.562   5.124 -0.1988  0.3053  0.0822
  862MOL0     C16242   5.498   7.671   5.073  0.3823 -0.3973  0.4180
  862MOL0     O16243   5.369   7.704   5.091 -0.0785 -0.3648  0.8527
  862MOL0     C16244   5.290   7.619   5.177 -0.6629  0.6827 -0.0130
  862MOL0     C16245   5.166   7.691   5.222 -0.0725 -0.2814 -0.4850
  862MOL0     C16246   5.069   7.717   5.106 -0.0188 -1.1071  0.1390
  862MOL0     C16247   4.928   7.746   5.161  0.1793 -0.5354 -0.6301
  862MOL0     C16248   4.851   7.607   5.175 -0.6926 -0.1076  0.1601
  862MOL0     C16249   4.702   7.642   5.189 -0.7142 -0.0102 -0.3285
  862MOL0     C16250   4.677   7.684   5.333 -0.0966 -0.6937 -0.8455
  862MOL0     C16251   4.525   7.690   5.368  0.1448  0.4616 -0.1641
  862MOL0     N16252   4.451   7.783   5.269 -0.4113 -0.1981  0.8417
  862MOL0     C16253   4.512   7.903   5.233 -0.4200 -0.9200 -0.2980
  862MOL0     C16254   4.457   7.946   5.124  0.1147  0.2538 -0.7707
  862MOL0     C16255   4.486   8.079   5.065  0.7388  0.0449 -0.5720
  862MOL0     C16256   4.547   8.065   4.923 -0.0947  0.4959 -0.3357
  862MOL0     C16257   4.690   8.015   4.916 -1.0543  0.3944 -0.8992
  862MOL0     C16258   4.734   7.983   4.773  0.3507 -0.2363 -0.5807
  862MOL0     O16259   4.856   7.892   4.770 -0.1561 -0.2284  0.2724
  862MOL0     C16260   4.980   7.947   4.769  0.8563 -0.2704  0.4455
  862MOL0     C16261   5.071   7.862   4.721  0.5280  0.8884 -0.2377
  862MOL0     C16262   5.203   7.886   4.733 -0.0949  0.5308 -0.3556
  862MOL0     C16263   5.247   8.014   4.779  1.0093 -0.0866  0.2321
  862MOL0     C16264   5.392   8.044   4.789 -0.3480 -0.5969 -0.3359
  862MOL0     O16265   5.473   7.966   4.712  0.1362  0.5789 -0.2849
  862MOL0     C16266   5.610   7.987   4.684  0.6212 -0.4314  0.6632
  862MOL0     C16267   5.675   8.108   4.682 -0.3487 -0.2356  0.7829
  862MOL0     C16268   5.800   8.123   4.621  0.8117 -0.0378 -0.3814
  862MOL0     C16269   5.857   8.015   4.570 -1.6296  0.4718  0.3577
  862MOL0     O16270   5.989   8.044   4.527  0.2335 -0.1079  0.6862
  862MOL0     C16271   6.093   7.951   4.565  0.1797 -0.3095  0.1159
  862MOL0     C16272   6.228   7.996   4.504  0.5573 -0.2825 -0.6554
  862MOL0     C16273   6.216   7.983   4.349 -0.5764 -0.2099 -0.6598
  862MOL0     C16274   6.357   7.991   4.306  1.0587 -0.2142  0.0998
  862MOL0     C16275   6.378   8.013   4.146 -0.7326  0.6134  0.7440
  862MOL0     C16276   6.284   7.926   4.062 -0.2859  0.3376  0.9415
  862MOL0     C16277   6.303   7.765   4.065 -0.8110 -0.2770  0.7133
  862MOL0     C16278   6.161   7.711   4.075 -0.6532 -0.0258  0.0385
  862MOL0    Cl16279   6.068   7.751   3.933  0.3333  0.5534  0.0091
  862MOL0     C16280   5.792   7.887   4.560  0.0882  0.0597 -0.1505
  862MOL0     C16281   5.661   7.872   4.622 -1.0334  0.5218 -0.8783
  862MOL0     O16282   5.418   8.150   4.842 -0.1126  0.1596  1.1341
  862MOL0     C16283   5.148   8.106   4.821 -1.0537 -1.3003  0.1915
  862MOL0     C16284   5.013   8.067   4.823  0.2600  0.0283 -0.1638
  862MOL0     N16285   4.363   7.851   5.079 -0.7339  0.2207 -0.7137
  862MOL0     N16286   4.365   7.752   5.163 -0.1076 -0.8956  0.2918
  862MOL0     C16287   5.569   7.767   5.006  0.6614  0.0113 -0.6784
  862MOL0     C16288   5.704   7.748   4.979  0.6884  0.2658 -0.2258
  862MOL0     C16289   6.125   7.583   4.921 -0.5138 -0.0280  0.5118
  862MOL0     C16290   6.228   7.666   4.869 -0.7593  0.7599  0.0499
  862MOL0     C16291   6.356   7.616   4.839  0.5599  0.1281 -0.0707
  862MOL0     C16292   6.384   7.479   4.871  0.5914 -0.4135 -0.6352
  862MOL0     O16293   6.520   7.446   4.848  0.2216  0.5455 -0.3629
  862MOL0     C16294   6.570   7.324   4.896 -0.6733 -0.5330  0.1935
  862MOL0     C16295   6.713   7.311   4.864 -0.1233 -0.4951 -0.5034
  862MOL0     C16296   6.799   7.420   4.931 -0.3046 -0.0398 -0.3258
  862MOL0     C16297   6.946   7.403   4.886 -0.9900 -0.5892 -0.1649
  862MOL0     C16298   7.025   7.315   4.973 -0.6113 -0.9258  0.3053
  862MOL0     C16299   7.075   7.242   5.061  0.0127  0.5850  0.0504
  862MOL0     C16300   6.288   7.398   4.935  0.2271 -0.2400  0.7924
  862MOL0     C16301   6.158   7.446   4.955 -0.3594 -0.3523 -0.2009
  862MOL0     C16302   6.054   7.356   5.003 -0.4227 -0.2488  0.1013
  862MOL0     H16303   5.765   7.459   5.147  1.5547  1.2152 -1.1235
  862MOL0     H16304   5.510   7.494   5.187  0.3353 -2.9542 -2.6421
  862MOL0     H16305   5.255   7.527   5.130 -2.2644  0.5400  1.3749
  862MOL0     H16306   5.345   7.606   5.271 -2.0142  0.7174  0.8017
  862MOL0     H16307   5.190   7.782   5.279 -3.0454 -0.5232  1.4374
  862MOL0     H16308   5.115   7.627   5.295  2.8489 -0.5295  1.5097
  862MOL0     H16309   5.067   7.626   5.045 -2.0779 -2.0196  1.4749
  862MOL0     H16310   5.108   7.790   5.033 -0.1256 -3.2157 -2.1738
  862MOL0     H16311   4.940   7.786   5.263 -1.8725 -1.7907  0.1643
  862MOL0     H16312   4.876   7.823   5.103  1.8112  0.9876 -0.2046
  862MOL0     H16313   4.869   7.557   5.079  0.5517 -2.2808  1.4614
  862MOL0     H16314   4.886   7.539   5.252 -2.2339  1.1844  2.1191
  862MOL0     H16315   4.663   7.729   5.135 -0.5290  1.0136  1.1421
  862MOL0     H16316   4.651   7.550   5.159 -0.6912 -0.4880  1.0453
  862MOL0     H16317   4.723   7.782   5.346  2.2012 -1.4060 -2.7868
  862MOL0     H16318   4.728   7.619   5.405  0.2259 -0.8974 -1.2539
  862MOL0     H16319   4.486   7.590   5.347 -2.6085  1.3141  0.4789
  862MOL0     H16320   4.504   7.726   5.469 -0.9924  0.2366 -0.3093
  862MOL0     H16321   4.590   7.945   5.295 -0.9776 -0.6022  0.1957
  862MOL0     H16322   4.388   8.127   5.058  1.4741  1.8530  0.6056
  862MOL0     H16323   4.548   8.139   5.133 -1.6222 -0.6332  2.3590
  862MOL0     H16324   4.489   7.998   4.860  0.1577  0.5615 -0.6386
  862MOL0     H16325   4.546   8.162   4.872  0.1782 -0.2065 -1.7135
  862MOL0     H16326   4.693   7.925   4.977  0.1220  1.6516  0.9975
  862MOL0     H16327   4.771   8.078   4.956  2.3515 -3.0073 -1.8567
  862MOL0     H16328   4.747   8.078   4.719  1.0377  0.9061  1.4754
  862MOL0     H16329   4.651   7.938   4.718 -0.5262 -0.8106  1.1215
  862MOL0     H16330   5.048   7.759   4.698 -5.5608  1.6944  0.6086
  862MOL0     H16331   5.272   7.810   4.698  1.5218  0.0248  3.3965
  862MOL0     H16332   5.620   8.195   4.715 -1.1330 -0.2837 -0.3445
  862MOL0     H16333   5.853   8.217   4.617 -3.7960  2.9372  0.2898
  862MOL0     H16334   6.095   7.947   4.674  1.7019 -0.7955  0.0948
  862MOL0     H16335   6.074   7.855   4.517 -0.2866  0.2618 -0.8757
  862MOL0     H16336   6.231   8.103   4.526 -0.5460 -0.8689  3.1439
  862MOL0     H16337   6.318   7.951   4.546  1.2248  0.1648 -1.5635
  862MOL0     H16338   6.157   7.896   4.320 -2.3117 -0.0267  1.9794
  862MOL0     H16339   6.174   8.074   4.307 -1.2119 -0.4064 -0.4548
  862MOL0     H16340   6.405   7.900   4.341  3.0566  0.0774 -1.6752
  862MOL0     H16341   6.405   8.077   4.353  0.4429 -1.1395  2.5486
  862MOL0     H16342   6.481   7.986   4.122 -1.3549 -3.8677  2.1606
  862MOL0     H16343   6.362   8.120   4.130  0.6601  0.6879 -0.2477
  862MOL0     H16344   6.183   7.955   4.093 -1.5792 -1.3285 -1.4111
  862MOL0     H16345   6.295   7.945   3.955 -0.3302 -2.7307  0.2814
  862MOL0     H16346   6.356   7.729   4.154  0.6776 -0.6729 -0.3000
  862MOL0     H16347   6.348   7.720   3.977 -1.6316 -1.9010  1.0951
  862MOL0     H16348   6.169   7.605   4.103  0.7234  0.1220  0.3123
  862MOL0     H16349   6.104   7.756   4.156  2.3645  0.9149  1.8049
  862MOL0     H16350   5.836   7.799   4.515 -4.1182 -2.5516  0.2873
  862MOL0     H16351   5.600   7.785   4.603 -1.2601  0.7468 -1.1837
  862MOL0     H16352   5.170   8.203   4.864 -1.2029 -0.2198 -2.0348
  862MOL0     H16353   4.943   8.142   4.858 -1.7053 -0.4026 -2.9247
  862MOL0     H16354   5.527   7.861   4.972  3.2308  3.1171  3.6584
  862MOL0     H16355   5.764   7.826   4.934  0.6262  1.3685  1.5563
  862MOL0     H16356   6.212   7.769   4.840  2.9888  1.7579  0.9935
  862MOL0     H16357   6.428   7.681   4.790 -1.9343  0.8622 -3.0622
  862MOL0     H16358   6.507   7.248   4.851 -3.1631  1.4963  0.0096
  862MOL0     H16359   6.563   7.314   5.005  1.2935 -0.8968  0.3357
  862MOL0     H16360   6.713   7.308   4.755 -2.1156 -2.3464 -0.5072
  862MOL0     H16361   6.742   7.213   4.903 -2.5760 -1.6654 -1.3992
  862MOL0     H16362   6.797   7.419   5.040  0.8937  2.9259 -0.1855
  862MOL0     H16363   6.772   7.522   4.900  0.4193  0.2824  0.0834
  862MOL0     H16364   6.941   7.379   4.779  0.4322 -0.0078 -0.3876
  862MOL0     H16365   6.992   7.502   4.887 -1.6603 -0.2792  0.0879
  862MOL0     H16366   7.114   7.195   5.148  0.4680 -4.7613 -2.6531
  862MOL0     H16367   6.305   7.292   4.950 -0.8846 -0.4563  0.6368
  862MOL0     H16368   6.089   7.254   4.980  3.6478  0.7775  0.9420
  862MOL0     H16369   6.041   7.367   5.111 -2.4037  1.5949 -0.2498
  862MOL0     H16370   5.952   7.375   4.968 -0.9602  0.0437  1.7234
  863MOL0     O16371   0.281   1.616  11.137  0.2281 -0.6212 -0.1327
  863MOL0     C16372   0.341   1.514  11.116  0.3382  0.0098 -0.8424
  863MOL0     O16373   0.282   1.408  11.066 -0.3120  0.1304  0.2532
  863MOL0     C16374   0.150   1.409  11.034 -1.2190  0.2970  0.6742
  863MOL0     C16375   0.091   1.498  10.952 -0.2012  0.0399  0.7768
  863MOL0     C16376  -0.044   1.494  10.913 -0.0817 -0.2631 -0.2112
  863MOL0     C16377  -0.117   1.385  10.970 -0.1906 -0.2990 -1.3085
  863MOL0     O16378  -0.249   1.393  10.959 -0.4798  0.8595  0.0490
  863MOL0     C16379  -0.312   1.274  10.899  0.0727  0.0528  0.1113
  863MOL0     C16380  -0.442   1.318  10.837 -0.7095 -0.3757  0.9107
  863MOL0     C16381  -0.543   1.210  10.790  0.0077  0.7787  0.0999
  863MOL0     C16382  -0.634   1.162  10.901 -0.4735 -0.1456 -1.2491
  863MOL0     C16383  -0.762   1.103  10.859  0.3244  0.0774 -0.3936
  863MOL0     C16384  -0.850   1.058  10.975  0.4108  0.2325  0.4970
  863MOL0     C16385  -0.982   0.992  10.932  1.0884 -0.1125  0.0674
  863MOL0     C16386  -1.071   1.100  10.863  0.6523  0.3050 -0.0034
  863MOL0     N16387  -1.191   1.036  10.813  0.0616 -0.0969  0.3444
  863MOL0     C16388  -1.221   0.986  10.691  0.3924 -0.2329 -0.0052
  863MOL0     C16389  -1.354   0.957  10.699  0.7570 -0.2740 -0.4045
  863MOL0     C16390  -1.435   0.891  10.583  0.0488 -0.3970  0.4928
  863MOL0     C16391  -1.573   0.960  10.561  0.0252  0.1566  0.1169
  863MOL0     C16392  -1.648   0.886  10.449 -0.4295 -0.6504  0.2097
  863MOL0     C16393  -1.783   0.949  10.429 -0.4477  0.1730  0.5802
  863MOL0     O16394  -1.852   0.850  10.355 -0.1340 -0.8855  0.4773
  863MOL0     C16395  -1.958   0.912  10.289  0.1706 -0.1335  0.8614
  863MOL0     C16396  -1.988   0.862  10.158 -0.0945 -0.1403  0.2341
  863MOL0     C16397  -2.094   0.912  10.078  0.1774  0.4767 -0.0924
  863MOL0     C16398  -2.169   1.015  10.132  0.9175  0.2407 -0.2921
  863MOL0     C16399  -2.294   1.060  10.064 -0.2929  0.2200  0.3315
  863MOL0     O16400  -2.372   1.162  10.122  0.1013  0.1859 -0.3321
  863MOL0     C16401  -2.465   1.215  10.034 -0.8748  0.4009 -0.4788
  863MOL0     C16402  -2.425   1.302   9.929 -0.0774  0.0997  0.2765
  863MOL0     C16403  -2.519   1.367   9.854 -0.0803 -0.0859 -0.4885
  863MOL0     C16404  -2.653   1.330   9.861  0.0065 -0.2625 -0.6169
  863MOL0     O16405  -2.753   1.383   9.788  0.0925  0.1407  0.2803
  863MOL0     C16406  -2.725   1.454   9.667  0.7729 -0.1054  0.4301
  863MOL0     C16407  -2.709   1.609   9.690 -0.0772  0.0959 -0.1193
  863MOL0     C16408  -2.785   1.676   9.809 -0.3141 -0.2431  0.2871
  863MOL0     C16409  -2.929   1.626   9.821  0.1677 -0.1603 -0.6335
  863MOL0     C16410  -2.987   1.652   9.966 -0.4466  0.1426 -0.2116
  863MOL0     C16411  -3.127   1.604   9.962  0.7700 -0.2295 -0.1276
  863MOL0     C16412  -3.195   1.596  10.100  0.1016 -0.3566 -0.9876
  863MOL0     C16413  -3.346   1.633  10.083  0.2880 -0.0925  0.1923
  863MOL0    Cl16414  -3.379   1.817  10.063  0.2656 -0.0255 -0.5566
  863MOL0     C16415  -2.688   1.235   9.963  0.0651 -0.2828 -0.2733
  863MOL0     C16416  -2.592   1.182  10.046  0.0395 -0.5703 -0.1766
  863MOL0     O16417  -2.320   1.012   9.953 -0.5018 -0.1339 -0.6772
  863MOL0     C16418  -2.143   1.068  10.268  0.3666 -0.0723  0.4881
  863MOL0     C16419  -2.051   1.008  10.348 -1.0786 -0.3955  0.6232
  863MOL0     N16420  -1.400   1.015  10.819  0.3023  0.3655 -0.0393
  863MOL0     N16421  -1.301   1.063  10.885  0.2779  0.6762 -0.1244
  863MOL0     C16422  -0.054   1.293  11.047 -0.3815  0.3192 -0.0248
  863MOL0     C16423   0.080   1.298  11.074  0.7533  0.7867  0.2729
  863MOL0     C16424   0.480   1.497  11.169  0.2408 -0.1350  0.4702
  863MOL0     C16425   0.513   1.363  11.208 -1.3737 -0.5959 -0.0222
  863MOL0     C16426   0.619   1.342  11.283 -0.5568  0.3390 -0.2732
  863MOL0     C16427   0.714   1.443  11.323 -0.0464 -0.0035  0.5733
  863MOL0     O16428   0.830   1.427  11.392 -0.2604  0.3674 -0.0181
  863MOL0     C16429   0.888   1.303  11.356 -0.4804 -0.3534  0.4385
  863MOL0     C16430   1.006   1.275  11.444  0.2098  0.4907  0.2702
  863MOL0     C16431   1.110   1.394  11.430 -0.3150 -0.4391 -0.5284
  863MOL0     C16432   1.248   1.348  11.496 -0.1100 -0.3367 -0.0313
  863MOL0     C16433   1.352   1.319  11.392  1.1731  0.1387  0.5514
  863MOL0     C16434   1.411   1.291  11.288  0.7525 -0.2293 -0.8561
  863MOL0     C16435   0.685   1.569  11.268 -0.5879 -1.1480  0.3837
  863MOL0     C16436   0.568   1.600  11.201  0.2661  0.6252 -1.0405
  863MOL0     C16437   0.542   1.743  11.162 -0.4819 -0.1692 -0.2520
  863MOL0     H16438   0.132   1.594  10.920  1.2147 -1.2086 -1.3757
  863MOL0     H16439  -0.080   1.573  10.848  1.4093  0.2335 -0.4557
  863MOL0     H16440  -0.253   1.225  10.821 -0.9444 -0.8995 -0.0909
  863MOL0     H16441  -0.342   1.201  10.974 -1.2893 -0.0204 -0.4732
  863MOL0     H16442  -0.418   1.376  10.748  0.5605 -1.9439  0.1866
  863MOL0     H16443  -0.496   1.393  10.896  0.2144  0.1603  1.1082
  863MOL0     H16444  -0.489   1.136  10.731 -2.9587  1.7936 -4.3825
  863MOL0     H16445  -0.612   1.259  10.720 -1.1425  0.1012  0.7345
  863MOL0     H16446  -0.569   1.096  10.960 -1.7896  2.1547  3.1985
  863MOL0     H16447  -0.655   1.238  10.977 -1.3138  0.4916 -2.1108
  863MOL0     H16448  -0.822   1.173  10.800 -0.0084 -0.7535 -1.0547
  863MOL0     H16449  -0.745   1.019  10.792 -0.9546 -1.8124  1.5304
  863MOL0     H16450  -0.805   0.978  11.034 -1.7110 -1.8935 -0.5582
  863MOL0     H16451  -0.866   1.133  11.052  1.2704 -0.5682  1.4852
  863MOL0     H16452  -1.034   0.954  11.020  0.6564 -2.1035 -0.9856
  863MOL0     H16453  -0.975   0.917  10.852 -2.2777 -0.2011 -0.2760
  863MOL0     H16454  -1.092   1.174  10.941 -0.5691  1.1034 -1.0399
  863MOL0     H16455  -1.024   1.144  10.774 -0.4845 -1.4889 -1.5618
  863MOL0     H16456  -1.157   0.957  10.608 -1.6369 -2.5539 -0.8944
  863MOL0     H16457  -1.383   0.903  10.488  0.8719  0.8137  1.0699
  863MOL0     H16458  -1.459   0.784  10.585 -0.5117 -0.4006 -2.4008
  863MOL0     H16459  -1.631   0.952  10.653 -0.8206  0.4050 -0.3810
  863MOL0     H16460  -1.561   1.066  10.539  1.0593  0.0489  0.1141
  863MOL0     H16461  -1.663   0.785  10.488 -1.8233 -0.1609  1.0029
  863MOL0     H16462  -1.591   0.883  10.355 -3.2053  0.0118 -1.6239
  863MOL0     H16463  -1.783   1.046  10.377 -3.9286 -0.8128 -1.5572
  863MOL0     H16464  -1.827   0.967  10.527  0.2077  0.7846  0.7735
  863MOL0     H16465  -1.932   0.779  10.116 -3.2106 -2.2483 -0.0857
  863MOL0     H16466  -2.113   0.869   9.980  1.3822  3.8898 -1.9540
  863MOL0     H16467  -2.320   1.317   9.906 -0.0549  1.0126  0.9062
  863MOL0     H16468  -2.493   1.427   9.767 -0.0967 -3.0213 -2.6689
  863MOL0     H16469  -2.645   1.410   9.606  0.1043 -1.7889  0.7064
  863MOL0     H16470  -2.815   1.444   9.604  0.4064  1.7482  0.5836
  863MOL0     H16471  -2.604   1.637   9.692 -0.4984  1.9656 -1.2487
  863MOL0     H16472  -2.749   1.658   9.601 -0.5142 -0.2126 -0.0965
  863MOL0     H16473  -2.726   1.661   9.900  3.2936  0.7108 -1.6963
  863MOL0     H16474  -2.775   1.785   9.800  1.6444 -0.4791 -0.8621
  863MOL0     H16475  -2.949   1.520   9.798 -2.9552  0.0566  0.5193
  863MOL0     H16476  -2.996   1.671   9.748  2.9581  0.3055 -3.0758
  863MOL0     H16477  -2.989   1.758   9.991 -0.2378  0.1226 -0.1019
  863MOL0     H16478  -2.924   1.597  10.037 -2.1497 -2.9804 -0.9548
  863MOL0     H16479  -3.188   1.661   9.891  0.9130  1.9312  1.4077
  863MOL0     H16480  -3.133   1.501   9.924  3.1389 -0.1115 -0.9778
  863MOL0     H16481  -3.150   1.662  10.175 -3.0630 -0.5323  1.2512
  863MOL0     H16482  -3.192   1.491  10.133  0.3570 -0.3757 -1.0693
  863MOL0     H16483  -3.390   1.578   9.999 -0.9770 -0.8724  1.3247
  863MOL0     H16484  -3.406   1.606  10.170  1.9900 -0.2918  1.3512
  863MOL0     H16485  -2.791   1.201   9.967 -0.3766  1.1197  2.5100
  863MOL0     H16486  -2.626   1.105  10.114 -2.6563  0.6777  0.0271
  863MOL0     H16487  -2.203   1.144  10.317  1.0983  0.7058  0.2193
  863MOL0     H16488  -2.042   1.050  10.448  0.7748  1.0166 -0.0748
  863MOL0     H16489  -0.106   1.210  11.095  3.1484 -0.6310  2.5188
  863MOL0     H16490   0.123   1.222  11.140  0.4544  1.8645  1.7780
  863MOL0     H16491   0.448   1.281  11.179 -2.8091  0.5669 -0.2256
  863MOL0     H16492   0.631   1.237  11.309 -1.5631  0.1814 -0.3937
  863MOL0     H16493   0.932   1.306  11.255 -0.0692 -0.3026  0.6158
  863MOL0     H16494   0.823   1.217  11.374  0.3518 -0.8762  1.0377
  863MOL0     H16495   1.054   1.179  11.423 -4.3041 -1.7217 -0.9690
  863MOL0     H16496   0.968   1.286  11.546 -3.7052  1.5774 -1.1478
  863MOL0     H16497   1.077   1.489  11.473 -0.3554 -1.1463  1.0610
  863MOL0     H16498   1.137   1.417  11.326 -0.0853  0.4973 -0.2735
  863MOL0     H16499   1.279   1.430  11.560  1.6401 -2.5197  2.1321
  863MOL0     H16500   1.227   1.259  11.557 -3.4589 -1.4885 -2.5419
  863MOL0     H16501   1.464   1.280  11.196  2.5452 -0.0212  0.1017
  863MOL0     H16502   0.758   1.647  11.285 -1.1062  0.0322 -2.2368
  863MOL0     H16503   0.517   1.765  11.058 -1.7856  1.9922  0.4630
  863MOL0     H16504   0.460   1.781  11.223 -0.0047  1.4491 -0.5881
  863MOL0     H16505   0.632   1.804  11.177 -1.2999  0.6303  1.8120
  864MOL0     O16506   2.192   6.745   1.148 -0.3342  0.2793  0.0911
  864MOL0     C16507   2.194   6.664   1.248  0.4787 -0.2297 -0.3429
  864MOL0     O16508   2.243   6.536   1.240  0.4060  0.7126 -0.7971
  864MOL0     C16509   2.241   6.456   1.127 -0.6185  0.0949 -0.5509
  864MOL0     C16510   2.249   6.491   0.992 -0.3003  0.0840 -0.2253
  864MOL0     C16511   2.235   6.402   0.880 -0.9639  0.5130 -0.3672
  864MOL0     C16512   2.231   6.263   0.915 -0.3488 -0.3636  0.2591
  864MOL0     O16513   2.242   6.154   0.826 -0.0910  0.1390  0.2289
  864MOL0     C16514   2.262   6.184   0.689 -0.0391 -0.2532  0.2709
  864MOL0     C16515   2.130   6.210   0.608  0.3799  0.9932  0.6674
  864MOL0     C16516   2.173   6.229   0.459 -0.7421 -0.0619  0.3598
  864MOL0     C16517   2.050   6.245   0.367 -0.2930 -0.6872 -0.2887
  864MOL0     C16518   2.090   6.285   0.223  0.9480 -0.4088  0.6922
  864MOL0     C16519   1.987   6.276   0.110  0.0845 -0.4814  0.5310
  864MOL0     C16520   1.880   6.384   0.130  0.5519  0.0579 -0.0130
  864MOL0     C16521   1.736   6.333   0.091 -0.9806  0.0080  0.2333
  864MOL0     N16522   1.636   6.438   0.099 -0.3619  0.5960 -0.2912
  864MOL0     C16523   1.625   6.539   0.005  0.8318 -0.7941  1.1312
  864MOL0     C16524   1.520   6.613   0.060 -0.9073  0.3950 -0.5260
  864MOL0     C16525   1.462   6.726  -0.009 -0.6729  0.5112  0.4388
  864MOL0     C16526   1.494   6.860   0.072 -1.3697  0.9247  0.8535
  864MOL0     C16527   1.420   6.998   0.040 -0.0645  0.4513  0.2242
  864MOL0     C16528   1.413   7.029  -0.111 -0.4378  0.2867  0.2638
  864MOL0     O16529   1.543   7.013  -0.174 -0.3411  0.1054 -0.7144
  864MOL0     C16530   1.542   6.964  -0.311 -0.9867 -0.0374 -0.0300
  864MOL0     C16531   1.664   6.948  -0.375 -0.5005 -0.2711  0.4991
  864MOL0     C16532   1.682   6.919  -0.512 -0.2145  0.2402  0.1837
  864MOL0     C16533   1.579   6.887  -0.593 -0.0203  0.0164  0.0144
  864MOL0     C16534   1.585   6.830  -0.728 -0.7602 -0.0256  0.7607
  864MOL0     O16535   1.485   6.750  -0.777 -0.2890  0.1657 -0.1599
  864MOL0     C16536   1.443   6.730  -0.907 -0.2280 -0.5038  0.8863
  864MOL0     C16537   1.498   6.796  -1.022  1.0008 -0.5341 -1.0780
  864MOL0     C16538   1.458   6.756  -1.148 -0.3550 -0.4646  0.3324
  864MOL0     C16539   1.363   6.661  -1.168 -0.2959 -0.2592  0.0845
  864MOL0     O16540   1.333   6.628  -1.294  0.1494  0.3559 -0.3695
  864MOL0     C16541   1.310   6.731  -1.385  0.1388 -0.1744 -0.2266
  864MOL0     C16542   1.204   6.690  -1.489 -0.4114 -0.3724 -0.3842
  864MOL0     C16543   1.162   6.809  -1.577  0.2355 -0.6644 -0.9318
  864MOL0     C16544   1.008   6.816  -1.579  0.0238 -0.3758  0.1977
  864MOL0     C16545   0.955   6.930  -1.650 -0.7141 -1.0118  0.2935
  864MOL0     C16546   0.806   6.947  -1.631  0.2626 -0.1653 -0.3744
  864MOL0     C16547   0.753   7.045  -1.730 -0.9125 -0.3966 -0.0738
  864MOL0     C16548   0.661   7.149  -1.667 -0.1687  0.4407 -0.1251
  864MOL0    Cl16549   0.527   7.069  -1.577  0.0299 -0.2898 -0.0759
  864MOL0     C16550   1.300   6.589  -1.062 -0.3822 -0.4439  0.0670
  864MOL0     C16551   1.347   6.632  -0.933 -0.2910 -0.4682  0.4433
  864MOL0     O16552   1.673   6.885  -0.800  0.4074  0.8782 -0.3654
  864MOL0     C16553   1.446   6.886  -0.531 -0.2901 -0.2100  0.9363
  864MOL0     C16554   1.433   6.926  -0.395 -0.4770  0.1024 -0.5682
  864MOL0     N16555   1.494   6.563   0.189 -0.2254 -0.7700 -0.3205
  864MOL0     N16556   1.565   6.467   0.209 -0.5198 -0.3239 -0.4545
  864MOL0     C16557   2.234   6.228   1.052 -0.6008  0.0725  0.4204
  864MOL0     C16558   2.244   6.316   1.159 -0.0594  0.6797 -0.4356
  864MOL0     C16559   2.136   6.715   1.376  0.0081 -0.1015  0.5202
  864MOL0     C16560   2.086   6.607   1.466 -0.1090  0.4198  0.7438
  864MOL0     C16561   1.999   6.641   1.570  0.6015 -0.3465 -0.3210
  864MOL0     C16562   1.982   6.774   1.604 -0.1877  0.6127  0.4036
  864MOL0     O16563   1.922   6.801   1.719 -0.1468 -0.0733  0.7815
  864MOL0     C16564   1.829   6.908   1.735  0.7309 -0.1411  0.1803
  864MOL0     C16565   1.883   7.008   1.844  0.0584  0.4873  0.9516
  864MOL0     C16566   1.795   7.134   1.878 -0.2825  0.7033 -0.2512
  864MOL0     C16567   1.692   7.116   1.986  0.8242 -0.1596 -0.1864
  864MOL0     C16568   1.614   7.232   2.011  0.3255 -0.3792 -0.4075
  864MOL0     C16569   1.556   7.333   2.051  0.4070 -0.0218 -0.0497
  864MOL0     C16570   2.030   6.873   1.523 -1.1800 -0.0885 -0.7745
  864MOL0     C16571   2.112   6.855   1.413  0.2768 -0.0619  0.1308
  864MOL0     C16572   2.144   6.970   1.316 -0.4431 -0.2494 -0.0394
  864MOL0     H16573   2.273   6.595   0.975  4.4039 -0.3365  2.2140
  864MOL0     H16574   2.251   6.439   0.779 -2.8054  0.2072 -0.8066
  864MOL0     H16575   2.328   6.268   0.668  0.6238 -0.8288  0.0216
  864MOL0     H16576   2.306   6.095   0.644  0.0394 -0.1962  0.2361
  864MOL0     H16577   2.071   6.290   0.652 -0.7465  0.0466  0.9149
  864MOL0     H16578   2.070   6.120   0.624  1.0834  0.5671  0.9996
  864MOL0     H16579   2.231   6.148   0.412 -0.3415  2.2996 -3.7344
  864MOL0     H16580   2.236   6.317   0.473  0.2184 -1.0886  3.1149
  864MOL0     H16581   1.997   6.149   0.362  1.8913 -1.8953 -2.1245
  864MOL0     H16582   1.986   6.315   0.420 -0.0209  0.4447 -1.4114
  864MOL0     H16583   2.104   6.393   0.221  0.3286 -0.3283 -0.9116
  864MOL0     H16584   2.187   6.241   0.200  1.1367 -1.8490  3.7821
  864MOL0     H16585   2.041   6.281   0.014 -1.8152 -0.2107 -0.5831
  864MOL0     H16586   1.927   6.185   0.108  0.5417 -0.7817  0.1488
  864MOL0     H16587   1.905   6.468   0.065 -4.0248  1.3738 -0.4420
  864MOL0     H16588   1.892   6.422   0.232 -1.7206 -3.2540  1.6663
  864MOL0     H16589   1.730   6.268   0.003 -1.2618  0.4151 -0.0544
  864MOL0     H16590   1.712   6.270   0.177 -1.1822 -1.0133 -0.5527
  864MOL0     H16591   1.668   6.552  -0.094  1.4111 -1.4151  1.2940
  864MOL0     H16592   1.490   6.719  -0.114  0.9694  1.7492  0.7641
  864MOL0     H16593   1.353   6.717   0.001 -0.5542  0.4055  1.8149
  864MOL0     H16594   1.483   6.849   0.181  0.0905  2.3676  1.1897
  864MOL0     H16595   1.598   6.880   0.043 -1.3681  0.6001  0.6376
  864MOL0     H16596   1.476   7.074   0.095 -0.5258 -0.8490  2.6511
  864MOL0     H16597   1.321   7.001   0.088 -1.0895 -0.6970 -1.6932
  864MOL0     H16598   1.379   7.133  -0.116  1.4997  1.1907  3.3342
  864MOL0     H16599   1.326   6.975  -0.152 -0.5131  2.5000 -2.7656
  864MOL0     H16600   1.757   6.966  -0.321 -2.0236  2.1068  2.5551
  864MOL0     H16601   1.784   6.909  -0.547  0.0277  4.7206 -0.9874
  864MOL0     H16602   1.573   6.875  -1.019  0.5945 -0.1394 -1.2417
  864MOL0     H16603   1.513   6.784  -1.237 -1.8038 -0.8206 -0.7000
  864MOL0     H16604   1.267   6.817  -1.332  1.6673 -0.1143  1.0061
  864MOL0     H16605   1.404   6.771  -1.421  0.0640  0.4897  0.2900
  864MOL0     H16606   1.253   6.623  -1.561  0.3491  1.2184 -1.4128
  864MOL0     H16607   1.110   6.648  -1.453 -1.6729  1.4119 -1.4434
  864MOL0     H16608   1.192   6.902  -1.528  1.4086 -1.3903 -0.2282
  864MOL0     H16609   1.216   6.828  -1.670  2.8295  0.2941  0.6689
  864MOL0     H16610   0.976   6.824  -1.475  0.5847  0.0801  0.3404
  864MOL0     H16611   0.969   6.719  -1.611  0.9095 -0.8447  0.5247
  864MOL0     H16612   0.966   6.918  -1.758 -1.7829 -1.0431  0.1778
  864MOL0     H16613   0.994   7.026  -1.617 -4.2535 -0.0092  2.1121
  864MOL0     H16614   0.763   6.848  -1.647  2.6654 -1.3164 -0.1163
  864MOL0     H16615   0.789   6.973  -1.526  3.9613 -0.4333  0.4546
  864MOL0     H16616   0.687   6.996  -1.802 -3.5521  1.5531  0.8390
  864MOL0     H16617   0.831   7.090  -1.792  1.7278 -2.6741  1.3928
  864MOL0     H16618   0.715   7.208  -1.592 -1.9605  0.2150  1.4298
  864MOL0     H16619   0.631   7.213  -1.750 -0.5517 -1.0198 -1.1402
  864MOL0     H16620   1.232   6.505  -1.073  1.3461 -2.2614  2.1059
  864MOL0     H16621   1.309   6.571  -0.851  0.7887 -4.1310 -1.5320
  864MOL0     H16622   1.353   6.859  -0.579 -0.8581  1.6530  0.9147
  864MOL0     H16623   1.328   6.926  -0.367 -0.3352 -1.6922  0.0942
  864MOL0     H16624   2.249   6.121   1.065  1.7200  0.4741  1.5401
  864MOL0     H16625   2.248   6.285   1.263  0.6178  0.9575 -0.3711
  864MOL0     H16626   2.080   6.502   1.440 -1.8958 -0.1813  3.1729
  864MOL0     H16627   1.953   6.564   1.631 -4.2595  3.6141  1.8025
  864MOL0     H16628   1.729   6.873   1.765  0.0295  2.0154  0.5289
  864MOL0     H16629   1.820   6.970   1.644  1.8476 -2.2702 -1.4699
  864MOL0     H16630   1.983   7.034   1.807  0.3302 -3.0119 -1.2701
  864MOL0     H16631   1.900   6.947   1.933 -4.2658 -1.4770  0.6889
  864MOL0     H16632   1.756   7.176   1.785  1.8856  2.7627 -0.3259
  864MOL0     H16633   1.861   7.210   1.922  0.7370 -1.8212  2.9938
  864MOL0     H16634   1.631   7.032   1.953 -0.1478 -0.0709  1.3089
  864MOL0     H16635   1.722   7.073   2.082  0.5643 -4.3792 -1.7879
  864MOL0     H16636   1.500   7.406   2.104 -2.2251 -1.5466 -0.5485
  864MOL0     H16637   2.015   6.974   1.559 -3.9721 -1.5441  2.7797
  864MOL0     H16638   2.239   6.961   1.263 -1.0669 -0.9895 -1.0651
  864MOL0     H16639   2.068   6.973   1.238  1.1347  0.6690 -1.6023
  864MOL0     H16640   2.145   7.068   1.364 -0.9983 -0.7066  0.9449
  865MOL0     O16641   3.942  10.355  10.562  0.0973 -0.2710 -0.3490
  865MOL0     C16642   3.901  10.430  10.474  0.0937 -0.2829 -0.6927
  865MOL0     O16643   3.844  10.401  10.357  0.5706  0.6805 -0.0229
  865MOL0     C16644   3.816  10.273  10.345 -0.0069  0.4402  1.0906
  865MOL0     C16645   3.910  10.174  10.327  0.2225  0.9992 -0.2389
  865MOL0     C16646   3.863  10.041  10.293 -0.1749  0.6053 -0.1090
  865MOL0     C16647   3.728  10.013  10.309  0.1539  0.2008 -0.3559
  865MOL0     O16648   3.686   9.888  10.291  0.6864  0.0165  0.4712
  865MOL0     C16649   3.591   9.838  10.387 -0.2767 -1.1747  0.3752
  865MOL0     C16650   3.577   9.691  10.366  1.1597 -0.0546  0.1068
  865MOL0     C16651   3.453   9.637  10.443 -0.4847  0.4117 -0.5201
  865MOL0     C16652   3.446   9.475  10.432  0.7657 -0.4549 -0.0471
  865MOL0     C16653   3.334   9.425  10.347 -0.4938  0.2340 -0.5638
  865MOL0     C16654   3.378   9.421  10.199 -0.1404 -0.6178  0.7033
  865MOL0     C16655   3.263   9.390  10.099 -0.6040 -0.0659  1.3329
  865MOL0     C16656   3.324   9.334   9.965 -0.0785  1.2330 -0.0364
  865MOL0     N16657   3.221   9.273   9.887 -0.0640  0.2851  0.1077
  865MOL0     C16658   3.098   9.339   9.862 -0.1349  0.2898 -0.3369
  865MOL0     C16659   3.029   9.245   9.797 -0.8197  0.7513 -0.2139
  865MOL0     C16660   2.911   9.274   9.708  0.0722 -0.4412  0.8469
  865MOL0     C16661   2.972   9.283   9.555 -0.1074  0.5626 -1.3574
  865MOL0     C16662   2.867   9.354   9.479  0.2413  0.7880 -0.2225
  865MOL0     C16663   2.894   9.397   9.339  0.0502 -0.4767 -0.3004
  865MOL0     O16664   3.010   9.475   9.344 -0.1828 -0.3733  0.2848
  865MOL0     C16665   3.110   9.438   9.254  0.1544  1.1714 -0.3237
  865MOL0     C16666   3.139   9.517   9.146  0.6415  0.4268  0.8191
  865MOL0     C16667   3.252   9.499   9.061  0.7593 -0.4155  0.4324
  865MOL0     C16668   3.348   9.410   9.104 -1.1706 -0.5310  0.3318
  865MOL0     C16669   3.463   9.376   9.027 -1.5008  0.9977 -0.0477
  865MOL0     O16670   3.503   9.460   8.928  0.5796 -1.1526 -0.6576
  865MOL0     C16671   3.618   9.454   8.858  0.2182  0.2219 -1.0474
  865MOL0     C16672   3.704   9.341   8.851  0.5281  0.6800 -0.9795
  865MOL0     C16673   3.818   9.348   8.767 -0.2539 -0.5327 -0.1309
  865MOL0     C16674   3.858   9.462   8.692 -0.1893  0.5969  0.0551
  865MOL0     O16675   3.978   9.450   8.619  0.6141  0.7795  0.5842
  865MOL0     C16676   3.996   9.549   8.513 -0.1088  0.0720  0.0064
  865MOL0     C16677   4.059   9.484   8.396  0.2242 -0.6106 -0.0407
  865MOL0     C16678   4.072   9.583   8.274 -0.6003  0.1387  0.4754
  865MOL0     C16679   4.176   9.541   8.173 -0.4489 -0.5242 -0.2018
  865MOL0     C16680   4.143   9.609   8.035  0.4833  0.3363  0.4380
  865MOL0     C16681   4.265   9.615   7.949 -0.1220  0.0141 -0.1502
  865MOL0     C16682   4.366   9.491   7.933 -0.1742  0.3711 -0.0998
  865MOL0     C16683   4.468   9.541   7.829 -0.0905 -0.4745 -0.0695
  865MOL0    Cl16684   4.583   9.413   7.794 -0.2883  0.1944  0.3736
  865MOL0     C16685   3.769   9.579   8.713  0.1076  0.2161 -0.5858
  865MOL0     C16686   3.654   9.566   8.790 -0.4240 -0.8233  0.4452
  865MOL0     O16687   3.520   9.275   9.057  0.0589 -0.2189 -0.7736
  865MOL0     C16688   3.320   9.327   9.214  0.3482  0.5714 -1.3205
  865MOL0     C16689   3.201   9.337   9.289  0.2749 -0.5806  1.3470
  865MOL0     N16690   3.092   9.125   9.809 -0.3409 -0.4423  0.8142
  865MOL0     N16691   3.212   9.139   9.871  0.5726  0.4824  0.1588
  865MOL0     C16692   3.642  10.116  10.345 -0.4847  0.0971 -0.3190
  865MOL0     C16693   3.685  10.247  10.349 -0.1875  0.5513  0.2474
  865MOL0     C16694   3.909  10.575  10.503 -0.6435  0.1116  0.0782
  865MOL0     C16695   3.862  10.666  10.401 -0.4107  0.1018 -0.1151
  865MOL0     C16696   3.851  10.806  10.422 -0.4959 -0.3352 -0.4490
  865MOL0     C16697   3.904  10.864  10.538  0.9000 -0.0293  0.0111
  865MOL0     O16698   3.916  11.004  10.564  0.5009  0.5772 -0.1131
  865MOL0     C16699   3.851  11.108  10.479  0.8228  0.2962 -0.1135
  865MOL0     C16700   3.703  11.116  10.503  0.1924  0.0821 -1.3866
  865MOL0     C16701   3.674  11.158  10.646 -0.3485  0.4497 -0.2935
  865MOL0     C16702   3.558  11.262  10.664  0.3365 -0.1819 -0.4553
  865MOL0     C16703   3.536  11.271  10.811 -0.0355 -0.2213  0.3452
  865MOL0     C16704   3.512  11.286  10.935 -1.2053 -1.0399  0.6109
  865MOL0     C16705   3.957  10.779  10.636  0.2110 -0.5609  0.9248
  865MOL0     C16706   3.957  10.636  10.625  0.0996 -0.7150  0.3290
  865MOL0     C16707   4.022  10.560  10.735  1.1024 -0.2169  0.0824
  865MOL0     H16708   4.018  10.185  10.321  0.4181 -1.2581 -1.8810
  865MOL0     H16709   3.928   9.961  10.259 -1.8306 -0.1985 -1.6081
  865MOL0     H16710   3.628   9.858  10.488  0.0633  4.6794 -0.5637
  865MOL0     H16711   3.498   9.894  10.375 -0.2198 -1.1748 -0.0681
  865MOL0     H16712   3.668   9.642  10.402  0.9622 -0.9131 -0.5453
  865MOL0     H16713   3.561   9.669  10.260 -3.0975 -1.1312  0.7804
  865MOL0     H16714   3.367   9.699  10.416 -2.1613  0.4005  3.8637
  865MOL0     H16715   3.465   9.662  10.549 -1.8129 -4.1257  0.9103
  865MOL0     H16716   3.545   9.443  10.398 -0.2534 -1.3984 -2.2907
  865MOL0     H16717   3.418   9.444  10.533  1.5328  2.4959  1.1945
  865MOL0     H16718   3.300   9.326  10.381  3.0451 -0.5920  1.0624
  865MOL0     H16719   3.250   9.494  10.362 -1.0202 -0.1532 -1.6092
  865MOL0     H16720   3.429   9.514  10.171  2.1258 -2.5335 -2.2082
  865MOL0     H16721   3.467   9.360  10.182  1.4478  1.5695  0.7835
  865MOL0     H16722   3.208   9.481  10.076 -0.0608  0.2765  1.3655
  865MOL0     H16723   3.195   9.316  10.142  0.3335 -1.9472 -0.2232
  865MOL0     H16724   3.379   9.406   9.903 -2.1869  2.1783 -0.9150
  865MOL0     H16725   3.390   9.255  10.000 -3.1845 -1.3028  0.5448
  865MOL0     H16726   3.072   9.443   9.881  0.5635  0.4568 -0.2822
  865MOL0     H16727   2.849   9.184   9.713  0.4217 -0.8240 -0.9156
  865MOL0     H16728   2.861   9.367   9.735  2.0103  0.5937  1.0185
  865MOL0     H16729   3.070   9.331   9.557  0.4081 -0.2763  2.5812
  865MOL0     H16730   2.994   9.184   9.514  1.7980  0.0348  0.7471
  865MOL0     H16731   2.850   9.453   9.522  1.1165  2.0512 -2.6008
  865MOL0     H16732   2.775   9.295   9.487  1.8405 -1.7619  0.8650
  865MOL0     H16733   2.811   9.460   9.305  1.9941  3.6342  1.8356
  865MOL0     H16734   2.894   9.306   9.278 -2.1083 -2.2956  2.2425
  865MOL0     H16735   3.060   9.589   9.126 -0.8676 -1.5765 -0.9187
  865MOL0     H16736   3.265   9.564   8.974 -1.2106 -0.6885 -0.1074
  865MOL0     H16737   3.694   9.247   8.905 -1.1905  2.4812  2.1433
  865MOL0     H16738   3.885   9.264   8.776 -0.7959 -0.9143  0.4166
  865MOL0     H16739   3.903   9.602   8.490 -0.1131  0.7981  1.6056
  865MOL0     H16740   4.065   9.623   8.553  3.7842 -1.6500 -2.8711
  865MOL0     H16741   4.158   9.449   8.427 -0.4973 -2.2803  0.4611
  865MOL0     H16742   3.995   9.398   8.374 -1.9883  0.8616  0.3218
  865MOL0     H16743   3.973   9.567   8.231 -0.1610 -2.8284  0.3306
  865MOL0     H16744   4.101   9.685   8.300 -0.1012 -0.4281  2.2684
  865MOL0     H16745   4.170   9.431   8.171 -4.4689 -0.5573  2.4883
  865MOL0     H16746   4.277   9.566   8.208 -1.2687  1.3346  0.9485
  865MOL0     H16747   4.095   9.704   8.056 -1.4933 -0.2985 -0.9252
  865MOL0     H16748   4.064   9.551   7.986  2.3711 -1.8784 -0.1612
  865MOL0     H16749   4.236   9.638   7.846 -0.2056 -0.1598 -0.1651
  865MOL0     H16750   4.325   9.700   7.983  2.0487 -0.1962 -3.0283
  865MOL0     H16751   4.321   9.398   7.896  1.0839 -1.2341  2.1425
  865MOL0     H16752   4.422   9.474   8.025  0.9036 -1.1112 -0.9898
  865MOL0     H16753   4.413   9.565   7.737 -0.2363  0.9515  0.3660
  865MOL0     H16754   4.527   9.623   7.871  0.2005 -0.2287 -0.9340
  865MOL0     H16755   3.813   9.671   8.676 -1.2507  0.3368 -2.0164
  865MOL0     H16756   3.594   9.655   8.804  1.4900  0.4784  0.7620
  865MOL0     H16757   3.400   9.263   9.249 -1.1161 -1.2728 -1.2085
  865MOL0     H16758   3.194   9.270   9.374  2.5409 -2.8277 -0.0750
  865MOL0     H16759   3.539  10.095  10.369  0.6753 -1.4391  4.5069
  865MOL0     H16760   3.609  10.321  10.372 -0.3098  1.2845 -2.2424
  865MOL0     H16761   3.826  10.637  10.303  2.2951  0.4575 -1.3073
  865MOL0     H16762   3.827  10.875  10.342  1.3556 -0.3616 -1.0902
  865MOL0     H16763   3.853  11.102  10.370 -4.4430 -0.1144 -0.4296
  865MOL0     H16764   3.897  11.204  10.504 -0.3754  1.2647 -1.5230
  865MOL0     H16765   3.637  11.036  10.469  0.9086 -0.6048 -1.1836
  865MOL0     H16766   3.675  11.203  10.442  1.9691  1.1224 -0.8076
  865MOL0     H16767   3.764  11.209  10.683 -1.4169  0.5130  2.5026
  865MOL0     H16768   3.656  11.076  10.717 -0.8566  1.5513  0.8971
  865MOL0     H16769   3.576  11.359  10.617 -5.4370  2.1170  1.2749
  865MOL0     H16770   3.468  11.229  10.611  0.5688 -0.2999 -0.7799
  865MOL0     H16771   3.502  11.295  11.041 -0.2986  1.3400  0.5713
  865MOL0     H16772   3.996  10.826  10.726  1.6940  1.8563 -0.8506
  865MOL0     H16773   4.058  10.626  10.814  2.1429 -2.8096  1.8670
  865MOL0     H16774   3.947  10.493  10.777 -1.0858  2.1114  0.1409
  865MOL0     H16775   4.105  10.504  10.692  0.1645 -0.6903 -1.1982
  866MOL0     O16776   7.246  10.377   6.383  0.0085  0.0540 -0.1287
  866MOL0     C16777   7.170  10.428   6.469 -0.2591 -0.8188  0.2206
  866MOL0     O16778   7.204  10.533   6.552  0.0851 -0.2392 -0.0541
  866MOL0     C16779   7.339  10.548   6.578  0.6583 -0.3554 -0.1255
  866MOL0     C16780   7.382  10.531   6.711 -0.6152 -0.6913  0.6703
  866MOL0     C16781   7.524  10.543   6.742 -0.3566  0.3300 -0.7701
  866MOL0     C16782   7.612  10.569   6.639 -0.7386 -0.6874  0.1835
  866MOL0     O16783   7.749  10.568   6.659  0.1772  0.4055 -0.2289
  866MOL0     C16784   7.803  10.485   6.765  0.2294  0.2501 -0.2714
  866MOL0     C16785   7.950  10.467   6.771  0.4503 -0.1087 -0.4007
  866MOL0     C16786   7.991  10.349   6.869  0.7452  0.2550 -0.4130
  866MOL0     C16787   8.119  10.274   6.820  0.0529  0.1930 -1.0659
  866MOL0     C16788   8.178  10.162   6.905  0.0419  0.3362 -0.4103
  866MOL0     C16789   8.231  10.197   7.044 -0.1097  0.5390  0.2504
  866MOL0     C16790   8.318  10.313   7.052 -0.2199 -0.6514  0.5197
  866MOL0     C16791   8.425  10.285   7.151 -0.4572  0.7326  0.6093
  866MOL0     N16792   8.511  10.402   7.175  0.6220  0.7988 -0.4582
  866MOL0     C16793   8.550  10.441   7.304  0.4881  0.3364  0.4684
  866MOL0     C16794   8.655  10.523   7.283 -0.1479  0.5545  1.4155
  866MOL0     C16795   8.731  10.595   7.393  0.0057  0.3431  0.9111
  866MOL0     C16796   8.643  10.716   7.437 -0.1361  0.1349  0.4231
  866MOL0     C16797   8.646  10.833   7.345  0.2221  0.0972 -0.6358
  866MOL0     C16798   8.552  10.944   7.391  0.0408  1.0677 -0.4050
  866MOL0     O16799   8.539  11.044   7.293  0.4516  0.2924 -0.4124
  866MOL0     C16800   8.422  11.117   7.288  0.4963  0.3121  0.4031
  866MOL0     C16801   8.403  11.206   7.185  0.1575 -0.4258 -0.1607
  866MOL0     C16802   8.281  11.284   7.182  0.7179 -0.3164 -0.5985
  866MOL0     C16803   8.175  11.276   7.283  0.2441  0.0045  0.4680
  866MOL0     C16804   8.053  11.348   7.265 -0.2901  0.2486 -0.0626
  866MOL0     O16805   8.033  11.415   7.143  0.7427  0.1151 -0.7228
  866MOL0     C16806   7.906  11.473   7.135  0.3258  0.4906  0.2204
  866MOL0     C16807   7.889  11.598   7.189  0.6167 -0.1066 -0.1424
  866MOL0     C16808   7.763  11.655   7.162 -0.1279 -0.1965 -0.7109
  866MOL0     C16809   7.658  11.596   7.083  0.5464  0.8026  0.0028
  866MOL0     O16810   7.533  11.655   7.067  0.2847  0.1577 -0.0542
  866MOL0     C16811   7.499  11.775   7.137  0.0774 -0.1159 -0.2212
  866MOL0     C16812   7.357  11.819   7.108  0.6528  0.9355  0.5164
  866MOL0     C16813   7.329  11.957   7.162 -0.3645 -0.5919  0.1264
  866MOL0     C16814   7.247  12.054   7.071  0.7428  0.0284  0.7374
  866MOL0     C16815   7.318  12.105   6.947  0.0219  0.9517 -0.5414
  866MOL0     C16816   7.216  12.211   6.893  0.4770 -0.4606  0.0199
  866MOL0     C16817   7.278  12.326   6.806  0.4486 -0.1989  0.7149
  866MOL0     C16818   7.356  12.429   6.898 -0.4175  0.0978 -0.9810
  866MOL0    Cl16819   7.452  12.534   6.800 -0.1707  0.2998  0.1751
  866MOL0     C16820   7.694  11.468   7.036 -0.4324  0.6309 -0.8448
  866MOL0     C16821   7.809  11.406   7.062 -0.1267  0.5145  0.4466
  866MOL0     O16822   7.976  11.345   7.361  0.2811 -0.4092 -0.1158
  866MOL0     C16823   8.200  11.190   7.384  0.0499 -0.5446 -0.2444
  866MOL0     C16824   8.314  11.103   7.383  0.5009  0.0873 -0.1688
  866MOL0     N16825   8.691  10.521   7.148 -0.0612  1.0016  0.3805
  866MOL0     N16826   8.605  10.449   7.087 -0.3528  0.7762 -0.6171
  866MOL0     C16827   7.562  10.607   6.516  0.3290  0.0929 -0.5459
  866MOL0     C16828   7.421  10.605   6.483 -0.0123 -0.2102  0.5843
  866MOL0     C16829   7.033  10.380   6.476  0.3987 -0.1963 -0.0992
  866MOL0     C16830   6.933  10.467   6.527  0.3098  0.3568  1.0043
  866MOL0     C16831   6.797  10.428   6.532 -0.6306 -0.2239 -0.5283
  866MOL0     C16832   6.766  10.303   6.472  1.1715  0.0864 -0.6848
  866MOL0     O16833   6.630  10.277   6.462  0.7228  0.7120 -0.6118
  866MOL0     C16834   6.568  10.181   6.553  0.3220 -0.1520 -0.0562
  866MOL0     C16835   6.633  10.176   6.697 -0.0454 -0.2696 -0.5639
  866MOL0     C16836   6.531  10.123   6.810 -0.8478  0.1201  0.4902
  866MOL0     C16837   6.549   9.975   6.824  0.8610 -0.3405 -0.1809
  866MOL0     C16838   6.470   9.929   6.942  0.9546  0.7378 -0.2945
  866MOL0     C16839   6.394   9.893   7.038 -0.7623  0.5905 -0.4424
  866MOL0     C16840   6.855  10.216   6.422  1.4519 -1.0085 -0.7291
  866MOL0     C16841   6.989  10.255   6.426  0.7537  1.3947 -0.4327
  866MOL0     C16842   7.079  10.148   6.375  0.5821  0.1218 -0.1153
  866MOL0     H16843   7.309  10.494   6.782  0.3774 -4.0295  0.1349
  866MOL0     H16844   7.556  10.506   6.839 -1.0383  0.9500 -0.2898
  866MOL0     H16845   7.771  10.528   6.861 -1.6653 -0.7980 -0.3833
  866MOL0     H16846   7.761  10.385   6.765 -0.4704  0.4771 -2.4919
  866MOL0     H16847   8.004  10.557   6.801  0.8834  0.8062 -3.6107
  866MOL0     H16848   7.981  10.441   6.670  2.9959 -2.2089  0.7907
  866MOL0     H16849   7.915  10.272   6.885 -2.1212  3.2749  1.8278
  866MOL0     H16850   8.000  10.396   6.967  0.0074 -2.8607  1.2905
  866MOL0     H16851   8.098  10.216   6.731  2.3698 -0.6010 -1.1776
  866MOL0     H16852   8.200  10.339   6.785  1.3900 -0.2494  1.0283
  866MOL0     H16853   8.097  10.091   6.928 -1.1377  0.7276 -3.0016
  866MOL0     H16854   8.262  10.107   6.863  1.4207  2.3268 -0.4164
  866MOL0     H16855   8.147  10.219   7.112  1.9753  1.8673  2.5691
  866MOL0     H16856   8.259  10.103   7.093 -4.0235 -0.6812  0.5436
  866MOL0     H16857   8.255  10.396   7.084 -1.5428 -2.2748  2.4178
  866MOL0     H16858   8.368  10.335   6.957  3.3415 -1.4870  2.0288
  866MOL0     H16859   8.384  10.237   7.241  1.3473  1.6671  2.0096
  866MOL0     H16860   8.493  10.212   7.107 -0.7349 -1.6246  3.6721
  866MOL0     H16861   8.494  10.409   7.392  0.0675 -2.0232 -0.5656
  866MOL0     H16862   8.743  10.528   7.479  0.1436 -1.4663 -0.4652
  866MOL0     H16863   8.829  10.627   7.357 -0.6890  1.5373 -0.0176
  866MOL0     H16864   8.537  10.693   7.444 -0.4791  0.6108 -2.2824
  866MOL0     H16865   8.676  10.755   7.534 -0.1535 -0.9265  0.8646
  866MOL0     H16866   8.606  10.804   7.247 -2.5518  0.3910  0.3035
  866MOL0     H16867   8.749  10.869   7.346 -0.1789  1.3187  0.5893
  866MOL0     H16868   8.603  10.979   7.482 -1.4054 -0.6537  1.1401
  866MOL0     H16869   8.458  10.897   7.418  0.4308  0.1977 -0.5443
  866MOL0     H16870   8.476  11.215   7.105 -0.1059  3.1457 -0.1772
  866MOL0     H16871   8.268  11.356   7.100 -0.9196 -0.0805 -0.1782
  866MOL0     H16872   7.963  11.652   7.247 -1.2036  0.1690  2.0572
  866MOL0     H16873   7.745  11.742   7.225 -0.8145  1.0501 -2.5514
  866MOL0     H16874   7.515  11.755   7.244  4.0484 -0.8751 -0.7941
  866MOL0     H16875   7.569  11.854   7.108  1.7218 -0.6792  1.9043
  866MOL0     H16876   7.343  11.823   7.000 -0.9805  2.2765  0.7379
  866MOL0     H16877   7.281  11.746   7.136 -0.0801 -0.7473 -4.8849
  866MOL0     H16878   7.271  11.953   7.255  0.5580 -0.8889  0.7106
  866MOL0     H16879   7.421  12.011   7.190 -1.6629  2.7747 -1.5472
  866MOL0     H16880   7.228  12.148   7.123 -4.3036  0.4805 -1.3564
  866MOL0     H16881   7.153  12.023   7.026  0.9536  0.3305  0.0714
  866MOL0     H16882   7.339  12.023   6.878  1.1042  2.8277 -2.5280
  866MOL0     H16883   7.414  12.152   6.965  1.6697 -1.9270 -1.1450
  866MOL0     H16884   7.141  12.169   6.825 -2.3187  0.9038  2.0243
  866MOL0     H16885   7.150  12.249   6.972  0.4257  1.5491 -0.9307
  866MOL0     H16886   7.200  12.376   6.747  1.0324 -1.2879 -1.0521
  866MOL0     H16887   7.352  12.294   6.733 -0.5675  3.4678 -2.2542
  866MOL0     H16888   7.289  12.489   6.960  0.6427  0.5973 -0.2909
  866MOL0     H16889   7.426  12.381   6.967  0.7655  1.3472 -1.2797
  866MOL0     H16890   7.609  11.413   6.995 -1.6020  0.6282  1.4249
  866MOL0     H16891   7.823  11.305   7.024 -1.9629  1.0903 -1.9984
  866MOL0     H16892   8.129  11.170   7.464 -2.7088  0.0657 -2.3943
  866MOL0     H16893   8.299  11.042   7.471 -0.2118  1.0353  0.3975
  866MOL0     H16894   7.628  10.626   6.432  1.9132  0.3891  0.7048
  866MOL0     H16895   7.385  10.636   6.386  1.2873  0.0056  0.1442
  866MOL0     H16896   6.956  10.566   6.566 -1.1178  1.1940 -0.1838
  866MOL0     H16897   6.724  10.487   6.586  2.1830  1.8235  1.3946
  866MOL0     H16898   6.579  10.078   6.519  3.1116  0.4150 -1.1895
  866MOL0     H16899   6.465  10.217   6.562 -0.2366 -1.3905 -1.2018
  866MOL0     H16900   6.657  10.278   6.728 -0.9003  0.2201 -1.4664
  866MOL0     H16901   6.720  10.110   6.706  0.3582  0.5470  2.4129
  866MOL0     H16902   6.426  10.147   6.788 -0.2415  0.6242 -2.1137
  866MOL0     H16903   6.562  10.167   6.905  0.6309 -2.9160  1.5670
  866MOL0     H16904   6.492   9.931   6.742  0.9014  0.3228 -0.5651
  866MOL0     H16905   6.657   9.955   6.832  0.9475  0.5549  1.3538
  866MOL0     H16906   6.338   9.865   7.125 -1.4798  0.1299 -1.0430
  866MOL0     H16907   6.824  10.119   6.385  3.4678 -1.0420 -2.5588
  866MOL0     H16908   7.172  10.143   6.432  0.1078 -3.5638  0.5542
  866MOL0     H16909   7.030  10.050   6.372  1.1343 -0.1420 -2.0031
  866MOL0     H16910   7.097  10.166   6.269  1.4787 -1.7254 -0.3143
  867MOL0     O16911   9.622   0.613   7.635 -0.0302  0.7817 -0.2673
  867MOL0     C16912   9.549   0.613   7.536 -0.6892  0.6543 -0.0567
  867MOL0     O16913   9.477   0.720   7.483  0.6102 -0.5471 -0.2880
  867MOL0     C16914   9.477   0.846   7.531 -0.1834 -0.3507  0.3841
  867MOL0     C16915   9.505   0.905   7.656 -0.0297  0.3951 -1.0581
  867MOL0     C16916   9.497   1.036   7.678 -0.2177  0.4561 -0.2450
  867MOL0     C16917   9.466   1.127   7.577 -0.4762 -0.4734  0.3908
  867MOL0     O16918   9.488   1.256   7.585  0.5524 -0.5614  0.3911
  867MOL0     C16919   9.541   1.309   7.709  0.1569 -0.5180 -0.8283
  867MOL0     C16920   9.530   1.463   7.713 -0.1525 -0.4374  0.2318
  867MOL0     C16921   9.381   1.510   7.705 -0.1206 -0.1216  0.4821
  867MOL0     C16922   9.343   1.652   7.734  0.5922 -0.3199 -0.1827
  867MOL0     C16923   9.192   1.675   7.726  0.3725 -0.0495 -0.2456
  867MOL0     C16924   9.165   1.826   7.770 -0.2391  0.1997  0.8011
  867MOL0     C16925   9.019   1.868   7.732  0.2877 -0.0177  0.6724
  867MOL0     C16926   8.985   2.006   7.774  0.4629 -0.1884  0.3790
  867MOL0     N16927   9.053   2.103   7.696 -0.1568  0.0477  0.6456
  867MOL0     C16928   8.997   2.156   7.578  0.4886 -0.5202  0.0938
  867MOL0     C16929   9.094   2.246   7.543 -0.0353 -0.2173  0.0200
  867MOL0     C16930   9.090   2.360   7.431  0.6273 -0.2383  0.1219
  867MOL0     C16931   9.155   2.493   7.479 -0.0764  0.5936  1.2423
  867MOL0     C16932   9.115   2.620   7.395 -0.4683  0.2920 -0.0639
  867MOL0     C16933   9.155   2.621   7.247  0.0851  0.1723 -1.3362
  867MOL0     O16934   9.156   2.756   7.196  0.2817  0.0310 -0.9571
  867MOL0     C16935   9.044   2.814   7.139 -0.4051  0.2350  0.2227
  867MOL0     C16936   8.916   2.756   7.138  0.0394  0.1529 -0.4377
  867MOL0     C16937   8.812   2.833   7.082  2.2238  0.4347  0.1799
  867MOL0     C16938   8.832   2.960   7.030  0.6255  0.1579  0.5153
  867MOL0     C16939   8.707   3.034   6.981  0.2032 -0.0243 -0.2415
  867MOL0     O16940   8.595   2.956   6.988 -0.3345 -0.6978 -0.1463
  867MOL0     C16941   8.475   2.994   6.928 -0.4293 -0.4903  0.0135
  867MOL0     C16942   8.361   2.928   6.972  1.0102 -0.1083 -0.5719
  867MOL0     C16943   8.231   2.966   6.926 -0.2989 -0.4674  0.2200
  867MOL0     C16944   8.223   3.070   6.831  0.2268 -0.2442  0.8071
  867MOL0     O16945   8.106   3.122   6.786 -0.2530  0.3890 -0.5063
  867MOL0     C16946   7.989   3.037   6.790  0.1973 -0.2363 -0.7741
  867MOL0     C16947   7.875   3.098   6.710  0.4304  0.9321  0.1707
  867MOL0     C16948   7.759   3.008   6.711 -0.8582  0.1968 -0.1065
  867MOL0     C16949   7.657   3.056   6.609 -0.9797 -0.0324 -0.9536
  867MOL0     C16950   7.556   2.951   6.569  0.1780  0.1127  0.2621
  867MOL0     C16951   7.591   2.876   6.439 -0.0390  0.1831  0.1522
  867MOL0     C16952   7.506   2.742   6.428  0.0428  0.1862 -0.0386
  867MOL0     C16953   7.562   2.631   6.525  0.3319 -0.7049  0.4433
  867MOL0    Cl16954   7.730   2.595   6.475  0.2436  0.3606  0.4621
  867MOL0     C16955   8.339   3.119   6.768 -0.3174  0.5506  0.7783
  867MOL0     C16956   8.467   3.082   6.815  0.6433  0.0696  0.3602
  867MOL0     O16957   8.717   3.151   6.944  0.2405 -0.5718 -0.8004
  867MOL0     C16958   8.966   3.009   7.023  1.0083  0.2787  0.3171
  867MOL0     C16959   9.069   2.940   7.084  0.3551  0.7491 -0.2304
  867MOL0     N16960   9.200   2.238   7.630 -0.0649 -0.4114  0.2273
  867MOL0     N16961   9.181   2.149   7.721 -0.1878 -0.2162  0.6708
  867MOL0     C16962   9.446   1.078   7.446  1.8622  0.4090 -0.2352
  867MOL0     C16963   9.451   0.943   7.427  0.1436 -0.0244  0.1675
  867MOL0     C16964   9.514   0.480   7.473  0.6437 -0.0368  0.0147
  867MOL0     C16965   9.385   0.463   7.412  0.1226 -0.0102 -0.8273
  867MOL0     C16966   9.353   0.341   7.343 -0.5646 -0.2727  1.1775
  867MOL0     C16967   9.439   0.231   7.332 -0.4131  0.2409 -0.4335
  867MOL0     O16968   9.414   0.120   7.257 -0.3290 -0.1285  0.0735
  867MOL0     C16969   9.503   0.067   7.160 -1.1832 -0.1912 -0.1726
  867MOL0     C16970   9.551   0.178   7.063 -0.4793  0.2628  1.5243
  867MOL0     C16971   9.648   0.132   6.963 -0.2825 -0.0656  0.3212
  867MOL0     C16972   9.696   0.230   6.868 -0.8463  0.3705 -0.0961
  867MOL0     C16973   9.583   0.288   6.784  0.2701 -0.6916  0.5997
  867MOL0     C16974   9.499   0.349   6.734  1.0427  0.0912  0.4015
  867MOL0     C16975   9.561   0.246   7.395  0.2741 -0.0302  0.1490
  867MOL0     C16976   9.607   0.366   7.448  0.3852 -1.0130  0.6315
  867MOL0     C16977   9.742   0.379   7.517  0.1950  1.3281  0.0019
  867MOL0     H16978   9.553   0.843   7.731  3.7415  1.4608 -2.3646
  867MOL0     H16979   9.519   1.070   7.779 -1.3530 -2.1237  0.9708
  867MOL0     H16980   9.471   1.271   7.784  1.4028 -0.5814  0.3499
  867MOL0     H16981   9.647   1.288   7.725  0.3557 -1.8336 -3.3448
  867MOL0     H16982   9.597   1.515   7.644  0.9134  1.6997  2.6641
  867MOL0     H16983   9.557   1.494   7.815 -0.5878 -0.1209  0.2535
  867MOL0     H16984   9.324   1.449   7.776  0.0285  1.0283  1.6306
  867MOL0     H16985   9.331   1.493   7.609 -1.8389  1.9124  0.9305
  867MOL0     H16986   9.379   1.679   7.834 -0.7605  1.0388 -0.0178
  867MOL0     H16987   9.384   1.721   7.660 -0.2246  0.3360 -0.0358
  867MOL0     H16988   9.144   1.666   7.628  0.8560 -1.5466 -0.3590
  867MOL0     H16989   9.131   1.605   7.783 -1.6459 -0.1376 -2.3806
  867MOL0     H16990   9.176   1.834   7.878  0.0453  3.6272  0.6467
  867MOL0     H16991   9.248   1.889   7.735  0.6540 -0.2582  2.0236
  867MOL0     H16992   8.947   1.800   7.778 -0.3174 -0.9200 -1.4481
  867MOL0     H16993   8.999   1.852   7.625  0.5155 -0.2912  0.6693
  867MOL0     H16994   8.877   2.019   7.758  0.0140  1.8176  3.9669
  867MOL0     H16995   9.001   2.034   7.878 -0.6911  2.9943 -0.1742
  867MOL0     H16996   8.892   2.157   7.551  0.8012  0.4183 -1.1640
  867MOL0     H16997   9.129   2.331   7.333  1.1332  3.1023 -0.7901
  867MOL0     H16998   8.982   2.377   7.424  0.2896 -1.2568  2.0258
  867MOL0     H16999   9.148   2.514   7.586  4.2441 -0.3752  1.8841
  867MOL0     H17000   9.261   2.471   7.468 -0.4653 -0.6416 -0.4309
  867MOL0     H17001   9.183   2.691   7.442 -0.7392  1.5970 -1.5571
  867MOL0     H17002   9.008   2.644   7.404 -0.8797 -1.0427 -0.9687
  867MOL0     H17003   9.097   2.554   7.182  2.2194 -3.2497 -0.0041
  867MOL0     H17004   9.253   2.574   7.238 -0.6396 -2.3215  1.8202
  867MOL0     H17005   8.891   2.660   7.184 -0.0509  0.9505  1.2557
  867MOL0     H17006   8.713   2.788   7.086  1.8801  1.2109  0.5433
  867MOL0     H17007   8.359   2.864   7.060  0.3124 -1.1921 -1.3678
  867MOL0     H17008   8.145   2.915   6.968  0.9069 -0.7001  2.5894
  867MOL0     H17009   8.013   2.934   6.765  2.0892 -0.8133  2.7310
  867MOL0     H17010   7.943   3.038   6.890 -3.0466 -0.7673 -2.1606
  867MOL0     H17011   7.843   3.195   6.750  3.3503  2.0697  0.0100
  867MOL0     H17012   7.909   3.124   6.610  2.4377 -2.2907 -0.1322
  867MOL0     H17013   7.791   2.905   6.692  1.7542  0.5740  1.7024
  867MOL0     H17014   7.705   3.010   6.805 -3.9002 -0.0346 -1.7306
  867MOL0     H17015   7.703   3.085   6.513 -1.2402 -1.0546 -1.4041
  867MOL0     H17016   7.608   3.144   6.649 -0.4165  0.2482 -0.8782
  867MOL0     H17017   7.453   2.988   6.561 -0.0795 -0.4978  0.6960
  867MOL0     H17018   7.560   2.876   6.649 -0.5608 -0.1752  0.0359
  867MOL0     H17019   7.563   2.937   6.353 -0.1145 -0.6115 -0.3975
  867MOL0     H17020   7.699   2.863   6.428 -0.2111 -1.5155  0.2132
  867MOL0     H17021   7.503   2.706   6.325 -1.4373  0.6751 -0.1854
  867MOL0     H17022   7.403   2.767   6.456 -0.5042 -1.7923 -0.1086
  867MOL0     H17023   7.553   2.668   6.628  0.0982 -0.6509  0.4018
  867MOL0     H17024   7.499   2.545   6.503 -2.3093  1.1720  0.1766
  867MOL0     H17025   8.334   3.185   6.682  0.5839  1.7666  1.6306
  867MOL0     H17026   8.558   3.112   6.763 -0.9070 -0.7848 -3.1541
  867MOL0     H17027   8.983   3.102   6.969  0.5588  1.0597  1.4824
  867MOL0     H17028   9.167   2.985   7.092  0.2494  1.0308 -0.4962
  867MOL0     H17029   9.407   1.148   7.373 -3.7407 -0.8214  1.0942
  867MOL0     H17030   9.421   0.904   7.330 -1.5631  1.1165  0.1910
  867MOL0     H17031   9.304   0.534   7.421  0.2911 -0.0305  1.2315
  867MOL0     H17032   9.255   0.339   7.297 -0.9540  3.1696  1.6576
  867MOL0     H17033   9.457  -0.007   7.094  0.1358  2.5553 -4.6342
  867MOL0     H17034   9.589   0.018   7.207 -0.9370  0.8951  0.5336
  867MOL0     H17035   9.591   0.267   7.114 -2.4916  1.9105  0.3893
  867MOL0     H17036   9.460   0.211   7.012  0.0733 -1.3133 -0.6363
  867MOL0     H17037   9.608   0.049   6.905  0.1131 -0.4644  0.6058
  867MOL0     H17038   9.729   0.104   7.032 -1.9535  2.0317  3.3842
  867MOL0     H17039   9.754   0.303   6.925 -0.0331 -0.8975  0.7448
  867MOL0     H17040   9.769   0.174   6.808 -2.9364 -2.3055 -0.3035
  867MOL0     H17041   9.422   0.404   6.684  2.4695 -1.2260 -3.6886
  867MOL0     H17042   9.628   0.162   7.397  0.6244  0.2492  2.4159
  867MOL0     H17043   9.722   0.346   7.619 -1.2113 -0.7123 -0.8686
  867MOL0     H17044   9.801   0.296   7.477 -5.4940 -3.8808  0.9295
  867MOL0     H17045   9.790   0.472   7.485 -1.8420  1.9412 -1.4677
  868MOL0     O17046   1.264  11.261   3.669 -0.2379  0.1271  0.1381
  868MOL0     C17047   1.283  11.157   3.608  0.2349  0.7691  0.9036
  868MOL0     O17048   1.315  11.035   3.650  0.2945  0.0541 -0.4137
  868MOL0     C17049   1.308  11.008   3.784  0.6763 -0.1799 -0.2898
  868MOL0     C17050   1.437  10.988   3.834 -0.4521 -0.1347 -1.6155
  868MOL0     C17051   1.447  10.951   3.967 -0.1192 -0.3552 -0.0163
  868MOL0     C17052   1.339  10.952   4.061  0.7964  0.4137 -0.7993
  868MOL0     O17053   1.356  10.937   4.196  0.0429 -0.3259  0.2021
  868MOL0     C17054   1.249  10.877   4.274  0.3551 -0.1612  0.2386
  868MOL0     C17055   1.291  10.866   4.423 -0.9351 -0.3248 -0.2967
  868MOL0     C17056   1.204  10.768   4.509  0.4243  0.0835  1.1433
  868MOL0     C17057   1.289  10.651   4.567 -0.0394  0.0720 -0.0440
  868MOL0     C17058   1.371  10.698   4.691  1.4511  0.0771  0.0921
  868MOL0     C17059   1.469  10.596   4.721 -0.5786  1.5903  1.0656
  868MOL0     C17060   1.554  10.625   4.844  0.2823  0.1335  0.2670
  868MOL0     C17061   1.617  10.518   4.929  0.4519 -0.5948 -0.0978
  868MOL0     N17062   1.694  10.592   5.043  0.7141  0.1768  0.6349
  868MOL0     C17063   1.650  10.609   5.171 -0.8962  0.0965  0.0822
  868MOL0     C17064   1.761  10.659   5.229  0.6213 -1.0890  0.1627
  868MOL0     C17065   1.769  10.698   5.372  0.2820 -0.9044  0.3485
  868MOL0     C17066   1.786  10.582   5.469 -0.6228 -0.0213 -0.0672
  868MOL0     C17067   1.819  10.629   5.611  0.7659  0.3351  0.8048
  868MOL0     C17068   1.730  10.731   5.677 -0.7995 -0.1709  0.5660
  868MOL0     O17069   1.591  10.690   5.678  0.3919  0.3076  0.5039
  868MOL0     C17070   1.502  10.766   5.748  0.2063  0.0273  0.0117
  868MOL0     C17071   1.528  10.890   5.804  0.6006 -0.6278  0.5925
  868MOL0     C17072   1.424  10.952   5.875  0.7676 -0.0876 -0.0786
  868MOL0     C17073   1.303  10.889   5.913 -0.0793 -0.4514 -0.0086
  868MOL0     C17074   1.202  10.957   5.995  0.9478 -0.4013 -0.8348
  868MOL0     O17075   1.094  10.890   6.044 -0.6838  0.9242 -0.1296
  868MOL0     C17076   1.013  10.953   6.133  0.1720 -0.0709 -0.1531
  868MOL0     C17077   0.977  10.883   6.252  0.4254  0.5644 -0.2730
  868MOL0     C17078   0.903  10.949   6.348 -0.2004  0.3113 -0.2092
  868MOL0     C17079   0.821  11.062   6.316 -0.3639 -0.3331 -0.0696
  868MOL0     O17080   0.738  11.095   6.421 -1.0678 -0.3550  1.3784
  868MOL0     C17081   0.665  11.225   6.405  0.6174 -0.1231 -0.6461
  868MOL0     C17082   0.588  11.247   6.544 -0.4293 -0.4774  0.3373
  868MOL0     C17083   0.480  11.149   6.575  0.0761  0.7108 -0.4372
  868MOL0     C17084   0.365  11.229   6.639 -0.5030  0.0346 -0.3668
  868MOL0     C17085   0.235  11.162   6.677  0.6621 -0.4271 -0.4766
  868MOL0     C17086   0.124  11.265   6.712 -0.4490  0.0095  0.1410
  868MOL0     C17087  -0.007  11.189   6.741  0.5319 -0.1366  1.2729
  868MOL0     C17088  -0.103  11.282   6.819 -0.8777 -0.0211 -0.8456
  868MOL0    Cl17089  -0.047  11.266   6.993 -0.4304 -0.7490 -0.1691
  868MOL0     C17090   0.860  11.133   6.197  0.1152  0.0938 -0.4992
  868MOL0     C17091   0.959  11.078   6.108 -0.7099  0.6414 -0.4221
  868MOL0     O17092   1.219  11.077   6.009 -0.3041  0.5999 -0.5619
  868MOL0     C17093   1.281  10.761   5.841 -0.0018 -0.2513  0.2376
  868MOL0     C17094   1.371  10.713   5.755  0.8862  0.0317  1.3781
  868MOL0     N17095   1.862  10.670   5.135 -0.1609  0.0869  0.6134
  868MOL0     N17096   1.820  10.629   5.026 -0.5943 -1.0515  0.2462
  868MOL0     C17097   1.219  10.990   4.004 -0.4831 -0.9757  0.0134
  868MOL0     C17098   1.197  11.020   3.878 -0.2559 -0.2890  0.8395
  868MOL0     C17099   1.259  11.162   3.470  0.1063 -1.1358  0.4453
  868MOL0     C17100   1.185  11.056   3.419  0.2025 -0.1131 -0.6035
  868MOL0     C17101   1.145  11.058   3.287 -0.4347  0.6937  1.5517
  868MOL0     C17102   1.179  11.160   3.193 -0.1220 -0.7434 -1.5286
  868MOL0     O17103   1.150  11.142   3.060 -0.1796 -0.6529  0.6411
  868MOL0     C17104   1.204  11.231   2.961 -0.0175  0.5072  1.1276
  868MOL0     C17105   1.110  11.346   2.920  1.2006 -0.3499  0.3283
  868MOL0     C17106   1.097  11.454   3.027  0.8487 -0.2212 -0.1332
  868MOL0     C17107   0.991  11.560   2.995 -1.3030 -0.3384 -0.6086
  868MOL0     C17108   0.859  11.505   2.963  0.7780 -0.1338  0.5376
  868MOL0     C17109   0.743  11.468   2.949 -0.0311  0.3150 -0.6521
  868MOL0     C17110   1.254  11.269   3.244 -0.3013  0.8290  0.7930
  868MOL0     C17111   1.304  11.265   3.375 -0.5214 -0.1756 -0.5703
  868MOL0     C17112   1.413  11.360   3.408 -0.9359 -0.4306  0.0931
  868MOL0     H17113   1.531  10.989   3.780 -0.7263  0.3990 -2.0855
  868MOL0     H17114   1.545  10.944   4.014 -1.0881 -2.6440  1.8959
  868MOL0     H17115   1.154  10.930   4.267  0.2876 -0.4927 -2.3626
  868MOL0     H17116   1.236  10.778   4.230 -0.7208 -0.0621  0.2989
  868MOL0     H17117   1.291  10.965   4.468  0.4852 -0.3646 -0.1646
  868MOL0     H17118   1.395  10.832   4.420 -0.5910  0.0847  3.1931
  868MOL0     H17119   1.126  10.735   4.439  1.3392  0.2875 -0.0030
  868MOL0     H17120   1.148  10.815   4.590 -0.7393  0.5835  0.0952
  868MOL0     H17121   1.220  10.570   4.593 -0.7056  0.5565 -0.2691
  868MOL0     H17122   1.362  10.614   4.494 -1.6688 -1.0907 -1.1473
  868MOL0     H17123   1.416  10.797   4.679  0.3941  0.4519 -0.9411
  868MOL0     H17124   1.302  10.704   4.775  1.0640  1.1631 -0.2835
  868MOL0     H17125   1.425  10.503   4.757  3.2625  0.1183  2.4823
  868MOL0     H17126   1.526  10.580   4.629 -1.9162  1.1743  0.2829
  868MOL0     H17127   1.492  10.677   4.918  2.5969  2.2615  0.8628
  868MOL0     H17128   1.627  10.698   4.807 -1.5163  0.0531 -4.0511
  868MOL0     H17129   1.543  10.450   4.974 -0.7802  2.3829  2.8878
  868MOL0     H17130   1.693  10.467   4.870 -0.0026  0.6268 -1.8310
  868MOL0     H17131   1.551  10.584   5.210 -1.6041  3.5965  0.8316
  868MOL0     H17132   1.852  10.769   5.380  1.5194 -2.4384  1.6873
  868MOL0     H17133   1.678  10.753   5.399 -0.5742 -0.8177 -2.3817
  868MOL0     H17134   1.691  10.527   5.474 -2.6077  2.8220 -2.7305
  868MOL0     H17135   1.864  10.522   5.420  0.7146  1.1207  0.6063
  868MOL0     H17136   1.921  10.668   5.621  0.8634  0.9604 -1.8584
  868MOL0     H17137   1.826  10.536   5.669  1.1782 -0.9181 -1.1587
  868MOL0     H17138   1.741  10.826   5.624 -1.9103 -0.1126  0.4073
  868MOL0     H17139   1.762  10.755   5.779 -2.9610  0.0402  1.2576
  868MOL0     H17140   1.625  10.925   5.771  0.3830 -2.8958 -2.9613
  868MOL0     H17141   1.430  11.054   5.912 -2.7125  0.0494  0.4654
  868MOL0     H17142   1.033  10.794   6.278  1.6344  2.0463  2.6133
  868MOL0     H17143   0.897  10.904   6.446  1.4995 -0.3539 -0.3695
  868MOL0     H17144   0.734  11.310   6.398 -1.6264  2.2066  2.5468
  868MOL0     H17145   0.592  11.226   6.324  1.4029 -2.0779 -1.4321
  868MOL0     H17146   0.661  11.256   6.625 -1.7196  1.5086  1.3384
  868MOL0     H17147   0.546  11.346   6.527 -2.2273 -1.4537 -1.3177
  868MOL0     H17148   0.442  11.088   6.493 -1.8547 -2.3906  2.4981
  868MOL0     H17149   0.511  11.071   6.646 -1.0100 -2.0251 -2.8009
  868MOL0     H17150   0.337  11.317   6.580 -2.1338 -0.9856 -1.1927
  868MOL0     H17151   0.399  11.279   6.730 -1.2701  2.4700 -1.3254
  868MOL0     H17152   0.237  11.090   6.759 -2.5726 -0.3395 -0.1776
  868MOL0     H17153   0.199  11.113   6.585  3.1430  0.8184 -2.2284
  868MOL0     H17154   0.156  11.313   6.805 -0.0201 -1.1822  0.6279
  868MOL0     H17155   0.118  11.331   6.625  0.8045 -1.1471 -0.8735
  868MOL0     H17156   0.027  11.105   6.802  0.4521 -0.7382  0.4995
  868MOL0     H17157  -0.051  11.150   6.649  1.6689 -1.4358  1.2595
  868MOL0     H17158  -0.093  11.387   6.791 -1.3065  1.2383  3.2061
  868MOL0     H17159  -0.204  11.240   6.817  0.1509 -2.8330  0.4573
  868MOL0     H17160   0.829  11.233   6.170  0.7761  0.0824 -1.3373
  868MOL0     H17161   0.969  11.124   6.010  3.2321  2.8060  0.8077
  868MOL0     H17162   1.191  10.701   5.851  1.2645 -1.8368  3.7111
  868MOL0     H17163   1.353  10.631   5.685  0.8877  1.3776 -0.2600
  868MOL0     H17164   1.132  11.006   4.067  0.1972  0.9839  0.5414
  868MOL0     H17165   1.094  11.043   3.852  0.0589 -0.5371 -0.7350
  868MOL0     H17166   1.161  10.979   3.490 -0.7889  1.0404  0.3399
  868MOL0     H17167   1.080  10.980   3.251 -0.3603  1.0969  0.4953
  868MOL0     H17168   1.228  11.152   2.889  0.3543  0.7394  0.9911
  868MOL0     H17169   1.298  11.269   3.002  0.0363  0.8760  0.6824
  868MOL0     H17170   1.008  11.317   2.892  0.9870  0.7998 -0.1435
  868MOL0     H17171   1.146  11.400   2.832 -0.6479 -0.7258 -0.7267
  868MOL0     H17172   1.198  11.494   3.041  1.4803 -2.4472  2.6918
  868MOL0     H17173   1.062  11.410   3.122 -3.4143  0.3159 -1.2430
  868MOL0     H17174   0.974  11.601   3.095 -2.1933 -2.3004  0.1016
  868MOL0     H17175   1.028  11.635   2.926 -1.1346  1.5492  1.4205
  868MOL0     H17176   0.646  11.424   2.937  0.7190 -2.2101  1.5345
  868MOL0     H17177   1.277  11.353   3.179 -3.9634 -0.4006 -2.4351
  868MOL0     H17178   1.498  11.291   3.408 -1.5507 -1.2052 -0.0387
  868MOL0     H17179   1.442  11.441   3.340 -2.9379 -0.7189 -1.1782
  868MOL0     H17180   1.401  11.391   3.512 -0.3645 -1.0300  0.3458
  869MOL0     O17181   6.397   0.053  10.031 -0.5616  0.0007  0.2402
  869MOL0     C17182   6.308   0.042  10.113  0.1859  0.0195  0.3405
  869MOL0     O17183   6.327   0.001  10.240  0.3285  0.6156  0.4816
  869MOL0     C17184   6.460   0.015  10.289  0.3657 -0.2281 -0.6425
  869MOL0     C17185   6.533  -0.098  10.330 -0.5088  0.9332 -0.0062
  869MOL0     C17186   6.663  -0.086  10.370 -0.4140  0.5700  0.2338
  869MOL0     C17187   6.731   0.038  10.373  1.3215 -0.7709  1.7377
  869MOL0     O17188   6.863   0.044  10.399  0.1102  0.6263  0.6069
  869MOL0     C17189   6.928   0.166  10.355 -0.9366  0.2188 -0.5238
  869MOL0     C17190   7.081   0.138  10.368 -1.0145  0.3309 -0.1072
  869MOL0     C17191   7.138   0.027  10.271  0.2339  0.6315 -0.1988
  869MOL0     C17192   7.293   0.019  10.287  0.3104 -0.0360 -0.1171
  869MOL0     C17193   7.345  -0.109  10.215 -0.2206  0.5524 -0.9918
  869MOL0     C17194   7.496  -0.127  10.237  0.4987 -0.8761  0.7022
  869MOL0     C17195   7.585  -0.019  10.162 -0.1390 -1.3595 -0.2258
  869MOL0     C17196   7.542   0.020  10.025  0.0889  0.1771  0.2043
  869MOL0     N17197   7.657   0.063   9.945 -0.2020 -0.5021 -0.8505
  869MOL0     C17198   7.698  -0.009   9.836 -0.5681 -0.5088  0.8176
  869MOL0     C17199   7.805   0.069   9.796  0.2187  0.4645  0.7276
  869MOL0     C17200   7.869   0.046   9.657  0.1437  0.0689 -0.1205
  869MOL0     C17201   8.024   0.061   9.666 -1.1687 -0.4643 -0.1298
  869MOL0     C17202   8.099  -0.010   9.548 -0.4453  0.3643  0.6872
  869MOL0     C17203   8.241  -0.009   9.565  0.3060  0.9693  0.0694
  869MOL0     O17204   8.274  -0.111   9.664 -0.4580  0.2273 -0.3917
  869MOL0     C17205   8.395  -0.169   9.639 -0.1927  0.8642  0.0324
  869MOL0     C17206   8.504  -0.090   9.609  0.7761 -0.2460 -0.7687
  869MOL0     C17207   8.631  -0.141   9.607  0.7245 -0.5376  0.3961
  869MOL0     C17208   8.650  -0.276   9.630 -0.1437  0.0517  0.2835
  869MOL0     C17209   8.782  -0.340   9.609 -0.6788 -0.6289  0.5334
  869MOL0     O17210   8.875  -0.267   9.539 -0.5256 -1.3460  0.1989
  869MOL0     C17211   9.009  -0.311   9.544 -0.2781 -0.2145 -0.0943
  869MOL0     C17212   9.044  -0.445   9.508  0.5275  0.2832 -0.0317
  869MOL0     C17213   9.176  -0.484   9.485 -0.2930 -1.1757  0.4688
  869MOL0     C17214   9.287  -0.387   9.505 -0.1457 -1.1309  0.3841
  869MOL0     O17215   9.421  -0.409   9.492  0.3927 -0.6826 -0.6544
  869MOL0     C17216   9.459  -0.551   9.505  0.3962  1.2161  0.4521
  869MOL0     C17217   9.604  -0.575   9.479 -0.1969  0.5277 -0.1233
  869MOL0     C17218   9.704  -0.494   9.569 -0.1988  0.2697  0.1381
  869MOL0     C17219   9.802  -0.418   9.475  0.4975  0.1971 -0.6202
  869MOL0     C17220   9.921  -0.365   9.555  0.2904 -0.0567  0.1391
  869MOL0     C17221  10.008  -0.276   9.466  0.6490  0.2839  0.1062
  869MOL0     C17222  10.130  -0.234   9.546 -0.1206 -0.9379 -0.4158
  869MOL0     C17223  10.216  -0.130   9.481  0.7277 -1.0051 -0.0578
  869MOL0    Cl17224  10.266  -0.179   9.322  0.2275 -0.0116 -0.1251
  869MOL0     C17225   9.248  -0.247   9.541 -0.5845  0.7616  0.5602
  869MOL0     C17226   9.108  -0.213   9.552 -0.0431  1.1851 -0.3452
  869MOL0     O17227   8.798  -0.443   9.676 -0.2143  1.0527  0.3730
  869MOL0     C17228   8.545  -0.359   9.664  1.0975 -0.4097 -0.6168
  869MOL0     C17229   8.413  -0.301   9.665 -0.0218  1.1805 -0.8040
  869MOL0     N17230   7.826   0.175   9.881  0.2105 -0.2456  0.2509
  869MOL0     N17231   7.733   0.177   9.973 -0.5571 -0.3355 -0.2053
  869MOL0     C17232   6.657   0.153  10.332  0.4967 -0.3934  0.6787
  869MOL0     C17233   6.522   0.142  10.292 -0.3976 -0.1093 -0.3851
  869MOL0     C17234   6.171   0.095  10.092 -0.3218  0.2021 -0.2783
  869MOL0     C17235   6.111   0.161  10.200  0.6068 -0.4800 -0.5564
  869MOL0     C17236   5.977   0.204  10.198 -0.2689 -0.1475  0.9800
  869MOL0     C17237   5.896   0.181  10.075 -0.0451 -0.8639 -0.6939
  869MOL0     O17238   5.762   0.211  10.075  0.0222  0.2014 -0.1057
  869MOL0     C17239   5.673   0.165   9.973 -0.3580  0.1342  1.0068
  869MOL0     C17240   5.531   0.191  10.015  0.1502  0.2992  0.4665
  869MOL0     C17241   5.445   0.151   9.891 -0.9779 -0.6320 -0.2181
  869MOL0     C17242   5.296   0.202   9.901  0.1216  0.0282 -0.9965
  869MOL0     C17243   5.228   0.130  10.007 -0.3412 -0.0169 -0.1608
  869MOL0     C17244   5.168   0.079  10.096 -0.2526  0.1877  0.1486
  869MOL0     C17245   5.966   0.122   9.964  0.2186 -0.3521  0.1435
  869MOL0     C17246   6.098   0.074   9.967 -0.0109 -0.1473 -0.4344
  869MOL0     C17247   6.164   0.016   9.841  0.2264  0.0816 -1.0037
  869MOL0     H17248   6.484  -0.194  10.336  1.3079 -0.0228  0.1223
  869MOL0     H17249   6.718  -0.176  10.397 -2.1467 -0.0662  1.9437
  869MOL0     H17250   6.906   0.190  10.250 -2.3073 -0.4846 -0.4337
  869MOL0     H17251   6.908   0.249  10.423 -0.7131  0.9253 -1.3126
  869MOL0     H17252   7.100   0.113  10.473 -0.6660  0.8338 -0.0501
  869MOL0     H17253   7.130   0.234  10.352 -0.2417 -0.0177  0.1465
  869MOL0     H17254   7.120   0.057  10.167 -1.9013  2.2786  0.5515
  869MOL0     H17255   7.089  -0.066  10.300  4.2603 -0.4866  4.2517
  869MOL0     H17256   7.343   0.102  10.236  1.6368 -1.5966 -1.4717
  869MOL0     H17257   7.321   0.010  10.393 -1.3427 -1.9303  0.2288
  869MOL0     H17258   7.302  -0.203  10.250  0.6138  0.9751  1.3291
  869MOL0     H17259   7.304  -0.097  10.114 -0.5030  1.6352 -0.7538
  869MOL0     H17260   7.517  -0.130  10.344  0.5707 -1.9835  0.6593
  869MOL0     H17261   7.514  -0.225  10.192 -1.1931 -0.7606 -0.3214
  869MOL0     H17262   7.683  -0.067  10.152 -1.0597 -2.8875 -2.7643
  869MOL0     H17263   7.586   0.067  10.230  2.8416 -1.2704 -0.2744
  869MOL0     H17264   7.499  -0.072   9.984  2.2324 -0.8654  0.1610
  869MOL0     H17265   7.478   0.109  10.032  0.0713  0.3848 -1.7962
  869MOL0     H17266   7.658  -0.103   9.798  1.4354 -0.5328 -1.5150
  869MOL0     H17267   7.837  -0.051   9.618 -0.6535  0.4344 -0.4051
  869MOL0     H17268   7.834   0.121   9.586 -0.5822  1.0002  1.1826
  869MOL0     H17269   8.051   0.165   9.682  2.0840 -1.3021  0.4652
  869MOL0     H17270   8.046   0.002   9.756  0.6885 -1.5774 -1.2554
  869MOL0     H17271   8.079   0.053   9.461 -1.5653 -1.4496 -0.4279
  869MOL0     H17272   8.061  -0.112   9.536  0.1230  0.3935 -1.8972
  869MOL0     H17273   8.287   0.085   9.595  1.8882  0.3755 -0.3945
  869MOL0     H17274   8.284  -0.026   9.466  0.8024  0.0274  0.4252
  869MOL0     H17275   8.498   0.018   9.596 -0.3157 -0.3022 -0.7812
  869MOL0     H17276   8.713  -0.078   9.573  0.0986 -0.8904 -1.9476
  869MOL0     H17277   8.963  -0.517   9.501  1.6059 -1.4861  3.3744
  869MOL0     H17278   9.183  -0.586   9.451 -0.9696 -0.5508 -1.6770
  869MOL0     H17279   9.434  -0.604   9.597 -0.5548 -0.7497 -0.8915
  869MOL0     H17280   9.407  -0.613   9.432  1.0523 -1.5225  2.1920
  869MOL0     H17281   9.620  -0.683   9.487 -1.4084 -0.2720 -5.0371
  869MOL0     H17282   9.620  -0.539   9.377  3.1540  4.3906  1.4817
  869MOL0     H17283   9.661  -0.418   9.634  0.8504  0.6651  0.3939
  869MOL0     H17284   9.765  -0.566   9.625  2.7161  1.6927 -0.9712
  869MOL0     H17285   9.736  -0.341   9.433 -2.5258 -2.0143 -0.2528
  869MOL0     H17286   9.831  -0.493   9.401 -2.6675 -1.9372  0.0641
  869MOL0     H17287   9.982  -0.444   9.600 -2.0051 -1.4112  1.0114
  869MOL0     H17288   9.878  -0.305   9.637 -4.2769 -2.3275 -0.3220
  869MOL0     H17289  10.023  -0.333   9.374  0.4790  0.8195 -0.2532
  869MOL0     H17290   9.964  -0.184   9.428  1.2530 -0.9112 -3.9198
  869MOL0     H17291  10.192  -0.319   9.576  0.4352 -0.2897  0.2881
  869MOL0     H17292  10.098  -0.200   9.645 -1.0943 -1.8024 -0.4170
  869MOL0     H17293  10.161  -0.036   9.472  3.5083  0.8327  0.9618
  869MOL0     H17294  10.298  -0.116   9.552 -0.0535  1.4105  0.4694
  869MOL0     H17295   9.325  -0.174   9.564  1.5152 -1.9036  2.6027
  869MOL0     H17296   9.082  -0.109   9.569  2.7613  2.2376 -1.8938
  869MOL0     H17297   8.552  -0.466   9.682  0.5055 -0.0448  2.1582
  869MOL0     H17298   8.323  -0.358   9.688 -1.3312  3.4072  0.0028
  869MOL0     H17299   6.709   0.248  10.330  2.7126 -1.5561 -0.4071
  869MOL0     H17300   6.481   0.234  10.250  0.3068 -1.3373 -4.0975
  869MOL0     H17301   6.166   0.201  10.285 -2.2814  0.1659  1.1174
  869MOL0     H17302   5.928   0.259  10.277 -2.6690 -2.0376  0.8981
  869MOL0     H17303   5.687   0.058   9.959 -3.5280 -0.1187 -1.5321
  869MOL0     H17304   5.693   0.223   9.882  1.0092 -2.4784 -0.4460
  869MOL0     H17305   5.521   0.299  10.033  1.1638  0.9527 -2.3756
  869MOL0     H17306   5.501   0.156  10.114 -1.8673  0.4317 -0.0725
  869MOL0     H17307   5.456   0.043   9.881 -0.7436 -1.0619  3.2808
  869MOL0     H17308   5.487   0.206   9.807  0.2501 -0.7338  0.3113
  869MOL0     H17309   5.298   0.307   9.928  1.5886 -0.4292  0.8736
  869MOL0     H17310   5.263   0.184   9.798  1.9636 -2.2525 -1.3052
  869MOL0     H17311   5.107   0.033  10.171 -2.4539  0.3409 -1.4758
  869MOL0     H17312   5.914   0.120   9.869 -0.1862  0.7679  0.3280
  869MOL0     H17313   6.238   0.094   9.820 -1.1224  2.5256  2.3759
  869MOL0     H17314   6.212  -0.078   9.868  0.6260 -0.3126 -2.9552
  869MOL0     H17315   6.088   0.000   9.765 -0.6778  0.3298 -0.1759
  870MOL0     O17316   4.114   9.171   7.137  0.1726 -0.0205  0.1239
  870MOL0     C17317   4.167   9.242   7.050  0.4686 -0.1019 -0.3363
  870MOL0     O17318   4.286   9.220   6.993 -0.7886  0.6612  0.4369
  870MOL0     C17319   4.379   9.136   7.054  0.5450  0.0299  0.3311
  870MOL0     C17320   4.352   9.001   7.080  0.0495  0.7419  1.1261
  870MOL0     C17321   4.449   8.917   7.144 -0.3708 -0.5823 -0.8718
  870MOL0     C17322   4.571   8.968   7.191 -0.3115 -0.2593 -0.1791
  870MOL0     O17323   4.671   8.891   7.249 -0.4596  0.2129  0.0790
  870MOL0     C17324   4.656   8.752   7.294  0.1004  0.0015  0.6986
  870MOL0     C17325   4.768   8.697   7.363  0.3170  0.7339 -0.6501
  870MOL0     C17326   4.891   8.676   7.274  0.0599 -0.2956 -0.6219
  870MOL0     C17327   4.876   8.596   7.136 -1.1560  1.1975 -0.0630
  870MOL0     C17328   5.001   8.516   7.111 -0.0192 -0.2397 -0.1847
  870MOL0     C17329   5.124   8.595   7.060  0.5002 -0.1276  0.1107
  870MOL0     C17330   5.095   8.662   6.918  0.1392  0.8021  0.2587
  870MOL0     C17331   5.099   8.816   6.929 -0.7869  1.1794 -0.5429
  870MOL0     N17332   5.220   8.879   6.977 -0.2646 -0.5374 -0.1755
  870MOL0     C17333   5.233   8.983   7.069 -0.8578  0.9191 -0.3031
  870MOL0     C17334   5.357   9.024   7.062 -0.2818  0.2581  0.0386
  870MOL0     C17335   5.409   9.148   7.132 -0.4339  0.4308 -0.2751
  870MOL0     C17336   5.321   9.193   7.253  0.1354 -0.1178 -0.1314
  870MOL0     C17337   5.359   9.325   7.316  0.4810  0.2266 -0.2665
  870MOL0     C17338   5.496   9.329   7.363  0.0811  0.0916 -0.0103
  870MOL0     O17339   5.513   9.234   7.472  0.1492  0.0674 -0.4089
  870MOL0     C17340   5.493   9.272   7.601  0.0345 -0.1477 -0.3447
  870MOL0     C17341   5.405   9.367   7.654 -0.5727 -0.1838  0.6575
  870MOL0     C17342   5.366   9.380   7.786  0.3955  0.8240  0.2914
  870MOL0     C17343   5.418   9.285   7.881 -0.2423 -0.6634 -0.4376
  870MOL0     C17344   5.358   9.286   8.011  1.1315 -0.0043 -0.2381
  870MOL0     O17345   5.227   9.323   8.026 -0.0427  0.6094  0.3049
  870MOL0     C17346   5.170   9.331   8.150 -0.0272 -0.4812 -0.3370
  870MOL0     C17347   5.187   9.451   8.226 -0.0150  0.2539 -0.8521
  870MOL0     C17348   5.134   9.456   8.359 -0.7903  0.2774 -0.0793
  870MOL0     C17349   5.071   9.353   8.412 -0.2496  0.1548 -0.4655
  870MOL0     O17350   5.024   9.370   8.544 -0.6713  0.9282 -0.0414
  870MOL0     C17351   4.912   9.284   8.587  0.2816 -0.5671  0.0861
  870MOL0     C17352   4.850   9.359   8.715 -1.2366 -0.6363 -0.0193
  870MOL0     C17353   4.760   9.472   8.656 -0.1555  0.2615 -0.4152
  870MOL0     C17354   4.633   9.519   8.745  0.9537  0.5271  0.2129
  870MOL0     C17355   4.576   9.650   8.693 -0.1426  0.1675 -0.0085
  870MOL0     C17356   4.438   9.683   8.763 -0.0729  0.1492  0.6933
  870MOL0     C17357   4.392   9.818   8.727  1.2076 -0.0005 -0.6637
  870MOL0     C17358   4.242   9.841   8.774  0.2629  0.3238 -0.3407
  870MOL0    Cl17359   4.195   9.999   8.700  0.9346  0.2384  0.0601
  870MOL0     C17360   5.055   9.233   8.337  0.2394  0.6242 -0.7717
  870MOL0     C17361   5.108   9.221   8.214  0.5595 -0.0639 -0.0963
  870MOL0     O17362   5.427   9.253   8.106  0.0584  0.4074  0.5372
  870MOL0     C17363   5.513   9.196   7.837  0.5597  0.2320  0.2516
  870MOL0     C17364   5.532   9.178   7.698 -0.2631  0.2552 -0.6772
  870MOL0     N17365   5.428   8.953   6.962 -0.2306 -0.4955 -0.2879
  870MOL0     N17366   5.343   8.868   6.912  0.3339 -0.2447  0.0487
  870MOL0     C17367   4.599   9.098   7.151 -0.5767 -0.9564 -0.2189
  870MOL0     C17368   4.507   9.187   7.090  0.0648  0.1054  1.1674
  870MOL0     C17369   4.094   9.361   6.997  0.4424  0.1248 -0.4955
  870MOL0     C17370   4.172   9.464   6.941 -0.8368 -0.2562 -0.1860
  870MOL0     C17371   4.120   9.578   6.898 -0.0955 -0.5039 -0.5262
  870MOL0     C17372   3.985   9.590   6.870  0.5419 -0.5084 -1.0486
  870MOL0     O17373   3.921   9.697   6.812  0.0095 -0.1012 -0.2358
  870MOL0     C17374   3.999   9.807   6.777 -0.7202  0.1915 -0.1866
  870MOL0     C17375   3.897   9.924   6.737 -0.3051  0.3860 -0.0740
  870MOL0     C17376   3.979  10.045   6.703  0.6919 -1.1439  0.5648
  870MOL0     C17377   4.018  10.139   6.813 -0.2117 -0.1109 -1.4518
  870MOL0     C17378   4.096  10.241   6.748 -0.2672 -0.0195 -0.4510
  870MOL0     C17379   4.142  10.340   6.696 -0.1048 -0.2982 -1.2205
  870MOL0     C17380   3.904   9.491   6.911  0.3249  0.4175 -0.0816
  870MOL0     C17381   3.949   9.379   6.985 -0.6690 -0.2270 -0.4155
  870MOL0     C17382   3.846   9.278   7.015 -0.0936  0.4230  1.0235
  870MOL0     H17383   4.259   8.950   7.055  1.2505 -2.8245  3.1512
  870MOL0     H17384   4.425   8.814   7.166 -1.2521 -0.7199 -2.3457
  870MOL0     H17385   4.569   8.748   7.360  1.2348 -0.1686  2.2296
  870MOL0     H17386   4.635   8.681   7.213  2.5447 -2.2828  1.8986
  870MOL0     H17387   4.746   8.603   7.414  0.8921 -0.7804 -3.0451
  870MOL0     H17388   4.794   8.769   7.441 -0.1204 -0.7838  0.9305
  870MOL0     H17389   4.971   8.628   7.332 -0.2307 -1.4258 -1.1378
  870MOL0     H17390   4.934   8.773   7.246  1.1002 -1.8465 -5.3678
  870MOL0     H17391   4.796   8.522   7.136  0.5910 -0.8387  2.3043
  870MOL0     H17392   4.852   8.667   7.057 -0.8640  0.8421 -0.4774
  870MOL0     H17393   5.027   8.466   7.204  1.2136 -0.6633 -0.7344
  870MOL0     H17394   4.982   8.442   7.033  1.0193 -0.7186  0.0033
  870MOL0     H17395   5.138   8.673   7.135 -1.5215  1.4032 -0.9951
  870MOL0     H17396   5.210   8.527   7.056  0.6999  0.1806 -1.5577
  870MOL0     H17397   4.995   8.637   6.882 -0.0908  0.7660  0.8981
  870MOL0     H17398   5.163   8.611   6.849  1.1156 -2.0562  3.0610
  870MOL0     H17399   5.093   8.847   6.824 -0.9740 -0.3444 -1.0203
  870MOL0     H17400   5.011   8.840   6.989  0.0481 -1.7039  2.1450
  870MOL0     H17401   5.153   9.013   7.136  0.0416 -0.1664  1.3311
  870MOL0     H17402   5.503   9.120   7.180 -1.6762  0.7176  2.5047
  870MOL0     H17403   5.424   9.225   7.057 -2.0656 -0.1628 -1.2668
  870MOL0     H17404   5.216   9.207   7.228  0.1867 -0.5789 -0.6054
  870MOL0     H17405   5.326   9.118   7.332  0.3254  1.8253  1.7957
  870MOL0     H17406   5.294   9.332   7.405  0.3869 -0.8006 -0.2487
  870MOL0     H17407   5.332   9.418   7.264  1.5062  0.4723 -0.3771
  870MOL0     H17408   5.523   9.428   7.400 -1.8416  0.4620  0.4883
  870MOL0     H17409   5.553   9.308   7.272 -0.6552  2.6020 -1.1309
  870MOL0     H17410   5.361   9.446   7.593  0.5239  0.5749  0.8127
  870MOL0     H17411   5.298   9.459   7.818 -0.3945 -0.4015  1.7991
  870MOL0     H17412   5.228   9.543   8.184 -2.9599  1.5936 -1.1058
  870MOL0     H17413   5.134   9.546   8.419  2.1113  0.2890  0.0416
  870MOL0     H17414   4.841   9.271   8.505 -0.6713 -2.2718  1.1360
  870MOL0     H17415   4.954   9.193   8.629 -1.8375 -2.6488 -1.9624
  870MOL0     H17416   4.780   9.286   8.757 -0.8329  1.9148  5.9259
  870MOL0     H17417   4.924   9.379   8.793  0.1721  1.1304 -1.7119
  870MOL0     H17418   4.825   9.558   8.635  2.6237 -2.3287 -3.3367
  870MOL0     H17419   4.720   9.444   8.558 -0.1726 -1.5586  0.0868
  870MOL0     H17420   4.651   9.524   8.853 -2.3642  1.4328  0.8122
  870MOL0     H17421   4.552   9.448   8.726  2.9364 -1.8053 -0.0266
  870MOL0     H17422   4.540   9.626   8.592  0.1186 -1.3151  0.2285
  870MOL0     H17423   4.645   9.733   8.708  0.4361 -0.9394  6.0876
  870MOL0     H17424   4.367   9.611   8.720 -0.0001 -0.2631  1.2520
  870MOL0     H17425   4.440   9.669   8.871 -0.0240 -0.0519  0.6679
  870MOL0     H17426   4.387   9.834   8.619 -3.5114  0.4052 -0.5978
  870MOL0     H17427   4.463   9.890   8.768  0.8512 -0.6491  1.1975
  870MOL0     H17428   4.178   9.767   8.727  0.2037  1.2489 -1.7729
  870MOL0     H17429   4.230   9.832   8.883  0.5124 -0.3440 -0.3668
  870MOL0     H17430   4.997   9.146   8.366  1.9755  0.3260  2.2386
  870MOL0     H17431   5.082   9.128   8.166  2.7712  0.3521 -2.3339
  870MOL0     H17432   5.553   9.127   7.911  0.7098  0.7908  0.6963
  870MOL0     H17433   5.581   9.085   7.669  0.5415  1.2992 -2.9198
  870MOL0     H17434   4.690   9.136   7.197  0.1312 -2.4164 -0.3818
  870MOL0     H17435   4.550   9.286   7.080 -1.2595  0.4764 -3.2309
  870MOL0     H17436   4.278   9.458   6.964 -1.0866 -0.9061  0.8815
  870MOL0     H17437   4.191   9.655   6.869 -0.1348  0.2499  1.2566
  870MOL0     H17438   4.075   9.781   6.703  0.5476 -1.9236  1.7284
  870MOL0     H17439   4.053   9.838   6.867 -0.6431 -1.3979  0.3433
  870MOL0     H17440   3.814   9.929   6.808  0.1049 -0.9924  0.5296
  870MOL0     H17441   3.849   9.900   6.641 -0.3904  3.7654 -1.0079
  870MOL0     H17442   3.907  10.094   6.637 -1.0529 -3.7577  0.3754
  870MOL0     H17443   4.071  10.018   6.650 -0.0759 -0.9342 -0.9362
  870MOL0     H17444   3.929  10.194   6.844  1.8905  3.7145 -1.6329
  870MOL0     H17445   4.067  10.087   6.895 -2.9579 -0.2628  0.2222
  870MOL0     H17446   4.185  10.423   6.644  0.8519  1.2251  1.7285
  870MOL0     H17447   3.797   9.492   6.895  0.1387 -2.3260  0.4530
  870MOL0     H17448   3.825   9.224   6.922  2.6771  0.2867  0.3986
  870MOL0     H17449   3.869   9.206   7.094 -2.3438  0.4094  1.7615
  870MOL0     H17450   3.758   9.330   7.055 -1.0161 -2.2291  2.7466
  871MOL0     O17451   2.045   0.873   2.236 -0.1940  0.2979  0.0427
  871MOL0     C17452   1.965   0.913   2.150  0.1199  0.1614 -0.9229
  871MOL0     O17453   2.007   0.986   2.041  0.2374 -0.3870 -0.1949
  871MOL0     C17454   2.126   1.059   2.033 -0.3627 -0.0687  0.4968
  871MOL0     C17455   2.204   1.103   2.141 -0.0889  0.4321 -0.9837
  871MOL0     C17456   2.323   1.176   2.115  0.2202  0.6828  0.9370
  871MOL0     C17457   2.363   1.193   1.987  0.6611  0.6280  0.5119
  871MOL0     O17458   2.475   1.262   1.947  0.0597 -0.1716  0.3891
  871MOL0     C17459   2.533   1.364   2.028 -0.1245 -0.0690 -0.4610
  871MOL0     C17460   2.640   1.445   1.952 -1.0009 -0.2159  0.2821
  871MOL0     C17461   2.765   1.359   1.934  0.1209  0.2242 -0.3167
  871MOL0     C17462   2.827   1.295   2.057  0.4980  0.8525  0.5647
  871MOL0     C17463   2.961   1.227   2.033 -0.4263  0.7848 -0.2509
  871MOL0     C17464   3.079   1.315   1.994  0.8067  0.6286  0.4956
  871MOL0     C17465   3.215   1.246   1.999 -0.6778 -0.2670  0.0704
  871MOL0     C17466   3.325   1.313   1.915 -0.1250  0.9476 -0.4505
  871MOL0     N17467   3.459   1.299   1.966 -0.6847 -0.2224 -0.1537
  871MOL0     C17468   3.542   1.400   1.996  0.7482 -0.3673  0.6952
  871MOL0     C17469   3.656   1.339   2.031  0.2404 -0.3841 -0.0156
  871MOL0     C17470   3.776   1.413   2.086  0.0114 -0.0059  0.2845
  871MOL0     C17471   3.779   1.433   2.234 -0.5964  0.4004  0.0453
  871MOL0     C17472   3.894   1.527   2.290  1.1100  0.6157 -0.2848
  871MOL0     C17473   3.902   1.524   2.449  0.0343  0.1783 -0.0333
  871MOL0     O17474   3.928   1.662   2.485 -0.2335  0.8984 -0.4117
  871MOL0     C17475   3.983   1.675   2.607  0.8652  0.0848 -0.5884
  871MOL0     C17476   4.101   1.613   2.640  0.4660  0.2640 -1.0339
  871MOL0     C17477   4.150   1.625   2.761 -0.0065  0.1917 -0.0125
  871MOL0     C17478   4.093   1.710   2.858 -0.4048 -0.3860 -0.2694
  871MOL0     C17479   4.129   1.708   2.996  0.5893  0.3444 -0.0206
  871MOL0     O17480   4.207   1.606   3.028 -0.1747  0.2240 -0.9700
  871MOL0     C17481   4.256   1.599   3.160 -0.3974  0.2456 -0.6778
  871MOL0     C17482   4.270   1.475   3.211 -0.2052 -0.4500  0.1856
  871MOL0     C17483   4.315   1.460   3.344  0.3486  0.2145 -0.2541
  871MOL0     C17484   4.346   1.562   3.432  0.4842  0.3845  0.8435
  871MOL0     O17485   4.386   1.535   3.564 -0.2100  0.6260 -0.1509
  871MOL0     C17486   4.402   1.653   3.646  0.2131  1.2353  1.1328
  871MOL0     C17487   4.450   1.614   3.782 -0.2421 -0.8875 -0.5132
  871MOL0     C17488   4.557   1.503   3.790  0.4750 -0.5092  0.4467
  871MOL0     C17489   4.567   1.452   3.931  0.1184  0.4898 -0.2920
  871MOL0     C17490   4.707   1.385   3.953 -0.7468  0.2631 -1.1749
  871MOL0     C17491   4.844   1.462   3.975  1.3479 -0.3796 -0.0454
  871MOL0     C17492   4.816   1.594   4.035  0.2179 -0.3702  0.0030
  871MOL0     C17493   4.944   1.679   4.054 -0.4494  0.3818  0.5604
  871MOL0    Cl17494   4.900   1.824   4.156 -0.0735 -0.1185 -0.3755
  871MOL0     C17495   4.344   1.688   3.371 -0.9184 -0.1774  0.2518
  871MOL0     C17496   4.304   1.705   3.233 -0.3165  0.2794  0.5096
  871MOL0     O17497   4.088   1.798   3.072  0.4936  0.0990 -0.8141
  871MOL0     C17498   3.973   1.779   2.824  0.1008 -0.4486  1.1333
  871MOL0     C17499   3.918   1.769   2.696 -0.6094  0.3727  0.2689
  871MOL0     N17500   3.640   1.200   2.024  0.0807  0.7981 -0.7957
  871MOL0     N17501   3.524   1.178   1.969  0.0627  0.1089  0.2578
  871MOL0     C17502   2.291   1.138   1.880  0.3522 -0.5040 -0.1923
  871MOL0     C17503   2.169   1.075   1.905  1.1002 -0.4047  0.2684
  871MOL0     C17504   1.829   0.866   2.161  1.1105 -0.3589  0.2457
  871MOL0     C17505   1.733   0.946   2.109  0.6105  0.2706  0.0050
  871MOL0     C17506   1.598   0.906   2.093 -0.1539  0.0878 -0.1386
  871MOL0     C17507   1.555   0.801   2.161 -0.4108 -0.1533  0.7979
  871MOL0     O17508   1.420   0.787   2.136 -1.0350  0.4303 -0.8245
  871MOL0     C17509   1.351   0.676   2.188  0.2017  0.9848  0.2013
  871MOL0     C17510   1.249   0.633   2.090 -0.0470 -0.6215 -0.1993
  871MOL0     C17511   1.305   0.582   1.944  0.1188 -0.4978 -0.2783
  871MOL0     C17512   1.413   0.466   1.950 -0.1904 -0.1660 -0.4968
  871MOL0     C17513   1.367   0.355   2.029  0.4226 -0.7049  0.1818
  871MOL0     C17514   1.324   0.286   2.124 -0.7298 -0.0484 -0.1404
  871MOL0     C17515   1.643   0.714   2.233 -1.1092  0.5243  0.7230
  871MOL0     C17516   1.784   0.739   2.221 -0.2384 -0.5266  1.1543
  871MOL0     C17517   1.878   0.633   2.261 -0.4725 -0.5728 -1.0026
  871MOL0     H17518   2.164   1.099   2.241  0.5132 -0.9647 -0.7762
  871MOL0     H17519   2.379   1.219   2.197  2.0911  1.9324 -0.8866
  871MOL0     H17520   2.460   1.442   2.055  4.2352  4.4830 -0.3523
  871MOL0     H17521   2.572   1.327   2.123  3.2826  0.8403 -1.3578
  871MOL0     H17522   2.663   1.528   2.021 -2.2006 -0.7512  1.3746
  871MOL0     H17523   2.596   1.483   1.860 -2.7608 -1.3318  0.6173
  871MOL0     H17524   2.830   1.433   1.887  1.4664 -1.0432 -0.5252
  871MOL0     H17525   2.752   1.282   1.857 -0.1135 -2.3747  2.1265
  871MOL0     H17526   2.829   1.355   2.148  0.9695 -1.8042  2.4189
  871MOL0     H17527   2.755   1.221   2.093 -0.6106  2.7197  2.3960
  871MOL0     H17528   2.984   1.183   2.130  0.0280  0.9984 -0.2586
  871MOL0     H17529   2.956   1.152   1.953  2.6108  0.7977 -0.5641
  871MOL0     H17530   3.054   1.352   1.894  1.8146  1.3929  0.5211
  871MOL0     H17531   3.094   1.399   2.062 -0.5881  1.6565 -0.4091
  871MOL0     H17532   3.206   1.142   1.966  0.3065  0.1009 -1.4443
  871MOL0     H17533   3.246   1.231   2.103 -4.1114 -4.0032  0.8121
  871MOL0     H17534   3.323   1.275   1.812 -1.2428 -0.4809  0.0659
  871MOL0     H17535   3.295   1.418   1.918 -1.1127  0.6652  1.4655
  871MOL0     H17536   3.508   1.502   2.008 -0.8444 -0.7593 -0.2496
  871MOL0     H17537   3.856   1.348   2.050  0.6499  1.4554 -1.0565
  871MOL0     H17538   3.777   1.508   2.032  1.6532 -0.3309 -0.3032
  871MOL0     H17539   3.680   1.473   2.257 -1.2165 -0.6814 -0.6606
  871MOL0     H17540   3.788   1.340   2.289 -0.5622  1.9956  2.9308
  871MOL0     H17541   3.873   1.626   2.248 -1.0730 -0.1687 -1.1838
  871MOL0     H17542   3.992   1.493   2.256  3.1580 -0.2737  5.3531
  871MOL0     H17543   3.981   1.457   2.484 -0.0255 -0.1136 -0.4511
  871MOL0     H17544   3.805   1.499   2.493  1.0160  1.8001  3.3984
  871MOL0     H17545   4.151   1.549   2.568  0.4100 -2.0021  0.7836
  871MOL0     H17546   4.238   1.562   2.773  0.2708  0.5835  0.0367
  871MOL0     H17547   4.233   1.396   3.147  3.9717 -2.4533 -0.0583
  871MOL0     H17548   4.330   1.363   3.391  0.4433  0.5495  0.4080
  871MOL0     H17549   4.471   1.722   3.595  1.3288 -1.7488 -1.6977
  871MOL0     H17550   4.302   1.696   3.658 -0.2436  0.2672  0.8701
  871MOL0     H17551   4.490   1.705   3.830  1.1354 -1.2523 -0.9165
  871MOL0     H17552   4.359   1.588   3.837  2.2799  0.4610  5.0167
  871MOL0     H17553   4.527   1.422   3.723  0.4742 -0.5772  0.5283
  871MOL0     H17554   4.656   1.536   3.760  1.7219 -0.5162  4.0380
  871MOL0     H17555   4.486   1.379   3.937  0.8081 -0.2748 -0.1982
  871MOL0     H17556   4.542   1.537   3.995  2.8087  1.8279 -0.8908
  871MOL0     H17557   4.736   1.318   3.871 -0.1190  0.9227 -1.4993
  871MOL0     H17558   4.699   1.326   4.045 -1.5244  2.6394  0.3836
  871MOL0     H17559   4.911   1.413   4.046 -0.7874  2.3445  4.2769
  871MOL0     H17560   4.890   1.487   3.879  1.9907  0.6457  0.5156
  871MOL0     H17561   4.771   1.585   4.134  0.0124 -1.9925 -0.2121
  871MOL0     H17562   4.742   1.646   3.973  1.3534  0.4652 -0.6905
  871MOL0     H17563   5.034   1.638   4.102  0.8420  2.2071 -0.1866
  871MOL0     H17564   4.969   1.718   3.955 -1.9733 -1.6356 -0.7139
  871MOL0     H17565   4.383   1.778   3.416  1.4295 -0.7084 -0.5913
  871MOL0     H17566   4.314   1.807   3.197 -0.6670  0.0888 -0.1599
  871MOL0     H17567   3.923   1.850   2.888 -0.8287  0.7163 -0.8023
  871MOL0     H17568   3.824   1.812   2.663 -0.9303  0.0963  0.8117
  871MOL0     H17569   2.323   1.166   1.780  2.4019 -1.2036  0.2321
  871MOL0     H17570   2.117   1.042   1.815  1.7302 -4.1131  1.0990
  871MOL0     H17571   1.770   1.025   2.045 -1.1698  0.3815 -0.9655
  871MOL0     H17572   1.529   0.959   2.028 -1.2945  0.2715  1.1688
  871MOL0     H17573   1.310   0.713   2.282  1.0283 -0.9919  1.4016
  871MOL0     H17574   1.418   0.590   2.191 -4.6664 -3.3878 -1.4022
  871MOL0     H17575   1.185   0.718   2.064  0.5703 -0.2682 -0.5858
  871MOL0     H17576   1.186   0.559   2.139  0.8869 -1.3333 -0.0542
  871MOL0     H17577   1.340   0.668   1.885  1.4698 -0.8935 -0.0832
  871MOL0     H17578   1.217   0.549   1.887 -0.7018  0.1039  0.6122
  871MOL0     H17579   1.418   0.436   1.846 -3.7434  1.6792 -1.3551
  871MOL0     H17580   1.515   0.492   1.980 -0.7167 -0.2512  1.5445
  871MOL0     H17581   1.273   0.229   2.199  0.8774 -0.1332  0.9420
  871MOL0     H17582   1.616   0.616   2.271  2.7720 -0.9058  0.2930
  871MOL0     H17583   1.939   0.596   2.178  0.5835 -1.4857  0.1351
  871MOL0     H17584   1.942   0.681   2.336 -1.1067 -1.1835 -0.0422
  871MOL0     H17585   1.835   0.547   2.314 -1.3606 -0.2316 -1.1619
  872MOL0     O17586  10.775   3.679   1.615  0.3453 -0.0601  0.1965
  872MOL0     C17587  10.713   3.630   1.523 -0.7521  0.3530 -0.1504
  872MOL0     O17588  10.758   3.551   1.420 -0.6923 -0.3243 -0.4303
  872MOL0     C17589  10.882   3.497   1.436 -0.7025  0.4700 -0.2185
  872MOL0     C17590  10.915   3.410   1.546 -0.3333 -0.0511 -0.5560
  872MOL0     C17591  11.042   3.351   1.550 -0.1968 -0.0881 -0.5163
  872MOL0     C17592  11.129   3.371   1.441 -0.3169 -0.2977 -0.5812
  872MOL0     O17593  11.239   3.298   1.444 -0.7648  0.5256 -0.0581
  872MOL0     C17594  11.302   3.252   1.328 -0.7779 -0.4512  0.0759
  872MOL0     C17595  11.411   3.140   1.359 -0.3460  0.3355 -0.3885
  872MOL0     C17596  11.542   3.191   1.428  0.6643 -0.0674 -0.3935
  872MOL0     C17597  11.663   3.102   1.394  0.7293 -0.7890 -0.3426
  872MOL0     C17598  11.789   3.180   1.409  0.5304 -0.1274 -0.4136
  872MOL0     C17599  11.919   3.115   1.390 -0.4597 -0.2777  0.0362
  872MOL0     C17600  12.039   3.210   1.430  0.3763 -0.6231 -0.7789
  872MOL0     C17601  12.170   3.141   1.433 -0.9633  1.1249  0.8317
  872MOL0     N17602  12.201   3.082   1.301  0.0169 -0.3914  0.4824
  872MOL0     C17603  12.203   2.951   1.263 -0.2601  0.3273  0.2806
  872MOL0     C17604  12.206   2.956   1.126  0.3543  0.3668  0.9631
  872MOL0     C17605  12.207   2.836   1.032  1.0930  0.3755 -0.1582
  872MOL0     C17606  12.352   2.802   0.990  0.2573  0.0746 -1.2133
  872MOL0     C17607  12.367   2.788   0.837 -0.0270  0.0034  0.3085
  872MOL0     C17608  12.509   2.756   0.798  0.6008  0.5034  0.5077
  872MOL0     O17609  12.538   2.619   0.823  0.6910 -0.1789 -0.3896
  872MOL0     C17610  12.651   2.577   0.754  0.0872 -0.2730 -0.1632
  872MOL0     C17611  12.640   2.442   0.712 -0.2881  0.2370 -0.8028
  872MOL0     C17612  12.757   2.380   0.666 -0.1235 -0.7440 -0.1427
  872MOL0     C17613  12.881   2.449   0.662 -0.5968  0.2426  0.6100
  872MOL0     C17614  13.012   2.390   0.618  0.7505  0.0267 -0.5807
  872MOL0     O17615  13.037   2.256   0.616  0.0742  0.4523 -0.5229
  872MOL0     C17616  13.159   2.203   0.583  0.2359 -0.2541  1.0259
  872MOL0     C17617  13.218   2.119   0.674  0.3189  0.3708 -0.9368
  872MOL0     C17618  13.355   2.079   0.644  0.5862  0.6150  0.7850
  872MOL0     C17619  13.419   2.120   0.530  0.1860 -0.3911  0.4083
  872MOL0     O17620  13.551   2.067   0.520 -0.5988 -0.6343 -0.3254
  872MOL0     C17621  13.626   2.109   0.404  0.2924 -0.8377  0.9641
  872MOL0     C17622  13.769   2.102   0.438 -0.0357 -0.4723  0.3273
  872MOL0     C17623  13.859   2.174   0.328 -0.0829  0.3140  0.0629
  872MOL0     C17624  13.999   2.148   0.369 -0.1155 -0.6273  0.6801
  872MOL0     C17625  14.089   2.235   0.294 -0.1158  0.2095 -0.1919
  872MOL0     C17626  14.211   2.248   0.378 -0.2389 -0.3375  0.5330
  872MOL0     C17627  14.329   2.310   0.303  0.1259  0.3421 -0.1227
  872MOL0     C17628  14.457   2.299   0.391 -0.4836 -0.5785 -0.1386
  872MOL0    Cl17629  14.586   2.408   0.321 -0.0861 -0.9209  0.2771
  872MOL0     C17630  13.359   2.216   0.448 -0.4498  0.0808 -0.1331
  872MOL0     C17631  13.241   2.260   0.481  0.2032 -0.4288  0.0963
  872MOL0     O17632  13.090   2.478   0.578 -0.3763 -0.0459  0.2720
  872MOL0     C17633  12.890   2.581   0.706 -0.9891  0.7075 -0.5838
  872MOL0     C17634  12.775   2.643   0.751  0.5515  0.7164 -0.4297
  872MOL0     N17635  12.217   3.087   1.078  0.1822  0.3210 -0.9344
  872MOL0     N17636  12.218   3.158   1.189 -0.0964  1.0262 -0.3844
  872MOL0     C17637  11.102   3.472   1.339  0.4652  0.1319 -0.5253
  872MOL0     C17638  10.977   3.534   1.348 -0.5996  0.3332 -1.1644
  872MOL0     C17639  10.571   3.672   1.507 -0.2645 -0.0104  0.0738
  872MOL0     C17640  10.522   3.682   1.369 -0.6157 -0.4664 -0.3938
  872MOL0     C17641  10.406   3.746   1.342  0.0898 -0.2689  0.3362
  872MOL0     C17642  10.322   3.803   1.436 -0.0512  0.0623 -0.6705
  872MOL0     O17643  10.186   3.853   1.417  0.6246  0.5259 -0.0811
  872MOL0     C17644  10.128   3.841   1.295  0.0728 -0.1343 -0.7938
  872MOL0     C17645   9.991   3.899   1.294 -0.4364 -1.1732 -0.8646
  872MOL0     C17646   9.948   3.925   1.147 -0.5227  0.5549  0.6625
  872MOL0     C17647   9.802   3.954   1.133 -0.9356  0.1926  0.0026
  872MOL0     C17648   9.758   3.957   0.991  0.2786 -0.0532 -0.2510
  872MOL0     C17649   9.698   3.970   0.886  0.4235 -0.6136  0.4129
  872MOL0     C17650  10.360   3.788   1.564 -0.0069  0.1193  1.0705
  872MOL0     C17651  10.478   3.723   1.600 -1.3914  1.0354  0.4988
  872MOL0     C17652  10.499   3.713   1.746  0.0349  0.1732 -0.2325
  872MOL0     H17653  10.846   3.387   1.626 -0.5492  1.7994 -0.1698
  872MOL0     H17654  11.067   3.294   1.639 -4.9276 -1.8949 -0.0002
  872MOL0     H17655  11.221   3.223   1.260  1.0101 -0.2382 -2.2782
  872MOL0     H17656  11.347   3.339   1.280 -1.3129 -0.6214 -0.7736
  872MOL0     H17657  11.450   3.097   1.266  4.1665  2.5731  0.2067
  872MOL0     H17658  11.369   3.055   1.413  0.0168  1.3945  1.6249
  872MOL0     H17659  11.527   3.191   1.536  0.7140  1.1041 -0.3827
  872MOL0     H17660  11.567   3.294   1.403 -0.2483  0.5117  0.9577
  872MOL0     H17661  11.661   3.016   1.461 -0.0242  1.2263  2.4354
  872MOL0     H17662  11.647   3.065   1.293 -0.3834 -1.8194  0.1944
  872MOL0     H17663  11.792   3.269   1.346  0.0065 -0.2190 -0.5737
  872MOL0     H17664  11.800   3.203   1.515  1.3087 -1.5054 -0.1574
  872MOL0     H17665  11.918   3.032   1.460  1.5826  0.8951  1.5851
  872MOL0     H17666  11.935   3.084   1.287 -1.5064  2.3525 -1.0177
  872MOL0     H17667  12.033   3.254   1.530 -0.0224 -0.3642 -0.9130
  872MOL0     H17668  12.036   3.297   1.363  2.4602  1.3041  1.4639
  872MOL0     H17669  12.250   3.205   1.471  1.2066 -1.4380  0.8509
  872MOL0     H17670  12.168   3.057   1.503 -3.5756  1.6687  1.5274
  872MOL0     H17671  12.189   2.871   1.334  0.5286 -0.0081  0.0706
  872MOL0     H17672  12.162   2.749   1.080 -0.0563  1.8713  1.5966
  872MOL0     H17673  12.143   2.863   0.948  1.2506  0.1842 -0.3418
  872MOL0     H17674  12.419   2.874   1.039 -0.4972  0.9781 -1.4851
  872MOL0     H17675  12.396   2.706   1.019  3.1369  1.4493 -0.6296
  872MOL0     H17676  12.339   2.886   0.795  0.4026  0.5296  1.2189
  872MOL0     H17677  12.292   2.721   0.795 -0.7464  1.2570 -0.4898
  872MOL0     H17678  12.587   2.811   0.851  1.6733 -0.1257 -0.3728
  872MOL0     H17679  12.518   2.789   0.694  0.0658  1.7347  0.8391
  872MOL0     H17680  12.548   2.386   0.721  0.1197 -0.1391  2.1360
  872MOL0     H17681  12.768   2.273   0.654 -0.0896 -0.5855 -1.7262
  872MOL0     H17682  13.175   2.093   0.770  3.2012  0.6941  0.5651
  872MOL0     H17683  13.406   1.998   0.695 -0.8694 -1.6664 -1.1830
  872MOL0     H17684  13.580   2.049   0.324 -2.2865  1.7261  0.3806
  872MOL0     H17685  13.613   2.213   0.374 -0.5818 -0.9796  0.8017
  872MOL0     H17686  13.775   2.166   0.527 -0.3291  0.8752 -0.5759
  872MOL0     H17687  13.800   2.000   0.459 -1.5102 -1.0598 -0.2716
  872MOL0     H17688  13.843   2.124   0.231 -1.2167 -0.5079  0.6504
  872MOL0     H17689  13.840   2.281   0.320  1.3787  0.6001  0.0705
  872MOL0     H17690  14.025   2.045   0.342 -1.6675 -0.5814 -1.2388
  872MOL0     H17691  14.007   2.153   0.478  2.9996  0.2275  0.5168
  872MOL0     H17692  14.040   2.333   0.286 -1.4669 -0.4296 -0.0304
  872MOL0     H17693  14.104   2.201   0.191 -0.8755  1.1600 -0.6393
  872MOL0     H17694  14.190   2.318   0.459 -0.5597 -0.2486  0.3759
  872MOL0     H17695  14.240   2.149   0.415 -1.6333 -0.7556  0.5789
  872MOL0     H17696  14.309   2.414   0.277 -0.9700  0.4948  1.1960
  872MOL0     H17697  14.356   2.261   0.209  0.3535 -0.4734  0.3533
  872MOL0     H17698  14.429   2.339   0.489  0.7449  0.6414 -0.2503
  872MOL0     H17699  14.482   2.193   0.397 -0.7638 -0.5801  1.2801
  872MOL0     H17700  13.414   2.259   0.365 -1.0444 -0.0825 -0.6195
  872MOL0     H17701  13.208   2.352   0.433 -0.5554 -0.2653  0.9049
  872MOL0     H17702  12.990   2.621   0.707 -0.2615 -0.9530 -1.8538
  872MOL0     H17703  12.793   2.736   0.804 -1.8075  0.6001  0.7085
  872MOL0     H17704  11.182   3.508   1.275  1.8889  2.8336  2.4616
  872MOL0     H17705  10.956   3.608   1.271  2.3352  2.7644  0.1693
  872MOL0     H17706  10.578   3.620   1.300  0.2011 -1.0623  0.7750
  872MOL0     H17707  10.374   3.731   1.239 -0.3823 -0.6810  0.5389
  872MOL0     H17708  10.128   3.736   1.267 -0.4092  0.3062 -2.6164
  872MOL0     H17709  10.194   3.898   1.227  1.6484  0.2241  0.9500
  872MOL0     H17710   9.973   3.991   1.352 -2.7637 -1.6078 -0.8224
  872MOL0     H17711   9.919   3.827   1.333 -0.2696 -1.5846 -1.3141
  872MOL0     H17712   9.972   3.834   1.091  1.7260  1.4387  0.0799
  872MOL0     H17713  10.011   4.002   1.102  0.4770 -0.3677  0.4385
  872MOL0     H17714   9.758   3.869   1.186  2.9009 -2.4657 -0.5975
  872MOL0     H17715   9.778   4.049   1.182 -0.6188 -0.3220  1.1844
  872MOL0     H17716   9.641   3.993   0.798 -2.4171 -1.5825  1.8802
  872MOL0     H17717  10.295   3.824   1.642  0.0489  3.2148 -0.1514
  872MOL0     H17718  10.549   3.618   1.768  1.4892  0.0977 -3.2283
  872MOL0     H17719  10.571   3.790   1.776 -0.3644  1.6869 -2.8272
  872MOL0     H17720  10.407   3.731   1.802  0.3081 -1.9180  0.9981
  873MOL0     O17721   9.662   5.016  11.158  0.0810  0.2626 -0.0741
  873MOL0     C17722   9.694   5.129  11.202  0.0228  0.2198 -0.7563
  873MOL0     O17723   9.820   5.172  11.206  0.0474 -0.1939 -0.2517
  873MOL0     C17724   9.932   5.092  11.177 -0.0262 -0.3893  0.1545
  873MOL0     C17725  10.058   5.149  11.215 -0.4051 -0.4649 -1.0176
  873MOL0     C17726  10.175   5.072  11.198 -0.2966 -0.1073  0.0891
  873MOL0     C17727  10.189   4.946  11.133 -0.4140 -0.2949  0.1731
  873MOL0     O17728  10.308   4.882  11.132 -0.2812 -0.6760 -0.2919
  873MOL0     C17729  10.359   4.883  10.992 -0.7346 -0.4999  0.2320
  873MOL0     C17730  10.503   4.912  11.020 -0.2509 -0.3196  0.7928
  873MOL0     C17731  10.604   4.933  10.903  1.0907  0.3589  0.6198
  873MOL0     C17732  10.737   5.009  10.946  0.7658  0.9725 -0.0012
  873MOL0     C17733  10.835   5.022  10.828  0.8651  0.2909  0.3981
  873MOL0     C17734  10.943   5.119  10.870 -0.5442  0.1960  0.9302
  873MOL0     C17735  11.063   5.135  10.767  0.3200  0.4791 -0.3255
  873MOL0     C17736  11.164   5.228  10.843  0.4595  0.7000  0.3895
  873MOL0     N17737  11.303   5.207  10.809  0.0579  0.7027  0.2596
  873MOL0     C17738  11.362   5.093  10.762  0.0792  0.4499  0.1176
  873MOL0     C17739  11.495   5.125  10.760 -0.9986 -0.0585 -0.1853
  873MOL0     C17740  11.602   5.046  10.710 -1.5595  0.7319  0.9230
  873MOL0     C17741  11.741   5.105  10.740  0.3798 -0.1960 -0.3702
  873MOL0     C17742  11.860   5.028  10.663  0.1120  0.3159 -0.3239
  873MOL0     C17743  11.985   5.101  10.672 -0.8614  0.0503  0.7988
  873MOL0     O17744  12.102   5.031  10.609  0.2258 -0.4777 -0.0813
  873MOL0     C17745  12.232   5.075  10.622  0.2284 -0.2594  0.2713
  873MOL0     C17746  12.331   5.006  10.557 -0.1202  0.5475 -0.4305
  873MOL0     C17747  12.462   5.053  10.549  0.2474  0.1422 -0.0865
  873MOL0     C17748  12.490   5.186  10.598  0.7908 -0.2870 -0.9009
  873MOL0     C17749  12.620   5.247  10.558  0.0854 -0.0711  0.4502
  873MOL0     O17750  12.634   5.376  10.604  0.1102 -0.1808 -0.1691
  873MOL0     C17751  12.752   5.439  10.605 -0.3643  0.2859  0.7090
  873MOL0     C17752  12.880   5.381  10.642  0.2273  0.5561  0.3493
  873MOL0     C17753  13.000   5.447  10.616  0.2043 -0.1467  0.3974
  873MOL0     C17754  12.997   5.584  10.574  1.0166  0.1672  0.0008
  873MOL0     O17755  13.111   5.655  10.549 -0.1302  1.5400 -0.2810
  873MOL0     C17756  13.230   5.586  10.502 -0.2375  0.0664  0.9009
  873MOL0     C17757  13.360   5.671  10.501 -0.2962  0.0650 -0.0250
  873MOL0     C17758  13.422   5.685  10.635 -1.2795  0.4294 -0.0994
  873MOL0     C17759  13.328   5.755  10.734  0.6664 -1.0509 -1.0498
  873MOL0     C17760  13.388   5.827  10.856 -0.5510  0.1419  0.1498
  873MOL0     C17761  13.496   5.933  10.820  0.4472  0.5510 -0.0330
  873MOL0     C17762  13.451   6.059  10.738 -0.2636  0.1425  0.0087
  873MOL0     C17763  13.574   6.157  10.739  1.4198 -0.1027  0.3492
  873MOL0    Cl17764  13.705   6.086  10.640 -0.0238  0.1110 -0.5969
  873MOL0     C17765  12.871   5.647  10.571  0.2944 -0.0514  0.8514
  873MOL0     C17766  12.750   5.579  10.575 -0.1811 -0.1228 -0.1532
  873MOL0     O17767  12.703   5.189  10.489  0.7401 -0.5140  0.3138
  873MOL0     C17768  12.390   5.262  10.670  0.5255  0.9097  0.1660
  873MOL0     C17769  12.263   5.199  10.684 -0.7598 -0.3604  0.5892
  873MOL0     N17770  11.500   5.254  10.824 -0.7953  0.6266  0.0583
  873MOL0     N17771  11.388   5.296  10.843 -0.1301  0.1738 -0.1954
  873MOL0     C17772  10.072   4.903  11.075  0.3022  0.1323 -0.3610
  873MOL0     C17773   9.943   4.973  11.098 -0.5494 -0.4057 -0.5615
  873MOL0     C17774   9.587   5.227  11.255 -0.8140  0.2165  1.1404
  873MOL0     C17775   9.616   5.360  11.299 -0.2143 -0.0084 -0.2428
  873MOL0     C17776   9.516   5.449  11.352 -0.0932 -0.2505  0.1955
  873MOL0     C17777   9.379   5.418  11.335 -0.2827  0.3393 -1.0713
  873MOL0     O17778   9.271   5.490  11.383  0.2339 -0.3013 -0.5292
  873MOL0     C17779   9.289   5.567  11.494  0.5365  0.6311  0.3502
  873MOL0     C17780   9.149   5.622  11.525  0.0109  0.0784 -0.3231
  873MOL0     C17781   9.126   5.758  11.452  0.2060 -0.2199 -0.4655
  873MOL0     C17782   8.981   5.799  11.470 -0.4126 -0.8181 -0.0449
  873MOL0     C17783   8.880   5.707  11.412 -0.6774  0.1992 -0.6029
  873MOL0     C17784   8.802   5.641  11.355  0.3763  0.6937  0.7341
  873MOL0     C17785   9.346   5.295  11.274  0.2800 -0.2381 -0.6237
  873MOL0     C17786   9.442   5.193  11.240 -0.1201  0.8998  0.2508
  873MOL0     C17787   9.388   5.062  11.208 -0.5950  1.0653  0.9417
  873MOL0     H17788  10.050   5.248  11.257 -1.6707 -0.8061 -0.4043
  873MOL0     H17789  10.263   5.116  11.245  0.5601 -0.5408 -1.0737
  873MOL0     H17790  10.355   4.778  10.961  2.5841 -0.8444  0.5951
  873MOL0     H17791  10.309   4.948  10.921  0.0713  0.2644  0.3468
  873MOL0     H17792  10.546   4.832  11.081  0.9363  2.9227  4.6512
  873MOL0     H17793  10.512   5.007  11.074  0.2459  0.3339 -0.3802
  873MOL0     H17794  10.541   4.988  10.833 -0.6511 -0.6228  1.3569
  873MOL0     H17795  10.618   4.844  10.841 -2.0137  0.1779  0.0138
  873MOL0     H17796  10.717   5.110  10.980 -2.8038  0.2707  0.3291
  873MOL0     H17797  10.792   4.951  11.021  2.8246  0.2431 -1.9484
  873MOL0     H17798  10.878   4.925  10.800 -0.4763 -0.6911  1.6050
  873MOL0     H17799  10.773   5.060  10.747 -0.2153  0.9347  1.4965
  873MOL0     H17800  10.905   5.218  10.895  3.3257  2.1347 -0.0805
  873MOL0     H17801  10.980   5.071  10.961 -2.3523 -0.8764  1.1629
  873MOL0     H17802  11.028   5.167  10.668  0.2469  0.6084 -0.2584
  873MOL0     H17803  11.104   5.037  10.742  0.7729  0.1567  1.5098
  873MOL0     H17804  11.131   5.332  10.846  1.8235  1.1274  2.6759
  873MOL0     H17805  11.162   5.190  10.946 -1.2914  2.3063  1.0117
  873MOL0     H17806  11.319   5.001  10.723  1.8270  0.5977 -2.4011
  873MOL0     H17807  11.595   4.944  10.749  0.3996  0.8131  1.6049
  873MOL0     H17808  11.591   5.041  10.601  3.2570  0.4454  0.2500
  873MOL0     H17809  11.753   5.211  10.715  0.7957  0.1251  1.1254
  873MOL0     H17810  11.758   5.097  10.847  2.3026  3.7077 -0.2033
  873MOL0     H17811  11.832   5.014  10.559  0.6303  1.1229 -0.5844
  873MOL0     H17812  11.886   4.933  10.711 -0.9263  0.0490 -0.2697
  873MOL0     H17813  12.003   5.114  10.779 -0.0217 -1.3086  0.8424
  873MOL0     H17814  11.973   5.201  10.630  1.1145 -0.5628 -1.4416
  873MOL0     H17815  12.296   4.932  10.486 -0.1411  1.1145 -1.0203
  873MOL0     H17816  12.534   5.000  10.487  2.0908 -0.0021  2.0241
  873MOL0     H17817  12.863   5.281  10.682  1.9010 -1.2814 -3.1372
  873MOL0     H17818  13.087   5.385  10.637  0.9955  0.8413  0.0512
  873MOL0     H17819  13.255   5.489  10.547 -0.8800 -1.0756 -1.1223
  873MOL0     H17820  13.219   5.553  10.399  0.5178 -1.1731  1.2003
  873MOL0     H17821  13.430   5.631  10.428 -0.3142  0.8828 -0.5012
  873MOL0     H17822  13.318   5.771  10.483 -2.5551 -0.1171  3.1858
  873MOL0     H17823  13.441   5.582  10.667 -1.8057  0.5485  0.6110
  873MOL0     H17824  13.520   5.733  10.622 -3.2542  4.7100 -1.1246
  873MOL0     H17825  13.252   5.692  10.781 -1.5258  0.7655 -1.9547
  873MOL0     H17826  13.269   5.830  10.680  0.7384  1.4366  2.0106
  873MOL0     H17827  13.428   5.750  10.923 -1.2075 -0.4594 -0.1369
  873MOL0     H17828  13.303   5.871  10.908  0.1923 -0.1880  1.6878
  873MOL0     H17829  13.530   5.966  10.919  1.3351  0.0788 -0.1719
  873MOL0     H17830  13.583   5.889  10.771 -1.0653  1.9288 -4.4857
  873MOL0     H17831  13.369   6.113  10.785  1.5125  1.4494  1.7498
  873MOL0     H17832  13.425   6.029  10.636  0.5603  1.5839 -0.6481
  873MOL0     H17833  13.552   6.251  10.688  0.0176 -0.4178  0.3409
  873MOL0     H17834  13.610   6.185  10.838 -0.3091  1.8994  0.4628
  873MOL0     H17835  12.885   5.753  10.553  1.6570  0.4068  3.9704
  873MOL0     H17836  12.655   5.629  10.560 -0.6789 -0.3137  2.0143
  873MOL0     H17837  12.399   5.368  10.690  0.8917  0.9733 -0.3092
  873MOL0     H17838  12.184   5.264  10.720  0.2261  0.1806  1.8606
  873MOL0     H17839  10.078   4.803  11.032  2.5114  0.6811 -1.4413
  873MOL0     H17840   9.848   4.940  11.055 -2.0183  2.1121  0.4978
  873MOL0     H17841   9.722   5.363  11.318 -0.4461  2.0939  1.0399
  873MOL0     H17842   9.525   5.543  11.407  0.0456 -0.1188 -0.0510
  873MOL0     H17843   9.356   5.651  11.471  2.1791 -0.4785  0.9191
  873MOL0     H17844   9.330   5.511  11.578  2.4451  3.9957  1.8919
  873MOL0     H17845   9.148   5.642  11.632 -0.7116 -0.6772 -0.1772
  873MOL0     H17846   9.074   5.545  11.504 -0.1411  0.1461 -0.0316
  873MOL0     H17847   9.151   5.766  11.346 -2.2850 -0.1592 -1.0909
  873MOL0     H17848   9.180   5.840  11.500 -1.9358  0.5173  0.7964
  873MOL0     H17849   8.966   5.812  11.578 -2.4702  1.7811 -0.5185
  873MOL0     H17850   8.968   5.895  11.418  1.1574 -0.2998  0.4621
  873MOL0     H17851   8.716   5.588  11.319  2.3903 -1.9223 -0.5381
  873MOL0     H17852   9.239   5.274  11.270  0.5613 -1.7437 -0.7233
  873MOL0     H17853   9.414   4.985  11.282  1.0502  0.7995  0.1346
  873MOL0     H17854   9.279   5.060  11.198 -0.3651 -1.2760 -2.8423
  873MOL0     H17855   9.433   5.022  11.117 -0.7688 -0.5785  1.5464
  874MOL0     O17856   7.640   8.957   5.922  0.8841 -1.1205  0.1602
  874MOL0     C17857   7.611   8.927   6.037 -0.0708 -0.0247  0.3418
  874MOL0     O17858   7.686   8.848   6.120  0.2036  0.6675  1.0388
  874MOL0     C17859   7.821   8.835   6.111 -0.0293  0.5276  1.0301
  874MOL0     C17860   7.901   8.924   6.018 -0.1568  0.0483 -0.0089
  874MOL0     C17861   8.043   8.916   6.015  0.3341  0.2825  0.1628
  874MOL0     C17862   8.101   8.819   6.096 -0.2344  0.3283  0.6485
  874MOL0     O17863   8.242   8.806   6.090 -0.1798  0.0428  0.3320
  874MOL0     C17864   8.332   8.912   6.077 -0.4741 -0.9844 -0.2404
  874MOL0     C17865   8.477   8.864   6.056  0.4867  0.1578 -0.7545
  874MOL0     C17866   8.520   8.742   6.146 -0.4540 -0.6846 -0.6288
  874MOL0     C17867   8.519   8.769   6.296  1.6840 -0.2112  0.5016
  874MOL0     C17868   8.623   8.866   6.340  0.4317 -0.2386  0.5991
  874MOL0     C17869   8.673   8.814   6.481 -0.2867 -0.7134 -0.3926
  874MOL0     C17870   8.764   8.925   6.538 -0.1472 -0.0285 -0.9940
  874MOL0     C17871   8.799   8.890   6.687 -0.0539  0.6225 -0.1619
  874MOL0     N17872   8.905   8.966   6.748  0.2708  0.5027 -0.8902
  874MOL0     C17873   8.881   9.073   6.836  0.9692 -0.3313  0.5587
  874MOL0     C17874   9.005   9.128   6.865  0.2424 -0.3867  0.0611
  874MOL0     C17875   9.053   9.242   6.944 -0.4928  0.5403  0.3034
  874MOL0     C17876   9.199   9.219   6.998 -0.3856  0.4362  0.6691
  874MOL0     C17877   9.207   9.112   7.112 -0.2270  0.5526  0.6692
  874MOL0     C17878   9.348   9.101   7.184  0.5298 -0.3107  0.9410
  874MOL0     O17879   9.368   9.231   7.248 -0.2724 -0.3064  0.5746
  874MOL0     C17880   9.494   9.285   7.274  0.2114 -0.0720 -0.1538
  874MOL0     C17881   9.503   9.421   7.241 -0.6276  0.0462  0.5673
  874MOL0     C17882   9.631   9.471   7.260 -0.1041 -0.2902 -0.0494
  874MOL0     C17883   9.737   9.404   7.319  0.4265  0.5958  0.2576
  874MOL0     C17884   9.873   9.464   7.341  0.7213  0.3052  0.6645
  874MOL0     O17885   9.888   9.594   7.297  0.1233  0.6021  0.0872
  874MOL0     C17886  10.000   9.673   7.300 -0.5027 -0.0101 -0.2164
  874MOL0     C17887  10.125   9.648   7.369  0.3416  0.3263  1.2680
  874MOL0     C17888  10.229   9.739   7.366 -0.2676 -0.3762 -0.1078
  874MOL0     C17889  10.210   9.866   7.313  0.0085  0.3906 -0.0865
  874MOL0     O17890  10.308   9.962   7.315  0.9430  0.3884 -0.0992
  874MOL0     C17891  10.281  10.099   7.350  0.7238  0.0669  0.2065
  874MOL0     C17892  10.361  10.127   7.474  1.1664 -0.5586  0.0275
  874MOL0     C17893  10.327  10.039   7.592 -0.8229  0.1770  0.2138
  874MOL0     C17894  10.426  10.079   7.708 -0.2459 -0.1584 -0.3199
  874MOL0     C17895  10.396  10.009   7.842 -0.4494  0.0655  0.0026
  874MOL0     C17896  10.488  10.076   7.953 -0.4098 -0.1459  0.3162
  874MOL0     C17897  10.427  10.058   8.090 -0.0372 -0.1858  0.4271
  874MOL0     C17898  10.483  10.152   8.186 -0.9971  0.2803 -0.7693
  874MOL0    Cl17899  10.434  10.318   8.149 -0.2517  0.2644  0.2863
  874MOL0     C17900  10.086   9.888   7.251 -0.2012 -0.2731 -0.2519
  874MOL0     C17901   9.980   9.798   7.247  0.3119 -0.0015  0.4065
  874MOL0     O17902   9.963   9.400   7.404  0.0216  0.0649 -0.2937
  874MOL0     C17903   9.717   9.268   7.359 -0.4215  0.3461 -0.1652
  874MOL0     C17904   9.592   9.206   7.325  0.3542 -0.0420 -0.8529
  874MOL0     N17905   9.093   9.058   6.785 -0.4602  0.3592  0.1159
  874MOL0     N17906   9.035   8.965   6.715 -0.6052  0.3330  0.3401
  874MOL0     C17907   8.027   8.735   6.179 -0.5905  1.0789  0.2335
  874MOL0     C17908   7.893   8.726   6.171  0.0138 -1.1360  0.5218
  874MOL0     C17909   7.473   8.972   6.089  0.4852 -0.2275  0.6519
  874MOL0     C17910   7.423   8.918   6.209 -0.0828 -0.6935 -0.5502
  874MOL0     C17911   7.287   8.913   6.236 -0.9363  0.6228  0.4205
  874MOL0     C17912   7.201   8.982   6.152 -0.1798 -0.3776 -0.4213
  874MOL0     O17913   7.072   8.981   6.171  0.1823  0.1174 -0.2633
  874MOL0     C17914   7.017   8.998   6.304  0.0355  0.6447 -0.1013
  874MOL0     C17915   6.870   9.057   6.307  0.0440  0.2459  0.7515
  874MOL0     C17916   6.800   9.037   6.442 -0.1416  0.5401 -0.2802
  874MOL0     C17917   6.728   9.166   6.477 -0.3249  0.0645  0.3483
  874MOL0     C17918   6.672   9.156   6.610 -0.0966 -0.0593 -0.2336
  874MOL0     C17919   6.621   9.140   6.723  0.4485 -0.6960 -0.7173
  874MOL0     C17920   7.245   9.053   6.044 -0.1758  0.0149  0.2451
  874MOL0     C17921   7.382   9.060   6.018 -0.5702 -0.3547 -0.1341
  874MOL0     C17922   7.415   9.133   5.892  0.0119  0.3097 -0.5900
  874MOL0     H17923   7.872   9.007   5.955  1.2761  0.7156  0.1659
  874MOL0     H17924   8.107   8.976   5.952  0.7824  0.2773  0.6042
  874MOL0     H17925   8.296   8.973   5.994 -0.3075 -0.1056  0.3124
  874MOL0     H17926   8.337   8.975   6.167  2.3706 -0.0916 -0.9372
  874MOL0     H17927   8.557   8.938   6.062  1.5921 -0.6695 -3.5656
  874MOL0     H17928   8.467   8.821   5.956  0.6767 -5.5161  1.3080
  874MOL0     H17929   8.625   8.726   6.121 -0.4474 -0.5312 -0.6963
  874MOL0     H17930   8.456   8.657   6.119 -1.2032  0.2057 -1.7511
  874MOL0     H17931   8.422   8.804   6.332 -0.2160 -0.8985 -3.4787
  874MOL0     H17932   8.528   8.672   6.346 -3.1593 -1.2766 -0.2295
  874MOL0     H17933   8.698   8.857   6.260 -2.1341  0.0208 -1.9858
  874MOL0     H17934   8.590   8.970   6.331  1.0794 -0.0843 -0.1021
  874MOL0     H17935   8.591   8.800   6.552 -1.3706 -1.5540 -1.7598
  874MOL0     H17936   8.722   8.717   6.480  3.1120  0.5903  4.7354
  874MOL0     H17937   8.719   9.025   6.535  2.0563  1.3314  3.2932
  874MOL0     H17938   8.860   8.927   6.484 -0.3406  0.4952 -1.3301
  874MOL0     H17939   8.704   8.902   6.740 -0.6235 -0.7132 -0.8302
  874MOL0     H17940   8.844   8.791   6.687  2.7432  1.7815 -1.3079
  874MOL0     H17941   8.789   9.099   6.889 -0.9623 -0.0351 -2.6956
  874MOL0     H17942   9.055   9.334   6.884 -0.4264  2.5501  3.2189
  874MOL0     H17943   8.991   9.257   7.033 -0.7313 -0.9885  0.4285
  874MOL0     H17944   9.276   9.192   6.925  1.2977  1.7624  1.8776
  874MOL0     H17945   9.237   9.313   7.039  0.9200  1.1944 -2.0014
  874MOL0     H17946   9.185   9.009   7.083  2.3355  0.4674 -1.2779
  874MOL0     H17947   9.136   9.144   7.189 -1.4427  1.8162 -0.8847
  874MOL0     H17948   9.423   9.082   7.106 -1.0130 -0.0882 -0.6557
  874MOL0     H17949   9.336   9.012   7.247 -1.7544 -2.1607 -1.8860
  874MOL0     H17950   9.415   9.482   7.224 -0.9201 -0.2917  0.8744
  874MOL0     H17951   9.644   9.569   7.216  0.9743 -0.6961 -0.6771
  874MOL0     H17952  10.146   9.554   7.419  1.6803 -0.3158 -0.4069
  874MOL0     H17953  10.318   9.718   7.424 -0.0303  1.3811  0.2133
  874MOL0     H17954  10.309  10.170   7.272  0.0980 -2.1810 -2.2138
  874MOL0     H17955  10.178  10.129   7.372 -0.2416 -0.3951 -3.1379
  874MOL0     H17956  10.463  10.099   7.445  0.9321 -3.0286  1.3241
  874MOL0     H17957  10.347  10.231   7.506 -0.3018 -1.1540  1.4684
  874MOL0     H17958  10.226  10.060   7.629 -1.7876 -2.4026 -0.7319
  874MOL0     H17959  10.321   9.933   7.565  0.1225  0.0481  0.4793
  874MOL0     H17960  10.424  10.186   7.728 -1.7448 -0.1593 -0.3736
  874MOL0     H17961  10.530  10.059   7.679 -0.5251 -1.7930 -0.3248
  874MOL0     H17962  10.412   9.902   7.828  1.2535  0.4108 -0.9920
  874MOL0     H17963  10.289  10.013   7.861 -0.3837 -2.5432  1.2662
  874MOL0     H17964  10.585  10.026   7.944 -0.1455  0.4506 -0.2639
  874MOL0     H17965  10.504  10.181   7.926 -1.1028 -0.1957 -0.3250
  874MOL0     H17966  10.440   9.957   8.129  2.5694 -0.0745  0.0695
  874MOL0     H17967  10.322  10.086   8.081 -0.7243 -1.8026  2.7398
  874MOL0     H17968  10.453  10.122   8.286  0.8906 -0.2518 -0.3405
  874MOL0     H17969  10.591  10.145   8.173 -0.8247  0.8244  0.2578
  874MOL0     H17970  10.061   9.987   7.215 -0.5120 -0.6775 -1.1696
  874MOL0     H17971   9.884   9.837   7.213  0.2879 -0.1733  0.2771
  874MOL0     H17972   9.796   9.201   7.391 -1.1863 -0.5150 -0.0091
  874MOL0     H17973   9.574   9.103   7.353 -2.9745  1.2432  2.6557
  874MOL0     H17974   8.090   8.661   6.227 -1.6457  1.1185  1.7352
  874MOL0     H17975   7.839   8.649   6.225 -0.2263 -0.0816  1.8258
  874MOL0     H17976   7.489   8.875   6.283  0.4092  1.4769  0.3611
  874MOL0     H17977   7.256   8.849   6.318  0.3404  1.7558  1.8499
  874MOL0     H17978   7.080   9.074   6.351  0.0471  2.1023 -2.3097
  874MOL0     H17979   7.018   8.907   6.364 -2.5477  0.3026 -0.4700
  874MOL0     H17980   6.803   9.020   6.229 -0.9218  0.3712  1.5020
  874MOL0     H17981   6.881   9.165   6.290  0.3620  0.4496  2.1068
  874MOL0     H17982   6.875   9.022   6.519 -1.6331 -0.9266  0.9704
  874MOL0     H17983   6.722   8.960   6.440 -0.9919  1.3923 -0.6048
  874MOL0     H17984   6.809   9.240   6.475  2.2570 -2.5916 -0.5908
  874MOL0     H17985   6.653   9.184   6.399 -2.5788 -3.2356  1.5455
  874MOL0     H17986   6.598   9.122   6.826  2.4270 -1.7360 -0.4022
  874MOL0     H17987   7.179   9.091   5.966 -0.6773 -3.0689 -0.9970
  874MOL0     H17988   7.519   9.168   5.892  0.1115  0.1747  1.7335
  874MOL0     H17989   7.389   9.071   5.806 -2.5919 -1.9973  1.6579
  874MOL0     H17990   7.362   9.228   5.880  1.0310  0.8020 -1.4211
  875MOL0     O17991   3.719   3.303   8.286  0.7814 -0.4504  0.4737
  875MOL0     C17992   3.629   3.217   8.269  0.1051 -0.5112  0.3810
  875MOL0     O17993   3.632   3.131   8.165  0.0171  0.0316  0.9769
  875MOL0     C17994   3.737   3.100   8.072 -0.0483  0.0653 -1.0476
  875MOL0     C17995   3.859   3.170   8.069  0.6717 -0.4341  0.3782
  875MOL0     C17996   3.940   3.142   7.950  0.1981 -0.3900 -0.9546
  875MOL0     C17997   3.905   3.038   7.861  0.2990  0.0401  0.2011
  875MOL0     O17998   3.992   2.989   7.772  0.7450 -0.3737  0.6843
  875MOL0     C17999   4.110   3.062   7.736  0.6541 -0.0867  1.2661
  875MOL0     C18000   4.190   2.968   7.640  0.0315 -0.6145 -0.3891
  875MOL0     C18001   4.299   3.042   7.560 -0.1243 -0.1620  0.2333
  875MOL0     C18002   4.419   3.073   7.648 -0.9785 -1.2326 -0.8163
  875MOL0     C18003   4.513   3.168   7.562  0.0136 -0.9440  0.1808
  875MOL0     C18004   4.641   3.218   7.640  0.0549  0.1921 -0.3173
  875MOL0     C18005   4.721   3.299   7.541  0.2486 -0.4180 -0.1564
  875MOL0     C18006   4.864   3.306   7.597 -0.0611 -0.0981  0.4434
  875MOL0     N18007   4.954   3.341   7.483  0.1027  0.5237 -0.6627
  875MOL0     C18008   5.077   3.294   7.475 -0.2544 -0.2380 -0.4383
  875MOL0     C18009   5.135   3.379   7.386  0.7283 -0.3242 -0.3540
  875MOL0     C18010   5.273   3.355   7.344 -0.3640 -0.3879 -0.3533
  875MOL0     C18011   5.351   3.492   7.317 -0.4388  0.6071 -0.3149
  875MOL0     C18012   5.511   3.481   7.292  0.1289 -0.5538 -0.1737
  875MOL0     C18013   5.567   3.384   7.182  0.9079 -0.5557  0.2777
  875MOL0     O18014   5.702   3.341   7.209  0.6557 -0.6788  0.7143
  875MOL0     C18015   5.798   3.390   7.121 -1.2485 -0.7383 -0.4085
  875MOL0     C18016   5.795   3.516   7.046  0.6230 -1.1983 -0.0197
  875MOL0     C18017   5.897   3.561   6.962 -0.5293 -0.2944 -0.4551
  875MOL0     C18018   6.014   3.478   6.956 -0.3422  0.8037  0.3934
  875MOL0     C18019   6.129   3.516   6.878 -0.1394 -0.1581  0.1514
  875MOL0     O18020   6.255   3.550   6.935 -0.6053  0.0246  0.1187
  875MOL0     C18021   6.369   3.594   6.860  0.6463  0.6619 -0.4376
  875MOL0     C18022   6.445   3.690   6.924  0.4843  0.4082 -0.3591
  875MOL0     C18023   6.549   3.738   6.866  1.6379 -0.2260  0.0310
  875MOL0     C18024   6.580   3.718   6.729  0.4442 -0.6046  0.4358
  875MOL0     O18025   6.681   3.788   6.669  1.1583 -0.0530 -1.4577
  875MOL0     C18026   6.742   3.725   6.557  0.5396 -0.4933 -0.4395
  875MOL0     C18027   6.844   3.818   6.499  0.1407 -0.3119  0.3870
  875MOL0     C18028   6.832   3.860   6.352  0.0300  0.5173  0.0512
  875MOL0     C18029   6.975   3.872   6.284  0.4791  0.1785  0.3709
  875MOL0     C18030   6.946   3.894   6.137  0.1490  0.0495 -0.0840
  875MOL0     C18031   7.075   3.953   6.064 -0.4668  0.9355  0.5199
  875MOL0     C18032   7.047   3.949   5.916 -0.9875  0.5947  0.3012
  875MOL0     C18033   7.137   4.051   5.834  0.1136  0.2648 -0.0440
  875MOL0    Cl18034   7.122   4.224   5.892  0.0849  0.5642 -0.0891
  875MOL0     C18035   6.508   3.626   6.655 -0.1401 -0.1193 -1.1015
  875MOL0     C18036   6.403   3.562   6.725 -0.0908 -0.0856 -0.6519
  875MOL0     O18037   6.099   3.534   6.763  0.3104 -0.4355  0.9357
  875MOL0     C18038   6.027   3.367   7.041  0.4709  0.3281 -0.1510
  875MOL0     C18039   5.917   3.325   7.117 -0.2418 -0.2954  0.7049
  875MOL0     N18040   5.035   3.465   7.336 -1.2533 -0.3081 -0.1136
  875MOL0     N18041   4.931   3.442   7.401  0.0708 -0.1513  0.2666
  875MOL0     C18042   3.792   2.966   7.880 -0.0326  0.2628  0.0075
  875MOL0     C18043   3.702   2.991   7.986 -0.0149 -0.8240  0.4958
  875MOL0     C18044   3.500   3.233   8.341 -0.3205 -0.1340  0.3464
  875MOL0     C18045   3.387   3.244   8.261  0.2777  0.3547 -0.1520
  875MOL0     C18046   3.255   3.279   8.313  1.1486 -0.4618 -1.1086
  875MOL0     C18047   3.239   3.291   8.453 -0.3541  0.2294 -0.2814
  875MOL0     O18048   3.120   3.323   8.517  0.3950 -0.0235  0.4151
  875MOL0     C18049   2.993   3.328   8.461 -0.3866  0.1752 -0.4199
  875MOL0     C18050   2.881   3.297   8.565  0.5766 -0.3808 -0.0241
  875MOL0     C18051   2.741   3.348   8.523  0.4242  0.8946 -0.0955
  875MOL0     C18052   2.723   3.498   8.562  0.2344  0.2499  0.4545
  875MOL0     C18053   2.589   3.532   8.516  0.0914 -0.0593 -0.0636
  875MOL0     C18054   2.488   3.571   8.468 -0.2226  0.6064  0.8142
  875MOL0     C18055   3.358   3.274   8.528  0.2257  0.3247  0.1845
  875MOL0     C18056   3.490   3.250   8.481  0.1868 -0.9382  0.5060
  875MOL0     C18057   3.603   3.254   8.580  0.7758  0.0147  0.9826
  875MOL0     H18058   3.899   3.248   8.133  2.0978  0.7775 -1.8465
  875MOL0     H18059   4.031   3.201   7.947 -1.0937  2.1422  2.5452
  875MOL0     H18060   4.082   3.154   7.684  0.1677  0.1879  1.9970
  875MOL0     H18061   4.172   3.091   7.822 -0.8900  1.6314  1.8660
  875MOL0     H18062   4.118   2.906   7.586 -2.8418 -0.0919  2.5469
  875MOL0     H18063   4.246   2.902   7.706  3.2323  2.3020  0.1418
  875MOL0     H18064   4.255   3.133   7.518 -0.5539  1.5044  3.9108
  875MOL0     H18065   4.328   2.978   7.476  1.3955 -0.2588  0.8044
  875MOL0     H18066   4.370   3.118   7.735 -1.0219 -0.0264 -1.4451
  875MOL0     H18067   4.473   2.983   7.678  2.8358  0.6654 -1.4732
  875MOL0     H18068   4.546   3.105   7.478  0.5491 -1.3061  0.6558
  875MOL0     H18069   4.468   3.257   7.517  1.8466  0.4461  0.9528
  875MOL0     H18070   4.619   3.278   7.729 -0.9670 -0.0564 -0.3900
  875MOL0     H18071   4.700   3.130   7.668  1.6516  1.1333 -0.6200
  875MOL0     H18072   4.685   3.402   7.536  0.2139 -0.3925  0.5431
  875MOL0     H18073   4.715   3.257   7.440  1.5994 -1.4174  0.1591
  875MOL0     H18074   4.872   3.372   7.684 -2.5803 -1.4824  1.8323
  875MOL0     H18075   4.897   3.214   7.644  0.3487  0.6196  1.6086
  875MOL0     H18076   5.127   3.220   7.537  4.8827  3.1772  0.0723
  875MOL0     H18077   5.323   3.291   7.418 -2.9837 -1.6387  0.4702
  875MOL0     H18078   5.273   3.311   7.244 -1.7458 -3.1681  0.7668
  875MOL0     H18079   5.301   3.548   7.237  0.3327  2.1965  0.2790
  875MOL0     H18080   5.349   3.551   7.409  2.3028 -0.0624  0.2642
  875MOL0     H18081   5.561   3.452   7.384  0.6602 -0.6416 -0.4872
  875MOL0     H18082   5.542   3.581   7.259 -0.5825 -0.0402  0.6574
  875MOL0     H18083   5.553   3.420   7.080 -1.9780 -2.8145 -0.2600
  875MOL0     H18084   5.498   3.299   7.191  0.1738  0.0656  0.7436
  875MOL0     H18085   5.698   3.565   7.052  0.9504 -0.7232  3.1710
  875MOL0     H18086   5.882   3.654   6.907 -3.6346  0.5629  1.5359
  875MOL0     H18087   6.417   3.742   7.015  1.5016  0.0477  0.1773
  875MOL0     H18088   6.604   3.823   6.906  1.3164  1.0923 -2.1614
  875MOL0     H18089   6.786   3.635   6.600  0.4390  0.1560  1.0572
  875MOL0     H18090   6.669   3.697   6.480 -1.0075 -1.6204  1.3501
  875MOL0     H18091   6.841   3.912   6.554 -1.8168 -0.7960  1.1845
  875MOL0     H18092   6.945   3.779   6.517 -0.6988 -2.3557  0.9973
  875MOL0     H18093   6.795   3.774   6.295 -1.1176  1.5333 -0.7832
  875MOL0     H18094   6.762   3.942   6.336 -0.9330 -0.6898 -2.4513
  875MOL0     H18095   7.024   3.774   6.292  1.2869  0.5431  0.0373
  875MOL0     H18096   7.038   3.941   6.341 -1.2918  0.5907  1.9344
  875MOL0     H18097   6.865   3.967   6.139  1.6561  1.8145 -1.1199
  875MOL0     H18098   6.921   3.792   6.105  1.2072 -0.9046  1.9206
  875MOL0     H18099   7.091   4.056   6.094 -0.2932  0.9292  0.4515
  875MOL0     H18100   7.164   3.893   6.084 -1.6445 -0.7735  0.8963
  875MOL0     H18101   6.939   3.965   5.903 -1.4002 -2.4905 -1.0912
  875MOL0     H18102   7.065   3.849   5.875  0.4900  1.9261 -2.5728
  875MOL0     H18103   7.242   4.023   5.849  0.4915  1.3290 -0.5732
  875MOL0     H18104   7.107   4.041   5.729 -1.1766 -1.2596  0.4355
  875MOL0     H18105   6.515   3.598   6.550  0.6579  1.5814 -1.5240
  875MOL0     H18106   6.348   3.481   6.677  0.7412 -2.0392  1.5579
  875MOL0     H18107   6.121   3.312   7.030  2.1382  3.3776 -2.8934
  875MOL0     H18108   5.924   3.237   7.179 -0.9634  1.7484  3.9223
  875MOL0     H18109   3.766   2.894   7.803  0.7035  0.2387 -0.2282
  875MOL0     H18110   3.608   2.938   7.990  0.0514 -0.9109  4.0047
  875MOL0     H18111   3.390   3.226   8.154 -1.1193  2.0339 -0.5060
  875MOL0     H18112   3.163   3.291   8.256  1.2753  1.8641 -0.9277
  875MOL0     H18113   2.988   3.259   8.376 -2.3757 -1.1062  0.6733
  875MOL0     H18114   2.979   3.430   8.423 -0.6172  1.7750  3.5308
  875MOL0     H18115   2.907   3.347   8.659 -1.3998 -0.5880  0.6760
  875MOL0     H18116   2.877   3.191   8.591 -4.0374  0.0028  1.8112
  875MOL0     H18117   2.685   3.298   8.602  1.9067  4.5809  3.6500
  875MOL0     H18118   2.713   3.338   8.417 -0.0853  4.9812 -0.4943
  875MOL0     H18119   2.711   3.519   8.669  0.2325 -0.2853  0.5631
  875MOL0     H18120   2.802   3.558   8.517  2.6793 -0.8645  2.8899
  875MOL0     H18121   2.410   3.620   8.413  0.8976  1.8508  0.2861
  875MOL0     H18122   3.342   3.297   8.632 -2.0406  1.7128 -0.3975
  875MOL0     H18123   3.590   3.350   8.630  0.9646  1.7741 -2.0809
  875MOL0     H18124   3.610   3.166   8.645  0.7357 -1.0875 -0.4553
  875MOL0     H18125   3.695   3.264   8.521  1.4223 -4.3444  0.9142
  876MOL0     O18126   3.945  10.578   8.495  0.4282 -0.3849 -0.0581
  876MOL0     C18127   3.906  10.594   8.381 -1.3626  1.0202  0.1832
  876MOL0     O18128   3.950  10.513   8.280  0.1967 -0.4457  0.4163
  876MOL0     C18129   3.993  10.392   8.298 -0.4296  0.8879  0.0388
  876MOL0     C18130   4.063  10.354   8.180  0.0577 -0.7421 -0.7322
  876MOL0     C18131   4.102  10.225   8.175 -0.1675  0.0473  0.5539
  876MOL0     C18132   4.071  10.124   8.272 -0.1396  0.5455  0.2660
  876MOL0     O18133   4.127  10.001   8.243  0.4839  0.1652 -0.5015
  876MOL0     C18134   4.232   9.961   8.327 -0.5498  0.0567  0.6508
  876MOL0     C18135   4.358   9.943   8.251  0.2310 -0.2631  0.2384
  876MOL0     C18136   4.417  10.068   8.177 -0.2832 -0.4454  0.3879
  876MOL0     C18137   4.571  10.056   8.147 -0.1320  0.3064 -0.7517
  876MOL0     C18138   4.608  10.157   8.034  0.1456 -0.1181  0.1566
  876MOL0     C18139   4.762  10.158   7.994 -0.1636  0.2159  0.5134
  876MOL0     C18140   4.776  10.231   7.857 -0.6668 -0.3668  0.2033
  876MOL0     C18141   4.933  10.236   7.830 -0.0803  0.8443 -0.0427
  876MOL0     N18142   4.964  10.346   7.731  0.2154 -0.4011 -0.9262
  876MOL0     C18143   4.966  10.476   7.776  0.9139  0.1248  0.3891
  876MOL0     C18144   4.943  10.553   7.665  0.0911 -1.2953 -0.4166
  876MOL0     C18145   4.932  10.700   7.651 -0.9289  0.6430  0.5357
  876MOL0     C18146   5.053  10.752   7.564 -0.1660  0.5202 -0.0818
  876MOL0     C18147   5.051  10.898   7.564  0.2795 -0.5227 -0.3164
  876MOL0     C18148   5.173  10.952   7.483  0.8756  0.0575 -0.4485
  876MOL0     O18149   5.300  10.903   7.537 -0.1238 -0.0412  0.0763
  876MOL0     C18150   5.413  10.932   7.469 -0.7392 -0.2985 -0.5686
  876MOL0     C18151   5.419  11.030   7.368 -0.4058 -0.8516  0.0281
  876MOL0     C18152   5.542  11.046   7.299 -0.4972  0.5036  0.1367
  876MOL0     C18153   5.654  10.972   7.333 -0.1442  0.1182  0.8807
  876MOL0     C18154   5.782  10.994   7.265 -0.2143 -0.2930 -0.7671
  876MOL0     O18155   5.779  11.098   7.180 -0.2398 -0.3368 -0.2882
  876MOL0     C18156   5.883  11.118   7.097  0.0505  0.2648  0.5969
  876MOL0     C18157   5.933  11.239   7.065 -0.1091 -1.6713  0.6787
  876MOL0     C18158   6.028  11.269   6.975  0.2298 -0.1208  0.5129
  876MOL0     C18159   6.077  11.155   6.901  1.0324 -0.8685 -0.4253
  876MOL0     O18160   6.166  11.173   6.803 -0.2270 -0.8072 -0.7205
  876MOL0     C18161   6.262  11.281   6.819  0.5950  0.2460  0.5285
  876MOL0     C18162   6.384  11.247   6.730  0.5518 -0.0444 -0.1539
  876MOL0     C18163   6.509  11.319   6.762 -0.3904  1.0236  0.9247
  876MOL0     C18164   6.614  11.276   6.652 -0.4078 -0.6263  0.0129
  876MOL0     C18165   6.748  11.338   6.691 -0.8954  0.1107  0.1193
  876MOL0     C18166   6.837  11.346   6.567  0.4367 -0.4840  0.3354
  876MOL0     C18167   6.980  11.360   6.593 -0.4024 -0.0335 -0.2172
  876MOL0     C18168   7.054  11.374   6.460  0.6965 -0.0182  0.0186
  876MOL0    Cl18169   7.227  11.353   6.501  0.0110 -0.3007  0.1700
  876MOL0     C18170   6.023  11.034   6.908  1.1030 -0.4399  0.2446
  876MOL0     C18171   5.928  11.008   7.014  0.2711 -0.0717 -0.3082
  876MOL0     O18172   5.885  10.930   7.295  0.1630  0.1825  0.0345
  876MOL0     C18173   5.644  10.878   7.436 -0.4959 -0.8692 -0.1780
  876MOL0     C18174   5.528  10.865   7.511  0.7894  0.2589  0.5480
  876MOL0     N18175   4.942  10.463   7.549 -0.0941 -0.0349  0.1796
  876MOL0     N18176   4.975  10.346   7.599 -0.2084  0.7355 -0.2121
  876MOL0     C18177   4.013  10.168   8.396  0.4265  0.4684 -0.0884
  876MOL0     C18178   3.972  10.299   8.400 -0.4565  0.1530 -0.6199
  876MOL0     C18179   3.816  10.706   8.345  0.0735  0.0348 -0.1516
  876MOL0     C18180   3.720  10.681   8.251 -0.5161  0.2531  0.6344
  876MOL0     C18181   3.614  10.767   8.238  0.3032  0.7000  0.0752
  876MOL0     C18182   3.610  10.891   8.303 -0.0092  0.8126  0.1380
  876MOL0     O18183   3.504  10.972   8.270 -1.3937  0.5412  0.0486
  876MOL0     C18184   3.548  11.090   8.198 -0.9311 -0.5578  1.1061
  876MOL0     C18185   3.442  11.143   8.101  0.3253 -0.2300 -0.4964
  876MOL0     C18186   3.500  11.262   8.036 -0.2811 -0.3544 -0.1339
  876MOL0     C18187   3.400  11.322   7.941 -0.6449  0.6399 -0.0584
  876MOL0     C18188   3.298  11.407   8.004  0.3574  0.0357  0.9895
  876MOL0     C18189   3.197  11.466   8.037 -0.5474 -0.2206  0.1707
  876MOL0     C18190   3.720  10.929   8.381 -0.4038 -0.0654  0.0615
  876MOL0     C18191   3.823  10.834   8.408 -0.4239  0.0959 -0.6248
  876MOL0     C18192   3.934  10.864   8.509  0.0021  0.4306  0.6280
  876MOL0     H18193   4.077  10.429   8.103 -1.6496  1.5435  1.0375
  876MOL0     H18194   4.161  10.193   8.089 -1.7956  0.4480 -0.7595
  876MOL0     H18195   4.252  10.039   8.401  0.9379  2.0819 -1.7321
  876MOL0     H18196   4.207   9.879   8.395 -3.6129  0.5332  0.2763
  876MOL0     H18197   4.350   9.861   8.179  1.6589 -1.2144  1.1233
  876MOL0     H18198   4.428   9.906   8.326 -2.0672 -4.1689  0.7419
  876MOL0     H18199   4.398  10.150   8.247 -4.4599 -0.9395  0.0428
  876MOL0     H18200   4.359  10.077   8.085  1.1649  3.4083 -0.3390
  876MOL0     H18201   4.648  10.065   8.224  0.6802 -2.0970 -1.2013
  876MOL0     H18202   4.586   9.955   8.107  0.7427 -1.0945  2.7767
  876MOL0     H18203   4.543  10.140   7.948 -1.5662  1.1607  1.1481
  876MOL0     H18204   4.590  10.255   8.078  0.5617  0.0104  0.0466
  876MOL0     H18205   4.819  10.214   8.070  2.7348  0.9108 -1.9756
  876MOL0     H18206   4.812  10.061   7.981 -2.0555 -0.8854  1.0721
  876MOL0     H18207   4.748  10.336   7.867  0.5048  0.1205 -1.1637
  876MOL0     H18208   4.720  10.193   7.771  0.4172  1.3234 -1.3135
  876MOL0     H18209   4.997  10.240   7.919  1.5593 -2.2001 -0.9487
  876MOL0     H18210   4.965  10.137   7.797 -3.1797 -0.0253 -0.7319
  876MOL0     H18211   4.958  10.512   7.878 -2.1505 -0.7859  0.5650
  876MOL0     H18212   4.833  10.723   7.610 -0.6268 -1.7431 -1.8019
  876MOL0     H18213   4.928  10.752   7.747 -2.9906  0.1439  0.7627
  876MOL0     H18214   5.150  10.716   7.601  1.1399  0.7693 -3.0014
  876MOL0     H18215   5.033  10.720   7.462 -3.4184 -2.1723  1.1855
  876MOL0     H18216   5.053  10.934   7.668 -2.3433 -1.4658  0.1365
  876MOL0     H18217   4.955  10.919   7.516  0.3744 -1.5980 -1.0026
  876MOL0     H18218   5.171  11.060   7.497 -1.9244  0.2577 -1.7195
  876MOL0     H18219   5.167  10.930   7.376  0.2706  0.9016 -0.5912
  876MOL0     H18220   5.335  11.097   7.352  0.1934  0.2481  1.2343
  876MOL0     H18221   5.555  11.126   7.227 -0.5653 -1.3603 -2.0544
  876MOL0     H18222   5.882  11.316   7.121  1.9650 -0.3912  0.9486
  876MOL0     H18223   6.059  11.372   6.962  3.4055 -0.5310  3.4127
  876MOL0     H18224   6.228  11.382   6.794  0.2287  0.1882  0.7896
  876MOL0     H18225   6.292  11.289   6.924  1.7167  2.5235  0.0955
  876MOL0     H18226   6.414  11.143   6.746 -1.3494 -0.2960  2.3723
  876MOL0     H18227   6.366  11.255   6.622 -1.9989 -1.8863  0.0467
  876MOL0     H18228   6.507  11.428   6.774 -0.2660  1.2381 -0.7631
  876MOL0     H18229   6.545  11.274   6.855 -0.0522  2.3902  1.4824
  876MOL0     H18230   6.581  11.319   6.557  1.1261  0.4857 -0.0422
  876MOL0     H18231   6.621  11.167   6.644  0.7102 -0.5831  0.3380
  876MOL0     H18232   6.805  11.280   6.765 -0.4225  1.8445  1.1760
  876MOL0     H18233   6.743  11.437   6.736  0.0568 -0.3131  1.2123
  876MOL0     H18234   6.819  11.258   6.504 -2.1580 -0.2595  0.6551
  876MOL0     H18235   6.787  11.428   6.515 -3.6109 -2.2274  1.1498
  876MOL0     H18236   7.021  11.277   6.650  0.9797  0.8138  0.0833
  876MOL0     H18237   6.990  11.450   6.655  1.0025 -0.5084  0.2779
  876MOL0     H18238   7.012  11.298   6.394 -1.6243  1.7970 -0.7155
  876MOL0     H18239   7.035  11.469   6.410  0.1028 -0.5693 -0.8252
  876MOL0     H18240   6.063  10.962   6.837  1.2358  0.5033 -0.6526
  876MOL0     H18241   5.882  10.911   7.029  2.5157 -0.9955  1.2734
  876MOL0     H18242   5.717  10.803   7.465  0.7751  1.9274  5.2620
  876MOL0     H18243   5.524  10.789   7.588 -0.8738 -2.0586 -1.6783
  876MOL0     H18244   3.990  10.109   8.484 -0.9127  1.6495  0.3849
  876MOL0     H18245   3.922  10.346   8.484 -0.5288  1.0127 -1.1208
  876MOL0     H18246   3.726  10.587   8.197 -0.1537  1.3209 -1.2953
  876MOL0     H18247   3.530  10.741   8.174  0.4371 -2.7984  1.1405
  876MOL0     H18248   3.639  11.074   8.139 -1.0014 -2.8104  1.5112
  876MOL0     H18249   3.567  11.177   8.261 -1.7157  2.6493 -2.6236
  876MOL0     H18250   3.357  11.167   8.165  0.3309 -2.6586  0.5431
  876MOL0     H18251   3.420  11.059   8.034 -1.8876  0.6816 -0.9883
  876MOL0     H18252   3.594  11.240   7.986  1.9594  0.9968  3.1264
  876MOL0     H18253   3.521  11.336   8.114 -2.8685 -2.9107  3.2960
  876MOL0     H18254   3.464  11.381   7.874  0.0924  0.2108  0.2484
  876MOL0     H18255   3.359  11.249   7.872  1.8615  0.1986 -1.2201
  876MOL0     H18256   3.106  11.511   8.073  0.7076  0.4625  2.7517
  876MOL0     H18257   3.719  11.028   8.424  1.4794 -0.0225  0.0955
  876MOL0     H18258   4.033  10.830   8.474  0.4493  1.2513  1.0811
  876MOL0     H18259   3.936  10.970   8.536  0.8027  0.0969  1.9579
  876MOL0     H18260   3.910  10.803   8.596  3.2481 -1.1600  0.5799
  877MOL0     O18261  10.081  10.063   2.731 -0.7615  0.5425  0.1150
  877MOL0     C18262  10.166  10.140   2.780 -0.0150  0.9093  0.2788
  877MOL0     O18263  10.224  10.236   2.706 -0.1172  0.4270  0.2427
  877MOL0     C18264  10.207  10.228   2.566 -0.6647 -0.7813  0.2123
  877MOL0     C18265  10.212  10.116   2.488  0.0277  0.2002  0.5498
  877MOL0     C18266  10.202  10.114   2.341 -0.0471 -0.0008 -0.1249
  877MOL0     C18267  10.171  10.231   2.276 -1.2832 -1.1230  1.2845
  877MOL0     O18268  10.172  10.256   2.137  0.6261 -0.1517  0.3328
  877MOL0     C18269  10.249  10.166   2.055 -0.0915 -0.5132 -0.1860
  877MOL0     C18270  10.193  10.032   2.009  0.5029  0.5127  0.4130
  877MOL0     C18271  10.300   9.920   1.974  0.7992 -0.2994 -0.5144
  877MOL0     C18272  10.223   9.780   1.954 -0.1574 -0.8835 -0.0950
  877MOL0     C18273  10.313   9.657   1.923  0.4502 -0.4836 -0.6715
  877MOL0     C18274  10.229   9.529   1.916 -0.0876  0.2203  0.1849
  877MOL0     C18275  10.309   9.430   1.821 -0.5265 -0.1333  0.5158
  877MOL0     C18276  10.221   9.304   1.809  0.1326  0.6845  1.3991
  877MOL0     N18277  10.209   9.223   1.932  0.9829  0.5155  0.6570
  877MOL0     C18278  10.115   9.246   2.030  0.9334  0.1358  0.1707
  877MOL0     C18279  10.128   9.146   2.118  0.6628 -0.3829  1.0366
  877MOL0     C18280  10.044   9.125   2.239  0.8176  0.9935 -1.1942
  877MOL0     C18281  10.120   9.174   2.366 -1.0288  0.3481 -0.3412
  877MOL0     C18282  10.021   9.218   2.480  0.6447 -0.0609  0.7152
  877MOL0     C18283  10.116   9.295   2.586 -0.4300 -0.4249  0.1422
  877MOL0     O18284  10.038   9.391   2.666 -0.2778  0.1129 -0.4120
  877MOL0     C18285  10.106   9.469   2.762 -0.2457  0.3190  0.2380
  877MOL0     C18286  10.023   9.544   2.839 -0.6008 -0.2080 -0.5624
  877MOL0     C18287  10.087   9.637   2.926  0.3695 -0.3073 -0.0912
  877MOL0     C18288  10.229   9.634   2.944  0.0528 -0.1899 -0.1953
  877MOL0     C18289  10.296   9.707   3.053 -0.5992 -0.3158 -1.3374
  877MOL0     O18290  10.429   9.690   3.073 -0.1196  0.7275  0.9575
  877MOL0     C18291  10.498   9.765   3.163 -0.0792 -0.1276  0.7794
  877MOL0     C18292  10.476   9.896   3.191  0.3533 -0.5125 -1.0448
  877MOL0     C18293  10.559   9.978   3.274 -0.7148  0.2581 -0.2721
  877MOL0     C18294  10.654   9.904   3.348 -1.5266  0.4203  0.7553
  877MOL0     O18295  10.749   9.964   3.428  0.0390  0.6564 -0.3323
  877MOL0     C18296  10.785  10.103   3.418 -0.2719 -0.2337  0.5064
  877MOL0     C18297  10.934  10.122   3.426 -0.2386  1.3843  0.2114
  877MOL0     C18298  10.999  10.048   3.535 -0.8450 -0.2509 -0.5012
  877MOL0     C18299  11.148  10.077   3.554  0.5198 -0.6070 -0.4737
  877MOL0     C18300  11.192  10.096   3.689  0.8873 -0.0340  0.6076
  877MOL0     C18301  11.341  10.136   3.688 -0.7498  0.0435 -0.2901
  877MOL0     C18302  11.429   9.998   3.676 -0.8602 -0.3704 -0.1207
  877MOL0     C18303  11.571  10.042   3.672  0.1310 -0.2429 -0.1203
  877MOL0    Cl18304  11.648   9.926   3.782 -0.0595  0.2259 -0.0902
  877MOL0     C18305  10.673   9.769   3.327  1.2186 -0.1679  0.3080
  877MOL0     C18306  10.596   9.699   3.238  0.4997 -1.2244  0.6711
  877MOL0     O18307  10.225   9.768   3.132 -0.0882  0.3755 -0.4740
  877MOL0     C18308  10.309   9.553   2.861 -0.2535  0.0485 -0.1950
  877MOL0     C18309  10.250   9.462   2.779  0.0900 -0.4673  0.3179
  877MOL0     N18310  10.225   9.057   2.071  0.3408 -0.3849  0.0529
  877MOL0     N18311  10.265   9.098   1.956  0.0971 -0.5384  0.4995
  877MOL0     C18312  10.150  10.340   2.360  0.4676 -1.0081  1.0261
  877MOL0     C18313  10.178  10.345   2.493 -0.7794 -0.5639 -0.0893
  877MOL0     C18314  10.203  10.130   2.925 -0.2838  0.5768 -0.0793
  877MOL0     C18315  10.108  10.066   3.006  1.1611 -0.6254  0.6333
  877MOL0     C18316  10.111  10.086   3.143  0.3808 -0.0030  0.5251
  877MOL0     C18317  10.220  10.149   3.209  0.7225  1.2484 -0.2208
  877MOL0     O18318  10.224  10.157   3.345  0.2148 -0.2431 -0.1865
  877MOL0     C18319  10.100  10.201   3.405 -1.3001  0.6635  0.3023
  877MOL0     C18320  10.141  10.310   3.507  0.3401  1.0480 -0.1456
  877MOL0     C18321  10.123  10.458   3.455  0.2305  0.1011  0.4801
  877MOL0     C18322   9.977  10.497   3.418 -0.2425 -0.2048  0.6075
  877MOL0     C18323   9.885  10.492   3.537 -0.0894 -0.5604  0.3149
  877MOL0     C18324   9.803  10.481   3.632  0.1588 -0.8664  0.5403
  877MOL0     C18325  10.322  10.207   3.129  0.2974  0.1414 -0.1533
  877MOL0     C18326  10.306  10.206   2.985  0.5040  0.0878  0.5293
  877MOL0     C18327  10.401  10.298   2.907 -1.2096  0.0514 -0.4950
  877MOL0     H18328  10.242  10.024   2.537  2.1414  0.5326 -0.0174
  877MOL0     H18329  10.227  10.019   2.294 -0.2830 -0.7565  1.2245
  877MOL0     H18330  10.276  10.222   1.965 -0.2478 -0.8573 -0.4454
  877MOL0     H18331  10.342  10.142   2.107 -1.2665 -2.3708  1.1686
  877MOL0     H18332  10.116  10.057   1.936 -2.2635 -1.5437  2.4023
  877MOL0     H18333  10.132   9.994   2.091 -0.2946  0.0773 -0.3677
  877MOL0     H18334  10.373   9.907   2.054  0.1371 -0.1938  0.1203
  877MOL0     H18335  10.353   9.941   1.881  1.2042 -0.5232 -0.3360
  877MOL0     H18336  10.169   9.768   2.049  2.9076  1.1936  2.1407
  877MOL0     H18337  10.143   9.796   1.881 -1.2213  0.3619  1.2578
  877MOL0     H18338  10.346   9.672   1.820 -2.0489  2.0912 -1.2055
  877MOL0     H18339  10.390   9.636   1.998 -0.5876  1.2633  0.9725
  877MOL0     H18340  10.229   9.491   2.019 -2.9130  3.1815  1.4373
  877MOL0     H18341  10.124   9.543   1.888  0.4775  0.3490 -2.0910
  877MOL0     H18342  10.411   9.410   1.854  0.1193 -0.2504 -1.4146
  877MOL0     H18343  10.316   9.464   1.717 -0.9998 -1.6361 -0.0326
  877MOL0     H18344  10.120   9.331   1.778  0.7404  4.5539  2.1944
  877MOL0     H18345  10.277   9.241   1.739 -0.7193  2.3915 -0.9546
  877MOL0     H18346  10.046   9.330   2.035  3.1397  1.9635  1.2500
  877MOL0     H18347   9.944   9.166   2.225 -1.1804 -3.0320 -0.0319
  877MOL0     H18348  10.017   9.020   2.251  3.1964  0.0826 -2.8439
  877MOL0     H18349  10.190   9.098   2.402  0.4882  0.4683 -2.8042
  877MOL0     H18350  10.172   9.261   2.325 -3.7335  2.6812  0.9090
  877MOL0     H18351   9.979   9.128   2.527 -1.8059  1.0500  0.8111
  877MOL0     H18352   9.941   9.282   2.442  1.6093  0.7596  0.0196
  877MOL0     H18353  10.190   9.354   2.531 -1.4854 -0.6557 -1.6310
  877MOL0     H18354  10.160   9.213   2.643  0.3523 -1.7690 -2.2496
  877MOL0     H18355   9.916   9.540   2.824 -0.2680 -0.5864 -3.3123
  877MOL0     H18356  10.021   9.688   2.995 -1.2851  2.0894 -3.1482
  877MOL0     H18357  10.395   9.948   3.142 -0.3418 -0.3397  0.2452
  877MOL0     H18358  10.549  10.084   3.297  2.0704  1.1135 -2.3985
  877MOL0     H18359  10.741  10.140   3.325  4.3879  0.2615 -1.7875
  877MOL0     H18360  10.753  10.159   3.505  0.7298 -0.5653  1.1024
  877MOL0     H18361  10.966  10.092   3.325  0.3901 -0.7393  0.9831
  877MOL0     H18362  10.959  10.229   3.425  2.5570  0.8122 -0.2778
  877MOL0     H18363  10.947  10.072   3.629 -0.9169  0.0923 -0.6270
  877MOL0     H18364  10.983   9.941   3.518 -1.7899 -0.5059  1.6401
  877MOL0     H18365  11.154  10.169   3.495 -2.6274 -0.6076 -0.9748
  877MOL0     H18366  11.208   9.995   3.513 -0.4495 -0.6471 -1.8678
  877MOL0     H18367  11.181  10.015   3.761 -1.0640 -0.8898 -0.5878
  877MOL0     H18368  11.134  10.185   3.715 -0.3361 -0.4386 -0.6332
  877MOL0     H18369  11.359  10.199   3.600 -2.6773  0.8412 -0.1659
  877MOL0     H18370  11.380  10.180   3.781  1.0708 -0.0617 -0.9636
  877MOL0     H18371  11.396   9.936   3.593 -3.6751  0.6856  0.0855
  877MOL0     H18372  11.419   9.936   3.765 -0.3536  1.7759  1.5269
  877MOL0     H18373  11.611  10.026   3.572  1.2563 -0.7248  0.3861
  877MOL0     H18374  11.586  10.147   3.699  2.8700 -0.8369  1.0105
  877MOL0     H18375  10.754   9.725   3.384  1.1452  1.2419  1.5513
  877MOL0     H18376  10.609   9.593   3.218 -1.1843 -1.1826 -0.9256
  877MOL0     H18377  10.416   9.556   2.879 -0.6420  3.1341  2.7953
  877MOL0     H18378  10.313   9.388   2.730 -0.8026 -0.1441 -1.3970
  877MOL0     H18379  10.129  10.428   2.300 -1.5727 -2.7342 -1.0046
  877MOL0     H18380  10.194  10.433   2.554 -0.4802 -1.2612  0.8818
  877MOL0     H18381  10.031  10.003   2.964 -1.4651  0.2297  3.7567
  877MOL0     H18382  10.022  10.064   3.202 -0.9034  0.6097 -1.0935
  877MOL0     H18383  10.046  10.129   3.468 -2.4440  1.4635  0.2605
  877MOL0     H18384  10.022  10.241   3.340 -1.7834  1.6701  1.4736
  877MOL0     H18385  10.243  10.300   3.546  2.2340  4.1449 -3.5505
  877MOL0     H18386  10.065  10.313   3.585 -0.4952  3.4729 -0.9659
  877MOL0     H18387  10.189  10.470   3.369 -1.9611 -0.5522 -1.3941
  877MOL0     H18388  10.163  10.522   3.534 -3.0800  1.0790  1.5106
  877MOL0     H18389   9.977  10.598   3.375  0.2917  0.3620  1.8939
  877MOL0     H18390   9.930  10.435   3.342 -0.3063  2.6206 -1.8593
  877MOL0     H18391   9.752  10.482   3.726  1.9614 -0.3303  1.5591
  877MOL0     H18392  10.396  10.271   3.176 -2.0259  1.2394  2.2557
  877MOL0     H18393  10.476  10.249   2.843 -1.0306  0.6819 -0.7839
  877MOL0     H18394  10.352  10.366   2.836 -2.1129  0.7208  0.7476
  877MOL0     H18395  10.450  10.364   2.979  0.6723  0.4572 -2.0419
  878MOL0     O18396   7.330  10.710   5.982 -0.2830 -0.6932  0.6904
  878MOL0     C18397   7.308  10.615   5.909  0.1353  0.5309  1.1007
  878MOL0     O18398   7.395  10.561   5.813 -0.7472  0.1127 -0.3082
  878MOL0     C18399   7.520  10.623   5.796  0.1442 -0.6752 -0.2350
  878MOL0     C18400   7.630  10.540   5.796  0.5619 -0.1282  0.6130
  878MOL0     C18401   7.748  10.606   5.777 -0.1719  0.5387  0.5179
  878MOL0     C18402   7.764  10.749   5.759 -0.4113 -0.4151 -1.4790
  878MOL0     O18403   7.896  10.796   5.750 -0.0542  0.1871  0.7029
  878MOL0     C18404   7.919  10.909   5.661 -0.1215  0.6174 -0.3579
  878MOL0     C18405   7.943  11.034   5.754  0.4095  0.7401 -0.1325
  878MOL0     C18406   7.964  11.151   5.653 -0.7170  0.3081 -0.6929
  878MOL0     C18407   7.974  11.290   5.723 -0.5739  0.4650  0.8915
  878MOL0     C18408   8.106  11.298   5.788  0.2684  0.4255 -1.1903
  878MOL0     C18409   8.123  11.434   5.844 -0.7820 -0.6656  1.0782
  878MOL0     C18410   8.252  11.435   5.925 -0.7410 -0.8307 -0.0211
  878MOL0     C18411   8.268  11.578   5.984 -0.0607 -0.5000 -0.2916
  878MOL0     N18412   8.414  11.598   6.000  0.5756  0.3403 -0.0328
  878MOL0     C18413   8.489  11.538   6.098 -0.0042 -0.3443  0.3157
  878MOL0     C18414   8.615  11.549   6.060  0.0227 -0.7928  0.5862
  878MOL0     C18415   8.736  11.492   6.125  0.1896 -0.3737  0.1575
  878MOL0     C18416   8.887  11.531   6.086  0.4454  0.2517 -0.6574
  878MOL0     C18417   8.912  11.686   6.066 -0.4864  0.3885 -0.9884
  878MOL0     C18418   9.061  11.729   6.063  0.4130 -0.0612 -0.4020
  878MOL0     O18419   9.116  11.678   5.940 -0.1917  0.4463 -0.1759
  878MOL0     C18420   9.252  11.695   5.940  0.5318 -0.0424 -0.0621
  878MOL0     C18421   9.335  11.765   6.024  0.1080 -0.2098  0.5842
  878MOL0     C18422   9.471  11.773   5.995  0.1409  0.0743  0.6044
  878MOL0     C18423   9.538  11.728   5.869  0.5128  0.5501 -0.3436
  878MOL0     C18424   9.681  11.752   5.849  0.4139 -0.0726 -0.5134
  878MOL0     O18425   9.733  11.696   5.742  0.4339 -0.3030  0.0714
  878MOL0     C18426   9.863  11.737   5.705 -0.5742  0.2921  0.7111
  878MOL0     C18427   9.885  11.867   5.668  0.3591 -0.2714  1.0173
  878MOL0     C18428  10.004  11.906   5.603  0.4903 -0.0843  0.0472
  878MOL0     C18429  10.116  11.820   5.582 -0.8951  0.2426 -0.2221
  878MOL0     O18430  10.228  11.876   5.526 -0.4654 -0.4682  0.2322
  878MOL0     C18431  10.230  11.879   5.383 -0.5516 -0.0970  0.5622
  878MOL0     C18432  10.298  11.743   5.334  0.3195 -0.4574  0.2748
  878MOL0     C18433  10.304  11.730   5.176 -0.2552 -0.1768  0.1780
  878MOL0     C18434  10.163  11.693   5.120 -0.5963 -0.5748  0.6041
  878MOL0     C18435  10.167  11.690   4.966  0.4677 -0.7380  0.4749
  878MOL0     C18436  10.021  11.721   4.926 -0.3021 -0.4252 -0.0008
  878MOL0     C18437  10.003  11.711   4.764  0.0902 -0.2198 -0.3867
  878MOL0     C18438  10.018  11.565   4.717 -1.1532 -0.6613 -0.8487
  878MOL0    Cl18439   9.942  11.549   4.553  0.1388  0.2925 -0.0836
  878MOL0     C18440  10.093  11.683   5.632 -0.6121 -0.1585 -0.7347
  878MOL0     C18441   9.971  11.648   5.689 -0.6626  0.1543 -0.3549
  878MOL0     O18442   9.749  11.813   5.936  0.6622 -0.1790 -0.3292
  878MOL0     C18443   9.447  11.656   5.789 -0.5686  0.2779  0.6575
  878MOL0     C18444   9.309  11.639   5.823  0.0262 -0.9566 -0.5640
  878MOL0     N18445   8.618  11.628   5.942  0.6647 -1.3705  0.1695
  878MOL0     N18446   8.498  11.659   5.907 -0.0819 -0.2063  0.3933
  878MOL0     C18447   7.656  10.832   5.760  1.1605 -0.6405  0.3380
  878MOL0     C18448   7.529  10.761   5.778 -0.4006 -0.2017 -0.2305
  878MOL0     C18449   7.184  10.545   5.939 -1.2769 -0.3857  0.2918
  878MOL0     C18450   7.135  10.527   6.063 -0.2877 -0.4692 -1.0337
  878MOL0     C18451   7.036  10.436   6.085  0.1369  0.8532 -0.6485
  878MOL0     C18452   6.974  10.354   5.983  0.5234 -0.9170 -0.2311
  878MOL0     O18453   6.875  10.266   6.019 -0.4409 -0.3446 -0.0722
  878MOL0     C18454   6.771  10.228   5.936  0.8357  0.7665 -0.5373
  878MOL0     C18455   6.800  10.097   5.863 -0.1031  0.3885 -0.0122
  878MOL0     C18456   6.761  10.107   5.717  0.2160 -0.0058  0.4691
  878MOL0     C18457   6.826  10.006   5.619  0.3584  0.1119 -0.0008
  878MOL0     C18458   6.786  10.028   5.482 -0.4530 -0.1519 -0.7661
  878MOL0     C18459   6.762  10.032   5.370  0.9157  0.0011  0.0966
  878MOL0     C18460   7.020  10.386   5.851  0.4772 -0.2401 -0.7125
  878MOL0     C18461   7.117  10.482   5.826  0.0491  0.1216 -0.6244
  878MOL0     C18462   7.148  10.498   5.680  0.6564  0.1003  0.1914
  878MOL0     H18463   7.618  10.434   5.818  2.0124 -0.3750  0.3532
  878MOL0     H18464   7.841  10.551   5.781 -0.3838  0.1147 -0.2451
  878MOL0     H18465   8.010  10.888   5.603  1.0495 -1.2105  1.9564
  878MOL0     H18466   7.831  10.922   5.598 -1.1360 -0.1613  0.8502
  878MOL0     H18467   8.027  11.017   5.822  1.5126  0.1424 -1.5908
  878MOL0     H18468   7.849  11.055   5.807  0.0231  0.6946 -0.7905
  878MOL0     H18469   7.870  11.152   5.596 -2.0909  1.0844  1.4601
  878MOL0     H18470   8.054  11.132   5.595  0.2171 -3.9093  1.7160
  878MOL0     H18471   7.968  11.361   5.640  2.1046  1.0187  1.1049
  878MOL0     H18472   7.894  11.300   5.798 -0.7120 -2.9608  1.3657
  878MOL0     H18473   8.121  11.216   5.859  0.0772  1.2579 -0.1706
  878MOL0     H18474   8.183  11.275   5.714 -1.0762 -5.5167 -1.2354
  878MOL0     H18475   8.121  11.500   5.757 -0.0376 -1.9899  0.0231
  878MOL0     H18476   8.034  11.446   5.906 -2.7020 -3.1288 -1.0300
  878MOL0     H18477   8.336  11.401   5.865  1.2800  2.7826  0.4496
  878MOL0     H18478   8.239  11.369   6.012 -0.5264  1.5242  1.9155
  878MOL0     H18479   8.212  11.656   5.932 -4.5694 -2.0105  1.7544
  878MOL0     H18480   8.221  11.569   6.082 -1.0200 -1.1301 -0.7883
  878MOL0     H18481   8.448  11.476   6.177  0.0401  1.1311  1.5497
  878MOL0     H18482   8.722  11.516   6.231 -0.6737 -2.3603  0.5458
  878MOL0     H18483   8.726  11.383   6.125  0.3638 -0.4061 -0.9217
  878MOL0     H18484   8.953  11.499   6.167 -0.3902  0.2116  0.0207
  878MOL0     H18485   8.904  11.470   5.996 -1.0455 -2.3575  0.6884
  878MOL0     H18486   8.859  11.729   6.151 -0.9950 -4.1147  1.2698
  878MOL0     H18487   8.882  11.724   5.968 -0.6569 -0.0397 -1.1054
  878MOL0     H18488   9.108  11.693   6.155 -0.0917  0.9078  0.2568
  878MOL0     H18489   9.059  11.839   6.067  2.1701  0.0155  3.9687
  878MOL0     H18490   9.299  11.828   6.105  1.4673  1.5680 -0.1077
  878MOL0     H18491   9.536  11.818   6.069  1.1723 -0.5705  0.1159
  878MOL0     H18492   9.806  11.941   5.681  2.6216  2.4940  0.0756
  878MOL0     H18493  10.019  12.010   5.576 -0.2715 -0.1108 -0.4921
  878MOL0     H18494  10.133  11.910   5.344  0.5782  0.2217 -2.2039
  878MOL0     H18495  10.304  11.951   5.347  0.3145 -1.8772 -1.4324
  878MOL0     H18496  10.402  11.739   5.370  0.1719 -1.7830  0.6035
  878MOL0     H18497  10.252  11.653   5.376  1.3723 -1.3885 -0.4924
  878MOL0     H18498  10.340  11.827   5.143  1.8634 -0.9280  0.1196
  878MOL0     H18499  10.382  11.660   5.143  0.9550  0.9432  0.5987
  878MOL0     H18500  10.100  11.770   5.165  1.5927  0.8165  1.4902
  878MOL0     H18501  10.127  11.601   5.167  0.2746 -0.2018  2.0913
  878MOL0     H18502  10.185  11.591   4.923 -0.9965 -1.0323  0.4856
  878MOL0     H18503  10.236  11.764   4.927 -2.9417  2.6828  0.3774
  878MOL0     H18504   9.962  11.642   4.974  4.6533 -2.6948  3.1460
  878MOL0     H18505   9.990  11.820   4.961  1.6255  1.3460 -2.8858
  878MOL0     H18506  10.088  11.767   4.724  2.9680 -2.2348  2.4353
  878MOL0     H18507   9.900  11.741   4.744  0.0251 -1.8104 -2.8365
  878MOL0     H18508  10.125  11.546   4.714 -0.4840  2.4973 -0.2704
  878MOL0     H18509   9.969  11.497   4.786 -2.6304  0.7474 -0.4429
  878MOL0     H18510  10.181  11.623   5.613  0.1432  0.4877  0.5437
  878MOL0     H18511   9.969  11.540   5.703 -1.4230  0.0105 -1.4343
  878MOL0     H18512   9.482  11.614   5.695 -2.0611  0.5049 -0.0280
  878MOL0     H18513   9.245  11.574   5.764 -0.5863 -1.9116  1.0701
  878MOL0     H18514   7.664  10.940   5.768 -2.7383 -0.2821  1.1819
  878MOL0     H18515   7.433  10.811   5.773 -1.0770 -0.8997  3.3573
  878MOL0     H18516   7.181  10.584   6.143 -2.2683  0.5729 -0.5733
  878MOL0     H18517   6.995  10.429   6.185 -1.3378 -0.7153 -1.2970
  878MOL0     H18518   6.758  10.310   5.864 -1.2549  0.4264 -0.5980
  878MOL0     H18519   6.679  10.216   5.994  0.8066  0.2278 -0.6883
  878MOL0     H18520   6.758  10.010   5.914  4.1832 -1.3610  0.9471
  878MOL0     H18521   6.909  10.095   5.856 -0.0135  2.7264 -0.2670
  878MOL0     H18522   6.781  10.208   5.681  1.8199  0.0344  1.3856
  878MOL0     H18523   6.654  10.085   5.709  0.5707 -3.8126  2.9680
  878MOL0     H18524   6.934  10.023   5.624 -0.0107  3.1373 -0.3940
  878MOL0     H18525   6.802   9.906   5.657 -0.0094  0.4968  0.8160
  878MOL0     H18526   6.747  10.048   5.265 -3.7253 -0.5890  0.4447
  878MOL0     H18527   6.968  10.332   5.773 -0.2874 -0.5572 -0.0137
  878MOL0     H18528   7.205  10.415   5.637 -0.1835 -1.1424  1.3828
  878MOL0     H18529   7.056  10.502   5.622 -0.9231 -1.3683  2.4226
  878MOL0     H18530   7.203  10.591   5.665  1.8976 -0.7432 -0.7348
  879MOL0     O18531  10.797   3.790   2.574  0.4000 -0.0525 -0.4552
  879MOL0     C18532  10.854   3.780   2.687  0.0939  0.0701  0.2507
  879MOL0     O18533  10.992   3.748   2.706 -0.6092  0.1091  0.3961
  879MOL0     C18534  11.068   3.740   2.592  0.4248 -0.1721 -0.3216
  879MOL0     C18535  11.182   3.818   2.586 -0.5558  0.5782 -0.1323
  879MOL0     C18536  11.269   3.788   2.486 -0.7571 -0.1019 -1.1043
  879MOL0     C18537  11.248   3.679   2.397  0.0312 -0.0333  0.0997
  879MOL0     O18538  11.330   3.630   2.300  0.0987 -0.0960 -0.7336
  879MOL0     C18539  11.462   3.665   2.325  0.1150 -0.2310  0.0170
  879MOL0     C18540  11.545   3.598   2.217 -0.0034 -0.0012  0.0756
  879MOL0     C18541  11.693   3.616   2.249  0.1603  0.9309  0.0904
  879MOL0     C18542  11.786   3.517   2.178  0.3034 -0.0578 -0.1387
  879MOL0     C18543  11.937   3.546   2.203 -0.4981 -0.1087 -0.8199
  879MOL0     C18544  12.025   3.425   2.200  0.3278 -0.3510  0.0023
  879MOL0     C18545  12.176   3.457   2.216 -0.0140 -0.8694 -0.3266
  879MOL0     C18546  12.249   3.332   2.214  0.6046  0.3227  0.3446
  879MOL0     N18547  12.392   3.361   2.184  0.3644 -0.6175 -0.6453
  879MOL0     C18548  12.475   3.255   2.178 -0.1839  0.3324  0.1982
  879MOL0     C18549  12.598   3.305   2.209 -0.8848 -0.7876 -0.6448
  879MOL0     C18550  12.727   3.226   2.225 -0.3499  0.4523 -0.2779
  879MOL0     C18551  12.740   3.159   2.371  0.8739  0.8366  0.1733
  879MOL0     C18552  12.616   3.109   2.451 -0.8804 -0.5983 -0.2841
  879MOL0     C18553  12.575   2.971   2.410  0.2286  0.0904  0.6465
  879MOL0     O18554  12.564   2.950   2.260 -0.4259  0.1075 -0.9749
  879MOL0     C18555  12.523   2.829   2.213  0.4876  0.5136  0.4898
  879MOL0     C18556  12.513   2.717   2.289  0.5518  0.4413 -0.2527
  879MOL0     C18557  12.467   2.596   2.232 -0.1223  0.1250 -0.2276
  879MOL0     C18558  12.429   2.591   2.096 -0.1099 -0.2561  0.5364
  879MOL0     C18559  12.397   2.470   2.021  0.7392 -0.1117 -0.6693
  879MOL0     O18560  12.360   2.488   1.885  0.3058  0.1672 -0.4660
  879MOL0     C18561  12.351   2.376   1.800 -0.7601  0.0109 -0.0669
  879MOL0     C18562  12.244   2.370   1.718 -0.3154 -0.7738  0.5599
  879MOL0     C18563  12.223   2.265   1.636 -0.4938 -1.0716  0.4743
  879MOL0     C18564  12.314   2.158   1.636 -0.7903 -0.2702  0.1097
  879MOL0     O18565  12.298   2.040   1.571  0.5202  0.4295 -0.4536
  879MOL0     C18566  12.184   2.007   1.486 -0.2522 -0.0762  1.0148
  879MOL0     C18567  12.054   1.969   1.558  0.8282  0.0394  0.1897
  879MOL0     C18568  12.075   1.864   1.655 -0.3303 -0.7117 -0.9725
  879MOL0     C18569  12.097   1.730   1.581 -0.5011 -0.9994 -0.1566
  879MOL0     C18570  12.130   1.605   1.663  0.3406 -0.9261 -0.4547
  879MOL0     C18571  12.176   1.473   1.573  0.1512 -1.3750 -0.3487
  879MOL0     C18572  12.148   1.347   1.656  0.3727  0.0194  0.7074
  879MOL0     C18573  12.242   1.332   1.773 -0.3239 -1.1419 -0.1772
  879MOL0    Cl18574  12.224   1.181   1.867  0.0178  0.0630 -0.4502
  879MOL0     C18575  12.426   2.162   1.710  0.6847  0.2960  0.0966
  879MOL0     C18576  12.455   2.275   1.789  0.0970 -0.0569  0.0088
  879MOL0     O18577  12.405   2.357   2.072 -0.0178  0.1513 -0.0617
  879MOL0     C18578  12.449   2.707   2.018  0.1140  0.3288 -0.3356
  879MOL0     C18579  12.494   2.820   2.080 -0.7232 -0.3657 -0.3244
  879MOL0     N18580  12.593   3.445   2.200  0.8206  0.7950  0.9500
  879MOL0     N18581  12.468   3.478   2.182 -0.1339  0.2815  0.1406
  879MOL0     C18582  11.124   3.604   2.405 -0.8394  0.4255  0.1059
  879MOL0     C18583  11.040   3.642   2.501 -0.4526 -0.4007  0.0446
  879MOL0     C18584  10.766   3.830   2.799 -1.1508 -0.1803  0.4316
  879MOL0     C18585  10.832   3.853   2.917 -0.4039 -0.0458 -0.7469
  879MOL0     C18586  10.769   3.892   3.032  0.0738 -0.0733 -0.6249
  879MOL0     C18587  10.629   3.891   3.043 -0.7064 -0.6122  0.1615
  879MOL0     O18588  10.576   3.904   3.171 -0.9129  1.2761 -0.4860
  879MOL0     C18589  10.577   4.043   3.214  0.1370 -0.2759 -1.0455
  879MOL0     C18590  10.515   4.054   3.354 -0.8070  0.1115 -0.2162
  879MOL0     C18591  10.372   4.006   3.362 -0.4932 -0.1839 -0.5788
  879MOL0     C18592  10.345   3.975   3.514 -0.8529  0.4645  1.1334
  879MOL0     C18593  10.194   3.951   3.535 -0.2295  0.0363 -1.0118
  879MOL0     C18594  10.071   3.945   3.548 -0.5214 -0.0468  0.4562
  879MOL0     C18595  10.556   3.859   2.928  0.4635  0.2949  0.3433
  879MOL0     C18596  10.624   3.827   2.808 -0.1095 -0.9930 -0.4083
  879MOL0     C18597  10.523   3.790   2.696  0.3427 -0.5867 -0.1392
  879MOL0     H18598  11.211   3.892   2.660  3.3112 -0.0531 -0.7972
  879MOL0     H18599  11.364   3.838   2.471  2.2246 -4.1622  1.9980
  879MOL0     H18600  11.487   3.771   2.315  1.8665 -0.7274 -1.5992
  879MOL0     H18601  11.503   3.630   2.421  0.8874  0.6217  0.0131
  879MOL0     H18602  11.516   3.656   2.129 -1.0088  0.2692  0.5658
  879MOL0     H18603  11.524   3.493   2.193  0.1405  0.0377 -0.2263
  879MOL0     H18604  11.703   3.603   2.358  2.4520  1.3824 -0.0257
  879MOL0     H18605  11.726   3.716   2.222  1.5382  0.5796  0.3851
  879MOL0     H18606  11.764   3.413   2.202 -1.4040 -0.4003 -2.8823
  879MOL0     H18607  11.765   3.514   2.071 -3.0889  0.3508  0.4107
  879MOL0     H18608  11.977   3.626   2.140 -2.7219  1.3399 -0.5328
  879MOL0     H18609  11.947   3.587   2.304 -0.2200 -3.0671  0.4503
  879MOL0     H18610  11.992   3.369   2.288  1.5403  0.4974  1.0462
  879MOL0     H18611  12.016   3.362   2.111 -1.7818  1.4976 -1.1952
  879MOL0     H18612  12.203   3.511   2.308  2.8529 -0.5494 -1.2666
  879MOL0     H18613  12.197   3.521   2.130 -2.5360 -3.1741 -2.8673
  879MOL0     H18614  12.231   3.283   2.310  1.1304 -0.1201  0.2170
  879MOL0     H18615  12.205   3.267   2.137 -0.8640 -0.8532  2.0951
  879MOL0     H18616  12.454   3.149   2.181  0.3085  0.2521  1.5918
  879MOL0     H18617  12.733   3.153   2.145  0.1396 -1.4324  1.4156
  879MOL0     H18618  12.810   3.294   2.202 -0.9911  1.1853 -0.4824
  879MOL0     H18619  12.814   3.079   2.375  1.1457  1.0698 -0.0570
  879MOL0     H18620  12.785   3.234   2.438  0.8288 -1.2997  2.7499
  879MOL0     H18621  12.527   3.170   2.433 -1.1134  0.5152  3.6270
  879MOL0     H18622  12.643   3.100   2.557  2.5660 -2.8858 -1.1724
  879MOL0     H18623  12.476   2.944   2.450  0.1596  0.8680  1.0112
  879MOL0     H18624  12.652   2.906   2.452  0.6824  0.8359  0.9906
  879MOL0     H18625  12.542   2.718   2.393 -1.4257 -0.1810  0.3626
  879MOL0     H18626  12.459   2.506   2.291  0.4221 -0.6632 -1.3101
  879MOL0     H18627  12.180   2.458   1.710  0.1249 -0.2124  2.6051
  879MOL0     H18628  12.134   2.261   1.575  0.2821  2.2171 -1.0886
  879MOL0     H18629  12.156   2.094   1.426  1.4913  0.1293  0.4670
  879MOL0     H18630  12.209   1.935   1.408 -0.5412  0.5770  0.3133
  879MOL0     H18631  12.021   2.061   1.606  0.1724 -0.5345  0.8621
  879MOL0     H18632  11.979   1.932   1.488 -0.4753  0.4942  1.3087
  879MOL0     H18633  12.155   1.890   1.725 -3.0413 -0.1342  2.1328
  879MOL0     H18634  11.989   1.852   1.721  0.4439  1.7531  0.6039
  879MOL0     H18635  12.186   1.733   1.517 -1.8223 -3.4444 -2.2921
  879MOL0     H18636  12.018   1.711   1.508 -1.5465  0.4115  0.5521
  879MOL0     H18637  12.039   1.575   1.716  1.3516 -0.1954  1.8344
  879MOL0     H18638  12.197   1.622   1.748 -1.0250 -0.2192  0.5410
  879MOL0     H18639  12.114   1.473   1.483  1.1616  0.0019 -1.0808
  879MOL0     H18640  12.281   1.482   1.544  0.5247  1.8542  1.4256
  879MOL0     H18641  12.158   1.260   1.590 -0.4503  0.2751  0.2325
  879MOL0     H18642  12.041   1.338   1.680 -0.2163  2.7818 -0.5103
  879MOL0     H18643  12.344   1.323   1.736  0.8181 -0.8288  2.7011
  879MOL0     H18644  12.243   1.421   1.837  1.4045 -2.2381  1.4190
  879MOL0     H18645  12.490   2.075   1.715  2.5074  1.6403  1.6252
  879MOL0     H18646  12.546   2.280   1.849 -1.4007 -0.3203  2.4587
  879MOL0     H18647  12.419   2.710   1.913  0.6042  1.1723 -0.4620
  879MOL0     H18648  12.502   2.899   2.006 -1.4293 -2.6442 -3.0043
  879MOL0     H18649  11.109   3.520   2.337  2.3652 -1.4035  1.4287
  879MOL0     H18650  10.941   3.596   2.505 -1.5940  2.0104  2.5896
  879MOL0     H18651  10.940   3.853   2.926 -0.2852 -0.5442 -2.0065
  879MOL0     H18652  10.818   3.931   3.121 -1.8585  3.0730 -0.7713
  879MOL0     H18653  10.522   4.108   3.146 -0.7358  0.1623  0.0296
  879MOL0     H18654  10.678   4.082   3.230  1.1261 -2.4010 -1.8268
  879MOL0     H18655  10.516   4.156   3.393 -0.7496 -1.1911  3.6674
  879MOL0     H18656  10.580   4.004   3.426 -1.4504  1.1991  1.1604
  879MOL0     H18657  10.364   3.922   3.293  1.1494 -0.2956 -0.6843
  879MOL0     H18658  10.297   4.081   3.340 -1.7661 -0.6932  1.6597
  879MOL0     H18659  10.409   3.897   3.556 -0.4388  0.3827  0.3556
  879MOL0     H18660  10.383   4.064   3.566  1.2006  0.2231  0.1273
  879MOL0     H18661   9.965   3.940   3.559 -0.6706 -0.2654 -0.8777
  879MOL0     H18662  10.448   3.857   2.927  0.3305 -4.4700 -0.3335
  879MOL0     H18663  10.553   3.693   2.655 -1.8661 -1.3203 -0.1036
  879MOL0     H18664  10.418   3.782   2.724  0.6412  1.7101  1.9345
  879MOL0     H18665  10.540   3.872   2.626 -0.3207 -1.1498 -0.9769
  880MOL0     O18666  10.032   9.949  10.610  0.8341  0.0211  1.3846
  880MOL0     C18667  10.066  10.064  10.637  0.0076  0.0521 -0.0251
  880MOL0     O18668  10.001  10.137  10.736  0.0220 -0.3386 -0.5519
  880MOL0     C18669   9.903  10.075  10.807  0.4506  1.0780  0.5423
  880MOL0     C18670   9.789  10.016  10.747  0.3200 -0.5400  0.0344
  880MOL0     C18671   9.690   9.952  10.823  0.4803  0.5592  0.1381
  880MOL0     C18672   9.692   9.953  10.959 -0.1732 -0.9580 -0.4175
  880MOL0     O18673   9.589   9.891  11.032 -0.1481 -0.3614  0.4487
  880MOL0     C18674   9.600   9.886  11.175 -0.0940  0.2354  0.1227
  880MOL0     C18675   9.492   9.802  11.232  0.1743  0.1331  0.4207
  880MOL0     C18676   9.480   9.660  11.160 -0.7194 -0.3532 -0.3507
  880MOL0     C18677   9.403   9.643  11.027 -0.3586 -0.1377  0.2202
  880MOL0     C18678   9.251   9.675  11.044  1.0311 -0.1692 -0.1808
  880MOL0     C18679   9.186   9.569  11.126  0.9865  0.3266 -1.2435
  880MOL0     C18680   9.034   9.604  11.127  0.8319  0.4192  0.3633
  880MOL0     C18681   8.950   9.504  11.211 -0.9077 -0.3843 -1.0683
  880MOL0     N18682   8.803   9.491  11.183 -0.6333 -0.9797  1.5459
  880MOL0     C18683   8.711   9.582  11.223  0.6371  0.8864 -0.2389
  880MOL0     C18684   8.594   9.568  11.145 -0.7324  1.0267 -0.2434
  880MOL0     C18685   8.468   9.653  11.152 -0.0315 -0.3057 -1.1090
  880MOL0     C18686   8.397   9.647  11.021  1.1128  0.6073  0.1215
  880MOL0     C18687   8.478   9.700  10.904  0.2148 -0.4051 -0.4240
  880MOL0     C18688   8.398   9.671  10.770 -0.3309  0.0773 -0.2950
  880MOL0     O18689   8.464   9.740  10.663 -0.2314  0.1335  0.1522
  880MOL0     C18690   8.415   9.722  10.534  0.5627 -0.1837 -0.4109
  880MOL0     C18691   8.358   9.609  10.488 -1.0218  0.1033 -0.3402
  880MOL0     C18692   8.301   9.600  10.363 -0.5373  0.2931 -0.5809
  880MOL0     C18693   8.317   9.702  10.273  0.7794 -0.0691  0.2480
  880MOL0     C18694   8.283   9.676  10.133  0.0832 -1.0561 -0.5554
  880MOL0     O18695   8.186   9.583  10.117  0.4013 -0.0943 -0.1777
  880MOL0     C18696   8.121   9.566   9.992  0.7284  0.1862 -0.4066
  880MOL0     C18697   8.071   9.660   9.906  0.3986  0.6609 -0.1634
  880MOL0     C18698   8.007   9.613   9.786  1.4450 -0.2620  0.4858
  880MOL0     C18699   8.004   9.474   9.755  0.2363  0.1635  0.7669
  880MOL0     O18700   7.935   9.416   9.647 -0.5744 -0.6718 -0.1929
  880MOL0     C18701   7.851   9.496   9.560 -0.0193 -0.5590  0.0985
  880MOL0     C18702   7.727   9.411   9.524 -0.7901  0.4441  0.4441
  880MOL0     C18703   7.660   9.458   9.385  0.7833  0.6164 -0.6664
  880MOL0     C18704   7.575   9.579   9.403 -0.4515 -1.1799  0.9369
  880MOL0     C18705   7.467   9.577   9.301  0.7098  0.3662  0.1552
  880MOL0     C18706   7.379   9.701   9.314 -0.2027 -0.2339  0.1872
  880MOL0     C18707   7.245   9.687   9.227 -0.1581 -0.6917 -0.6537
  880MOL0     C18708   7.164   9.821   9.220 -0.6352 -0.0840 -0.1222
  880MOL0    Cl18709   7.161   9.892   9.384  0.0463  0.5261  0.3909
  880MOL0     C18710   8.071   9.388   9.838  0.4123 -0.0940  0.6903
  880MOL0     C18711   8.131   9.428   9.956  0.3710 -0.3175  0.4093
  880MOL0     O18712   8.333   9.748  10.046  0.2365 -0.0704  0.5646
  880MOL0     C18713   8.399   9.810  10.310  0.4335  0.2182 -0.2980
  880MOL0     C18714   8.439   9.824  10.446 -0.3395  0.2249  0.0914
  880MOL0     N18715   8.623   9.462  11.059 -0.3692 -0.6655 -0.0275
  880MOL0     N18716   8.750   9.421  11.076  0.1596 -0.1119  0.2669
  880MOL0     C18717   9.794  10.017  11.020 -0.5407  0.0723 -1.0965
  880MOL0     C18718   9.903  10.072  10.947  0.4807 -0.1935 -0.3636
  880MOL0     C18719  10.179  10.128  10.577 -0.4512  0.2185  0.9562
  880MOL0     C18720  10.222  10.259  10.615  0.8280 -0.3604 -0.1360
  880MOL0     C18721  10.332  10.327  10.568  0.5966 -0.1021  0.1132
  880MOL0     C18722  10.422  10.266  10.480 -1.0105 -0.8931  0.3406
  880MOL0     O18723  10.542  10.332  10.447  0.0859 -0.7381  0.1638
  880MOL0     C18724  10.644  10.271  10.359 -0.3399  0.5351 -0.7790
  880MOL0     C18725  10.734  10.202  10.468  0.6703  1.0913  0.0003
  880MOL0     C18726  10.848  10.120  10.413 -0.1456 -0.0303  0.2386
  880MOL0     C18727  10.948  10.053  10.518 -0.0384 -0.5669 -0.6358
  880MOL0     C18728  11.004  10.165  10.585 -0.2987  0.3560 -0.1175
  880MOL0     C18729  11.051  10.233  10.670 -0.9012 -0.4565 -0.9631
  880MOL0     C18730  10.374  10.143  10.423 -0.0665  0.1944  0.0008
  880MOL0     C18731  10.257  10.074  10.465  0.3656 -0.7583  0.0618
  880MOL0     C18732  10.221   9.950  10.388 -0.5487  0.1622  0.0199
  880MOL0     H18733   9.772   9.997  10.641 -0.3800 -1.2550  0.2704
  880MOL0     H18734   9.617   9.899  10.763 -0.7365  4.6779 -2.4699
  880MOL0     H18735   9.698   9.845  11.204 -0.6552 -2.4434 -1.4740
  880MOL0     H18736   9.580   9.987  11.211 -0.4599  1.6564 -3.6806
  880MOL0     H18737   9.390   9.842  11.226 -1.3430 -3.5278 -3.5383
  880MOL0     H18738   9.519   9.783  11.336  0.0408  0.5375  0.5315
  880MOL0     H18739   9.439   9.593  11.236  1.5032 -0.4349  0.8978
  880MOL0     H18740   9.582   9.623  11.143 -0.7770  0.1824 -2.0023
  880MOL0     H18741   9.444   9.704  10.946 -0.8265 -2.1609 -1.6572
  880MOL0     H18742   9.423   9.537  11.005  2.4839  0.5329 -0.9203
  880MOL0     H18743   9.242   9.775  11.088  5.2995  0.4237 -0.2088
  880MOL0     H18744   9.210   9.673  10.943 -0.6106  1.2569  0.4177
  880MOL0     H18745   9.203   9.483  11.061  1.1381 -0.0090 -0.7600
  880MOL0     H18746   9.230   9.560  11.225 -1.6210 -1.4546 -0.1565
  880MOL0     H18747   8.993   9.596  11.025 -1.6844 -2.1654  1.4273
  880MOL0     H18748   9.020   9.703  11.171 -4.5398 -1.0450  2.7308
  880MOL0     H18749   8.995   9.405  11.194  0.1479  0.1018 -1.1952
  880MOL0     H18750   8.949   9.525  11.318  0.0207 -0.1878 -1.0839
  880MOL0     H18751   8.728   9.670  11.284 -1.7819  1.2802 -0.0452
  880MOL0     H18752   8.402   9.598  11.220  0.2994 -0.4114 -0.8748
  880MOL0     H18753   8.497   9.748  11.197  0.5924 -0.9594 -0.0772
  880MOL0     H18754   8.362   9.543  11.017  0.6310  0.5710  3.0355
  880MOL0     H18755   8.294   9.685  11.027  0.5669 -0.4971 -1.4355
  880MOL0     H18756   8.576   9.650  10.904 -0.4859 -1.8356  0.3795
  880MOL0     H18757   8.488   9.808  10.911 -3.9272  0.0651  0.5754
  880MOL0     H18758   8.300   9.716  10.786 -0.0757  1.3225 -1.9078
  880MOL0     H18759   8.393   9.564  10.750 -0.4020  0.1791 -0.8661
  880MOL0     H18760   8.342   9.522  10.551  1.4155 -2.1028 -2.5380
  880MOL0     H18761   8.244   9.508  10.356 -3.6796  2.0434 -0.1349
  880MOL0     H18762   8.068   9.765   9.932  2.7338  1.0891 -1.3960
  880MOL0     H18763   7.972   9.685   9.713 -0.8077  0.2698  1.9788
  880MOL0     H18764   7.813   9.582   9.615  0.0360  0.4543 -1.4003
  880MOL0     H18765   7.915   9.528   9.478  3.6824  0.1054  2.9847
  880MOL0     H18766   7.760   9.307   9.514 -1.1528  0.5593 -3.2590
  880MOL0     H18767   7.655   9.418   9.606 -0.7358  2.1161  0.3913
  880MOL0     H18768   7.737   9.484   9.313  0.8973  1.3327 -0.2931
  880MOL0     H18769   7.606   9.366   9.360  0.4165  1.0325 -1.4081
  880MOL0     H18770   7.629   9.674   9.402  1.1395 -2.0407  1.5108
  880MOL0     H18771   7.529   9.565   9.501  0.3988 -0.6351  1.4292
  880MOL0     H18772   7.398   9.493   9.309  0.1405  0.7414 -0.6889
  880MOL0     H18773   7.512   9.584   9.202  0.6281 -0.0941  0.0858
  880MOL0     H18774   7.363   9.699   9.423  2.7615 -1.6294  0.6887
  880MOL0     H18775   7.433   9.790   9.281 -0.3336 -0.7416 -1.4749
  880MOL0     H18776   7.173   9.617   9.270 -1.5016  0.6409 -0.6629
  880MOL0     H18777   7.264   9.640   9.130 -0.9949 -1.0657 -0.6449
  880MOL0     H18778   7.216   9.897   9.162 -3.0011  0.2216 -2.0286
  880MOL0     H18779   7.062   9.811   9.180 -0.0778 -1.0516 -1.3823
  880MOL0     H18780   8.067   9.281   9.823 -1.1572 -0.2184  1.8007
  880MOL0     H18781   8.181   9.357  10.022 -0.7063  0.0036  1.6254
  880MOL0     H18782   8.414   9.897  10.248 -0.9204  3.1783  3.1659
  880MOL0     H18783   8.484   9.920  10.471 -0.4985 -0.1772  2.0710
  880MOL0     H18784   9.809  10.035  11.126 -1.3597  0.7426 -1.0866
  880MOL0     H18785   9.993  10.103  11.000 -0.0939  1.7506 -0.4236
  880MOL0     H18786  10.163  10.322  10.682  1.6011  1.4939 -1.1179
  880MOL0     H18787  10.365  10.422  10.607  0.0790  0.2717 -0.3436
  880MOL0     H18788  10.696  10.353  10.308  0.2412  1.6882  1.4929
  880MOL0     H18789  10.600  10.189  10.302  0.6301 -1.3168  1.0215
  880MOL0     H18790  10.674  10.128  10.522  0.0563  0.5651 -1.3695
  880MOL0     H18791  10.766  10.278  10.540 -0.4612 -0.2521  2.0388
  880MOL0     H18792  10.902  10.175  10.336 -0.8911  0.4923  0.0738
  880MOL0     H18793  10.800  10.046  10.349  0.6766 -0.3590 -0.0135
  880MOL0     H18794  10.901   9.982  10.588 -2.9367  1.0565 -0.7942
  880MOL0     H18795  11.026   9.996  10.466  0.1958 -0.2105 -0.6776
  880MOL0     H18796  11.084  10.300  10.747 -0.8871  0.1390 -1.4743
  880MOL0     H18797  10.438  10.084  10.357 -0.9082 -1.0810  0.2941
  880MOL0     H18798  10.302   9.935  10.316  1.8101 -0.0029  2.5568
  880MOL0     H18799  10.220   9.864  10.455 -1.9604  0.1119 -0.0339
  880MOL0     H18800  10.125   9.961  10.337 -0.3351 -1.8034 -0.8857
  881MOL0     O18801   3.747   8.123   7.070 -0.0902 -0.1056 -0.0444
  881MOL0     C18802   3.735   8.238   7.116  0.3130 -0.3488  0.5182
  881MOL0     O18803   3.822   8.340   7.089  0.5209 -0.4707  0.1893
  881MOL0     C18804   3.921   8.330   6.998 -0.3532 -0.9299 -0.6052
  881MOL0     C18805   4.042   8.264   7.030  0.4342 -0.2152  0.1282
  881MOL0     C18806   4.147   8.253   6.943 -0.2842  0.1615 -0.1186
  881MOL0     C18807   4.151   8.346   6.838  0.1662 -0.2084  0.4238
  881MOL0     O18808   4.257   8.368   6.755 -0.5882 -0.3072  0.0311
  881MOL0     C18809   4.325   8.258   6.717 -1.0218  0.5455  0.2381
  881MOL0     C18810   4.408   8.308   6.598 -0.0006 -0.1632 -1.1763
  881MOL0     C18811   4.497   8.193   6.539 -0.4341 -0.2424  0.4676
  881MOL0     C18812   4.612   8.248   6.456 -0.6354  0.1850  0.3576
  881MOL0     C18813   4.679   8.139   6.361 -0.0824 -0.7298 -0.3761
  881MOL0     C18814   4.769   8.225   6.271 -0.7565  0.5229  0.9910
  881MOL0     C18815   4.810   8.141   6.148  0.5705  0.1230  0.7740
  881MOL0     C18816   4.695   8.134   6.041  1.0489  0.9315 -0.6483
  881MOL0     N18817   4.730   8.037   5.932 -0.3963  0.8282  0.5715
  881MOL0     C18818   4.819   8.065   5.831 -0.6282  0.2727 -1.1936
  881MOL0     C18819   4.849   7.945   5.778  0.6047 -0.4338  0.3218
  881MOL0     C18820   4.936   7.923   5.657  0.3564  1.1710  0.7711
  881MOL0     C18821   5.067   7.870   5.720 -0.5490  0.6264 -0.0572
  881MOL0     C18822   5.167   7.832   5.611 -0.6312 -0.5339 -0.2031
  881MOL0     C18823   5.222   7.953   5.534  0.0220 -0.1443  0.9121
  881MOL0     O18824   5.283   8.048   5.612  0.2979 -0.1317  0.1443
  881MOL0     C18825   5.414   8.080   5.593  0.1542  0.3980 -0.1243
  881MOL0     C18826   5.513   7.988   5.541  1.0230 -0.8218  0.2791
  881MOL0     C18827   5.652   8.026   5.528  0.4087  0.3934 -0.6418
  881MOL0     C18828   5.696   8.150   5.582 -0.5370 -0.2615 -0.1186
  881MOL0     C18829   5.834   8.196   5.568  0.4265  0.8577  0.7711
  881MOL0     O18830   5.905   8.132   5.467  0.8829  0.2580 -0.2449
  881MOL0     C18831   6.028   8.172   5.445 -0.1715  1.0355  0.0776
  881MOL0     C18832   6.133   8.093   5.502 -0.4279  0.2696  1.3825
  881MOL0     C18833   6.266   8.106   5.461 -0.8065  0.0150 -0.6997
  881MOL0     C18834   6.308   8.198   5.365 -0.3568  0.9945 -0.3330
  881MOL0     O18835   6.436   8.215   5.319  0.2704 -0.7536 -0.5523
  881MOL0     C18836   6.542   8.144   5.382 -0.8152 -0.9991  0.1517
  881MOL0     C18837   6.586   8.024   5.302 -1.2970 -0.2213 -0.3234
  881MOL0     C18838   6.675   8.056   5.182 -0.1199 -0.7793  1.0369
  881MOL0     C18839   6.819   8.083   5.209  0.0127 -0.1481 -0.9842
  881MOL0     C18840   6.909   8.103   5.081 -0.8439  0.1209  0.8828
  881MOL0     C18841   6.951   7.970   5.022 -0.2659  0.0534 -0.3884
  881MOL0     C18842   6.856   7.920   4.914 -0.1917 -0.0491 -0.2973
  881MOL0     C18843   6.834   7.770   4.911 -0.1095 -0.4224 -0.3438
  881MOL0    Cl18844   6.726   7.723   5.049 -0.0926  0.2960  0.7409
  881MOL0     C18845   6.207   8.280   5.313  0.3469 -0.0061 -0.7092
  881MOL0     C18846   6.065   8.263   5.351  0.1198 -0.4796 -0.4462
  881MOL0     O18847   5.861   8.295   5.632 -0.4061  0.0633 -0.6919
  881MOL0     C18848   5.602   8.247   5.637  1.3620 -0.2860 -0.3401
  881MOL0     C18849   5.462   8.208   5.635 -0.1632  0.4716  0.4602
  881MOL0     N18850   4.776   7.843   5.844 -0.2645  0.2138  0.5105
  881MOL0     N18851   4.706   7.907   5.924 -0.8940 -0.1482 -0.2476
  881MOL0     C18852   4.040   8.424   6.812 -0.5870 -0.5626  0.2061
  881MOL0     C18853   3.922   8.411   6.883  0.2243  0.4676  0.4391
  881MOL0     C18854   3.620   8.279   7.202 -0.0152  0.4529 -0.1133
  881MOL0     C18855   3.618   8.405   7.272 -0.4369  0.1616  0.2936
  881MOL0     C18856   3.521   8.447   7.354  0.6498 -0.2192 -0.2272
  881MOL0     C18857   3.401   8.375   7.367 -0.4658  0.4001  0.3742
  881MOL0     O18858   3.308   8.426   7.451  0.4558  0.9421  0.7651
  881MOL0     C18859   3.176   8.381   7.438 -0.0465 -0.3629 -0.1159
  881MOL0     C18860   3.093   8.506   7.490 -0.2563  0.8292 -0.2770
  881MOL0     C18861   2.943   8.470   7.467  0.2535  0.8095  0.2433
  881MOL0     C18862   2.853   8.593   7.460 -0.2312 -1.5881 -0.6246
  881MOL0     C18863   2.710   8.568   7.430  0.1755  0.2477  1.3781
  881MOL0     C18864   2.592   8.539   7.433 -0.0383 -0.5896 -0.1667
  881MOL0     C18865   3.397   8.255   7.297  0.4046  0.1499 -0.2477
  881MOL0     C18866   3.504   8.199   7.226 -0.3976 -0.5488  0.0415
  881MOL0     C18867   3.486   8.052   7.192  0.2230 -0.6539  0.0147
  881MOL0     H18868   4.041   8.192   7.111  1.9544 -0.2075  0.1721
  881MOL0     H18869   4.233   8.188   6.954 -0.6204 -0.1455  0.7561
  881MOL0     H18870   4.393   8.223   6.796  0.2788  3.1113  0.3616
  881MOL0     H18871   4.268   8.169   6.692  0.7183 -0.0803 -1.8080
  881MOL0     H18872   4.467   8.393   6.633 -1.4452  0.5773 -0.4132
  881MOL0     H18873   4.340   8.333   6.516 -2.5858 -0.0570  0.8501
  881MOL0     H18874   4.435   8.130   6.475 -1.0375 -2.6527  3.1682
  881MOL0     H18875   4.529   8.126   6.619  2.0821 -0.8254 -0.9415
  881MOL0     H18876   4.586   8.337   6.398  2.4721  0.6445 -0.5258
  881MOL0     H18877   4.690   8.283   6.525  0.0207 -1.0799  0.2800
  881MOL0     H18878   4.736   8.067   6.421  1.6796  1.1235  0.2705
  881MOL0     H18879   4.605   8.078   6.308 -0.3558 -2.2677  1.6219
  881MOL0     H18880   4.720   8.317   6.237 -2.1365 -0.4520  0.2075
  881MOL0     H18881   4.858   8.270   6.316  2.0303 -0.3371 -3.1319
  881MOL0     H18882   4.855   8.043   6.166  0.9655 -0.6438 -3.3697
  881MOL0     H18883   4.890   8.193   6.095  1.7918 -1.4432  1.0041
  881MOL0     H18884   4.603   8.091   6.082  1.4121  1.4361  0.7221
  881MOL0     H18885   4.654   8.227   6.002 -2.2494  0.6970  1.8524
  881MOL0     H18886   4.857   8.166   5.816 -1.0162  0.7358  0.6079
  881MOL0     H18887   4.896   7.850   5.586  3.6613  1.3317 -1.4818
  881MOL0     H18888   4.940   8.010   5.591 -1.8961 -0.1791 -1.3208
  881MOL0     H18889   5.104   7.949   5.786  1.3161 -0.3162  0.1044
  881MOL0     H18890   5.045   7.780   5.779 -1.7490 -0.4394 -2.0186
  881MOL0     H18891   5.112   7.777   5.535 -1.2311 -0.5621  0.2461
  881MOL0     H18892   5.260   7.785   5.645  0.2119  1.5380  0.5169
  881MOL0     H18893   5.134   8.000   5.489  1.9249  0.4529 -2.5086
  881MOL0     H18894   5.285   7.923   5.450 -0.9579  1.1192 -0.3273
  881MOL0     H18895   5.468   7.893   5.514 -1.0135  0.2625 -0.3267
  881MOL0     H18896   5.728   7.956   5.494 -0.8169 -0.9445 -0.7277
  881MOL0     H18897   6.114   8.011   5.570 -1.2940  0.1316  0.9831
  881MOL0     H18898   6.340   8.041   5.507 -1.1653  0.0640 -0.0497
  881MOL0     H18899   6.628   8.211   5.384 -0.9372 -0.6804 -2.2381
  881MOL0     H18900   6.519   8.140   5.489 -0.4465  0.6134  0.3128
  881MOL0     H18901   6.642   7.960   5.372 -1.5124 -0.4835 -0.3903
  881MOL0     H18902   6.500   7.968   5.264 -4.1062  1.4765  2.9702
  881MOL0     H18903   6.674   7.962   5.127 -1.3262 -0.4320  0.4345
  881MOL0     H18904   6.645   8.146   5.128 -1.2705 -2.3957 -1.1801
  881MOL0     H18905   6.849   7.997   5.270 -1.5151  0.4981  0.7769
  881MOL0     H18906   6.818   8.174   5.269 -1.5626 -3.5150  4.8829
  881MOL0     H18907   7.001   8.161   5.092  1.6684 -2.6950 -2.7220
  881MOL0     H18908   6.844   8.158   5.012 -1.9989  0.2745  2.0575
  881MOL0     H18909   7.054   7.957   4.987 -0.2469  0.8435 -0.6380
  881MOL0     H18910   6.955   7.888   5.095  0.3290 -0.6881 -1.2239
  881MOL0     H18911   6.898   7.949   4.818 -0.3289 -0.8880 -0.6255
  881MOL0     H18912   6.757   7.966   4.926 -1.2908 -2.4229  0.6429
  881MOL0     H18913   6.784   7.739   4.819 -2.5691  2.6751 -0.2203
  881MOL0     H18914   6.926   7.714   4.930  0.2140 -0.0383 -0.7556
  881MOL0     H18915   6.229   8.365   5.249  1.9639  0.9135  0.9636
  881MOL0     H18916   6.001   8.338   5.304  0.7810  0.2924 -0.1312
  881MOL0     H18917   5.640   8.340   5.677 -0.0588 -0.2468  1.0439
  881MOL0     H18918   5.382   8.272   5.670  0.8802  2.3772 -0.5149
  881MOL0     H18919   4.059   8.502   6.739 -0.3162  1.4818  2.3278
  881MOL0     H18920   3.836   8.475   6.861 -0.2740 -0.7878 -1.4912
  881MOL0     H18921   3.707   8.466   7.259  1.6040 -1.9263  2.9998
  881MOL0     H18922   3.520   8.548   7.393  0.3780  0.0645 -0.9440
  881MOL0     H18923   3.147   8.290   7.493 -0.3409 -0.3599 -0.2652
  881MOL0     H18924   3.157   8.362   7.332  2.3884 -1.0212 -0.5065
  881MOL0     H18925   3.140   8.595   7.446  1.3624  0.1511  0.0332
  881MOL0     H18926   3.108   8.523   7.597 -0.4237  2.5417 -0.4882
  881MOL0     H18927   2.899   8.392   7.530 -0.3906 -1.1102 -2.4102
  881MOL0     H18928   2.941   8.437   7.363  0.0064 -1.0727  0.7992
  881MOL0     H18929   2.852   8.638   7.560  1.3705 -1.5649 -0.5941
  881MOL0     H18930   2.890   8.669   7.391  2.0430 -2.7646 -0.8075
  881MOL0     H18931   2.488   8.513   7.426  0.2630 -2.0324  0.3324
  881MOL0     H18932   3.307   8.196   7.315 -2.2741  3.8950 -0.1942
  881MOL0     H18933   3.477   8.047   7.083  1.1395 -1.3465 -0.0445
  881MOL0     H18934   3.575   7.999   7.228 -1.2059 -1.5149  2.4788
  881MOL0     H18935   3.411   8.010   7.259  0.4984  1.2710  1.6006
  882MOL0     O18936   2.716   3.265   5.957  0.0783 -0.1211 -0.3591
  882MOL0     C18937   2.721   3.151   6.002  0.0840 -0.2206 -0.3816
  882MOL0     O18938   2.757   3.119   6.135  0.5106 -0.7835  0.3382
  882MOL0     C18939   2.782   3.234   6.214  0.4790  0.8336  0.1956
  882MOL0     C18940   2.680   3.293   6.292 -0.7287 -0.0858  0.0490
  882MOL0     C18941   2.714   3.393   6.380  0.4680 -0.2188  0.1694
  882MOL0     C18942   2.847   3.441   6.386 -0.2184  0.6483 -0.8165
  882MOL0     O18943   2.892   3.551   6.456  0.1679 -0.5809  0.2874
  882MOL0     C18944   2.935   3.665   6.376  0.5779  0.7968 -0.2716
  882MOL0     C18945   2.812   3.746   6.342  0.8534 -0.9432  1.5038
  882MOL0     C18946   2.828   3.843   6.224  0.1508  0.8890 -0.9154
  882MOL0     C18947   2.825   3.771   6.080 -0.1578  0.1050  0.6539
  882MOL0     C18948   2.681   3.732   6.026  0.3351  0.7691  0.5886
  882MOL0     C18949   2.652   3.578   6.049 -0.1544 -0.0865  0.2863
  882MOL0     C18950   2.509   3.536   6.020  0.1549 -0.1481  0.8171
  882MOL0     C18951   2.479   3.499   5.872 -0.1022 -0.0402 -0.8268
  882MOL0     N18952   2.350   3.446   5.848  0.9281 -0.5223  0.5134
  882MOL0     C18953   2.299   3.422   5.716 -0.2437 -0.3056 -0.0910
  882MOL0     C18954   2.161   3.421   5.753  0.2607 -0.9599  0.0073
  882MOL0     C18955   2.054   3.410   5.647  0.1541 -1.3524 -0.5911
  882MOL0     C18956   2.019   3.557   5.589  0.1537  0.0881 -0.6231
  882MOL0     C18957   1.945   3.640   5.693 -0.0441  0.4487  0.1672
  882MOL0     C18958   1.792   3.643   5.688  0.3778  0.2002  0.0672
  882MOL0     O18959   1.750   3.706   5.565  1.0190  0.4292  0.2664
  882MOL0     C18960   1.610   3.728   5.552  0.2395 -1.1867  0.5855
  882MOL0     C18961   1.516   3.698   5.653 -0.8702  0.0185  0.3234
  882MOL0     C18962   1.378   3.731   5.645 -0.0876  0.2535  0.0605
  882MOL0     C18963   1.332   3.815   5.536 -0.6578 -0.0779  1.2556
  882MOL0     C18964   1.193   3.863   5.523 -0.0202 -0.2137  0.4859
  882MOL0     O18965   1.174   3.976   5.457  0.0702  0.0948  1.0243
  882MOL0     C18966   1.036   4.003   5.445 -0.1005 -0.4355  1.2269
  882MOL0     C18967   0.990   4.121   5.513  0.1760  0.0513 -0.0344
  882MOL0     C18968   0.851   4.154   5.504 -1.1260 -1.0805  1.3675
  882MOL0     C18969   0.768   4.087   5.423  0.0618  0.3324 -0.6410
  882MOL0     O18970   0.635   4.114   5.391  0.1877  0.3539 -0.1016
  882MOL0     C18971   0.570   4.227   5.452 -0.6646 -0.3348  0.1159
  882MOL0     C18972   0.421   4.264   5.406  0.2516  0.0424  1.0114
  882MOL0     C18973   0.398   4.263   5.254 -0.6647  0.2277 -0.5553
  882MOL0     C18974   0.264   4.336   5.232 -0.3306 -0.7068 -0.3149
  882MOL0     C18975   0.242   4.349   5.084  0.3263 -0.3378  0.8756
  882MOL0     C18976   0.140   4.451   5.034  0.4926 -0.5547  0.3578
  882MOL0     C18977   0.147   4.447   4.885  0.0188 -0.6227  0.4660
  882MOL0     C18978   0.042   4.530   4.820  0.5852  0.5381  0.5752
  882MOL0    Cl18979   0.042   4.704   4.857  0.4564  0.1611  0.0220
  882MOL0     C18980   0.811   3.965   5.365  0.0382  0.1063 -0.7592
  882MOL0     C18981   0.944   3.932   5.367 -0.2438  0.4973  0.0657
  882MOL0     O18982   1.107   3.797   5.584  0.0777 -0.6893 -0.2007
  882MOL0     C18983   1.432   3.848   5.438 -0.0744  0.0093  0.1202
  882MOL0     C18984   1.561   3.802   5.444 -0.5633 -0.3028  0.3537
  882MOL0     N18985   2.143   3.451   5.885  0.1853 -0.2988 -0.4526
  882MOL0     N18986   2.253   3.461   5.947 -0.5821  0.1738  0.2369
  882MOL0     C18987   2.953   3.384   6.306  0.9956 -0.9656  0.2148
  882MOL0     C18988   2.910   3.282   6.221  0.1292  0.3176 -0.1910
  882MOL0     C18989   2.724   3.037   5.905 -0.0541 -0.3592 -0.4620
  882MOL0     C18990   2.792   2.923   5.948 -0.3688 -0.8684  0.0348
  882MOL0     C18991   2.794   2.817   5.855 -0.5185  0.0015  0.4568
  882MOL0     C18992   2.718   2.808   5.737 -0.6859  0.3716 -0.0497
  882MOL0     O18993   2.729   2.681   5.669  0.7425  0.8623 -0.1256
  882MOL0     C18994   2.633   2.646   5.568  0.2586  0.4372  0.4039
  882MOL0     C18995   2.652   2.727   5.431 -0.2997 -0.3006  0.3054
  882MOL0     C18996   2.513   2.732   5.349 -0.4470  1.0516  0.2047
  882MOL0     C18997   2.510   2.825   5.225  0.4705 -0.3624  0.3002
  882MOL0     C18998   2.636   2.849   5.154 -0.0757 -0.5279 -0.0035
  882MOL0     C18999   2.715   2.858   5.062  0.2413  0.6847 -0.0798
  882MOL0     C19000   2.655   2.923   5.696 -0.0951 -0.1211  0.0680
  882MOL0     C19001   2.656   3.040   5.779  0.8979  0.7731  0.3065
  882MOL0     C19002   2.574   3.160   5.729  0.1214 -0.2618 -0.2706
  882MOL0     H19003   2.582   3.245   6.292 -0.0919 -1.4700  1.4081
  882MOL0     H19004   2.638   3.452   6.431 -0.6441 -1.7946  0.4015
  882MOL0     H19005   3.014   3.724   6.424  1.6910 -2.5816  2.4183
  882MOL0     H19006   2.981   3.641   6.280 -0.7361  0.1676 -0.7535
  882MOL0     H19007   2.781   3.811   6.424 -1.8128 -0.1790 -0.0068
  882MOL0     H19008   2.726   3.681   6.325  0.6228  0.0240 -1.6532
  882MOL0     H19009   2.923   3.892   6.242 -0.0677  1.2003 -0.6057
  882MOL0     H19010   2.751   3.920   6.224 -0.4279  0.4402  2.1964
  882MOL0     H19011   2.874   3.839   6.010  2.4791 -0.8888  1.4068
  882MOL0     H19012   2.882   3.678   6.079  2.6881  1.6520 -3.0689
  882MOL0     H19013   2.601   3.791   6.072 -0.7577 -0.2391  0.0392
  882MOL0     H19014   2.675   3.752   5.919  0.6773 -0.9165  0.2231
  882MOL0     H19015   2.723   3.523   5.987 -0.6614 -0.4075 -0.0121
  882MOL0     H19016   2.672   3.561   6.155  1.2762  3.9895  0.8310
  882MOL0     H19017   2.451   3.622   6.056 -0.4945 -1.0700  2.0238
  882MOL0     H19018   2.489   3.446   6.079 -0.9387 -0.3690  0.1379
  882MOL0     H19019   2.494   3.589   5.811 -0.0716 -0.2439 -1.1219
  882MOL0     H19020   2.552   3.426   5.835  3.5385  1.9450  1.8305
  882MOL0     H19021   2.350   3.415   5.620 -0.4115 -2.0155 -0.0967
  882MOL0     H19022   2.087   3.352   5.560  4.8169  1.3545 -0.9798
  882MOL0     H19023   1.960   3.370   5.685  0.7975 -2.6817 -0.3535
  882MOL0     H19024   2.115   3.601   5.563  0.8375 -1.9949 -1.9253
  882MOL0     H19025   1.963   3.545   5.496 -1.2909  3.3816 -0.2926
  882MOL0     H19026   1.969   3.746   5.681 -0.8642  0.4987 -1.2742
  882MOL0     H19027   1.978   3.607   5.792  1.0407  1.4698  0.1772
  882MOL0     H19028   1.760   3.708   5.770  1.1901  1.2026 -0.3898
  882MOL0     H19029   1.745   3.544   5.693 -2.7119  1.5874  0.9113
  882MOL0     H19030   1.543   3.644   5.743  1.9026 -0.0196 -0.4362
  882MOL0     H19031   1.307   3.710   5.724  2.4480  1.9219  2.9989
  882MOL0     H19032   1.051   4.192   5.567  0.3551  0.9674 -1.3907
  882MOL0     H19033   0.817   4.242   5.558  0.0079 -0.1973  0.6874
  882MOL0     H19034   0.554   4.210   5.559  1.3282  0.1788  0.5323
  882MOL0     H19035   0.639   4.312   5.448  2.9216 -3.0268 -0.2564
  882MOL0     H19036   0.356   4.188   5.451  0.1191 -1.0903 -0.9681
  882MOL0     H19037   0.389   4.359   5.448 -0.3405  0.5317 -0.4588
  882MOL0     H19038   0.479   4.310   5.198  0.5099 -3.8834 -2.6459
  882MOL0     H19039   0.386   4.161   5.216 -1.3550 -0.3246  1.0532
  882MOL0     H19040   0.254   4.437   5.273  0.2722 -1.4288  1.7057
  882MOL0     H19041   0.188   4.275   5.281  1.4315 -4.0823 -1.3950
  882MOL0     H19042   0.208   4.250   5.053  0.0883 -0.1860  0.6430
  882MOL0     H19043   0.338   4.368   5.035 -0.6727  1.6553 -0.4568
  882MOL0     H19044   0.041   4.422   5.069 -0.0281  0.9392  0.1845
  882MOL0     H19045   0.157   4.545   5.087 -1.1368 -1.9626  3.6282
  882MOL0     H19046   0.134   4.346   4.845  2.0609 -1.1328  0.9696
  882MOL0     H19047   0.245   4.485   4.854  1.2309 -2.6292  1.6605
  882MOL0     H19048   0.045   4.510   4.712  3.4403 -1.9985  0.9993
  882MOL0     H19049  -0.051   4.491   4.862  0.5696  2.3187  2.3117
  882MOL0     H19050   0.737   3.906   5.311 -1.0155  1.5356 -0.9309
  882MOL0     H19051   0.966   3.844   5.307  2.0513 -0.7468  2.5495
  882MOL0     H19052   1.401   3.911   5.355  1.0040  2.3750  1.3948
  882MOL0     H19053   1.622   3.822   5.357  0.0203 -4.0020 -0.2780
  882MOL0     H19054   3.057   3.415   6.297  0.5888  0.5379  0.5323
  882MOL0     H19055   2.989   3.230   6.167  1.1138 -0.5137  1.9345
  882MOL0     H19056   2.848   2.913   6.041 -1.4437 -0.1716  0.7739
  882MOL0     H19057   2.838   2.722   5.882 -2.5220 -1.4528 -1.0667
  882MOL0     H19058   2.535   2.680   5.602  0.3420  1.9028 -0.7191
  882MOL0     H19059   2.627   2.537   5.562 -3.2262  0.4464  1.4756
  882MOL0     H19060   2.729   2.683   5.368  0.0960 -0.9863  1.2340
  882MOL0     H19061   2.694   2.825   5.454  1.2110 -0.4055 -1.7109
  882MOL0     H19062   2.452   2.773   5.430 -0.6841  0.3521  0.3885
  882MOL0     H19063   2.481   2.631   5.321 -0.4609  1.5909 -1.8581
  882MOL0     H19064   2.449   2.773   5.150  1.8058  0.1264 -1.1864
  882MOL0     H19065   2.462   2.915   5.263 -1.4527 -0.7847 -0.9987
  882MOL0     H19066   2.790   2.876   4.988  1.5984 -2.1441  0.4858
  882MOL0     H19067   2.601   2.928   5.601  3.3185 -1.8373 -2.1875
  882MOL0     H19068   2.629   3.255   5.738  1.2437 -0.9563  0.4910
  882MOL0     H19069   2.553   3.145   5.623 -2.2415 -0.2590  0.1449
  882MOL0     H19070   2.481   3.173   5.785 -0.7737 -2.4128 -1.1602
  883MOL0     O19071   0.707  10.235   5.356  0.1380 -0.5408  0.4185
  883MOL0     C19072   0.583  10.256   5.352 -0.5697 -0.1489  1.3038
  883MOL0     O19073   0.511  10.242   5.240  0.4000  0.9138 -0.0676
  883MOL0     C19074   0.565  10.165   5.143  0.0654  0.5408 -0.0083
  883MOL0     C19075   0.625  10.230   5.035 -0.1287 -1.0693 -0.3260
  883MOL0     C19076   0.673  10.156   4.924  0.1457 -0.2728  0.3837
  883MOL0     C19077   0.683  10.020   4.929  0.2840  0.8612 -0.4649
  883MOL0     O19078   0.764   9.970   4.831  0.8636 -0.1863  0.1496
  883MOL0     C19079   0.848   9.861   4.855 -0.0913  1.5287  0.7116
  883MOL0     C19080   0.935   9.829   4.741  0.3758  0.0519 -0.7247
  883MOL0     C19081   1.022   9.706   4.772  0.6160  0.9738 -0.4318
  883MOL0     C19082   1.146   9.717   4.685 -0.6469 -0.1934  1.0579
  883MOL0     C19083   1.249   9.602   4.704  0.0696 -0.4322 -0.7161
  883MOL0     C19084   1.209   9.477   4.624 -0.7484 -0.5558  0.0885
  883MOL0     C19085   1.239   9.509   4.471  0.3586 -0.3847 -0.3280
  883MOL0     C19086   1.287   9.379   4.407  0.4111 -0.2842  0.2923
  883MOL0     N19087   1.312   9.414   4.266  0.4840  0.1142  0.4600
  883MOL0     C19088   1.433   9.457   4.221 -0.0128  0.4910  0.3725
  883MOL0     C19089   1.421   9.485   4.085  1.0120  0.0771  0.1339
  883MOL0     C19090   1.518   9.525   3.979  0.1749 -0.3460 -0.1699
  883MOL0     C19091   1.669   9.515   4.016 -0.0650  0.5782 -1.1424
  883MOL0     C19092   1.741   9.633   4.079 -0.4401 -0.2782  0.1130
  883MOL0     C19093   1.896   9.611   4.066  0.0843  0.3083 -0.5774
  883MOL0     O19094   1.967   9.685   4.161 -0.5044  0.0478  0.3958
  883MOL0     C19095   2.093   9.725   4.119 -1.2910 -0.3127 -0.4369
  883MOL0     C19096   2.183   9.623   4.076  0.3043 -0.4491 -0.0058
  883MOL0     C19097   2.318   9.652   4.035 -0.7682 -1.1978 -0.9831
  883MOL0     C19098   2.363   9.786   4.054  0.1373  0.0044  0.2441
  883MOL0     C19099   2.503   9.824   4.037  0.4084 -0.1283  0.3604
  883MOL0     O19100   2.602   9.723   4.017  0.4464 -0.6599 -0.4526
  883MOL0     C19101   2.711   9.747   3.933 -0.3702 -0.2502 -0.9553
  883MOL0     C19102   2.795   9.639   3.912  0.1387  0.0671 -0.1039
  883MOL0     C19103   2.893   9.637   3.813  0.5640  0.0071  0.4389
  883MOL0     C19104   2.915   9.742   3.723 -0.3225 -0.1103  0.0825
  883MOL0     O19105   3.022   9.730   3.635 -0.3916  0.0759 -0.1087
  883MOL0     C19106   3.023   9.813   3.520 -0.0433  0.2257 -0.3175
  883MOL0     C19107   3.167   9.811   3.460 -0.3192  0.0047 -0.4081
  883MOL0     C19108   3.273   9.839   3.565 -1.2081  0.3436 -0.0823
  883MOL0     C19109   3.234   9.953   3.662 -0.2351  0.8940  0.1705
  883MOL0     C19110   3.365  10.019   3.714 -0.4882 -0.6852 -0.7815
  883MOL0     C19111   3.322  10.152   3.770 -0.1399 -1.5054 -0.0748
  883MOL0     C19112   3.429  10.263   3.782 -0.3210  0.0936  0.6869
  883MOL0     C19113   3.406  10.383   3.872  0.3119 -0.1114  0.2615
  883MOL0    Cl19114   3.333  10.333   4.032  0.0607  0.3203 -0.1348
  883MOL0     C19115   2.828   9.860   3.746  0.2368 -1.0437  0.4132
  883MOL0     C19116   2.719   9.851   3.833  0.3425 -0.2584 -0.1838
  883MOL0     O19117   2.536   9.944   4.064  0.0812  0.0036 -0.1066
  883MOL0     C19118   2.275   9.882   4.111  0.2686  0.6259 -0.4893
  883MOL0     C19119   2.145   9.850   4.140 -0.2277  0.5239 -0.3483
  883MOL0     N19120   1.292   9.460   4.047  0.7517  0.4178 -0.8254
  883MOL0     N19121   1.228   9.407   4.151  0.0721  0.1418 -0.0535
  883MOL0     C19122   0.638   9.943   5.042  0.8160 -0.7981 -1.4020
  883MOL0     C19123   0.561  10.016   5.146 -0.4779  0.6190  0.3390
  883MOL0     C19124   0.528  10.295   5.479  0.1296 -0.6102 -0.2782
  883MOL0     C19125   0.600  10.257   5.589  0.3463 -1.0541  0.9074
  883MOL0     C19126   0.557  10.287   5.712 -0.5020 -1.1608 -0.8140
  883MOL0     C19127   0.436  10.360   5.744 -0.8401  0.1076  1.2855
  883MOL0     O19128   0.394  10.407   5.869 -0.4827  0.3108 -0.4647
  883MOL0     C19129   0.464  10.358   5.992  0.0005 -0.0195  0.3040
  883MOL0     C19130   0.374  10.253   6.062 -0.1202  0.1310  0.4507
  883MOL0     C19131   0.239  10.306   6.103 -0.1991  0.6665 -0.9378
  883MOL0     C19132   0.244  10.365   6.250  0.9541  0.2236 -0.6117
  883MOL0     C19133   0.108  10.402   6.292  0.6717 -0.4979 -0.6012
  883MOL0     C19134   0.005  10.441   6.336  0.0550 -0.4355  0.1992
  883MOL0     C19135   0.371  10.405   5.629  1.0671 -0.1793 -0.1488
  883MOL0     C19136   0.404  10.366   5.501 -0.6169 -0.5437  0.1865
  883MOL0     C19137   0.311  10.418   5.390 -0.4625  0.6562  0.2358
  883MOL0     H19138   0.631  10.338   5.036  2.0596 -0.9509 -4.2496
  883MOL0     H19139   0.704  10.227   4.848  1.8766  1.2370  2.3707
  883MOL0     H19140   0.904   9.874   4.948 -0.3362  1.7068  0.8341
  883MOL0     H19141   0.786   9.773   4.872 -1.3750  2.6966  2.4169
  883MOL0     H19142   0.991   9.921   4.722 -0.3940  1.2872  2.2906
  883MOL0     H19143   0.875   9.812   4.651  1.2211  1.0824 -1.5032
  883MOL0     H19144   0.967   9.613   4.757  1.9582  0.0582  0.1367
  883MOL0     H19145   1.059   9.717   4.875  0.1129 -0.5449 -0.0582
  883MOL0     H19146   1.120   9.713   4.578  3.3596  2.6798 -0.2641
  883MOL0     H19147   1.192   9.813   4.706  1.6686 -1.1483  0.5931
  883MOL0     H19148   1.349   9.638   4.679  0.0863 -1.1456 -1.7472
  883MOL0     H19149   1.251   9.584   4.812 -1.6827  1.2669 -0.3378
  883MOL0     H19150   1.282   9.404   4.660 -2.6271 -1.5474  2.1291
  883MOL0     H19151   1.105   9.451   4.644 -1.5592  1.5800 -1.0195
  883MOL0     H19152   1.319   9.583   4.465 -0.1276  0.1046 -1.0029
  883MOL0     H19153   1.154   9.556   4.421 -0.6836 -0.7019  1.0872
  883MOL0     H19154   1.377   9.354   4.463  2.5756  1.4311 -2.1953
  883MOL0     H19155   1.215   9.297   4.412 -0.2205  0.1031 -1.6921
  883MOL0     H19156   1.514   9.465   4.293 -1.5520 -0.9234  2.3983
  883MOL0     H19157   1.502   9.471   3.884  3.7076 -0.3653 -0.8869
  883MOL0     H19158   1.500   9.625   3.938 -0.6487 -1.2182 -2.0857
  883MOL0     H19159   1.669   9.422   4.074 -0.4523  0.8755 -0.6617
  883MOL0     H19160   1.718   9.493   3.920  2.0925 -1.6020  0.3268
  883MOL0     H19161   1.715   9.658   4.182  0.6999  1.7126 -0.0247
  883MOL0     H19162   1.707   9.720   4.021  0.9350  0.3743  0.2436
  883MOL0     H19163   1.931   9.635   3.965  1.4864  1.1786  0.0773
  883MOL0     H19164   1.920   9.506   4.084 -0.7579 -0.0314 -1.3946
  883MOL0     H19165   2.152   9.520   4.058  0.9021 -1.1357  2.4124
  883MOL0     H19166   2.377   9.581   3.978 -0.5012  0.7443 -3.3336
  883MOL0     H19167   2.776   9.552   3.975 -0.7485  0.4141  0.1318
  883MOL0     H19168   2.960   9.552   3.808  2.8700  1.7198  1.0662
  883MOL0     H19169   2.951   9.792   3.440 -2.3649  2.7156  0.9560
  883MOL0     H19170   2.993   9.916   3.539 -4.4292 -0.0562 -3.8393
  883MOL0     H19171   3.195   9.714   3.416  0.2386 -0.8322  1.6943
  883MOL0     H19172   3.168   9.887   3.381  1.7888 -0.4105 -0.8475
  883MOL0     H19173   3.309   9.752   3.622 -2.4683 -1.6610 -2.1811
  883MOL0     H19174   3.366   9.870   3.516 -0.1282 -0.1374  1.5561
  883MOL0     H19175   3.172   9.910   3.740  1.5835 -1.7007  0.3116
  883MOL0     H19176   3.171  10.030   3.616 -2.2439 -0.2493  0.8769
  883MOL0     H19177   3.442  10.030   3.636 -0.4109  1.0811 -0.5015
  883MOL0     H19178   3.416   9.966   3.795 -0.9280  0.6610  0.4210
  883MOL0     H19179   3.248  10.194   3.701 -0.8548 -3.9814 -0.9333
  883MOL0     H19180   3.275  10.127   3.866  1.5641 -1.5097  0.7889
  883MOL0     H19181   3.461  10.302   3.685  0.6871 -0.8102  0.6392
  883MOL0     H19182   3.518  10.220   3.830 -1.3420 -1.8392  0.9581
  883MOL0     H19183   3.498  10.440   3.887  1.5041 -2.2928  1.7755
  883MOL0     H19184   3.336  10.450   3.821  0.1209 -1.1728 -0.9260
  883MOL0     H19185   2.829   9.949   3.683 -0.9185 -1.0935  0.2985
  883MOL0     H19186   2.626   9.907   3.838 -0.9753 -2.3528 -0.2077
  883MOL0     H19187   2.323   9.977   4.132  0.6337  0.3861 -0.2230
  883MOL0     H19188   2.096   9.928   4.197  1.4759 -0.3442  2.4761
  883MOL0     H19189   0.642   9.835   5.051 -0.8890 -0.7046  3.1413
  883MOL0     H19190   0.517   9.955   5.224 -1.5816  0.9874  0.0213
  883MOL0     H19191   0.679  10.183   5.579 -0.8651 -2.1807 -0.9223
  883MOL0     H19192   0.633  10.254   5.783 -0.6099  0.3128  0.0332
  883MOL0     H19193   0.480  10.440   6.063  0.6064  3.0975 -3.1654
  883MOL0     H19194   0.561  10.317   5.964 -0.6096 -1.7220  0.5789
  883MOL0     H19195   0.440  10.228   6.146  0.6858  2.1941  0.4958
  883MOL0     H19196   0.361  10.167   5.996 -3.4238 -0.0250  1.1471
  883MOL0     H19197   0.166  10.225   6.101 -0.5275  0.6325  3.2476
  883MOL0     H19198   0.201  10.393   6.048 -0.5899  0.4263 -1.0486
  883MOL0     H19199   0.265  10.285   6.322 -0.9258  0.6609  0.4986
  883MOL0     H19200   0.309  10.451   6.266 -1.0471  1.7210 -0.0596
  883MOL0     H19201  -0.081  10.489   6.377  0.1219  1.5462 -1.7916
  883MOL0     H19202   0.293  10.479   5.648  0.5830 -1.2885  2.5201
  883MOL0     H19203   0.251  10.504   5.419 -2.8245 -0.6707 -0.5016
  883MOL0     H19204   0.362  10.448   5.298  2.8915 -1.1980  1.3146
  883MOL0     H19205   0.242  10.334   5.375  0.0279 -0.4122  3.2530
  884MOL0     O19206   8.114   5.270  10.520  0.9030  0.3619  0.4373
  884MOL0     C19207   8.001   5.289  10.574 -0.1414 -0.6524  0.2319
  884MOL0     O19208   7.959   5.406  10.622  0.0757 -0.2978  0.5702
  884MOL0     C19209   8.043   5.510  10.602  0.0761  0.0077  0.2477
  884MOL0     C19210   8.112   5.564  10.710  1.3043 -0.0866  0.5832
  884MOL0     C19211   8.199   5.666  10.692  0.6382 -0.6680  0.3840
  884MOL0     C19212   8.222   5.727  10.561 -0.0295 -0.0794  0.4363
  884MOL0     O19213   8.317   5.826  10.543 -0.9564  0.3104 -0.1203
  884MOL0     C19214   8.360   5.870  10.419  0.6237  0.0009 -0.2769
  884MOL0     C19215   8.437   6.006  10.441 -0.0619  0.4641  1.0899
  884MOL0     C19216   8.560   6.009  10.536  0.5856  0.0909 -0.6725
  884MOL0     C19217   8.597   6.146  10.595  0.1612  0.3502  0.0753
  884MOL0     C19218   8.743   6.172  10.643 -0.0114  0.7555 -0.0899
  884MOL0     C19219   8.751   6.116  10.792  0.4241  0.1248 -0.6919
  884MOL0     C19220   8.897   6.125  10.831  0.4594  0.5379  0.0382
  884MOL0     C19221   8.921   6.087  10.975  0.2883  0.0883  0.0425
  884MOL0     N19222   9.062   6.107  11.024 -0.0359 -0.3092  0.2323
  884MOL0     C19223   9.176   6.071  10.951 -0.2752 -0.5400  0.4001
  884MOL0     C19224   9.270   6.145  11.010  0.8438 -0.0605 -0.4372
  884MOL0     C19225   9.405   6.163  10.967  0.9181  0.0952  0.0664
  884MOL0     C19226   9.400   6.248  10.837  0.2911 -0.5776 -0.2979
  884MOL0     C19227   9.532   6.316  10.802  0.0761  0.4979  0.4102
  884MOL0     C19228   9.634   6.229  10.719 -0.4158  0.1008 -1.2523
  884MOL0     O19229   9.753   6.303  10.698 -0.2205 -0.1013 -0.3132
  884MOL0     C19230   9.843   6.257  10.601  0.3399  0.8866 -0.6877
  884MOL0     C19231   9.825   6.143  10.519  0.1773  1.2425 -0.4463
  884MOL0     C19232   9.936   6.103  10.432  0.0443 -0.8888  0.2108
  884MOL0     C19233  10.058   6.178  10.422 -0.0355 -1.1290 -0.2230
  884MOL0     C19234  10.171   6.141  10.340  0.0629 -0.3675  0.2087
  884MOL0     O19235  10.149   6.065  10.227 -0.7602 -0.2273  0.0735
  884MOL0     C19236  10.255   6.006  10.165 -0.3909  0.2402  0.3036
  884MOL0     C19237  10.367   5.943  10.229  1.4423  0.0723  0.2087
  884MOL0     C19238  10.462   5.880  10.150  0.5344  0.5258 -0.0182
  884MOL0     C19239  10.452   5.868  10.013 -0.0863 -0.6693  0.2440
  884MOL0     O19240  10.541   5.794   9.941 -0.7360  0.2030 -0.5125
  884MOL0     C19241  10.686   5.810   9.967 -0.6655  0.3133  0.0011
  884MOL0     C19242  10.757   5.673  10.002  0.1831 -0.3526 -0.1164
  884MOL0     C19243  10.908   5.695  10.013  0.2768 -0.7766 -0.1143
  884MOL0     C19244  10.968   5.707   9.880  0.0203  0.0903 -0.2597
  884MOL0     C19245  11.119   5.729   9.892  0.2790  0.0378  0.2121
  884MOL0     C19246  11.191   5.703   9.771 -1.0699 -0.0544  0.4552
  884MOL0     C19247  11.153   5.798   9.664 -0.4558 -0.5796 -0.1859
  884MOL0     C19248  11.241   5.786   9.535  0.3553 -1.0093 -0.1473
  884MOL0    Cl19249  11.241   5.626   9.460  0.3404  0.0711 -0.0908
  884MOL0     C19250  10.332   5.915   9.950  0.2528  0.1720  0.2397
  884MOL0     C19251  10.238   5.991  10.027  0.8806  1.7040 -0.0980
  884MOL0     O19252  10.285   6.175  10.381  0.1380 -0.3378 -0.2677
  884MOL0     C19253  10.068   6.292  10.499  0.1833 -0.2181 -0.3131
  884MOL0     C19254   9.967   6.329  10.589 -0.1987  0.2793  0.2552
  884MOL0     N19255   9.213   6.211  11.122 -0.6062 -0.5304  0.0492
  884MOL0     N19256   9.088   6.177  11.135 -0.0598 -0.2827  0.9908
  884MOL0     C19257   8.133   5.688  10.461 -0.3540  0.1149  0.0834
  884MOL0     C19258   8.050   5.582  10.479  0.6450  0.2105  0.1739
  884MOL0     C19259   7.911   5.174  10.595  0.2270  0.1211  0.3553
  884MOL0     C19260   7.832   5.178  10.709  0.0709  0.3770  0.0634
  884MOL0     C19261   7.742   5.069  10.752 -1.4253 -0.5684  0.3399
  884MOL0     C19262   7.719   4.963  10.664  0.8285  0.3682  0.6065
  884MOL0     O19263   7.641   4.853  10.692 -0.0284 -0.0227 -0.2666
  884MOL0     C19264   7.588   4.840  10.822 -0.4593  0.4561  0.0487
  884MOL0     C19265   7.497   4.721  10.831 -0.5636  0.9141  0.4470
  884MOL0     C19266   7.367   4.740  10.746  0.7896 -0.5939  0.4830
  884MOL0     C19267   7.273   4.618  10.741 -0.0624 -0.5730  1.0467
  884MOL0     C19268   7.250   4.559  10.873 -1.0008  0.4455 -0.1306
  884MOL0     C19269   7.237   4.507  10.982  0.4057 -0.3384 -0.8682
  884MOL0     C19270   7.789   4.977  10.545 -0.3608  0.7817 -0.5141
  884MOL0     C19271   7.882   5.071  10.506 -0.2905  0.0304 -0.2446
  884MOL0     C19272   7.949   5.063  10.377  0.1350  0.0487  0.1932
  884MOL0     H19273   8.112   5.518  10.808 -0.4855  0.9144  1.1077
  884MOL0     H19274   8.270   5.694  10.768  2.2063 -0.1681 -1.1947
  884MOL0     H19275   8.411   5.793  10.360 -1.7499 -2.1979  0.3084
  884MOL0     H19276   8.277   5.902  10.355 -0.0102  2.2292  1.5190
  884MOL0     H19277   8.358   6.077  10.471 -1.3895 -0.8920  0.9045
  884MOL0     H19278   8.484   6.029  10.345 -0.1296 -2.3755  0.2960
  884MOL0     H19279   8.655   5.984  10.488  1.1979  1.5353 -0.2678
  884MOL0     H19280   8.544   5.939  10.619  1.7747 -1.5873 -1.8129
  884MOL0     H19281   8.582   6.225  10.522  2.0839  1.5867  0.9363
  884MOL0     H19282   8.525   6.178  10.672 -0.9076  3.2526 -1.9529
  884MOL0     H19283   8.813   6.123  10.574  1.5690  0.8649  1.3553
  884MOL0     H19284   8.765   6.279  10.648 -1.9104  1.1647  0.1231
  884MOL0     H19285   8.684   6.166  10.862  2.1374  2.1086 -0.3605
  884MOL0     H19286   8.718   6.011  10.790  1.3319 -0.1647 -1.3772
  884MOL0     H19287   8.926   6.230  10.819 -2.2174  1.2582 -1.0683
  884MOL0     H19288   8.950   6.060  10.762 -1.4333 -0.7067 -0.3438
  884MOL0     H19289   8.862   6.157  11.034  1.0369  2.9392 -2.3901
  884MOL0     H19290   8.895   5.983  10.998  1.2853 -0.3546 -0.7342
  884MOL0     H19291   9.181   6.023  10.854  1.4497  0.4163 -0.0310
  884MOL0     H19292   9.472   6.201  11.045 -0.1913  2.4700 -0.0713
  884MOL0     H19293   9.441   6.067  10.929 -0.3215  0.1199 -1.2447
  884MOL0     H19294   9.354   6.191  10.755 -0.5060 -1.0646  0.4601
  884MOL0     H19295   9.337   6.334  10.860  2.6643  1.6032 -1.4825
  884MOL0     H19296   9.560   6.358  10.899 -3.5619  2.3442  0.8570
  884MOL0     H19297   9.520   6.410  10.748  0.0072 -0.5094 -1.3854
  884MOL0     H19298   9.581   6.213  10.624 -0.8894  0.7058 -1.0994
  884MOL0     H19299   9.668   6.145  10.779  1.7744  1.9963  0.3380
  884MOL0     H19300   9.745   6.073  10.543  3.5658 -2.9013 -0.0064
  884MOL0     H19301   9.926   6.013  10.373  0.0397 -0.4735 -0.4319
  884MOL0     H19302  10.376   5.939  10.337 -1.6573 -0.3055  0.5620
  884MOL0     H19303  10.545   5.828  10.198 -0.0134  0.2294  0.6296
  884MOL0     H19304  10.737   5.853   9.880 -0.0603  0.1027  0.2399
  884MOL0     H19305  10.704   5.884  10.046  2.1866  1.3406 -1.4747
  884MOL0     H19306  10.730   5.649  10.105  0.0049  0.1290 -0.0447
  884MOL0     H19307  10.735   5.593   9.931 -2.0863  0.5317 -0.5023
  884MOL0     H19308  10.927   5.791  10.062  2.8282  0.9569 -3.9523
  884MOL0     H19309  10.948   5.615  10.075 -1.3983 -0.7206  1.0954
  884MOL0     H19310  10.928   5.793   9.825 -1.4304  1.8121  3.1192
  884MOL0     H19311  10.949   5.617   9.821  1.6519  0.3574 -1.2419
  884MOL0     H19312  11.157   5.674   9.979 -1.4224 -1.5234  0.0467
  884MOL0     H19313  11.126   5.836   9.912 -1.0690  0.0957  0.5116
  884MOL0     H19314  11.297   5.716   9.792 -0.3923  1.8847 -3.2893
  884MOL0     H19315  11.185   5.599   9.736  2.4600 -0.3336  0.3516
  884MOL0     H19316  11.167   5.900   9.700  1.3907 -0.8729  0.0070
  884MOL0     H19317  11.046   5.788   9.643 -0.2581 -2.4809 -0.5282
  884MOL0     H19318  11.201   5.858   9.463  1.8347  1.1449  1.0706
  884MOL0     H19319  11.346   5.817   9.542  0.2934  0.4029 -3.5080
  884MOL0     H19320  10.334   5.903   9.842  0.2193 -0.1519  0.2720
  884MOL0     H19321  10.156   6.045   9.980  0.0247 -0.2180 -0.9190
  884MOL0     H19322  10.151   6.361  10.492 -1.1453  1.3870 -0.6222
  884MOL0     H19323   9.975   6.414  10.656 -0.3492  0.8824 -0.4783
  884MOL0     H19324   8.140   5.733  10.362  2.9930 -1.6547 -0.6625
  884MOL0     H19325   7.988   5.566  10.392 -1.8077  0.8960  1.6882
  884MOL0     H19326   7.839   5.263  10.776  0.8320  1.3233 -1.1698
  884MOL0     H19327   7.694   5.085  10.848  1.1355  0.6328  1.5069
  884MOL0     H19328   7.528   4.929  10.841 -0.5013  1.3665 -3.5634
  884MOL0     H19329   7.665   4.840  10.900 -1.0920  2.1916  0.7138
  884MOL0     H19330   7.466   4.711  10.935  2.4121  2.1386  1.5687
  884MOL0     H19331   7.539   4.625  10.800 -4.8514 -0.0060 -3.5986
  884MOL0     H19332   7.404   4.761  10.645  4.0049 -1.5070  1.3404
  884MOL0     H19333   7.312   4.829  10.777 -2.4653 -2.9096  1.9291
  884MOL0     H19334   7.180   4.654  10.696  0.5016  1.8469  1.6368
  884MOL0     H19335   7.309   4.548  10.665  0.2574  2.0020 -1.3942
  884MOL0     H19336   7.236   4.460  11.078 -0.7319  0.9997 -0.1925
  884MOL0     H19337   7.772   4.896  10.475  0.7191  1.8758 -2.1107
  884MOL0     H19338   7.902   4.993  10.309  0.5382  1.1039 -1.2121
  884MOL0     H19339   7.947   5.162  10.330  0.4573 -1.1194 -2.4436
  884MOL0     H19340   8.057   5.042  10.384  0.2170 -0.2276 -1.5169
  885MOL0     O19341   9.232  11.078   8.115 -0.3473 -0.1878 -0.6951
  885MOL0     C19342   9.290  11.115   8.215  0.7615 -0.3220  0.0149
  885MOL0     O19343   9.235  11.114   8.338  0.2856 -0.2469  0.0930
  885MOL0     C19344   9.108  11.058   8.358  0.3272  0.2034  0.7382
  885MOL0     C19345   9.004  11.142   8.370 -0.5105 -0.3039 -0.5507
  885MOL0     C19346   8.876  11.088   8.401  0.3017 -0.1486  0.1323
  885MOL0     C19347   8.859  10.954   8.422 -0.1848  0.4809  0.2025
  885MOL0     O19348   8.733  10.903   8.445 -0.0669 -0.0388  0.6876
  885MOL0     C19349   8.725  10.841   8.570  0.2240  0.3620  0.4434
  885MOL0     C19350   8.612  10.892   8.648  0.2662  0.4633  0.7377
  885MOL0     C19351   8.482  10.875   8.581  0.5337 -0.9466  0.6352
  885MOL0     C19352   8.360  10.926   8.660 -0.2077  0.6291 -0.0034
  885MOL0     C19353   8.230  10.883   8.588 -0.2060  0.4520 -0.7655
  885MOL0     C19354   8.190  10.979   8.478 -0.3987 -0.7898 -0.2303
  885MOL0     C19355   8.062  10.923   8.417  0.4701 -0.6716 -1.0512
  885MOL0     C19356   7.995  11.021   8.329  0.0201  0.6728 -0.6502
  885MOL0     N19357   7.866  10.968   8.283  0.3963  0.2404  0.2609
  885MOL0     C19358   7.842  10.917   8.154  0.3275  0.2572 -0.6798
  885MOL0     C19359   7.702  10.907   8.147  0.3416 -0.2576 -0.0549
  885MOL0     C19360   7.619  10.889   8.020  0.0023 -0.1121  0.7815
  885MOL0     C19361   7.571  11.027   7.973  0.5889  0.2013 -0.2858
  885MOL0     C19362   7.465  11.007   7.864  0.1125 -0.0122 -0.9307
  885MOL0     C19363   7.368  11.119   7.869 -0.5446  0.2753  0.6989
  885MOL0     O19364   7.281  11.099   7.755  1.9091 -0.2494 -0.8046
  885MOL0     C19365   7.143  11.063   7.775 -0.8482  0.7617 -0.7227
  885MOL0     C19366   7.046  11.077   7.684 -1.2153 -0.9469  0.8290
  885MOL0     C19367   6.919  11.031   7.689  1.0312 -0.1781  0.8595
  885MOL0     C19368   6.870  10.967   7.799 -0.1830  0.3218 -0.8647
  885MOL0     C19369   6.738  10.917   7.809  0.3021  0.3791  0.1221
  885MOL0     O19370   6.658  10.916   7.696 -1.0746 -0.0996 -1.0772
  885MOL0     C19371   6.522  10.902   7.709  1.2114 -0.5825 -0.0931
  885MOL0     C19372   6.443  10.946   7.820  1.1790 -0.7937  0.0103
  885MOL0     C19373   6.304  10.928   7.827  0.3340  0.0930 -0.0828
  885MOL0     C19374   6.244  10.865   7.712  0.2481  0.3905  0.6953
  885MOL0     O19375   6.114  10.839   7.701  0.0096 -0.2709 -0.0833
  885MOL0     C19376   6.020  10.846   7.811 -0.1135  0.1968 -0.0644
  885MOL0     C19377   5.884  10.799   7.760 -0.2762 -1.1032 -1.1310
  885MOL0     C19378   5.791  10.772   7.882  0.6820  0.3912  0.3631
  885MOL0     C19379   5.713  10.904   7.897  0.9496  0.5340 -0.2204
  885MOL0     C19380   5.610  10.882   8.015  0.3544 -0.2975 -0.0500
  885MOL0     C19381   5.488  10.789   7.984  0.0892 -0.7215  0.4744
  885MOL0     C19382   5.391  10.865   7.894 -0.1670  0.4054 -0.9406
  885MOL0     C19383   5.246  10.843   7.937 -0.1920 -0.1367  1.0305
  885MOL0    Cl19384   5.199  10.665   7.955 -0.2274 -0.2831  0.0238
  885MOL0     C19385   6.322  10.832   7.603  0.1286 -0.2888  0.2359
  885MOL0     C19386   6.458  10.844   7.601 -0.2670 -0.2169  0.2350
  885MOL0     O19387   6.701  10.867   7.914 -0.3123  0.7046 -0.6594
  885MOL0     C19388   6.965  10.944   7.905 -1.0080  0.0884  0.4024
  885MOL0     C19389   7.098  10.986   7.892 -0.1015  0.4619 -0.2279
  885MOL0     N19390   7.647  10.956   8.276  0.2085 -0.1952  1.1069
  885MOL0     N19391   7.749  10.989   8.345  0.3412  0.9314 -0.0146
  885MOL0     C19392   8.967  10.872   8.386  0.5886  0.5067 -0.2144
  885MOL0     C19393   9.089  10.923   8.357 -0.1009 -0.3614  0.2269
  885MOL0     C19394   9.430  11.161   8.193  0.0495  0.7663 -0.0595
  885MOL0     C19395   9.493  11.140   8.070 -0.4470 -0.1852  0.2586
  885MOL0     C19396   9.623  11.186   8.050  0.0879 -0.1389  0.7662
  885MOL0     C19397   9.698  11.236   8.155 -0.1766  0.1952 -0.4099
  885MOL0     O19398   9.827  11.270   8.135  0.4713 -0.1183 -0.2589
  885MOL0     C19399   9.926  11.256   8.245 -0.3824 -0.4918 -0.2777
  885MOL0     C19400   9.972  11.391   8.282 -0.1221  0.7380 -0.6777
  885MOL0     C19401  10.108  11.435   8.222  0.0344 -0.6634  0.2283
  885MOL0     C19402  10.162  11.548   8.313 -0.2967  0.4803  0.0858
  885MOL0     C19403  10.303  11.580   8.282  0.1665  0.2503 -0.4143
  885MOL0     C19404  10.418  11.602   8.257  0.2406 -0.1931  0.7511
  885MOL0     C19405   9.631  11.257   8.277 -0.6764 -0.4081 -0.3388
  885MOL0     C19406   9.501  11.229   8.300 -0.0263  0.0639  0.4673
  885MOL0     C19407   9.468  11.242   8.448  0.7194 -0.2630 -0.0483
  885MOL0     H19408   9.017  11.249   8.357 -1.3411 -0.0851  0.3102
  885MOL0     H19409   8.785  11.145   8.388 -0.3431 -1.2750 -0.4450
  885MOL0     H19410   8.691  10.738   8.554 -3.9379  1.8200 -1.5633
  885MOL0     H19411   8.819  10.835   8.625 -0.4878  0.0296  1.6592
  885MOL0     H19412   8.629  10.998   8.666 -1.6699  1.1938 -1.2968
  885MOL0     H19413   8.605  10.837   8.743 -1.9246 -1.4466 -0.4162
  885MOL0     H19414   8.474  10.770   8.551 -0.3168 -0.0380 -2.6542
  885MOL0     H19415   8.484  10.940   8.493 -0.6754 -1.0101  0.5444
  885MOL0     H19416   8.361  10.885   8.761 -3.2323 -1.4802 -0.6605
  885MOL0     H19417   8.365  11.035   8.659 -0.8129  0.6623  0.0052
  885MOL0     H19418   8.229  10.782   8.547 -1.0331  0.6846 -1.3499
  885MOL0     H19419   8.153  10.887   8.666  0.9590 -1.9216  0.6321
  885MOL0     H19420   8.161  11.074   8.522  1.4510 -0.6958  0.8790
  885MOL0     H19421   8.263  10.993   8.397  0.7387  0.8500  1.0287
  885MOL0     H19422   7.990  10.900   8.495 -0.0265  1.3036 -0.8764
  885MOL0     H19423   8.092  10.829   8.370  1.4655 -1.7744  1.6262
  885MOL0     H19424   7.977  11.113   8.386  1.9404  1.0864 -0.6526
  885MOL0     H19425   8.059  11.045   8.244 -0.7332 -0.1956 -1.4854
  885MOL0     H19426   7.913  10.895   8.075  1.2425  2.2419 -0.4560
  885MOL0     H19427   7.694  10.853   7.949 -0.6796  0.2642 -0.1445
  885MOL0     H19428   7.538  10.816   8.032  2.2685 -3.8870 -3.6459
  885MOL0     H19429   7.528  11.081   8.058  1.6863 -2.0385  1.8244
  885MOL0     H19430   7.652  11.092   7.937 -0.9521  1.6853 -1.2313
  885MOL0     H19431   7.396  10.923   7.878 -0.4039  0.5925  0.2959
  885MOL0     H19432   7.509  11.005   7.764  2.8520  2.2823  0.1124
  885MOL0     H19433   7.426  11.211   7.860  2.0630 -1.1567  1.6084
  885MOL0     H19434   7.319  11.121   7.967  1.6371  1.2568  1.8610
  885MOL0     H19435   7.084  11.125   7.594 -0.4863  1.5139  2.3240
  885MOL0     H19436   6.853  11.057   7.607 -0.1322 -1.2373  1.4356
  885MOL0     H19437   6.484  11.013   7.894 -3.7566  2.3068  0.4431
  885MOL0     H19438   6.241  10.971   7.903  0.2118 -0.4906  0.1490
  885MOL0     H19439   6.058  10.789   7.896  2.5366  1.9754  0.0911
  885MOL0     H19440   6.015  10.954   7.830 -1.1440  0.5805 -2.1911
  885MOL0     H19441   5.842  10.874   7.693  0.4676 -1.5097 -2.0851
  885MOL0     H19442   5.898  10.700   7.714  0.5128 -1.1662 -0.7717
  885MOL0     H19443   5.722  10.688   7.870  2.0459 -0.9278  1.3283
  885MOL0     H19444   5.842  10.753   7.977 -1.5090  1.3841  1.7982
  885MOL0     H19445   5.651  10.916   7.808 -0.5552 -2.4307  0.2943
  885MOL0     H19446   5.777  10.993   7.903  1.3394  0.1595  2.2962
  885MOL0     H19447   5.569  10.979   8.043 -2.0271 -1.2232 -0.0344
  885MOL0     H19448   5.662  10.846   8.105 -0.3805  1.8986  1.3102
  885MOL0     H19449   5.515  10.694   7.936 -2.2510  0.2763 -3.1071
  885MOL0     H19450   5.437  10.778   8.080  1.6847  2.9573  1.9531
  885MOL0     H19451   5.406  10.831   7.791  0.8978 -2.1717 -0.0069
  885MOL0     H19452   5.403  10.973   7.902  0.0007  0.4149 -1.2984
  885MOL0     H19453   5.209  10.897   8.025  1.8005 -0.0955  1.9083
  885MOL0     H19454   5.177  10.882   7.862 -0.1380 -0.0918  1.0041
  885MOL0     H19455   6.292  10.782   7.512 -2.0836 -1.7525  1.6523
  885MOL0     H19456   6.507  10.805   7.512  0.8541  0.8456  0.3585
  885MOL0     H19457   6.930  10.900   7.998  3.6179 -1.6730  1.5671
  885MOL0     H19458   7.165  10.972   7.976 -0.1402  0.9736 -0.1087
  885MOL0     H19459   8.946  10.766   8.373  1.7295  0.0818  1.1100
  885MOL0     H19460   9.165  10.856   8.318 -1.0102  0.4397 -3.2774
  885MOL0     H19461   9.442  11.094   7.986 -1.7461  1.8961 -0.1563
  885MOL0     H19462   9.684  11.187   7.960  1.5391  0.0406  1.7231
  885MOL0     H19463  10.007  11.192   8.210 -0.4935  1.6257 -5.2757
  885MOL0     H19464   9.882  11.213   8.336 -0.1834 -0.9531 -0.3967
  885MOL0     H19465   9.988  11.389   8.390 -4.3709 -1.3820  0.1096
  885MOL0     H19466   9.902  11.468   8.250 -1.4346 -0.0087  0.3278
  885MOL0     H19467  10.088  11.468   8.119 -0.2026  0.3828  0.6004
  885MOL0     H19468  10.181  11.353   8.225  3.5230  2.1893  4.0482
  885MOL0     H19469  10.111  11.640   8.284 -0.4448  1.0237  1.9124
  885MOL0     H19470  10.153  11.534   8.422  0.2348  0.3964  0.1224
  885MOL0     H19471  10.518  11.613   8.220  0.5160 -0.3839  1.4348
  885MOL0     H19472   9.702  11.284   8.354  0.9456 -1.9048 -1.2392
  885MOL0     H19473   9.433  11.150   8.496 -0.4912 -0.3162 -0.9728
  885MOL0     H19474   9.539  11.294   8.512  0.7506  2.3169 -2.0364
  885MOL0     H19475   9.385  11.313   8.456 -0.2863 -1.1891 -1.6468
  886MOL0     O19476   2.759   8.201   2.263 -0.2059  0.1775  0.1576
  886MOL0     C19477   2.787   8.161   2.379 -0.3624 -0.1679  0.1200
  886MOL0     O19478   2.691   8.139   2.475  0.2873 -0.4294 -0.5663
  886MOL0     C19479   2.556   8.138   2.456 -0.5707  0.4018  0.3693
  886MOL0     C19480   2.499   8.097   2.336 -0.4834  0.2893  0.6147
  886MOL0     C19481   2.361   8.103   2.329 -0.5622 -0.1112 -1.1372
  886MOL0     C19482   2.286   8.160   2.428 -0.0254  1.2891  1.0150
  886MOL0     O19483   2.151   8.151   2.408  0.1246  1.0566 -0.7650
  886MOL0     C19484   2.077   8.248   2.490  0.2594 -0.5547  0.7483
  886MOL0     C19485   1.935   8.244   2.445 -0.4446 -0.0781 -0.6924
  886MOL0     C19486   1.832   8.296   2.557  0.7933  0.7114 -0.2568
  886MOL0     C19487   1.839   8.445   2.598 -1.1741  0.0265  0.3883
  886MOL0     C19488   1.961   8.484   2.684 -0.4131  0.4445  0.4964
  886MOL0     C19489   1.934   8.593   2.778  0.5424  0.0766 -0.9126
  886MOL0     C19490   2.062   8.624   2.864  0.5566 -0.2362 -0.9952
  886MOL0     C19491   2.020   8.751   2.947 -0.0243 -0.2612 -0.4258
  886MOL0     N19492   1.928   8.719   3.059 -0.2682 -0.5960 -0.1228
  886MOL0     C19493   1.791   8.742   3.052 -0.8538  0.7395  0.1956
  886MOL0     C19494   1.748   8.737   3.176 -0.6125  0.4459  0.0429
  886MOL0     C19495   1.604   8.770   3.222 -0.7390 -0.2045  0.8583
  886MOL0     C19496   1.571   8.920   3.224 -0.6319 -1.1297  0.2678
  886MOL0     C19497   1.429   8.952   3.280 -0.0993  0.7611 -0.0364
  886MOL0     C19498   1.390   9.095   3.248  0.6097 -0.7035  0.1504
  886MOL0     O19499   1.359   9.102   3.112  0.2165  0.1121  0.0753
  886MOL0     C19500   1.230   9.071   3.068  0.6591 -0.6100  0.3116
  886MOL0     C19501   1.118   9.025   3.141 -0.2485  0.2096  0.4693
  886MOL0     C19502   0.992   9.007   3.084  0.5810 -0.3080  0.2548
  886MOL0     C19503   0.969   9.020   2.946  0.8451  0.3214  0.1920
  886MOL0     C19504   0.844   8.978   2.882 -0.5553 -0.6015 -0.3813
  886MOL0     O19505   0.840   8.995   2.751  0.3315  0.5426 -0.6918
  886MOL0     C19506   0.753   8.930   2.672 -0.5219  0.0226 -0.4574
  886MOL0     C19507   0.681   8.814   2.704  0.0646  0.5125  0.0742
  886MOL0     C19508   0.572   8.760   2.625  0.2139 -0.3091  0.4445
  886MOL0     C19509   0.545   8.826   2.496  0.4492 -0.5782 -0.9544
  886MOL0     O19510   0.449   8.764   2.424  0.5525  0.5818  0.2832
  886MOL0     C19511   0.467   8.787   2.285  0.3633 -0.4544  0.8233
  886MOL0     C19512   0.382   8.896   2.218 -0.0491 -0.3757  0.0124
  886MOL0     C19513   0.408   8.882   2.068  0.0006 -0.3864 -0.0211
  886MOL0     C19514   0.338   8.991   1.977  0.1037 -0.0146 -0.1015
  886MOL0     C19515   0.180   9.000   2.008  0.4327  0.0992 -0.3157
  886MOL0     C19516   0.096   9.042   1.882 -0.0797  0.0465 -0.0833
  886MOL0     C19517   0.140   9.184   1.831 -0.2583  0.6783 -0.4387
  886MOL0     C19518   0.121   9.293   1.929  0.6820 -0.2663 -0.4055
  886MOL0    Cl19519  -0.021   9.275   2.040 -0.2782 -0.4839  0.4347
  886MOL0     C19520   0.628   8.933   2.461 -0.5057  0.2732  0.7085
  886MOL0     C19521   0.726   8.987   2.551 -0.6718 -0.1819 -0.7892
  886MOL0     O19522   0.752   8.949   2.956  0.0502  0.4052 -0.0655
  886MOL0     C19523   1.081   9.059   2.866 -0.5449  0.5949 -0.0693
  886MOL0     C19524   1.213   9.084   2.931 -0.4037  0.1557 -0.8982
  886MOL0     N19525   1.854   8.727   3.260  0.3151  0.3173 -0.3264
  886MOL0     N19526   1.962   8.705   3.193  0.6670  0.1706 -0.0957
  886MOL0     C19527   2.340   8.189   2.550  0.6846 -0.5857  0.0624
  886MOL0     C19528   2.476   8.185   2.562  0.2633 -1.1403  0.5388
  886MOL0     C19529   2.933   8.123   2.405  0.7059  0.0143 -0.0840
  886MOL0     C19530   2.972   8.056   2.518 -0.5256 -0.0876  0.3876
  886MOL0     C19531   3.108   8.036   2.537  0.4216  0.1970 -0.7238
  886MOL0     C19532   3.207   8.064   2.443 -0.6664  0.1927 -0.0379
  886MOL0     O19533   3.344   8.043   2.451 -0.3343  0.9160 -0.0112
  886MOL0     C19534   3.414   8.047   2.575  0.1417  0.5477  0.4352
  886MOL0     C19535   3.533   8.145   2.581  0.3704  0.1465 -0.2100
  886MOL0     C19536   3.668   8.080   2.529  0.0149  1.2684  0.1177
  886MOL0     C19537   3.667   8.046   2.381  1.2030 -0.1972 -0.2450
  886MOL0     C19538   3.797   8.015   2.320 -0.0338  0.5297 -0.4444
  886MOL0     C19539   3.901   7.986   2.267  0.4088 -0.2560  0.3291
  886MOL0     C19540   3.170   8.122   2.325  1.1004 -0.6813  0.3458
  886MOL0     C19541   3.030   8.163   2.305 -0.2564  0.0635 -0.2429
  886MOL0     C19542   3.010   8.262   2.195 -0.7532 -0.7335  0.3224
  886MOL0     H19543   2.557   8.059   2.252  1.1534  1.6361  1.0846
  886MOL0     H19544   2.298   8.078   2.244 -3.4219 -2.3045  1.4135
  886MOL0     H19545   2.087   8.217   2.595 -3.2225  0.0304  1.3732
  886MOL0     H19546   2.112   8.350   2.474  0.9934 -0.8769  0.2617
  886MOL0     H19547   1.909   8.142   2.416  2.3360 -0.6802 -1.3164
  886MOL0     H19548   1.915   8.302   2.355 -2.5489 -0.4200 -0.5074
  886MOL0     H19549   1.831   8.222   2.638 -2.3908 -0.4476 -1.1994
  886MOL0     H19550   1.734   8.273   2.514  1.4434  1.3498 -2.1768
  886MOL0     H19551   1.830   8.508   2.510 -2.5994 -0.8447 -0.1252
  886MOL0     H19552   1.744   8.460   2.650 -1.5622 -1.2887  0.0840
  886MOL0     H19553   1.996   8.393   2.734  0.6677  0.8557  0.5020
  886MOL0     H19554   2.035   8.515   2.610 -3.0493  1.5489 -1.8207
  886MOL0     H19555   1.895   8.680   2.725 -0.6973 -0.5166 -1.0142
  886MOL0     H19556   1.851   8.565   2.843  2.1857  0.4429  1.4649
  886MOL0     H19557   2.151   8.649   2.805  1.9409  2.0423  1.8314
  886MOL0     H19558   2.081   8.537   2.927  0.7769  0.9594  0.6438
  886MOL0     H19559   2.104   8.806   2.990 -0.2364  0.6400 -1.1435
  886MOL0     H19560   1.971   8.820   2.879 -0.5212  0.0802  0.2615
  886MOL0     H19561   1.735   8.759   2.960 -0.8104 -0.3596 -0.0425
  886MOL0     H19562   1.533   8.725   3.152 -0.9075 -2.9438  2.6261
  886MOL0     H19563   1.581   8.726   3.319 -1.0088  0.0449  0.9076
  886MOL0     H19564   1.634   8.974   3.296 -3.7301  3.0598  0.1891
  886MOL0     H19565   1.585   8.955   3.122 -2.5743 -1.5656 -0.1756
  886MOL0     H19566   1.434   8.937   3.388  1.5766 -1.6027 -0.3695
  886MOL0     H19567   1.367   8.875   3.233  2.3807 -0.1748 -2.0084
  886MOL0     H19568   1.476   9.158   3.273 -1.6097  1.5086  2.6932
  886MOL0     H19569   1.307   9.132   3.308  0.4960 -0.1778 -0.3172
  886MOL0     H19570   1.139   9.003   3.245  0.9613 -0.9133  0.0248
  886MOL0     H19571   0.919   8.960   3.149 -1.3858  1.1506 -0.8060
  886MOL0     H19572   0.694   8.763   2.799  3.4139  1.6431  0.3407
  886MOL0     H19573   0.510   8.677   2.659  2.5798 -2.1173  0.5953
  886MOL0     H19574   0.573   8.785   2.258  0.7129 -0.7975  2.1368
  886MOL0     H19575   0.433   8.694   2.240  1.1256 -0.4631  0.2557
  886MOL0     H19576   0.280   8.870   2.248 -0.3141  2.3030  1.7780
  886MOL0     H19577   0.411   9.001   2.235  1.2843 -0.6184 -0.6875
  886MOL0     H19578   0.514   8.884   2.040 -0.5661  1.2032 -2.3016
  886MOL0     H19579   0.382   8.778   2.047 -3.2450  0.3259  0.0244
  886MOL0     H19580   0.354   8.957   1.874  1.8892  0.1714  0.0722
  886MOL0     H19581   0.381   9.090   1.996  0.3203 -0.4146  1.7441
  886MOL0     H19582   0.163   9.070   2.090 -0.9083 -0.4082 -0.1386
  886MOL0     H19583   0.146   8.904   2.048  2.8748 -0.7731 -0.1877
  886MOL0     H19584   0.107   8.971   1.799 -0.9784 -1.4821  1.0542
  886MOL0     H19585  -0.006   9.041   1.923  1.1366 -1.7039  3.2666
  886MOL0     H19586   0.074   9.204   1.747 -2.2694 -0.9872  0.6523
  886MOL0     H19587   0.244   9.199   1.798 -0.1607  1.9905  0.4071
  886MOL0     H19588   0.206   9.295   1.998  0.8910 -1.8653 -0.5933
  886MOL0     H19589   0.126   9.393   1.885  3.0632  0.4671  1.3535
  886MOL0     H19590   0.633   8.984   2.366  3.9085  2.2142  1.7387
  886MOL0     H19591   0.783   9.076   2.527 -1.1237  1.4913  3.5470
  886MOL0     H19592   1.071   9.083   2.761 -1.5554  2.0453  0.3134
  886MOL0     H19593   1.292   9.117   2.864 -0.1491 -4.6172 -3.4238
  886MOL0     H19594   2.290   8.203   2.645  0.7847 -0.7980  0.1469
  886MOL0     H19595   2.515   8.217   2.658 -0.6319  1.6431  0.0530
  886MOL0     H19596   2.906   8.040   2.603 -0.6581  0.8239  0.4678
  886MOL0     H19597   3.140   7.981   2.624 -0.1516  0.0155 -0.6207
  886MOL0     H19598   3.450   7.944   2.586 -3.0176 -0.7779 -0.7364
  886MOL0     H19599   3.341   8.072   2.652  0.4353 -0.2007  0.9778
  886MOL0     H19600   3.546   8.183   2.682  1.0917 -0.7029  0.0276
  886MOL0     H19601   3.510   8.229   2.514 -1.1653 -2.3273 -3.0384
  886MOL0     H19602   3.685   7.992   2.591  1.1708  2.5282  1.6917
  886MOL0     H19603   3.737   8.159   2.561  1.1562  0.3638 -0.0473
  886MOL0     H19604   3.595   7.967   2.356  0.1552  0.5304  0.4399
  886MOL0     H19605   3.641   8.142   2.335  3.3781  0.9382  0.7559
  886MOL0     H19606   3.981   7.959   2.202 -1.6957 -2.6816 -1.4708
  886MOL0     H19607   3.248   8.154   2.258 -0.0427  0.8935 -0.2873
  886MOL0     H19608   2.960   8.354   2.225  0.9683 -0.4330  2.4839
  886MOL0     H19609   3.107   8.287   2.150  1.3997 -1.6316  4.0585
  886MOL0     H19610   2.954   8.209   2.117  0.5990 -0.8650 -0.5863
  887MOL0     O19611   2.278   9.992  10.216 -0.0002  1.3665  0.3566
  887MOL0     C19612   2.276  10.110  10.175 -0.2391  0.5875  0.6231
  887MOL0     O19613   2.239  10.211  10.253  0.4377  0.4945 -0.4410
  887MOL0     C19614   2.205  10.192  10.383  1.0185  0.0709  0.3208
  887MOL0     C19615   2.068  10.188  10.421 -0.4575 -0.4409  0.4615
  887MOL0     C19616   2.043  10.181  10.560  0.7979  0.1561 -0.2744
  887MOL0     C19617   2.151  10.183  10.650  0.3557  1.0674 -0.2016
  887MOL0     O19618   2.114  10.177  10.786  0.5324  0.0288  0.0601
  887MOL0     C19619   2.022  10.275  10.835 -0.0072 -0.2181 -0.3407
  887MOL0     C19620   2.076  10.345  10.967  0.3960 -0.1480  0.1012
  887MOL0     C19621   1.983  10.454  11.027 -0.1619 -0.0880  0.1170
  887MOL0     C19622   1.829  10.407  11.047  0.0304  0.4994  0.5183
  887MOL0     C19623   1.828  10.299  11.168  0.0122 -0.8199  0.6853
  887MOL0     C19624   1.688  10.249  11.210  0.2217 -0.0484 -0.1158
  887MOL0     C19625   1.577  10.357  11.210  0.7961  0.6087 -1.5706
  887MOL0     C19626   1.551  10.417  11.355  0.6786 -0.5513  0.4416
  887MOL0     N19627   1.583  10.329  11.466 -0.2246 -0.4535 -0.3837
  887MOL0     C19628   1.689  10.343  11.548 -0.4585  0.0297  0.7464
  887MOL0     C19629   1.678  10.250  11.654 -0.4428  1.1238  0.2022
  887MOL0     C19630   1.779  10.222  11.766  1.0780  0.2104  0.5874
  887MOL0     C19631   1.863  10.101  11.727 -0.4627  0.8132 -0.3377
  887MOL0     C19632   1.954  10.058  11.850 -0.2354  0.8242  0.0947
  887MOL0     C19633   2.064   9.949  11.809  0.9639  0.3210 -0.3601
  887MOL0     O19634   2.186  10.016  11.775 -1.5026  0.3646 -0.0593
  887MOL0     C19635   2.292   9.945  11.713 -0.8029  0.9996 -0.0642
  887MOL0     C19636   2.407  10.018  11.678  1.0040 -0.2202  0.1656
  887MOL0     C19637   2.518   9.957  11.624  0.1288 -0.3524  1.0822
  887MOL0     C19638   2.514   9.823  11.613  0.5682  0.0837  0.3236
  887MOL0     C19639   2.630   9.747  11.571 -0.4228  0.7748  0.3421
  887MOL0     O19640   2.720   9.826  11.502  0.2598  0.2869  0.3841
  887MOL0     C19641   2.847   9.777  11.488  0.3386 -1.2892  0.3377
  887MOL0     C19642   2.925   9.713  11.580 -0.1731  1.0572 -0.3326
  887MOL0     C19643   3.057   9.669  11.544  0.0202  0.3445 -0.0592
  887MOL0     C19644   3.113   9.689  11.421  0.7992 -0.1000 -0.1816
  887MOL0     O19645   3.238   9.650  11.387 -0.0450 -0.0948 -0.4953
  887MOL0     C19646   3.289   9.534  11.453  0.1805 -0.6474  0.0290
  887MOL0     C19647   3.443   9.516  11.424 -1.3073 -0.3904 -0.4138
  887MOL0     C19648   3.482   9.502  11.280 -0.2640  0.4569 -0.8685
  887MOL0     C19649   3.476   9.630  11.196 -0.8092  0.4824 -0.2078
  887MOL0     C19650   3.548   9.600  11.056 -0.2400 -1.2122 -1.1939
  887MOL0     C19651   3.548   9.726  10.968 -0.5115 -0.5408  0.7030
  887MOL0     C19652   3.666   9.826  11.015 -0.4613  0.4141  0.3174
  887MOL0     C19653   3.687   9.943  10.918 -0.7098  0.3899  0.3564
  887MOL0    Cl19654   3.545  10.056  10.926  0.1259 -0.2291 -0.2856
  887MOL0     C19655   3.038   9.763  11.329  0.1759 -0.5834 -0.0178
  887MOL0     C19656   2.915   9.812  11.363 -0.4649  0.5360 -0.0999
  887MOL0     O19657   2.646   9.628  11.594  0.5528 -0.5661 -0.1826
  887MOL0     C19658   2.400   9.745  11.643 -0.0870  0.0570 -0.8450
  887MOL0     C19659   2.290   9.804  11.700  0.1125  0.2825  1.0251
  887MOL0     N19660   1.545  10.201  11.635 -0.2338 -0.3446  0.3938
  887MOL0     N19661   1.499  10.244  11.522 -1.3189 -0.1502 -0.8456
  887MOL0     C19662   2.279  10.188  10.598  0.9856 -0.1132 -0.3388
  887MOL0     C19663   2.311  10.191  10.469  0.1256  0.3320 -0.1774
  887MOL0     C19664   2.318  10.136  10.035  0.0293 -0.9174 -0.8476
  887MOL0     C19665   2.264  10.246   9.973  0.3852  1.1027 -0.8659
  887MOL0     C19666   2.285  10.277   9.841 -0.1835 -0.7176  0.7144
  887MOL0     C19667   2.369  10.195   9.764 -0.2738  0.9760  0.7031
  887MOL0     O19668   2.391  10.222   9.629 -0.3308 -0.2665 -0.1532
  887MOL0     C19669   2.284  10.290   9.552 -0.3884  0.4777 -0.7036
  887MOL0     C19670   2.311  10.251   9.405  0.6595 -0.4475  0.7878
  887MOL0     C19671   2.221  10.336   9.316  0.0616 -0.3706  0.5031
  887MOL0     C19672   2.246  10.290   9.172  0.6291  0.6412  0.1822
  887MOL0     C19673   2.198  10.161   9.142  0.4599  0.6687 -0.4493
  887MOL0     C19674   2.161  10.048   9.122 -0.1799  0.9171 -0.1981
  887MOL0     C19675   2.428  10.090   9.819 -1.0215  0.6824  0.5814
  887MOL0     C19676   2.418  10.065   9.962 -0.2571 -0.2297 -0.7519
  887MOL0     C19677   2.524   9.975  10.024  0.1474 -0.0178  0.2064
  887MOL0     H19678   1.985  10.172  10.353 -0.4618  1.8436 -0.1274
  887MOL0     H19679   1.939  10.168  10.587  0.9344 -1.0408 -0.2781
  887MOL0     H19680   1.991  10.343  10.755 -1.5384 -1.8458 -1.1980
  887MOL0     H19681   1.936  10.215  10.866  0.1101  0.4498  1.3418
  887MOL0     H19682   2.169  10.402  10.968  0.2935  0.0723  2.4646
  887MOL0     H19683   2.092  10.274  11.049 -3.9772  0.1083  1.3823
  887MOL0     H19684   1.981  10.534  10.952  3.1621  0.1888  0.1888
  887MOL0     H19685   2.022  10.493  11.121  1.8367 -0.2746 -0.5804
  887MOL0     H19686   1.751  10.482  11.060  0.3756  2.1870 -4.7167
  887MOL0     H19687   1.794  10.349  10.962 -1.1194  1.9517 -0.0224
  887MOL0     H19688   1.887  10.213  11.136 -0.3827 -1.0707  0.6176
  887MOL0     H19689   1.869  10.352  11.254 -0.3255  0.1276  0.2746
  887MOL0     H19690   1.653  10.185  11.128  3.4907  1.5253 -2.9850
  887MOL0     H19691   1.692  10.191  11.303  0.4662  2.4350  1.5178
  887MOL0     H19692   1.493  10.293  11.181  1.2009 -0.0367 -1.3442
  887MOL0     H19693   1.570  10.441  11.141 -1.8516  4.5479  2.8830
  887MOL0     H19694   1.603  10.511  11.377  0.3548 -0.7882  2.3485
  887MOL0     H19695   1.446  10.443  11.343  0.2305 -2.1347  0.7987
  887MOL0     H19696   1.770  10.415  11.541 -0.4637 -0.0949 -1.1526
  887MOL0     H19697   1.839  10.312  11.780 -0.4151  1.4396 -0.5420
  887MOL0     H19698   1.723  10.203  11.857 -1.9877 -2.7514 -1.6628
  887MOL0     H19699   1.804  10.023  11.679 -0.2786  0.8920 -0.6965
  887MOL0     H19700   1.935  10.128  11.649  1.1035  0.3392  0.8742
  887MOL0     H19701   1.885  10.028  11.930  0.0208  2.5124  0.9971
  887MOL0     H19702   2.016  10.143  11.877  2.2131 -0.1503 -2.0055
  887MOL0     H19703   2.019   9.899  11.723 -3.5875 -0.6189  2.2323
  887MOL0     H19704   2.097   9.876  11.884  2.8096 -0.8644 -2.2268
  887MOL0     H19705   2.417  10.126  11.672 -0.7064 -0.1309 -2.2385
  887MOL0     H19706   2.600  10.023  11.599 -1.0153  1.0130  0.7671
  887MOL0     H19707   2.894   9.686  11.680  0.5679 -0.7427 -0.5531
  887MOL0     H19708   3.101   9.600  11.615  1.9791  0.8026 -0.7728
  887MOL0     H19709   3.287   9.544  11.562  1.2663  0.7563 -0.0435
  887MOL0     H19710   3.236   9.442  11.425  0.8092 -0.7988 -0.6922
  887MOL0     H19711   3.497   9.604  11.461  0.2607 -2.5881  3.0713
  887MOL0     H19712   3.486   9.426  11.469  0.0635  0.4029 -0.0945
  887MOL0     H19713   3.582   9.457  11.280  0.4950  2.0475 -0.8840
  887MOL0     H19714   3.413   9.438  11.225  1.9326 -1.0244 -2.0324
  887MOL0     H19715   3.531   9.705  11.253 -0.8841 -0.2731  0.8756
  887MOL0     H19716   3.369   9.651  11.183 -1.2837 -1.6081 -0.0659
  887MOL0     H19717   3.483   9.520  11.018 -1.8402  0.0961 -1.3054
  887MOL0     H19718   3.651   9.566  11.069  0.4830  0.9534 -1.0041
  887MOL0     H19719   3.556   9.707  10.860  3.5225  0.6236  0.6250
  887MOL0     H19720   3.450   9.773  10.977 -0.3109 -0.0648  0.4869
  887MOL0     H19721   3.755   9.762  11.018 -1.4923 -1.1810 -1.1802
  887MOL0     H19722   3.633   9.863  11.113 -0.4997 -0.1203  0.5125
  887MOL0     H19723   3.773  10.009  10.936 -0.8574  0.8818 -0.6592
  887MOL0     H19724   3.703   9.909  10.815 -0.7796 -1.9071  1.0624
  887MOL0     H19725   3.080   9.776  11.230  0.8153 -0.7470  0.2228
  887MOL0     H19726   2.861   9.875  11.293  0.3517 -0.5698 -1.7896
  887MOL0     H19727   2.398   9.639  11.617  0.9475  0.4861 -2.8962
  887MOL0     H19728   2.203   9.741  11.721  0.1692 -1.0735 -2.1875
  887MOL0     H19729   2.348  10.168  10.679 -1.9199 -2.3729  1.7710
  887MOL0     H19730   2.413  10.217  10.441  0.5874 -2.2072 -1.1413
  887MOL0     H19731   2.185  10.303  10.021 -2.1896 -4.1169  1.9916
  887MOL0     H19732   2.251  10.369   9.795  1.3540  0.5919  2.0799
  887MOL0     H19733   2.293  10.395   9.579  2.6292 -0.5079  2.9227
  887MOL0     H19734   2.186  10.250   9.579 -0.3373  0.2934 -0.7855
  887MOL0     H19735   2.292  10.144   9.393 -1.1055 -0.1277  0.4135
  887MOL0     H19736   2.414  10.275   9.377  0.1662  0.5675 -0.2832
  887MOL0     H19737   2.265  10.436   9.314  0.1402 -0.3298  2.4005
  887MOL0     H19738   2.118  10.344   9.352  1.4654  1.1273  4.6962
  887MOL0     H19739   2.196  10.364   9.109  0.6377 -0.2633 -0.9143
  887MOL0     H19740   2.352  10.296   9.145  0.2139 -0.7495 -2.0528
  887MOL0     H19741   2.107   9.955   9.119  1.7100 -0.2634  0.8725
  887MOL0     H19742   2.493  10.022   9.766  0.4077  2.4490 -0.0599
  887MOL0     H19743   2.492   9.870  10.025  1.2722 -0.4840 -2.4529
  887MOL0     H19744   2.618   9.985   9.968  1.2397  2.3179  2.2603
  887MOL0     H19745   2.550  10.011  10.124  0.0810 -2.5241  1.2179
  888MOL0     O19746   5.724   8.146   7.875  0.3329  0.2191  0.2064
  888MOL0     C19747   5.657   8.075   7.802 -0.6848  0.3209 -0.0044
  888MOL0     O19748   5.519   8.078   7.794 -0.1266  0.2239 -0.1427
  888MOL0     C19749   5.438   8.169   7.853  0.9433  0.3631 -0.7343
  888MOL0     C19750   5.480   8.259   7.955  0.2357 -0.9089 -0.4389
  888MOL0     C19751   5.385   8.350   8.007 -0.0114 -0.3939  0.3382
  888MOL0     C19752   5.253   8.361   7.951  0.2120 -0.0847  0.4845
  888MOL0     O19753   5.172   8.462   7.998  0.3068 -0.4512  0.1062
  888MOL0     C19754   5.086   8.425   8.100  0.5509  0.5058 -0.3127
  888MOL0     C19755   5.049   8.540   8.198 -0.3142 -0.3756 -0.3101
  888MOL0     C19756   5.158   8.628   8.266 -0.0562  0.7444 -0.8761
  888MOL0     C19757   5.222   8.547   8.387  0.1127  0.3449  0.0396
  888MOL0     C19758   5.293   8.648   8.478  0.2727 -0.3631 -0.4222
  888MOL0     C19759   5.397   8.569   8.568  0.3234 -0.6877  1.0874
  888MOL0     C19760   5.544   8.583   8.520  0.7192 -0.1231 -0.3250
  888MOL0     C19761   5.581   8.502   8.397 -0.2291  0.3866  0.1353
  888MOL0     N19762   5.723   8.511   8.365 -0.4134 -0.0014  0.2591
  888MOL0     C19763   5.778   8.526   8.245 -0.6387  1.3544  0.5747
  888MOL0     C19764   5.908   8.505   8.249 -0.7997  0.2284 -0.6245
  888MOL0     C19765   6.000   8.510   8.126  1.2201 -0.6856  0.7300
  888MOL0     C19766   6.077   8.379   8.117 -0.7411 -0.0998 -0.7583
  888MOL0     C19767   6.180   8.388   7.999 -0.2329 -0.2926  0.2496
  888MOL0     C19768   6.308   8.475   8.038  0.5361 -0.4064 -0.1631
  888MOL0     O19769   6.388   8.483   7.922 -0.2898 -0.3491  0.6629
  888MOL0     C19770   6.481   8.375   7.905 -0.0935 -0.6787  0.0427
  888MOL0     C19771   6.477   8.263   7.987 -0.6345 -0.4835  0.1039
  888MOL0     C19772   6.564   8.165   7.962 -0.4713  1.3870 -0.0826
  888MOL0     C19773   6.649   8.158   7.844  0.0760 -0.7371  0.5419
  888MOL0     C19774   6.733   8.040   7.819 -0.7781 -0.7056  0.5951
  888MOL0     O19775   6.671   7.929   7.789  0.2225  0.0048  0.3413
  888MOL0     C19776   6.735   7.808   7.796  0.6589 -1.1790  0.5820
  888MOL0     C19777   6.841   7.771   7.710  0.4446  0.7996  0.3011
  888MOL0     C19778   6.884   7.638   7.724 -0.2358 -0.5447  0.1424
  888MOL0     C19779   6.832   7.543   7.815  0.3294 -0.9836  1.3441
  888MOL0     O19780   6.887   7.419   7.823 -0.4774  0.1495 -0.3415
  888MOL0     C19781   7.030   7.393   7.816 -0.2973 -0.0017 -0.2249
  888MOL0     C19782   7.117   7.470   7.917 -0.3662  0.1874  0.9685
  888MOL0     C19783   7.069   7.469   8.061  0.8217  0.4149 -0.1238
  888MOL0     C19784   7.161   7.563   8.143 -0.4681 -0.3398  0.4344
  888MOL0     C19785   7.089   7.608   8.274  0.2779 -0.5355  0.3366
  888MOL0     C19786   7.175   7.717   8.354  0.0874 -0.6144 -0.4079
  888MOL0     C19787   7.306   7.672   8.397 -0.6552  0.1408 -0.1386
  888MOL0     C19788   7.304   7.553   8.499  0.4598 -0.1923  0.8719
  888MOL0    Cl19789   7.471   7.520   8.565 -0.3093 -0.2896  0.5224
  888MOL0     C19790   6.730   7.589   7.898 -0.1023 -0.5011 -0.5562
  888MOL0     C19791   6.680   7.717   7.885 -0.4035  0.4958  0.0410
  888MOL0     O19792   6.858   8.058   7.832 -0.2902  0.1379  0.0538
  888MOL0     C19793   6.651   8.270   7.761  0.2432 -0.0300 -0.2925
  888MOL0     C19794   6.567   8.378   7.794  0.2650  0.1376 -0.5939
  888MOL0     N19795   5.944   8.492   8.382  0.0909  0.1848 -0.4921
  888MOL0     N19796   5.828   8.492   8.451 -0.0773 -0.4887  0.3246
  888MOL0     C19797   5.220   8.266   7.851 -0.2903  0.3306 -0.7039
  888MOL0     C19798   5.308   8.169   7.802  0.4918 -0.6297  0.1200
  888MOL0     C19799   5.735   7.973   7.726 -0.4737 -0.6123 -0.2684
  888MOL0     C19800   5.690   7.929   7.600  1.2625 -0.1305 -0.2395
  888MOL0     C19801   5.769   7.853   7.515  0.5430  0.3013 -0.0653
  888MOL0     C19802   5.883   7.788   7.564 -0.0822  0.8950  0.3099
  888MOL0     O19803   5.924   7.683   7.482 -0.0775  0.2457 -0.7247
  888MOL0     C19804   6.051   7.638   7.495 -0.4546 -0.6933 -0.2012
  888MOL0     C19805   6.166   7.735   7.441 -0.3172  0.2254  0.3360
  888MOL0     C19806   6.155   7.766   7.295 -0.0224 -0.1709  0.1923
  888MOL0     C19807   6.185   7.658   7.191 -0.1751  0.6809 -0.5741
  888MOL0     C19808   6.327   7.612   7.214  0.1668  0.5443 -0.6193
  888MOL0     C19809   6.439   7.571   7.211  0.2108 -0.2590 -0.3217
  888MOL0     C19810   5.928   7.827   7.694 -0.1202  0.4356 -0.1547
  888MOL0     C19811   5.860   7.922   7.768  0.0865 -0.4034  0.0935
  888MOL0     C19812   5.916   7.959   7.904 -0.9365 -0.0254 -0.9201
  888MOL0     H19813   5.584   8.268   7.984  0.4919 -2.3326 -0.8352
  888MOL0     H19814   5.402   8.406   8.099 -3.6120 -1.2180  1.6848
  888MOL0     H19815   4.994   8.378   8.063  0.5884 -0.5206  0.8319
  888MOL0     H19816   5.128   8.335   8.145  1.1638  0.6197 -0.6496
  888MOL0     H19817   4.993   8.502   8.284  1.2625  0.4901  1.1736
  888MOL0     H19818   4.989   8.615   8.145  3.1133  2.2102 -0.8883
  888MOL0     H19819   5.113   8.722   8.299  2.2543  1.4906  0.3722
  888MOL0     H19820   5.237   8.666   8.200 -0.2636  0.4136 -1.3152
  888MOL0     H19821   5.146   8.494   8.445 -1.2645  0.4487 -1.6094
  888MOL0     H19822   5.287   8.471   8.344 -3.0510 -1.0158 -2.7449
  888MOL0     H19823   5.341   8.735   8.433  2.0652  0.2058  2.3591
  888MOL0     H19824   5.210   8.688   8.538  1.0216 -1.0975  1.1681
  888MOL0     H19825   5.392   8.613   8.668  0.8725 -1.8824  1.6650
  888MOL0     H19826   5.366   8.464   8.570 -0.9238 -0.3635 -0.0321
  888MOL0     H19827   5.610   8.553   8.602 -0.0879 -0.7343  0.1141
  888MOL0     H19828   5.563   8.687   8.492  1.3002 -0.8655 -3.0107
  888MOL0     H19829   5.559   8.399   8.426  0.5985  0.2746  0.3997
  888MOL0     H19830   5.525   8.539   8.311  1.4167 -1.0302 -1.6602
  888MOL0     H19831   5.717   8.535   8.155  0.2569 -3.0485 -0.7348
  888MOL0     H19832   5.935   8.522   8.039  3.9826 -1.4746 -1.6371
  888MOL0     H19833   6.071   8.593   8.131  0.6767 -0.2093  0.5569
  888MOL0     H19834   6.128   8.359   8.213 -2.3506 -0.8728 -0.0309
  888MOL0     H19835   6.015   8.292   8.093 -1.4153  0.2875 -0.4364
  888MOL0     H19836   6.126   8.440   7.919 -0.4709  0.9815  1.2043
  888MOL0     H19837   6.213   8.293   7.956  0.7235 -0.5559  1.5384
  888MOL0     H19838   6.359   8.443   8.129  3.0333  0.5368 -1.1529
  888MOL0     H19839   6.285   8.581   8.051 -1.3294 -0.2944 -3.3432
  888MOL0     H19840   6.419   8.242   8.077  0.4230 -1.5091  0.5734
  888MOL0     H19841   6.573   8.076   8.024  0.0218  0.8609 -0.8795
  888MOL0     H19842   6.889   7.822   7.627 -0.5905 -2.3423 -2.4771
  888MOL0     H19843   6.960   7.601   7.655  1.4335 -2.0125  2.6135
  888MOL0     H19844   7.055   7.287   7.824  1.8471  0.4958  0.4465
  888MOL0     H19845   7.078   7.419   7.721  0.2286  1.2582  0.3490
  888MOL0     H19846   7.224   7.449   7.905 -0.0940  1.3716  1.2301
  888MOL0     H19847   7.115   7.574   7.884 -0.9409 -0.2488 -0.4622
  888MOL0     H19848   6.965   7.502   8.060  0.5753 -0.3490 -1.0990
  888MOL0     H19849   7.070   7.367   8.101 -1.7295  1.1022  1.9297
  888MOL0     H19850   7.187   7.643   8.073  0.0556 -0.3443  0.6157
  888MOL0     H19851   7.246   7.504   8.177 -1.7815 -1.5437  1.7090
  888MOL0     H19852   7.068   7.522   8.337 -1.0146 -0.4789  0.0277
  888MOL0     H19853   6.991   7.646   8.241 -1.1899 -1.9869  2.7382
  888MOL0     H19854   7.194   7.802   8.288 -2.9385  0.1907 -0.4006
  888MOL0     H19855   7.116   7.754   8.438 -0.9900  2.4657 -2.3724
  888MOL0     H19856   7.358   7.759   8.439 -0.8583  1.5835 -2.6807
  888MOL0     H19857   7.364   7.639   8.311  1.1425  0.7329  0.7732
  888MOL0     H19858   7.235   7.573   8.580  0.1494  0.9119  0.3461
  888MOL0     H19859   7.262   7.462   8.453  0.7346  0.3382 -0.4703
  888MOL0     H19860   6.671   7.525   7.963 -0.9047 -0.0298 -0.8148
  888MOL0     H19861   6.603   7.750   7.953  1.2973  3.0778  0.8519
  888MOL0     H19862   6.715   8.265   7.673 -1.4344 -4.0110 -1.5394
  888MOL0     H19863   6.555   8.463   7.728  2.7837 -0.7086 -2.2631
  888MOL0     H19864   5.123   8.281   7.805  0.5296  2.2707 -1.9246
  888MOL0     H19865   5.269   8.093   7.735 -0.5611  0.6658 -0.8129
  888MOL0     H19866   5.599   7.972   7.559  1.7768  0.7635 -0.4562
  888MOL0     H19867   5.721   7.823   7.423  1.0876 -1.6936  0.2464
  888MOL0     H19868   6.064   7.541   7.446  2.0755 -1.5425  1.9305
  888MOL0     H19869   6.071   7.611   7.599  1.8080  0.4633 -0.2861
  888MOL0     H19870   6.263   7.691   7.464  0.7881  2.7174  0.7255
  888MOL0     H19871   6.166   7.823   7.505 -0.9169  0.2089  0.3716
  888MOL0     H19872   6.219   7.850   7.269 -1.5071  0.8667 -0.2646
  888MOL0     H19873   6.053   7.805   7.292 -0.1087 -0.4107 -0.1352
  888MOL0     H19874   6.120   7.574   7.216  1.7700 -1.7548 -3.1253
  888MOL0     H19875   6.172   7.685   7.086 -2.2533  3.3277  0.2408
  888MOL0     H19876   6.542   7.540   7.211  0.1771 -0.3929 -0.9533
  888MOL0     H19877   5.999   7.763   7.744 -1.1229 -0.9602 -0.4450
  888MOL0     H19878   5.849   7.944   7.990  0.1135 -0.2812 -0.1326
  888MOL0     H19879   6.005   7.900   7.928 -0.5426  0.5325 -1.0072
  888MOL0     H19880   5.957   8.059   7.914 -0.0426 -0.5330  1.1383
  889MOL0     O19881   2.559   2.543   9.505  0.3227  0.0327  0.0765
  889MOL0     C19882   2.481   2.541   9.605 -0.3631 -0.9358  0.1677
  889MOL0     O19883   2.505   2.618   9.716  0.3180  1.0932  0.1089
  889MOL0     C19884   2.625   2.669   9.741 -0.8546 -0.4559 -0.4996
  889MOL0     C19885   2.744   2.666   9.667  0.9319 -0.3123  0.1125
  889MOL0     C19886   2.852   2.741   9.706 -0.4535  0.8472  0.2751
  889MOL0     C19887   2.857   2.800   9.834  0.4563  0.1239  0.6271
  889MOL0     O19888   2.967   2.872   9.876 -0.9358  0.5167  0.8298
  889MOL0     C19889   3.070   2.916   9.778 -1.0679  0.7577 -0.3239
  889MOL0     C19890   3.182   2.800   9.776 -0.3014  0.8845  0.3624
  889MOL0     C19891   3.256   2.776   9.909 -1.0462 -0.1622 -0.2088
  889MOL0     C19892   3.365   2.889   9.929  0.4063  0.2087 -0.5253
  889MOL0     C19893   3.462   2.837  10.031  0.2598  0.0586 -0.7058
  889MOL0     C19894   3.555   2.940  10.099 -0.9883 -0.2103 -0.2324
  889MOL0     C19895   3.669   2.989  10.003  0.1729  0.6747 -0.1440
  889MOL0     C19896   3.771   2.869   9.991  0.1113  0.4676 -0.2571
  889MOL0     N19897   3.891   2.914   9.930 -0.0673 -0.6604 -0.4384
  889MOL0     C19898   3.913   2.958   9.806 -0.7880 -0.0871  0.3277
  889MOL0     C19899   4.048   2.997   9.795  0.0766 -0.4433  0.9117
  889MOL0     C19900   4.121   3.036   9.671  0.7511 -0.1537 -0.2551
  889MOL0     C19901   4.042   3.004   9.536 -0.9912 -0.0682 -0.5789
  889MOL0     C19902   4.098   3.045   9.402 -0.1965 -0.7063 -0.2242
  889MOL0     C19903   4.241   2.977   9.363  0.3042  0.0971  0.3432
  889MOL0     O19904   4.352   3.025   9.442  0.1562  0.2317 -0.1231
  889MOL0     C19905   4.477   2.963   9.418  0.6621 -0.1631 -0.0948
  889MOL0     C19906   4.515   2.938   9.287  0.1118  0.1746 -0.3649
  889MOL0     C19907   4.646   2.883   9.261 -0.8989 -0.4006 -0.0321
  889MOL0     C19908   4.730   2.834   9.357 -0.3983  0.1166  0.2947
  889MOL0     C19909   4.863   2.768   9.332  0.6481 -0.4250 -0.4444
  889MOL0     O19910   4.944   2.727   9.436  0.3193  0.6081  0.8667
  889MOL0     C19911   5.055   2.653   9.400  0.7106  0.7525 -1.3356
  889MOL0     C19912   5.179   2.708   9.387  0.7531  0.5886 -0.1939
  889MOL0     C19913   5.283   2.629   9.341  0.4165  0.1898  0.4475
  889MOL0     C19914   5.279   2.488   9.339  1.1046 -0.5200  0.1736
  889MOL0     O19915   5.384   2.423   9.286 -0.1542 -0.2543  0.6588
  889MOL0     C19916   5.421   2.308   9.355  0.6843  0.0588 -0.4617
  889MOL0     C19917   5.530   2.226   9.280 -0.7956  0.0667  0.3150
  889MOL0     C19918   5.661   2.298   9.274 -0.5743  0.9162 -0.1725
  889MOL0     C19919   5.715   2.328   9.417 -0.1710  0.2348  1.2344
  889MOL0     C19920   5.855   2.383   9.383  0.3804  0.6501 -0.1947
  889MOL0     C19921   5.936   2.426   9.518 -0.1032 -0.2027  0.6335
  889MOL0     C19922   6.068   2.490   9.473 -0.2530 -0.1435 -0.5855
  889MOL0     C19923   6.060   2.640   9.482 -0.0634 -0.1832  0.7679
  889MOL0    Cl19924   6.062   2.689   9.654  0.3744 -0.2607 -0.2655
  889MOL0     C19925   5.141   2.436   9.350 -0.1001 -0.7386  0.0726
  889MOL0     C19926   5.031   2.521   9.391 -0.0130  0.2092 -0.4621
  889MOL0     O19927   4.890   2.774   9.216  0.3511  0.0134 -0.5538
  889MOL0     C19928   4.693   2.867   9.486  0.9254 -1.1111  0.1066
  889MOL0     C19929   4.564   2.932   9.514  0.1854  1.0548 -0.5402
  889MOL0     N19930   4.101   3.000   9.916  0.7751 -0.2818  0.0732
  889MOL0     N19931   4.011   2.941   9.994  0.1219 -0.5707 -0.2024
  889MOL0     C19932   2.740   2.794   9.908 -1.3000  0.7067  0.7800
  889MOL0     C19933   2.625   2.729   9.865 -0.8630 -0.0170 -0.6486
  889MOL0     C19934   2.368   2.453   9.610  0.5860  0.0251  0.2333
  889MOL0     C19935   2.285   2.452   9.724  0.5404  0.0683  0.6374
  889MOL0     C19936   2.185   2.355   9.743 -0.5098 -0.2020 -0.0250
  889MOL0     C19937   2.148   2.264   9.638  0.5354  0.0720 -0.5947
  889MOL0     O19938   2.045   2.181   9.663 -0.1697  0.7518 -0.2134
  889MOL0     C19939   1.980   2.117   9.550 -0.3419  0.5948  0.1748
  889MOL0     C19940   1.838   2.079   9.601  0.2448  0.2266 -0.0831
  889MOL0     C19941   1.834   1.971   9.703 -0.1817  0.6277  0.1778
  889MOL0     C19942   1.685   1.926   9.726 -0.6236  0.2871 -0.7704
  889MOL0     C19943   1.595   2.038   9.757  1.0907 -0.5546 -0.5682
  889MOL0     C19944   1.523   2.129   9.796  0.1582  0.0659 -0.3032
  889MOL0     C19945   2.232   2.259   9.524 -0.7449  0.6357  0.8537
  889MOL0     C19946   2.334   2.361   9.505 -0.8614  0.8827  0.3640
  889MOL0     C19947   2.420   2.336   9.382 -0.2451 -0.6919  0.2933
  889MOL0     H19948   2.748   2.634   9.563 -2.5383  0.4883 -0.3638
  889MOL0     H19949   2.933   2.745   9.633 -0.6302 -3.3169 -0.3951
  889MOL0     H19950   3.030   2.926   9.677 -0.0834 -1.4777 -0.9986
  889MOL0     H19951   3.127   3.003   9.812  1.6208 -1.0569  0.1986
  889MOL0     H19952   3.250   2.831   9.696  1.4978 -0.5881  1.2734
  889MOL0     H19953   3.136   2.710   9.736  1.7914  0.0285 -0.2371
  889MOL0     H19954   3.302   2.677   9.898 -4.4077 -1.8448 -0.5776
  889MOL0     H19955   3.194   2.765   9.998 -1.7295  0.7337 -0.5595
  889MOL0     H19956   3.425   2.910   9.840 -1.4015  3.3708 -1.1300
  889MOL0     H19957   3.319   2.980   9.967 -1.1047 -1.4096  1.8391
  889MOL0     H19958   3.399   2.805  10.114  1.1104 -1.5251 -0.6359
  889MOL0     H19959   3.522   2.754   9.993  2.8883  1.4264  0.1529
  889MOL0     H19960   3.491   3.028  10.109 -0.4071  0.2721 -0.6229
  889MOL0     H19961   3.600   2.907  10.192 -0.8942 -2.2771 -0.9648
  889MOL0     H19962   3.717   3.075  10.051  0.5601  0.2115  0.3133
  889MOL0     H19963   3.637   3.005   9.899  4.3884 -2.1265 -2.1476
  889MOL0     H19964   3.799   2.837  10.091  0.6899  0.3222 -0.4640
  889MOL0     H19965   3.728   2.787   9.933 -2.1968  1.1668  0.3315
  889MOL0     H19966   3.841   2.962   9.724 -0.8757  0.8014  0.4367
  889MOL0     H19967   4.132   3.145   9.676 -1.2952  0.0451  0.7549
  889MOL0     H19968   4.220   2.990   9.667  1.9818  2.1237  1.7383
  889MOL0     H19969   4.019   2.897   9.532  1.1218 -0.6508  1.1537
  889MOL0     H19970   3.945   3.052   9.550 -1.2989 -0.3463 -1.6824
  889MOL0     H19971   4.110   3.154   9.397 -0.7344 -0.5535  1.1591
  889MOL0     H19972   4.031   3.004   9.327  0.4098 -1.0747 -0.5734
  889MOL0     H19973   4.265   3.010   9.262  1.1571 -1.7264 -0.0947
  889MOL0     H19974   4.228   2.868   9.362 -0.3180  0.1666 -1.1943
  889MOL0     H19975   4.450   2.969   9.205  0.9630  0.6762 -0.8615
  889MOL0     H19976   4.670   2.865   9.156 -2.1172  1.0461 -0.5887
  889MOL0     H19977   5.184   2.816   9.385  2.6966  0.5253 -0.4767
  889MOL0     H19978   5.372   2.682   9.308 -0.4040  1.7736  0.6422
  889MOL0     H19979   5.436   2.332   9.461 -1.8649  0.4151 -0.1208
  889MOL0     H19980   5.339   2.236   9.356  1.2177 -0.5493  0.2002
  889MOL0     H19981   5.542   2.126   9.325 -6.1119 -1.8207 -1.5977
  889MOL0     H19982   5.493   2.203   9.180 -1.3733  1.0746  0.2876
  889MOL0     H19983   5.733   2.227   9.233 -1.8909 -2.0900  2.3044
  889MOL0     H19984   5.648   2.398   9.230 -0.6918  1.5821  1.3183
  889MOL0     H19985   5.709   2.238   9.479 -0.9124 -0.6585 -0.0720
  889MOL0     H19986   5.651   2.397   9.472 -0.5786 -1.6497  3.2723
  889MOL0     H19987   5.854   2.468   9.314  1.3231 -0.0674 -1.1108
  889MOL0     H19988   5.919   2.304   9.343 -1.0396  0.1430 -1.5050
  889MOL0     H19989   5.868   2.479   9.585 -3.0082 -1.1342 -1.3380
  889MOL0     H19990   5.949   2.332   9.573 -0.6315 -1.0764 -0.6810
  889MOL0     H19991   6.099   2.451   9.376  1.0217 -2.5262  0.6755
  889MOL0     H19992   6.146   2.468   9.546  0.7727  0.0665 -1.5870
  889MOL0     H19993   6.151   2.680   9.435 -0.5129  0.1477  0.1595
  889MOL0     H19994   5.975   2.674   9.423  1.5983  0.5131 -1.3846
  889MOL0     H19995   5.108   2.334   9.331  1.5516 -1.6740  1.8947
  889MOL0     H19996   4.931   2.480   9.404  0.3037 -0.6093 -0.5291
  889MOL0     H19997   4.749   2.838   9.575  1.4590 -2.4316 -0.6361
  889MOL0     H19998   4.536   2.952   9.617  0.3541 -1.7816  0.1291
  889MOL0     H19999   2.744   2.842  10.006  1.2791  0.4966  0.8398
  889MOL0     H20000   2.538   2.737   9.930  1.5865 -2.4410  3.3884
  889MOL0     H20001   2.299   2.525   9.803 -1.2258  3.0699 -1.6048
  889MOL0     H20002   2.140   2.353   9.841  0.0608 -1.9619  0.2396
  889MOL0     H20003   2.031   2.028   9.511 -2.1708 -0.3853 -0.0900
  889MOL0     H20004   1.967   2.180   9.461 -2.1957 -0.0910 -0.0631
  889MOL0     H20005   1.782   2.047   9.512 -2.3380  2.8928  0.4555
  889MOL0     H20006   1.796   2.175   9.632 -0.4056  0.3876 -1.3805
  889MOL0     H20007   1.872   2.015   9.795 -1.8208  2.1206  0.2095
  889MOL0     H20008   1.897   1.885   9.683  1.8627  1.6501  1.8173
  889MOL0     H20009   1.660   1.877   9.632  1.6013 -1.1894 -0.6604
  889MOL0     H20010   1.695   1.858   9.811  2.9961  1.6795  0.0932
  889MOL0     H20011   1.446   2.200   9.819 -0.4627 -0.9670  0.9509
  889MOL0     H20012   2.210   2.181   9.451 -0.0825  2.6622 -1.6606
  889MOL0     H20013   2.518   2.307   9.423  0.6344  1.5306 -0.0662
  889MOL0     H20014   2.388   2.259   9.311  3.3667 -0.0242 -2.3362
  889MOL0     H20015   2.443   2.430   9.331  2.7990 -1.2198  0.4567
  890MOL0     O20016   7.476   7.711   3.723  0.2658  0.5666  0.0816
  890MOL0     C20017   7.410   7.694   3.827 -0.6703  0.5680  0.4026
  890MOL0     O20018   7.458   7.712   3.956 -0.9683  0.7643  0.3230
  890MOL0     C20019   7.573   7.783   3.962 -0.2049 -0.9853  0.5485
  890MOL0     C20020   7.706   7.716   3.967 -0.3990  0.4430 -0.7577
  890MOL0     C20021   7.823   7.794   3.983 -0.1895  0.7847  1.0196
  890MOL0     C20022   7.811   7.931   3.972  0.2212  0.0516 -0.1656
  890MOL0     O20023   7.910   8.025   3.986 -0.2214  0.1141  0.0731
  890MOL0     C20024   8.050   7.992   3.955  0.2968  0.3562 -0.0741
  890MOL0     C20025   8.122   8.125   3.987  0.0524 -0.5907  0.2418
  890MOL0     C20026   8.269   8.097   3.998  0.6095 -0.0946 -0.0239
  890MOL0     C20027   8.345   8.229   4.040 -1.1630 -0.8059  0.6621
  890MOL0     C20028   8.497   8.199   4.005 -0.0352  0.2442 -0.2053
  890MOL0     C20029   8.577   8.328   4.026  0.3469  0.0678  0.1622
  890MOL0     C20030   8.723   8.314   3.982 -0.7296 -0.7969  0.2905
  890MOL0     C20031   8.751   8.293   3.837 -0.2654  0.2354  0.9985
  890MOL0     N20032   8.733   8.416   3.762 -0.3220 -0.2721  0.4208
  890MOL0     C20033   8.826   8.516   3.734  0.4716 -0.1550 -0.2440
  890MOL0     C20034   8.774   8.597   3.646  0.5204  0.3749  0.8102
  890MOL0     C20035   8.829   8.719   3.578  0.5189 -0.2944  0.4721
  890MOL0     C20036   8.850   8.842   3.677  0.4662 -0.6683  1.1286
  890MOL0     C20037   8.885   8.976   3.593  0.0143 -0.3116  0.5457
  890MOL0     C20038   8.943   9.083   3.675 -0.2450 -1.0374 -0.3356
  890MOL0     O20039   8.866   9.113   3.794 -0.5420 -0.2844  0.4324
  890MOL0     C20040   8.932   9.203   3.875  0.1354 -0.5316  0.1199
  890MOL0     C20041   9.047   9.284   3.844 -0.3836  0.0617  0.2226
  890MOL0     C20042   9.103   9.375   3.940  0.6301 -0.7634 -0.3979
  890MOL0     C20043   9.044   9.390   4.068 -0.0907 -0.3368  1.1892
  890MOL0     C20044   9.101   9.483   4.162  0.8158  0.4082 -0.1962
  890MOL0     O20045   9.209   9.561   4.114 -0.0505 -0.2824  0.3288
  890MOL0     C20046   9.257   9.655   4.199  0.3055  0.2164  0.6201
  890MOL0     C20047   9.228   9.782   4.156  0.1230 -0.8242  0.1382
  890MOL0     C20048   9.287   9.895   4.223  0.7472 -0.2726  0.4268
  890MOL0     C20049   9.355   9.876   4.341  0.3757 -0.2309 -0.6565
  890MOL0     O20050   9.417   9.994   4.382  0.3802  0.4763 -1.2022
  890MOL0     C20051   9.495   9.966   4.505 -0.4445  0.0393  0.2834
  890MOL0     C20052   9.581  10.093   4.537  0.0105  0.0355  0.5145
  890MOL0     C20053   9.682  10.131   4.430  0.3437 -0.3787  0.9723
  890MOL0     C20054   9.788  10.023   4.423 -0.2459 -0.8814 -0.7192
  890MOL0     C20055   9.904  10.057   4.324 -0.1656  0.4100 -0.8692
  890MOL0     C20056  10.016   9.945   4.321 -0.4908 -0.4953  0.1840
  890MOL0     C20057  10.095   9.939   4.192 -0.0768 -0.2820  0.4793
  890MOL0     C20058  10.219   9.852   4.192  0.6046  0.4531  0.7179
  890MOL0    Cl20059  10.339   9.923   4.307 -0.0350 -0.2245  0.2830
  890MOL0     C20060   9.378   9.749   4.389 -0.9283 -0.2144  0.0045
  890MOL0     C20061   9.326   9.632   4.319 -0.8230  1.1368  0.5147
  890MOL0     O20062   9.056   9.481   4.279 -0.6654  0.0676  0.4996
  890MOL0     C20063   8.933   9.302   4.100  0.2697  0.6558 -0.6290
  890MOL0     C20064   8.885   9.219   4.005  0.4006  0.3332 -0.1810
  890MOL0     N20065   8.640   8.561   3.641  0.7266  1.2220  0.0426
  890MOL0     N20066   8.617   8.452   3.707  0.3403  0.2639  0.3835
  890MOL0     C20067   7.681   7.993   3.977 -0.2268 -0.4263 -0.1367
  890MOL0     C20068   7.572   7.920   3.968  0.0660  0.3834  0.1893
  890MOL0     C20069   7.287   7.622   3.838  0.2258 -0.9950  0.6355
  890MOL0     C20070   7.175   7.682   3.895 -0.0434 -0.8619  0.1116
  890MOL0     C20071   7.052   7.616   3.893  0.1138 -0.4981  0.0246
  890MOL0     C20072   7.036   7.488   3.835 -0.3021 -0.8690 -1.2217
  890MOL0     O20073   6.909   7.445   3.840 -0.3171  0.4413  0.8652
  890MOL0     C20074   6.845   7.470   3.711 -0.0741 -0.4189  1.1557
  890MOL0     C20075   6.779   7.336   3.653 -1.1057  0.1573  0.3545
  890MOL0     C20076   6.887   7.247   3.595 -0.2689  0.0211 -0.0078
  890MOL0     C20077   6.831   7.140   3.506  0.1084  0.6275  0.2829
  890MOL0     C20078   6.723   7.067   3.568  0.2977  0.5977  0.2787
  890MOL0     C20079   6.632   7.001   3.618  0.1324  0.5553  0.3259
  890MOL0     C20080   7.147   7.423   3.781  0.7255 -0.6918  0.2478
  890MOL0     C20081   7.268   7.496   3.784 -0.2969  0.2590  0.7771
  890MOL0     C20082   7.392   7.425   3.731  1.5074 -0.1897 -0.0385
  890MOL0     H20083   7.715   7.608   3.975 -0.6998  0.4329 -0.5157
  890MOL0     H20084   7.921   7.748   3.991  0.3944  2.0098  1.0578
  890MOL0     H20085   8.088   7.909   4.016  0.6359  1.8847  1.8866
  890MOL0     H20086   8.056   7.963   3.850 -3.6257  0.1423 -0.3922
  890MOL0     H20087   8.092   8.165   4.084  3.0547 -1.2123  1.5289
  890MOL0     H20088   8.118   8.201   3.909  3.9228  2.2258  2.4512
  890MOL0     H20089   8.295   8.055   3.901 -0.9257 -1.4059  0.0818
  890MOL0     H20090   8.290   8.026   4.079  1.6332  1.5122  1.1775
  890MOL0     H20091   8.298   8.301   3.972 -0.9277 -1.8697 -0.6742
  890MOL0     H20092   8.332   8.269   4.141 -2.3866  2.8890 -0.7813
  890MOL0     H20093   8.529   8.129   4.082 -4.9302 -2.0924  0.0980
  890MOL0     H20094   8.510   8.161   3.904  1.1048 -0.9263  0.3624
  890MOL0     H20095   8.524   8.408   3.974 -0.2110 -1.4501 -1.7187
  890MOL0     H20096   8.576   8.354   4.132 -1.4672 -0.4069  0.2874
  890MOL0     H20097   8.773   8.234   4.038 -1.7411 -0.4870  1.6949
  890MOL0     H20098   8.762   8.411   4.011 -2.1474 -0.2356  0.3790
  890MOL0     H20099   8.850   8.252   3.813 -0.8109  0.7965 -2.8011
  890MOL0     H20100   8.677   8.221   3.801  0.7405  0.3872 -1.5899
  890MOL0     H20101   8.922   8.527   3.783 -0.5102  0.1292  1.7053
  890MOL0     H20102   8.918   8.685   3.525 -0.2637 -1.8232  0.0760
  890MOL0     H20103   8.759   8.765   3.507 -0.9090 -0.6129  1.6068
  890MOL0     H20104   8.757   8.866   3.730  0.6728 -0.4370  1.3861
  890MOL0     H20105   8.932   8.833   3.749  2.7600  2.4950 -0.8548
  890MOL0     H20106   8.797   9.009   3.537  1.0325 -0.7685 -1.3965
  890MOL0     H20107   8.965   8.944   3.526 -1.5771 -1.3802 -0.9227
  890MOL0     H20108   8.963   9.172   3.615  0.0545 -1.5119 -0.9530
  890MOL0     H20109   9.043   9.046   3.701  0.5646  2.3619  2.2141
  890MOL0     H20110   9.107   9.267   3.756  0.2138  2.9954 -0.0392
  890MOL0     H20111   9.191   9.429   3.908 -0.2592 -0.0801 -1.7798
  890MOL0     H20112   9.164   9.800   4.070 -0.9170  1.6297  1.3372
  890MOL0     H20113   9.269   9.997   4.189  1.7461  0.0476  0.8095
  890MOL0     H20114   9.434   9.960   4.595 -0.6006  1.3905  0.2997
  890MOL0     H20115   9.574   9.891   4.512  0.3358  0.9681  3.8710
  890MOL0     H20116   9.507  10.173   4.540 -1.7486 -1.4547 -0.5388
  890MOL0     H20117   9.630  10.081   4.634 -0.4267 -1.5785  0.5586
  890MOL0     H20118   9.635  10.146   4.332  1.3455  1.6098  0.7508
  890MOL0     H20119   9.730  10.228   4.444  1.4619 -0.6204 -0.7872
  890MOL0     H20120   9.737   9.933   4.389  1.1329 -0.8607 -3.0774
  890MOL0     H20121   9.819  10.027   4.527 -2.4421  4.9856  0.0825
  890MOL0     H20122   9.956  10.149   4.354 -0.8350  1.5997 -3.0973
  890MOL0     H20123   9.865  10.087   4.226 -0.6531 -0.2209 -0.8719
  890MOL0     H20124  10.079   9.967   4.407 -1.5519 -1.6612  1.3050
  890MOL0     H20125   9.976   9.845   4.338  0.0582 -0.5795  1.0153
  890MOL0     H20126  10.135  10.038   4.167  0.3044 -0.5067  0.2003
  890MOL0     H20127  10.026   9.904   4.115  1.9981  0.9562 -2.0616
  890MOL0     H20128  10.185   9.749   4.206 -4.4958  1.7553 -0.0865
  890MOL0     H20129  10.273   9.850   4.097  0.1122  0.8538  0.4234
  890MOL0     H20130   9.418   9.723   4.486  1.1078 -0.1962 -0.7753
  890MOL0     H20131   9.332   9.527   4.347 -3.2433  0.5782 -0.7330
  890MOL0     H20132   8.881   9.305   4.195  0.0082 -0.9348 -0.6985
  890MOL0     H20133   8.797   9.163   4.036 -1.2281  0.9834 -3.2571
  890MOL0     H20134   7.680   8.101   3.980 -1.9398 -0.4289  0.7102
  890MOL0     H20135   7.474   7.966   3.974 -0.2347  0.6107 -3.8750
  890MOL0     H20136   7.170   7.775   3.950  0.1675 -1.8390  1.8715
  890MOL0     H20137   6.976   7.675   3.944  0.0185  0.7218 -1.4568
  890MOL0     H20138   6.913   7.501   3.631 -0.3352 -2.0158  0.2848
  890MOL0     H20139   6.764   7.541   3.732  1.4298  1.8737 -0.3477
  890MOL0     H20140   6.708   7.359   3.574 -2.4782 -2.4035  0.7376
  890MOL0     H20141   6.714   7.291   3.728 -2.3950 -0.5644 -1.1471
  890MOL0     H20142   6.961   7.210   3.666  0.2162 -0.4601 -0.7452
  890MOL0     H20143   6.944   7.310   3.526  0.6824  1.3705  1.9226
  890MOL0     H20144   6.800   7.188   3.413 -1.9535 -0.5467  0.3074
  890MOL0     H20145   6.910   7.066   3.485 -1.9006 -2.1500  1.8767
  890MOL0     H20146   6.551   6.939   3.650  1.2666 -2.2329 -1.8737
  890MOL0     H20147   7.141   7.326   3.732 -0.4754 -1.2718  1.4585
  890MOL0     H20148   7.363   7.324   3.699  0.0693 -0.4665  1.8886
  890MOL0     H20149   7.425   7.477   3.641  0.1187  1.4475  0.3387
  890MOL0     H20150   7.469   7.407   3.807  0.4816  1.0090  1.3412
  891MOL0     O20151  11.161   4.859   0.872 -0.3737  0.0552  0.2453
  891MOL0     C20152  11.249   4.846   0.788 -0.4465 -0.6808  0.9154
  891MOL0     O20153  11.383   4.836   0.813  0.1310 -0.1827  0.1026
  891MOL0     C20154  11.426   4.888   0.929 -0.3057  1.1186 -0.2127
  891MOL0     C20155  11.527   4.816   0.993 -0.5761 -0.9339 -0.3369
  891MOL0     C20156  11.599   4.870   1.093 -0.9070 -0.5000  0.2868
  891MOL0     C20157  11.559   4.986   1.157  0.0925  0.4303  0.7555
  891MOL0     O20158  11.643   5.052   1.249  0.9075 -0.2623 -0.4423
  891MOL0     C20159  11.661   4.974   1.363 -0.2593 -0.3690 -0.9593
  891MOL0     C20160  11.724   5.065   1.460  0.1668  0.8932 -0.8142
  891MOL0     C20161  11.781   4.992   1.582  0.6185 -0.3073  0.6548
  891MOL0     C20162  11.923   4.943   1.561 -0.5405  0.9510 -1.3371
  891MOL0     C20163  11.971   4.864   1.683 -0.0415  0.9324  0.0560
  891MOL0     C20164  12.115   4.812   1.677  0.3459  1.1503  0.5382
  891MOL0     C20165  12.159   4.740   1.800 -0.1760  0.4435  0.6048
  891MOL0     C20166  12.113   4.803   1.933 -0.5413  0.1073  0.7374
  891MOL0     N20167  12.171   4.718   2.033  0.3587 -0.2180 -0.0818
  891MOL0     C20168  12.304   4.724   2.075 -0.3179 -0.2156  0.3959
  891MOL0     C20169  12.304   4.666   2.193 -1.0171 -0.0962 -0.2137
  891MOL0     C20170  12.428   4.637   2.283 -0.1351 -0.0461 -0.5247
  891MOL0     C20171  12.404   4.541   2.391  0.3673  0.8336 -0.5673
  891MOL0     C20172  12.436   4.397   2.358 -0.0304 -0.5635  0.0337
  891MOL0     C20173  12.566   4.351   2.414  0.0642 -0.1083 -0.5868
  891MOL0     O20174  12.584   4.219   2.385  0.7165 -1.1983 -0.4423
  891MOL0     C20175  12.671   4.199   2.280  0.3407 -0.4587  0.3197
  891MOL0     C20176  12.745   4.081   2.286  1.0765  0.2275 -0.2425
  891MOL0     C20177  12.846   4.054   2.195  0.5710 -0.1095  0.2118
  891MOL0     C20178  12.876   4.143   2.097 -0.0939  0.6549 -0.0653
  891MOL0     C20179  13.002   4.114   2.016 -0.1589 -0.0957 -0.4456
  891MOL0     O20180  13.096   4.029   2.076 -0.0576  0.2882 -0.0954
  891MOL0     C20181  13.194   3.969   2.002 -0.4912 -0.8417  0.1810
  891MOL0     C20182  13.179   3.847   1.955 -0.3169  0.0249  0.5366
  891MOL0     C20183  13.283   3.783   1.890  0.5404 -0.9050  0.2855
  891MOL0     C20184  13.412   3.847   1.881 -0.3470 -0.7739  0.2379
  891MOL0     O20185  13.513   3.778   1.824 -0.1869 -0.3917 -0.5839
  891MOL0     C20186  13.613   3.852   1.750 -0.0939  0.0988  0.5936
  891MOL0     C20187  13.682   3.773   1.641  0.3930  0.5296 -1.1421
  891MOL0     C20188  13.595   3.697   1.534 -0.0584  0.2515  0.8929
  891MOL0     C20189  13.497   3.798   1.475 -0.1776 -0.0004  0.5117
  891MOL0     C20190  13.418   3.750   1.346  0.7841 -0.2556  0.5101
  891MOL0     C20191  13.284   3.825   1.310  0.1976 -0.9679 -0.3397
  891MOL0     C20192  13.227   3.780   1.182  0.0679 -0.7777  0.1583
  891MOL0     C20193  13.306   3.828   1.049  0.1855 -0.0285  0.2550
  891MOL0    Cl20194  13.275   3.998   1.020 -0.0579 -0.0759  0.0124
  891MOL0     C20195  13.433   3.976   1.947 -0.1449 -0.5360 -0.4172
  891MOL0     C20196  13.324   4.035   2.001  0.3471  0.3471  0.3887
  891MOL0     O20197  13.013   4.170   1.909 -0.4932  0.0755  0.2030
  891MOL0     C20198  12.799   4.256   2.078 -0.1302 -0.0635 -0.0557
  891MOL0     C20199  12.701   4.292   2.175 -0.5376  0.4849  0.1832
  891MOL0     N20200  12.176   4.643   2.226  0.1402  0.4913  0.1264
  891MOL0     N20201  12.092   4.667   2.134 -0.4629 -0.3961  0.5171
  891MOL0     C20202  11.447   5.052   1.110 -0.5148 -0.8794  0.1580
  891MOL0     C20203  11.384   5.009   0.987  0.7340  0.0366 -0.5914
  891MOL0     C20204  11.211   4.819   0.646 -0.6260  0.1050 -0.1852
  891MOL0     C20205  11.302   4.734   0.568  0.7517 -0.4345 -1.1677
  891MOL0     C20206  11.293   4.714   0.438  0.1445 -0.3542  0.5298
  891MOL0     C20207  11.186   4.765   0.369  0.0375 -0.0585 -0.8696
  891MOL0     O20208  11.162   4.764   0.234 -1.2514  0.4735 -0.2477
  891MOL0     C20209  11.272   4.702   0.153 -0.9561  0.2301  0.2454
  891MOL0     C20210  11.383   4.805   0.117  0.1128 -0.8936  0.3358
  891MOL0     C20211  11.349   4.950   0.139 -0.0853 -0.7427  0.8914
  891MOL0     C20212  11.458   5.041   0.079  0.4370  0.3210 -0.0560
  891MOL0     C20213  11.413   5.171   0.048  0.3665 -0.0386 -0.4318
  891MOL0     C20214  11.378   5.282   0.024  0.0776  1.4243 -0.1864
  891MOL0     C20215  11.084   4.832   0.444 -0.1420 -0.3114  0.8017
  891MOL0     C20216  11.095   4.861   0.581  0.8765  0.1103  0.3292
  891MOL0     C20217  10.980   4.945   0.635 -0.1522 -0.5336  0.1491
  891MOL0     H20218  11.565   4.721   0.960  1.4184 -0.3724  0.2217
  891MOL0     H20219  11.679   4.811   1.136 -1.2194 -0.3678  1.0691
  891MOL0     H20220  11.564   4.930   1.387 -1.2547  2.4830  0.6756
  891MOL0     H20221  11.729   4.889   1.345 -1.8671 -1.6202 -1.3261
  891MOL0     H20222  11.650   5.137   1.493 -1.0525 -0.2650 -0.9474
  891MOL0     H20223  11.809   5.118   1.416  2.4758  0.4332  2.7118
  891MOL0     H20224  11.719   4.905   1.603  0.9123 -1.3857 -2.4398
  891MOL0     H20225  11.777   5.061   1.667 -4.4822 -0.1735  0.6117
  891MOL0     H20226  11.925   4.888   1.467  1.9156  1.0299 -1.3887
  891MOL0     H20227  11.990   5.028   1.546  1.0620 -0.5132 -2.8118
  891MOL0     H20228  11.970   4.928   1.772  1.7214 -2.7659  3.0540
  891MOL0     H20229  11.902   4.781   1.702  2.2956 -0.6990  2.1473
  891MOL0     H20230  12.123   4.737   1.598  1.2271  0.2203  1.4695
  891MOL0     H20231  12.187   4.890   1.651  1.5602  0.2092  0.9840
  891MOL0     H20232  12.268   4.736   1.797  0.0239  3.4906  1.1593
  891MOL0     H20233  12.118   4.639   1.786  2.2350 -0.4874 -0.2787
  891MOL0     H20234  12.157   4.903   1.944 -2.7180  0.9400  2.6796
  891MOL0     H20235  12.004   4.797   1.940 -0.4796  0.0160  1.8835
  891MOL0     H20236  12.389   4.769   2.025  0.7701 -1.1795  1.3054
  891MOL0     H20237  12.517   4.616   2.224  0.3394  1.7322 -0.4925
  891MOL0     H20238  12.470   4.727   2.330  1.8024 -1.2312  0.1303
  891MOL0     H20239  12.464   4.557   2.480  1.4577 -1.3215 -0.8637
  891MOL0     H20240  12.299   4.538   2.422  0.6688 -2.2985  0.4672
  891MOL0     H20241  12.442   4.401   2.249  0.8510  2.4091  0.1279
  891MOL0     H20242  12.355   4.329   2.388  0.9287 -0.8948  2.0576
  891MOL0     H20243  12.559   4.358   2.523 -1.4647 -1.4984 -0.5566
  891MOL0     H20244  12.645   4.419   2.380 -0.3284  1.8567  2.0837
  891MOL0     H20245  12.720   4.024   2.375 -1.0900 -1.5899 -1.9287
  891MOL0     H20246  12.900   3.960   2.191  0.1377 -0.4723  1.9914
  891MOL0     H20247  13.082   3.798   1.949 -0.0367 -0.5620  0.7501
  891MOL0     H20248  13.264   3.686   1.844  4.2656 -1.6932  0.0080
  891MOL0     H20249  13.562   3.942   1.712  0.3566  1.0054  2.0232
  891MOL0     H20250  13.694   3.893   1.812  1.1842  0.4013 -1.1977
  891MOL0     H20251  13.738   3.855   1.595  0.5591 -0.4204 -2.7020
  891MOL0     H20252  13.742   3.705   1.701 -2.0421 -2.3406 -1.6956
  891MOL0     H20253  13.664   3.673   1.454 -0.7314  3.5515 -0.8697
  891MOL0     H20254  13.543   3.611   1.578  0.3737 -0.8418 -0.6581
  891MOL0     H20255  13.554   3.888   1.447  0.5763 -1.1616 -2.0003
  891MOL0     H20256  13.420   3.820   1.549 -0.7956 -2.1927  0.5848
  891MOL0     H20257  13.389   3.645   1.355  2.9646 -0.8242  1.5740
  891MOL0     H20258  13.483   3.760   1.259 -1.2099 -0.0894 -1.0469
  891MOL0     H20259  13.218   3.823   1.397  0.4102  1.6427 -0.0422
  891MOL0     H20260  13.302   3.928   1.279  3.8944 -1.7385 -1.1623
  891MOL0     H20261  13.126   3.822   1.172  1.1492  1.6269 -1.8409
  891MOL0     H20262  13.240   3.671   1.184 -0.6163 -0.8559  1.6073
  891MOL0     H20263  13.410   3.794   1.055  0.3503 -0.0427 -1.9190
  891MOL0     H20264  13.266   3.774   0.962 -0.5449 -0.7374  1.0121
  891MOL0     H20265  13.533   4.019   1.953 -0.0004 -1.0202  0.8717
  891MOL0     H20266  13.334   4.124   2.062 -3.1026  1.6108 -0.6344
  891MOL0     H20267  12.826   4.331   2.005  1.6779 -0.9553 -0.3757
  891MOL0     H20268  12.645   4.384   2.164 -1.0652  0.3028  1.1568
  891MOL0     H20269  11.405   5.145   1.147 -1.7744 -1.9836  1.6148
  891MOL0     H20270  11.314   5.079   0.942  1.3471  0.0435 -1.5578
  891MOL0     H20271  11.387   4.685   0.613  0.8684 -0.1072 -1.0265
  891MOL0     H20272  11.365   4.650   0.389 -0.7008 -0.3075 -0.8517
  891MOL0     H20273  11.211   4.665   0.071 -0.0537  1.5453 -1.0624
  891MOL0     H20274  11.320   4.613   0.195  0.4503  1.0668  0.4983
  891MOL0     H20275  11.402   4.795   0.010 -0.2412  0.0382  0.1793
  891MOL0     H20276  11.474   4.794   0.178  1.3438 -0.0069 -1.2652
  891MOL0     H20277  11.328   4.972   0.244 -3.4319 -0.0792  0.1826
  891MOL0     H20278  11.252   4.964   0.090  0.1507 -3.4375 -0.5475
  891MOL0     H20279  11.530   5.047   0.161  0.5874 -0.3431 -0.1291
  891MOL0     H20280  11.492   5.002  -0.017 -1.9768  1.4175 -1.4375
  891MOL0     H20281  11.342   5.382   0.009 -1.9586  0.8389  0.4299
  891MOL0     H20282  11.000   4.868   0.386 -1.0754  0.8152  2.7480
  891MOL0     H20283  11.018   5.021   0.705 -0.7064  1.6811 -1.8163
  891MOL0     H20284  10.948   5.015   0.557 -0.5430 -0.3258  0.4940
  891MOL0     H20285  10.895   4.893   0.679  1.0128 -1.2096  1.7207
  892MOL0     O20286   0.880   9.529  10.649 -0.2611 -0.2115  0.4733
  892MOL0     C20287   0.890   9.542  10.768  0.1189 -0.6554  0.4677
  892MOL0     O20288   1.008   9.568  10.828 -0.6428 -0.8051 -0.7025
  892MOL0     C20289   1.134   9.523  10.779 -0.3724  0.5251 -0.4650
  892MOL0     C20290   1.243   9.570  10.845  0.1957  0.3120 -0.1720
  892MOL0     C20291   1.375   9.535  10.789 -0.3710  0.2768  0.7582
  892MOL0     C20292   1.391   9.443  10.685 -0.8139  0.5067  0.5676
  892MOL0     O20293   1.509   9.408  10.626  0.3179 -0.2713 -0.2336
  892MOL0     C20294   1.605   9.519  10.619  0.2913 -0.8259  0.7847
  892MOL0     C20295   1.688   9.490  10.491  1.1199 -0.6486 -0.8259
  892MOL0     C20296   1.798   9.601  10.467  1.0835 -0.3296  0.2251
  892MOL0     C20297   1.910   9.553  10.384  0.4124  0.5067  0.6687
  892MOL0     C20298   2.010   9.664  10.373  0.4088 -0.8628  0.2074
  892MOL0     C20299   2.085   9.678  10.504  0.0823 -0.0872  0.1802
  892MOL0     C20300   2.198   9.781  10.482  0.4336 -0.4786 -0.2442
  892MOL0     C20301   2.276   9.815  10.612  0.3741 -0.0044 -0.0019
  892MOL0     N20302   2.378   9.712  10.637 -1.2510 -0.2076  0.2932
  892MOL0     C20303   2.493   9.721  10.564 -0.3564  0.6333  0.3096
  892MOL0     C20304   2.550   9.596  10.574  0.7540  0.0944  0.7772
  892MOL0     C20305   2.656   9.537  10.482  0.5405  0.8258  0.5343
  892MOL0     C20306   2.791   9.511  10.554  0.6501 -0.3140 -0.3868
  892MOL0     C20307   2.859   9.648  10.593 -0.7810 -0.6700  0.0912
  892MOL0     C20308   2.875   9.755  10.489  0.2374  1.1759  0.2125
  892MOL0     O20309   2.783   9.865  10.499 -0.3956 -0.0114 -0.1071
  892MOL0     C20310   2.787   9.965  10.405  0.5694 -0.6371 -0.8751
  892MOL0     C20311   2.887   9.978  10.314 -0.0462 -0.3663  0.5396
  892MOL0     C20312   2.882  10.082  10.216 -0.2841 -0.1674 -0.4678
  892MOL0     C20313   2.788  10.184  10.224 -0.6007  0.0645  0.1193
  892MOL0     C20314   2.788  10.285  10.129 -0.3360  0.1675  0.3491
  892MOL0     O20315   2.689  10.385  10.145 -0.1708 -0.0325 -0.1076
  892MOL0     C20316   2.686  10.491  10.058  1.1659  0.1696  0.0895
  892MOL0     C20317   2.760  10.607  10.079  0.0562  0.0465 -0.2637
  892MOL0     C20318   2.757  10.706   9.983  1.0390 -0.4650  0.3303
  892MOL0     C20319   2.685  10.693   9.866 -0.6188 -0.4205 -0.6532
  892MOL0     O20320   2.668  10.796   9.771 -0.0573 -0.1599 -0.7244
  892MOL0     C20321   2.781  10.889   9.755  0.7279  0.4249  0.5163
  892MOL0     C20322   2.743  10.977   9.628  0.0843 -0.0691 -0.3461
  892MOL0     C20323   2.755  10.910   9.489 -0.1896  0.2017  0.2677
  892MOL0     C20324   2.635  10.825   9.446 -0.5820  0.3531 -0.5922
  892MOL0     C20325   2.631  10.785   9.294 -0.0208  0.1538 -0.6287
  892MOL0     C20326   2.557  10.663   9.264  0.8238  0.4354 -0.1552
  892MOL0     C20327   2.576  10.638   9.114 -0.0236  0.5551 -0.5000
  892MOL0     C20328   2.458  10.689   9.023 -0.7116  0.0183  0.5715
  892MOL0    Cl20329   2.316  10.589   9.021  0.2540 -0.4067  0.1978
  892MOL0     C20330   2.598  10.586   9.845  0.4730  0.2603  0.9604
  892MOL0     C20331   2.600  10.491   9.946  0.1031  0.2884  0.9786
  892MOL0     O20332   2.871  10.283  10.035 -0.7860  0.3122  0.3516
  892MOL0     C20333   2.693  10.170  10.328  0.8895 -0.5856 -0.5401
  892MOL0     C20334   2.681  10.056  10.397 -0.2181 -0.2524 -0.9072
  892MOL0     N20335   2.476   9.519  10.665 -0.6720  0.0318 -0.6305
  892MOL0     N20336   2.375   9.591  10.705  0.3884  0.3517  0.4341
  892MOL0     C20337   1.274   9.386  10.628  0.1815  1.0593 -1.3739
  892MOL0     C20338   1.149   9.433  10.678  0.1434 -0.1166  0.3953
  892MOL0     C20339   0.767   9.534  10.847  0.3745 -0.1503 -0.1636
  892MOL0     C20340   0.643   9.520  10.780  0.5713  0.4158 -0.5386
  892MOL0     C20341   0.521   9.503  10.853 -0.6581 -0.0032  0.1068
  892MOL0     C20342   0.521   9.470  10.987 -0.7410  1.1931  0.2051
  892MOL0     O20343   0.417   9.413  11.059  0.4532 -0.3583 -0.3071
  892MOL0     C20344   0.296   9.371  10.984  0.4144 -0.2750  0.3484
  892MOL0     C20345   0.199   9.317  11.089 -0.1371 -0.0614  0.3115
  892MOL0     C20346   0.068   9.272  11.035 -0.2486  0.0420  0.6757
  892MOL0     C20347  -0.016   9.233  11.158 -0.0304  0.8494 -0.1214
  892MOL0     C20348  -0.054   9.346  11.249 -0.3544 -0.1470  0.3805
  892MOL0     C20349  -0.107   9.439  11.304  0.3744 -0.5468 -0.7734
  892MOL0     C20350   0.639   9.484  11.057 -1.0549 -0.4944  0.3197
  892MOL0     C20351   0.762   9.525  10.987 -0.4004 -0.5757 -0.9698
  892MOL0     C20352   0.883   9.546  11.075  0.3280 -0.4896  0.6507
  892MOL0     H20353   1.242   9.643  10.926 -2.2796 -0.8902  0.9996
  892MOL0     H20354   1.460   9.580  10.839 -1.9300  1.3760  2.5961
  892MOL0     H20355   1.558   9.614  10.593 -0.0722 -0.7983  1.4974
  892MOL0     H20356   1.663   9.527  10.712  0.6395 -2.3790  0.7312
  892MOL0     H20357   1.624   9.481  10.403 -1.9018  0.2743  1.1216
  892MOL0     H20358   1.725   9.388  10.506 -1.2129 -1.5849 -1.1460
  892MOL0     H20359   1.843   9.641  10.559  1.0025  1.3619 -0.4412
  892MOL0     H20360   1.748   9.692  10.432  0.4705  0.0123  1.8854
  892MOL0     H20361   1.949   9.459  10.424  1.9536  0.6266 -0.4326
  892MOL0     H20362   1.876   9.526  10.283  4.6482 -1.5114 -0.4702
  892MOL0     H20363   2.083   9.651  10.293  1.3124  2.2103  0.4348
  892MOL0     H20364   1.960   9.755  10.340  0.3183 -0.8651  0.3351
  892MOL0     H20365   2.030   9.703  10.594  3.8716  1.7316  2.2174
  892MOL0     H20366   2.114   9.572  10.514  0.2789 -0.6522 -4.2233
  892MOL0     H20367   2.147   9.871  10.448  2.1664  1.5143  2.0496
  892MOL0     H20368   2.270   9.757  10.404 -0.8330 -2.5811 -0.8522
  892MOL0     H20369   2.315   9.917  10.613  1.8504 -0.5134 -0.9964
  892MOL0     H20370   2.214   9.804  10.701  0.0294 -3.2982 -0.5059
  892MOL0     H20371   2.538   9.796  10.501  2.0934  0.5521  1.8581
  892MOL0     H20372   2.625   9.445  10.432  1.4768  0.5784  0.3943
  892MOL0     H20373   2.686   9.608  10.404  1.5744  0.3034  0.4439
  892MOL0     H20374   2.776   9.450  10.644  2.8878 -0.4587 -0.0649
  892MOL0     H20375   2.860   9.450  10.495 -0.9632  1.0992 -4.0301
  892MOL0     H20376   2.965   9.629  10.614  0.1158  0.9319 -2.4777
  892MOL0     H20377   2.818   9.692  10.685 -1.2224 -1.5800  0.3345
  892MOL0     H20378   2.873   9.702  10.393 -3.5616  0.2023  0.6885
  892MOL0     H20379   2.974   9.801  10.494  0.2547  1.1653  0.0002
  892MOL0     H20380   2.970   9.911  10.292 -2.0135 -1.8100 -3.5371
  892MOL0     H20381   2.961  10.077  10.143  0.5169  2.7906  0.0489
  892MOL0     H20382   2.808  10.611  10.176 -0.2670 -0.9764 -0.0520
  892MOL0     H20383   2.810  10.798  10.006  1.9664 -0.9211  0.0792
  892MOL0     H20384   2.795  10.946   9.848  0.1534 -0.9450  1.4837
  892MOL0     H20385   2.866  10.822   9.739 -1.7367 -2.7339 -0.4109
  892MOL0     H20386   2.640  11.012   9.644 -0.6510 -2.0159 -0.5802
  892MOL0     H20387   2.807  11.064   9.643 -0.6499  0.1128  2.1834
  892MOL0     H20388   2.767  10.984   9.409 -2.0111 -2.6724 -2.9395
  892MOL0     H20389   2.843  10.844   9.491  0.0247  0.4833  2.8527
  892MOL0     H20390   2.544  10.884   9.462 -0.9552 -0.6763  1.5815
  892MOL0     H20391   2.627  10.741   9.516 -1.6685  0.1149 -0.9827
  892MOL0     H20392   2.736  10.773   9.268  0.4084 -2.5875  1.9144
  892MOL0     H20393   2.588  10.875   9.248 -0.0705  0.4052 -0.0873
  892MOL0     H20394   2.582  10.582   9.334  0.5771  2.9089  3.0299
  892MOL0     H20395   2.450  10.684   9.272  0.4373 -1.7497  1.4357
  892MOL0     H20396   2.590  10.531   9.100  1.2459  0.5852  0.3381
  892MOL0     H20397   2.667  10.689   9.081  0.1963  0.4027 -0.1445
  892MOL0     H20398   2.416  10.784   9.055 -0.9799  0.6052 -1.3909
  892MOL0     H20399   2.500  10.687   8.922  1.1204  1.5954  1.2569
  892MOL0     H20400   2.524  10.576   9.766  0.4725  0.7326  0.8962
  892MOL0     H20401   2.536  10.404   9.935  0.2180  0.4189 -1.0776
  892MOL0     H20402   2.611  10.242  10.332 -1.1876 -2.8290  1.5572
  892MOL0     H20403   2.596  10.048  10.464 -0.9815  3.9350 -1.1113
  892MOL0     H20404   1.276   9.310  10.551 -0.0545  2.0018 -2.3280
  892MOL0     H20405   1.064   9.400  10.619 -0.5359  0.9057  0.7779
  892MOL0     H20406   0.626   9.521  10.673  2.0253 -2.9137 -0.9184
  892MOL0     H20407   0.426   9.496  10.800 -0.4460  0.2182 -0.3125
  892MOL0     H20408   0.329   9.305  10.903  2.8627  0.7463  0.4243
  892MOL0     H20409   0.267   9.464  10.934  1.6029  1.1228  2.1530
  892MOL0     H20410   0.186   9.409  11.148  1.6530  1.0668 -0.9394
  892MOL0     H20411   0.236   9.236  11.152 -2.6623  0.0382  2.0739
  892MOL0     H20412   0.077   9.193  10.960 -0.0238 -0.8375  1.6145
  892MOL0     H20413   0.025   9.360  10.985 -0.0973  0.0578  0.5703
  892MOL0     H20414  -0.116   9.204  11.124 -0.0932  3.5928 -2.7355
  892MOL0     H20415   0.014   9.141  11.210  0.7393  1.0251 -0.2433
  892MOL0     H20416  -0.151   9.521  11.357  1.9799 -0.2216  0.0952
  892MOL0     H20417   0.644   9.463  11.164  1.7534 -0.8698  0.2089
  892MOL0     H20418   0.930   9.449  11.054 -0.4842 -0.1119 -3.9903
  892MOL0     H20419   0.935   9.637  11.046  0.3679 -0.8506 -0.4356
  892MOL0     H20420   0.866   9.550  11.183 -0.2464  0.9844  0.5243
  893MOL0     O20421   1.448   5.637   5.369  0.8228  0.0112 -0.0034
  893MOL0     C20422   1.444   5.604   5.251 -0.5011  0.2556 -0.4072
  893MOL0     O20423   1.555   5.571   5.174 -0.1474  0.3587  0.1565
  893MOL0     C20424   1.670   5.534   5.247 -0.3758 -0.1865 -0.2759
  893MOL0     C20425   1.677   5.450   5.361  0.4611 -0.5997  0.3571
  893MOL0     C20426   1.794   5.411   5.420 -0.1933 -0.5548  0.7562
  893MOL0     C20427   1.916   5.447   5.360  0.2356  1.3324 -0.3583
  893MOL0     O20428   2.036   5.386   5.389  0.0648 -1.3740 -0.1497
  893MOL0     C20429   2.055   5.331   5.523 -0.1349 -0.6023  0.2648
  893MOL0     C20430   2.205   5.288   5.530  0.2778  0.0809  0.2828
  893MOL0     C20431   2.312   5.378   5.464 -0.9799 -0.1543 -0.3886
  893MOL0     C20432   2.326   5.513   5.538  0.1801  0.3515  0.0814
  893MOL0     C20433   2.451   5.588   5.501  0.6871 -0.3082  0.7524
  893MOL0     C20434   2.459   5.624   5.350 -0.1996  0.6821  0.1689
  893MOL0     C20435   2.583   5.719   5.327 -0.2217 -0.1503 -0.4595
  893MOL0     C20436   2.723   5.648   5.333  0.2084 -0.1728 -0.1156
  893MOL0     N20437   2.718   5.530   5.238  0.6378 -1.2972 -0.0579
  893MOL0     C20438   2.793   5.528   5.127 -1.0257 -0.9236  0.3172
  893MOL0     C20439   2.818   5.401   5.094  0.2012 -0.1648 -0.9354
  893MOL0     C20440   2.907   5.369   4.964 -0.3421 -0.2116  0.5980
  893MOL0     C20441   3.055   5.389   5.009 -0.4712 -0.1683  0.0565
  893MOL0     C20442   3.154   5.316   4.915  0.1155  0.2342  0.6655
  893MOL0     C20443   3.119   5.322   4.764 -0.1610  0.6336 -0.2461
  893MOL0     O20444   3.114   5.452   4.711 -0.3450 -0.9571 -0.1115
  893MOL0     C20445   3.217   5.490   4.631 -0.0545 -0.2606  0.5964
  893MOL0     C20446   3.193   5.536   4.499 -0.0400  0.2672  0.2257
  893MOL0     C20447   3.295   5.580   4.417  0.3889 -0.7883 -0.4128
  893MOL0     C20448   3.428   5.575   4.461 -0.1503 -1.2048 -0.8317
  893MOL0     C20449   3.534   5.640   4.376  0.6020 -0.2652 -0.6249
  893MOL0     O20450   3.657   5.601   4.415  0.2428  0.4207 -0.4398
  893MOL0     C20451   3.779   5.631   4.355 -0.3597  0.0287 -0.8479
  893MOL0     C20452   3.891   5.638   4.435  0.1821  0.6496 -1.0648
  893MOL0     C20453   4.019   5.679   4.393 -0.3176 -0.4924 -0.6945
  893MOL0     C20454   4.042   5.705   4.255  1.1631  0.4407  0.2291
  893MOL0     O20455   4.167   5.752   4.220 -0.1458  0.4406  0.1773
  893MOL0     C20456   4.209   5.752   4.086  0.4575  0.3361  0.4391
  893MOL0     C20457   4.232   5.611   4.034  1.2276  0.2088 -0.2066
  893MOL0     C20458   4.310   5.616   3.908 -0.0032  0.6215 -0.1372
  893MOL0     C20459   4.298   5.489   3.831  0.1804  0.1751  0.4630
  893MOL0     C20460   4.424   5.459   3.751 -1.2654  0.6004 -0.2832
  893MOL0     C20461   4.404   5.362   3.633  0.1356  0.4814 -0.1405
  893MOL0     C20462   4.302   5.406   3.524 -0.2925  0.2288 -0.2049
  893MOL0     C20463   4.318   5.311   3.404  0.2946 -0.5733  0.2221
  893MOL0    Cl20464   4.261   5.155   3.456  0.7081 -0.3369  0.5468
  893MOL0     C20465   3.934   5.699   4.167  0.1744  0.7585  0.0168
  893MOL0     C20466   3.805   5.654   4.216  0.2342  0.3624  0.7090
  893MOL0     O20467   3.506   5.716   4.283  0.1188 -0.8381  0.2700
  893MOL0     C20468   3.459   5.519   4.584 -0.2375  0.4366 -0.5497
  893MOL0     C20469   3.350   5.468   4.665 -0.3910 -1.2445 -0.0982
  893MOL0     N20470   2.760   5.321   5.191  0.3983 -0.0597 -0.0951
  893MOL0     N20471   2.693   5.401   5.279 -1.3014  0.3201 -0.3716
  893MOL0     C20472   1.911   5.517   5.244 -0.7498  0.0707  0.0537
  893MOL0     C20473   1.794   5.566   5.192  0.5890  0.0466  0.1690
  893MOL0     C20474   1.312   5.606   5.184  0.1804  0.0703 -0.3019
  893MOL0     C20475   1.217   5.694   5.232  0.3214  0.0984  0.0099
  893MOL0     C20476   1.093   5.706   5.167 -1.1357 -0.8332  0.1492
  893MOL0     C20477   1.056   5.618   5.064  0.9219 -0.6670 -0.5304
  893MOL0     O20478   0.939   5.638   4.994 -0.2505 -0.4330 -0.7126
  893MOL0     C20479   0.829   5.702   5.057  0.4767  0.1491  0.0856
  893MOL0     C20480   0.696   5.624   5.049 -0.3560 -0.4601 -0.1358
  893MOL0     C20481   0.697   5.488   5.110 -0.5590  1.5608 -0.6312
  893MOL0     C20482   0.572   5.409   5.109  0.5279  0.2490 -0.3168
  893MOL0     C20483   0.593   5.271   5.160 -0.2910 -1.1804 -0.4300
  893MOL0     C20484   0.588   5.158   5.205 -0.3620 -0.1785  0.5287
  893MOL0     C20485   1.152   5.516   5.025  0.9922 -0.5186  0.2208
  893MOL0     C20486   1.272   5.517   5.082 -0.5266  0.7622  0.7758
  893MOL0     C20487   1.361   5.403   5.035 -0.3626  0.1579 -0.7269
  893MOL0     H20488   1.576   5.425   5.393 -1.6810  2.9320 -2.8270
  893MOL0     H20489   1.787   5.360   5.515 -2.3840  1.0394  1.5324
  893MOL0     H20490   2.018   5.404   5.595  0.5524  0.8266 -0.7896
  893MOL0     H20491   1.995   5.241   5.541 -0.9269  0.0373  0.8935
  893MOL0     H20492   2.202   5.198   5.467  0.7933  0.2881 -0.0466
  893MOL0     H20493   2.228   5.262   5.634  2.0240  2.5280  0.5906
  893MOL0     H20494   2.269   5.398   5.365  0.5654  0.3240 -0.9848
  893MOL0     H20495   2.410   5.334   5.444 -1.1372  0.2554 -2.2460
  893MOL0     H20496   2.241   5.579   5.516  0.3869 -0.0899 -2.3859
  893MOL0     H20497   2.332   5.496   5.646 -0.5678  1.5142  0.3247
  893MOL0     H20498   2.452   5.682   5.556 -0.4329  1.9762 -2.7340
  893MOL0     H20499   2.539   5.529   5.527 -2.1427 -3.8324  3.3190
  893MOL0     H20500   2.464   5.534   5.288  0.9136  0.1421  0.9927
  893MOL0     H20501   2.364   5.670   5.320 -0.1429  1.9030  1.7305
  893MOL0     H20502   2.577   5.796   5.405 -3.6429 -1.0236  0.2972
  893MOL0     H20503   2.570   5.764   5.228 -1.1282 -0.0261 -0.2943
  893MOL0     H20504   2.803   5.716   5.302 -2.6283  3.2112 -0.7393
  893MOL0     H20505   2.735   5.623   5.439  0.7495 -3.3968 -0.8603
  893MOL0     H20506   2.832   5.612   5.070  1.6726 -1.2445  1.5149
  893MOL0     H20507   2.887   5.268   4.927 -0.4938  0.0095  0.0675
  893MOL0     H20508   2.878   5.430   4.878 -0.8171 -2.3568 -0.8433
  893MOL0     H20509   3.081   5.495   5.009 -0.9886 -0.0303 -1.0437
  893MOL0     H20510   3.076   5.353   5.110  0.3891  0.0524 -0.0329
  893MOL0     H20511   3.152   5.212   4.949 -1.9935  0.2285  0.6872
  893MOL0     H20512   3.257   5.347   4.937  0.7087 -0.1184 -1.4639
  893MOL0     H20513   3.026   5.269   4.741 -0.1832  0.0202  1.1451
  893MOL0     H20514   3.192   5.262   4.707  0.2031  3.1875 -2.6896
  893MOL0     H20515   3.089   5.541   4.467 -0.3041  0.0422  1.0113
  893MOL0     H20516   3.274   5.631   4.324 -0.0112  1.6991  0.9609
  893MOL0     H20517   3.869   5.605   4.536  0.8946  0.2619 -1.0260
  893MOL0     H20518   4.098   5.690   4.466 -1.2825  0.7766  0.2112
  893MOL0     H20519   4.139   5.806   4.021  1.4448 -2.3642 -3.2008
  893MOL0     H20520   4.302   5.809   4.088 -0.7030  2.3162  1.7512
  893MOL0     H20521   4.289   5.563   4.115 -1.7962  1.2416  2.7290
  893MOL0     H20522   4.143   5.547   4.027  1.3321 -0.2783  2.1317
  893MOL0     H20523   4.266   5.693   3.844 -0.3000  0.6124  0.0537
  893MOL0     H20524   4.415   5.634   3.932  0.2027  2.0173 -1.8627
  893MOL0     H20525   4.215   5.499   3.761  0.0395  1.8698  0.8385
  893MOL0     H20526   4.270   5.403   3.894 -1.2758  1.0262  1.0198
  893MOL0     H20527   4.494   5.412   3.821  0.9034  1.8232 -1.5171
  893MOL0     H20528   4.466   5.552   3.712 -1.6478  0.6944 -0.4782
  893MOL0     H20529   4.504   5.341   3.595 -0.3139  1.1396 -1.7442
  893MOL0     H20530   4.367   5.268   3.674  2.0872 -0.1862  0.1817
  893MOL0     H20531   4.329   5.505   3.487  1.9924  0.8189  2.6527
  893MOL0     H20532   4.202   5.412   3.568 -0.7473 -3.6035 -0.3380
  893MOL0     H20533   4.260   5.348   3.319 -2.2014 -2.1282  1.1398
  893MOL0     H20534   4.424   5.309   3.377 -0.3125 -2.5892 -2.3824
  893MOL0     H20535   3.947   5.712   4.060 -4.0310  0.5465 -0.6948
  893MOL0     H20536   3.720   5.658   4.148  0.3943  2.6351  0.5840
  893MOL0     H20537   3.559   5.508   4.624 -0.7447 -2.2746  0.1850
  893MOL0     H20538   3.366   5.434   4.767 -1.2779 -1.1942  0.0670
  893MOL0     H20539   2.002   5.539   5.190 -2.1147 -0.3060 -2.5354
  893MOL0     H20540   1.791   5.622   5.100  0.5096 -1.0312 -0.5111
  893MOL0     H20541   1.236   5.760   5.316 -0.5244 -0.0672  0.3383
  893MOL0     H20542   1.022   5.778   5.206 -2.0223 -1.8601  0.4816
  893MOL0     H20543   0.827   5.803   5.014 -0.6122  0.5386  1.0019
  893MOL0     H20544   0.849   5.717   5.163  2.4461  0.7802 -0.3282
  893MOL0     H20545   0.676   5.612   4.943 -3.0379 -2.3731  0.4917
  893MOL0     H20546   0.616   5.680   5.100 -2.2210 -1.5671 -1.7379
  893MOL0     H20547   0.726   5.515   5.212 -3.2933  0.7873  0.4455
  893MOL0     H20548   0.772   5.420   5.067 -1.1549 -0.0916  0.7965
  893MOL0     H20549   0.497   5.461   5.170  1.7364  0.8950  0.6511
  893MOL0     H20550   0.537   5.408   5.005 -3.3666  1.4113  0.7975
  893MOL0     H20551   0.601   5.057   5.238  2.3529 -0.5246 -1.2622
  893MOL0     H20552   1.132   5.450   4.941  1.2960  0.0508 -0.3186
  893MOL0     H20553   1.456   5.434   4.989  0.6157 -1.9825 -0.2879
  893MOL0     H20554   1.384   5.352   5.129  2.1032  1.4424 -0.5622
  893MOL0     H20555   1.312   5.327   4.972 -1.3183 -0.2910  0.5112
  894MOL0     O20556  11.209   9.437   5.321  0.2410  0.5957  0.9118
  894MOL0     C20557  11.111   9.442   5.243  0.0943  0.8561 -0.3830
  894MOL0     O20558  11.077   9.356   5.156 -0.2864  0.3663  0.7024
  894MOL0     C20559  11.176   9.265   5.127 -0.1380 -0.5193 -0.8551
  894MOL0     C20560  11.172   9.135   5.176  0.6020 -0.3419 -0.2286
  894MOL0     C20561  11.266   9.032   5.133 -0.0199  0.4117 -0.0203
  894MOL0     C20562  11.375   9.075   5.048 -0.5889 -0.0345  0.4359
  894MOL0     O20563  11.473   8.992   5.008  0.0591 -0.3692  0.2459
  894MOL0     C20564  11.607   9.030   5.017  0.1994  0.0275 -0.4542
  894MOL0     C20565  11.693   8.915   4.973  0.3732 -0.2095  0.2443
  894MOL0     C20566  11.845   8.927   5.002  0.4783  0.7386  1.2799
  894MOL0     C20567  11.894   9.062   4.960 -0.1774  0.4419 -0.4844
  894MOL0     C20568  12.050   9.075   4.956  0.4127 -0.3940  0.8544
  894MOL0     C20569  12.112   9.016   4.831  0.2401  1.3062  0.3173
  894MOL0     C20570  12.254   9.039   4.811  0.4139  0.8025 -0.3976
  894MOL0     C20571  12.345   8.977   4.916  1.0610  0.1484  1.0540
  894MOL0     N20572  12.338   8.825   4.908  0.5600 -0.0112  0.1330
  894MOL0     C20573  12.354   8.753   4.791  0.0952  0.1539 -0.0507
  894MOL0     C20574  12.284   8.640   4.810 -0.3107  0.0960 -0.8147
  894MOL0     C20575  12.261   8.523   4.720  0.5152  1.3350  0.0463
  894MOL0     C20576  12.350   8.403   4.767  0.9885  0.2558  0.9619
  894MOL0     C20577  12.363   8.316   4.642 -0.2958 -0.2962  0.1748
  894MOL0     C20578  12.415   8.180   4.675 -0.2137  0.6114 -0.3802
  894MOL0     O20579  12.527   8.180   4.775  1.3898  0.0259 -0.1616
  894MOL0     C20580  12.653   8.201   4.728 -0.3997  0.9642 -0.9241
  894MOL0     C20581  12.706   8.209   4.596  0.0914  0.1345 -0.1282
  894MOL0     C20582  12.841   8.235   4.579 -0.6988  0.9447  0.4006
  894MOL0     C20583  12.929   8.249   4.688  0.0034  0.3130 -0.3899
  894MOL0     C20584  13.069   8.293   4.664  1.0700 -0.3602 -0.7983
  894MOL0     O20585  13.161   8.291   4.763  0.3540 -0.2920 -0.2717
  894MOL0     C20586  13.290   8.300   4.726 -0.3460  0.0944 -1.0556
  894MOL0     C20587  13.358   8.397   4.655  0.1449 -0.4480  0.4547
  894MOL0     C20588  13.497   8.407   4.637 -0.8397  0.1017 -0.4776
  894MOL0     C20589  13.573   8.298   4.690 -0.0128 -0.7253  0.5603
  894MOL0     O20590  13.706   8.286   4.671 -0.1046  0.2788  0.3785
  894MOL0     C20591  13.757   8.257   4.537  0.1671 -0.5176 -0.7370
  894MOL0     C20592  13.743   8.111   4.490  0.4348 -0.3299  0.2653
  894MOL0     C20593  13.819   8.012   4.584  0.0544 -1.2607 -0.5097
  894MOL0     C20594  13.819   7.879   4.524  0.0977 -0.6386 -0.6630
  894MOL0     C20595  13.905   7.780   4.607  0.0549 -0.4449  0.0844
  894MOL0     C20596  13.900   7.638   4.541  0.3770  0.4211  0.2692
  894MOL0     C20597  13.983   7.539   4.633 -0.6165  0.0836  0.1608
  894MOL0     C20598  13.977   7.390   4.589 -0.8390  0.0216 -0.0277
  894MOL0    Cl20599  13.978   7.366   4.413 -0.2578  0.5538 -0.2262
  894MOL0     C20600  13.514   8.193   4.758 -0.0467 -0.2015  0.7872
  894MOL0     C20601  13.372   8.201   4.776 -1.3779 -0.1348  0.0528
  894MOL0     O20602  13.100   8.298   4.544  0.6799 -0.6161  0.0986
  894MOL0     C20603  12.880   8.251   4.817  0.6188 -0.5043 -0.1141
  894MOL0     C20604  12.744   8.209   4.835  0.1457 -1.0513  0.6022
  894MOL0     N20605  12.220   8.648   4.934 -0.2268 -0.2020  0.4526
  894MOL0     N20606  12.251   8.760   4.988 -0.2628 -0.2940  0.2203
  894MOL0     C20607  11.377   9.207   4.998 -0.3038 -0.0017 -0.1709
  894MOL0     C20608  11.277   9.302   5.037  1.0677  1.0897  1.0460
  894MOL0     C20609  11.038   9.569   5.239 -0.1330  0.2402 -0.1653
  894MOL0     C20610  10.975   9.612   5.122  0.5857  0.3221  0.7092
  894MOL0     C20611  10.908   9.737   5.119 -0.7510  0.3874 -1.3264
  894MOL0     C20612  10.908   9.828   5.225 -0.3902 -0.1115  0.0132
  894MOL0     O20613  10.851   9.951   5.206 -0.0153 -0.2074  0.2632
  894MOL0     C20614  10.818  10.044   5.314  0.7685  0.1434  0.1806
  894MOL0     C20615  10.679   9.996   5.369 -0.7785  0.1660 -0.5047
  894MOL0     C20616  10.584  10.003   5.255  0.1495  0.3554  0.1087
  894MOL0     C20617  10.440   9.967   5.304 -0.0832 -0.8044 -0.7636
  894MOL0     C20618  10.422   9.834   5.359  0.8250 -0.6887 -0.9678
  894MOL0     C20619  10.419   9.723   5.409  0.0420 -0.1905 -0.8582
  894MOL0     C20620  10.952   9.775   5.349  0.5119 -0.3046  0.4481
  894MOL0     C20621  11.017   9.650   5.359 -1.1524  0.5054 -0.0277
  894MOL0     C20622  11.069   9.598   5.491 -0.3313 -0.4995  0.7268
  894MOL0     H20623  11.098   9.112   5.251  1.9724  1.3032  1.7659
  894MOL0     H20624  11.265   8.935   5.182  3.3403  1.3809  2.2958
  894MOL0     H20625  11.632   9.109   4.946 -2.3642  1.1932 -0.1724
  894MOL0     H20626  11.639   9.063   5.116  1.1208  2.1170 -1.3824
  894MOL0     H20627  11.675   8.891   4.868  3.6048  0.7435 -0.6693
  894MOL0     H20628  11.659   8.826   5.025  0.8554 -0.1050  0.7478
  894MOL0     H20629  11.901   8.850   4.948 -2.3568 -1.5551  1.3752
  894MOL0     H20630  11.869   8.906   5.107  0.9602  1.1459  1.2563
  894MOL0     H20631  11.844   9.083   4.866 -1.9067  0.0919  0.3241
  894MOL0     H20632  11.867   9.140   5.032  3.4222  1.9186 -0.4981
  894MOL0     H20633  12.074   9.182   4.964  1.4546 -0.4646 -0.9760
  894MOL0     H20634  12.092   9.024   5.043 -0.0159 -2.1324  0.0698
  894MOL0     H20635  12.080   8.912   4.825  2.3594  0.4928  1.7175
  894MOL0     H20636  12.066   9.055   4.740 -1.9254 -1.0108  0.2963
  894MOL0     H20637  12.267   9.148   4.811  2.6515  0.6364  1.7835
  894MOL0     H20638  12.288   9.000   4.715  0.5854 -1.0561  0.3713
  894MOL0     H20639  12.449   9.004   4.897  1.2563 -1.0909  0.2094
  894MOL0     H20640  12.329   9.021   5.015  2.8679  2.9415  0.2099
  894MOL0     H20641  12.413   8.780   4.704 -2.0226  1.4170 -1.1836
  894MOL0     H20642  12.157   8.491   4.727  0.8872 -0.5564 -1.9237
  894MOL0     H20643  12.270   8.546   4.614 -1.6040  3.5896  0.2766
  894MOL0     H20644  12.445   8.443   4.803 -0.7140  5.1537  0.8493
  894MOL0     H20645  12.297   8.357   4.850  0.6756  1.2483  1.3335
  894MOL0     H20646  12.437   8.363   4.577 -2.2217  1.3951 -0.8873
  894MOL0     H20647  12.266   8.310   4.592 -0.5684  0.5427  0.5919
  894MOL0     H20648  12.432   8.124   4.583  1.8057  0.8682 -0.2012
  894MOL0     H20649  12.330   8.133   4.726  0.6361  2.1190  2.6527
  894MOL0     H20650  12.644   8.196   4.508 -1.3310 -0.0244  0.8751
  894MOL0     H20651  12.858   8.208   4.476 -1.2346 -0.4428  0.6544
  894MOL0     H20652  13.304   8.481   4.615  1.1724  1.4940  2.8823
  894MOL0     H20653  13.553   8.478   4.577 -0.4326 -1.2021 -1.7076
  894MOL0     H20654  13.704   8.323   4.468 -0.5557 -1.0399 -0.6907
  894MOL0     H20655  13.865   8.274   4.533  0.3707  2.2727  5.1493
  894MOL0     H20656  13.635   8.094   4.494  0.7134 -2.0041  3.5572
  894MOL0     H20657  13.780   8.105   4.387 -0.7425  0.0197 -0.1964
  894MOL0     H20658  13.923   8.041   4.600 -0.7660  0.9227  1.5053
  894MOL0     H20659  13.770   8.016   4.682 -2.2821  0.9899 -1.6378
  894MOL0     H20660  13.853   7.887   4.420  0.6817  0.1830 -0.4116
  894MOL0     H20661  13.712   7.859   4.540  0.0395  0.5778  0.5948
  894MOL0     H20662  13.860   7.783   4.707 -1.0768  2.0437 -0.4294
  894MOL0     H20663  14.012   7.803   4.609  0.6569 -2.9918  0.3854
  894MOL0     H20664  13.794   7.613   4.553 -0.5701  3.0860 -1.7282
  894MOL0     H20665  13.932   7.631   4.437  1.3192 -2.4347  0.6640
  894MOL0     H20666  13.943   7.532   4.735  0.0545  1.1525  0.5109
  894MOL0     H20667  14.089   7.564   4.631  0.2705 -3.2527  0.0728
  894MOL0     H20668  14.061   7.339   4.637  0.7078  1.0927 -1.4909
  894MOL0     H20669  13.878   7.354   4.620 -1.0197 -0.4327 -1.1059
  894MOL0     H20670  13.559   8.105   4.802 -2.2567 -0.3157  3.0833
  894MOL0     H20671  13.317   8.125   4.831 -0.9333  0.0227  0.7314
  894MOL0     H20672  12.953   8.276   4.894  0.6530 -2.5500  0.5817
  894MOL0     H20673  12.706   8.200   4.936 -0.2766  0.8608  0.6480
  894MOL0     H20674  11.444   9.243   4.920  0.4246  1.9958  1.2959
  894MOL0     H20675  11.291   9.400   4.991  2.1149 -0.7197 -2.9397
  894MOL0     H20676  10.959   9.541   5.041 -4.0979  2.0698 -0.2321
  894MOL0     H20677  10.868   9.777   5.027  0.1042 -1.4702 -2.5621
  894MOL0     H20678  10.824  10.150   5.289 -1.1981  0.2569  0.0575
  894MOL0     H20679  10.892  10.046   5.395  3.6649 -1.0254 -2.2819
  894MOL0     H20680  10.640  10.063   5.447  0.2036  0.6588 -0.4205
  894MOL0     H20681  10.681   9.892   5.402  0.5345  0.4880  0.5509
  894MOL0     H20682  10.602   9.934   5.173 -0.1777 -1.0689  1.1919
  894MOL0     H20683  10.577  10.106   5.220 -2.1107  0.0848 -0.4298
  894MOL0     H20684  10.405  10.046   5.371  3.3320 -1.3463  1.9807
  894MOL0     H20685  10.369   9.975   5.221  1.1258 -2.5651 -2.0541
  894MOL0     H20686  10.423   9.621   5.440  2.2254  0.1820  0.2261
  894MOL0     H20687  10.940   9.838   5.437  2.7408 -2.1093  2.2052
  894MOL0     H20688  11.177   9.585   5.494 -0.3005 -0.9145 -1.1437
  894MOL0     H20689  11.044   9.673   5.567 -1.5501 -1.0547  0.9022
  894MOL0     H20690  11.012   9.510   5.522  0.2072 -0.7916  0.8785
  895MOL0     O20691   9.311  10.961   3.641 -0.2598 -0.4488  0.2808
  895MOL0     C20692   9.355  10.965   3.754 -1.1613  0.6705 -0.0788
  895MOL0     O20693   9.492  10.934   3.787 -0.1015 -0.7120  0.5543
  895MOL0     C20694   9.591  10.919   3.693  0.4114 -0.1209  0.2604
  895MOL0     C20695   9.594  10.972   3.566 -0.0691  0.1487 -0.2091
  895MOL0     C20696   9.697  10.946   3.472  0.8543  0.7598 -0.2910
  895MOL0     C20697   9.795  10.859   3.500  0.0538  0.4246  0.0234
  895MOL0     O20698   9.902  10.824   3.415 -0.0108 -0.3050  0.7829
  895MOL0     C20699   9.903  10.833   3.268  0.9641 -0.2807  0.5490
  895MOL0     C20700  10.049  10.840   3.227  0.4927 -0.3447 -1.0078
  895MOL0     C20701  10.120  10.974   3.259  0.1824 -0.1908  0.2839
  895MOL0     C20702  10.253  10.996   3.181  0.2425  0.7031 -0.6366
  895MOL0     C20703  10.336  11.119   3.231  0.7675 -0.2800  0.5949
  895MOL0     C20704  10.440  11.159   3.129 -0.8157  1.0029 -0.3713
  895MOL0     C20705  10.487  11.302   3.168  0.7906  0.9107  0.1127
  895MOL0     C20706  10.574  11.354   3.052 -0.4159  0.2832  0.4612
  895MOL0     N20707  10.603  11.493   3.081  0.5590  0.4862 -1.0721
  895MOL0     C20708  10.670  11.534   3.194 -0.0798  0.2014 -0.6010
  895MOL0     C20709  10.697  11.660   3.163 -0.6242  0.5332 -0.2405
  895MOL0     C20710  10.794  11.734   3.256  0.6446  0.6730 -0.4599
  895MOL0     C20711  10.848  11.863   3.190  0.2313 -0.4447 -0.7830
  895MOL0     C20712  10.981  11.915   3.260  0.2617 -0.1621 -0.9523
  895MOL0     C20713  11.046  12.040   3.188 -0.0140 -0.5705  0.0375
  895MOL0     O20714  11.143  12.010   3.081 -0.2378  0.3324  0.1436
  895MOL0     C20715  11.243  12.091   3.058 -0.2713 -0.6332  0.0375
  895MOL0     C20716  11.236  12.227   3.089  0.2888  1.4249  0.2022
  895MOL0     C20717  11.333  12.316   3.077 -0.4342  0.1461  0.4483
  895MOL0     C20718  11.460  12.263   3.034 -0.5905  0.1045  0.5936
  895MOL0     C20719  11.569  12.352   3.004 -0.5260 -0.1241 -0.7549
  895MOL0     O20720  11.690  12.310   2.950 -0.1443  0.0577  0.3535
  895MOL0     C20721  11.809  12.392   2.950  1.2311  1.0712  0.5244
  895MOL0     C20722  11.835  12.475   2.850 -0.7371  0.0159  0.2456
  895MOL0     C20723  11.954  12.552   2.858 -0.6743 -1.0113 -0.1241
  895MOL0     C20724  12.056  12.538   2.954  0.3955 -1.3139 -0.7586
  895MOL0     O20725  12.158  12.633   2.961  0.6445 -0.4902  0.0824
  895MOL0     C20726  12.265  12.602   3.052  0.5930 -0.2236  0.0546
  895MOL0     C20727  12.357  12.717   3.038 -0.5931 -0.3419 -0.3602
  895MOL0     C20728  12.437  12.732   2.906 -1.4757 -0.7607 -0.0951
  895MOL0     C20729  12.551  12.833   2.918  0.2556  0.3883  0.0481
  895MOL0     C20730  12.587  12.880   2.771  0.1540 -0.2324 -1.3443
  895MOL0     C20731  12.713  12.960   2.776 -0.6527 -0.6483 -0.3142
  895MOL0     C20732  12.742  13.002   2.635 -0.6895 -0.2211  0.1176
  895MOL0     C20733  12.881  13.066   2.630  0.7612 -0.5976 -0.1118
  895MOL0    Cl20734  12.896  13.187   2.497 -0.1802 -0.1503  0.0001
  895MOL0     C20735  12.023  12.454   3.062  1.7376 -0.1931 -0.8420
  895MOL0     C20736  11.898  12.384   3.059 -0.6052 -0.9239 -0.3918
  895MOL0     O20737  11.555  12.470   3.053 -0.0125 -0.2957 -0.8040
  895MOL0     C20738  11.469  12.129   2.994  0.5343 -0.5095 -0.3681
  895MOL0     C20739  11.362  12.042   3.010  0.3404 -0.2200  0.0473
  895MOL0     N20740  10.655  11.698   3.042  0.1774  0.0729  0.6795
  895MOL0     N20741  10.594  11.593   2.996  0.1593 -0.1477  0.2439
  895MOL0     C20742   9.798  10.807   3.624 -0.0465  0.8771 -0.0981
  895MOL0     C20743   9.699  10.835   3.730 -0.2481 -0.0270 -0.5931
  895MOL0     C20744   9.265  11.007   3.862  0.0530 -0.7245 -0.4334
  895MOL0     C20745   9.312  11.002   3.991  0.6443  0.1854 -0.5069
  895MOL0     C20746   9.233  11.032   4.103 -0.2250 -0.1124  0.3646
  895MOL0     C20747   9.103  11.078   4.083 -0.7398  0.6328  0.0072
  895MOL0     O20748   9.029  11.094   4.200 -0.4008 -0.2803  0.3013
  895MOL0     C20749   8.886  11.080   4.197  0.3297  0.0336 -0.2065
  895MOL0     C20750   8.850  11.063   4.340 -0.0563 -0.4581 -0.1690
  895MOL0     C20751   8.880  11.181   4.430 -0.1806 -0.0479  0.6586
  895MOL0     C20752   8.861  11.141   4.581  0.4084  0.7971 -0.1556
  895MOL0     C20753   8.848  11.255   4.669  0.6625  0.8617  0.5741
  895MOL0     C20754   8.834  11.353   4.740  1.1950  0.3700 -0.2009
  895MOL0     C20755   9.050  11.077   3.954  0.4596 -0.0496 -0.9224
  895MOL0     C20756   9.134  11.057   3.841 -0.5093  0.4007  0.6290
  895MOL0     C20757   9.068  11.077   3.714  0.4938  0.7858  0.3520
  895MOL0     H20758   9.517  11.042   3.536 -2.4419 -1.1941  2.2378
  895MOL0     H20759   9.707  10.997   3.377  1.1619 -1.0157 -1.2533
  895MOL0     H20760   9.860  10.741   3.227  2.0250 -1.4132  1.8554
  895MOL0     H20761   9.855  10.918   3.220  1.7845 -1.5453 -2.7905
  895MOL0     H20762  10.052  10.813   3.121 -1.8201  0.2060 -1.2758
  895MOL0     H20763  10.114  10.762   3.266 -0.2072 -0.8466 -0.8185
  895MOL0     H20764  10.136  10.985   3.367 -0.6169  1.1428  0.2824
  895MOL0     H20765  10.057  11.059   3.236 -0.6881 -0.9435 -0.1566
  895MOL0     H20766  10.306  10.901   3.193  0.8270  0.9000 -1.5611
  895MOL0     H20767  10.227  11.006   3.075 -1.9934 -0.3316 -0.2389
  895MOL0     H20768  10.261  11.195   3.254  3.6558  2.9943  0.0563
  895MOL0     H20769  10.387  11.108   3.327 -0.2211  1.4923  1.3835
  895MOL0     H20770  10.527  11.094   3.134 -1.9818 -0.5146  3.0130
  895MOL0     H20771  10.406  11.154   3.026  2.3397 -1.5234 -1.4554
  895MOL0     H20772  10.534  11.295   3.266  0.6887  1.7393  0.2292
  895MOL0     H20773  10.399  11.368   3.169  1.0959  1.3731 -1.3416
  895MOL0     H20774  10.673  11.309   3.042 -0.7471 -0.1586 -0.9159
  895MOL0     H20775  10.532  11.334   2.954 -0.2157 -1.3094  0.6748
  895MOL0     H20776  10.688  11.484   3.288 -2.6958  0.7469  0.2706
  895MOL0     H20777  10.736  11.762   3.344  0.5989 -0.4758 -0.1102
  895MOL0     H20778  10.867  11.661   3.292 -0.8159 -1.9567 -2.4980
  895MOL0     H20779  10.860  11.834   3.085 -4.8156 -2.3674 -1.0810
  895MOL0     H20780  10.772  11.942   3.194 -1.0422 -1.6354 -0.9611
  895MOL0     H20781  11.066  11.846   3.261 -0.2846 -0.9812  2.4325
  895MOL0     H20782  10.948  11.944   3.361  2.4378 -1.0869  0.0944
  895MOL0     H20783  11.093  12.089   3.274  0.8262 -1.8155  0.3173
  895MOL0     H20784  10.971  12.111   3.152 -0.5342 -0.3406  1.4792
  895MOL0     H20785  11.143  12.274   3.119 -0.0270  0.8244  0.1827
  895MOL0     H20786  11.316  12.422   3.095 -2.0693  0.3233 -1.7057
  895MOL0     H20787  11.771  12.488   2.764  0.0054  3.9963  0.1096
  895MOL0     H20788  11.966  12.617   2.772 -0.5893 -0.6748  0.1394
  895MOL0     H20789  12.223  12.596   3.153 -0.7220 -1.2686 -0.5304
  895MOL0     H20790  12.310  12.505   3.026  1.7325  0.2853  0.0606
  895MOL0     H20791  12.291  12.804   3.050 -0.0984 -0.3312  3.1813
  895MOL0     H20792  12.426  12.712   3.122 -1.9930 -0.8077  0.8135
  895MOL0     H20793  12.482  12.634   2.889 -0.8233 -0.4921  0.0141
  895MOL0     H20794  12.369  12.760   2.826  2.3701  1.3485 -2.9513
  895MOL0     H20795  12.631  12.792   2.981 -0.5971  2.5549  2.6936
  895MOL0     H20796  12.496  12.914   2.966 -0.8468 -0.2555 -0.0769
  895MOL0     H20797  12.502  12.934   2.728  0.4467  1.3363 -0.0539
  895MOL0     H20798  12.598  12.802   2.696  1.0529 -1.0019 -0.4437
  895MOL0     H20799  12.703  13.042   2.848 -0.1885 -3.7132  3.6621
  895MOL0     H20800  12.785  12.889   2.819  0.9259  1.8247  1.4212
  895MOL0     H20801  12.684  13.093   2.621  0.7244  0.9525  1.5382
  895MOL0     H20802  12.739  12.924   2.558 -1.9244  0.0357 -0.1172
  895MOL0     H20803  12.907  13.112   2.726 -1.1978  0.8704 -0.2236
  895MOL0     H20804  12.961  12.993   2.615 -0.1612 -1.4836 -0.8691
  895MOL0     H20805  12.082  12.444   3.153  0.5035  1.6888  0.2486
  895MOL0     H20806  11.864  12.333   3.149 -0.6224 -0.0710  0.0957
  895MOL0     H20807  11.562  12.093   2.951  0.4429  1.6531 -2.5799
  895MOL0     H20808  11.365  11.935   2.997 -3.1399  0.0035 -5.9577
  895MOL0     H20809   9.870  10.735   3.663  1.9703  1.5860 -2.2680
  895MOL0     H20810   9.709  10.804   3.833  1.3887  1.6459 -0.1988
  895MOL0     H20811   9.413  10.974   4.021  0.1396 -1.9362 -0.5810
  895MOL0     H20812   9.287  11.028   4.197  0.3681 -0.7542  0.0065
  895MOL0     H20813   8.869  10.984   4.147  1.0481 -0.4857  0.5195
  895MOL0     H20814   8.845  11.171   4.152  0.4985 -0.4892 -1.4769
  895MOL0     H20815   8.904  10.973   4.370  0.7742 -0.2473 -0.9921
  895MOL0     H20816   8.744  11.039   4.336 -0.8519  2.4009  0.8910
  895MOL0     H20817   8.824  11.271   4.405 -2.2281 -1.9452 -2.1890
  895MOL0     H20818   8.986  11.203   4.415 -0.1854 -0.1135  0.5309
  895MOL0     H20819   8.776  11.074   4.590  1.1494 -0.5567 -2.3056
  895MOL0     H20820   8.952  11.100   4.626 -0.9180  0.2451  2.1723
  895MOL0     H20821   8.827  11.438   4.804  1.0420  0.1418  0.0898
  895MOL0     H20822   8.944  11.097   3.946 -0.2651 -3.0568 -0.0869
  895MOL0     H20823   8.979  11.139   3.721  1.2463  1.9837 -0.2828
  895MOL0     H20824   9.135  11.123   3.641 -0.9187  1.8361 -0.3156
  895MOL0     H20825   9.034  10.987   3.661  0.0924  3.8535 -5.4953
  896MOL0     O20826   0.425   2.172   2.859  0.0972 -0.9548  0.1823
  896MOL0     C20827   0.501   2.151   2.769 -0.1996  0.5321 -0.3121
  896MOL0     O20828   0.637   2.181   2.771  0.4485  0.4885  0.8754
  896MOL0     C20829   0.687   2.286   2.836 -0.5433 -0.1104 -0.8703
  896MOL0     C20830   0.784   2.269   2.930 -1.5817  0.2333  0.0585
  896MOL0     C20831   0.856   2.371   2.993 -0.0922 -0.3699 -0.3491
  896MOL0     C20832   0.824   2.501   2.962  0.0034  0.4888  0.3488
  896MOL0     O20833   0.878   2.608   3.026  0.2270 -0.0718 -0.2475
  896MOL0     C20834   1.023   2.613   3.008  0.4566  0.6973 -1.0115
  896MOL0     C20835   1.081   2.675   3.129  1.3353  0.1824  0.1334
  896MOL0     C20836   1.235   2.664   3.122  0.1744  0.9752  0.9564
  896MOL0     C20837   1.297   2.768   3.218 -0.5608  0.1826  0.8760
  896MOL0     C20838   1.452   2.748   3.230 -0.8684  0.4124 -0.1827
  896MOL0     C20839   1.509   2.633   3.318  0.9290  1.4548 -1.1261
  896MOL0     C20840   1.660   2.631   3.337  0.8063  0.4421  0.5790
  896MOL0     C20841   1.723   2.621   3.209 -0.8705 -0.6725 -0.1716
  896MOL0     N20842   1.860   2.581   3.221 -0.1405  0.7770  0.2943
  896MOL0     C20843   1.937   2.608   3.335 -0.8099 -1.1263  0.4344
  896MOL0     C20844   2.055   2.563   3.290  0.0490 -0.5612  0.0267
  896MOL0     C20845   2.187   2.551   3.367 -0.0803  0.0352 -0.7392
  896MOL0     C20846   2.245   2.414   3.361  0.4030  0.3724 -0.1019
  896MOL0     C20847   2.172   2.316   3.456 -0.7372  0.3907  0.2316
  896MOL0     C20848   2.176   2.170   3.396  0.5536 -0.2150  0.8622
  896MOL0     O20849   2.074   2.135   3.294 -0.1035 -0.6802 -0.1554
  896MOL0     C20850   1.945   2.142   3.330 -0.1260  0.6975 -0.0057
  896MOL0     C20851   1.906   2.077   3.443  0.0374  0.4968  1.3501
  896MOL0     C20852   1.773   2.070   3.471  0.2887 -0.8667  0.2960
  896MOL0     C20853   1.677   2.149   3.393  0.6158  0.4046 -0.2517
  896MOL0     C20854   1.533   2.151   3.418 -0.1821 -0.3577  0.3958
  896MOL0     O20855   1.459   2.239   3.342 -0.0037 -0.9436 -0.1057
  896MOL0     C20856   1.323   2.241   3.351  0.1603  0.8778 -0.0610
  896MOL0     C20857   1.247   2.154   3.268  0.1441 -0.3136 -0.1802
  896MOL0     C20858   1.106   2.173   3.266 -0.0273  0.1497  0.2405
  896MOL0     C20859   1.049   2.281   3.340  0.5516  0.4841 -0.7757
  896MOL0     O20860   0.915   2.328   3.323 -0.0622 -0.2791 -0.1585
  896MOL0     C20861   0.805   2.235   3.313  0.3803  0.1685  0.3307
  896MOL0     C20862   0.678   2.312   3.298  0.1082 -0.1642 -0.3865
  896MOL0     C20863   0.559   2.227   3.262 -0.7160 -0.6046  0.7331
  896MOL0     C20864   0.416   2.286   3.277  0.7554 -0.1888 -1.0112
  896MOL0     C20865   0.390   2.405   3.180 -0.4339  1.1660  0.5045
  896MOL0     C20866   0.246   2.421   3.157  0.3756 -0.3693 -0.2396
  896MOL0     C20867   0.150   2.423   3.280 -1.1066  0.0342  0.1317
  896MOL0     C20868   0.008   2.420   3.221  0.3527 -0.7822  0.3210
  896MOL0    Cl20869  -0.102   2.450   3.355  0.4901  0.2900  0.2824
  896MOL0     C20870   1.128   2.355   3.422 -0.4582  0.3943 -0.8208
  896MOL0     C20871   1.260   2.342   3.426 -0.3909  0.1237 -0.5098
  896MOL0     O20872   1.495   2.069   3.497  0.4028 -0.6846 -0.1137
  896MOL0     C20873   1.728   2.226   3.276  0.9948  0.5743  0.1019
  896MOL0     C20874   1.860   2.216   3.246 -0.5882  0.1208 -0.5360
  896MOL0     N20875   2.048   2.534   3.151  0.2317  0.2657  1.3215
  896MOL0     N20876   1.929   2.530   3.116 -0.4114 -0.2302  0.7940
  896MOL0     C20877   0.716   2.519   2.874 -0.1654  0.9033  0.4055
  896MOL0     C20878   0.652   2.416   2.807  1.1875  0.2970  0.0918
  896MOL0     C20879   0.452   2.088   2.644 -0.1556  0.6658  0.1860
  896MOL0     C20880   0.539   2.005   2.568  1.3395  0.3203  0.0833
  896MOL0     C20881   0.506   1.943   2.447  1.1189  0.1266 -0.0240
  896MOL0     C20882   0.383   1.965   2.396  0.5033 -1.0832 -0.3711
  896MOL0     O20883   0.354   1.905   2.278 -0.3036  0.0486 -0.0035
  896MOL0     C20884   0.239   1.823   2.276 -0.9308 -0.0020  0.7435
  896MOL0     C20885   0.247   1.731   2.155  1.1832  0.1798  0.1289
  896MOL0     C20886   0.350   1.629   2.173 -0.1778 -0.7121 -0.5404
  896MOL0     C20887   0.377   1.533   2.044  0.7017 -0.0430  0.0554
  896MOL0     C20888   0.494   1.448   2.080 -0.1403 -0.4186  0.4397
  896MOL0     C20889   0.603   1.403   2.125  0.1714 -0.1069  0.5907
  896MOL0     C20890   0.292   2.044   2.470 -0.3398  0.4298  0.1965
  896MOL0     C20891   0.317   2.097   2.595 -0.3300 -0.3732 -0.4489
  896MOL0     C20892   0.197   2.176   2.646 -0.3856 -0.1162 -0.6524
  896MOL0     H20893   0.812   2.172   2.969  2.0538  1.0317 -0.1711
  896MOL0     H20894   0.936   2.346   3.062  2.0107 -1.6315 -2.9976
  896MOL0     H20895   1.073   2.517   2.996  0.3379  0.0070  2.9121
  896MOL0     H20896   1.036   2.663   2.911  0.1348  0.4173 -1.1991
  896MOL0     H20897   1.040   2.615   3.211 -2.2049  0.0605 -1.5299
  896MOL0     H20898   1.059   2.782   3.124  2.3950  0.4162  0.2231
  896MOL0     H20899   1.276   2.680   3.022  0.5949  3.0002  1.4062
  896MOL0     H20900   1.261   2.560   3.148 -1.5433 -0.7799 -3.4350
  896MOL0     H20901   1.285   2.874   3.192 -0.1960  0.1102  0.3951
  896MOL0     H20902   1.250   2.746   3.314  1.8660  0.0198  2.0907
  896MOL0     H20903   1.497   2.726   3.132  0.8999 -0.1978  0.7212
  896MOL0     H20904   1.499   2.840   3.267  0.0432 -1.1772  3.0329
  896MOL0     H20905   1.466   2.670   3.412  0.4984 -0.2950 -0.5944
  896MOL0     H20906   1.469   2.534   3.296  1.7596  1.2142 -1.5799
  896MOL0     H20907   1.680   2.546   3.402  0.3045  2.1182  3.0450
  896MOL0     H20908   1.703   2.716   3.391  1.1200 -0.3484  1.6090
  896MOL0     H20909   1.678   2.541   3.150 -0.1952 -1.2420  0.0725
  896MOL0     H20910   1.719   2.716   3.154  2.1363 -0.9482 -1.0118
  896MOL0     H20911   1.912   2.650   3.432  4.9906  1.7290  1.1599
  896MOL0     H20912   2.251   2.631   3.328 -0.1721  1.3266  1.5160
  896MOL0     H20913   2.176   2.557   3.476  0.1291 -2.6022 -0.5285
  896MOL0     H20914   2.230   2.376   3.259  0.6645 -0.9300  0.3160
  896MOL0     H20915   2.353   2.409   3.377  0.8354  2.5171 -1.8837
  896MOL0     H20916   2.072   2.344   3.489 -0.6450  0.9420  0.0539
  896MOL0     H20917   2.241   2.306   3.540 -2.0770 -1.2580  1.1885
  896MOL0     H20918   2.171   2.095   3.475 -2.0240 -2.7914 -1.5147
  896MOL0     H20919   2.273   2.147   3.351  0.6119  2.7824 -0.7891
  896MOL0     H20920   1.969   2.017   3.507 -0.5728  0.0839  1.5686
  896MOL0     H20921   1.736   2.003   3.548  1.1671  0.3980  1.8907
  896MOL0     H20922   1.283   2.079   3.200 -3.5388 -0.4019 -2.3211
  896MOL0     H20923   1.042   2.116   3.200  0.0272 -0.0074  0.3210
  896MOL0     H20924   0.814   2.176   3.221  1.5109  0.7704  0.0355
  896MOL0     H20925   0.812   2.163   3.396 -0.2265 -1.7818 -1.2222
  896MOL0     H20926   0.660   2.359   3.395  1.8542  0.0116 -0.1136
  896MOL0     H20927   0.692   2.387   3.220 -0.4064  1.1267  0.7463
  896MOL0     H20928   0.572   2.190   3.160 -0.1762 -3.3443  1.7069
  896MOL0     H20929   0.566   2.140   3.327  0.0248  0.4663  2.1239
  896MOL0     H20930   0.400   2.324   3.379 -4.3745 -0.7897 -1.3408
  896MOL0     H20931   0.347   2.202   3.267 -0.2443  0.4981 -0.1617
  896MOL0     H20932   0.445   2.389   3.086 -0.6607 -0.9275  0.6797
  896MOL0     H20933   0.432   2.499   3.217  3.8764 -1.0126  1.8406
  896MOL0     H20934   0.228   2.513   3.101  0.2528  0.0182  0.4283
  896MOL0     H20935   0.210   2.339   3.094 -0.3337 -1.4608  1.5066
  896MOL0     H20936   0.170   2.508   3.345 -1.4269 -0.0973  0.4051
  896MOL0     H20937   0.168   2.342   3.352 -0.2688  1.4036  1.5055
  896MOL0     H20938  -0.001   2.503   3.150 -1.2986 -1.3265 -0.1609
  896MOL0     H20939  -0.012   2.323   3.173 -1.9001 -0.2336  0.0624
  896MOL0     H20940   1.084   2.432   3.486  1.0313  1.8835 -1.5089
  896MOL0     H20941   1.318   2.413   3.484 -0.4511  0.6105 -1.0454
  896MOL0     H20942   1.660   2.280   3.210  0.7281  0.6065  0.3993
  896MOL0     H20943   1.902   2.265   3.159 -0.9382  1.0232 -0.2078
  896MOL0     H20944   0.671   2.617   2.865  0.3373  1.1063  0.0491
  896MOL0     H20945   0.584   2.430   2.724  1.4894 -0.3791 -0.2759
  896MOL0     H20946   0.633   1.990   2.621  1.5225  1.8003  0.2214
  896MOL0     H20947   0.578   1.878   2.399  0.1989 -1.0732  0.1734
  896MOL0     H20948   0.166   1.904   2.265 -0.3809  0.5301  0.9365
  896MOL0     H20949   0.210   1.766   2.365  0.0418  0.5583  1.4396
  896MOL0     H20950   0.255   1.796   2.067 -1.1654 -1.4977 -1.4550
  896MOL0     H20951   0.150   1.686   2.133  0.3168  1.0267  2.0323
  896MOL0     H20952   0.324   1.576   2.265  0.9923  1.5504  1.2268
  896MOL0     H20953   0.441   1.688   2.187 -1.0322  0.0258  2.9238
  896MOL0     H20954   0.291   1.467   2.024  1.5782 -1.1565 -0.1583
  896MOL0     H20955   0.399   1.573   1.944  1.7622 -0.3199  0.1625
  896MOL0     H20956   0.693   1.371   2.172  0.9608  5.2255  3.5926
  896MOL0     H20957   0.195   2.056   2.423 -0.6759 -0.1622  0.7203
  896MOL0     H20958   0.237   2.274   2.674  0.7320 -0.4593 -1.0087
  896MOL0     H20959   0.126   2.192   2.565  1.6095  1.8102 -2.1221
  896MOL0     H20960   0.158   2.125   2.735  0.9286  1.7294  1.0637
  897MOL0     O20961   6.201   9.754  10.795  0.2409 -0.2348 -1.0276
  897MOL0     C20962   6.089   9.714  10.810  0.7912  0.6146 -0.7295
  897MOL0     O20963   5.990   9.736  10.723  0.6169 -0.9282 -0.0524
  897MOL0     C20964   6.016   9.824  10.615 -0.2632 -0.6760  0.1419
  897MOL0     C20965   6.083   9.937  10.628  0.6692 -0.3944 -0.4910
  897MOL0     C20966   6.098  10.028  10.518 -0.6496 -0.2601  0.6370
  897MOL0     C20967   6.066   9.973  10.386 -0.5963 -0.8163 -0.5905
  897MOL0     O20968   6.104  10.056  10.280  0.8927  0.4007 -0.2589
  897MOL0     C20969   6.123   9.999  10.149  0.9210 -0.0155  0.8221
  897MOL0     C20970   6.194  10.099  10.047  0.3073 -0.4540  0.7742
  897MOL0     C20971   6.098  10.203   9.981 -0.4480 -0.5121 -0.1081
  897MOL0     C20972   6.088  10.333  10.064 -0.2161  0.9658  0.2573
  897MOL0     C20973   6.215  10.387  10.127 -0.0000  0.6405  0.3098
  897MOL0     C20974   6.207  10.526  10.169  0.4470 -0.4729  0.0331
  897MOL0     C20975   6.116  10.575  10.278 -0.1759  0.6422 -0.0898
  897MOL0     C20976   6.152  10.510  10.414 -0.5007  0.5048 -0.2425
  897MOL0     N20977   6.274  10.556  10.472 -0.3947  0.9943 -0.5118
  897MOL0     C20978   6.368  10.476  10.538 -0.3126 -0.5937  0.0364
  897MOL0     C20979   6.470  10.560  10.569 -0.2205 -0.0527 -0.6815
  897MOL0     C20980   6.582  10.532  10.664 -0.3659  0.6968  0.2108
  897MOL0     C20981   6.722  10.534  10.591 -0.3755 -0.0175  0.2278
  897MOL0     C20982   6.769  10.668  10.551 -0.5911 -1.1403  0.1697
  897MOL0     C20983   6.900  10.719  10.613  0.3056 -0.3117 -0.1721
  897MOL0     O20984   6.935  10.844  10.556  0.8047 -1.4678  0.0828
  897MOL0     C20985   7.034  10.918  10.608 -0.5161 -0.2953  0.3302
  897MOL0     C20986   7.072  11.033  10.537  0.2050 -0.3350  1.0338
  897MOL0     C20987   7.173  11.113  10.576  0.4224  0.3244  0.2962
  897MOL0     C20988   7.226  11.103  10.699 -0.7045 -0.2043  0.3085
  897MOL0     C20989   7.313  11.214  10.756  0.4243 -0.0421 -0.2346
  897MOL0     O20990   7.356  11.312  10.667 -0.4284  0.4231  0.6180
  897MOL0     C20991   7.424  11.427  10.718 -0.0389  0.0736  0.1945
  897MOL0     C20992   7.517  11.497  10.648  1.0804  0.5922 -0.2213
  897MOL0     C20993   7.570  11.615  10.691 -0.2324  0.6766  1.0836
  897MOL0     C20994   7.537  11.664  10.814  0.1321 -0.2277  0.2310
  897MOL0     O20995   7.598  11.773  10.867  0.2934  0.1946 -0.2766
  897MOL0     C20996   7.663  11.864  10.779  0.1789  0.7466 -1.0968
  897MOL0     C20997   7.755  11.949  10.879  1.0090 -0.0437 -0.5297
  897MOL0     C20998   7.833  12.051  10.802 -0.3053 -0.1245  0.4872
  897MOL0     C20999   7.976  12.000  10.775 -0.3772  0.6234 -0.2733
  897MOL0     C21000   8.064  12.107  10.699  0.0273 -0.7546 -0.5504
  897MOL0     C21001   8.201  12.065  10.651  1.2042  0.3243 -0.3745
  897MOL0     C21002   8.281  12.171  10.571 -0.5287  0.5881 -0.1207
  897MOL0     C21003   8.344  12.273  10.661  0.4002 -0.1382 -0.1506
  897MOL0    Cl21004   8.428  12.396  10.562 -0.2083 -0.1314  0.1964
  897MOL0     C21005   7.442  11.600  10.892  0.4190  0.7001 -0.2948
  897MOL0     C21006   7.386  11.476  10.843 -0.3401 -0.4564 -1.6391
  897MOL0     O21007   7.359  11.203  10.871 -0.1537 -0.0864  0.0014
  897MOL0     C21008   7.182  10.999  10.780 -0.8619  0.3229  0.0695
  897MOL0     C21009   7.094  10.908  10.734 -0.1810 -0.0653  1.0297
  897MOL0     N21010   6.448  10.687  10.516 -0.7288 -0.0813 -0.5443
  897MOL0     N21011   6.339  10.676  10.454  0.2219 -0.5159  0.2227
  897MOL0     C21012   5.983   9.857  10.374  0.2604 -0.5479 -0.3563
  897MOL0     C21013   5.956   9.785  10.492  0.7136  0.2470  0.3789
  897MOL0     C21014   6.044   9.653  10.934  0.2375 -0.8111 -0.4769
  897MOL0     C21015   5.923   9.709  10.993  0.5428 -0.2287  0.1876
  897MOL0     C21016   5.864   9.637  11.101  0.8362 -0.9657  0.1532
  897MOL0     C21017   5.922   9.534  11.159  0.4621  0.0863 -0.0896
  897MOL0     O21018   5.879   9.482  11.280  0.8214 -0.3886  0.8594
  897MOL0     C21019   5.742   9.493  11.312 -0.3276  0.1179  0.2126
  897MOL0     C21020   5.696   9.362  11.372 -0.0427 -0.4517 -0.6406
  897MOL0     C21021   5.711   9.241  11.282 -0.7291  0.3816  0.3364
  897MOL0     C21022   5.644   9.119  11.345  0.7435 -0.1905  0.1454
  897MOL0     C21023   5.502   9.124  11.303 -0.1427  0.1168 -0.5882
  897MOL0     C21024   5.386   9.123  11.261 -0.4400  1.1311  0.4712
  897MOL0     C21025   6.042   9.498  11.118  0.2500 -1.2497  0.8368
  897MOL0     C21026   6.100   9.544  10.995 -0.4866 -0.2145 -0.5531
  897MOL0     C21027   6.232   9.478  10.943  0.6827  0.8515 -0.1414
  897MOL0     H21028   6.124   9.951  10.728  0.7387  4.7274 -0.9438
  897MOL0     H21029   6.162  10.115  10.534 -0.9777  0.2860 -0.8397
  897MOL0     H21030   6.175   9.903  10.141 -1.3708 -1.1306 -2.9535
  897MOL0     H21031   6.023   9.972  10.116 -0.0871  1.6405  2.3559
  897MOL0     H21032   6.227  10.039   9.961 -0.2133 -2.5931  1.9885
  897MOL0     H21033   6.285  10.145  10.088  0.9945 -1.1144  0.0345
  897MOL0     H21034   6.004  10.151   9.962 -0.7121  0.1432 -0.5987
  897MOL0     H21035   6.129  10.228   9.880 -2.2877 -2.4578 -1.2448
  897MOL0     H21036   6.046  10.408   9.996  0.9946  2.4322  1.0544
  897MOL0     H21037   6.017  10.307  10.143  0.6092  1.9884  1.3600
  897MOL0     H21038   6.257  10.335  10.214  1.7854  1.0364 -0.2671
  897MOL0     H21039   6.286  10.388  10.043 -1.9635  0.6212 -1.4161
  897MOL0     H21040   6.304  10.559  10.207 -1.3661  0.0812  4.8571
  897MOL0     H21041   6.201  10.592  10.082  2.4776 -1.3617 -0.8564
  897MOL0     H21042   6.016  10.549  10.242  0.5892 -0.5413 -1.4152
  897MOL0     H21043   6.119  10.684  10.288  0.6532  0.6662 -0.5465
  897MOL0     H21044   6.076  10.531  10.490  0.6625 -0.6420  1.3296
  897MOL0     H21045   6.148  10.401  10.399 -3.5360  0.7285 -1.8715
  897MOL0     H21046   6.348  10.378  10.580  1.1102 -0.3024  1.5142
  897MOL0     H21047   6.584  10.590  10.756 -1.2014 -3.7529  3.3770
  897MOL0     H21048   6.554  10.431  10.695 -1.0399 -0.2665 -3.0566
  897MOL0     H21049   6.798  10.491  10.656 -2.5704 -1.3156  2.0587
  897MOL0     H21050   6.725  10.470  10.502 -2.5664 -1.1269  0.8841
  897MOL0     H21051   6.694  10.747  10.559  1.7115  1.5573 -2.3739
  897MOL0     H21052   6.792  10.658  10.445  0.4347 -1.8125  0.4315
  897MOL0     H21053   6.975  10.644  10.586  1.7445 -0.2428  3.1666
  897MOL0     H21054   6.898  10.718  10.722  0.7138  1.1373 -0.1413
  897MOL0     H21055   7.033  11.041  10.437  1.0333 -0.7086  0.6696
  897MOL0     H21056   7.190  11.199  10.512  0.3363  0.2584  0.1870
  897MOL0     H21057   7.543  11.452  10.553 -1.2345  0.9035 -1.0567
  897MOL0     H21058   7.645  11.659  10.626 -0.3372 -1.6877 -0.7940
  897MOL0     H21059   7.729  11.828  10.699  0.3221 -3.5858  0.6784
  897MOL0     H21060   7.593  11.935  10.735 -1.0844 -0.3200 -0.8806
  897MOL0     H21061   7.690  12.004  10.947 -1.9585 -2.3514 -1.2335
  897MOL0     H21062   7.811  11.881  10.944  0.5820  0.0683 -0.0380
  897MOL0     H21063   7.785  12.065  10.705  2.7145 -1.2631 -1.3021
  897MOL0     H21064   7.841  12.151  10.847  0.8275 -1.2498  2.9988
  897MOL0     H21065   7.963  11.904  10.722 -1.4938  1.1208 -0.9327
  897MOL0     H21066   8.026  11.962  10.865  0.3970 -1.8584 -1.6272
  897MOL0     H21067   8.078  12.192  10.766 -3.4576 -0.5497  0.0788
  897MOL0     H21068   7.999  12.144  10.620 -0.2478  2.0999  0.8970
  897MOL0     H21069   8.258  12.033  10.739 -0.7246 -0.6303  0.5980
  897MOL0     H21070   8.182  11.974  10.593 -1.2386 -0.8197  1.9541
  897MOL0     H21071   8.211  12.228  10.510 -0.1879  0.9686 -0.1606
  897MOL0     H21072   8.357  12.121  10.509 -2.1227 -2.4323  0.1809
  897MOL0     H21073   8.268  12.329  10.716  0.1823 -0.5629 -0.0143
  897MOL0     H21074   8.406  12.228  10.740 -3.1308 -1.3497  2.1669
  897MOL0     H21075   7.404  11.652  10.979 -1.5496 -2.0376  0.6198
  897MOL0     H21076   7.299  11.433  10.892 -2.1156  3.6330 -0.8351
  897MOL0     H21077   7.219  10.987  10.881  0.6458 -1.5705 -0.6420
  897MOL0     H21078   7.058  10.823  10.791 -1.8567 -0.3924 -0.4108
  897MOL0     H21079   5.941   9.830  10.277 -0.3394  0.7035 -0.4668
  897MOL0     H21080   5.897   9.695  10.480  1.1215  0.0160  0.1099
  897MOL0     H21081   5.867   9.793  10.952  1.6845  1.2292  1.4995
  897MOL0     H21082   5.770   9.672  11.141  1.4267 -0.0226  0.7644
  897MOL0     H21083   5.664   9.501  11.236 -1.8515  0.0724  1.7054
  897MOL0     H21084   5.737   9.580  11.379 -0.9522 -0.0688  0.4090
  897MOL0     H21085   5.586   9.366  11.378 -0.0522  1.4062 -1.1909
  897MOL0     H21086   5.739   9.358  11.472  0.7724  1.6773 -0.8348
  897MOL0     H21087   5.816   9.226  11.253 -0.3030 -0.6684  2.2652
  897MOL0     H21088   5.666   9.253  11.183  0.5357  2.9351 -0.0360
  897MOL0     H21089   5.693   9.037  11.292  0.7763 -0.4896  0.6292
  897MOL0     H21090   5.655   9.104  11.453 -1.3755 -0.7705  0.3326
  897MOL0     H21091   5.295   9.120  11.205 -1.2326 -1.5333  1.7624
  897MOL0     H21092   6.090   9.430  11.188  0.8274  1.2881  3.0705
  897MOL0     H21093   6.236   9.376  10.982 -3.3039  1.3380  2.1061
  897MOL0     H21094   6.224   9.475  10.834 -0.8586  2.8810 -0.1519
  897MOL0     H21095   6.318   9.537  10.974  0.2911  1.3319  0.0585
  898MOL0     O21096   2.361   7.362   2.590  0.4357  0.1775 -0.6985
  898MOL0     C21097   2.280   7.327   2.678  0.6961 -1.0173  0.5297
  898MOL0     O21098   2.194   7.221   2.662 -0.4553  0.2557  0.4611
  898MOL0     C21099   2.237   7.113   2.588 -0.8384 -0.6203  1.0838
  898MOL0     C21100   2.321   7.024   2.653 -0.1195 -0.1917  0.7007
  898MOL0     C21101   2.388   6.926   2.580 -0.2375 -0.2573  0.1509
  898MOL0     C21102   2.385   6.916   2.446  0.0253  0.3289 -0.1392
  898MOL0     O21103   2.447   6.821   2.376  0.5730  0.5861  0.5444
  898MOL0     C21104   2.590   6.822   2.393  0.4771 -0.8454  0.0997
  898MOL0     C21105   2.637   6.718   2.293  0.5448  0.0597 -0.4448
  898MOL0     C21106   2.792   6.707   2.296 -0.4714  0.3825  0.5017
  898MOL0     C21107   2.840   6.585   2.385  0.2144 -0.6564  0.8030
  898MOL0     C21108   2.859   6.448   2.316  0.5302 -0.5571 -0.2940
  898MOL0     C21109   2.971   6.449   2.212  0.0024  0.5828  0.5190
  898MOL0     C21110   3.110   6.520   2.246 -0.4234 -0.2490  0.0133
  898MOL0     C21111   3.206   6.485   2.134 -0.6496  0.1875 -0.2353
  898MOL0     N21112   3.239   6.344   2.137  0.1534 -0.3490  0.3181
  898MOL0     C21113   3.286   6.275   2.247 -0.7368  0.1802 -0.3460
  898MOL0     C21114   3.319   6.150   2.198  0.4765  0.3290  0.2709
  898MOL0     C21115   3.363   6.041   2.274  0.9885  0.1325  0.3592
  898MOL0     C21116   3.511   6.013   2.265  0.3365  0.1128 -0.2159
  898MOL0     C21117   3.553   5.903   2.362 -0.5180 -0.6484  0.5261
  898MOL0     C21118   3.709   5.890   2.339  0.0404  0.0532 -0.3534
  898MOL0     O21119   3.746   5.818   2.460  0.4096 -0.1778  0.1221
  898MOL0     C21120   3.874   5.821   2.509 -0.4499 -0.9860  1.1112
  898MOL0     C21121   3.964   5.753   2.430 -0.3804 -0.3961  0.1336
  898MOL0     C21122   4.104   5.758   2.462 -0.1301 -0.1958  0.3818
  898MOL0     C21123   4.149   5.829   2.577 -0.5696 -0.0014  1.0057
  898MOL0     C21124   4.298   5.846   2.588 -0.3283 -0.0817  0.1356
  898MOL0     O21125   4.358   5.865   2.712  0.0232 -0.1040  0.9037
  898MOL0     C21126   4.486   5.832   2.738 -0.5131 -0.1786  0.8713
  898MOL0     C21127   4.510   5.774   2.864  0.1134 -1.1379  0.3697
  898MOL0     C21128   4.631   5.727   2.899  0.0637 -0.2456  0.5551
  898MOL0     C21129   4.753   5.749   2.821 -0.0892  0.4257 -0.4420
  898MOL0     O21130   4.878   5.702   2.862  0.4432 -0.6711  0.2672
  898MOL0     C21131   4.920   5.726   2.995  0.1825 -0.3941 -1.2181
  898MOL0     C21132   5.072   5.717   3.003 -0.2024 -0.5185  0.0359
  898MOL0     C21133   5.140   5.587   2.945  0.0365 -0.6606 -0.7924
  898MOL0     C21134   5.127   5.464   3.035 -0.6772 -0.6447 -1.6493
  898MOL0     C21135   5.154   5.334   2.963 -0.2232 -0.0963 -0.5907
  898MOL0     C21136   5.253   5.335   2.853 -0.7084  0.1027 -0.0651
  898MOL0     C21137   5.303   5.202   2.798  0.1348  0.2633 -0.1268
  898MOL0     C21138   5.395   5.122   2.899  0.1205  0.6985  0.3888
  898MOL0    Cl21139   5.469   4.981   2.817 -0.2729 -0.1316  0.2963
  898MOL0     C21140   4.739   5.814   2.703  0.1337 -0.7055 -0.0715
  898MOL0     C21141   4.605   5.851   2.655  0.2986  0.3133  0.1704
  898MOL0     O21142   4.358   5.853   2.482  0.5306 -0.2510  0.3277
  898MOL0     C21143   4.058   5.885   2.660 -0.0856 -0.1014 -0.1152
  898MOL0     C21144   3.927   5.887   2.624 -0.2458  1.0143  0.8433
  898MOL0     N21145   3.286   6.144   2.068  0.7100  1.6058 -0.3889
  898MOL0     N21146   3.234   6.252   2.034 -0.2135  0.4417 -1.0425
  898MOL0     C21147   2.306   7.013   2.377 -1.1731  0.8047 -0.3051
  898MOL0     C21148   2.235   7.115   2.449 -0.3604 -0.6769 -0.6281
  898MOL0     C21149   2.253   7.409   2.796 -1.4381 -0.7634 -0.8625
  898MOL0     C21150   2.121   7.422   2.853  0.1396  0.0883  0.8088
  898MOL0     C21151   2.089   7.506   2.959 -0.5318 -0.6481  0.5750
  898MOL0     C21152   2.188   7.569   3.030 -1.0624 -0.5033  0.7520
  898MOL0     O21153   2.161   7.660   3.135  0.4450 -0.0731  0.1866
  898MOL0     C21154   2.264   7.734   3.204 -0.3179 -0.0720 -0.6857
  898MOL0     C21155   2.211   7.810   3.331  0.0461  0.7487 -1.1430
  898MOL0     C21156   2.096   7.908   3.304 -0.1069 -0.3485  0.0128
  898MOL0     C21157   2.053   7.975   3.442  0.7113  0.5750 -0.1410
  898MOL0     C21158   2.131   8.089   3.483 -0.1912  0.4658  0.3827
  898MOL0     C21159   2.212   8.171   3.519 -0.2192  0.3300 -0.9731
  898MOL0     C21160   2.326   7.552   2.987 -0.4137 -0.1576  0.2898
  898MOL0     C21161   2.360   7.479   2.869  0.6899 -0.9839 -0.7446
  898MOL0     C21162   2.498   7.487   2.810  1.0483  0.5229 -0.8722
  898MOL0     H21163   2.318   7.026   2.762  0.1130  0.8811  0.6983
  898MOL0     H21164   2.448   6.856   2.638  1.7363  1.5466  0.4280
  898MOL0     H21165   2.624   6.924   2.371 -4.2069  0.8327 -0.5828
  898MOL0     H21166   2.619   6.796   2.495 -2.1677 -0.3646  1.0604
  898MOL0     H21167   2.616   6.748   2.190  0.0904 -0.8615 -0.6388
  898MOL0     H21168   2.589   6.622   2.315 -1.4833  1.1081  0.0094
  898MOL0     H21169   2.833   6.797   2.344 -0.6111 -0.9426  3.2664
  898MOL0     H21170   2.846   6.685   2.203  1.4094  1.5551  1.2449
  898MOL0     H21171   2.933   6.614   2.434 -1.4772  2.6938  2.3712
  898MOL0     H21172   2.759   6.556   2.453 -2.4367  0.5008 -1.6398
  898MOL0     H21173   2.878   6.373   2.394  1.3132 -0.1725 -0.1135
  898MOL0     H21174   2.762   6.415   2.277 -0.0253  0.7254 -0.0440
  898MOL0     H21175   2.995   6.346   2.184  4.0711  1.5924 -0.2701
  898MOL0     H21176   2.926   6.488   2.120 -1.8253 -0.7668  0.7855
  898MOL0     H21177   3.153   6.489   2.342 -0.4180  0.3479  0.2110
  898MOL0     H21178   3.097   6.628   2.233  1.1680  0.4328  3.1316
  898MOL0     H21179   3.162   6.504   2.035 -0.0876 -3.5856 -1.3578
  898MOL0     H21180   3.302   6.534   2.149  0.2649 -2.2587  2.8078
  898MOL0     H21181   3.299   6.320   2.345  0.4391 -5.2237  2.3513
  898MOL0     H21182   3.347   6.078   2.376  1.1091  2.4818 -0.4233
  898MOL0     H21183   3.310   5.950   2.244  0.8374  0.9471 -2.0488
  898MOL0     H21184   3.538   5.989   2.162  3.3390  0.4394  0.4066
  898MOL0     H21185   3.561   6.107   2.292 -2.4639  0.9521  2.6776
  898MOL0     H21186   3.501   5.808   2.344 -3.0240  0.0242  3.3791
  898MOL0     H21187   3.534   5.944   2.461  2.8877  0.9723  0.6278
  898MOL0     H21188   3.772   5.979   2.335  1.2308 -0.5510  2.3245
  898MOL0     H21189   3.726   5.842   2.243 -0.7533  4.9756 -3.2942
  898MOL0     H21190   3.927   5.712   2.337  0.2343 -0.6754  0.0106
  898MOL0     H21191   4.174   5.698   2.404 -0.3074 -2.0959  2.0154
  898MOL0     H21192   4.421   5.765   2.925  1.5403 -0.8527  2.5861
  898MOL0     H21193   4.634   5.681   2.997  0.6368 -2.2252 -0.3599
  898MOL0     H21194   4.889   5.829   3.015  2.4854 -0.0931  1.5028
  898MOL0     H21195   4.868   5.658   3.061 -1.2498  2.6632  1.0475
  898MOL0     H21196   5.119   5.795   2.942 -1.9856  0.8713  0.3319
  898MOL0     H21197   5.115   5.729   3.103 -1.5787 -2.6162  0.9503
  898MOL0     H21198   5.107   5.554   2.846  1.2013 -0.9565 -1.0975
  898MOL0     H21199   5.247   5.607   2.932  1.0123 -4.7876 -0.4997
  898MOL0     H21200   5.025   5.462   3.074 -0.1945  2.4784  0.1256
  898MOL0     H21201   5.189   5.475   3.124 -1.9844 -1.6031 -0.5920
  898MOL0     H21202   5.064   5.275   2.943  1.3677 -1.9105 -2.8769
  898MOL0     H21203   5.211   5.281   3.040  1.1003  0.9143 -0.8463
  898MOL0     H21204   5.212   5.386   2.765  0.9817  0.5188 -0.6548
  898MOL0     H21205   5.342   5.397   2.872 -1.4753  0.1864  3.9921
  898MOL0     H21206   5.367   5.223   2.712 -0.8180 -2.5899 -1.6648
  898MOL0     H21207   5.215   5.143   2.769  0.0276  0.8758 -1.1250
  898MOL0     H21208   5.466   5.191   2.945  0.6345  0.5646 -0.1874
  898MOL0     H21209   5.333   5.079   2.978  1.0670  1.9617  1.8858
  898MOL0     H21210   4.823   5.851   2.645 -0.7182 -1.0131 -1.5511
  898MOL0     H21211   4.604   5.895   2.556  3.4531  0.3891  0.0644
  898MOL0     H21212   4.096   5.938   2.747 -3.0000  2.3975 -0.2063
  898MOL0     H21213   3.856   5.945   2.682  0.7554  2.4592  0.6765
  898MOL0     H21214   2.311   7.022   2.269  1.3067  2.0850 -0.1615
  898MOL0     H21215   2.185   7.193   2.391  0.5408 -1.3337 -2.3577
  898MOL0     H21216   2.042   7.370   2.800  0.6933  0.6738 -0.6638
  898MOL0     H21217   1.989   7.498   2.999  1.0965 -1.2886  5.1338
  898MOL0     H21218   2.316   7.812   3.149  2.6234 -1.6378 -0.3464
  898MOL0     H21219   2.331   7.657   3.244 -1.0497  1.3447  3.7642
  898MOL0     H21220   2.293   7.867   3.375 -2.0305  3.8102 -0.9283
  898MOL0     H21221   2.179   7.740   3.409  2.8308  0.9135  0.2511
  898MOL0     H21222   2.016   7.861   3.246  0.8315 -0.5083 -1.1979
  898MOL0     H21223   2.137   7.985   3.238 -0.5940 -2.5963 -3.1702
  898MOL0     H21224   1.948   8.003   3.433  0.5592  0.6867  1.5794
  898MOL0     H21225   2.067   7.899   3.519  1.9948  0.3161 -0.6011
  898MOL0     H21226   2.289   8.242   3.540  0.8624 -1.1959  0.4740
  898MOL0     H21227   2.412   7.593   3.039  0.5910 -5.6362  3.7008
  898MOL0     H21228   2.525   7.381   2.802  0.8282  0.1358  2.2546
  898MOL0     H21229   2.491   7.541   2.715  0.2472 -1.6063 -2.0904
  898MOL0     H21230   2.573   7.520   2.882 -0.7504  0.6612  1.0209
  899MOL0     O21231   3.242   0.438   6.209  0.0734  0.3487  0.2662
  899MOL0     C21232   3.232   0.544   6.267 -0.3121 -0.9172 -0.5842
  899MOL0     O21233   3.329   0.614   6.322 -1.2244  0.4518  0.6335
  899MOL0     C21234   3.433   0.531   6.366  0.5253  0.0086  0.5305
  899MOL0     C21235   3.555   0.557   6.302  0.7166 -0.0027 -0.5866
  899MOL0     C21236   3.674   0.505   6.350 -0.4837 -0.1778 -0.4530
  899MOL0     C21237   3.677   0.416   6.459 -0.2890 -0.7234  0.4627
  899MOL0     O21238   3.803   0.367   6.494  0.6406  0.7670 -0.0829
  899MOL0     C21239   3.810   0.227   6.521 -0.7570  0.2856 -0.5340
  899MOL0     C21240   3.830   0.154   6.394  0.1193  0.5222  0.8393
  899MOL0     C21241   3.836   0.003   6.405  0.3702 -0.6618 -0.4655
  899MOL0     C21242   3.955  -0.031   6.498  0.8471  0.5320 -0.1223
  899MOL0     C21243   3.970  -0.179   6.519 -0.2819  0.1461 -0.9826
  899MOL0     C21244   4.121  -0.192   6.548  1.5660  0.1257  0.4138
  899MOL0     C21245   4.152  -0.348   6.599  0.2873  0.8972  0.4406
  899MOL0     C21246   4.307  -0.375   6.611 -0.7586  1.1873  0.5645
  899MOL0     N21247   4.381  -0.336   6.486  0.0232  0.4069 -0.6159
  899MOL0     C21248   4.407  -0.416   6.380  0.0655 -0.1881  0.5804
  899MOL0     C21249   4.480  -0.333   6.294 -0.3658 -0.0341 -0.4865
  899MOL0     C21250   4.534  -0.383   6.159  0.3190  0.1785 -0.6000
  899MOL0     C21251   4.436  -0.395   6.039 -0.3711 -0.5230  0.6790
  899MOL0     C21252   4.523  -0.423   5.910  0.0822 -0.1593 -0.1762
  899MOL0     C21253   4.568  -0.298   5.835  0.1636 -0.8627  0.4836
  899MOL0     O21254   4.640  -0.357   5.725 -0.4260  0.3587  0.0923
  899MOL0     C21255   4.772  -0.376   5.732  0.1728  0.5905  1.2298
  899MOL0     C21256   4.859  -0.387   5.842  0.8087 -0.5881 -0.6921
  899MOL0     C21257   4.994  -0.424   5.817 -0.5292  0.2754 -0.5253
  899MOL0     C21258   5.050  -0.440   5.691 -0.2071 -0.5320  0.0697
  899MOL0     C21259   5.191  -0.490   5.670  0.7742 -0.4612  0.3526
  899MOL0     O21260   5.264  -0.489   5.782  0.2690  0.2406  0.5086
  899MOL0     C21261   5.388  -0.531   5.783  0.4336  0.2784  0.6870
  899MOL0     C21262   5.497  -0.468   5.720 -0.0347  0.1690  0.1210
  899MOL0     C21263   5.629  -0.518   5.734  0.1013 -0.0975 -0.4248
  899MOL0     C21264   5.666  -0.612   5.826 -0.7636  0.6577  0.8084
  899MOL0     O21265   5.797  -0.649   5.844  0.4271  0.1424 -0.2495
  899MOL0     C21266   5.842  -0.719   5.964 -0.6122 -0.1119  0.2461
  899MOL0     C21267   5.993  -0.695   5.994  0.2696  0.0956 -0.3616
  899MOL0     C21268   6.085  -0.787   5.896  1.2403 -0.2352 -0.0842
  899MOL0     C21269   6.225  -0.742   5.924  0.0778 -0.2882  0.2066
  899MOL0     C21270   6.317  -0.838   5.867 -0.0023  0.3683 -0.4868
  899MOL0     C21271   6.460  -0.785   5.874 -0.3463 -0.3690  0.2538
  899MOL0     C21272   6.565  -0.898   5.819  0.0133  0.6965  0.7391
  899MOL0     C21273   6.703  -0.885   5.883 -0.6962 -0.0295  0.6552
  899MOL0    Cl21274   6.760  -0.721   5.915 -0.4103  0.3000 -0.1322
  899MOL0     C21275   5.559  -0.680   5.899 -0.3043 -0.1851 -0.1176
  899MOL0     C21276   5.424  -0.637   5.873  0.0563  0.5785 -0.3432
  899MOL0     O21277   5.240  -0.527   5.565  0.0919 -0.4922 -0.2015
  899MOL0     C21278   4.963  -0.409   5.588 -0.1421 -0.8221  0.9782
  899MOL0     C21279   4.829  -0.374   5.604  0.1560 -0.3599 -0.1363
  899MOL0     N21280   4.513  -0.214   6.365  0.0013  0.2893  0.5513
  899MOL0     N21281   4.440  -0.215   6.472  1.2096 -0.6143  0.5557
  899MOL0     C21282   3.550   0.393   6.528 -0.0184  0.1962 -0.5560
  899MOL0     C21283   3.428   0.456   6.485 -1.1684  0.4723  0.0656
  899MOL0     C21284   3.114   0.625   6.242 -0.1087 -0.2122 -0.1006
  899MOL0     C21285   3.129   0.755   6.207  0.1940 -0.8411 -0.3768
  899MOL0     C21286   3.019   0.838   6.202  0.1619  0.6204 -0.1629
  899MOL0     C21287   2.891   0.790   6.229  0.5346 -0.0020  0.3661
  899MOL0     O21288   2.789   0.877   6.240 -0.1340  0.2277  0.3906
  899MOL0     C21289   2.709   0.879   6.122 -0.5565 -0.0266 -0.5529
  899MOL0     C21290   2.662   1.017   6.097 -0.1290  0.0300  0.1842
  899MOL0     C21291   2.779   1.112   6.064  0.1152 -0.6692 -0.0080
  899MOL0     C21292   2.739   1.232   5.976 -0.1915 -0.1575  0.4862
  899MOL0     C21293   2.843   1.336   5.981 -0.1990 -0.6206  0.0423
  899MOL0     C21294   2.944   1.404   5.984 -0.8260  0.2903  0.3650
  899MOL0     C21295   2.881   0.657   6.252  0.3677  0.6606 -0.5681
  899MOL0     C21296   2.983   0.569   6.259 -0.9110  0.3957  0.5992
  899MOL0     C21297   2.954   0.422   6.273  0.2820  1.0182 -1.0199
  899MOL0     H21298   3.559   0.630   6.221  0.6768  0.7862  0.1120
  899MOL0     H21299   3.773   0.538   6.320  0.2003 -0.2704  1.5189
  899MOL0     H21300   3.894   0.227   6.591 -1.2517  0.1542  0.0770
  899MOL0     H21301   3.724   0.182   6.573  0.6414 -1.3560  0.4682
  899MOL0     H21302   3.927   0.178   6.350  1.3737 -3.6575  0.9328
  899MOL0     H21303   3.755   0.182   6.319  0.5331 -0.9790 -0.1905
  899MOL0     H21304   3.851  -0.046   6.308 -4.1236 -0.8802 -1.2778
  899MOL0     H21305   3.743  -0.035   6.449 -0.3070  1.6528  0.2141
  899MOL0     H21306   4.043   0.022   6.460  0.8552  2.1449  1.9652
  899MOL0     H21307   3.926   0.012   6.594 -0.6418  2.2741 -1.2780
  899MOL0     H21308   3.911  -0.227   6.597  1.1372 -0.2403 -0.1076
  899MOL0     H21309   3.944  -0.222   6.422 -1.5304 -0.3808 -0.4320
  899MOL0     H21310   4.183  -0.175   6.460  1.3573  2.7117  0.6662
  899MOL0     H21311   4.152  -0.126   6.630 -0.7709 -0.4522  1.8545
  899MOL0     H21312   4.094  -0.408   6.529 -1.6874  1.0422  1.8800
  899MOL0     H21313   4.111  -0.361   6.699  0.7673 -0.5433  0.4710
  899MOL0     H21314   4.348  -0.318   6.695  1.8545 -1.4981  1.2828
  899MOL0     H21315   4.329  -0.479   6.639 -0.4968  0.8462 -0.8147
  899MOL0     H21316   4.362  -0.508   6.346 -0.5164 -0.3609  1.7477
  899MOL0     H21317   4.614  -0.324   6.113  0.9526  0.0794  0.3464
  899MOL0     H21318   4.582  -0.481   6.162  3.6327  1.6763  1.3630
  899MOL0     H21319   4.359  -0.471   6.058  1.5398 -2.1291  2.5071
  899MOL0     H21320   4.387  -0.298   6.030  0.2252 -0.2871 -0.1824
  899MOL0     H21321   4.445  -0.465   5.845 -2.6227  2.0392  1.4007
  899MOL0     H21322   4.605  -0.490   5.935  0.7860  0.4550 -0.7754
  899MOL0     H21323   4.641  -0.247   5.898  0.6463 -1.0340  0.0674
  899MOL0     H21324   4.493  -0.234   5.789  1.7989 -1.1708 -2.9306
  899MOL0     H21325   4.839  -0.401   5.948  2.1262  1.5834 -0.0957
  899MOL0     H21326   5.046  -0.446   5.909 -0.7176  0.6142 -0.3370
  899MOL0     H21327   5.469  -0.384   5.657  0.2240  2.4345  2.8611
  899MOL0     H21328   5.700  -0.469   5.667  0.3618 -1.4996 -1.2011
  899MOL0     H21329   5.791  -0.670   6.048 -1.1602 -0.0622 -0.1122
  899MOL0     H21330   5.812  -0.824   5.960 -1.2136  0.0793 -0.5515
  899MOL0     H21331   6.020  -0.590   5.979  0.1845  0.0321 -1.0007
  899MOL0     H21332   6.017  -0.717   6.098 -0.2104  1.7553  0.1184
  899MOL0     H21333   6.068  -0.890   5.928  0.4257  0.6972  2.8666
  899MOL0     H21334   6.062  -0.773   5.790 -0.8179 -2.4016  0.0014
  899MOL0     H21335   6.238  -0.740   6.033  3.6745  1.2995 -0.0911
  899MOL0     H21336   6.241  -0.637   5.895 -0.3915  0.8487  3.5516
  899MOL0     H21337   6.300  -0.862   5.762  1.8316 -1.6361 -0.3953
  899MOL0     H21338   6.310  -0.931   5.923 -2.5486  2.0899  2.3936
  899MOL0     H21339   6.471  -0.689   5.822 -1.0049 -0.6815 -0.4928
  899MOL0     H21340   6.475  -0.763   5.980 -2.2215  0.5858  0.3681
  899MOL0     H21341   6.579  -0.876   5.712  0.9234  0.4950  0.8136
  899MOL0     H21342   6.536  -1.001   5.842 -1.2174  1.2064  1.5880
  899MOL0     H21343   6.703  -0.932   5.982  1.0940  0.1226  0.7593
  899MOL0     H21344   6.785  -0.912   5.816 -1.0269  2.9475 -1.1496
  899MOL0     H21345   5.597  -0.754   5.969  0.2556 -0.1328 -0.3529
  899MOL0     H21346   5.350  -0.700   5.922 -0.0677 -0.2022 -1.5012
  899MOL0     H21347   5.009  -0.408   5.490  0.4589 -0.6479  1.2574
  899MOL0     H21348   4.784  -0.348   5.509  2.2435 -2.0580 -1.6998
  899MOL0     H21349   3.552   0.339   6.623  0.4563  0.9306 -0.1446
  899MOL0     H21350   3.337   0.441   6.543 -2.6494 -0.3501 -2.3162
  899MOL0     H21351   3.228   0.799   6.216 -0.3431  0.0589  1.8978
  899MOL0     H21352   3.024   0.943   6.175  1.8733  0.3813 -0.8824
  899MOL0     H21353   2.618   0.822   6.146 -2.4598  2.9004 -0.3167
  899MOL0     H21354   2.755   0.844   6.029  0.9779  2.3210 -0.7541
  899MOL0     H21355   2.616   1.039   6.194  0.7477  0.9273  0.4118
  899MOL0     H21356   2.576   1.019   6.029  0.3582  0.0467 -0.4396
  899MOL0     H21357   2.861   1.061   6.013 -0.2101  1.5490 -3.0395
  899MOL0     H21358   2.804   1.155   6.161  0.2267 -1.9015  0.5279
  899MOL0     H21359   2.718   1.199   5.874 -1.1683  1.1275  0.2436
  899MOL0     H21360   2.644   1.279   6.004  0.2947  1.3429 -0.2658
  899MOL0     H21361   3.036   1.458   5.989 -0.6547 -0.0714  1.5776
  899MOL0     H21362   2.782   0.614   6.267  0.8336  0.4701  3.0158
  899MOL0     H21363   2.862   0.404   6.329  0.9283 -0.1250 -0.2877
  899MOL0     H21364   2.949   0.379   6.172  2.9712 -0.4005 -0.6589
  899MOL0     H21365   3.030   0.364   6.327 -0.9154 -0.7901 -1.2159
  900MOL0     O21366   6.446  10.704   9.117 -0.5923 -0.1170 -0.6121
  900MOL0     C21367   6.548  10.726   9.185 -0.1070  0.4587 -0.2677
  900MOL0     O21368   6.553  10.818   9.293  0.5866 -0.5034  0.2782
  900MOL0     C21369   6.419  10.856   9.334 -0.2153  0.2434 -1.1297
  900MOL0     C21370   6.375  10.987   9.326  0.8105 -0.3647 -0.7457
  900MOL0     C21371   6.236  11.020   9.346  0.0474  0.0247  0.2696
  900MOL0     C21372   6.138  10.920   9.371 -0.9998  0.5170 -0.6510
  900MOL0     O21373   6.007  10.964   9.383 -0.7153 -0.3791 -0.1359
  900MOL0     C21374   5.899  10.872   9.400 -0.1439 -0.4911 -0.6864
  900MOL0     C21375   5.768  10.945   9.421  0.7077  0.4599  0.3713
  900MOL0     C21376   5.733  11.047   9.311 -0.1886 -0.8387  0.4438
  900MOL0     C21377   5.583  11.072   9.298 -0.7657 -0.1741  0.5196
  900MOL0     C21378   5.555  11.153   9.168 -0.5969  0.5652 -1.0600
  900MOL0     C21379   5.427  11.245   9.163 -0.1486  0.1574 -0.7299
  900MOL0     C21380   5.301  11.193   9.227  0.9362  0.6791  0.3652
  900MOL0     C21381   5.252  11.075   9.140  0.1989 -0.4300 -0.1404
  900MOL0     N21382   5.152  10.997   9.217 -0.4846 -0.1517  0.0227
  900MOL0     C21383   5.027  11.030   9.250  0.2866  0.1009 -0.6406
  900MOL0     C21384   4.981  10.926   9.326 -0.4929 -0.1569  0.4512
  900MOL0     C21385   4.839  10.899   9.360 -0.4617 -0.3698  0.7077
  900MOL0     C21386   4.777  11.028   9.432 -0.5375  0.9919  0.3801
  900MOL0     C21387   4.641  11.001   9.474 -0.3040 -0.0507  0.6205
  900MOL0     C21388   4.619  10.956   9.618 -0.8298  0.5297 -0.9263
  900MOL0     O21389   4.475  10.912   9.651  0.0630  0.2402  0.5635
  900MOL0     C21390   4.444  10.927   9.780 -0.9571  0.1601 -0.5502
  900MOL0     C21391   4.537  10.902   9.891  0.5472 -0.2310 -0.5108
  900MOL0     C21392   4.483  10.923  10.018 -0.2028 -0.2465 -0.6540
  900MOL0     C21393   4.356  10.962  10.048 -0.5628 -0.1594 -0.3212
  900MOL0     C21394   4.295  10.989  10.183 -0.6869  0.1925  0.1986
  900MOL0     O21395   4.383  11.028  10.284 -0.1623 -0.0590 -0.2714
  900MOL0     C21396   4.345  11.046  10.413  0.1673  0.3586 -0.7090
  900MOL0     C21397   4.268  10.952  10.495 -0.1648  0.0104 -1.1737
  900MOL0     C21398   4.248  10.978  10.635  0.3134  0.0508  0.6967
  900MOL0     C21399   4.303  11.095  10.693 -0.2185  0.5003 -0.0975
  900MOL0     O21400   4.267  11.127  10.817 -1.0914 -0.0084  0.6477
  900MOL0     C21401   4.149  11.202  10.810  0.3645 -0.1988 -1.5079
  900MOL0     C21402   4.129  11.281  10.938 -0.4611  1.0903  0.0250
  900MOL0     C21403   4.078  11.208  11.057  0.1245  1.1989 -1.3498
  900MOL0     C21404   4.046  11.322  11.159  0.2032  0.4607 -0.5088
  900MOL0     C21405   3.993  11.254  11.289 -0.1046 -0.2137 -0.1727
  900MOL0     C21406   3.846  11.211  11.268 -0.9188  0.7106  0.8978
  900MOL0     C21407   3.790  11.137  11.387 -0.5593  0.1580 -0.2160
  900MOL0     C21408   3.637  11.123  11.372  0.0015  0.1506 -0.8278
  900MOL0    Cl21409   3.549  11.109  11.534 -0.0848 -0.5606  0.6021
  900MOL0     C21410   4.376  11.184  10.613  0.2696 -0.2375 -0.2860
  900MOL0     C21411   4.390  11.161  10.471  0.8448 -0.7988  0.0007
  900MOL0     O21412   4.178  10.967  10.198 -0.1399  0.6747 -0.2010
  900MOL0     C21413   4.273  10.973   9.939 -0.0405 -1.0358 -0.8936
  900MOL0     C21414   4.310  10.952   9.811 -0.2912  0.4655  0.0620
  900MOL0     N21415   5.084  10.837   9.338  0.4770 -0.1691  0.1628
  900MOL0     N21416   5.190  10.883   9.273  0.9807  0.2683 -0.8200
  900MOL0     C21417   6.184  10.787   9.384  0.1852 -0.8672  0.0200
  900MOL0     C21418   6.321  10.763   9.379  0.0718  0.2581 -0.0668
  900MOL0     C21419   6.671  10.641   9.172 -0.3478  0.6171  0.7399
  900MOL0     C21420   6.759  10.644   9.281  0.6531  0.1755  0.0253
  900MOL0     C21421   6.868  10.555   9.289 -0.2347  1.0130  0.2574
  900MOL0     C21422   6.890  10.462   9.177  0.8262  0.5109 -0.4419
  900MOL0     O21423   6.990  10.372   9.152 -0.3549  0.5625 -0.0090
  900MOL0     C21424   7.054  10.320   9.273 -0.4622  0.4942 -0.3944
  900MOL0     C21425   7.168  10.396   9.323  0.5207 -0.5478 -0.1030
  900MOL0     C21426   7.232  10.335   9.445 -0.7592 -0.3317 -0.3381
  900MOL0     C21427   7.320  10.435   9.527  0.1871  0.5201 -0.7106
  900MOL0     C21428   7.233  10.534   9.596 -1.2170 -0.9202 -0.3948
  900MOL0     C21429   7.167  10.617   9.650 -0.5716 -0.0916 -0.0727
  900MOL0     C21430   6.796  10.461   9.075  0.4326 -0.8395 -0.8751
  900MOL0     C21431   6.684  10.544   9.068  1.3555  0.4504  0.1703
  900MOL0     C21432   6.589  10.534   8.945 -0.3890 -0.1988 -0.3378
  900MOL0     H21433   6.447  11.064   9.302 -0.7000  1.9937  1.7376
  900MOL0     H21434   6.207  11.123   9.333 -1.0532 -0.3473 -0.3718
  900MOL0     H21435   5.890  10.821   9.304 -1.3173 -0.1452 -0.7755
  900MOL0     H21436   5.909  10.805   9.486  1.4443  0.5474 -0.0155
  900MOL0     H21437   5.766  10.999   9.515  2.2421  2.0472 -0.4661
  900MOL0     H21438   5.693  10.865   9.412 -0.8932  1.2173  4.7517
  900MOL0     H21439   5.780  11.011   9.219  1.1351 -3.8068  2.1477
  900MOL0     H21440   5.785  11.141   9.331  0.5818 -1.3188  0.7654
  900MOL0     H21441   5.535  10.974   9.285  0.4681 -0.9965  1.8008
  900MOL0     H21442   5.533  11.122   9.381 -1.9189 -0.4207 -0.0094
  900MOL0     H21443   5.645  11.198   9.125 -0.3017  0.4711 -0.5430
  900MOL0     H21444   5.532  11.075   9.095 -1.3165  1.0103 -1.3237
  900MOL0     H21445   5.448  11.340   9.215 -0.2128 -0.1181 -0.1927
  900MOL0     H21446   5.397  11.274   9.062 -2.0007  0.8321 -0.0330
  900MOL0     H21447   5.223  11.270   9.227 -0.5163 -0.7407  1.5889
  900MOL0     H21448   5.321  11.164   9.331 -0.2186  0.2706  0.4860
  900MOL0     H21449   5.215  11.121   9.048 -0.1954 -3.2801 -1.5112
  900MOL0     H21450   5.333  11.005   9.120 -0.0782 -1.0997  0.9856
  900MOL0     H21451   4.969  11.116   9.217 -4.5374 -2.9623 -1.1460
  900MOL0     H21452   4.789  10.878   9.265 -1.2716  0.2381  0.9861
  900MOL0     H21453   4.836  10.806   9.416  0.1543 -0.5766  0.4026
  900MOL0     H21454   4.842  11.061   9.513  1.3485  3.2855 -1.9393
  900MOL0     H21455   4.786  11.107   9.358 -1.6814  1.0712  0.3043
  900MOL0     H21456   4.600  10.924   9.408  1.0469 -0.3626  0.1222
  900MOL0     H21457   4.581  11.092   9.465 -0.6427 -0.5000 -3.5855
  900MOL0     H21458   4.659  11.028   9.689 -0.5124  1.9845 -2.5066
  900MOL0     H21459   4.676  10.863   9.635 -2.0805  0.2538  2.4496
  900MOL0     H21460   4.642  10.876   9.883 -0.0979 -2.6096 -2.1239
  900MOL0     H21461   4.545  10.907  10.105  0.1261 -1.2502 -1.0533
  900MOL0     H21462   4.235  10.867  10.437 -0.5740  0.6691 -1.9365
  900MOL0     H21463   4.184  10.916  10.696  1.6024 -1.4099  0.6405
  900MOL0     H21464   4.153  11.275  10.728 -1.4843  2.3226  0.4804
  900MOL0     H21465   4.062  11.136  10.798  1.3757 -2.7729  3.0578
  900MOL0     H21466   4.223  11.327  10.970  0.3286  1.2009 -2.2417
  900MOL0     H21467   4.058  11.361  10.917 -0.6979  1.1970  1.1634
  900MOL0     H21468   3.996  11.141  11.030  1.5749 -1.5100  0.5539
  900MOL0     H21469   4.156  11.139  11.091 -2.6343 -2.0440 -1.0700
  900MOL0     H21470   3.982  11.404  11.125  0.5965  1.4598  1.0279
  900MOL0     H21471   4.140  11.375  11.177 -0.7583  2.2865 -0.7115
  900MOL0     H21472   3.999  11.321  11.375 -1.3868  0.7310 -0.7937
  900MOL0     H21473   4.065  11.177  11.318  3.4790  4.1053  4.2570
  900MOL0     H21474   3.787  11.300  11.245  0.1392  0.7112 -2.2050
  900MOL0     H21475   3.834  11.153  11.177 -0.2375 -3.1160  3.0216
  900MOL0     H21476   3.813  11.190  11.480 -1.0741  2.2466 -1.2243
  900MOL0     H21477   3.846  11.043  11.385 -0.0746  0.3663  1.5703
  900MOL0     H21478   3.606  11.217  11.326  1.0227  1.4056  0.8779
  900MOL0     H21479   3.616  11.040  11.305 -1.5842  1.1015 -1.5545
  900MOL0     H21480   4.408  11.284  10.639 -2.6965  0.4321  1.2650
  900MOL0     H21481   4.437  11.244  10.419  0.3258 -0.8102 -0.4894
  900MOL0     H21482   4.171  11.002   9.960  1.2454  2.1721  2.0442
  900MOL0     H21483   4.237  10.953   9.731  0.1993 -1.8116 -0.4881
  900MOL0     H21484   6.115  10.703   9.383 -2.1560  0.9140  0.9214
  900MOL0     H21485   6.355  10.661   9.393 -0.2773  0.3866  1.9650
  900MOL0     H21486   6.743  10.693   9.376 -2.0675  0.2522 -0.3931
  900MOL0     H21487   6.942  10.551   9.367  0.8294 -0.6725 -0.7698
  900MOL0     H21488   7.091  10.221   9.246 -4.0384 -1.5269  1.3782
  900MOL0     H21489   6.978  10.302   9.350 -0.9533  0.7138 -0.8117
  900MOL0     H21490   7.157  10.503   9.344  3.7847 -0.1505  0.1255
  900MOL0     H21491   7.243  10.406   9.245 -0.3459  1.8753 -0.7126
  900MOL0     H21492   7.314  10.274   9.406  0.0816  1.0960 -0.8782
  900MOL0     H21493   7.162  10.288   9.515  1.2437  1.1224  2.8568
  900MOL0     H21494   7.361  10.367   9.603 -0.8396 -1.1188 -1.5478
  900MOL0     H21495   7.407  10.470   9.472  0.0219  2.0967 -0.0096
  900MOL0     H21496   7.106  10.684   9.708 -1.5385  0.2894 -1.4830
  900MOL0     H21497   6.804  10.384   8.999 -0.2649  0.9339 -2.8266
  900MOL0     H21498   6.612  10.442   8.892 -2.1691 -1.5202  1.0734
  900MOL0     H21499   6.485  10.517   8.973 -0.7710 -1.1032 -2.1870
  900MOL0     H21500   6.602  10.618   8.876 -0.6109  0.3136  0.2390
  901MOL0     O21501  10.403   5.438   8.201  0.8094  0.5009  0.0564
  901MOL0     C21502  10.509   5.381   8.189  0.2603  0.5886  0.3315
  901MOL0     O21503  10.593   5.407   8.086 -0.4533  0.4461  0.7137
  901MOL0     C21504  10.569   5.502   7.991 -0.2777  0.2126 -0.1325
  901MOL0     C21505  10.498   5.623   8.018 -0.1924  0.3657 -0.5117
  901MOL0     C21506  10.488   5.716   7.915  0.4051 -0.6138  0.1633
  901MOL0     C21507  10.537   5.694   7.790 -0.9601  0.6033 -0.8693
  901MOL0     O21508  10.513   5.792   7.703  0.4284  0.3461  0.3996
  901MOL0     C21509  10.555   5.786   7.567 -0.4608  0.4116 -0.8073
  901MOL0     C21510  10.493   5.890   7.480  0.1441 -0.2518  0.4632
  901MOL0     C21511  10.339   5.868   7.460 -0.6836  0.0726  0.4867
  901MOL0     C21512  10.287   5.978   7.359  0.6218  0.3118  0.0629
  901MOL0     C21513  10.143   5.975   7.349  0.4837  0.0032 -0.0729
  901MOL0     C21514  10.087   6.080   7.255 -0.6634  0.1607  0.1008
  901MOL0     C21515   9.934   6.062   7.256  0.8934  0.4853  0.3296
  901MOL0     C21516   9.903   5.943   7.163  0.0260 -0.7475  0.8045
  901MOL0     N21517   9.757   5.952   7.135  0.1947  0.7891 -0.5453
  901MOL0     C21518   9.700   6.016   7.024  0.2263  0.2200  0.2249
  901MOL0     C21519   9.570   5.996   7.036 -0.8378 -0.5913  0.3620
  901MOL0     C21520   9.470   6.063   6.952 -0.3741  1.1451  0.3943
  901MOL0     C21521   9.469   5.976   6.824  0.4406  0.4272 -0.1881
  901MOL0     C21522   9.400   6.056   6.716  0.5343 -1.0667  0.2440
  901MOL0     C21523   9.412   6.013   6.576  0.2086  0.1142 -0.2282
  901MOL0     O21524   9.367   5.879   6.558 -0.0816 -0.0447  0.9857
  901MOL0     C21525   9.376   5.813   6.436  0.0635  0.3173 -0.7428
  901MOL0     C21526   9.373   5.870   6.315 -0.0459  0.2862  1.0927
  901MOL0     C21527   9.396   5.792   6.204  0.0667 -0.9242 -0.1915
  901MOL0     C21528   9.399   5.662   6.196 -0.5118 -0.2231 -0.0835
  901MOL0     C21529   9.404   5.574   6.069 -0.2675  0.2529 -0.1157
  901MOL0     O21530   9.430   5.644   5.957  0.3446  0.1872  0.1975
  901MOL0     C21531   9.449   5.568   5.839  0.0196 -0.1822 -1.2621
  901MOL0     C21532   9.563   5.594   5.755 -1.0438 -0.1623 -1.4043
  901MOL0     C21533   9.585   5.516   5.644 -0.8566 -0.7357 -0.2385
  901MOL0     C21534   9.496   5.422   5.600  0.2709 -0.8245 -0.2238
  901MOL0     O21535   9.521   5.351   5.480 -0.0243 -0.5899  0.3082
  901MOL0     C21536   9.494   5.209   5.493 -0.1736 -0.4887  0.0165
  901MOL0     C21537   9.587   5.134   5.586  0.5075  0.2240 -0.6357
  901MOL0     C21538   9.500   5.062   5.685 -0.0264 -0.2936 -0.4520
  901MOL0     C21539   9.588   4.988   5.780  0.4751 -0.1460 -0.6991
  901MOL0     C21540   9.515   4.884   5.863  0.0313  0.0317 -0.0020
  901MOL0     C21541   9.604   4.754   5.888  0.5963 -0.4342 -1.0053
  901MOL0     C21542   9.715   4.791   5.994  0.1845 -0.0468 -0.2087
  901MOL0     C21543   9.804   4.670   6.027  0.5172 -0.2659  0.4314
  901MOL0    Cl21544   9.970   4.727   6.062  0.4067 -0.4674 -0.2180
  901MOL0     C21545   9.385   5.393   5.680  0.0505 -0.2921  0.6757
  901MOL0     C21546   9.364   5.468   5.800  0.3139  0.9737 -0.4005
  901MOL0     O21547   9.395   5.453   6.080  0.1488  0.0540 -0.3261
  901MOL0     C21548   9.390   5.602   6.325  0.2466  0.4691 -0.7980
  901MOL0     C21549   9.379   5.674   6.444  0.0772  0.2655  0.2152
  901MOL0     N21550   9.546   5.928   7.155 -0.0645 -0.0818  0.6643
  901MOL0     N21551   9.657   5.882   7.200 -0.2140  0.2090  0.6375
  901MOL0     C21552  10.612   5.573   7.757  0.4028 -0.1455 -0.4874
  901MOL0     C21553  10.626   5.481   7.864  0.3074 -0.7074  0.5344
  901MOL0     C21554  10.560   5.275   8.280  0.9670  0.3443 -0.0534
  901MOL0     C21555  10.698   5.275   8.297  1.0490 -0.4074  0.8590
  901MOL0     C21556  10.763   5.194   8.375 -1.4960 -0.6199 -0.1207
  901MOL0     C21557  10.692   5.097   8.446 -1.1420 -0.0662 -0.6098
  901MOL0     O21558  10.763   5.014   8.532  0.1196  0.4320  0.5745
  901MOL0     C21559  10.687   4.926   8.620  0.3718  0.0503 -0.2088
  901MOL0     C21560  10.776   4.886   8.737  0.0451 -0.2760 -0.2287
  901MOL0     C21561  10.786   4.995   8.838 -0.7266  0.3523  0.5936
  901MOL0     C21562  10.833   4.947   8.973 -0.1603 -0.1328 -0.3623
  901MOL0     C21563  10.851   5.071   9.055 -0.0013  0.0173  0.0279
  901MOL0     C21564  10.855   5.178   9.102  0.1463  0.1142 -0.1926
  901MOL0     C21565  10.553   5.088   8.441 -0.4867 -0.1328 -0.2135
  901MOL0     C21566  10.481   5.172   8.345 -0.2055  0.5946  0.7797
  901MOL0     C21567  10.336   5.133   8.315  0.1829 -0.4783 -1.2537
  901MOL0     H21568  10.453   5.659   8.110 -1.6644 -1.2419 -0.5520
  901MOL0     H21569  10.445   5.813   7.940  1.6309  0.5348 -1.9326
  901MOL0     H21570  10.663   5.803   7.561 -0.2936  0.7692  1.8036
  901MOL0     H21571  10.535   5.693   7.513  2.0169  0.9423 -2.8193
  901MOL0     H21572  10.542   5.877   7.383 -1.7674  1.6606 -0.8377
  901MOL0     H21573  10.517   5.992   7.511  1.1746 -0.4477  0.3472
  901MOL0     H21574  10.287   5.874   7.556  2.4210 -2.1319  2.4880
  901MOL0     H21575  10.320   5.767   7.422  0.9631 -0.1505  0.1579
  901MOL0     H21576  10.306   6.081   7.389 -4.8089  2.1103 -1.6194
  901MOL0     H21577  10.341   5.976   7.264  2.4126  1.0637  1.0224
  901MOL0     H21578  10.113   5.872   7.330 -1.5803  0.6230 -0.4026
  901MOL0     H21579  10.100   6.001   7.446 -1.2304  2.2976 -1.3500
  901MOL0     H21580  10.118   6.178   7.292 -2.1887  0.9228 -0.5619
  901MOL0     H21581  10.118   6.072   7.150 -2.3216 -0.6322 -0.3688
  901MOL0     H21582   9.876   6.151   7.234 -0.4781 -0.0515  1.6386
  901MOL0     H21583   9.893   6.047   7.356  0.7782 -1.5944  0.0223
  901MOL0     H21584   9.966   5.953   7.074 -0.4193  0.2207  0.5816
  901MOL0     H21585   9.940   5.849   7.205 -0.7045 -0.7127  1.5540
  901MOL0     H21586   9.754   6.072   6.949  0.3892  0.0944  0.2468
  901MOL0     H21587   9.375   6.055   7.004  0.1884  0.7630  1.3862
  901MOL0     H21588   9.489   6.170   6.937 -1.2299  1.6043  2.2890
  901MOL0     H21589   9.569   5.950   6.787 -0.3049 -1.2051 -1.1276
  901MOL0     H21590   9.405   5.890   6.845 -2.3651  2.1351 -1.2939
  901MOL0     H21591   9.423   6.163   6.718  2.2250 -1.3806  2.5936
  901MOL0     H21592   9.294   6.048   6.741 -0.4907  3.0221 -1.9013
  901MOL0     H21593   9.516   6.016   6.542  0.1627 -1.9344 -0.7016
  901MOL0     H21594   9.353   6.079   6.513 -0.5627  0.2392  0.6147
  901MOL0     H21595   9.366   5.977   6.301 -1.0536  0.1706  0.6476
  901MOL0     H21596   9.400   5.845   6.110 -0.7002 -1.9460 -0.8310
  901MOL0     H21597   9.643   5.656   5.792 -0.9409 -0.2526 -1.4752
  901MOL0     H21598   9.669   5.543   5.581 -1.1269  3.8303  0.9920
  901MOL0     H21599   9.387   5.187   5.500 -0.2802 -0.3824 -1.0573
  901MOL0     H21600   9.513   5.171   5.392  0.8802  0.0861 -0.0250
  901MOL0     H21601   9.632   5.050   5.533 -0.3221 -0.9753  0.4821
  901MOL0     H21602   9.661   5.199   5.632 -0.4948  1.6221 -0.9320
  901MOL0     H21603   9.442   5.135   5.741  1.9446  0.9416  0.0601
  901MOL0     H21604   9.426   4.992   5.645 -2.1286  0.3757  2.0253
  901MOL0     H21605   9.645   5.048   5.852 -3.5914  5.3384 -1.3568
  901MOL0     H21606   9.664   4.945   5.714  2.1229 -2.6313  2.5493
  901MOL0     H21607   9.438   4.852   5.792  2.8481  0.5256 -3.5825
  901MOL0     H21608   9.479   4.928   5.956  3.5601  0.9318  1.1161
  901MOL0     H21609   9.550   4.669   5.930  0.4182  0.9213  1.7223
  901MOL0     H21610   9.661   4.723   5.799 -0.7583 -1.4404 -1.5609
  901MOL0     H21611   9.664   4.831   6.082 -1.3243  2.6401 -2.1731
  901MOL0     H21612   9.777   4.873   5.956 -2.7397  2.2937 -0.2800
  901MOL0     H21613   9.755   4.617   6.110 -0.8814 -0.5682 -0.5490
  901MOL0     H21614   9.817   4.593   5.950  1.8308  0.3337  0.0242
  901MOL0     H21615   9.318   5.315   5.643  0.4148 -0.7506  0.9672
  901MOL0     H21616   9.294   5.429   5.873  0.3282  1.6285 -0.0325
  901MOL0     H21617   9.396   5.494   6.324  0.5593  0.4834 -0.6680
  901MOL0     H21618   9.370   5.628   6.542  1.3247  0.6212  0.5111
  901MOL0     H21619  10.642   5.556   7.654  1.4306  0.7851 -0.3643
  901MOL0     H21620  10.676   5.386   7.848 -0.4813 -0.8313 -1.5305
  901MOL0     H21621  10.761   5.342   8.239  0.9761 -2.9061 -2.3797
  901MOL0     H21622  10.871   5.198   8.378 -1.2475 -4.2792  0.2414
  901MOL0     H21623  10.663   4.837   8.562 -2.7976  0.9316 -0.4592
  901MOL0     H21624  10.599   4.981   8.657  0.5383  1.5653 -1.9328
  901MOL0     H21625  10.873   4.853   8.699  0.5608 -0.7548  1.4536
  901MOL0     H21626  10.740   4.795   8.787  1.7599 -0.3772  0.8772
  901MOL0     H21627  10.683   5.033   8.849 -1.4027 -1.6997  1.7855
  901MOL0     H21628  10.855   5.071   8.800  1.4937 -2.2710 -0.9791
  901MOL0     H21629  10.763   4.873   9.012 -0.2335  1.3010  2.5723
  901MOL0     H21630  10.934   4.905   8.971 -0.0812  0.0477 -0.2278
  901MOL0     H21631  10.864   5.271   9.156 -1.1283  0.4145 -0.4607
  901MOL0     H21632  10.491   5.021   8.499 -0.8420 -0.0135 -0.4464
  901MOL0     H21633  10.321   5.039   8.262 -4.4139 -1.6704  1.5201
  901MOL0     H21634  10.272   5.121   8.403  0.8777  1.1082 -0.4815
  901MOL0     H21635  10.296   5.212   8.251  1.1087 -0.7613 -2.1919
  902MOL0     O21636   0.863   6.295   0.594 -0.2720 -0.0358  0.0935
  902MOL0     C21637   0.914   6.190   0.625 -0.5361  0.0496  1.2322
  902MOL0     O21638   0.859   6.092   0.704  0.1094  1.0928 -0.7965
  902MOL0     C21639   0.726   6.099   0.736  0.0569 -0.2559  0.0037
  902MOL0     C21640   0.627   6.131   0.635 -0.6766 -0.1968 -0.5188
  902MOL0     C21641   0.495   6.116   0.673  0.2798 -0.9806 -0.5032
  902MOL0     C21642   0.460   6.081   0.803 -0.2408 -0.0572  0.2657
  902MOL0     O21643   0.333   6.080   0.841 -0.2180  0.0224  0.3905
  902MOL0     C21644   0.224   6.072   0.744 -0.5834 -0.0577  0.4773
  902MOL0     C21645   0.099   6.063   0.830  0.5127  0.5718  0.1987
  902MOL0     C21646   0.105   5.932   0.911 -0.6734  0.2120 -0.1249
  902MOL0     C21647   0.072   5.794   0.825 -0.2626 -0.5257  0.4117
  902MOL0     C21648   0.024   5.684   0.916  0.0781  0.9410  0.1453
  902MOL0     C21649   0.053   5.551   0.861  0.8204 -0.5590  1.6614
  902MOL0     C21650   0.025   5.435   0.960 -0.0544  0.5608  0.4840
  902MOL0     C21651  -0.130   5.423   0.982  0.2641  0.2375 -0.7307
  902MOL0     N21652  -0.182   5.453   1.118  0.8143  0.7903  0.7645
  902MOL0     C21653  -0.234   5.567   1.162  0.1691 -1.0605 -0.7642
  902MOL0     C21654  -0.225   5.557   1.295  0.8791  0.5574  0.3843
  902MOL0     C21655  -0.277   5.658   1.398  0.0568  0.1637  0.1357
  902MOL0     C21656  -0.168   5.769   1.426  0.3572 -0.3482 -1.2772
  902MOL0     C21657  -0.031   5.728   1.485  0.1630 -0.4017  0.2625
  902MOL0     C21658  -0.038   5.635   1.616  0.2171  0.0834  1.2024
  902MOL0     O21659  -0.092   5.714   1.717  0.1267 -0.8871 -0.2996
  902MOL0     C21660  -0.080   5.680   1.850 -0.5024 -0.6414  0.3115
  902MOL0     C21661  -0.133   5.771   1.939 -0.7038  0.6161 -0.2054
  902MOL0     C21662  -0.105   5.759   2.073 -0.1341 -0.3774 -0.5254
  902MOL0     C21663  -0.033   5.655   2.124  0.2876  0.1789  0.1217
  902MOL0     C21664  -0.003   5.638   2.271  0.3763  0.6981 -0.3643
  902MOL0     O21665  -0.053   5.735   2.358 -1.2276 -0.4558  0.7434
  902MOL0     C21666  -0.001   5.749   2.481  0.0270 -0.3666 -1.8133
  902MOL0     C21667  -0.094   5.761   2.590  0.5331 -0.1968  0.2648
  902MOL0     C21668  -0.045   5.783   2.715 -0.1505  0.1063  0.0389
  902MOL0     C21669   0.092   5.787   2.747 -0.4965 -0.1916 -0.2170
  902MOL0     O21670   0.133   5.810   2.876  0.3148 -0.8498 -0.5696
  902MOL0     C21671   0.251   5.878   2.903 -0.0264  0.2356  0.5515
  902MOL0     C21672   0.225   5.956   3.027  1.4290  0.1751  0.7697
  902MOL0     C21673   0.337   6.059   3.044  1.0185 -0.4247 -0.4725
  902MOL0     C21674   0.315   6.138   3.172  0.1807 -0.1155 -0.2485
  902MOL0     C21675   0.417   6.257   3.212  0.8279  0.4094 -0.3583
  902MOL0     C21676   0.543   6.265   3.130 -0.1200 -0.3139  0.4936
  902MOL0     C21677   0.650   6.351   3.199 -0.2080 -0.5433  0.8701
  902MOL0     C21678   0.721   6.463   3.113 -0.0161 -0.0387 -0.1219
  902MOL0    Cl21679   0.586   6.561   3.053  0.2990  0.0275 -0.3844
  902MOL0     C21680   0.187   5.774   2.645 -0.5050 -0.5209 -0.0751
  902MOL0     C21681   0.134   5.756   2.519 -0.0703 -0.2222  0.0351
  902MOL0     O21682   0.063   5.545   2.303 -0.0084  0.8629 -0.1685
  902MOL0     C21683   0.014   5.570   2.024  0.1829 -0.6563 -0.5039
  902MOL0     C21684  -0.010   5.571   1.895  0.4980 -0.4637  0.3563
  902MOL0     N21685  -0.204   5.426   1.328 -0.9742  0.8496  0.4306
  902MOL0     N21686  -0.166   5.365   1.224 -0.9284  0.9051  0.8370
  902MOL0     C21687   0.555   6.046   0.898  0.4255  0.6045  0.3930
  902MOL0     C21688   0.681   6.048   0.854  0.1751  0.7001 -0.2366
  902MOL0     C21689   1.053   6.160   0.572  0.2473 -1.3378  0.7030
  902MOL0     C21690   1.129   6.272   0.520  0.3960 -0.1493 -0.1982
  902MOL0     C21691   1.261   6.261   0.478  1.1755 -1.0219 -0.0533
  902MOL0     C21692   1.324   6.144   0.486  1.1910 -0.2971 -0.1376
  902MOL0     O21693   1.457   6.147   0.452  0.0438  0.0477  0.0123
  902MOL0     C21694   1.532   6.018   0.451 -0.3771  0.3559 -0.3141
  902MOL0     C21695   1.682   6.039   0.426 -0.3245  0.0024  0.2045
  902MOL0     C21696   1.763   6.028   0.563 -0.1816  1.0065  0.6985
  902MOL0     C21697   1.764   6.169   0.626  0.5348  0.0391  0.3665
  902MOL0     C21698   1.807   6.186   0.764 -0.2745  0.8163  0.8758
  902MOL0     C21699   1.828   6.198   0.881  0.2023 -1.4439  0.0589
  902MOL0     C21700   1.257   6.034   0.544 -0.5366 -0.1962 -0.0797
  902MOL0     C21701   1.119   6.040   0.580 -0.6382  0.8091  0.3780
  902MOL0     C21702   1.058   5.911   0.634 -0.6874  0.0820  0.8103
  902MOL0     H21703   0.661   6.151   0.534 -3.7169 -0.4801 -1.6989
  902MOL0     H21704   0.413   6.135   0.604  0.2956  1.0156 -0.0450
  902MOL0     H21705   0.212   6.163   0.684  2.2246 -0.8507 -1.4863
  902MOL0     H21706   0.241   5.984   0.681 -0.9545  2.3906 -3.3782
  902MOL0     H21707   0.003   6.053   0.777 -0.6770  1.8091  1.9822
  902MOL0     H21708   0.107   6.148   0.899  0.1460  1.4092 -0.7568
  902MOL0     H21709   0.044   5.941   1.001  1.8656 -1.5017  1.9323
  902MOL0     H21710   0.206   5.919   0.951 -0.6130 -2.0101 -0.8681
  902MOL0     H21711  -0.008   5.816   0.754  1.0950 -0.0712 -1.0276
  902MOL0     H21712   0.162   5.763   0.771  0.2493  3.4068 -1.3576
  902MOL0     H21713   0.062   5.689   1.019 -0.1212  1.4195  0.1978
  902MOL0     H21714  -0.083   5.697   0.933  0.1166 -1.6088  3.4010
  902MOL0     H21715   0.002   5.546   0.764  0.9768  1.0284  1.4711
  902MOL0     H21716   0.156   5.541   0.823  0.6034 -1.2489  1.2275
  902MOL0     H21717   0.079   5.461   1.051  0.2123  1.2705  0.1345
  902MOL0     H21718   0.061   5.343   0.914  0.4902  0.6157  0.7876
  902MOL0     H21719  -0.185   5.492   0.918 -1.4691 -1.1581 -0.8348
  902MOL0     H21720  -0.154   5.320   0.953  1.2403  0.5395 -2.7555
  902MOL0     H21721  -0.271   5.653   1.107  1.1272 -0.3102 -0.2621
  902MOL0     H21722  -0.379   5.691   1.379 -0.7580 -2.2422 -0.0122
  902MOL0     H21723  -0.292   5.609   1.495 -1.0754  1.8977  0.8827
  902MOL0     H21724  -0.145   5.820   1.332  1.8050 -0.0972 -0.8165
  902MOL0     H21725  -0.217   5.842   1.490  0.3968 -0.5440 -1.0200
  902MOL0     H21726   0.005   5.825   1.521  0.7316 -0.6576  0.3997
  902MOL0     H21727   0.038   5.676   1.419  1.8288 -0.2340  1.7893
  902MOL0     H21728   0.069   5.620   1.632  0.4931  2.0629  1.4724
  902MOL0     H21729  -0.087   5.538   1.600  4.2962 -2.1045  0.5327
  902MOL0     H21730  -0.181   5.860   1.900  0.0910  0.4133 -1.7187
  902MOL0     H21731  -0.142   5.834   2.143 -0.3188 -2.0801  1.2897
  902MOL0     H21732  -0.202   5.759   2.580  0.4969  0.2226  0.5940
  902MOL0     H21733  -0.115   5.795   2.797 -2.0977 -0.8687 -1.3944
  902MOL0     H21734   0.348   5.829   2.917  0.1941  1.0988  2.4208
  902MOL0     H21735   0.265   5.949   2.821  0.4731 -0.5084 -0.0147
  902MOL0     H21736   0.135   6.016   3.010  1.5320 -0.1007 -0.9388
  902MOL0     H21737   0.215   5.889   3.113 -3.1970  0.2764  0.5685
  902MOL0     H21738   0.431   6.004   3.049  0.1398 -1.8607  2.1674
  902MOL0     H21739   0.337   6.120   2.954  1.6443  1.9533  1.0335
  902MOL0     H21740   0.315   6.057   3.245 -0.1073 -2.4950 -2.7293
  902MOL0     H21741   0.220   6.192   3.173  1.3357  2.0354  0.5515
  902MOL0     H21742   0.457   6.243   3.313  0.1824  1.1612  0.0188
  902MOL0     H21743   0.355   6.347   3.206 -0.9075 -0.6314  0.9809
  902MOL0     H21744   0.582   6.163   3.133 -1.7231 -0.9522  0.5249
  902MOL0     H21745   0.525   6.286   3.024 -3.4465 -0.7204  0.8900
  902MOL0     H21746   0.734   6.284   3.223  1.0788 -0.0700 -1.9133
  902MOL0     H21747   0.606   6.402   3.285 -1.7595 -2.6264  1.3825
  902MOL0     H21748   0.797   6.527   3.159  2.7342 -3.4888  0.6204
  902MOL0     H21749   0.768   6.439   3.018  1.0869 -1.1504  0.6663
  902MOL0     H21750   0.295   5.767   2.654 -0.3055 -1.5057 -2.4249
  902MOL0     H21751   0.210   5.744   2.443  0.4699  1.5843  0.2568
  902MOL0     H21752   0.090   5.498   2.054  1.0634 -0.1694 -1.4673
  902MOL0     H21753   0.020   5.496   1.822 -2.3420 -0.9845 -0.3928
  902MOL0     H21754   0.539   6.015   1.001  0.1495 -2.1565 -0.4215
  902MOL0     H21755   0.752   6.012   0.928  1.4536  2.8922 -0.3091
  902MOL0     H21756   1.081   6.367   0.497  0.7526  0.5645  1.7625
  902MOL0     H21757   1.311   6.354   0.453 -2.2679  0.7955 -0.7835
  902MOL0     H21758   1.494   5.950   0.374  0.4150 -0.0640 -0.3366
  902MOL0     H21759   1.514   5.955   0.539 -0.6692 -0.7168 -1.1214
  902MOL0     H21760   1.698   6.138   0.385 -2.2315 -0.2006 -1.1450
  902MOL0     H21761   1.727   5.966   0.358  1.6039 -1.0679  2.4570
  902MOL0     H21762   1.866   5.996   0.541 -0.4394  0.5907  0.0541
  902MOL0     H21763   1.711   5.954   0.624 -1.0110  1.1845  0.2233
  902MOL0     H21764   1.815   6.233   0.553  1.7562 -1.8110 -0.4527
  902MOL0     H21765   1.658   6.197   0.626  0.8094  1.1648 -0.1548
  902MOL0     H21766   1.855   6.213   0.984 -0.3984 -2.0245  0.3041
  902MOL0     H21767   1.298   5.934   0.551 -1.3191 -0.7259 -2.3221
  902MOL0     H21768   1.016   5.921   0.734 -1.5483 -1.6911  0.6662
  902MOL0     H21769   0.968   5.891   0.575 -1.0434  0.4568  1.2182
  902MOL0     H21770   1.128   5.827   0.626 -0.7448  0.1364 -0.3984
  903MOL0     O21771   0.978   9.470   8.340 -0.1761  0.5250  0.0453
  903MOL0     C21772   1.043   9.558   8.286  0.1326  0.9032  0.7010
  903MOL0     O21773   1.007   9.631   8.176  1.0038  0.3023  0.0074
  903MOL0     C21774   0.872   9.624   8.140 -0.0785 -0.0578  0.3018
  903MOL0     C21775   0.832   9.523   8.051  0.3072  0.1194  1.1142
  903MOL0     C21776   0.705   9.524   8.004 -0.3399 -0.8835  0.5933
  903MOL0     C21777   0.612   9.625   8.038 -0.3985 -0.1878 -0.0138
  903MOL0     O21778   0.495   9.618   7.972  0.7421 -0.6711 -0.1238
  903MOL0     C21779   0.394   9.703   8.016 -0.0867  0.0337 -1.0971
  903MOL0     C21780   0.253   9.663   7.968 -0.1292 -0.8307 -0.0257
  903MOL0     C21781   0.147   9.769   8.004  0.9522  0.2189 -0.7328
  903MOL0     C21782   0.101   9.759   8.155 -0.3851 -0.8735  0.3048
  903MOL0     C21783   0.004   9.876   8.198 -0.1127 -0.2924 -0.4410
  903MOL0     C21784  -0.041   9.854   8.338 -0.4092  0.2303  0.2930
  903MOL0     C21785  -0.046   9.991   8.418  0.1888  0.1243 -0.0417
  903MOL0     C21786  -0.090   9.958   8.564 -0.7187 -0.2969  0.6185
  903MOL0     N21787  -0.065  10.079   8.660 -0.0742 -1.5268  1.0750
  903MOL0     C21788   0.003  10.089   8.778 -0.6696  1.0656  0.5336
  903MOL0     C21789   0.013  10.221   8.805  0.6052 -0.7671  0.3320
  903MOL0     C21790   0.075  10.287   8.925 -0.0195  0.1846  0.6116
  903MOL0     C21791  -0.012  10.360   9.025  0.2063 -0.8128 -0.2185
  903MOL0     C21792  -0.082  10.488   8.981  0.9456  0.2374  0.8141
  903MOL0     C21793  -0.218  10.510   9.056  0.3915 -0.0281 -0.1500
  903MOL0     O21794  -0.279  10.633   9.047 -0.7186 -0.8476  0.0632
  903MOL0     C21795  -0.393  10.640   9.124 -0.8978 -0.2870 -0.0699
  903MOL0     C21796  -0.515  10.612   9.062 -0.1029  0.2399 -0.1347
  903MOL0     C21797  -0.638  10.623   9.124 -0.1433 -0.2483 -0.0995
  903MOL0     C21798  -0.638  10.652   9.266  0.3746 -0.3210  0.8745
  903MOL0     C21799  -0.761  10.686   9.351 -0.1157 -0.9374  0.3898
  903MOL0     O21800  -0.743  10.719   9.484  0.3605  0.7479  0.3028
  903MOL0     C21801  -0.862  10.737   9.550 -0.3309 -0.0226 -1.2329
  903MOL0     C21802  -0.929  10.633   9.612 -0.0550  0.4709  0.1803
  903MOL0     C21803  -1.055  10.649   9.658 -0.5811  0.5811  0.3941
  903MOL0     C21804  -1.107  10.784   9.667 -0.6983 -0.7020  0.3214
  903MOL0     O21805  -1.232  10.817   9.726  0.2833 -0.0400  0.4573
  903MOL0     C21806  -1.312  10.715   9.776  0.5135  0.5818 -0.5035
  903MOL0     C21807  -1.461  10.751   9.798 -0.1708 -0.3804  1.3571
  903MOL0     C21808  -1.495  10.843   9.911 -0.6363  0.8093  0.2926
  903MOL0     C21809  -1.644  10.829   9.930 -0.5177  0.2644 -0.5968
  903MOL0     C21810  -1.705  10.943  10.007  0.6496  0.5462  0.8260
  903MOL0     C21811  -1.691  10.940  10.153  0.5924  0.1303 -0.6320
  903MOL0     C21812  -1.760  11.059  10.218  0.8944 -1.2432 -0.5832
  903MOL0     C21813  -1.710  11.077  10.360  1.3086 -0.6614  0.0270
  903MOL0    Cl21814  -1.749  11.246  10.405  0.1563 -0.0454  0.1387
  903MOL0     C21815  -1.032  10.893   9.614 -0.4424  1.2927 -0.8550
  903MOL0     C21816  -0.917  10.863   9.553  0.6749  0.7294 -0.1904
  903MOL0     O21817  -0.865  10.688   9.289 -0.5341 -0.3934  0.0370
  903MOL0     C21818  -0.516  10.677   9.331  0.0926 -0.0817 -0.9533
  903MOL0     C21819  -0.392  10.675   9.256  0.0657 -0.5507  0.6723
  903MOL0     N21820  -0.036  10.290   8.691 -0.2858 -0.2595  0.1359
  903MOL0     N21821  -0.077  10.202   8.608 -0.5571 -0.5844  0.7712
  903MOL0     C21822   0.652   9.728   8.127  0.7607 -0.5387 -0.2873
  903MOL0     C21823   0.778   9.726   8.183 -0.1748 -0.4350 -0.3879
  903MOL0     C21824   1.186   9.576   8.322 -1.1829  0.0295 -0.2891
  903MOL0     C21825   1.251   9.695   8.287 -0.5517  0.1027  0.9415
  903MOL0     C21826   1.387   9.714   8.315 -1.1329  0.9159 -0.7111
  903MOL0     C21827   1.464   9.620   8.385 -0.2826 -0.0712  0.7740
  903MOL0     O21828   1.595   9.620   8.412 -0.1697 -0.1839 -0.8962
  903MOL0     C21829   1.680   9.728   8.379 -0.6101  0.1581 -0.3509
  903MOL0     C21830   1.733   9.715   8.233  0.5243 -0.4939 -0.3084
  903MOL0     C21831   1.832   9.594   8.227 -0.0722  0.0702  0.4631
  903MOL0     C21832   1.880   9.597   8.083  0.2709  0.6322 -0.3308
  903MOL0     C21833   1.957   9.476   8.053 -0.0640 -0.2582  0.7547
  903MOL0     C21834   2.019   9.375   8.021 -0.3122  0.3333  0.1222
  903MOL0     C21835   1.403   9.502   8.426  0.3208 -0.3158  0.0892
  903MOL0     C21836   1.269   9.474   8.391  0.4893  0.3357  0.2132
  903MOL0     C21837   1.227   9.339   8.421 -0.0621 -0.0132 -0.7976
  903MOL0     H21838   0.913   9.456   8.022  1.0284  1.2531  0.4347
  903MOL0     H21839   0.683   9.445   7.933 -1.1421  0.8464 -1.1842
  903MOL0     H21840   0.401   9.694   8.125 -0.6187 -4.7688 -1.2634
  903MOL0     H21841   0.417   9.798   7.967 -1.6242  1.4030  0.6895
  903MOL0     H21842   0.218   9.564   8.000 -4.0495 -0.2256 -1.9016
  903MOL0     H21843   0.260   9.668   7.859 -0.7339 -0.5100 -0.0477
  903MOL0     H21844   0.065   9.754   7.933 -1.1289  5.8239  0.0205
  903MOL0     H21845   0.190   9.865   7.975  1.3255  0.0243 -0.8321
  903MOL0     H21846   0.045   9.666   8.172 -3.3770  1.1362  2.6540
  903MOL0     H21847   0.187   9.756   8.222 -1.8668 -0.9273  2.3209
  903MOL0     H21848   0.068   9.965   8.190  0.1468 -0.1650  2.1170
  903MOL0     H21849  -0.083   9.879   8.132  1.2975 -1.3358 -2.4882
  903MOL0     H21850  -0.138   9.804   8.322 -0.1416  0.6299 -3.7660
  903MOL0     H21851   0.028   9.791   8.394  0.1869  0.7264  0.1276
  903MOL0     H21852  -0.110  10.065   8.370 -0.9332 -0.7281  0.0886
  903MOL0     H21853   0.056  10.030   8.412 -0.0558  0.7992  0.1156
  903MOL0     H21854  -0.195   9.927   8.563 -0.8113 -0.0367 -0.9948
  903MOL0     H21855  -0.036   9.870   8.598  0.9859  1.0158  1.4354
  903MOL0     H21856   0.015  10.007   8.848 -3.9823 -1.1610 -1.2502
  903MOL0     H21857   0.120  10.204   8.978  2.2259 -0.0623 -1.4954
  903MOL0     H21858   0.151  10.357   8.890 -1.0985  1.2853  0.3867
  903MOL0     H21859  -0.084  10.288   9.065 -0.2477  0.8966  2.2968
  903MOL0     H21860   0.064  10.390   9.098  0.1556 -0.5432 -0.2755
  903MOL0     H21861  -0.104  10.495   8.874  2.1265  1.8384  0.6373
  903MOL0     H21862  -0.012  10.571   8.993 -2.2508  3.7313 -2.1616
  903MOL0     H21863  -0.194  10.497   9.162  4.8815 -0.7361 -1.0639
  903MOL0     H21864  -0.272  10.429   9.006  0.8597  0.3477 -1.3029
  903MOL0     H21865  -0.502  10.590   8.957  1.7548  0.7906 -0.0511
  903MOL0     H21866  -0.732  10.613   9.072  0.3648 -3.0950 -0.6223
  903MOL0     H21867  -0.899  10.530   9.621  0.0386  0.6078  1.7411
  903MOL0     H21868  -1.107  10.561   9.693 -3.4192  1.7275 -0.6341
  903MOL0     H21869  -1.309  10.620   9.723 -3.4756  0.2708 -0.4378
  903MOL0     H21870  -1.278  10.699   9.879  1.8239  0.6799 -0.9016
  903MOL0     H21871  -1.490  10.806   9.708 -0.5334  1.2798  2.4322
  903MOL0     H21872  -1.514  10.657   9.814 -1.9063 -0.3058 -2.6834
  903MOL0     H21873  -1.437  10.813   9.999 -0.8300 -0.1945  0.0933
  903MOL0     H21874  -1.466  10.944   9.883  1.6438  0.4015  0.9855
  903MOL0     H21875  -1.660  10.737   9.987  3.2758  0.6594  1.3888
  903MOL0     H21876  -1.692  10.812   9.833 -1.4352  1.0549 -0.2964
  903MOL0     H21877  -1.812  10.939   9.986  0.4699  0.7008  1.6919
  903MOL0     H21878  -1.665  11.037   9.966  2.3799 -0.1907  0.7343
  903MOL0     H21879  -1.734  10.846  10.188 -0.4943  1.4385  1.7892
  903MOL0     H21880  -1.586  10.941  10.184 -0.2729 -0.8179  2.6231
  903MOL0     H21881  -1.868  11.048  10.215  0.3446  2.7017 -1.0216
  903MOL0     H21882  -1.744  11.148  10.156 -1.9427 -1.4556 -1.7614
  903MOL0     H21883  -1.765  11.019  10.434  1.6866  0.0774  0.9072
  903MOL0     H21884  -1.604  11.049  10.353  0.8568 -2.0848 -1.9921
  903MOL0     H21885  -1.062  10.994   9.636  4.3824  2.4193  1.9116
  903MOL0     H21886  -0.845  10.936   9.517  1.6154 -0.7758 -1.5372
  903MOL0     H21887  -0.515  10.711   9.434  0.2118 -2.6914 -0.0045
  903MOL0     H21888  -0.305  10.686   9.320 -1.0530 -0.6741  2.2904
  903MOL0     H21889   0.586   9.810   8.152 -2.2074 -2.3612 -1.5822
  903MOL0     H21890   0.806   9.793   8.264  0.0305 -0.3213 -0.5532
  903MOL0     H21891   1.206   9.771   8.223 -0.8218 -1.0469 -0.2609
  903MOL0     H21892   1.442   9.796   8.270 -1.4513  0.5299 -1.8349
  903MOL0     H21893   1.764   9.716   8.448 -2.1874  0.0789  1.6782
  903MOL0     H21894   1.645   9.829   8.400  4.5950  1.9677  1.1904
  903MOL0     H21895   1.788   9.808   8.217 -0.9041  0.5007  0.3300
  903MOL0     H21896   1.656   9.705   8.156  1.1807 -0.5762 -0.9665
  903MOL0     H21897   1.785   9.504   8.269  1.4252 -0.1102  1.8318
  903MOL0     H21898   1.916   9.615   8.293  1.9526  0.1248 -1.9666
  903MOL0     H21899   1.790   9.599   8.022  0.5656 -1.0642 -0.8636
  903MOL0     H21900   1.942   9.682   8.053 -2.2704  3.2319  1.3069
  903MOL0     H21901   2.065   9.279   8.007 -1.2767 -0.0570 -0.4893
  903MOL0     H21902   1.462   9.429   8.480  2.2387  1.7952  0.9874
  903MOL0     H21903   1.178   9.326   8.518  0.9485  0.2099 -0.2401
  903MOL0     H21904   1.155   9.306   8.346 -2.9442  3.1013  0.3479
  903MOL0     H21905   1.314   9.272   8.415  0.1322  0.0879  0.6128
  904MOL0     O21906   0.852  10.545   1.839 -0.7458  0.1056 -0.4898
  904MOL0     C21907   0.782  10.445   1.832  0.3104 -0.7785  0.7772
  904MOL0     O21908   0.807  10.347   1.745 -0.2880 -0.8481  0.1817
  904MOL0     C21909   0.915  10.362   1.657  1.3590  1.2413  0.5162
  904MOL0     C21910   0.906  10.451   1.546 -0.1393  0.4813  0.1714
  904MOL0     C21911   1.019  10.462   1.466 -1.1323 -0.6762 -0.9411
  904MOL0     C21912   1.138  10.392   1.494  0.3926 -0.5274  0.1697
  904MOL0     O21913   1.259  10.421   1.426  0.6163  0.6957  0.7150
  904MOL0     C21914   1.362  10.321   1.408  1.2264 -0.4759  0.3550
  904MOL0     C21915   1.317  10.218   1.296  0.3603  0.6273 -0.1458
  904MOL0     C21916   1.320  10.292   1.159 -0.8747 -0.3882  0.4014
  904MOL0     C21917   1.250  10.226   1.036 -0.2918  0.7054 -0.4997
  904MOL0     C21918   1.114  10.176   1.064 -0.3168 -0.6108 -0.1843
  904MOL0     C21919   1.031  10.289   1.138  0.0849  0.1320  1.1293
  904MOL0     C21920   0.889  10.254   1.191 -0.5657 -0.5012 -0.4486
  904MOL0     C21921   0.796  10.215   1.070  0.6086  0.9383 -0.5415
  904MOL0     N21922   0.660  10.199   1.138  0.1097 -0.2479  0.3867
  904MOL0     C21923   0.583  10.297   1.205 -0.5064 -0.1287  1.1749
  904MOL0     C21924   0.463  10.246   1.214  0.1264 -0.0955  0.3413
  904MOL0     C21925   0.342  10.335   1.244  0.3667  0.7028 -0.5469
  904MOL0     C21926   0.295  10.327   1.388  0.4401 -0.5842  0.5862
  904MOL0     C21927   0.149  10.396   1.414 -0.3568  0.6637  0.3646
  904MOL0     C21928   0.055  10.323   1.317  0.8645 -0.9009 -0.4761
  904MOL0     O21929  -0.080  10.318   1.373 -0.7066  1.4628 -1.0825
  904MOL0     C21930  -0.179  10.257   1.309  0.3647 -0.2141  1.1415
  904MOL0     C21931  -0.303  10.268   1.370 -0.0336 -0.2348  0.4851
  904MOL0     C21932  -0.422  10.202   1.330 -0.9784  0.1791 -0.1207
  904MOL0     C21933  -0.406  10.106   1.221  0.1252 -1.0583  0.0508
  904MOL0     C21934  -0.520  10.023   1.175 -0.9303 -0.6832  0.5142
  904MOL0     O21935  -0.620  10.024   1.258 -0.1551  0.8152 -0.3447
  904MOL0     C21936  -0.714   9.929   1.230  0.0351 -0.2465 -0.6741
  904MOL0     C21937  -0.689   9.785   1.228 -0.1284  0.2762  0.3050
  904MOL0     C21938  -0.789   9.701   1.193 -0.4143  0.5717  0.4305
  904MOL0     C21939  -0.915   9.738   1.160 -0.5264  0.4333 -0.0121
  904MOL0     O21940  -1.000   9.653   1.102 -0.1128  0.7159 -0.7389
  904MOL0     C21941  -1.124   9.647   1.169 -0.6232  0.6757 -0.0849
  904MOL0     C21942  -1.117   9.537   1.277  0.6212 -0.2287 -0.2286
  904MOL0     C21943  -1.248   9.533   1.355  0.3697 -0.2761  0.1698
  904MOL0     C21944  -1.285   9.664   1.434 -0.7638 -0.2897 -0.0848
  904MOL0     C21945  -1.424   9.676   1.491  0.2560 -0.8270  0.7186
  904MOL0     C21946  -1.478   9.575   1.589 -0.7130  0.3501 -0.8701
  904MOL0     C21947  -1.612   9.609   1.643  0.4140 -0.5436  0.0468
  904MOL0     C21948  -1.694   9.499   1.719 -1.1913 -0.2422 -0.2586
  904MOL0    Cl21949  -1.582   9.396   1.831  0.3570 -0.4307  0.1131
  904MOL0     C21950  -0.941   9.876   1.155 -0.1235 -0.4009  0.2623
  904MOL0     C21951  -0.841   9.977   1.192 -0.0005  0.3485 -0.1049
  904MOL0     O21952  -0.505   9.972   1.065  0.4977 -0.0902  0.4134
  904MOL0     C21953  -0.283  10.101   1.148  0.7499  0.2517 -1.4199
  904MOL0     C21954  -0.167  10.174   1.195  0.1231  0.1381 -0.8422
  904MOL0     N21955   0.470  10.117   1.161 -0.2158  0.4694  0.1771
  904MOL0     N21956   0.591  10.083   1.126 -1.0417  0.4627 -0.0119
  904MOL0     C21957   1.142  10.308   1.605 -0.0319 -0.3974 -0.3439
  904MOL0     C21958   1.031  10.287   1.680 -0.5946 -0.2900  0.1553
  904MOL0     C21959   0.654  10.435   1.909 -0.1377  0.0253 -0.0856
  904MOL0     C21960   0.535  10.404   1.841  0.0327 -1.0119 -0.5196
  904MOL0     C21961   0.414  10.388   1.916 -0.0548 -0.5496  0.8152
  904MOL0     C21962   0.402  10.400   2.052 -0.4529  0.0110  0.9383
  904MOL0     O21963   0.292  10.377   2.138  0.1204 -0.0780  0.2482
  904MOL0     C21964   0.178  10.316   2.061 -0.2100 -0.5040 -0.1833
  904MOL0     C21965   0.078  10.243   2.155 -0.3138 -0.4099  0.2150
  904MOL0     C21966   0.002  10.319   2.262 -0.6740 -1.4818 -0.0018
  904MOL0     C21967  -0.070  10.223   2.360 -0.1936 -0.5236  0.5817
  904MOL0     C21968  -0.193  10.177   2.288 -0.2785 -0.2159  0.0315
  904MOL0     C21969  -0.286  10.140   2.218  0.7714 -0.2048  0.1217
  904MOL0     C21970   0.538  10.419   2.115  1.6029  0.2077 -0.3580
  904MOL0     C21971   0.658  10.439   2.048 -0.0667 -0.7111 -0.1240
  904MOL0     C21972   0.769  10.445   2.135  0.0565  0.8434 -0.1230
  904MOL0     H21973   0.811  10.499   1.526 -0.1885  0.2572 -0.1344
  904MOL0     H21974   1.023  10.536   1.387 -4.2321  0.8159  0.1314
  904MOL0     H21975   1.457  10.364   1.377  1.1165  0.7237  1.6165
  904MOL0     H21976   1.380  10.266   1.501  0.2210  0.6879  1.2681
  904MOL0     H21977   1.216  10.183   1.318  0.2633 -0.1590 -1.7129
  904MOL0     H21978   1.382  10.131   1.295  0.8028  0.9244  1.0975
  904MOL0     H21979   1.425  10.316   1.141 -1.5574  3.9027  1.1386
  904MOL0     H21980   1.284  10.395   1.166  0.2922  0.2399 -1.9076
  904MOL0     H21981   1.248  10.301   0.956  0.7593  0.6317 -0.6088
  904MOL0     H21982   1.312  10.139   1.014  0.0098  0.4302  1.2776
  904MOL0     H21983   1.071  10.164   0.965  0.9592  0.6149 -0.9255
  904MOL0     H21984   1.121  10.085   1.124  3.8386 -0.6209 -0.3989
  904MOL0     H21985   1.082  10.331   1.226 -0.4534  0.8402  1.1086
  904MOL0     H21986   1.024  10.373   1.068  2.5238  0.3853  1.0760
  904MOL0     H21987   0.844  10.333   1.251 -0.4485  0.3953 -1.5108
  904MOL0     H21988   0.905  10.166   1.255 -0.2951 -0.1768 -0.0701
  904MOL0     H21989   0.793  10.296   0.996  0.2184  2.4164  1.0095
  904MOL0     H21990   0.825  10.119   1.026 -2.1924 -1.4769  2.4003
  904MOL0     H21991   0.624  10.395   1.229  1.7424 -0.6376 -0.2406
  904MOL0     H21992   0.359  10.439   1.216  1.2463  0.8971  0.6188
  904MOL0     H21993   0.259  10.294   1.186 -1.5917  0.4387  2.2672
  904MOL0     H21994   0.289  10.222   1.417 -0.7118 -0.6508  0.1691
  904MOL0     H21995   0.362  10.379   1.457 -0.9347  4.3568 -1.3327
  904MOL0     H21996   0.160  10.502   1.394  3.5591  0.2140 -0.6621
  904MOL0     H21997   0.121  10.385   1.520  1.7596 -1.2080  0.8133
  904MOL0     H21998   0.096  10.224   1.296  1.0078 -0.2309 -3.9164
  904MOL0     H21999   0.059  10.373   1.220 -0.0064 -0.2978 -0.2107
  904MOL0     H22000  -0.310  10.312   1.469 -1.5124 -1.7029  1.0773
  904MOL0     H22001  -0.520  10.214   1.374 -0.4007  1.5557  0.8846
  904MOL0     H22002  -0.593   9.737   1.247 -0.2072  0.9547  2.7743
  904MOL0     H22003  -0.765   9.596   1.189 -0.0693  0.5959  1.6223
  904MOL0     H22004  -1.161   9.741   1.210 -3.3916 -0.9045  1.2941
  904MOL0     H22005  -1.191   9.608   1.093  1.6941 -1.0995 -1.3686
  904MOL0     H22006  -1.099   9.438   1.233  0.9872 -0.3036  0.0920
  904MOL0     H22007  -1.038   9.555   1.350  0.6217 -2.3850  0.3858
  904MOL0     H22008  -1.333   9.517   1.288 -0.3404  3.6960 -0.1236
  904MOL0     H22009  -1.245   9.449   1.426 -2.8218  0.0347  0.8352
  904MOL0     H22010  -1.264   9.761   1.388 -2.0898 -0.7994 -1.8561
  904MOL0     H22011  -1.214   9.665   1.518  0.7339  2.4085 -1.2428
  904MOL0     H22012  -1.494   9.675   1.406 -0.8007  2.1485  1.4496
  904MOL0     H22013  -1.435   9.774   1.538  1.1799  0.5497 -1.7232
  904MOL0     H22014  -1.469   9.476   1.544  0.8066 -0.0648  0.2645
  904MOL0     H22015  -1.407   9.574   1.672 -1.4225 -0.8683 -0.2423
  904MOL0     H22016  -1.679   9.640   1.562  0.0892  1.3059  0.9597
  904MOL0     H22017  -1.598   9.695   1.709 -0.8039  0.0658 -0.4578
  904MOL0     H22018  -1.762   9.550   1.788  1.5935  0.7448  1.9521
  904MOL0     H22019  -1.746   9.430   1.652  1.3604 -1.7377 -0.8399
  904MOL0     H22020  -1.036   9.917   1.122  0.2261  1.7255  1.7224
  904MOL0     H22021  -0.865  10.082   1.196  3.7112  1.2825  1.9205
  904MOL0     H22022  -0.267  10.035   1.063 -0.0739  0.6835 -1.9202
  904MOL0     H22023  -0.074  10.142   1.149  0.2528 -0.0758 -0.4381
  904MOL0     H22024   1.238  10.267   1.634  1.3399  1.5749 -1.8118
  904MOL0     H22025   1.030  10.222   1.767  2.5713  1.9645  2.0804
  904MOL0     H22026   0.536  10.404   1.732  0.8867 -1.0650 -0.5200
  904MOL0     H22027   0.320  10.373   1.863  0.9719 -3.3866 -0.3990
  904MOL0     H22028   0.221  10.243   1.992  0.8184  0.4092 -0.5344
  904MOL0     H22029   0.119  10.394   2.012  1.1787  1.1478  0.6679
  904MOL0     H22030   0.130  10.157   2.197 -0.2108 -1.7151 -2.3664
  904MOL0     H22031   0.005  10.199   2.086 -0.5671  0.3892 -0.0375
  904MOL0     H22032  -0.055  10.397   2.211  1.7673  0.5323  0.1813
  904MOL0     H22033   0.072  10.365   2.332  0.3638 -0.2962 -1.7433
  904MOL0     H22034  -0.034  10.127   2.397 -0.9211  0.7025  5.0197
  904MOL0     H22035  -0.103  10.288   2.442  3.8794  1.3492  0.9801
  904MOL0     H22036  -0.369  10.095   2.168  0.3445  1.2736 -0.5678
  904MOL0     H22037   0.554  10.411   2.222  2.0808 -0.7005 -0.4843
  904MOL0     H22038   0.808  10.343   2.130 -0.2475  0.7737 -2.9111
  904MOL0     H22039   0.847  10.520   2.117 -1.6012  2.7721  0.2976
  904MOL0     H22040   0.736  10.459   2.238 -2.1705 -1.5320 -0.4068
  905MOL0     O22041   7.467  11.068   0.700  0.2533  0.1054 -1.3247
  905MOL0     C22042   7.416  11.052   0.816 -0.5215 -0.1421  0.4956
  905MOL0     O22043   7.472  10.977   0.914  0.2253 -0.2721  0.4677
  905MOL0     C22044   7.590  10.914   0.882 -1.0691 -0.5807 -0.3259
  905MOL0     C22045   7.610  10.786   0.913 -1.0921 -0.0787 -0.3192
  905MOL0     C22046   7.735  10.721   0.892 -0.0923  0.1603  0.7260
  905MOL0     C22047   7.838  10.786   0.835  0.3716 -0.5306 -0.6887
  905MOL0     O22048   7.954  10.719   0.798  0.0653 -0.1255 -0.1813
  905MOL0     C22049   8.019  10.755   0.672 -0.1596  0.0053 -0.4222
  905MOL0     C22050   8.155  10.817   0.714 -0.0454  0.3823 -0.0152
  905MOL0     C22051   8.237  10.727   0.812  0.1750  0.4922 -0.4786
  905MOL0     C22052   8.376  10.767   0.835 -0.1018  0.5459 -0.0993
  905MOL0     C22053   8.463  10.670   0.930 -0.5214 -0.7268  0.1145
  905MOL0     C22054   8.584  10.743   0.991 -0.5944 -0.4437 -0.0698
  905MOL0     C22055   8.546  10.849   1.097  0.2459  0.2262  0.0841
  905MOL0     C22056   8.466  10.804   1.220  0.2009 -0.4620 -0.4002
  905MOL0     N22057   8.485  10.889   1.337  0.9785 -0.3172 -0.5080
  905MOL0     C22058   8.473  11.026   1.346  0.5863  0.3151 -0.1879
  905MOL0     C22059   8.479  11.049   1.475 -0.0912 -0.3940 -0.0729
  905MOL0     C22060   8.454  11.192   1.523 -0.0748  0.6011 -1.0994
  905MOL0     C22061   8.296  11.224   1.544  0.3705  0.2362  0.1769
  905MOL0     C22062   8.259  11.360   1.598 -0.4971  0.6015  0.4021
  905MOL0     C22063   8.112  11.369   1.645  0.3852 -0.5830 -0.4155
  905MOL0     O22064   8.069  11.501   1.688 -0.0868 -0.1913  0.3949
  905MOL0     C22065   7.940  11.531   1.649 -0.9459 -0.2784 -0.3551
  905MOL0     C22066   7.892  11.577   1.527 -0.5802  0.9729  0.3920
  905MOL0     C22067   7.760  11.604   1.499  0.6209 -0.0989  0.6151
  905MOL0     C22068   7.668  11.582   1.607  0.3663  0.0066 -1.0648
  905MOL0     C22069   7.526  11.620   1.586  0.3496  0.3094  0.4295
  905MOL0     O22070   7.495  11.671   1.455 -0.0294  0.0854 -0.4919
  905MOL0     C22071   7.365  11.695   1.421  0.2759  0.3559 -0.5778
  905MOL0     C22072   7.357  11.795   1.326  0.6292 -0.0158 -0.0782
  905MOL0     C22073   7.232  11.820   1.265 -0.5456  0.2114  0.4679
  905MOL0     C22074   7.115  11.752   1.303  0.2405  0.8292  0.4896
  905MOL0     O22075   6.994  11.781   1.243  0.5394 -0.2482 -0.6045
  905MOL0     C22076   6.969  11.916   1.212  0.0988  0.2433 -0.0543
  905MOL0     C22077   6.849  11.924   1.114  0.2427  0.2862 -0.1754
  905MOL0     C22078   6.850  11.832   0.998 -0.5587 -0.2669 -0.2632
  905MOL0     C22079   6.746  11.857   0.880 -0.5900 -0.0549 -0.0943
  905MOL0     C22080   6.789  11.780   0.754  0.1530 -0.7515 -0.6347
  905MOL0     C22081   6.738  11.638   0.745 -1.8382 -0.4953 -1.2301
  905MOL0     C22082   6.769  11.578   0.618  0.1025  0.4099  0.1835
  905MOL0     C22083   6.719  11.642   0.492 -0.6170 -0.6316  0.9277
  905MOL0    Cl22084   6.541  11.666   0.499  0.3115  0.4746  0.5910
  905MOL0     C22085   7.123  11.645   1.398  1.2757  0.2853 -0.3134
  905MOL0     C22086   7.250  11.621   1.447  0.5161  0.8724  0.4043
  905MOL0     O22087   7.453  11.599   1.682  0.9270 -0.0178 -0.1428
  905MOL0     C22088   7.714  11.539   1.730 -0.0374  0.7656  0.3851
  905MOL0     C22089   7.847  11.520   1.750 -0.4530 -0.0593  0.1888
  905MOL0     N22090   8.498  10.933   1.548 -0.1157  0.0758  0.2165
  905MOL0     N22091   8.494  10.830   1.461 -0.5677  0.6103 -0.2529
  905MOL0     C22092   7.829  10.920   0.815  0.3638 -0.5146  0.5460
  905MOL0     C22093   7.710  10.988   0.843 -0.0951  0.2034 -0.1860
  905MOL0     C22094   7.281  11.108   0.853 -0.8436  0.5089 -0.6567
  905MOL0     C22095   7.205  11.048   0.962 -1.5865  0.3536  0.2446
  905MOL0     C22096   7.088  11.105   1.004  0.3721  0.0612 -1.3128
  905MOL0     C22097   7.029  11.212   0.939 -0.1506 -0.3846  1.4538
  905MOL0     O22098   6.912  11.274   0.976 -0.0442 -0.7268 -0.5176
  905MOL0     C22099   6.861  11.232   1.108  0.4294 -0.0519  0.0599
  905MOL0     C22100   6.749  11.330   1.147  0.4785 -0.3946  0.7091
  905MOL0     C22101   6.812  11.442   1.231  0.0703 -1.1324 -0.9578
  905MOL0     C22102   6.720  11.565   1.244 -0.1276 -0.0518  0.4510
  905MOL0     C22103   6.602  11.542   1.328  0.0251  0.0495  0.2224
  905MOL0     C22104   6.501  11.524   1.398 -0.4334 -0.0873 -0.1722
  905MOL0     C22105   7.096  11.265   0.827 -0.1812  0.0096  0.0029
  905MOL0     C22106   7.223  11.224   0.790  0.5504  1.0634  0.3315
  905MOL0     C22107   7.294  11.293   0.671 -0.0311 -0.5303 -0.2929
  905MOL0     H22108   7.530  10.719   0.943  1.2894 -2.5973  0.8837
  905MOL0     H22109   7.747  10.614   0.898 -1.5734 -0.0645  0.1859
  905MOL0     H22110   8.029  10.665   0.611 -1.8882  0.1036 -0.9005
  905MOL0     H22111   7.963  10.824   0.609  1.2385 -0.5925 -2.3934
  905MOL0     H22112   8.126  10.915   0.751 -4.6125 -0.9866  0.7410
  905MOL0     H22113   8.211  10.825   0.620  0.3811  0.6439  0.2579
  905MOL0     H22114   8.237  10.622   0.780 -0.7317 -1.2349  4.3244
  905MOL0     H22115   8.184  10.721   0.908  0.6566 -3.5780 -0.2634
  905MOL0     H22116   8.417  10.756   0.734 -0.5801 -3.3069 -0.0383
  905MOL0     H22117   8.386  10.871   0.866  2.9156  1.0066 -2.1568
  905MOL0     H22118   8.409  10.628   1.016 -0.1137 -1.3402  0.0800
  905MOL0     H22119   8.491  10.579   0.876  1.0227 -0.4092  0.3374
  905MOL0     H22120   8.649  10.669   1.038  0.9182  0.1128 -1.1979
  905MOL0     H22121   8.642  10.791   0.912 -1.7012  0.8447 -0.1245
  905MOL0     H22122   8.490  10.929   1.047  0.7908  1.6549  1.6501
  905MOL0     H22123   8.640  10.897   1.128 -0.1240 -0.4449  2.4329
  905MOL0     H22124   8.360  10.801   1.194  0.3393 -0.3998 -0.9714
  905MOL0     H22125   8.486  10.701   1.252 -3.9515 -1.4141 -0.2329
  905MOL0     H22126   8.466  11.094   1.262  2.9318  0.9582  0.0675
  905MOL0     H22127   8.512  11.203   1.615  1.1592 -0.7463 -1.6776
  905MOL0     H22128   8.503  11.258   1.451  0.0886  0.0013 -1.5478
  905MOL0     H22129   8.249  11.210   1.447 -0.7872  0.4057  0.6939
  905MOL0     H22130   8.256  11.148   1.612 -1.1073  2.8759  2.4929
  905MOL0     H22131   8.274  11.425   1.511 -2.9632 -0.9249 -1.3287
  905MOL0     H22132   8.315  11.381   1.689  2.4342 -0.5526 -0.9774
  905MOL0     H22133   8.086  11.305   1.730 -2.1809  2.2077  1.0875
  905MOL0     H22134   8.046  11.329   1.567  1.1678 -1.5296 -0.6186
  905MOL0     H22135   7.963  11.585   1.445 -0.0903  0.6991  0.7834
  905MOL0     H22136   7.718  11.635   1.404  2.5110 -1.5984 -0.7882
  905MOL0     H22137   7.438  11.867   1.311 -0.8718  2.0905  1.3877
  905MOL0     H22138   7.237  11.895   1.187 -1.6332 -0.5068 -0.3154
  905MOL0     H22139   6.958  11.978   1.302 -1.2510  1.4139 -0.9884
  905MOL0     H22140   7.056  11.961   1.163  0.3249 -1.9245 -1.7674
  905MOL0     H22141   6.762  11.901   1.176 -0.6231 -0.8164 -1.7327
  905MOL0     H22142   6.845  12.029   1.083  3.8783  0.3197 -0.9751
  905MOL0     H22143   6.957  11.835   0.977  0.5905 -1.3302  4.3835
  905MOL0     H22144   6.825  11.732   1.036 -2.9707  0.1346 -0.6030
  905MOL0     H22145   6.745  11.961   0.847 -0.6232  0.2438  0.8324
  905MOL0     H22146   6.645  11.826   0.907 -0.5263  1.0490  1.5420
  905MOL0     H22147   6.898  11.782   0.751  0.1685  1.8724 -2.2807
  905MOL0     H22148   6.736  11.839   0.678 -2.9946 -0.7740  1.3479
  905MOL0     H22149   6.789  11.592   0.831  1.4301  2.4254 -1.3584
  905MOL0     H22150   6.632  11.640   0.768 -1.7817  1.6885 -0.9459
  905MOL0     H22151   6.721  11.480   0.621 -1.8821  1.3379  0.4737
  905MOL0     H22152   6.878  11.568   0.611 -0.0309 -0.1688 -1.3597
  905MOL0     H22153   6.771  11.736   0.470  0.6165 -1.2346  1.1534
  905MOL0     H22154   6.740  11.574   0.409  0.4480 -1.3299  1.7417
  905MOL0     H22155   7.034  11.593   1.430  0.7012  0.3151 -1.8063
  905MOL0     H22156   7.247  11.545   1.525 -0.3816  1.0153  0.5135
  905MOL0     H22157   7.641  11.532   1.810  0.7325 -2.1113  0.9360
  905MOL0     H22158   7.877  11.500   1.853 -2.4172 -4.1964  0.1456
  905MOL0     H22159   7.919  10.971   0.783 -0.1181 -0.9944 -1.7165
  905MOL0     H22160   7.692  11.090   0.809  3.4883  0.9768 -0.1699
  905MOL0     H22161   7.248  10.960   1.009 -1.6654 -0.1228 -0.5644
  905MOL0     H22162   7.048  11.078   1.101 -0.8879  1.9569 -1.2411
  905MOL0     H22163   6.934  11.255   1.185 -0.2774  1.9446  0.1784
  905MOL0     H22164   6.810  11.135   1.112 -1.4357  0.8957  0.6870
  905MOL0     H22165   6.674  11.288   1.213 -1.4388  1.0475 -0.4355
  905MOL0     H22166   6.701  11.366   1.055 -0.5588 -1.4512  0.8296
  905MOL0     H22167   6.909  11.465   1.186 -0.7380 -1.2345 -2.8313
  905MOL0     H22168   6.814  11.402   1.333  0.8285  0.1076 -0.4708
  905MOL0     H22169   6.772  11.653   1.283  0.7565  0.6807 -2.1639
  905MOL0     H22170   6.688  11.598   1.145 -0.7563  0.8316  0.9319
  905MOL0     H22171   6.408  11.517   1.451 -0.4713 -2.3021 -0.4527
  905MOL0     H22172   7.054  11.342   0.764  1.1064  1.5609  0.9457
  905MOL0     H22173   7.395  11.323   0.701  0.5904 -2.6118 -0.1808
  905MOL0     H22174   7.305  11.231   0.582  0.1836 -0.8285 -0.0658
  905MOL0     H22175   7.257  11.392   0.642 -0.2520 -1.0648 -1.9061
  906MOL0     O22176   7.531   6.270   6.581 -0.5528 -0.0465  0.5651
  906MOL0     C22177   7.475   6.191   6.659 -0.9232 -0.0511  0.6056
  906MOL0     O22178   7.538   6.126   6.754 -0.2457 -0.2366 -0.4577
  906MOL0     C22179   7.667   6.171   6.776 -0.2242  0.0152  0.7628
  906MOL0     C22180   7.699   6.205   6.904 -0.3064 -0.3621 -0.3130
  906MOL0     C22181   7.828   6.255   6.940 -1.4008 -0.6035  0.1011
  906MOL0     C22182   7.929   6.260   6.839  0.5571  0.5112  0.2482
  906MOL0     O22183   8.032   6.334   6.879  0.4330  0.2175  0.3567
  906MOL0     C22184   8.151   6.308   6.809 -0.6440 -0.5713 -0.0570
  906MOL0     C22185   8.171   6.423   6.708  0.2340 -0.8584 -0.2718
  906MOL0     C22186   8.291   6.395   6.618  0.7689  0.2567 -0.1289
  906MOL0     C22187   8.425   6.447   6.686  0.4640  0.3269 -0.5445
  906MOL0     C22188   8.534   6.387   6.596  0.4167 -0.0623  0.1198
  906MOL0     C22189   8.559   6.472   6.468 -0.6612 -0.2976 -0.4766
  906MOL0     C22190   8.626   6.389   6.353 -0.3538 -0.5157  0.4843
  906MOL0     C22191   8.789   6.417   6.351 -0.0481  0.0272  0.5657
  906MOL0     N22192   8.855   6.331   6.253 -0.1161  0.7088  0.0507
  906MOL0     C22193   8.937   6.217   6.285  0.3703 -0.4393 -1.4396
  906MOL0     C22194   9.012   6.198   6.173  0.3195  0.3224  0.3695
  906MOL0     C22195   9.108   6.082   6.163 -0.7643 -0.4959  0.0551
  906MOL0     C22196   9.217   6.106   6.057  0.4504  1.5826  0.0836
  906MOL0     C22197   9.301   6.230   6.093  0.0626  0.5442 -0.2114
  906MOL0     C22198   9.440   6.214   6.020 -0.0562 -0.0004  0.2426
  906MOL0     O22199   9.519   6.105   6.074 -0.6189  0.3630  0.8636
  906MOL0     C22200   9.590   6.115   6.193  0.5423 -0.2085 -0.1452
  906MOL0     C22201   9.668   6.001   6.224 -0.3446 -0.1872  0.9563
  906MOL0     C22202   9.743   5.997   6.335  0.7907  0.4185 -0.0128
  906MOL0     C22203   9.732   6.098   6.432  0.8196  0.3643  0.1809
  906MOL0     C22204   9.790   6.091   6.563 -0.5864  0.0809 -0.0471
  906MOL0     O22205   9.890   6.005   6.574 -0.6685  0.4211 -0.4326
  906MOL0     C22206   9.993   6.024   6.661 -0.2478  0.2818 -1.0265
  906MOL0     C22207  10.079   5.909   6.678 -0.7764  0.5458 -0.8375
  906MOL0     C22208  10.193   5.915   6.757  0.4002  0.7470 -0.5753
  906MOL0     C22209  10.225   6.017   6.847  0.5523  0.0185  0.0862
  906MOL0     O22210  10.340   6.035   6.918  0.1342  0.4400  0.4112
  906MOL0     C22211  10.465   6.022   6.850  0.2042 -0.0501 -0.0351
  906MOL0     C22212  10.574   6.060   6.949 -0.2544  0.5112  0.5892
  906MOL0     C22213  10.547   6.195   7.028 -0.2181  0.1290 -0.7273
  906MOL0     C22214  10.610   6.173   7.161  0.7204  0.3823 -0.9907
  906MOL0     C22215  10.680   6.305   7.211 -0.0445 -0.1827 -0.1301
  906MOL0     C22216  10.757   6.303   7.348 -1.2137  0.0165 -0.4824
  906MOL0     C22217  10.860   6.183   7.352 -0.2215  0.2581 -0.1326
  906MOL0     C22218  10.816   6.069   7.437  0.4765 -0.1879  0.9210
  906MOL0    Cl22219  10.828   5.912   7.358 -0.1706 -0.5226 -0.1744
  906MOL0     C22220  10.136   6.128   6.837  0.2243  0.0405 -0.6520
  906MOL0     C22221  10.025   6.138   6.746 -0.0730  0.3984 -0.1081
  906MOL0     O22222   9.744   6.165   6.652 -0.7361 -0.1971 -0.2573
  906MOL0     C22223   9.651   6.205   6.409  0.0303 -1.0050  0.4474
  906MOL0     C22224   9.585   6.222   6.282 -0.1268  0.8510 -0.3880
  906MOL0     N22225   8.977   6.287   6.082  0.1062 -0.3392  0.0450
  906MOL0     N22226   8.885   6.371   6.126 -0.6019 -0.0558 -1.0657
  906MOL0     C22227   7.898   6.217   6.711  0.4583 -0.2474  0.5373
  906MOL0     C22228   7.773   6.162   6.681  0.0485 -0.1326 -0.4926
  906MOL0     C22229   7.333   6.157   6.639  0.3237  0.4116 -0.3567
  906MOL0     C22230   7.264   6.221   6.532  0.4239 -0.2682  0.7380
  906MOL0     C22231   7.129   6.185   6.495 -0.1889 -0.5421 -0.3373
  906MOL0     C22232   7.062   6.089   6.566  0.6749 -0.3832 -0.3284
  906MOL0     O22233   6.930   6.063   6.531 -0.3700 -0.2201 -0.2711
  906MOL0     C22234   6.839   6.150   6.598  0.0105  0.0543  0.2475
  906MOL0     C22235   6.695   6.163   6.548  0.2273 -0.0046  0.2662
  906MOL0     C22236   6.621   6.026   6.561  0.4264  0.0806  0.1783
  906MOL0     C22237   6.475   6.044   6.518 -0.6501 -1.2779 -0.4536
  906MOL0     C22238   6.401   5.915   6.513  0.3611  0.5787 -0.1772
  906MOL0     C22239   6.349   5.801   6.502  0.0018  0.2188 -0.0610
  906MOL0     C22240   7.121   6.048   6.692 -0.6775  0.1381  0.0137
  906MOL0     C22241   7.256   6.078   6.725 -0.5516 -0.7777 -0.5075
  906MOL0     C22242   7.307   6.014   6.849 -0.8566  0.3809  0.2288
  906MOL0     H22243   7.615   6.204   6.973 -0.8626  4.3212 -0.6065
  906MOL0     H22244   7.855   6.294   7.038  2.2797 -0.9819 -0.6235
  906MOL0     H22245   8.223   6.314   6.890 -1.3754 -0.1804  0.5790
  906MOL0     H22246   8.162   6.211   6.760 -2.0323 -0.2592 -1.0617
  906MOL0     H22247   8.183   6.514   6.768  2.7388 -2.3054  1.6201
  906MOL0     H22248   8.085   6.439   6.643 -0.6098 -2.0519  0.5246
  906MOL0     H22249   8.282   6.443   6.521 -0.3925  1.0638  0.3465
  906MOL0     H22250   8.297   6.285   6.620 -1.0472  0.1293  1.9220
  906MOL0     H22251   8.412   6.554   6.700 -0.7262 -0.0011  1.2273
  906MOL0     H22252   8.442   6.408   6.787 -2.8549  0.2479  0.1114
  906MOL0     H22253   8.632   6.386   6.644 -0.3094  2.6210  1.9082
  906MOL0     H22254   8.505   6.290   6.554  1.9315 -0.3770 -0.2631
  906MOL0     H22255   8.477   6.530   6.427  1.1438  1.0886 -2.3386
  906MOL0     H22256   8.634   6.541   6.507  0.9241 -1.8547 -0.6341
  906MOL0     H22257   8.580   6.420   6.259 -0.8100 -0.1418  0.8311
  906MOL0     H22258   8.605   6.281   6.355 -0.0818 -0.6826 -1.9215
  906MOL0     H22259   8.819   6.521   6.336 -1.9379  1.1835  3.7012
  906MOL0     H22260   8.827   6.409   6.453 -2.1372  1.5324  1.5356
  906MOL0     H22261   8.957   6.159   6.374  0.3780 -0.7541 -1.6475
  906MOL0     H22262   9.148   6.070   6.265 -3.5583  0.4236  1.3715
  906MOL0     H22263   9.049   5.997   6.129 -0.8203 -0.2726 -0.4139
  906MOL0     H22264   9.268   6.010   6.069  1.7232  2.5321  3.1808
  906MOL0     H22265   9.172   6.119   5.958  1.5045  1.7255 -0.3930
  906MOL0     H22266   9.310   6.240   6.201  0.9003 -0.3328 -0.1875
  906MOL0     H22267   9.264   6.327   6.059 -1.0137 -0.0850 -0.9114
  906MOL0     H22268   9.505   6.302   6.030 -0.8955  0.3985  3.4275
  906MOL0     H22269   9.416   6.201   5.915  0.6743 -3.8112  0.4182
  906MOL0     H22270   9.679   5.918   6.155  2.6892  1.4572 -0.7339
  906MOL0     H22271   9.815   5.922   6.363  2.4889  2.5802  1.7431
  906MOL0     H22272  10.062   5.819   6.619  2.0721 -0.5099 -0.1920
  906MOL0     H22273  10.243   5.819   6.746  0.4826  0.8587 -1.2387
  906MOL0     H22274  10.480   5.919   6.818 -2.5438  0.1801 -2.4121
  906MOL0     H22275  10.472   6.093   6.767  1.7702 -0.6413 -0.4328
  906MOL0     H22276  10.574   5.974   7.018  2.1530  0.6617  0.8570
  906MOL0     H22277  10.666   6.046   6.890 -1.7084 -5.1424 -1.0473
  906MOL0     H22278  10.603   6.280   6.987  1.0530 -1.4503 -2.4223
  906MOL0     H22279  10.440   6.214   7.036 -0.2981 -0.6001  0.1313
  906MOL0     H22280  10.687   6.096   7.152 -0.8513 -1.5962  1.3608
  906MOL0     H22281  10.539   6.129   7.231  1.2325 -1.3784 -1.5303
  906MOL0     H22282  10.601   6.380   7.217 -0.8355 -0.6576 -2.8955
  906MOL0     H22283  10.752   6.332   7.133  1.5344  0.4650  1.4922
  906MOL0     H22284  10.817   6.394   7.359 -3.2114  1.1112  2.4278
  906MOL0     H22285  10.685   6.303   7.430 -0.3961 -0.0196  0.2437
  906MOL0     H22286  10.962   6.209   7.383  0.1665  0.3626 -1.4111
  906MOL0     H22287  10.884   6.158   7.248  1.0308  0.3483  0.1193
  906MOL0     H22288  10.878   6.069   7.527  1.8662  0.9939  0.0114
  906MOL0     H22289  10.714   6.092   7.469 -0.0086  0.6061 -1.0202
  906MOL0     H22290  10.168   6.218   6.890  0.2818 -0.9613  1.0787
  906MOL0     H22291   9.978   6.235   6.734  0.3093  0.9232  2.0828
  906MOL0     H22292   9.644   6.289   6.477  2.3029  0.2192 -0.7079
  906MOL0     H22293   9.524   6.310   6.267 -2.9148 -0.5830  1.6599
  906MOL0     H22294   7.975   6.223   6.635  0.7356  3.7343  0.9204
  906MOL0     H22295   7.747   6.129   6.581  2.1976 -2.4466 -0.3905
  906MOL0     H22296   7.312   6.296   6.470 -1.8697  0.9682  0.3263
  906MOL0     H22297   7.084   6.231   6.407 -0.4782 -0.9960 -0.4284
  906MOL0     H22298   6.880   6.250   6.616  1.1403 -0.7769  2.7217
  906MOL0     H22299   6.826   6.112   6.699 -3.9416 -1.1940 -0.5714
  906MOL0     H22300   6.698   6.182   6.440  2.0229  0.1432  0.3035
  906MOL0     H22301   6.651   6.246   6.604  2.1407  2.3173 -1.4759
  906MOL0     H22302   6.622   6.004   6.668 -2.8112 -0.1508  0.2490
  906MOL0     H22303   6.672   5.953   6.497 -0.8333  2.9861 -4.6845
  906MOL0     H22304   6.425   6.114   6.585 -3.4686 -2.5938 -1.0257
  906MOL0     H22305   6.470   6.091   6.419  0.4142  0.0900  0.1110
  906MOL0     H22306   6.343   5.695   6.489  1.4174  0.2106 -0.8063
  906MOL0     H22307   7.070   5.979   6.759  0.4977 -2.5698 -1.6979
  906MOL0     H22308   7.361   6.089   6.908  0.7257  1.3674 -2.2866
  906MOL0     H22309   7.223   5.991   6.915 -0.3691 -1.1822  0.3617
  906MOL0     H22310   7.369   5.927   6.825  0.3230  0.7743  1.6725
  907MOL0     O22311   3.709   6.852   6.735  0.0121 -0.2123  0.5787
  907MOL0     C22312   3.614   6.792   6.682 -0.0741 -0.5263 -0.8535
  907MOL0     O22313   3.552   6.679   6.731 -0.0330 -0.4730  0.1649
  907MOL0     C22314   3.617   6.582   6.802 -0.7305 -0.4192  0.9445
  907MOL0     C22315   3.540   6.494   6.870 -0.4584  0.3141 -0.0301
  907MOL0     C22316   3.592   6.392   6.943  0.6497 -0.2224 -0.6409
  907MOL0     C22317   3.732   6.378   6.959 -0.6254  0.3305 -0.1867
  907MOL0     O22318   3.772   6.262   7.033 -0.0767  0.4433 -0.3488
  907MOL0     C22319   3.900   6.260   7.099 -0.3448 -0.2085  0.1577
  907MOL0     C22320   3.915   6.359   7.221 -0.3982  0.1223  0.6937
  907MOL0     C22321   4.055   6.413   7.246  0.1671 -1.2228  0.4030
  907MOL0     C22322   4.140   6.337   7.344  0.0030  0.3780 -0.5575
  907MOL0     C22323   4.091   6.325   7.487 -0.0397  0.2724 -0.5697
  907MOL0     C22324   4.044   6.455   7.545  0.7056  0.2119  0.0743
  907MOL0     C22325   4.013   6.446   7.697 -0.8953  0.7143  0.5898
  907MOL0     C22326   3.882   6.376   7.738  0.2223  0.2108 -0.8628
  907MOL0     N22327   3.760   6.452   7.694  0.1491  0.0325 -0.3383
  907MOL0     C22328   3.738   6.583   7.721 -0.7088  0.0037 -0.3647
  907MOL0     C22329   3.626   6.613   7.655  0.3840 -0.8500  0.2713
  907MOL0     C22330   3.555   6.748   7.672  0.0195  0.1470  0.1549
  907MOL0     C22331   3.488   6.753   7.815 -0.8878 -0.2175  0.6659
  907MOL0     C22332   3.350   6.684   7.814 -1.0859  0.6138 -0.1775
  907MOL0     C22333   3.266   6.707   7.948  0.8873 -0.3365  0.0331
  907MOL0     O22334   3.197   6.835   7.941 -0.2249  0.3271 -0.0933
  907MOL0     C22335   3.137   6.880   8.055 -0.2712 -0.4581  0.1466
  907MOL0     C22336   3.127   7.015   8.086  0.5589 -0.0784  0.8835
  907MOL0     C22337   3.036   7.065   8.182 -0.5949  0.1647 -0.1482
  907MOL0     C22338   2.979   6.981   8.275 -1.1582 -0.5787 -1.1920
  907MOL0     C22339   2.917   7.021   8.399 -0.0769 -0.5361  0.1643
  907MOL0     O22340   2.842   6.934   8.462  0.1265 -0.4047 -0.0761
  907MOL0     C22341   2.783   6.978   8.579  0.0393 -0.0964 -0.6134
  907MOL0     C22342   2.657   7.030   8.601  0.6498  0.7446  0.5433
  907MOL0     C22343   2.597   7.040   8.729 -0.6926  0.1148 -0.5843
  907MOL0     C22344   2.671   7.001   8.842 -0.1838  0.9009 -1.1545
  907MOL0     O22345   2.621   7.003   8.973  0.6288  0.3961  0.6879
  907MOL0     C22346   2.477   7.007   8.993  0.2712  1.3928  0.1289
  907MOL0     C22347   2.397   6.873   8.963  0.1908 -0.5996 -0.5424
  907MOL0     C22348   2.443   6.755   9.058 -1.1618  0.2570 -0.3678
  907MOL0     C22349   2.361   6.629   9.025  0.1746  0.5271  0.1982
  907MOL0     C22350   2.429   6.518   9.108  0.6426  0.1252  0.1030
  907MOL0     C22351   2.365   6.382   9.085 -0.1555  0.0031  1.2015
  907MOL0     C22352   2.224   6.369   9.139  0.1240  0.7731 -0.2178
  907MOL0     C22353   2.153   6.245   9.105 -0.2714  0.4602 -0.3534
  907MOL0    Cl22354   1.988   6.265   9.146  0.2488  0.2594 -0.0458
  907MOL0     C22355   2.801   6.965   8.821 -0.3022 -0.3647  0.4585
  907MOL0     C22356   2.860   6.952   8.694 -0.2995  0.6432 -0.4421
  907MOL0     O22357   2.915   7.136   8.427 -0.4521 -0.7021 -0.1051
  907MOL0     C22358   3.005   6.845   8.253 -0.1325 -1.3272  0.4634
  907MOL0     C22359   3.074   6.796   8.142  0.6617  0.1134 -1.1624
  907MOL0     N22360   3.580   6.502   7.586  0.3143  0.8012 -0.8145
  907MOL0     N22361   3.672   6.410   7.605  0.5132 -0.5296  1.3921
  907MOL0     C22362   3.814   6.471   6.893 -0.2038 -0.5749 -0.2087
  907MOL0     C22363   3.757   6.557   6.799  0.8516  0.3008  0.1277
  907MOL0     C22364   3.551   6.846   6.554  0.0039 -0.4318  0.3663
  907MOL0     C22365   3.574   6.986   6.544 -0.0070  0.0844 -0.3423
  907MOL0     C22366   3.518   7.067   6.437 -0.4888  0.9554 -0.5152
  907MOL0     C22367   3.437   7.007   6.339  0.5496  1.0848  0.7706
  907MOL0     O22368   3.409   7.107   6.238 -0.3560 -0.4906  0.0729
  907MOL0     C22369   3.302   7.093   6.149 -0.8186 -0.5251  0.5804
  907MOL0     C22370   3.273   7.232   6.095  0.4570 -0.6925 -0.6124
  907MOL0     C22371   3.374   7.301   5.989  0.6751  0.1030  0.2235
  907MOL0     C22372   3.313   7.412   5.914 -0.5579  0.1427 -0.3017
  907MOL0     C22373   3.241   7.352   5.802  0.4877 -0.2831  0.9600
  907MOL0     C22374   3.191   7.303   5.703 -0.5521 -0.4832 -0.6221
  907MOL0     C22375   3.409   6.871   6.351 -0.9124  0.0274 -0.1487
  907MOL0     C22376   3.471   6.787   6.452  0.3227 -1.1345  0.0933
  907MOL0     C22377   3.437   6.641   6.463 -0.4875  0.6572 -0.2994
  907MOL0     H22378   3.432   6.504   6.866 -0.5492 -0.9606 -2.1011
  907MOL0     H22379   3.518   6.334   6.997 -0.5826 -0.2042 -2.2523
  907MOL0     H22380   3.925   6.159   7.132 -0.4170  0.0276  0.9574
  907MOL0     H22381   3.979   6.288   7.028  1.2066 -1.1796  1.4148
  907MOL0     H22382   3.881   6.306   7.311  1.9690 -0.5006  1.2748
  907MOL0     H22383   3.854   6.446   7.196 -2.5048 -1.5632 -0.3311
  907MOL0     H22384   4.047   6.512   7.293  1.1227  0.2608 -2.3242
  907MOL0     H22385   4.102   6.412   7.148  1.6667 -1.1812  1.0919
  907MOL0     H22386   4.159   6.237   7.304  2.3123  1.2940 -1.9805
  907MOL0     H22387   4.235   6.392   7.343 -1.4603  3.1340  0.6340
  907MOL0     H22388   4.020   6.242   7.499  0.2682  0.2575  1.4800
  907MOL0     H22389   4.180   6.291   7.540 -1.4393  2.7142  3.8780
  907MOL0     H22390   4.111   6.538   7.522 -1.8588  2.2742 -0.4356
  907MOL0     H22391   3.950   6.476   7.493  1.0620 -0.2600 -0.7807
  907MOL0     H22392   4.021   6.546   7.740  1.0402  2.8877 -4.1569
  907MOL0     H22393   4.092   6.388   7.746  0.0443  1.0018 -0.5618
  907MOL0     H22394   3.877   6.276   7.694 -0.4233 -0.5022  0.7650
  907MOL0     H22395   3.875   6.372   7.847 -1.8273  1.1063 -0.9130
  907MOL0     H22396   3.791   6.653   7.785 -2.8895  1.0928  0.3333
  907MOL0     H22397   3.625   6.829   7.650 -0.9708  0.6624 -1.3046
  907MOL0     H22398   3.482   6.758   7.591 -0.7292  2.0443  1.0123
  907MOL0     H22399   3.558   6.701   7.881 -0.1868  0.5849  0.5754
  907MOL0     H22400   3.482   6.861   7.835 -0.1004  0.4610 -2.2186
  907MOL0     H22401   3.375   6.578   7.814  0.5413  0.9655 -1.0246
  907MOL0     H22402   3.297   6.713   7.722  0.4267  0.6763 -1.0712
  907MOL0     H22403   3.329   6.711   8.037  1.4418 -0.6634 -0.3290
  907MOL0     H22404   3.191   6.628   7.960  1.6712 -0.9922  0.8290
  907MOL0     H22405   3.175   7.079   8.012  0.2942 -0.6654  0.1995
  907MOL0     H22406   3.041   7.173   8.191  1.0307  0.1737 -0.8024
  907MOL0     H22407   2.594   7.046   8.514 -1.6819 -2.0340  1.5779
  907MOL0     H22408   2.501   7.090   8.723 -0.4588  0.8177  1.0280
  907MOL0     H22409   2.452   7.038   9.095 -1.2327  3.1095 -0.7024
  907MOL0     H22410   2.431   7.071   8.917 -1.7369 -2.1128 -1.8896
  907MOL0     H22411   2.290   6.896   8.966 -0.0409 -1.6844  0.1085
  907MOL0     H22412   2.411   6.855   8.856 -0.5791  1.5730 -1.0725
  907MOL0     H22413   2.548   6.737   9.033 -1.0297 -0.9927  0.9481
  907MOL0     H22414   2.432   6.784   9.163  0.5342 -1.2521  0.2791
  907MOL0     H22415   2.364   6.622   8.916 -0.7033  0.3933  0.1701
  907MOL0     H22416   2.257   6.640   9.060 -0.9218 -0.3030 -2.5544
  907MOL0     H22417   2.443   6.548   9.212  2.6852 -0.8132  0.1506
  907MOL0     H22418   2.529   6.517   9.064  0.9176 -0.0270  0.7240
  907MOL0     H22419   2.356   6.360   8.978 -0.2075  1.2302  0.9308
  907MOL0     H22420   2.430   6.303   9.124 -1.1180 -0.9750  0.8836
  907MOL0     H22421   2.161   6.446   9.094  1.5172  2.0541 -0.0483
  907MOL0     H22422   2.226   6.380   9.247  0.1117  0.1319 -0.1484
  907MOL0     H22423   2.182   6.232   9.000  2.1961 -1.0742  0.4233
  907MOL0     H22424   2.200   6.161   9.158 -1.8380  0.4994  1.1718
  907MOL0     H22425   2.864   6.946   8.907 -0.2469  1.8078  0.9459
  907MOL0     H22426   2.955   6.902   8.680 -1.4031 -1.3623 -1.1220
  907MOL0     H22427   2.958   6.777   8.324 -2.3513 -1.4200 -1.0031
  907MOL0     H22428   3.067   6.689   8.126 -1.3055  0.0524 -0.1683
  907MOL0     H22429   3.921   6.464   6.912  0.0393 -1.5113 -1.8034
  907MOL0     H22430   3.821   6.616   6.735  2.0295 -1.2891 -0.2279
  907MOL0     H22431   3.632   7.041   6.617  1.1910  0.6867 -1.6892
  907MOL0     H22432   3.544   7.172   6.435  0.5304  0.7741  1.4329
  907MOL0     H22433   3.213   7.067   6.206 -0.7613  0.4700  1.1297
  907MOL0     H22434   3.338   7.033   6.064  1.4856 -1.2309  1.9466
  907MOL0     H22435   3.273   7.305   6.177 -0.6809  0.2812 -1.4552
  907MOL0     H22436   3.174   7.233   6.050  0.3013  1.7777 -0.3558
  907MOL0     H22437   3.421   7.220   5.931  1.1979  0.5165  0.0591
  907MOL0     H22438   3.458   7.343   6.044  0.1932 -0.3916  1.3520
  907MOL0     H22439   3.250   7.475   5.978  0.5681  1.8260 -0.7864
  907MOL0     H22440   3.386   7.485   5.879 -0.7619  0.4600 -0.0717
  907MOL0     H22441   3.149   7.267   5.612 -1.3911 -3.2729  0.7756
  907MOL0     H22442   3.354   6.824   6.271 -3.0898  0.3524  1.0578
  907MOL0     H22443   3.369   6.614   6.382 -0.6921 -0.2035  0.1446
  907MOL0     H22444   3.520   6.571   6.450 -1.5440 -1.3312  2.5574
  907MOL0     H22445   3.392   6.613   6.559 -1.2733 -0.3738 -0.9412
  908MOL0     O22446   9.892   8.837   4.985  0.7031  0.8259 -0.7363
  908MOL0     C22447   9.790   8.827   4.911 -0.2550 -0.4128  0.0916
  908MOL0     O22448   9.773   8.738   4.816  0.2161  0.0529 -0.0490
  908MOL0     C22449   9.878   8.660   4.784 -0.3870  0.1032  0.2994
  908MOL0     C22450   9.932   8.673   4.650  0.1327  0.3328 -0.5037
  908MOL0     C22451  10.038   8.589   4.617  0.2381  1.2079 -0.4988
  908MOL0     C22452  10.090   8.501   4.714  0.1064  0.0699 -0.5139
  908MOL0     O22453  10.200   8.433   4.676  0.1961  0.8470 -0.3251
  908MOL0     C22454  10.247   8.329   4.763  0.2305 -1.1213 -0.0943
  908MOL0     C22455  10.362   8.268   4.689 -0.8983  0.4571  0.2194
  908MOL0     C22456  10.341   8.223   4.548 -0.7370 -0.2353  0.1400
  908MOL0     C22457  10.454   8.154   4.475  0.7541 -0.8695  0.3875
  908MOL0     C22458  10.542   8.255   4.395 -0.0366 -0.5780  0.3132
  908MOL0     C22459  10.636   8.191   4.292 -0.5277 -1.0511  0.3375
  908MOL0     C22460  10.742   8.104   4.368 -0.7574  0.8873  0.2342
  908MOL0     C22461  10.872   8.101   4.270 -0.1174 -0.1992  0.1819
  908MOL0     N22462  10.968   7.999   4.320 -0.5890 -0.3395 -0.4572
  908MOL0     C22463  10.978   7.869   4.274  0.5158  0.5819 -0.0176
  908MOL0     C22464  11.069   7.802   4.352 -0.2703 -1.0335 -0.6378
  908MOL0     C22465  11.125   7.659   4.342  0.6700  0.2355  0.2710
  908MOL0     C22466  11.211   7.650   4.218  0.4983  0.7934  0.2641
  908MOL0     C22467  11.346   7.713   4.246 -0.6522  0.1772  0.5102
  908MOL0     C22468  11.446   7.667   4.138  0.8783 -0.2615  0.1120
  908MOL0     O22469  11.566   7.747   4.139  0.7782  0.0783  0.0573
  908MOL0     C22470  11.679   7.683   4.101  0.0809  0.4102  0.1232
  908MOL0     C22471  11.788   7.719   4.170 -0.4269 -0.3566 -0.4297
  908MOL0     C22472  11.920   7.676   4.146  0.0545 -0.2679  0.3103
  908MOL0     C22473  11.939   7.586   4.035  0.6095 -0.2373 -0.4720
  908MOL0     C22474  12.083   7.547   4.006  0.2467  0.0746  1.7582
  908MOL0     O22475  12.175   7.578   4.101 -1.0177  0.2834 -0.1716
  908MOL0     C22476  12.292   7.508   4.094 -0.5196  0.9554 -0.4375
  908MOL0     C22477  12.324   7.403   4.182 -0.5450 -0.2625 -0.0412
  908MOL0     C22478  12.444   7.339   4.185 -0.6892  0.4229  0.9101
  908MOL0     C22479  12.548   7.382   4.100  0.5006 -0.2256 -0.3424
  908MOL0     O22480  12.665   7.314   4.078  0.2315  0.6060 -0.1726
  908MOL0     C22481  12.719   7.228   4.195 -0.2507  0.2805  0.1382
  908MOL0     C22482  12.868   7.196   4.190  0.2951  0.8487  0.1210
  908MOL0     C22483  12.882   7.109   4.061  0.7412 -0.6537 -0.2545
  908MOL0     C22484  13.028   7.063   4.061 -0.1633 -0.0109 -0.3307
  908MOL0     C22485  13.049   6.945   3.971 -0.0074  0.5910 -0.1751
  908MOL0     C22486  13.199   6.910   3.948 -0.0852 -0.5435  0.5207
  908MOL0     C22487  13.287   7.028   3.892  0.8790 -0.0451 -0.7515
  908MOL0     C22488  13.258   7.060   3.743 -0.4049  0.4343 -0.1958
  908MOL0    Cl22489  13.367   7.182   3.694  0.0824  0.2221 -0.0806
  908MOL0     C22490  12.517   7.483   4.000  0.5651  0.8472  0.6629
  908MOL0     C22491  12.392   7.547   4.002 -0.7345  0.2791 -0.8200
  908MOL0     O22492  12.105   7.469   3.913  0.0527 -0.1916  0.0604
  908MOL0     C22493  11.824   7.543   3.966 -0.1556  0.3095 -0.0480
  908MOL0     C22494  11.689   7.590   3.998 -0.1700  0.2322 -0.6819
  908MOL0     N22495  11.101   7.891   4.448 -0.3335  0.0737 -0.7555
  908MOL0     N22496  11.043   8.005   4.434  0.1154 -0.4228  0.0387
  908MOL0     C22497  10.034   8.480   4.835 -0.6647  0.1838  0.5435
  908MOL0     C22498   9.926   8.559   4.866 -0.2441  0.0900 -0.2059
  908MOL0     C22499   9.679   8.914   4.934  0.6016  0.0220  0.4924
  908MOL0     C22500   9.550   8.854   4.920  0.1724 -0.4021 -0.2889
  908MOL0     C22501   9.441   8.929   4.959 -1.1721 -0.0305  0.6543
  908MOL0     C22502   9.449   9.067   4.981  0.0023  0.3086 -0.7553
  908MOL0     O22503   9.337   9.142   5.014  0.8988  0.9375 -0.1410
  908MOL0     C22504   9.212   9.112   4.946 -0.2051 -0.0290 -0.8405
  908MOL0     C22505   9.203   9.157   4.797  0.0862  0.0794 -0.1525
  908MOL0     C22506   9.251   9.310   4.788 -0.1132  0.9803 -0.3556
  908MOL0     C22507   9.236   9.376   4.654  0.3662  0.0294  0.5270
  908MOL0     C22508   9.324   9.312   4.557  0.7594 -0.3935 -0.3865
  908MOL0     C22509   9.409   9.267   4.483 -0.0631 -0.4968  0.4288
  908MOL0     C22510   9.582   9.125   4.994 -0.0655  0.9147  1.7173
  908MOL0     C22511   9.694   9.050   4.970  0.4125 -0.4152 -0.1816
  908MOL0     C22512   9.827   9.123   4.958 -0.5052 -0.8175  0.1003
  908MOL0     H22513   9.893   8.740   4.574  1.7883 -3.0093 -4.7347
  908MOL0     H22514  10.074   8.579   4.515  1.1505 -1.5589  0.0123
  908MOL0     H22515  10.270   8.386   4.854  2.6778 -1.9026 -0.1529
  908MOL0     H22516  10.176   8.247   4.770 -2.7222  0.7321 -4.2253
  908MOL0     H22517  10.395   8.182   4.749  2.4746  1.0270 -0.6105
  908MOL0     H22518  10.450   8.333   4.697 -0.0090 -0.8099  1.2664
  908MOL0     H22519  10.311   8.313   4.494  1.2908 -0.6997 -1.8829
  908MOL0     H22520  10.251   8.161   4.540  0.1427 -1.2549 -5.4458
  908MOL0     H22521  10.504   8.093   4.551  2.6005  0.5129  0.3461
  908MOL0     H22522  10.399   8.094   4.402 -2.4279 -0.1420  2.0143
  908MOL0     H22523  10.475   8.320   4.339  1.2651  0.3797 -0.1683
  908MOL0     H22524  10.596   8.319   4.466  1.4483 -1.0106 -0.3802
  908MOL0     H22525  10.582   8.137   4.214  0.4422 -4.7347  2.0243
  908MOL0     H22526  10.673   8.278   4.237 -0.1073 -0.1442  1.9946
  908MOL0     H22527  10.711   8.001   4.390  1.2845  0.6909  2.6877
  908MOL0     H22528  10.765   8.128   4.472 -2.3528  0.7843  0.6294
  908MOL0     H22529  10.834   8.075   4.170 -0.6965  2.7796 -0.4772
  908MOL0     H22530  10.917   8.201   4.268  0.1132 -0.2797  1.0598
  908MOL0     H22531  10.917   7.827   4.195  0.3833 -1.5900  1.1528
  908MOL0     H22532  11.175   7.624   4.433  2.0682  1.6685  0.1005
  908MOL0     H22533  11.041   7.593   4.316  1.4593  0.0787 -2.0778
  908MOL0     H22534  11.229   7.543   4.202  2.5124  1.1071  0.1924
  908MOL0     H22535  11.164   7.693   4.129 -2.2279 -1.5221  0.4358
  908MOL0     H22536  11.385   7.674   4.341 -1.2790  0.2397  0.8032
  908MOL0     H22537  11.325   7.821   4.248  0.1211  0.3283  1.0982
  908MOL0     H22538  11.395   7.679   4.042 -0.0910  0.9537  0.7367
  908MOL0     H22539  11.461   7.559   4.144 -2.4094 -0.8355 -0.1546
  908MOL0     H22540  11.780   7.794   4.248  1.1057 -2.4316  1.8732
  908MOL0     H22541  12.004   7.722   4.196 -0.4241  1.8263 -0.7081
  908MOL0     H22542  12.239   7.358   4.232 -0.5273 -2.9119 -2.1841
  908MOL0     H22543  12.462   7.251   4.247  1.3120  0.0905 -0.0434
  908MOL0     H22544  12.717   7.280   4.291  0.0750  0.2670  0.1553
  908MOL0     H22545  12.670   7.133   4.215 -1.7276  0.6958 -1.2752
  908MOL0     H22546  12.930   7.285   4.179  1.6841  0.3404  2.9129
  908MOL0     H22547  12.895   7.135   4.277  1.2783  0.1272 -0.6613
  908MOL0     H22548  12.812   7.027   4.078  1.1060 -1.0477 -0.6358
  908MOL0     H22549  12.856   7.174   3.977 -2.6667  2.0959  2.5976
  908MOL0     H22550  13.068   7.042   4.161 -0.5646 -0.2682 -0.2223
  908MOL0     H22551  13.083   7.150   4.025 -0.1283  0.8171  1.6318
  908MOL0     H22552  13.000   6.959   3.874 -0.9681  1.0894  0.3711
  908MOL0     H22553  13.003   6.857   4.017 -0.2804  0.1533 -1.2529
  908MOL0     H22554  13.246   6.880   4.042  0.7985  0.7555  0.5356
  908MOL0     H22555  13.206   6.826   3.880 -2.5008 -0.9541  0.6949
  908MOL0     H22556  13.388   6.986   3.896  0.7819 -0.2555  2.6754
  908MOL0     H22557  13.281   7.111   3.963 -2.1310  1.1673 -2.2542
  908MOL0     H22558  13.269   6.974   3.677  1.4238 -1.9510  2.9121
  908MOL0     H22559  13.162   7.112   3.734 -0.9033 -0.7745 -2.7699
  908MOL0     H22560  12.594   7.508   3.928  0.4845 -2.2942 -0.6365
  908MOL0     H22561  12.360   7.631   3.940 -1.8891 -0.7852 -1.7239
  908MOL0     H22562  11.836   7.486   3.874 -1.3265  1.1445 -0.7462
  908MOL0     H22563  11.605   7.568   3.933 -0.2663 -2.7822  0.3070
  908MOL0     H22564  10.055   8.400   4.905 -1.1549  2.5319  3.6032
  908MOL0     H22565   9.877   8.535   4.960 -1.5069  0.5210 -0.7361
  908MOL0     H22566   9.535   8.749   4.896  2.5816 -1.4505  2.1951
  908MOL0     H22567   9.351   8.873   4.981  0.8476 -4.1490 -0.5505
  908MOL0     H22568   9.126   9.155   4.999  0.1868 -0.6635  0.3621
  908MOL0     H22569   9.194   9.004   4.952 -1.8646  0.2876  1.1805
  908MOL0     H22570   9.105   9.140   4.752 -0.7821  2.3424  0.7679
  908MOL0     H22571   9.279   9.106   4.738  3.5683  4.7136 -0.1969
  908MOL0     H22572   9.360   9.307   4.801 -0.0135  0.5081 -1.2339
  908MOL0     H22573   9.194   9.375   4.855 -2.4224 -1.5027  0.2252
  908MOL0     H22574   9.135   9.369   4.614 -0.0105 -1.8764  1.6975
  908MOL0     H22575   9.263   9.481   4.666  2.8483 -0.6135  1.1799
  908MOL0     H22576   9.492   9.224   4.431 -0.2717  1.0903 -1.3553
  908MOL0     H22577   9.591   9.232   5.010 -2.5065  1.2170  1.5147
  908MOL0     H22578   9.887   9.115   4.867  2.6591  1.4917  1.7767
  908MOL0     H22579   9.808   9.231   4.952  0.3898 -0.4588  2.4072
  908MOL0     H22580   9.890   9.106   5.046  1.0251 -0.1437 -0.8273
  909MOL0     O22581   3.970   6.745   3.616 -0.4591  0.3218 -0.3448
  909MOL0     C22582   3.954   6.633   3.566 -0.4180 -0.8076  0.2346
  909MOL0     O22583   4.034   6.573   3.479 -0.8456 -0.2174  0.2738
  909MOL0     C22584   4.155   6.623   3.469 -0.9254  0.4959 -0.1719
  909MOL0     C22585   4.237   6.663   3.576  0.2060 -0.4373  0.0124
  909MOL0     C22586   4.355   6.732   3.545 -1.2141  0.7796  0.2582
  909MOL0     C22587   4.403   6.756   3.424  0.8778  0.4480 -0.6349
  909MOL0     O22588   4.510   6.837   3.420 -0.1529  0.2615  0.2830
  909MOL0     C22589   4.591   6.857   3.305 -0.5500  0.0459  0.5476
  909MOL0     C22590   4.703   6.939   3.344 -0.1105 -0.3421 -0.1823
  909MOL0     C22591   4.789   7.006   3.233 -0.4308  0.3200  0.1641
  909MOL0     C22592   4.925   7.062   3.297  1.1801 -0.5027 -0.0040
  909MOL0     C22593   4.988   7.178   3.215  0.6004 -0.0389  0.4513
  909MOL0     C22594   5.008   7.133   3.069  0.1629  0.1119 -0.2231
  909MOL0     C22595   5.097   7.219   2.980 -0.2179  0.3616  0.2181
  909MOL0     C22596   5.245   7.208   3.020  0.1953 -0.2252  0.1770
  909MOL0     N22597   5.301   7.077   3.039  0.1193 -0.3601 -0.0541
  909MOL0     C22598   5.293   7.004   3.157  0.1972  0.3944  0.6490
  909MOL0     C22599   5.353   6.889   3.120  0.3226  0.7146 -0.5705
  909MOL0     C22600   5.364   6.766   3.211  1.0236 -0.4886  0.4383
  909MOL0     C22601   5.484   6.674   3.167  0.5216 -0.2046  0.4649
  909MOL0     C22602   5.463   6.589   3.036  0.5420  0.2300  0.5528
  909MOL0     C22603   5.562   6.478   3.025 -0.5246  0.4372  0.2366
  909MOL0     O22604   5.686   6.551   2.987  0.0871  0.4678 -0.1068
  909MOL0     C22605   5.805   6.482   2.982 -0.4592  0.1833 -0.4684
  909MOL0     C22606   5.831   6.347   3.014  0.0574  0.4615  1.5042
  909MOL0     C22607   5.959   6.280   2.992  0.9219 -0.2974 -0.3660
  909MOL0     C22608   6.065   6.362   2.945  0.4699  0.6811  0.4657
  909MOL0     C22609   6.202   6.308   2.959 -0.2680  0.4020 -0.1797
  909MOL0     O22610   6.309   6.398   2.932  0.2327  0.1071 -0.4891
  909MOL0     C22611   6.434   6.378   2.977 -0.1319  0.5009  0.0238
  909MOL0     C22612   6.538   6.469   2.945  0.1016  0.4426 -0.4311
  909MOL0     C22613   6.676   6.454   2.982  0.8168 -0.8104 -0.8988
  909MOL0     C22614   6.707   6.345   3.058 -0.3225  0.1364 -0.1918
  909MOL0     O22615   6.842   6.327   3.080 -0.6266 -0.0320 -0.2937
  909MOL0     C22616   6.894   6.207   3.132  0.1050  0.5799  0.3017
  909MOL0     C22617   6.927   6.124   3.015 -0.7366  0.3580 -0.3052
  909MOL0     C22618   7.077   6.128   2.995  0.4318  0.2007  0.1161
  909MOL0     C22619   7.096   6.032   2.878 -0.4582 -1.0362 -0.5734
  909MOL0     C22620   7.244   6.019   2.843  0.3894  0.1879 -0.8032
  909MOL0     C22621   7.265   5.898   2.754 -0.0169 -0.0121  0.1173
  909MOL0     C22622   7.413   5.904   2.702  0.9424  0.2167 -0.1077
  909MOL0     C22623   7.476   5.773   2.677 -0.0627  0.2528 -0.3455
  909MOL0    Cl22624   7.364   5.651   2.592 -0.4542 -0.2407 -0.1801
  909MOL0     C22625   6.610   6.256   3.104  0.1010  0.0550  0.1998
  909MOL0     C22626   6.479   6.271   3.058 -0.0180 -0.3272  0.3559
  909MOL0     O22627   6.211   6.202   3.018 -0.2185 -0.0828 -0.5262
  909MOL0     C22628   6.049   6.494   2.923 -0.0013  0.0307  0.6825
  909MOL0     C22629   5.922   6.555   2.938 -0.1213  0.6665  0.2310
  909MOL0     N22630   5.406   6.897   2.994  0.4094  0.3433 -0.0784
  909MOL0     N22631   5.370   7.007   2.946 -0.4371 -0.6163  0.0961
  909MOL0     C22632   4.317   6.720   3.316 -0.8529  0.1968 -0.1583
  909MOL0     C22633   4.198   6.653   3.340  0.1157 -0.0918  0.3034
  909MOL0     C22634   3.831   6.554   3.589 -0.3290 -0.7905 -0.5539
  909MOL0     C22635   3.807   6.431   3.527 -0.2029 -0.6289 -0.1633
  909MOL0     C22636   3.696   6.351   3.555 -0.6621  0.4712 -0.3893
  909MOL0     C22637   3.601   6.385   3.652 -0.1014  0.3539  0.0013
  909MOL0     O22638   3.506   6.296   3.683  0.9217  0.6573  0.2223
  909MOL0     C22639   3.388   6.346   3.749  0.1618 -1.1398 -0.0118
  909MOL0     C22640   3.264   6.255   3.742 -0.2828  0.4465  0.5604
  909MOL0     C22641   3.257   6.155   3.863 -0.4193 -0.5048  1.0516
  909MOL0     C22642   3.117   6.112   3.895 -1.0035  0.5073 -0.7677
  909MOL0     C22643   3.062   6.038   3.785  0.2244  0.7495  1.3404
  909MOL0     C22644   3.009   5.961   3.703  0.4541 -0.1571 -0.4305
  909MOL0     C22645   3.614   6.516   3.704 -0.3070  0.2052  0.3580
  909MOL0     C22646   3.725   6.601   3.678 -0.4435  0.1040  0.4813
  909MOL0     C22647   3.739   6.724   3.762 -0.2628  0.1198  1.1857
  909MOL0     H22648   4.194   6.654   3.676 -2.3849 -0.3532 -1.0190
  909MOL0     H22649   4.431   6.766   3.616 -0.5586  1.5978 -0.8075
  909MOL0     H22650   4.635   6.766   3.264 -1.4240 -0.6852  1.2113
  909MOL0     H22651   4.524   6.899   3.229 -1.3961 -2.6031 -0.2624
  909MOL0     H22652   4.769   6.883   3.411  0.5860  1.2252  0.5011
  909MOL0     H22653   4.672   7.017   3.413  2.4893  1.2496 -0.6644
  909MOL0     H22654   4.732   7.088   3.190  1.7513  1.7681 -0.1423
  909MOL0     H22655   4.799   6.943   3.144 -1.9026 -0.3150  0.4158
  909MOL0     H22656   4.914   7.089   3.402  1.0321  2.1500 -0.6364
  909MOL0     H22657   4.999   6.981   3.297 -0.0266 -1.6690 -1.3873
  909MOL0     H22658   4.938   7.273   3.232  2.0188  1.1018 -1.3528
  909MOL0     H22659   5.090   7.194   3.252  1.5077  1.1810 -2.2754
  909MOL0     H22660   5.041   7.029   3.064 -1.2848 -0.3071 -2.0028
  909MOL0     H22661   4.912   7.148   3.020 -2.8945 -5.0629  3.1566
  909MOL0     H22662   5.067   7.324   2.973 -1.3350  0.0280 -0.2799
  909MOL0     H22663   5.096   7.191   2.875 -1.9642 -2.1802  0.8311
  909MOL0     H22664   5.306   7.258   2.944 -0.0437 -2.1414 -1.3592
  909MOL0     H22665   5.256   7.259   3.116  0.7566 -1.0045  0.5397
  909MOL0     H22666   5.257   7.035   3.254 -1.7394 -1.5986  0.6550
  909MOL0     H22667   5.388   6.804   3.310  4.0803  0.6423 -0.6184
  909MOL0     H22668   5.268   6.715   3.199  0.7330  0.3976 -1.5297
  909MOL0     H22669   5.570   6.740   3.151  0.4282 -0.3633 -0.8513
  909MOL0     H22670   5.506   6.600   3.245 -0.4825  1.2837  2.2330
  909MOL0     H22671   5.473   6.662   2.955 -0.6004  0.8336  0.9217
  909MOL0     H22672   5.363   6.544   3.033  1.7777 -2.7936  1.0231
  909MOL0     H22673   5.521   6.404   2.956 -3.1463  0.1127  1.9680
  909MOL0     H22674   5.574   6.432   3.124  0.9254  1.2598  0.4774
  909MOL0     H22675   5.752   6.283   3.054 -0.2011 -0.6981 -0.7204
  909MOL0     H22676   5.980   6.176   3.016  1.8319 -0.2223 -0.7891
  909MOL0     H22677   6.516   6.556   2.884  0.0919 -0.0838 -1.1979
  909MOL0     H22678   6.751   6.526   2.948 -0.7645  1.3073 -0.1339
  909MOL0     H22679   6.983   6.228   3.191  0.2074 -0.6765  0.6220
  909MOL0     H22680   6.834   6.152   3.205  2.7744  0.6188  2.6888
  909MOL0     H22681   6.892   6.022   3.033  2.0897 -1.0680 -2.1890
  909MOL0     H22682   6.887   6.173   2.925  0.8887  2.5288  0.0704
  909MOL0     H22683   7.114   6.227   2.967  1.6399  0.0877  1.2158
  909MOL0     H22684   7.138   6.102   3.082 -1.2445  1.8458  1.8565
  909MOL0     H22685   7.031   6.064   2.796  0.7893 -0.2311 -1.2823
  909MOL0     H22686   7.057   5.933   2.904  0.7971 -1.2006  0.8385
  909MOL0     H22687   7.296   5.998   2.937  2.5449  1.3490 -1.6427
  909MOL0     H22688   7.293   6.110   2.807  2.3954 -0.3355  0.4281
  909MOL0     H22689   7.246   5.818   2.827  2.2765 -0.1708  0.6156
  909MOL0     H22690   7.192   5.889   2.673 -0.5795 -1.2637  0.7288
  909MOL0     H22691   7.476   5.968   2.764 -1.0423  0.4300  1.7979
  909MOL0     H22692   7.409   5.955   2.605 -1.2209  1.8287  0.7497
  909MOL0     H22693   7.572   5.798   2.629 -0.5265  0.8868 -0.9547
  909MOL0     H22694   7.505   5.724   2.771 -0.6929  0.9904  0.2414
  909MOL0     H22695   6.635   6.170   3.166  0.5265  0.0383  0.0041
  909MOL0     H22696   6.419   6.182   3.078 -1.7291  0.6496 -0.2476
  909MOL0     H22697   6.127   6.560   2.885 -0.6062  1.2930  1.5568
  909MOL0     H22698   5.912   6.663   2.925  0.4833  0.6844 -0.1242
  909MOL0     H22699   4.341   6.737   3.212 -2.1358  2.1842 -0.1760
  909MOL0     H22700   4.117   6.627   3.272  0.0293 -1.0107  0.7408
  909MOL0     H22701   3.873   6.385   3.454  2.0886  0.7510  0.9129
  909MOL0     H22702   3.676   6.259   3.500 -1.4993 -1.1176  2.3247
  909MOL0     H22703   3.359   6.439   3.699  1.2555  0.9699  2.9808
  909MOL0     H22704   3.408   6.384   3.849  2.1076 -0.8750 -0.4477
  909MOL0     H22705   3.244   6.203   3.647  0.0462  0.4340  0.4971
  909MOL0     H22706   3.180   6.325   3.752  1.5215  2.9867 -0.9294
  909MOL0     H22707   3.296   6.213   3.947 -1.5179  2.9888 -0.6355
  909MOL0     H22708   3.329   6.074   3.846 -1.2716 -0.8040 -1.6670
  909MOL0     H22709   3.121   6.049   3.984 -0.9983  3.3200  1.3863
  909MOL0     H22710   3.056   6.197   3.928  1.1869  2.5538 -1.6130
  909MOL0     H22711   2.954   5.898   3.636 -0.0283  0.7837 -0.9343
  909MOL0     H22712   3.528   6.557   3.755 -1.8658  0.5182 -2.3435
  909MOL0     H22713   3.745   6.816   3.703  1.7846  0.3877  1.7307
  909MOL0     H22714   3.655   6.738   3.831 -1.8878 -0.6177 -0.5558
  909MOL0     H22715   3.832   6.720   3.819  0.4186 -0.0653  0.0967
  910MOL0     O22716   7.025   6.944   5.681  0.7227  0.1277 -0.5079
  910MOL0     C22717   7.129   6.972   5.754 -0.2939 -0.5874  0.3292
  910MOL0     O22718   7.136   7.061   5.858  0.1579  0.2157  0.3114
  910MOL0     C22719   7.007   7.111   5.889 -0.3232 -0.7188 -0.2107
  910MOL0     C22720   6.997   7.245   5.866  0.3179 -0.3701  0.9750
  910MOL0     C22721   6.899   7.317   5.930  1.0155  0.1383 -0.9667
  910MOL0     C22722   6.808   7.257   6.013  0.7041  0.0611  0.4820
  910MOL0     O22723   6.707   7.337   6.071 -0.5995 -0.2556 -0.1042
  910MOL0     C22724   6.602   7.274   6.153 -0.0353 -0.4459  0.5093
  910MOL0     C22725   6.523   7.385   6.227 -0.1786 -0.5054 -0.0104
  910MOL0     C22726   6.609   7.444   6.337  0.7987 -0.4895 -0.8326
  910MOL0     C22727   6.520   7.543   6.418  0.8771 -0.0564 -1.1152
  910MOL0     C22728   6.605   7.621   6.515 -1.1064 -0.0341  0.4137
  910MOL0     C22729   6.534   7.714   6.607 -0.0231  0.1454 -0.9395
  910MOL0     C22730   6.472   7.628   6.719 -0.3826 -0.4924 -0.3632
  910MOL0     C22731   6.392   7.712   6.815  0.1113  0.5865 -0.2982
  910MOL0     N22732   6.295   7.791   6.741  0.0125 -0.1814 -0.2903
  910MOL0     C22733   6.307   7.929   6.730 -0.3154 -0.4756  0.4024
  910MOL0     C22734   6.181   7.955   6.667 -0.1480  0.5123 -0.5418
  910MOL0     C22735   6.146   8.086   6.600  0.3084 -0.3313 -0.2294
  910MOL0     C22736   6.170   8.085   6.446 -0.2435  0.0748 -0.0978
  910MOL0     C22737   6.150   8.230   6.380 -0.4117 -0.2728 -0.9697
  910MOL0     C22738   6.015   8.304   6.372  0.4939  0.0690 -0.0798
  910MOL0     O22739   5.918   8.222   6.302 -0.1381 -0.1799  0.2230
  910MOL0     C22740   5.792   8.279   6.280  0.0327  0.2174 -0.1483
  910MOL0     C22741   5.718   8.207   6.188  0.6085  0.3091  1.0901
  910MOL0     C22742   5.582   8.237   6.168  0.3061  0.4283  0.0239
  910MOL0     C22743   5.515   8.347   6.221  0.6351  0.8344 -0.1977
  910MOL0     C22744   5.375   8.370   6.189 -0.7069  0.1811  0.3439
  910MOL0     O22745   5.316   8.301   6.083 -0.1416 -0.1214 -0.4526
  910MOL0     C22746   5.183   8.335   6.039 -0.1809  0.1408 -0.3771
  910MOL0     C22747   5.161   8.282   5.912 -0.2355  0.3283  0.2026
  910MOL0     C22748   5.053   8.326   5.831 -0.5958  0.0545  0.4719
  910MOL0     C22749   4.957   8.407   5.881  0.1864 -0.2589 -1.5221
  910MOL0     O22750   4.849   8.432   5.806  0.0890  0.1270  0.3662
  910MOL0     C22751   4.809   8.566   5.794  0.3522  0.1592  0.5069
  910MOL0     C22752   4.909   8.671   5.746  0.7659 -0.0938 -0.7056
  910MOL0     C22753   4.924   8.673   5.589 -0.3310  0.0125 -0.0156
  910MOL0     C22754   4.799   8.698   5.509 -0.4807 -0.1672 -0.2734
  910MOL0     C22755   4.819   8.716   5.359 -0.3210  0.7230 -0.4233
  910MOL0     C22756   4.688   8.759   5.291 -0.0811 -0.1466 -0.3257
  910MOL0     C22757   4.573   8.655   5.308  1.0231  0.5068 -0.7983
  910MOL0     C22758   4.454   8.708   5.382  0.0180 -0.1936  0.5102
  910MOL0    Cl22759   4.320   8.587   5.373 -0.2791 -0.2940  0.2660
  910MOL0     C22760   4.969   8.457   6.015 -0.6432  0.0381 -0.0771
  910MOL0     C22761   5.082   8.423   6.095  0.5197 -0.7753  0.6194
  910MOL0     O22762   5.319   8.457   6.256 -0.0972  0.8542 -0.5055
  910MOL0     C22763   5.593   8.420   6.308  0.0462  0.0387  0.2672
  910MOL0     C22764   5.729   8.389   6.333  0.0944  0.2903 -0.5161
  910MOL0     N22765   6.100   7.842   6.666 -0.2823 -0.1505  0.1145
  910MOL0     N22766   6.174   7.741   6.709  0.1033  0.1543  0.1617
  910MOL0     C22767   6.823   7.122   6.052  1.5749 -0.8623  0.6661
  910MOL0     C22768   6.923   7.049   5.990 -0.2837  0.0654  0.4779
  910MOL0     C22769   7.252   6.895   5.732 -0.1266  0.3976 -0.7375
  910MOL0     C22770   7.384   6.951   5.750  0.0254  0.8422 -0.4801
  910MOL0     C22771   7.490   6.868   5.727 -0.8207 -0.2368  0.3715
  910MOL0     C22772   7.477   6.730   5.703 -0.0003 -0.0200  0.1375
  910MOL0     O22773   7.584   6.646   5.674  0.6591 -0.3112 -0.2919
  910MOL0     C22774   7.717   6.712   5.662 -0.3133  0.3965 -0.4769
  910MOL0     C22775   7.828   6.607   5.619 -0.3324 -0.0852  0.2341
  910MOL0     C22776   7.967   6.664   5.645 -0.7038 -0.4553 -0.2011
  910MOL0     C22777   8.076   6.561   5.629  0.1550 -0.1452  0.0294
  910MOL0     C22778   8.210   6.615   5.593 -0.8301 -0.5381 -0.5912
  910MOL0     C22779   8.317   6.667   5.548  1.3851 -0.2807 -0.3389
  910MOL0     C22780   7.355   6.677   5.694 -0.5954  0.1428  0.0902
  910MOL0     C22781   7.248   6.756   5.703  0.4812 -0.1349  0.0204
  910MOL0     C22782   7.120   6.682   5.680 -0.1374  0.6390  0.3353
  910MOL0     H22783   7.056   7.297   5.792  0.0913 -0.9211  0.4035
  910MOL0     H22784   6.885   7.421   5.901  1.5187 -0.4337 -3.4933
  910MOL0     H22785   6.529   7.222   6.089  0.7029 -0.8519 -0.0134
  910MOL0     H22786   6.646   7.208   6.227  1.7414  1.0373  0.8471
  910MOL0     H22787   6.433   7.346   6.275 -2.4538  1.5167 -2.3343
  910MOL0     H22788   6.498   7.465   6.156  0.8921 -1.3008 -1.3181
  910MOL0     H22789   6.695   7.497   6.294  0.3885  0.8674 -0.0363
  910MOL0     H22790   6.660   7.369   6.397  0.9908  0.0101 -0.3639
  910MOL0     H22791   6.452   7.611   6.367  0.4925  0.7251  0.3604
  910MOL0     H22792   6.445   7.482   6.470 -0.0133  1.6909 -0.2653
  910MOL0     H22793   6.666   7.549   6.571 -1.1576  0.6102  1.3184
  910MOL0     H22794   6.676   7.670   6.447 -0.1073 -1.2129  0.5590
  910MOL0     H22795   6.596   7.790   6.653  0.6739 -0.8370 -0.2078
  910MOL0     H22796   6.463   7.765   6.540 -2.1247  2.4579  2.7206
  910MOL0     H22797   6.544   7.561   6.766 -1.0166 -1.4570 -0.7415
  910MOL0     H22798   6.406   7.552   6.676 -0.8036 -0.9264  1.0098
  910MOL0     H22799   6.346   7.644   6.887 -2.0365  1.7978 -0.4564
  910MOL0     H22800   6.463   7.779   6.866 -0.8656  2.4540 -1.2989
  910MOL0     H22801   6.385   8.004   6.725 -0.7251 -0.1205 -1.3467
  910MOL0     H22802   6.039   8.103   6.616  0.3677  0.1448 -0.3173
  910MOL0     H22803   6.197   8.167   6.653  1.5781 -0.5750 -1.0340
  910MOL0     H22804   6.273   8.056   6.428  0.1581  1.1570  0.3683
  910MOL0     H22805   6.106   8.011   6.396 -0.4627 -0.3135  0.7319
  910MOL0     H22806   6.173   8.215   6.274  1.0950 -0.2614 -0.6736
  910MOL0     H22807   6.231   8.288   6.424  2.4601 -2.2902 -3.1470
  910MOL0     H22808   6.018   8.406   6.333 -0.8044 -0.2672 -1.1179
  910MOL0     H22809   5.978   8.324   6.473  0.8250  3.5606 -0.5121
  910MOL0     H22810   5.766   8.120   6.145 -0.0617  0.2726  0.3830
  910MOL0     H22811   5.531   8.170   6.100  0.7111  0.8175 -0.6660
  910MOL0     H22812   5.238   8.216   5.873 -0.9814  0.6185 -1.8352
  910MOL0     H22813   5.038   8.298   5.728 -1.4736 -0.1114  0.6339
  910MOL0     H22814   4.733   8.571   5.715  2.6147  1.2900 -1.7577
  910MOL0     H22815   4.765   8.597   5.890 -1.0297  2.0357 -0.6501
  910MOL0     H22816   4.880   8.767   5.790  0.8935 -1.3800  2.4334
  910MOL0     H22817   5.002   8.633   5.789 -0.3575 -0.0736  1.9364
  910MOL0     H22818   4.993   8.757   5.574 -3.1049  2.7351  1.1636
  910MOL0     H22819   4.973   8.579   5.565 -1.4876 -1.0089  1.4767
  910MOL0     H22820   4.745   8.789   5.535 -0.6651  0.1720 -1.7481
  910MOL0     H22821   4.739   8.609   5.526  1.4322 -1.6726 -0.9654
  910MOL0     H22822   4.853   8.627   5.306  0.0022  1.4612 -1.4975
  910MOL0     H22823   4.887   8.801   5.350 -2.1630  2.1287 -1.8565
  910MOL0     H22824   4.654   8.854   5.333  3.3217  1.9250 -1.7742
  910MOL0     H22825   4.702   8.784   5.186 -1.9159  2.2081 -0.0965
  910MOL0     H22826   4.600   8.565   5.365 -2.0759  1.2286  2.0904
  910MOL0     H22827   4.527   8.623   5.214 -4.4228 -0.1528  1.7298
  910MOL0     H22828   4.486   8.739   5.481 -2.9309  0.2775  1.4022
  910MOL0     H22829   4.416   8.797   5.331 -1.0921 -0.9925 -0.1164
  910MOL0     H22830   4.895   8.525   6.057 -1.7751 -2.6974  2.7224
  910MOL0     H22831   5.088   8.474   6.191 -1.3097 -0.2004  0.4639
  910MOL0     H22832   5.548   8.506   6.358  1.0808 -1.1562  3.4996
  910MOL0     H22833   5.791   8.439   6.406 -0.7769  0.8006 -0.1176
  910MOL0     H22834   6.762   7.070   6.125 -1.2565  2.2001  0.7051
  910MOL0     H22835   6.959   6.957   6.035  0.2738  0.6883  1.3410
  910MOL0     H22836   7.400   7.055   5.775  2.7906  0.1401  1.1806
  910MOL0     H22837   7.590   6.910   5.724 -0.3046 -1.4510 -0.0278
  910MOL0     H22838   7.757   6.740   5.760  0.4798 -2.3794  0.0724
  910MOL0     H22839   7.712   6.795   5.591 -2.2928  0.8298  0.0982
  910MOL0     H22840   7.824   6.586   5.511  3.1088 -3.0316  0.5027
  910MOL0     H22841   7.811   6.506   5.658  0.3292 -0.2521  0.0919
  910MOL0     H22842   7.969   6.695   5.750 -1.3071  1.1167 -0.6195
  910MOL0     H22843   7.984   6.750   5.579  3.4093 -1.1513 -0.2811
  910MOL0     H22844   8.095   6.509   5.724 -0.7941  2.6688  1.9008
  910MOL0     H22845   8.058   6.495   5.544 -0.3212  1.0706 -0.8420
  910MOL0     H22846   8.407   6.724   5.535 -0.3735  3.2281  1.4866
  910MOL0     H22847   7.346   6.570   5.677  0.9485  0.0390 -0.1406
  910MOL0     H22848   7.049   6.701   5.760 -1.4316 -2.8260  0.1664
  910MOL0     H22849   7.078   6.706   5.582  2.9976  1.9886 -0.8389
  910MOL0     H22850   7.120   6.574   5.665  1.7071  0.7640 -1.0550
  911MOL0     O22851   1.330   2.795   5.383  0.2638 -0.0112  0.0045
  911MOL0     C22852   1.276   2.774   5.491  0.1704  0.2252  0.7515
  911MOL0     O22853   1.294   2.664   5.566  0.1489 -0.4116 -0.0928
  911MOL0     C22854   1.374   2.555   5.536 -0.2639 -0.2036  0.5405
  911MOL0     C22855   1.303   2.434   5.518 -0.0973  0.1459 -0.7717
  911MOL0     C22856   1.382   2.321   5.487 -0.4504  0.5576 -0.9942
  911MOL0     C22857   1.525   2.334   5.474  0.1321  0.2759 -0.0545
  911MOL0     O22858   1.611   2.224   5.449  0.0300 -0.6544  0.6482
  911MOL0     C22859   1.553   2.098   5.487 -0.1320  1.0100 -0.1681
  911MOL0     C22860   1.668   1.992   5.486  1.0972 -0.3982 -0.1340
  911MOL0     C22861   1.762   1.992   5.600  0.9810  0.1196  0.4652
  911MOL0     C22862   1.873   1.914   5.546 -0.6228 -0.2501 -0.5928
  911MOL0     C22863   1.982   1.893   5.640  0.1737 -0.1209 -0.0580
  911MOL0     C22864   2.098   1.806   5.588 -0.4912  0.2482  0.0438
  911MOL0     C22865   2.228   1.805   5.664  0.0371 -0.2114  0.3284
  911MOL0     C22866   2.336   1.727   5.583  0.3623 -0.0954 -0.2034
  911MOL0     N22867   2.447   1.720   5.671  0.6028 -0.0940 -0.0875
  911MOL0     C22868   2.577   1.750   5.635 -0.0351  0.0697 -0.1758
  911MOL0     C22869   2.652   1.715   5.745 -0.2299 -0.0272  0.9623
  911MOL0     C22870   2.800   1.751   5.760  0.6219  0.2694  0.5796
  911MOL0     C22871   2.893   1.644   5.707 -0.3267  0.0800 -0.7641
  911MOL0     C22872   3.045   1.685   5.709 -0.4225  0.6425 -0.9688
  911MOL0     C22873   3.088   1.809   5.792  0.3510  0.3848 -0.1808
  911MOL0     O22874   3.067   1.776   5.927 -0.1500 -0.2982  0.1639
  911MOL0     C22875   3.148   1.846   6.015 -0.5892  0.2612 -0.2789
  911MOL0     C22876   3.243   1.943   5.997 -0.0553 -0.7249 -0.9784
  911MOL0     C22877   3.331   1.988   6.101 -0.0405 -0.1535  0.6205
  911MOL0     C22878   3.305   1.950   6.226 -0.4395  0.3412 -0.2483
  911MOL0     C22879   3.391   1.987   6.340 -0.0739  0.1005 -0.2065
  911MOL0     O22880   3.387   1.917   6.459 -0.8103  0.2438 -0.2301
  911MOL0     C22881   3.437   1.983   6.570  0.2451  0.5241  1.0553
  911MOL0     C22882   3.535   1.921   6.652 -0.0203 -0.5466  0.1683
  911MOL0     C22883   3.587   1.978   6.762  0.6432  0.9835 -1.1482
  911MOL0     C22884   3.544   2.102   6.800 -0.5380 -0.0285  0.6103
  911MOL0     O22885   3.602   2.148   6.912  0.4541 -0.1496  0.3948
  911MOL0     C22886   3.542   2.110   7.037 -0.0451 -0.2851 -0.0750
  911MOL0     C22887   3.597   2.178   7.162 -0.0364  0.1714 -0.1722
  911MOL0     C22888   3.596   2.326   7.151  0.4361 -0.8345 -0.1307
  911MOL0     C22889   3.443   2.377   7.185 -0.7061  0.6914 -0.2439
  911MOL0     C22890   3.448   2.531   7.183  0.1329  1.1091 -0.3441
  911MOL0     C22891   3.302   2.577   7.192 -0.4512 -0.2407  0.0468
  911MOL0     C22892   3.277   2.673   7.303  0.1868 -0.0025 -0.6211
  911MOL0     C22893   3.326   2.813   7.270  0.2612  1.0265  0.9585
  911MOL0    Cl22894   3.504   2.843   7.269  0.0236 -0.0006 -0.4857
  911MOL0     C22895   3.447   2.169   6.731  1.2863  0.4752  0.1768
  911MOL0     C22896   3.385   2.099   6.621  0.1816 -0.5002 -0.3849
  911MOL0     O22897   3.482   2.061   6.311 -0.0244 -0.1995  0.6253
  911MOL0     C22898   3.201   1.855   6.253  1.2002 -0.3969 -0.4367
  911MOL0     C22899   3.128   1.794   6.147 -0.2373  0.1135  0.2104
  911MOL0     N22900   2.564   1.659   5.843  1.1135 -0.0329 -0.2640
  911MOL0     N22901   2.448   1.651   5.791  0.1252 -0.3343 -0.5122
  911MOL0     C22902   1.579   2.450   5.515 -1.2284 -0.0331  0.1403
  911MOL0     C22903   1.510   2.567   5.537 -0.0363 -0.0300 -0.4604
  911MOL0     C22904   1.186   2.880   5.542 -0.9677  0.0110 -0.1030
  911MOL0     C22905   1.214   3.013   5.509  0.3317 -0.4100  0.1211
  911MOL0     C22906   1.116   3.108   5.543  0.4881 -0.2225  0.1249
  911MOL0     C22907   1.002   3.088   5.609  0.6542  0.0284 -0.2292
  911MOL0     O22908   0.914   3.196   5.620  0.8192 -0.0894  0.0335
  911MOL0     C22909   0.826   3.194   5.732  0.5437  0.5568  0.2273
  911MOL0     C22910   0.798   3.338   5.779  0.8364 -0.6202 -0.0130
  911MOL0     C22911   0.657   3.382   5.748  0.4992  0.2517  0.9967
  911MOL0     C22912   0.612   3.527   5.778 -0.1385 -0.3360  0.5264
  911MOL0     C22913   0.678   3.625   5.694 -1.5610 -1.2248  0.4025
  911MOL0     C22914   0.740   3.701   5.623 -0.3596  0.4817 -0.5095
  911MOL0     C22915   0.986   2.961   5.653  0.4437 -0.0546 -0.1201
  911MOL0     C22916   1.069   2.855   5.623 -0.3005 -0.5395  0.4966
  911MOL0     C22917   1.033   2.721   5.684 -0.5429  0.8051  0.4390
  911MOL0     H22918   1.194   2.437   5.520 -0.2170 -2.2547  2.1784
  911MOL0     H22919   1.332   2.225   5.475 -1.4564  0.4783  2.4959
  911MOL0     H22920   1.508   2.091   5.587  0.5519 -0.9864  0.0310
  911MOL0     H22921   1.477   2.063   5.417  1.3840 -0.6551 -1.0470
  911MOL0     H22922   1.719   2.003   5.390  2.0128  4.0759  0.6329
  911MOL0     H22923   1.613   1.897   5.484  0.9244 -0.2901 -0.9561
  911MOL0     H22924   1.711   1.954   5.689  0.3557  2.8260  1.3436
  911MOL0     H22925   1.787   2.096   5.622  0.5779 -0.1266  2.2984
  911MOL0     H22926   1.848   1.816   5.504 -2.3284 -0.6526  1.2160
  911MOL0     H22927   1.914   1.981   5.470 -1.5902  2.0148  0.7666
  911MOL0     H22928   2.013   1.997   5.654 -0.0841 -0.1200  0.5635
  911MOL0     H22929   1.962   1.864   5.744  2.4395  0.7811  0.7103
  911MOL0     H22930   2.059   1.705   5.575 -0.2364  0.0699  0.5856
  911MOL0     H22931   2.123   1.844   5.489 -0.6572  0.0911 -0.0561
  911MOL0     H22932   2.211   1.771   5.767 -0.1211  0.8958  0.6909
  911MOL0     H22933   2.259   1.910   5.669 -3.3477  0.9195  0.3170
  911MOL0     H22934   2.301   1.627   5.555  1.0280 -0.8415  1.4747
  911MOL0     H22935   2.354   1.775   5.487  1.5782 -1.8728 -0.9042
  911MOL0     H22936   2.605   1.804   5.546  2.2162  3.5346  2.3512
  911MOL0     H22937   2.810   1.847   5.710  0.2542  0.1518  0.2759
  911MOL0     H22938   2.826   1.772   5.864  0.0889  3.5837  0.1408
  911MOL0     H22939   2.878   1.553   5.766 -1.7168  1.0403  0.4463
  911MOL0     H22940   2.864   1.614   5.606 -2.4954 -0.7165  0.0274
  911MOL0     H22941   3.074   1.708   5.606 -0.1335  3.5124 -0.3139
  911MOL0     H22942   3.111   1.602   5.736 -1.4007  0.3882  0.7747
  911MOL0     H22943   3.048   1.906   5.762  0.6405  0.4917 -0.2330
  911MOL0     H22944   3.194   1.833   5.778  1.1747 -1.2797  2.3521
  911MOL0     H22945   3.256   1.984   5.897 -1.2939  0.7172 -0.5934
  911MOL0     H22946   3.413   2.053   6.072  2.3393 -3.2123 -0.1197
  911MOL0     H22947   3.565   1.824   6.614  0.4764 -0.8692  1.3433
  911MOL0     H22948   3.655   1.920   6.823 -1.7317  0.1976  0.8966
  911MOL0     H22949   3.435   2.129   7.032 -0.2716 -1.3829  0.2640
  911MOL0     H22950   3.548   2.001   7.047 -2.7801 -0.3377  2.1584
  911MOL0     H22951   3.545   2.139   7.250 -0.0120  0.5501  0.0107
  911MOL0     H22952   3.701   2.144   7.174  0.1293  1.1392  1.4327
  911MOL0     H22953   3.660   2.362   7.232  0.4707 -0.8484 -0.1521
  911MOL0     H22954   3.627   2.358   7.051 -2.0549  0.1098 -0.6666
  911MOL0     H22955   3.423   2.339   7.285  0.9065  1.3649  0.3725
  911MOL0     H22956   3.368   2.327   7.123  0.0474 -1.1123  0.2299
  911MOL0     H22957   3.484   2.564   7.085 -0.9620 -0.8633 -1.4699
  911MOL0     H22958   3.512   2.559   7.267  1.9259  1.3809 -1.7206
  911MOL0     H22959   3.269   2.621   7.097  0.4289  1.0990  0.3304
  911MOL0     H22960   3.233   2.495   7.213  0.2435 -0.7297  0.4590
  911MOL0     H22961   3.341   2.647   7.388  1.2548  1.0499 -1.0758
  911MOL0     H22962   3.173   2.669   7.334  1.5420 -0.4812  5.0467
  911MOL0     H22963   3.278   2.836   7.174  1.1860 -1.3103 -0.1480
  911MOL0     H22964   3.278   2.877   7.344 -0.5976  0.0513  1.2680
  911MOL0     H22965   3.410   2.265   6.764  0.7290  0.7044 -1.0563
  911MOL0     H22966   3.298   2.133   6.566  1.3604  0.7482 -1.5820
  911MOL0     H22967   3.183   1.818   6.353  3.5635 -0.2964  0.0707
  911MOL0     H22968   3.049   1.722   6.164 -1.3127  0.5624 -2.4844
  911MOL0     H22969   1.687   2.445   5.526 -1.1093  2.7834  1.3201
  911MOL0     H22970   1.547   2.668   5.540 -1.2197  0.3998  1.0485
  911MOL0     H22971   1.299   3.048   5.451 -0.2444  0.5721 -0.1675
  911MOL0     H22972   1.124   3.210   5.505 -1.0278  0.2506  1.0067
  911MOL0     H22973   0.874   3.147   5.818 -0.2911 -0.0188  0.3924
  911MOL0     H22974   0.741   3.128   5.715  1.8703 -1.2031  0.1346
  911MOL0     H22975   0.874   3.406   5.739 -0.3555  0.6554 -0.2070
  911MOL0     H22976   0.814   3.337   5.887 -0.1260 -1.3156  0.1380
  911MOL0     H22977   0.578   3.314   5.781  0.3651  0.5311  1.2494
  911MOL0     H22978   0.665   3.367   5.640 -1.3266  2.6695  0.4232
  911MOL0     H22979   0.508   3.532   5.746  1.0800 -0.1741 -4.0641
  911MOL0     H22980   0.625   3.548   5.885 -0.1053 -0.2032  0.4963
  911MOL0     H22981   0.799   3.776   5.575 -0.7908  1.5629  0.6084
  911MOL0     H22982   0.911   2.943   5.730  2.1980 -0.0443  1.6891
  911MOL0     H22983   1.073   2.640   5.623  1.8068  1.6852  0.7033
  911MOL0     H22984   1.069   2.714   5.787  2.6277 -3.1746 -0.7026
  911MOL0     H22985   0.924   2.716   5.684 -0.5684  0.1647  2.5869
  912MOL0     O22986   4.820   3.952   0.843  0.4209  0.4522 -0.7501
  912MOL0     C22987   4.858   4.003   0.735 -0.2505  0.1163 -0.0822
  912MOL0     O22988   4.776   4.012   0.628  0.4037  0.8000 -0.4379
  912MOL0     C22989   4.649   3.970   0.627 -0.5907 -0.4820  0.3480
  912MOL0     C22990   4.590   3.894   0.523 -0.3495  0.4322 -0.0662
  912MOL0     C22991   4.456   3.850   0.534  0.1418 -0.6201  0.1630
  912MOL0     C22992   4.369   3.896   0.635  0.6461  0.2709 -0.4383
  912MOL0     O22993   4.229   3.867   0.638  0.1243 -0.2770 -0.0993
  912MOL0     C22994   4.190   3.738   0.584 -0.6627 -0.5355  1.2607
  912MOL0     C22995   4.051   3.684   0.638  0.5824  0.7183 -0.7196
  912MOL0     C22996   4.017   3.543   0.586  0.5247 -0.5830  0.0977
  912MOL0     C22997   4.099   3.433   0.648  0.3413 -0.5057 -0.0465
  912MOL0     C22998   4.109   3.306   0.573  0.7097 -0.2187 -0.6419
  912MOL0     C22999   4.178   3.193   0.650 -0.6350  0.7544 -0.4683
  912MOL0     C23000   4.223   3.071   0.561  0.1844  0.6207 -0.4923
  912MOL0     C23001   4.122   2.958   0.588  0.7091  0.5017 -0.1037
  912MOL0     N23002   3.985   2.984   0.553  0.5165 -0.0518 -0.2633
  912MOL0     C23003   3.882   2.983   0.639  0.4709  0.4008 -0.9303
  912MOL0     C23004   3.777   3.005   0.551 -0.0172 -0.0846  0.5889
  912MOL0     C23005   3.635   3.026   0.586  0.5648  0.1328  0.1606
  912MOL0     C23006   3.561   2.893   0.611  0.0897 -0.5960  0.1539
  912MOL0     C23007   3.554   2.792   0.491  0.8553  0.8103  0.3671
  912MOL0     C23008   3.515   2.857   0.366 -0.1460  0.4785  0.0112
  912MOL0     O23009   3.398   2.939   0.385  0.0768  0.2227 -0.1430
  912MOL0     C23010   3.277   2.888   0.412 -0.2005 -0.6166 -0.4107
  912MOL0     C23011   3.178   2.988   0.425  0.5396 -1.1328 -0.1992
  912MOL0     C23012   3.051   2.956   0.459 -0.4448 -0.2810  0.6217
  912MOL0     C23013   3.011   2.832   0.463 -0.5804 -0.6159 -0.3752
  912MOL0     C23014   2.869   2.799   0.498 -1.1500 -0.6131 -0.2095
  912MOL0     O23015   2.841   2.664   0.529 -0.0485  0.2055 -0.1288
  912MOL0     C23016   2.712   2.636   0.538  1.1712  0.1663 -1.0789
  912MOL0     C23017   2.665   2.594   0.670  0.7325  0.0580  0.1508
  912MOL0     C23018   2.530   2.539   0.681 -0.0762  0.0819  0.1207
  912MOL0     C23019   2.451   2.516   0.570  0.4069 -0.3265 -0.0062
  912MOL0     O23020   2.326   2.463   0.596  0.2947  0.3652 -0.0864
  912MOL0     C23021   2.215   2.497   0.512 -0.0105 -0.0004  1.3897
  912MOL0     C23022   2.108   2.570   0.589 -0.5037 -0.6873 -0.4040
  912MOL0     C23023   1.983   2.615   0.507 -0.7907 -0.3037  0.1267
  912MOL0     C23024   1.888   2.706   0.589 -0.2991  0.1749  0.4942
  912MOL0     C23025   1.917   2.853   0.575 -0.4096  0.0409 -0.7869
  912MOL0     C23026   2.027   2.920   0.659  0.1193  0.9258 -0.2829
  912MOL0     C23027   2.037   3.072   0.659 -0.2673  0.1964 -0.4802
  912MOL0     C23028   2.148   3.117   0.755 -0.1395  0.4793 -0.4519
  912MOL0    Cl23029   2.127   3.291   0.781 -0.1765 -0.3761 -0.5342
  912MOL0     C23030   2.500   2.542   0.442 -0.0676  0.9301  0.0834
  912MOL0     C23031   2.622   2.605   0.431 -0.2550  0.1194  0.0797
  912MOL0     O23032   2.787   2.893   0.512  0.0332 -0.2905  0.7046
  912MOL0     C23033   3.104   2.727   0.451 -0.1997  0.1601 -0.7913
  912MOL0     C23034   3.239   2.755   0.421  0.2258  0.0659  0.4154
  912MOL0     N23035   3.826   3.025   0.424 -0.2212  0.0780 -0.5211
  912MOL0     N23036   3.957   3.018   0.432 -0.0356  0.4319 -0.4807
  912MOL0     C23037   4.429   3.966   0.741 -0.3100  1.1080  0.0429
  912MOL0     C23038   4.562   4.003   0.732 -0.0920 -0.9079 -0.1881
  912MOL0     C23039   5.005   4.015   0.717  0.3870 -0.8808  0.5149
  912MOL0     C23040   5.086   4.021   0.829  1.2032  0.0104  0.6095
  912MOL0     C23041   5.220   4.012   0.821  0.7599 -0.9019  0.2813
  912MOL0     C23042   5.288   4.004   0.700  1.2447  0.0988 -0.4213
  912MOL0     O23043   5.425   3.993   0.713  0.9848  0.6475 -0.3763
  912MOL0     C23044   5.506   3.975   0.597 -0.3106 -0.7554 -0.2529
  912MOL0     C23045   5.494   3.841   0.531 -0.8555  0.2647 -0.0923
  912MOL0     C23046   5.552   3.846   0.387 -0.1997 -0.2734 -0.2663
  912MOL0     C23047   5.567   3.712   0.326  0.5403 -1.5555  0.2301
  912MOL0     C23048   5.439   3.670   0.266 -0.4892 -0.5937 -0.2406
  912MOL0     C23049   5.350   3.627   0.201 -1.2476  0.2256 -0.1389
  912MOL0     C23050   5.213   4.018   0.582  0.5888  0.1736 -0.3539
  912MOL0     C23051   5.071   4.012   0.594  0.0827 -0.8212 -0.6452
  912MOL0     C23052   4.995   4.011   0.451 -0.8615 -0.4209  0.5522
  912MOL0     H23053   4.643   3.866   0.433  0.7498 -1.3327  1.0822
  912MOL0     H23054   4.415   3.801   0.446  0.7559  1.1086 -1.1218
  912MOL0     H23055   4.188   3.734   0.475  0.9003  0.1102  1.1751
  912MOL0     H23056   4.274   3.673   0.611 -2.4427 -2.5230  2.4032
  912MOL0     H23057   3.968   3.750   0.614 -0.6132 -1.4630 -3.0380
  912MOL0     H23058   4.053   3.693   0.747 -1.2909 -1.7009 -0.3867
  912MOL0     H23059   4.027   3.540   0.477  2.1643 -2.5264  0.2528
  912MOL0     H23060   3.915   3.513   0.614 -0.1061 -1.6095 -2.8772
  912MOL0     H23061   4.201   3.472   0.657 -0.2407  1.5723 -1.6438
  912MOL0     H23062   4.059   3.412   0.748  1.6887 -1.4125  0.3359
  912MOL0     H23063   4.008   3.284   0.538 -0.7817  3.5104  0.8429
  912MOL0     H23064   4.170   3.326   0.484  0.5807 -0.7366 -0.8543
  912MOL0     H23065   4.275   3.230   0.684  0.4144 -1.6401 -0.5903
  912MOL0     H23066   4.111   3.161   0.731  0.0057 -0.7224 -0.4959
  912MOL0     H23067   4.321   3.030   0.586 -1.9206 -2.5806  3.6801
  912MOL0     H23068   4.212   3.099   0.455 -0.8027  0.7770 -0.3616
  912MOL0     H23069   4.166   2.874   0.534  0.5936  1.1702 -1.2612
  912MOL0     H23070   4.116   2.935   0.695 -1.0505  1.1835 -0.0309
  912MOL0     H23071   3.904   2.958   0.742  2.2744 -0.9498 -1.5813
  912MOL0     H23072   3.631   3.094   0.672 -2.2994  1.2778 -0.7811
  912MOL0     H23073   3.597   3.093   0.508  0.6783  0.8527  0.7089
  912MOL0     H23074   3.615   2.840   0.690  1.8590  0.6874 -0.1531
  912MOL0     H23075   3.457   2.908   0.644  0.3064 -2.3363  1.8429
  912MOL0     H23076   3.488   2.711   0.522 -0.2257  1.3011 -0.5863
  912MOL0     H23077   3.650   2.743   0.472  1.9447  2.9111  0.1528
  912MOL0     H23078   3.513   2.789   0.280 -1.2996  2.2607 -1.4535
  912MOL0     H23079   3.594   2.931   0.351 -2.2643  3.0663  0.8143
  912MOL0     H23080   3.205   3.091   0.405  0.6921 -1.1183  0.0733
  912MOL0     H23081   2.985   3.042   0.469 -1.5746 -0.6495 -2.4444
  912MOL0     H23082   2.725   2.605   0.760 -0.3805 -2.6203  1.3228
  912MOL0     H23083   2.497   2.502   0.778 -0.5391 -2.2172 -0.8464
  912MOL0     H23084   2.236   2.562   0.427  1.6977  1.1923  2.6467
  912MOL0     H23085   2.165   2.411   0.469 -0.0735  0.0076  1.4470
  912MOL0     H23086   2.080   2.489   0.657 -0.5727  0.8978  1.5526
  912MOL0     H23087   2.141   2.651   0.655 -1.1215 -1.1288  0.4620
  912MOL0     H23088   2.024   2.665   0.418  1.4777  1.2583  1.9219
  912MOL0     H23089   1.930   2.528   0.467  0.7366 -1.4869  0.5721
  912MOL0     H23090   1.883   2.679   0.695 -0.7867  1.7921  0.9085
  912MOL0     H23091   1.787   2.689   0.550 -0.7500  4.0931 -0.5072
  912MOL0     H23092   1.819   2.900   0.590 -0.7118 -0.4396 -1.2192
  912MOL0     H23093   1.953   2.881   0.475  3.5890 -2.1989 -0.1631
  912MOL0     H23094   2.016   2.883   0.762 -2.4199  0.7174 -0.5752
  912MOL0     H23095   2.121   2.871   0.633 -0.6107 -2.0333  2.1121
  912MOL0     H23096   1.944   3.110   0.703 -0.5020  1.7646 -2.2347
  912MOL0     H23097   2.040   3.098   0.553  0.1891 -1.8406 -1.0100
  912MOL0     H23098   2.153   3.055   0.845  2.2088 -0.2765 -1.0381
  912MOL0     H23099   2.247   3.100   0.710  0.4186  0.5110  0.7311
  912MOL0     H23100   2.441   2.538   0.352  2.7398  1.9830 -1.9497
  912MOL0     H23101   2.655   2.633   0.332  0.7207  2.5131  0.9915
  912MOL0     H23102   3.093   2.621   0.473 -1.3106  0.3559 -0.3273
  912MOL0     H23103   3.308   2.672   0.409 -1.3704 -1.3933  0.8989
  912MOL0     H23104   4.368   4.000   0.823 -1.6230 -2.3375  0.6475
  912MOL0     H23105   4.608   4.065   0.809  1.8218 -3.4114  0.8382
  912MOL0     H23106   5.047   4.032   0.930  3.2865 -3.0965  1.9308
  912MOL0     H23107   5.279   4.023   0.911 -0.7320 -1.7375  1.3862
  912MOL0     H23108   5.611   3.983   0.628  0.3223 -1.0898 -2.1648
  912MOL0     H23109   5.478   4.045   0.519  0.1883 -0.7446 -0.4200
  912MOL0     H23110   5.393   3.800   0.531 -1.8989  2.6380  0.0593
  912MOL0     H23111   5.561   3.783   0.594 -0.3842 -0.1129 -0.9174
  912MOL0     H23112   5.654   3.883   0.404  0.0722  0.2119 -2.6037
  912MOL0     H23113   5.500   3.916   0.321 -1.2928  0.5615  1.4276
  912MOL0     H23114   5.640   3.728   0.245 -3.1346  1.4463 -2.8579
  912MOL0     H23115   5.608   3.639   0.396 -0.6922 -0.3432  2.3082
  912MOL0     H23116   5.286   3.571   0.137 -1.1153 -1.4823  1.1490
  912MOL0     H23117   5.236   4.006   0.477  2.9095 -2.0404  0.3021
  912MOL0     H23118   4.936   4.103   0.448  0.9600  0.7523 -0.9783
  912MOL0     H23119   5.061   4.013   0.364 -0.4349  3.3285  0.8068
  912MOL0     H23120   4.944   3.915   0.437  0.1516 -0.7297 -1.2988
  913MOL0     O23121   5.108   4.348   3.388  0.3290  0.5953  0.1803
  913MOL0     C23122   5.101   4.262   3.479  1.3758  0.2777  1.4836
  913MOL0     O23123   4.978   4.221   3.532  0.2617 -0.0754 -0.8054
  913MOL0     C23124   4.865   4.261   3.481  0.3983  0.1806 -0.3148
  913MOL0     C23125   4.806   4.382   3.514  0.1601 -0.9993  0.5432
  913MOL0     C23126   4.680   4.415   3.457 -0.4473  0.2088  0.8653
  913MOL0     C23127   4.607   4.325   3.386  0.5538 -0.1430 -0.3008
  913MOL0     O23128   4.494   4.357   3.321 -0.4011 -0.2553  0.3054
  913MOL0     C23129   4.504   4.491   3.258 -0.0257  0.0441 -0.2374
  913MOL0     C23130   4.393   4.499   3.144  0.1627 -0.0069 -0.5312
  913MOL0     C23131   4.439   4.434   3.010  0.9693 -0.2635 -0.1124
  913MOL0     C23132   4.467   4.557   2.926  0.5403  0.3733 -0.0936
  913MOL0     C23133   4.523   4.528   2.791  0.1632 -0.8494  0.3944
  913MOL0     C23134   4.413   4.513   2.673 -0.1544  0.4005 -0.3962
  913MOL0     C23135   4.349   4.654   2.644  0.2988  0.8239  0.5005
  913MOL0     C23136   4.246   4.644   2.526 -0.3716 -0.5097  0.5663
  913MOL0     N23137   4.191   4.783   2.507 -0.0546  0.2328 -0.5272
  913MOL0     C23138   4.059   4.811   2.543 -0.0795  0.0186 -0.6518
  913MOL0     C23139   4.029   4.918   2.476 -0.4889 -0.3439 -0.9666
  913MOL0     C23140   3.904   4.999   2.480  0.5526  0.4321  0.4132
  913MOL0     C23141   3.825   4.985   2.348  0.5158  0.1301 -0.1374
  913MOL0     C23142   3.678   5.032   2.348  0.4694 -0.1491 -0.4358
  913MOL0     C23143   3.622   5.023   2.204  0.4367 -1.6691  0.5187
  913MOL0     O23144   3.482   5.059   2.202  0.1853  0.5352 -0.0490
  913MOL0     C23145   3.408   5.049   2.082 -0.5676 -0.0557  0.6266
  913MOL0     C23146   3.462   5.061   1.955  0.1758  0.0458  0.2942
  913MOL0     C23147   3.390   5.064   1.838  0.1217  0.2812  0.0694
  913MOL0     C23148   3.248   5.060   1.844  0.5188 -0.6666 -0.0786
  913MOL0     C23149   3.160   5.058   1.727 -0.9853 -0.3602  1.1469
  913MOL0     O23150   3.026   5.037   1.749  0.4005  0.4101 -0.3710
  913MOL0     C23151   2.950   5.023   1.638 -0.1975  0.2506 -0.2621
  913MOL0     C23152   2.905   5.128   1.567  0.1831 -0.2904  0.6633
  913MOL0     C23153   2.799   5.108   1.483 -0.3665  1.3230  0.4563
  913MOL0     C23154   2.735   4.979   1.454  0.1364 -0.5061 -0.0227
  913MOL0     O23155   2.638   4.979   1.359 -0.9341  0.0885  0.6624
  913MOL0     C23156   2.568   4.859   1.326  0.5095  0.4452  0.0317
  913MOL0     C23157   2.457   4.835   1.425  0.4902  0.5855  0.4152
  913MOL0     C23158   2.365   4.733   1.373  0.6202  0.4911 -0.2058
  913MOL0     C23159   2.234   4.739   1.439  0.2600  0.4406  0.0058
  913MOL0     C23160   2.122   4.692   1.348  0.0991 -0.0815 -0.4193
  913MOL0     C23161   1.991   4.650   1.432 -0.4836  0.5020  0.0928
  913MOL0     C23162   1.872   4.606   1.345 -0.6719  0.9281  0.4528
  913MOL0     C23163   1.754   4.598   1.443  0.1968 -0.0160 -0.0126
  913MOL0    Cl23164   1.612   4.533   1.352  0.1872  0.2049  0.1255
  913MOL0     C23165   2.793   4.868   1.521 -0.1166  0.1698  0.2964
  913MOL0     C23166   2.897   4.894   1.614  0.3290  0.4585  0.4882
  913MOL0     O23167   3.221   5.055   1.620 -0.2193 -0.2757 -0.4029
  913MOL0     C23168   3.195   5.050   1.974  1.0037  0.8570 -0.5861
  913MOL0     C23169   3.272   5.056   2.092  1.2371 -1.0444  0.3226
  913MOL0     N23170   4.136   4.962   2.418  0.0973 -0.2193  0.5098
  913MOL0     N23171   4.237   4.878   2.419 -0.0501  0.6493  0.6182
  913MOL0     C23172   4.669   4.207   3.351 -0.3607  0.1651  0.1159
  913MOL0     C23173   4.793   4.167   3.403  0.2374 -0.3478  0.0215
  913MOL0     C23174   5.219   4.207   3.546 -0.2374  0.8992  0.6680
  913MOL0     C23175   5.344   4.256   3.500  0.2278  0.3592 -0.1429
  913MOL0     C23176   5.468   4.215   3.550  0.1058  0.0820  0.1217
  913MOL0     C23177   5.470   4.121   3.660  0.1351 -0.1082 -0.4383
  913MOL0     O23178   5.590   4.089   3.721  0.3320 -0.8447  0.0984
  913MOL0     C23179   5.587   3.979   3.815 -0.2599  0.3767  0.0460
  913MOL0     C23180   5.732   3.931   3.841 -0.0094 -0.4243 -0.3518
  913MOL0     C23181   5.736   3.804   3.929 -0.4851  0.0563  0.1283
  913MOL0     C23182   5.666   3.806   4.067  0.5422  1.2012 -0.2105
  913MOL0     C23183   5.732   3.904   4.154  0.8638  0.4554 -0.1995
  913MOL0     C23184   5.782   3.984   4.228 -0.2152  1.0138 -1.1016
  913MOL0     C23185   5.347   4.065   3.699  0.4594 -0.8668 -0.3609
  913MOL0     C23186   5.223   4.112   3.650 -0.4857  0.3586  0.2149
  913MOL0     C23187   5.097   4.051   3.711  0.8528 -1.1491  0.0510
  913MOL0     H23188   4.844   4.458   3.582  0.9494 -2.2030  1.4893
  913MOL0     H23189   4.635   4.507   3.493  2.0614  1.9393 -0.1347
  913MOL0     H23190   4.489   4.569   3.334  0.9047  0.8229 -0.8327
  913MOL0     H23191   4.602   4.517   3.216  1.6508  0.9782  3.7517
  913MOL0     H23192   4.375   4.605   3.125  0.2447 -0.0966 -1.1323
  913MOL0     H23193   4.309   4.441   3.185 -0.8257  0.2716 -2.0796
  913MOL0     H23194   4.353   4.378   2.973  1.8452  0.5232 -3.6827
  913MOL0     H23195   4.539   4.391   3.019  2.1203  2.4932  2.0165
  913MOL0     H23196   4.366   4.598   2.917  0.4900  0.4140  0.5906
  913MOL0     H23197   4.528   4.623   2.989 -0.2836  0.9190  0.1553
  913MOL0     H23198   4.590   4.611   2.770 -1.2983  0.0810 -0.8329
  913MOL0     H23199   4.584   4.439   2.775  1.3766  0.4749 -3.1225
  913MOL0     H23200   4.456   4.466   2.584  1.6445  1.7627 -0.2934
  913MOL0     H23201   4.336   4.455   2.724  1.3419 -2.0052 -0.7549
  913MOL0     H23202   4.427   4.718   2.602 -0.9469  0.0862 -3.3936
  913MOL0     H23203   4.302   4.700   2.731 -1.1798  5.2170 -2.2355
  913MOL0     H23204   4.308   4.598   2.449  1.9164  0.3949  1.7469
  913MOL0     H23205   4.166   4.572   2.545 -1.1795 -0.3795 -1.9690
  913MOL0     H23206   3.992   4.761   2.613 -1.6411  2.9485  0.0972
  913MOL0     H23207   3.847   4.959   2.564 -0.3015 -0.8805 -0.7583
  913MOL0     H23208   3.911   5.103   2.513 -1.4031  1.2907 -1.6014
  913MOL0     H23209   3.885   5.042   2.276  0.6523 -1.2879 -1.1992
  913MOL0     H23210   3.817   4.880   2.318 -1.0840  0.3370 -0.5254
  913MOL0     H23211   3.671   5.133   2.389 -0.4844 -0.3652 -0.0529
  913MOL0     H23212   3.620   4.970   2.417  1.4835  1.5672  2.1291
  913MOL0     H23213   3.628   4.919   2.171 -0.0905 -1.0484 -1.6517
  913MOL0     H23214   3.682   5.084   2.136  1.2150  0.1494  2.6905
  913MOL0     H23215   3.568   5.065   1.931 -0.1365  0.5842 -1.0920
  913MOL0     H23216   3.439   5.082   1.743 -2.1031  0.7224 -1.0592
  913MOL0     H23217   2.955   5.223   1.581  1.9092 -0.7461 -1.7728
  913MOL0     H23218   2.767   5.196   1.428 -0.3137  1.3602  0.4854
  913MOL0     H23219   2.516   4.875   1.231  2.3250 -0.8983 -1.2599
  913MOL0     H23220   2.622   4.764   1.322 -1.5211 -0.7559 -0.0665
  913MOL0     H23221   2.494   4.801   1.522 -6.1961  0.6001  3.5027
  913MOL0     H23222   2.411   4.931   1.451  1.0759  0.5192  1.7781
  913MOL0     H23223   2.343   4.763   1.270 -0.1061  0.1206 -0.1633
  913MOL0     H23224   2.405   4.631   1.368  2.4295  1.2291 -1.5526
  913MOL0     H23225   2.211   4.844   1.459  0.6989  1.5195 -4.2183
  913MOL0     H23226   2.229   4.680   1.531 -2.8631 -0.3121 -0.5131
  913MOL0     H23227   2.161   4.611   1.285  1.0407  1.2151 -1.5618
  913MOL0     H23228   2.098   4.772   1.278  0.6532  0.8450  0.4203
  913MOL0     H23229   2.024   4.567   1.495 -2.8077  1.1793  2.3974
  913MOL0     H23230   1.966   4.726   1.507 -2.2967  0.8577 -0.8171
  913MOL0     H23231   1.874   4.505   1.303 -2.5447 -0.9501  4.3101
  913MOL0     H23232   1.856   4.673   1.260 -2.1325  1.4571  1.1007
  913MOL0     H23233   1.755   4.540   1.536 -1.3465 -0.3370 -0.1621
  913MOL0     H23234   1.739   4.702   1.473  0.2247  0.0270 -0.1459
  913MOL0     H23235   2.747   4.770   1.510  3.2430 -1.3320 -1.6731
  913MOL0     H23236   2.933   4.817   1.681 -0.3546  0.7666  1.2329
  913MOL0     H23237   3.088   5.033   1.980  0.8829  1.0152 -1.9231
  913MOL0     H23238   3.231   5.050   2.192 -0.2409  1.0616 -0.1112
  913MOL0     H23239   4.625   4.145   3.274 -0.7062  1.0383 -0.4093
  913MOL0     H23240   4.831   4.070   3.371 -0.3344 -0.1639 -1.2822
  913MOL0     H23241   5.351   4.333   3.424  1.1569 -0.5789 -1.0342
  913MOL0     H23242   5.567   4.248   3.519 -0.0928  0.7584  0.1916
  913MOL0     H23243   5.536   3.893   3.770  0.3490  0.0233  0.0209
  913MOL0     H23244   5.538   3.999   3.911 -2.7561 -1.5494 -0.7031
  913MOL0     H23245   5.801   4.006   3.880  0.6048  0.3234 -2.7240
  913MOL0     H23246   5.773   3.909   3.742 -0.3227  1.5184 -0.9621
  913MOL0     H23247   5.843   3.785   3.941 -0.2975  0.7276 -0.4085
  913MOL0     H23248   5.696   3.725   3.865  0.7438  0.0477 -0.6630
  913MOL0     H23249   5.565   3.849   4.070  0.1777  0.8356 -3.4112
  913MOL0     H23250   5.670   3.706   4.112  2.8075 -0.0954 -2.9714
  913MOL0     H23251   5.804   4.058   4.302 -2.8622  1.9461 -1.1147
  913MOL0     H23252   5.347   3.991   3.778  0.7895 -0.2136  0.2613
  913MOL0     H23253   5.034   4.131   3.750  2.0641  0.6507 -1.5031
  913MOL0     H23254   5.049   4.000   3.626  1.3563 -0.1419 -0.8620
  913MOL0     H23255   5.116   3.984   3.796 -3.8321 -3.1358 -0.1235
  914MOL0     O23256   4.702   6.372   0.124 -0.2985  0.5812  0.7063
  914MOL0     C23257   4.778   6.471   0.121  0.1338  0.8632  0.0712
  914MOL0     O23258   4.733   6.600   0.147  0.4119  0.3596 -0.9452
  914MOL0     C23259   4.595   6.618   0.156 -0.1155  0.4178 -0.0029
  914MOL0     C23260   4.530   6.597   0.273 -0.2434  0.0134  0.0262
  914MOL0     C23261   4.391   6.616   0.275 -0.0934 -0.5499 -0.0044
  914MOL0     C23262   4.328   6.666   0.157  0.8781 -1.0581 -0.0322
  914MOL0     O23263   4.189   6.691   0.162  0.0320 -0.9366 -0.3733
  914MOL0     C23264   4.121   6.764   0.064  0.0763  0.1033  0.0580
  914MOL0     C23265   3.981   6.772   0.106  0.1108  0.3478  0.1346
  914MOL0     C23266   3.898   6.830  -0.014 -0.4234  0.0969  0.5721
  914MOL0     C23267   3.915   6.978  -0.044  0.7565 -0.6624 -0.6424
  914MOL0     C23268   3.771   7.044  -0.061 -0.8193  0.0527 -0.2599
  914MOL0     C23269   3.715   7.090   0.075  0.2077  0.6849  0.6641
  914MOL0     C23270   3.557   7.117   0.067 -0.8832 -0.1830 -0.4756
  914MOL0     C23271   3.521   7.236  -0.026 -0.2127 -0.5109  0.4369
  914MOL0     N23272   3.424   7.320   0.038  0.8664  0.5428  0.1415
  914MOL0     C23273   3.462   7.431   0.113 -0.2978  0.3594 -0.2610
  914MOL0     C23274   3.345   7.496   0.129 -0.9594  0.0801 -0.0139
  914MOL0     C23275   3.343   7.641   0.179 -0.4254  0.5385 -0.5200
  914MOL0     C23276   3.402   7.721   0.065 -0.3166 -0.7248  0.0420
  914MOL0     C23277   3.418   7.864   0.124  0.5884  0.0579 -0.0009
  914MOL0     C23278   3.510   7.946   0.035  0.5560 -0.9370  0.8946
  914MOL0     O23279   3.630   7.882  -0.008  0.1200 -0.1433  0.1116
  914MOL0     C23280   3.701   7.941  -0.111 -0.1516  0.7668  0.8517
  914MOL0     C23281   3.690   8.070  -0.161 -0.3255  0.1256 -0.4902
  914MOL0     C23282   3.775   8.114  -0.254 -0.7253 -0.5824 -0.1777
  914MOL0     C23283   3.872   8.030  -0.310 -0.3827  0.2398 -0.0349
  914MOL0     C23284   3.971   8.085  -0.396  0.1202  0.1313 -0.7325
  914MOL0     O23285   4.009   8.218  -0.381 -0.2946 -0.6691 -0.0987
  914MOL0     C23286   4.106   8.264  -0.462  0.4594  1.1871  0.4587
  914MOL0     C23287   4.099   8.257  -0.603  0.0908  0.9442  0.2878
  914MOL0     C23288   4.211   8.288  -0.685  0.3975  0.6239  0.4507
  914MOL0     C23289   4.329   8.329  -0.626  0.2744  0.7516  1.3080
  914MOL0     O23290   4.436   8.371  -0.700  0.5464 -0.6110  1.1982
  914MOL0     C23291   4.416   8.461  -0.810  1.5514  0.4803  0.8314
  914MOL0     C23292   4.545   8.498  -0.884 -0.0248 -1.0307  0.0274
  914MOL0     C23293   4.571   8.394  -0.995  0.0330  0.2825  0.0742
  914MOL0     C23294   4.655   8.446  -1.113 -0.1702  0.2739  0.1667
  914MOL0     C23295   4.678   8.330  -1.213 -0.7822  0.1955 -0.0950
  914MOL0     C23296   4.762   8.375  -1.332  1.0132  0.3318 -0.0505
  914MOL0     C23297   4.788   8.249  -1.416 -0.8520  0.2957 -0.6048
  914MOL0     C23298   4.884   8.285  -1.531  0.6711 -0.6671  0.2876
  914MOL0    Cl23299   4.781   8.355  -1.659  0.2197  0.2001 -0.3575
  914MOL0     C23300   4.330   8.333  -0.485  0.1040  0.0913  0.2874
  914MOL0     C23301   4.217   8.312  -0.413 -0.6478  0.2978  0.3486
  914MOL0     O23302   4.028   8.005  -0.472  0.3120  0.1616  0.6736
  914MOL0     C23303   3.885   7.893  -0.266  0.4663  0.4537 -0.2400
  914MOL0     C23304   3.795   7.850  -0.162 -1.8819  0.0368 -0.0831
  914MOL0     N23305   3.251   7.428   0.055 -0.1307  0.2344 -0.1945
  914MOL0     N23306   3.295   7.332  -0.010 -0.7458 -0.3866 -0.7110
  914MOL0     C23307   4.403   6.697   0.046 -0.2720  0.5552 -0.2835
  914MOL0     C23308   4.536   6.663   0.045  0.1178 -0.3398  0.3205
  914MOL0     C23309   4.914   6.448   0.062  0.7351 -1.1549  0.8637
  914MOL0     C23310   5.003   6.562   0.079 -0.2832 -0.1547 -0.2466
  914MOL0     C23311   5.134   6.549   0.041 -0.5730  0.1261  0.0899
  914MOL0     C23312   5.193   6.433  -0.014 -0.1849 -0.1176  0.3381
  914MOL0     O23313   5.323   6.433  -0.032 -0.1312 -0.3411 -0.6185
  914MOL0     C23314   5.377   6.306  -0.074 -0.3169  0.2070  0.4167
  914MOL0     C23315   5.532   6.306  -0.098  0.8658 -0.5137  0.7763
  914MOL0     C23316   5.577   6.165  -0.154  0.0036  0.5402 -0.2180
  914MOL0     C23317   5.716   6.177  -0.225  0.1082 -0.8749 -0.4881
  914MOL0     C23318   5.759   6.058  -0.300  0.0165 -0.5738 -0.4082
  914MOL0     C23319   5.798   5.961  -0.367 -0.2675 -0.7063 -0.9951
  914MOL0     C23320   5.102   6.321  -0.030 -0.1853 -0.0259 -0.2177
  914MOL0     C23321   4.967   6.328  -0.001 -0.6653 -0.7480 -0.2786
  914MOL0     C23322   4.888   6.206  -0.024 -0.2243  0.3345 -0.3784
  914MOL0     H23323   4.595   6.578   0.358  1.8004  1.1850 -1.1881
  914MOL0     H23324   4.328   6.586   0.358  1.4430 -0.0106  1.4280
  914MOL0     H23325   4.160   6.866   0.053  0.8038  0.1337  2.4563
  914MOL0     H23326   4.146   6.716  -0.031  4.7098  1.9594  0.0384
  914MOL0     H23327   3.972   6.833   0.196 -1.0110 -2.2665  1.8943
  914MOL0     H23328   3.946   6.669   0.118  0.7375 -0.1428 -1.8747
  914MOL0     H23329   3.794   6.809   0.013  0.3396 -1.1471  2.8486
  914MOL0     H23330   3.933   6.770  -0.099 -0.5675  0.3071  0.3626
  914MOL0     H23331   3.967   7.024   0.041 -3.2823 -0.3845  1.9798
  914MOL0     H23332   3.964   7.003  -0.138 -0.5978  1.5954 -0.8220
  914MOL0     H23333   3.798   7.133  -0.119 -1.4268  0.1107 -0.4639
  914MOL0     H23334   3.696   6.986  -0.114 -3.1165  2.3185  0.2814
  914MOL0     H23335   3.730   7.016   0.154 -1.2856  1.9987  2.2482
  914MOL0     H23336   3.773   7.179   0.100  0.0053  0.6634  1.2068
  914MOL0     H23337   3.515   7.123   0.168  2.0154 -1.2005  0.9116
  914MOL0     H23338   3.507   7.035   0.015  1.3740 -0.2786 -2.6931
  914MOL0     H23339   3.616   7.288  -0.041 -1.7241  2.5069  0.7018
  914MOL0     H23340   3.485   7.202  -0.123 -0.2165 -2.9576  1.2072
  914MOL0     H23341   3.555   7.462   0.160 -1.1242 -1.0421  2.5791
  914MOL0     H23342   3.248   7.680   0.216 -0.4847 -1.4383  1.6355
  914MOL0     H23343   3.404   7.640   0.270 -1.1781  0.1747 -0.0187
  914MOL0     H23344   3.504   7.687   0.044 -0.1433 -0.3988  0.3566
  914MOL0     H23345   3.344   7.726  -0.028  2.9127  4.8277 -2.1600
  914MOL0     H23346   3.475   7.864   0.217  1.0179  2.4037 -0.1861
  914MOL0     H23347   3.326   7.919   0.148  1.3553  1.0183  0.8554
  914MOL0     H23348   3.512   8.046   0.079 -2.4655 -0.9611  1.3106
  914MOL0     H23349   3.443   7.965  -0.049  0.8240  5.6895  1.6612
  914MOL0     H23350   3.614   8.142  -0.132  0.0140  1.0302 -1.7379
  914MOL0     H23351   3.763   8.216  -0.290  2.6525 -0.0381 -0.1321
  914MOL0     H23352   4.006   8.216  -0.640 -1.0872  1.5706  2.4018
  914MOL0     H23353   4.204   8.280  -0.793 -0.2973  0.3457  0.5100
  914MOL0     H23354   4.345   8.419  -0.880  0.5444  0.1005  2.0405
  914MOL0     H23355   4.370   8.555  -0.775 -1.5694 -0.1329 -1.2435
  914MOL0     H23356   4.539   8.601  -0.922  1.3881  0.1935  2.8674
  914MOL0     H23357   4.633   8.500  -0.819 -2.0528 -3.0407  3.0959
  914MOL0     H23358   4.621   8.313  -0.941 -2.3328  0.0536  2.1265
  914MOL0     H23359   4.480   8.349  -1.036  0.9610 -5.0020  2.9689
  914MOL0     H23360   4.753   8.479  -1.078 -0.5428 -0.3814  1.8909
  914MOL0     H23361   4.607   8.534  -1.159  2.0054 -0.0376 -2.9526
  914MOL0     H23362   4.589   8.282  -1.254  0.1203 -0.1719 -1.7014
  914MOL0     H23363   4.735   8.245  -1.174 -0.4222 -0.5449 -2.1196
  914MOL0     H23364   4.703   8.444  -1.393  0.2666 -0.3369 -0.1045
  914MOL0     H23365   4.860   8.406  -1.297  1.4297 -1.3869  0.3988
  914MOL0     H23366   4.693   8.206  -1.447 -1.2354  0.0592  0.8295
  914MOL0     H23367   4.838   8.174  -1.354 -2.0475 -1.2482 -1.4413
  914MOL0     H23368   4.958   8.359  -1.500  1.0157 -0.1994 -1.5448
  914MOL0     H23369   4.928   8.195  -1.573 -0.0785  0.4773 -3.3040
  914MOL0     H23370   4.414   8.362  -0.423 -0.1045  1.4028 -0.0063
  914MOL0     H23371   4.217   8.303  -0.305 -0.7647 -1.5748  0.2178
  914MOL0     H23372   3.966   7.827  -0.295 -1.1900 -2.9763  2.0893
  914MOL0     H23373   3.799   7.752  -0.116 -1.6639  1.4986  3.3339
  914MOL0     H23374   4.356   6.738  -0.043  3.2286  3.3976 -1.0546
  914MOL0     H23375   4.588   6.668  -0.050 -0.1952 -1.5579  0.0614
  914MOL0     H23376   4.982   6.667   0.099  1.7541  0.3611 -0.5799
  914MOL0     H23377   5.195   6.636   0.062  1.4173 -1.5756  2.0240
  914MOL0     H23378   5.327   6.275  -0.166  2.3622 -1.0183 -0.7294
  914MOL0     H23379   5.369   6.225  -0.001  0.3351 -0.3100 -0.0736
  914MOL0     H23380   5.582   6.326  -0.003 -0.7601  0.5083  1.4568
  914MOL0     H23381   5.568   6.386  -0.164 -1.0180 -0.2941 -0.0524
  914MOL0     H23382   5.502   6.126  -0.224 -0.6268 -2.4655  1.9139
  914MOL0     H23383   5.586   6.086  -0.078  0.0140 -0.4290 -1.2099
  914MOL0     H23384   5.687   6.252  -0.300  1.1354 -1.7913 -1.8621
  914MOL0     H23385   5.794   6.217  -0.160 -0.9050 -1.7981  1.3398
  914MOL0     H23386   5.806   5.876  -0.433 -5.7855 -1.9049 -0.6009
  914MOL0     H23387   5.136   6.227  -0.072 -0.8808  0.4467 -1.9408
  914MOL0     H23388   4.833   6.168   0.062 -0.7601  1.4187 -0.2330
  914MOL0     H23389   4.820   6.222  -0.108  0.2296  0.7860 -0.6628
  914MOL0     H23390   4.953   6.125  -0.058  0.1694  0.0907  0.9271
  915MOL0     O23391   3.291   6.455   1.294 -0.6965  0.1128  0.7493
  915MOL0     C23392   3.246   6.569   1.328  0.3016  0.5425  0.0759
  915MOL0     O23393   3.321   6.665   1.388 -0.4868  0.1703  0.4079
  915MOL0     C23394   3.459   6.656   1.398  0.0667 -0.2812 -0.2763
  915MOL0     C23395   3.536   6.683   1.513 -0.2538  0.2044 -0.4164
  915MOL0     C23396   3.671   6.655   1.518 -0.4592  0.1246  0.4139
  915MOL0     C23397   3.746   6.612   1.406 -0.1335 -0.2565  0.4239
  915MOL0     O23398   3.881   6.589   1.421 -0.0323  0.4560 -0.6397
  915MOL0     C23399   3.957   6.520   1.321  0.2519 -0.1215 -0.7913
  915MOL0     C23400   3.925   6.369   1.318 -0.2896 -0.7166  0.1632
  915MOL0     C23401   3.931   6.292   1.451 -0.3414  0.7059 -0.2446
  915MOL0     C23402   4.048   6.187   1.449  0.1315 -0.1366  0.2846
  915MOL0     C23403   4.009   6.076   1.340  0.4249 -0.9816 -0.3371
  915MOL0     C23404   4.129   5.990   1.325  0.1435  1.1100 -0.2675
  915MOL0     C23405   4.131   5.883   1.433  0.0373  0.7311  0.5335
  915MOL0     C23406   4.251   5.784   1.428  0.1573  0.0662  0.8239
  915MOL0     N23407   4.235   5.687   1.541 -0.2972 -0.4856 -0.0011
  915MOL0     C23408   4.227   5.712   1.670 -0.9390  0.4483 -0.1283
  915MOL0     C23409   4.209   5.593   1.734 -0.1881  0.0471  0.5106
  915MOL0     C23410   4.152   5.558   1.875 -0.1064 -0.5613 -0.0368
  915MOL0     C23411   4.193   5.656   1.981  0.3345 -1.3150  0.1009
  915MOL0     C23412   4.094   5.764   2.008  0.6913 -1.0796  0.3275
  915MOL0     C23413   4.130   5.878   2.100  0.1801 -0.3118  0.7004
  915MOL0     O23414   4.029   5.984   2.106  0.2259 -0.6440  0.3668
  915MOL0     C23415   4.078   6.113   2.135  0.2628  0.4304  0.0860
  915MOL0     C23416   4.186   6.148   2.211 -0.8074 -0.0360 -0.8771
  915MOL0     C23417   4.232   6.279   2.236  0.1964  1.2408  0.7311
  915MOL0     C23418   4.155   6.392   2.200  0.3030  0.6005 -0.5156
  915MOL0     C23419   4.175   6.534   2.243 -0.2770 -0.3582 -0.3826
  915MOL0     O23420   4.299   6.574   2.289  0.7379 -0.3169 -0.5959
  915MOL0     C23421   4.304   6.701   2.332  0.0882 -0.9124 -0.2834
  915MOL0     C23422   4.327   6.800   2.238  0.0117 -1.1938  0.1104
  915MOL0     C23423   4.325   6.929   2.282 -0.1187 -1.1963 -0.1272
  915MOL0     C23424   4.306   6.977   2.412  0.5346  0.0461  0.0865
  915MOL0     O23425   4.293   7.107   2.445 -0.3882 -0.6009 -0.3340
  915MOL0     C23426   4.360   7.134   2.568 -0.3761 -0.8426  0.1828
  915MOL0     C23427   4.345   7.289   2.592  0.9820 -0.2301 -0.1230
  915MOL0     C23428   4.321   7.316   2.742 -0.2265 -0.4411 -0.0691
  915MOL0     C23429   4.177   7.274   2.780  0.1380  0.3864  1.5630
  915MOL0     C23430   4.125   7.343   2.903 -0.3970  0.1761 -0.2537
  915MOL0     C23431   3.976   7.335   2.925  0.0912  0.1060  0.4574
  915MOL0     C23432   3.892   7.436   2.839 -0.1090 -0.3413 -0.4976
  915MOL0     C23433   3.736   7.411   2.850  0.9956  0.0503  0.6208
  915MOL0    Cl23434   3.686   7.503   2.992 -0.1272  0.3736 -0.5487
  915MOL0     C23435   4.280   6.869   2.508 -1.0232 -0.2092 -0.5540
  915MOL0     C23436   4.274   6.734   2.469  0.0745  0.0613  1.2794
  915MOL0     O23437   4.072   6.607   2.222  0.5016  0.5019  0.2558
  915MOL0     C23438   4.028   6.349   2.148 -0.0956 -0.0798 -0.0259
  915MOL0     C23439   4.000   6.225   2.106  0.5935  0.0486 -0.4978
  915MOL0     N23440   4.226   5.492   1.640 -1.3363 -0.4684 -0.5655
  915MOL0     N23441   4.235   5.546   1.524 -0.5316 -0.4569  0.1773
  915MOL0     C23442   3.672   6.598   1.285 -0.3067  1.1036  0.3538
  915MOL0     C23443   3.535   6.614   1.293  0.4211 -0.3312  0.7510
  915MOL0     C23444   3.116   6.586   1.272 -0.0451  0.8819 -0.3379
  915MOL0     C23445   3.017   6.489   1.293  0.4756 -0.9079  0.4163
  915MOL0     C23446   2.890   6.506   1.235  0.8012  0.5289  0.0025
  915MOL0     C23447   2.852   6.618   1.160  0.4268 -0.5697  0.7600
  915MOL0     O23448   2.729   6.635   1.102 -0.5121  0.0815 -0.3903
  915MOL0     C23449   2.684   6.514   1.040 -0.0309  0.4445 -0.0807
  915MOL0     C23450   2.583   6.538   0.932 -0.3008 -0.6543  0.0114
  915MOL0     C23451   2.645   6.610   0.811  1.8507 -0.2030  0.3130
  915MOL0     C23452   2.532   6.641   0.707  0.1888  0.8502  0.4064
  915MOL0     C23453   2.442   6.750   0.755  0.1629  0.8716  0.7882
  915MOL0     C23454   2.357   6.817   0.797 -0.4577  0.0801  0.5999
  915MOL0     C23455   2.954   6.709   1.135  0.2576 -0.2552  0.4250
  915MOL0     C23456   3.087   6.696   1.182 -0.3317  0.6014 -0.1438
  915MOL0     C23457   3.188   6.808   1.150  0.4570 -0.1474  0.3462
  915MOL0     H23458   3.476   6.704   1.601 -0.3986 -3.7364  0.5886
  915MOL0     H23459   3.715   6.660   1.617  2.7901 -0.3278 -0.8925
  915MOL0     H23460   3.944   6.572   1.226  0.0951  0.4758 -0.4484
  915MOL0     H23461   4.064   6.535   1.339  0.2878 -0.8781 -0.3260
  915MOL0     H23462   3.991   6.331   1.239 -0.0510  0.5397 -0.2677
  915MOL0     H23463   3.828   6.349   1.272  1.1548 -2.9720 -2.1552
  915MOL0     H23464   3.837   6.244   1.480  0.9106 -1.6325  0.2302
  915MOL0     H23465   3.952   6.366   1.528  1.7765  0.2644 -0.3406
  915MOL0     H23466   4.139   6.237   1.415  0.2267  0.7247  1.7109
  915MOL0     H23467   4.068   6.134   1.543 -0.0506 -0.5683  0.0807
  915MOL0     H23468   3.925   6.021   1.384  1.6938 -0.7217  2.7258
  915MOL0     H23469   3.979   6.118   1.244 -1.1939 -0.7072  0.2591
  915MOL0     H23470   4.130   5.941   1.227 -0.7127  0.3040  0.1023
  915MOL0     H23471   4.219   6.050   1.336  1.8372 -0.9272 -2.0356
  915MOL0     H23472   4.031   5.839   1.440  0.4985 -0.1917  1.5969
  915MOL0     H23473   4.153   5.939   1.525  0.3706  0.0668  0.8632
  915MOL0     H23474   4.260   5.731   1.332 -2.6218 -0.5525  0.8301
  915MOL0     H23475   4.336   5.853   1.437 -1.3351  2.6540 -2.6429
  915MOL0     H23476   4.226   5.813   1.710 -0.6242  0.5850 -0.4646
  915MOL0     H23477   4.045   5.539   1.881 -0.2098  0.3839  2.0075
  915MOL0     H23478   4.198   5.461   1.894 -0.3952 -0.5161  0.9315
  915MOL0     H23479   4.179   5.605   2.077 -0.2812 -0.0514  0.7123
  915MOL0     H23480   4.289   5.706   1.967 -0.4554  0.8008  1.6504
  915MOL0     H23481   4.004   5.712   2.044  0.2939 -2.1390 -2.0104
  915MOL0     H23482   4.065   5.816   1.916 -0.1141  0.5127  1.4490
  915MOL0     H23483   4.216   5.929   2.056 -0.2604 -0.7759 -0.7605
  915MOL0     H23484   4.158   5.839   2.198  2.3297 -0.4503  0.0874
  915MOL0     H23485   4.231   6.060   2.257 -3.3025 -1.7863 -1.5364
  915MOL0     H23486   4.330   6.288   2.282  0.1183 -2.7327  2.0308
  915MOL0     H23487   4.349   6.780   2.134  0.1081  3.1294 -0.8598
  915MOL0     H23488   4.354   7.005   2.211  0.6428 -2.8471 -1.6532
  915MOL0     H23489   4.334   7.073   2.655 -1.9002 -2.9082 -1.6115
  915MOL0     H23490   4.468   7.121   2.552  0.0725 -0.5493  2.5541
  915MOL0     H23491   4.441   7.335   2.568  1.0117  1.3000  2.5397
  915MOL0     H23492   4.270   7.331   2.524 -0.2443  0.8779  1.8219
  915MOL0     H23493   4.389   7.275   2.817 -1.8220 -1.6028  0.7790
  915MOL0     H23494   4.333   7.424   2.749  3.0227 -0.7294  0.8296
  915MOL0     H23495   4.177   7.165   2.790  1.0641  0.4325  2.1605
  915MOL0     H23496   4.106   7.300   2.701 -1.3622 -1.3600  2.2598
  915MOL0     H23497   4.155   7.447   2.917 -2.3231  0.8208 -0.5394
  915MOL0     H23498   4.147   7.285   2.993 -4.3940  0.6735  1.2600
  915MOL0     H23499   3.939   7.233   2.910  0.5857  0.0347 -0.3371
  915MOL0     H23500   3.954   7.361   3.029  1.4530 -1.0571  1.0539
  915MOL0     H23501   3.925   7.415   2.737 -1.5810  3.4600 -1.9482
  915MOL0     H23502   3.915   7.542   2.855  2.3581 -0.2440 -3.7300
  915MOL0     H23503   3.675   7.443   2.765  1.7246 -0.7348 -0.2234
  915MOL0     H23504   3.717   7.304   2.862  2.2001  0.1281  5.0453
  915MOL0     H23505   4.272   6.884   2.615  0.4194 -0.2037 -0.4234
  915MOL0     H23506   4.258   6.656   2.543  2.9482 -1.4015  0.5113
  915MOL0     H23507   3.956   6.426   2.123  1.4617  1.9736  1.3852
  915MOL0     H23508   3.904   6.223   2.055 -1.0155  2.4115  2.1597
  915MOL0     H23509   3.707   6.568   1.187  1.0626  1.2272  0.7898
  915MOL0     H23510   3.480   6.597   1.201  4.6319 -2.1938 -1.6946
  915MOL0     H23511   3.041   6.398   1.347 -0.3096 -0.9313  0.7293
  915MOL0     H23512   2.815   6.428   1.247  2.1213 -1.1522 -2.0504
  915MOL0     H23513   2.631   6.456   1.117 -2.1194  1.8572 -0.3666
  915MOL0     H23514   2.762   6.453   0.995 -0.7975 -1.0606  0.5445
  915MOL0     H23515   2.508   6.598   0.985 -1.6415 -2.5568  0.3651
  915MOL0     H23516   2.534   6.453   0.883  3.2749 -1.8733 -1.7791
  915MOL0     H23517   2.723   6.546   0.770  2.4294 -0.6488  2.0241
  915MOL0     H23518   2.693   6.705   0.840 -2.7525  2.5540 -0.1043
  915MOL0     H23519   2.569   6.674   0.610 -0.3917 -1.5343 -0.6877
  915MOL0     H23520   2.464   6.558   0.687 -0.5282  2.2361 -3.9321
  915MOL0     H23521   2.278   6.867   0.851 -0.0022  0.1386  1.2163
  915MOL0     H23522   2.922   6.791   1.071  0.4674 -0.8232 -0.4277
  915MOL0     H23523   3.180   6.892   1.220  1.1816  0.4892 -0.3093
  915MOL0     H23524   3.294   6.779   1.143  0.3271 -0.6534  0.4460
  915MOL0     H23525   3.167   6.842   1.048 -0.4908 -0.2283  0.5115
  916MOL0     O23526   0.960   2.979   7.368  0.2722 -0.2656 -0.0501
  916MOL0     C23527   1.060   3.006   7.440  0.4284 -0.8974  1.2398
  916MOL0     O23528   1.082   2.958   7.562 -0.8555 -0.4391 -0.3831
  916MOL0     C23529   1.015   2.840   7.598  0.2326 -0.3228  0.1695
  916MOL0     C23530   1.022   2.728   7.522 -0.0935  0.9342 -0.1313
  916MOL0     C23531   0.963   2.606   7.557  0.2015  0.4657  0.4402
  916MOL0     C23532   0.880   2.598   7.670  0.4301 -0.2046  0.9052
  916MOL0     O23533   0.806   2.480   7.683  0.4482 -0.2743  0.6801
  916MOL0     C23534   0.710   2.463   7.782 -0.2015 -0.1314  0.6712
  916MOL0     C23535   0.589   2.380   7.756  0.2524 -1.1427 -0.4455
  916MOL0     C23536   0.495   2.470   7.671  0.0899  0.7616 -0.2002
  916MOL0     C23537   0.352   2.415   7.665 -0.2618  0.8008  0.4965
  916MOL0     C23538   0.262   2.496   7.578  0.9846 -0.3258  1.1774
  916MOL0     C23539   0.124   2.430   7.585  0.7135  0.4783 -0.1322
  916MOL0     C23540   0.005   2.547   7.595  0.7256  0.2682  0.0920
  916MOL0     C23541  -0.022   2.606   7.458  0.0114  0.3652 -0.7935
  916MOL0     N23542  -0.135   2.702   7.452 -0.3467 -0.6526  1.1194
  916MOL0     C23543  -0.121   2.841   7.466  0.4618  0.4843  0.2453
  916MOL0     C23544  -0.248   2.892   7.454  0.3507 -0.4574 -0.0380
  916MOL0     C23545  -0.280   3.038   7.490  0.0562  0.9273  0.0310
  916MOL0     C23546  -0.378   3.119   7.397  0.0225  0.0376 -0.8733
  916MOL0     C23547  -0.466   3.221   7.463  0.4005  0.7737 -0.6643
  916MOL0     C23548  -0.388   3.350   7.500  0.0252  0.1916 -0.0196
  916MOL0     O23549  -0.420   3.462   7.418 -0.0137  0.6635 -0.2750
  916MOL0     C23550  -0.539   3.521   7.450  0.1526  0.2268  0.0862
  916MOL0     C23551  -0.572   3.623   7.360 -0.8704 -1.3950 -0.4332
  916MOL0     C23552  -0.692   3.685   7.366 -0.1153  0.4833  0.0286
  916MOL0     C23553  -0.790   3.646   7.466 -0.1983 -0.6441 -0.1729
  916MOL0     C23554  -0.925   3.716   7.477  0.6577  0.0377 -0.0859
  916MOL0     O23555  -1.026   3.630   7.509  0.4303  0.0317 -0.3366
  916MOL0     C23556  -1.156   3.683   7.490  0.2893  0.4994  0.0831
  916MOL0     C23557  -1.212   3.739   7.603 -0.5548 -0.4052 -0.5198
  916MOL0     C23558  -1.338   3.801   7.601  0.1067  0.6784 -0.2858
  916MOL0     C23559  -1.402   3.826   7.483 -0.5474 -0.0851  0.3423
  916MOL0     O23560  -1.515   3.898   7.479 -0.2412 -0.1013  0.2128
  916MOL0     C23561  -1.598   3.906   7.592 -0.6910 -0.0852 -0.2249
  916MOL0     C23562  -1.744   3.963   7.557 -0.1572  0.0542  0.6358
  916MOL0     C23563  -1.810   3.895   7.445  0.1378 -0.0459  0.7427
  916MOL0     C23564  -1.968   3.920   7.444  0.8105  0.3363  0.2454
  916MOL0     C23565  -2.011   4.049   7.377  0.3109 -0.3008 -0.7650
  916MOL0     C23566  -2.150   4.098   7.425  1.1433  1.5940 -0.4604
  916MOL0     C23567  -2.162   4.238   7.371 -0.0375  0.0419  0.4800
  916MOL0     C23568  -2.305   4.286   7.381 -0.2876 -0.9076  0.2342
  916MOL0    Cl23569  -2.401   4.202   7.256 -0.1275 -0.0254 -0.1598
  916MOL0     C23570  -1.343   3.764   7.369 -0.5531 -0.0479 -0.8136
  916MOL0     C23571  -1.230   3.691   7.374  0.5601  0.1831 -0.2406
  916MOL0     O23572  -0.936   3.835   7.445  0.2200  0.3249  0.9662
  916MOL0     C23573  -0.757   3.555   7.561  0.6401  0.5637  0.6262
  916MOL0     C23574  -0.637   3.486   7.551 -0.2640  0.3501  0.6060
  916MOL0     N23575  -0.336   2.780   7.428 -0.2344 -0.3608  0.4212
  916MOL0     N23576  -0.257   2.674   7.411  0.2239  0.2503 -0.9526
  916MOL0     C23577   0.865   2.713   7.747 -0.2049  0.8220  0.0764
  916MOL0     C23578   0.939   2.830   7.711 -0.4951  0.9152 -0.8069
  916MOL0     C23579   1.159   3.104   7.375  0.4949  0.6633 -0.2173
  916MOL0     C23580   1.105   3.194   7.291  0.8829 -0.9607 -0.0328
  916MOL0     C23581   1.187   3.290   7.230  0.4772  0.6588  1.0209
  916MOL0     C23582   1.326   3.288   7.238  0.5140  0.5650 -0.1407
  916MOL0     O23583   1.392   3.372   7.164 -0.2491 -0.4229  0.2989
  916MOL0     C23584   1.522   3.349   7.128  0.0507  1.1138 -0.3099
  916MOL0     C23585   1.577   3.451   7.041 -0.3010 -1.5479 -0.3093
  916MOL0     C23586   1.721   3.443   6.983  0.1059 -0.5446 -0.2658
  916MOL0     C23587   1.748   3.550   6.873 -0.3991 -0.4909  0.5658
  916MOL0     C23588   1.778   3.697   6.910  0.1658 -0.3816 -0.0455
  916MOL0     C23589   1.799   3.814   6.902 -0.0379 -0.9259  0.0421
  916MOL0     C23590   1.380   3.203   7.333 -0.3302  0.6169  0.0617
  916MOL0     C23591   1.296   3.112   7.407  0.2550  0.1016 -0.5213
  916MOL0     C23592   1.358   3.026   7.514 -0.2610 -0.5315  0.8005
  916MOL0     H23593   1.088   2.711   7.438 -0.1828  1.0449 -0.2245
  916MOL0     H23594   0.978   2.525   7.485  0.2367  1.7257 -1.0343
  916MOL0     H23595   0.779   2.413   7.850  2.1384  3.5655  1.2899
  916MOL0     H23596   0.682   2.558   7.829  0.8787  0.9387 -0.7518
  916MOL0     H23597   0.538   2.355   7.849 -2.8949 -1.9463 -2.2293
  916MOL0     H23598   0.607   2.288   7.700 -0.4618 -1.4740 -0.1414
  916MOL0     H23599   0.530   2.479   7.568 -1.3112  0.1874 -0.7480
  916MOL0     H23600   0.495   2.565   7.726  0.4612 -0.1252  1.3601
  916MOL0     H23601   0.365   2.315   7.623 -1.6597  0.0101  1.8376
  916MOL0     H23602   0.316   2.404   7.768  0.6079 -2.2137  0.5815
  916MOL0     H23603   0.263   2.594   7.627  0.2236 -0.3220  1.1985
  916MOL0     H23604   0.290   2.503   7.472 -1.7574 -0.3826  0.3562
  916MOL0     H23605   0.104   2.360   7.504  0.2385  0.7291 -0.2389
  916MOL0     H23606   0.108   2.371   7.675  0.4804  1.7629  0.7026
  916MOL0     H23607   0.036   2.624   7.665  2.1113  1.1134 -1.3805
  916MOL0     H23608  -0.093   2.506   7.623  0.4566 -0.1619 -1.3817
  916MOL0     H23609   0.066   2.646   7.407  1.3659 -1.0499  0.3364
  916MOL0     H23610  -0.063   2.521   7.403  1.2679  0.4787 -1.9578
  916MOL0     H23611  -0.036   2.904   7.487 -1.2302  2.7889  0.5712
  916MOL0     H23612  -0.324   3.030   7.590 -1.2753 -0.6768 -0.6327
  916MOL0     H23613  -0.183   3.088   7.487  0.2108  0.6796  0.6869
  916MOL0     H23614  -0.316   3.155   7.314  0.5932 -1.6916 -1.2428
  916MOL0     H23615  -0.433   3.037   7.350 -1.6871  1.2268 -1.0310
  916MOL0     H23616  -0.512   3.183   7.555  0.7796  3.5079  0.7708
  916MOL0     H23617  -0.539   3.248   7.386 -0.4190 -2.0093 -0.9721
  916MOL0     H23618  -0.281   3.327   7.498 -0.0428 -0.1620  0.3950
  916MOL0     H23619  -0.399   3.369   7.607  3.0568  0.2419  0.3639
  916MOL0     H23620  -0.502   3.652   7.282  0.7295 -4.5485 -0.3356
  916MOL0     H23621  -0.714   3.762   7.294 -4.0579  0.2296  0.7650
  916MOL0     H23622  -1.168   3.725   7.701  1.5415  0.5884 -1.2637
  916MOL0     H23623  -1.370   3.830   7.701  0.3702 -1.7840  0.5700
  916MOL0     H23624  -1.615   3.803   7.626 -2.0068 -0.1515 -1.0066
  916MOL0     H23625  -1.557   3.970   7.671 -2.0177 -2.1127  2.2947
  916MOL0     H23626  -1.811   3.954   7.643  0.2585  0.0780  0.9655
  916MOL0     H23627  -1.738   4.068   7.528  1.5873 -0.0390  0.5714
  916MOL0     H23628  -1.776   3.917   7.343 -1.6291  2.1534  0.5643
  916MOL0     H23629  -1.791   3.788   7.452 -0.5500 -0.1774  0.6279
  916MOL0     H23630  -2.008   3.899   7.544 -0.6630  0.0249 -0.3896
  916MOL0     H23631  -2.013   3.842   7.382  2.7644 -1.6951  1.2117
  916MOL0     H23632  -2.000   4.050   7.268  1.9516 -1.2888 -0.6354
  916MOL0     H23633  -1.943   4.125   7.417 -0.5505  1.0812 -1.8304
  916MOL0     H23634  -2.232   4.044   7.376  3.7288 -2.3668 -0.8880
  916MOL0     H23635  -2.173   4.088   7.532  2.4473 -3.1311 -0.3817
  916MOL0     H23636  -2.132   4.224   7.267  2.1719 -2.1378  1.3326
  916MOL0     H23637  -2.085   4.297   7.421 -0.5991  0.7154  0.5799
  916MOL0     H23638  -2.360   4.274   7.475  0.2614 -1.1148  0.5353
  916MOL0     H23639  -2.301   4.391   7.350  0.8282 -1.3040 -1.0155
  916MOL0     H23640  -1.391   3.788   7.274 -0.1518 -2.6393 -1.7351
  916MOL0     H23641  -1.191   3.646   7.283 -0.6439  0.5579 -0.9715
  916MOL0     H23642  -0.820   3.538   7.647 -0.0016  1.7662  0.4085
  916MOL0     H23643  -0.625   3.413   7.630  0.9656 -0.1498 -0.0261
  916MOL0     H23644   0.795   2.715   7.830  0.8647 -1.0843  1.0734
  916MOL0     H23645   0.944   2.912   7.782 -1.0260 -1.9233  2.7364
  916MOL0     H23646   0.998   3.195   7.273  0.6381  2.3090  1.0931
  916MOL0     H23647   1.142   3.359   7.160 -0.1819 -1.0413 -0.2805
  916MOL0     H23648   1.527   3.255   7.072  1.7149  1.2896 -0.5069
  916MOL0     H23649   1.593   3.332   7.210 -1.6136 -1.7536  0.7089
  916MOL0     H23650   1.566   3.543   7.100 -1.0209 -1.0253 -1.2285
  916MOL0     H23651   1.508   3.459   6.956  0.2331  0.4572 -0.6028
  916MOL0     H23652   1.730   3.345   6.935  2.7208 -1.0971  1.1252
  916MOL0     H23653   1.790   3.454   7.067 -0.4183  1.7150 -0.0780
  916MOL0     H23654   1.835   3.504   6.825 -0.1971 -0.4400  0.8843
  916MOL0     H23655   1.668   3.558   6.798  2.2178  1.4619 -2.2595
  916MOL0     H23656   1.828   3.916   6.882  0.8443 -1.5945 -2.5130
  916MOL0     H23657   1.487   3.190   7.345 -0.4645 -1.6434 -0.6380
  916MOL0     H23658   1.466   3.009   7.512  0.7020  4.2052  1.3263
  916MOL0     H23659   1.351   3.085   7.606  0.7027 -0.6663  0.9738
  916MOL0     H23660   1.303   2.932   7.528 -0.9443 -0.0080  1.7150
  917MOL0     O23661   1.344   2.806   8.960 -0.3151  0.0172 -0.2792
  917MOL0     C23662   1.287   2.836   8.860  0.5249  0.0868  1.0978
  917MOL0     O23663   1.203   2.937   8.840  0.1266 -0.6558  0.0196
  917MOL0     C23664   1.152   2.990   8.950  1.2179 -0.4938  0.2155
  917MOL0     C23665   1.080   2.922   9.051  0.8059 -0.3488  0.9733
  917MOL0     C23666   1.041   2.967   9.174 -0.4263  0.6930 -0.2537
  917MOL0     C23667   1.059   3.108   9.200  0.2631 -0.1154 -0.0055
  917MOL0     O23668   1.028   3.162   9.319 -0.6500 -0.4612 -0.6691
  917MOL0     C23669   0.940   3.101   9.412 -0.5226 -0.0116  0.8576
  917MOL0     C23670   0.940   3.168   9.551 -0.2970  0.6250 -0.2079
  917MOL0     C23671   0.958   3.316   9.529 -0.0350 -0.0512 -0.2445
  917MOL0     C23672   0.819   3.374   9.488 -1.3170  0.2387 -0.3765
  917MOL0     C23673   0.817   3.531   9.473  0.5939  0.2322 -0.2043
  917MOL0     C23674   0.953   3.589   9.406  0.3057 -0.1280 -0.0022
  917MOL0     C23675   0.980   3.538   9.266 -0.2701 -0.8811 -0.0680
  917MOL0     C23676   0.863   3.572   9.173 -0.8521 -0.0186 -0.4176
  917MOL0     N23677   0.875   3.524   9.037 -0.6982  0.2791 -0.0433
  917MOL0     C23678   0.870   3.395   8.983 -0.4680 -0.0851 -0.0809
  917MOL0     C23679   0.877   3.405   8.850  0.0292 -0.4161 -0.2623
  917MOL0     C23680   0.886   3.280   8.764 -0.4710  0.2683  0.7109
  917MOL0     C23681   0.997   3.301   8.662 -0.4929  0.3009 -1.1470
  917MOL0     C23682   1.051   3.186   8.584  0.0653 -0.5061 -0.3765
  917MOL0     C23683   0.939   3.112   8.518 -0.2226  0.5312 -0.4547
  917MOL0     O23684   0.997   2.998   8.458  0.1874 -1.0769  0.2081
  917MOL0     C23685   0.974   2.877   8.517 -0.5273 -0.5568  0.0208
  917MOL0     C23686   1.009   2.768   8.432 -0.8121  0.0833 -0.5607
  917MOL0     C23687   1.000   2.642   8.474 -0.3881 -0.2637 -0.9556
  917MOL0     C23688   0.960   2.608   8.608  0.9072  0.0838 -0.4421
  917MOL0     C23689   0.956   2.465   8.653  0.0037 -0.3736 -0.0558
  917MOL0     O23690   1.020   2.366   8.577  0.2384  0.3225 -0.9072
  917MOL0     C23691   1.039   2.239   8.629 -0.2956  0.6979  0.3252
  917MOL0     C23692   0.960   2.175   8.727  0.7505  0.5577  1.1113
  917MOL0     C23693   0.982   2.045   8.774 -0.1942 -0.7412  0.7163
  917MOL0     C23694   1.072   1.962   8.700 -0.3400 -0.4897  0.2371
  917MOL0     O23695   1.113   1.831   8.726 -0.0206 -0.4906 -0.1730
  917MOL0     C23696   1.043   1.765   8.833  0.1697 -0.5303 -0.4952
  917MOL0     C23697   1.097   1.622   8.869  0.2314  0.1027 -0.2491
  917MOL0     C23698   1.234   1.652   8.943  0.2095 -0.6913 -0.4840
  917MOL0     C23699   1.323   1.531   8.954  0.4115 -0.2771  0.2627
  917MOL0     C23700   1.466   1.567   8.996  0.4641 -0.3426  0.6155
  917MOL0     C23701   1.545   1.451   9.052  0.2141  0.2434  0.5549
  917MOL0     C23702   1.683   1.500   9.104  0.3394 -0.3584 -0.1346
  917MOL0     C23703   1.752   1.401   9.188 -0.1300  0.9212 -0.6618
  917MOL0    Cl23704   1.826   1.273   9.092 -0.2064 -0.0595  0.0666
  917MOL0     C23705   1.143   2.021   8.595 -0.5824 -0.5925 -1.6966
  917MOL0     C23706   1.129   2.156   8.563  0.2131  0.8104 -0.0552
  917MOL0     O23707   0.883   2.445   8.754 -0.3140 -0.7531 -0.0382
  917MOL0     C23708   0.923   2.712   8.692  0.4598 -0.1185 -0.5146
  917MOL0     C23709   0.934   2.844   8.647  0.1698 -0.0350 -0.6550
  917MOL0     N23710   0.890   3.541   8.830  0.4018 -0.2789  0.4526
  917MOL0     N23711   0.888   3.609   8.941  0.1241 -0.3794  0.1113
  917MOL0     C23712   1.126   3.183   9.104 -0.5437  0.0487 -0.6451
  917MOL0     C23713   1.176   3.131   8.980 -0.2272 -1.0024 -0.6356
  917MOL0     C23714   1.313   2.748   8.742 -0.6467  0.1085 -0.5291
  917MOL0     C23715   1.304   2.803   8.613  0.0707  0.6669 -0.8201
  917MOL0     C23716   1.331   2.727   8.504  0.1497 -0.6504  0.0283
  917MOL0     C23717   1.350   2.589   8.512 -0.3883  0.6911  0.4525
  917MOL0     O23718   1.385   2.531   8.390  0.0251 -0.2179 -0.3884
  917MOL0     C23719   1.404   2.387   8.380 -0.8004 -0.3875 -0.1065
  917MOL0     C23720   1.421   2.358   8.226 -0.2167  0.0933 -1.0397
  917MOL0     C23721   1.446   2.211   8.204  0.8805 -0.1761 -0.1477
  917MOL0     C23722   1.498   2.185   8.069  0.3170 -0.0678 -0.7674
  917MOL0     C23723   1.423   2.220   7.946  0.3685 -0.1446 -0.0272
  917MOL0     C23724   1.382   2.259   7.835 -0.2240  0.2140 -0.5709
  917MOL0     C23725   1.344   2.532   8.638  0.6416 -0.6467 -0.5285
  917MOL0     C23726   1.315   2.605   8.757  0.5890  0.1425 -0.4839
  917MOL0     C23727   1.277   2.533   8.890 -0.0629 -1.2585  0.6225
  917MOL0     H23728   1.047   2.823   9.020 -2.3024  1.1976 -1.1759
  917MOL0     H23729   0.980   2.898   9.231  1.9702 -1.4052 -0.0963
  917MOL0     H23730   0.841   3.105   9.365 -0.3431  0.8358  0.5273
  917MOL0     H23731   0.972   2.997   9.418 -0.4274 -0.0741 -0.4405
  917MOL0     H23732   1.033   3.137   9.602 -0.3394  1.3983  0.3631
  917MOL0     H23733   0.858   3.143   9.619  2.8339 -0.3906  3.5692
  917MOL0     H23734   1.038   3.346   9.461 -1.2966 -0.2913 -1.9139
  917MOL0     H23735   0.986   3.357   9.626  4.2411 -0.9232 -0.8972
  917MOL0     H23736   0.783   3.334   9.393  1.7466  0.5114 -1.7640
  917MOL0     H23737   0.748   3.353   9.569  0.8374 -1.3522  1.2079
  917MOL0     H23738   0.724   3.572   9.432  0.0518  2.5947  2.9212
  917MOL0     H23739   0.815   3.570   9.575 -2.1078 -1.3857  0.4383
  917MOL0     H23740   0.956   3.698   9.412  4.1148 -0.1138  0.2603
  917MOL0     H23741   1.043   3.567   9.465  0.8797  1.6542 -0.1669
  917MOL0     H23742   0.988   3.430   9.256 -1.7450 -0.8642 -2.4264
  917MOL0     H23743   1.078   3.567   9.227  1.6868 -2.1537  3.5202
  917MOL0     H23744   0.779   3.516   9.216 -0.6778 -1.0230 -1.3342
  917MOL0     H23745   0.851   3.680   9.160  3.3121  0.2624 -4.6440
  917MOL0     H23746   0.867   3.300   9.036  1.5497 -0.6362 -0.8697
  917MOL0     H23747   0.906   3.196   8.830  0.2159 -0.3901 -0.3138
  917MOL0     H23748   0.792   3.263   8.711  0.4343  0.0314 -0.8978
  917MOL0     H23749   0.958   3.379   8.596 -1.9582  0.5709 -0.0243
  917MOL0     H23750   1.079   3.349   8.716 -0.3240 -2.1469  0.9713
  917MOL0     H23751   1.100   3.125   8.661 -0.0683  1.7989  1.6606
  917MOL0     H23752   1.131   3.222   8.519 -0.3670 -2.3842 -2.0352
  917MOL0     H23753   0.897   3.170   8.436 -5.5415 -1.9479  0.0945
  917MOL0     H23754   0.866   3.079   8.592  2.3318 -1.7380  1.2709
  917MOL0     H23755   1.047   2.796   8.334  1.3926  0.9330  0.4687
  917MOL0     H23756   1.047   2.573   8.405 -1.0059 -1.3512 -0.3145
  917MOL0     H23757   0.866   2.216   8.763 -1.1760 -1.6211 -1.0190
  917MOL0     H23758   0.924   2.012   8.859  2.5079  0.1470  3.0329
  917MOL0     H23759   1.049   1.824   8.925 -0.0154  2.3235 -2.1816
  917MOL0     H23760   0.935   1.754   8.818  0.1897  1.4350 -2.5255
  917MOL0     H23761   1.028   1.557   8.922 -3.4088  0.3697 -4.1362
  917MOL0     H23762   1.110   1.576   8.770  1.7296 -1.4546  0.6266
  917MOL0     H23763   1.289   1.722   8.880 -0.4142 -1.2711 -1.7164
  917MOL0     H23764   1.226   1.713   9.033 -1.9017  3.1737 -3.0313
  917MOL0     H23765   1.318   1.484   8.856  0.0712 -1.9686  1.0643
  917MOL0     H23766   1.283   1.462   9.028 -0.3724  0.9404  1.0191
  917MOL0     H23767   1.457   1.651   9.065 -0.8503  0.6468 -0.6961
  917MOL0     H23768   1.528   1.603   8.913 -1.6991 -3.0120 -2.4265
  917MOL0     H23769   1.483   1.414   9.135 -1.9537  1.0561 -0.5997
  917MOL0     H23770   1.567   1.380   8.973 -1.3615  0.7702 -0.4107
  917MOL0     H23771   1.651   1.586   9.164 -3.6477 -1.4345 -0.4347
  917MOL0     H23772   1.742   1.520   9.013  0.3437 -1.9536 -0.5047
  917MOL0     H23773   1.830   1.463   9.235  0.4836  0.1314 -0.6125
  917MOL0     H23774   1.694   1.358   9.270  1.6320  0.1902  0.2503
  917MOL0     H23775   1.206   1.956   8.535 -0.7456 -1.1129 -1.3133
  917MOL0     H23776   1.180   2.203   8.480  2.5304  2.1315  1.9917
  917MOL0     H23777   0.890   2.689   8.793  1.3150 -0.5229 -0.3211
  917MOL0     H23778   0.921   2.918   8.725  2.6502  2.2250 -2.2291
  917MOL0     H23779   1.160   3.280   9.139  4.3263 -1.6248  0.0273
  917MOL0     H23780   1.235   3.193   8.914  2.9164 -3.0056  0.0722
  917MOL0     H23781   1.292   2.911   8.609 -1.2906  0.5840  0.2615
  917MOL0     H23782   1.325   2.760   8.400  1.6048 -3.5443 -1.0834
  917MOL0     H23783   1.324   2.320   8.412  1.3978 -2.2615  1.7239
  917MOL0     H23784   1.493   2.345   8.426  0.6314  2.4075 -0.1212
  917MOL0     H23785   1.509   2.411   8.188  0.8132 -2.7054 -2.8413
  917MOL0     H23786   1.326   2.392   8.186 -2.4273 -3.2051  0.9008
  917MOL0     H23787   1.347   2.171   8.225  0.1901  1.7988  0.5694
  917MOL0     H23788   1.512   2.165   8.278 -3.7053 -0.3474  4.3603
  917MOL0     H23789   1.603   2.212   8.059 -0.0695  1.3704 -1.2663
  917MOL0     H23790   1.504   2.076   8.069 -0.6231 -0.1282 -0.4954
  917MOL0     H23791   1.353   2.311   7.746 -2.6673  1.5931  0.9095
  917MOL0     H23792   1.342   2.425   8.654 -2.6925 -0.1620  4.0039
  917MOL0     H23793   1.274   2.425   8.876 -1.5565 -1.4829  2.3378
  917MOL0     H23794   1.356   2.556   8.962  0.5058 -0.9327 -0.0977
  917MOL0     H23795   1.172   2.555   8.913 -0.9127 -0.2578 -3.5133
  918MOL0     O23796   0.745  11.126   3.925 -0.4946  0.0125 -0.5314
  918MOL0     C23797   0.840  11.201   3.901  0.5798  0.6325  0.1529
  918MOL0     O23798   0.897  11.216   3.774  0.3514 -1.0039 -0.1190
  918MOL0     C23799   0.841  11.164   3.660  0.0398  0.7667 -0.4380
  918MOL0     C23800   0.784  11.035   3.649  0.5093 -0.1674  0.3423
  918MOL0     C23801   0.749  10.993   3.511 -0.5559  1.0459 -0.0698
  918MOL0     C23802   0.771  11.059   3.392  0.7328  0.2229  0.6369
  918MOL0     O23803   0.740  11.001   3.274 -0.1642 -0.0517  0.3045
  918MOL0     C23804   0.810  11.041   3.149 -0.1227 -0.5097  0.2514
  918MOL0     C23805   0.764  10.964   3.029 -0.6159 -0.6960 -0.4053
  918MOL0     C23806   0.865  10.857   2.993  0.1323 -0.0507 -0.5407
  918MOL0     C23807   0.882  10.755   3.114 -0.1081 -0.1477 -0.4329
  918MOL0     C23808   0.757  10.671   3.151  0.0379  0.4965 -0.0816
  918MOL0     C23809   0.792  10.581   3.272 -0.1169  0.7028 -0.6384
  918MOL0     C23810   0.703  10.466   3.307  0.4398 -0.6883 -0.4266
  918MOL0     C23811   0.725  10.400   3.445  1.2679  0.2315  0.6897
  918MOL0     N23812   0.695  10.493   3.558 -0.9138 -0.1099 -0.1081
  918MOL0     C23813   0.570  10.545   3.584 -0.4112  0.2428 -0.3939
  918MOL0     C23814   0.578  10.619   3.697  0.1011 -0.5343  0.4883
  918MOL0     C23815   0.459  10.682   3.767 -0.5492 -0.4616  0.1789
  918MOL0     C23816   0.485  10.835   3.795  0.1690  0.3455  0.0257
  918MOL0     C23817   0.356  10.897   3.835  0.1944 -0.2155 -1.0382
  918MOL0     C23818   0.320  10.877   3.982  0.2840 -0.0886 -1.2847
  918MOL0     O23819   0.212  10.966   4.023  0.0948  0.4166  0.0992
  918MOL0     C23820   0.178  10.951   4.154  0.1470  0.0730 -0.2713
  918MOL0     C23821   0.218  10.858   4.248  0.5009 -0.4205  0.9029
  918MOL0     C23822   0.182  10.878   4.384  0.9077 -0.8091 -0.1808
  918MOL0     C23823   0.098  10.987   4.429 -0.8716  0.1200 -0.1810
  918MOL0     C23824   0.065  11.024   4.569 -0.8494  0.3219  0.5296
  918MOL0     O23825  -0.025  11.132   4.583 -0.0654  0.5174  0.0605
  918MOL0     C23826  -0.059  11.150   4.716  0.2432 -0.0377  0.1839
  918MOL0     C23827  -0.172  11.069   4.764 -0.0795 -0.2435  1.0246
  918MOL0     C23828  -0.220  11.090   4.892 -0.2176 -0.9572 -1.5709
  918MOL0     C23829  -0.154  11.195   4.967  0.0814  0.1806 -0.1328
  918MOL0     O23830  -0.170  11.204   5.109 -0.7742 -0.5836  0.7304
  918MOL0     C23831  -0.306  11.222   5.146 -0.2188  0.7581  0.2733
  918MOL0     C23832  -0.335  11.337   5.246 -0.2654 -0.5679 -0.2434
  918MOL0     C23833  -0.276  11.301   5.384 -0.3043  0.2571  0.6790
  918MOL0     C23834  -0.222  11.432   5.459  0.8195  0.0389 -0.8397
  918MOL0     C23835  -0.133  11.372   5.590  0.2602  0.3636 -0.4856
  918MOL0     C23836  -0.075  11.498   5.654 -0.0107  0.8929 -0.2918
  918MOL0     C23837  -0.053  11.481   5.807 -0.2512 -0.1936  1.0048
  918MOL0     C23838   0.047  11.576   5.873  0.3890 -0.0281 -0.8378
  918MOL0    Cl23839   0.218  11.514   5.837  0.3727  0.6821  0.2686
  918MOL0     C23840  -0.053  11.273   4.915  0.3622  0.1419  0.4146
  918MOL0     C23841  -0.006  11.254   4.789  0.2769 -0.3716 -0.3686
  918MOL0     O23842   0.125  10.963   4.657  0.5333 -0.2023  0.4966
  918MOL0     C23843   0.059  11.070   4.327  0.6533 -1.3806 -0.2017
  918MOL0     C23844   0.089  11.050   4.193 -0.2083  0.2836  0.3406
  918MOL0     N23845   0.714  10.609   3.739 -0.1785  0.3076 -0.2446
  918MOL0     N23846   0.783  10.543   3.645 -0.0226 -0.3171  0.4841
  918MOL0     C23847   0.849  11.175   3.413  0.9360 -0.2224 -0.4420
  918MOL0     C23848   0.873  11.229   3.542  0.4094  0.5167  0.5308
  918MOL0     C23849   0.901  11.270   4.020  0.5386 -0.7879  0.9615
  918MOL0     C23850   0.986  11.377   3.982  0.7759  0.1340 -0.2203
  918MOL0     C23851   1.069  11.432   4.077 -0.3347 -0.5029  0.8882
  918MOL0     C23852   1.056  11.399   4.209 -0.1399  0.6732  0.2886
  918MOL0     O23853   1.138  11.451   4.301  1.0942  0.0452  0.0601
  918MOL0     C23854   1.067  11.569   4.345  0.1741 -0.2151 -0.2422
  918MOL0     C23855   1.117  11.615   4.480  0.3286  0.6149 -0.7943
  918MOL0     C23856   1.230  11.715   4.468 -0.6555 -0.5936  0.3092
  918MOL0     C23857   1.255  11.790   4.606 -0.2309 -0.5244  0.1781
  918MOL0     C23858   1.336  11.708   4.694 -0.4655 -0.3010 -0.3984
  918MOL0     C23859   1.399  11.652   4.776 -1.1523  0.2624  0.1142
  918MOL0     C23860   0.958  11.308   4.246  0.8819 -0.2700  0.2053
  918MOL0     C23861   0.879  11.239   4.157  1.1717  0.5347 -0.2673
  918MOL0     C23862   0.793  11.125   4.205 -0.3955 -0.1233 -0.0560
  918MOL0     H23863   0.764  10.979   3.739  2.5143 -0.4158  0.6850
  918MOL0     H23864   0.703  10.895   3.499 -2.9804  1.9233  1.3930
  918MOL0     H23865   0.802  11.150   3.136  3.4095 -0.1654  0.1998
  918MOL0     H23866   0.918  11.036   3.159  0.0757  3.0027  1.3481
  918MOL0     H23867   0.739  11.030   2.945 -2.5834 -0.5001  0.2692
  918MOL0     H23868   0.676  10.902   3.049  0.8491 -4.4933 -4.2326
  918MOL0     H23869   0.961  10.901   2.966  0.5628 -0.0008  0.9504
  918MOL0     H23870   0.832  10.805   2.903  0.6014  0.4297 -0.9962
  918MOL0     H23871   0.969  10.693   3.089  2.2541  3.1889 -1.2197
  918MOL0     H23872   0.910  10.813   3.203 -0.9618  0.5681 -0.6127
  918MOL0     H23873   0.682  10.742   3.186  1.4166  3.4620 -2.6587
  918MOL0     H23874   0.719  10.614   3.066  0.6325  1.4018 -0.9792
  918MOL0     H23875   0.889  10.536   3.246 -0.8384 -2.4095  1.4877
  918MOL0     H23876   0.798  10.646   3.359  1.2111  0.9524 -0.8924
  918MOL0     H23877   0.705  10.393   3.226  1.0184 -2.5900  1.2370
  918MOL0     H23878   0.601  10.506   3.305  0.8411  0.4196 -2.4431
  918MOL0     H23879   0.674  10.305   3.461  0.6901  0.2965 -0.6639
  918MOL0     H23880   0.834  10.390   3.457  1.0945  0.4013  2.7930
  918MOL0     H23881   0.490  10.544   3.510  0.6828  1.3619 -1.6597
  918MOL0     H23882   0.372  10.673   3.701  0.9412 -2.5050 -1.6444
  918MOL0     H23883   0.442  10.636   3.865  2.9104 -1.6399  0.3693
  918MOL0     H23884   0.561  10.832   3.873 -1.3195  1.1562  1.5793
  918MOL0     H23885   0.522  10.888   3.706  1.1633 -0.8359 -0.2923
  918MOL0     H23886   0.268  10.859   3.781  0.4462  1.0446 -2.3876
  918MOL0     H23887   0.370  11.005   3.828 -0.1656  0.2856  3.2213
  918MOL0     H23888   0.396  10.904   4.055  0.3702 -0.8323 -1.0922
  918MOL0     H23889   0.292  10.772   3.990 -5.4350  1.2087  0.4538
  918MOL0     H23890   0.268  10.765   4.222  1.9012  0.6845 -0.5123
  918MOL0     H23891   0.220  10.819   4.467 -0.9278 -1.4684  0.2377
  918MOL0     H23892  -0.222  10.998   4.700  1.2562  1.8167 -2.6253
  918MOL0     H23893  -0.280  11.025   4.954  1.4152  0.6527  1.9506
  918MOL0     H23894  -0.367  11.243   5.058  0.3928 -3.2901 -1.3426
  918MOL0     H23895  -0.337  11.129   5.194  0.0641 -0.5236 -1.8677
  918MOL0     H23896  -0.289  11.427   5.203  0.7929  0.3383  2.5513
  918MOL0     H23897  -0.443  11.352   5.257  0.2011  2.5658  0.8658
  918MOL0     H23898  -0.352  11.249   5.443  0.2627  0.3141  1.4729
  918MOL0     H23899  -0.199  11.223   5.379  0.1525  0.7086  0.5681
  918MOL0     H23900  -0.301  11.504   5.481  0.6387 -0.0221 -1.2879
  918MOL0     H23901  -0.160  11.485   5.386 -1.3605  1.6977 -1.5627
  918MOL0     H23902  -0.060  11.294   5.566 -3.1666 -2.3965 -3.0127
  918MOL0     H23903  -0.204  11.319   5.654  1.5321 -0.4809  0.2780
  918MOL0     H23904   0.017  11.516   5.599 -0.5840 -2.0669 -2.4849
  918MOL0     H23905  -0.143  11.583   5.646  0.0575  1.2929  2.4600
  918MOL0     H23906  -0.032  11.379   5.840 -0.6920  0.0710  2.1233
  918MOL0     H23907  -0.150  11.489   5.857 -0.6265 -3.7109  1.1013
  918MOL0     H23908   0.039  11.678   5.834  2.5144  1.1107  1.3746
  918MOL0     H23909   0.013  11.576   5.978  3.0425 -0.3365  0.0980
  918MOL0     H23910  -0.014  11.355   4.974  1.7118  1.0953 -1.6602
  918MOL0     H23911   0.068  11.315   4.739  0.0002  0.0121 -0.3157
  918MOL0     H23912   0.019  11.167   4.353  1.8801 -0.6331 -0.9616
  918MOL0     H23913   0.049  11.118   4.118  0.9762 -0.7911 -1.3525
  918MOL0     H23914   0.865  11.232   3.322 -3.0145 -1.2910 -2.0301
  918MOL0     H23915   0.928  11.322   3.556 -1.4243  1.4876  1.8313
  918MOL0     H23916   0.983  11.404   3.877  1.6666 -0.7312 -0.4683
  918MOL0     H23917   1.151  11.494   4.041 -0.5221  0.2844  1.7624
  918MOL0     H23918   0.960  11.558   4.360  0.3621 -2.0910 -0.0960
  918MOL0     H23919   1.082  11.643   4.266 -2.0174 -1.4960 -1.9799
  918MOL0     H23920   1.158  11.530   4.535 -0.8611  1.0224  0.8093
  918MOL0     H23921   1.030  11.656   4.533  0.7907 -0.7609  1.1255
  918MOL0     H23922   1.205  11.798   4.402 -1.9367 -2.0372 -1.1328
  918MOL0     H23923   1.320  11.668   4.429 -1.4569  0.3576 -3.0214
  918MOL0     H23924   1.293  11.889   4.582 -0.8536 -1.0096 -3.2882
  918MOL0     H23925   1.161  11.806   4.659  1.6076  3.7202  2.6326
  918MOL0     H23926   1.455  11.608   4.856 -1.9076  0.3323  0.6891
  918MOL0     H23927   0.960  11.283   4.351  5.8442 -2.2795 -0.0852
  918MOL0     H23928   0.808  11.109   4.312  1.8354 -0.4760 -0.3768
  918MOL0     H23929   0.686  11.152   4.202  0.1680  2.4253 -0.0277
  918MOL0     H23930   0.820  11.036   4.149 -2.6894 -0.3337 -0.9341
  919MOL0     O23931   9.120   7.491   6.598 -0.1061  0.4398  0.0810
  919MOL0     C23932   9.195   7.398   6.569 -0.2897 -0.6712  0.5326
  919MOL0     O23933   9.293   7.350   6.650 -0.7885  0.1789 -0.7663
  919MOL0     C23934   9.321   7.424   6.766 -0.3650  0.0605  0.4519
  919MOL0     C23935   9.353   7.556   6.754  0.6898 -0.0329 -1.4734
  919MOL0     C23936   9.390   7.631   6.865 -0.7697 -0.3196 -1.0369
  919MOL0     C23937   9.396   7.574   6.991 -0.4131  0.5231 -0.2404
  919MOL0     O23938   9.401   7.645   7.112  0.3133  0.6826 -0.4825
  919MOL0     C23939   9.366   7.783   7.106 -0.5399  0.3829 -0.0735
  919MOL0     C23940   9.451   7.863   7.201 -0.3237  0.7244 -0.6267
  919MOL0     C23941   9.606   7.846   7.171  0.2021  0.0080  0.2602
  919MOL0     C23942   9.679   7.960   7.246 -0.2613  0.7356  0.2795
  919MOL0     C23943   9.830   7.973   7.209  0.0566  0.2110 -0.4922
  919MOL0     C23944   9.919   7.890   7.309 -0.5661 -0.0406  0.4249
  919MOL0     C23945  10.073   7.899   7.261 -0.3025 -0.9090 -0.2261
  919MOL0     C23946  10.153   7.806   7.346  0.2600 -0.8433 -0.0996
  919MOL0     N23947  10.159   7.682   7.282 -0.1515  0.6155  0.3822
  919MOL0     C23948  10.202   7.667   7.152  0.1275  0.0371  0.2484
  919MOL0     C23949  10.173   7.539   7.123  1.0958 -0.5172  0.5786
  919MOL0     C23950  10.203   7.454   6.998  0.0349 -0.3481  0.5553
  919MOL0     C23951  10.243   7.518   6.866  0.3861  1.0183  0.3024
  919MOL0     C23952  10.222   7.431   6.739  0.5016  0.5294  0.3810
  919MOL0     C23953  10.079   7.441   6.695 -0.1459 -0.8888  0.1085
  919MOL0     O23954  10.072   7.567   6.622  0.2495 -0.2171 -0.0691
  919MOL0     C23955   9.977   7.583   6.529 -0.9089  0.3741 -0.5489
  919MOL0     C23956   9.855   7.510   6.526 -1.2462  1.1337 -0.3910
  919MOL0     C23957   9.751   7.528   6.442  1.1092  0.7166  0.3685
  919MOL0     C23958   9.765   7.618   6.334 -0.2008  0.8523  1.1008
  919MOL0     C23959   9.662   7.623   6.216 -0.6689 -0.4838 -0.9730
  919MOL0     O23960   9.537   7.579   6.248 -1.3937  0.0393 -0.0435
  919MOL0     C23961   9.455   7.571   6.134  0.3184  0.8329 -0.4889
  919MOL0     C23962   9.323   7.594   6.161  0.0679 -0.9178  0.0517
  919MOL0     C23963   9.220   7.577   6.068  0.6159  0.2094  0.5760
  919MOL0     C23964   9.252   7.540   5.935 -0.2699  0.3040  0.1948
  919MOL0     O23965   9.167   7.535   5.830 -0.4279 -0.2245 -0.1103
  919MOL0     C23966   9.042   7.609   5.835  0.2368 -0.2583 -0.0987
  919MOL0     C23967   9.008   7.616   5.684  0.1277  0.1936  0.2254
  919MOL0     C23968   9.072   7.715   5.590 -0.1436  0.2151 -0.6394
  919MOL0     C23969   9.075   7.861   5.635 -0.0601 -0.2016 -1.2553
  919MOL0     C23970   9.169   7.937   5.546 -0.7096  0.3405 -0.7580
  919MOL0     C23971   9.257   8.052   5.616  0.0239  0.3309  0.2491
  919MOL0     C23972   9.406   8.052   5.568 -0.1167  0.6547 -0.5515
  919MOL0     C23973   9.428   8.126   5.439 -0.1547  0.8094  0.9199
  919MOL0    Cl23974   9.425   8.307   5.450 -0.1714 -0.1084 -0.6307
  919MOL0     C23975   9.386   7.502   5.912  0.2256  0.0510  0.0950
  919MOL0     C23976   9.483   7.522   6.006 -0.0130  0.5463  0.1920
  919MOL0     O23977   9.703   7.657   6.106 -0.3740  0.1894  1.0243
  919MOL0     C23978   9.887   7.688   6.322  0.3730 -0.0856 -0.3059
  919MOL0     C23979   9.988   7.679   6.428  0.4573 -0.3326  1.1077
  919MOL0     N23980  10.119   7.483   7.239 -0.4241 -1.0949 -0.0710
  919MOL0     N23981  10.122   7.559   7.342  0.2483 -0.4298 -0.8051
  919MOL0     C23982   9.375   7.443   7.001  0.1965  0.5555 -0.9385
  919MOL0     C23983   9.325   7.363   6.892 -0.7107  0.3784  0.1331
  919MOL0     C23984   9.162   7.341   6.432 -0.3023  0.4273 -0.2164
  919MOL0     C23985   9.259   7.253   6.377  0.5648  0.3296  0.0716
  919MOL0     C23986   9.231   7.195   6.251  0.5734  0.1461 -0.5193
  919MOL0     C23987   9.118   7.224   6.183 -0.6816  1.2230 -0.0671
  919MOL0     O23988   9.090   7.155   6.075  0.2862 -0.0566  0.6906
  919MOL0     C23989   9.115   7.223   5.955  0.2397 -0.2136 -0.7369
  919MOL0     C23990   9.157   7.132   5.841  0.0382 -0.0558 -0.1617
  919MOL0     C23991   9.193   7.194   5.707 -0.6913  0.2758  0.4755
  919MOL0     C23992   9.250   7.094   5.612 -0.5009  0.4284 -0.0115
  919MOL0     C23993   9.391   7.083   5.645  0.3209  0.2259  0.5604
  919MOL0     C23994   9.508   7.106   5.663 -0.0072 -0.0157  0.2532
  919MOL0     C23995   9.023   7.313   6.236 -0.6879  0.1283 -0.5240
  919MOL0     C23996   9.042   7.371   6.361 -0.1001  0.6643 -0.9796
  919MOL0     C23997   8.926   7.452   6.416 -0.9280 -0.5822  0.7893
  919MOL0     H23998   9.349   7.605   6.657  2.4025  1.6507 -0.7621
  919MOL0     H23999   9.427   7.729   6.835 -1.3947  1.1806  2.6666
  919MOL0     H24000   9.387   7.820   7.006 -0.4882  0.5353 -0.0057
  919MOL0     H24001   9.260   7.806   7.117 -0.1026  2.4940  0.0506
  919MOL0     H24002   9.441   7.826   7.303  1.8012  3.0588  0.5277
  919MOL0     H24003   9.417   7.967   7.201 -2.8500  0.0512  2.3949
  919MOL0     H24004   9.618   7.871   7.065  1.4805  2.2224  0.8608
  919MOL0     H24005   9.647   7.750   7.205  0.6710  0.9824  2.6774
  919MOL0     H24006   9.640   8.056   7.211  2.2045  0.7504 -2.9106
  919MOL0     H24007   9.660   7.942   7.352  1.4176 -0.7167  0.3670
  919MOL0     H24008   9.850   7.946   7.104  2.1405  0.9584 -0.3276
  919MOL0     H24009   9.861   8.077   7.218 -0.1550  0.2200  0.1308
  919MOL0     H24010   9.916   7.939   7.407  0.1476 -0.9859  0.9434
  919MOL0     H24011   9.887   7.786   7.317 -2.6162  0.5043 -0.1010
  919MOL0     H24012  10.115   7.999   7.280 -1.8653 -0.6325  2.2848
  919MOL0     H24013  10.076   7.883   7.153 -1.2398 -1.0743 -0.2362
  919MOL0     H24014  10.251   7.850   7.368  0.2756 -2.2294  3.1443
  919MOL0     H24015  10.115   7.777   7.444 -0.0426 -1.8271 -0.4922
  919MOL0     H24016  10.245   7.745   7.091 -1.9071  1.9296  1.0672
  919MOL0     H24017  10.276   7.379   7.032 -2.2417 -2.4276  1.1198
  919MOL0     H24018  10.117   7.392   6.970 -0.2598  0.1565  0.3431
  919MOL0     H24019  10.188   7.613   6.856 -5.1230 -1.9265 -1.2513
  919MOL0     H24020  10.351   7.538   6.871  0.3213  1.4089  0.2080
  919MOL0     H24021  10.245   7.327   6.764 -3.6154 -0.3808  1.0886
  919MOL0     H24022  10.287   7.465   6.658  0.9571 -1.1843 -0.0098
  919MOL0     H24023  10.009   7.429   6.777 -0.9842 -2.4815 -0.7922
  919MOL0     H24024  10.047   7.359   6.629  0.6589 -1.4846  0.4470
  919MOL0     H24025   9.840   7.445   6.612 -0.4331 -0.3919 -1.3505
  919MOL0     H24026   9.654   7.481   6.455  1.7034 -1.8217 -3.0897
  919MOL0     H24027   9.291   7.616   6.262 -0.4614  2.1143 -0.6916
  919MOL0     H24028   9.114   7.585   6.084  0.0397 -0.1747 -2.3871
  919MOL0     H24029   8.978   7.548   5.900  1.1557  0.3443  1.4354
  919MOL0     H24030   9.042   7.710   5.878 -0.7559  0.2354 -1.2077
  919MOL0     H24031   9.033   7.515   5.652  2.8133 -0.0397  2.6252
  919MOL0     H24032   8.901   7.631   5.667  0.0591 -0.2058  0.2949
  919MOL0     H24033   9.174   7.681   5.572  2.1182  1.5215  6.5672
  919MOL0     H24034   9.010   7.706   5.500 -2.6701  1.9465  0.7689
  919MOL0     H24035   9.110   7.869   5.738 -0.7809  0.7835 -1.0648
  919MOL0     H24036   8.976   7.906   5.623 -0.1166 -0.7678 -3.2817
  919MOL0     H24037   9.112   7.981   5.463  2.5915  3.5438 -1.6118
  919MOL0     H24038   9.234   7.865   5.495  0.8480  1.0497  0.1441
  919MOL0     H24039   9.202   8.145   5.602 -1.2537 -0.1006  2.0231
  919MOL0     H24040   9.249   8.038   5.725  5.4026 -0.6058  0.7820
  919MOL0     H24041   9.433   7.949   5.544 -3.1310 -0.1009 -1.1889
  919MOL0     H24042   9.472   8.075   5.652 -0.5532 -1.2845  0.3881
  919MOL0     H24043   9.526   8.099   5.400 -0.8639  0.2554 -0.5647
  919MOL0     H24044   9.365   8.090   5.357 -1.5523 -1.4276  2.8330
  919MOL0     H24045   9.413   7.455   5.818 -0.0396 -1.0595  0.5566
  919MOL0     H24046   9.587   7.490   5.998 -0.0063  0.4599  0.6175
  919MOL0     H24047   9.905   7.749   6.235  0.3905 -1.7330 -1.5007
  919MOL0     H24048  10.080   7.737   6.421 -0.6572  1.3260 -2.4735
  919MOL0     H24049   9.380   7.406   7.103  1.0608  2.0217 -0.4180
  919MOL0     H24050   9.301   7.257   6.890  0.3129  0.1511 -0.8498
  919MOL0     H24051   9.352   7.222   6.425 -0.7877 -0.9347  2.0432
  919MOL0     H24052   9.306   7.126   6.213  1.2759  0.4118  0.3326
  919MOL0     H24053   9.184   7.307   5.971  0.8914 -0.2518 -3.0959
  919MOL0     H24054   9.021   7.266   5.921 -0.4877 -2.7295 -2.1510
  919MOL0     H24055   9.074   7.061   5.829  0.2886 -0.3695 -0.0324
  919MOL0     H24056   9.247   7.087   5.882  0.1869 -0.2517 -0.6949
  919MOL0     H24057   9.267   7.271   5.729  1.1777 -0.5196 -2.4007
  919MOL0     H24058   9.106   7.244   5.664 -1.4615  1.4418  3.1611
  919MOL0     H24059   9.212   6.991   5.622  3.0244 -1.1743 -1.5192
  919MOL0     H24060   9.238   7.133   5.510  0.1510 -0.5599 -0.4783
  919MOL0     H24061   9.612   7.128   5.651 -0.7210  2.9962 -1.3270
  919MOL0     H24062   8.933   7.337   6.180 -0.7105  1.6617  0.1257
  919MOL0     H24063   8.956   7.557   6.410  0.0092 -0.8966 -0.7605
  919MOL0     H24064   8.849   7.441   6.339  1.3206  4.5102 -2.7670
  919MOL0     H24065   8.894   7.414   6.513 -1.9892 -2.6681 -0.3018
  920MOL0     O24066   3.379  10.987   1.793 -0.4821  0.0660  0.6962
  920MOL0     C24067   3.418  10.965   1.910  0.1405 -0.6230  0.5195
  920MOL0     O24068   3.345  10.914   2.009 -0.1489 -0.4396  0.3484
  920MOL0     C24069   3.209  10.889   2.009 -1.3673 -0.2777 -0.2105
  920MOL0     C24070   3.122  10.893   1.899  0.8575  0.1650  0.2590
  920MOL0     C24071   2.981  10.872   1.906 -0.2610  0.0345 -0.3018
  920MOL0     C24072   2.923  10.852   2.030  0.0361 -0.2982  1.1583
  920MOL0     O24073   2.788  10.845   2.025  1.1274  0.2797  0.4424
  920MOL0     C24074   2.714  10.809   2.147 -0.5942  0.7990  1.4195
  920MOL0     C24075   2.571  10.756   2.100 -0.2465 -1.1824 -0.6466
  920MOL0     C24076   2.505  10.711   2.231  0.9354  0.1744  0.6581
  920MOL0     C24077   2.374  10.634   2.202 -0.4407  0.2885  0.2425
  920MOL0     C24078   2.259  10.703   2.111 -0.2293  1.0152 -1.0821
  920MOL0     C24079   2.134  10.616   2.098  0.1165 -0.0344  0.1419
  920MOL0     C24080   2.067  10.578   2.229 -0.3650 -0.3253  0.1559
  920MOL0     C24081   1.931  10.509   2.225 -0.4420  0.8031 -1.0688
  920MOL0     N24082   1.839  10.590   2.143 -0.2457 -0.2858 -0.0762
  920MOL0     C24083   1.779  10.708   2.182  0.7658 -0.2217 -0.7750
  920MOL0     C24084   1.730  10.764   2.069  0.5373 -0.1317 -0.7441
  920MOL0     C24085   1.666  10.902   2.065  0.8016 -0.7386 -0.0423
  920MOL0     C24086   1.523  10.892   2.120  0.3109  0.4089  0.0539
  920MOL0     C24087   1.432  11.005   2.061 -0.8778 -0.0917 -0.2796
  920MOL0     C24088   1.301  11.031   2.138 -0.1327 -0.7989 -1.0068
  920MOL0     O24089   1.200  10.940   2.089  0.8821  0.2425 -0.7403
  920MOL0     C24090   1.067  10.956   2.123 -0.0790  0.0417 -0.1908
  920MOL0     C24091   1.025  11.042   2.220 -0.1777 -0.6138  0.5705
  920MOL0     C24092   0.891  11.051   2.261 -0.1566 -0.1652 -0.3424
  920MOL0     C24093   0.791  10.969   2.198 -0.8922 -1.2189  0.9683
  920MOL0     C24094   0.652  10.974   2.251 -0.0038 -0.0101 -0.2122
  920MOL0     O24095   0.551  10.914   2.182  0.1532  0.1831 -0.5684
  920MOL0     C24096   0.424  10.970   2.210  0.0482  1.0084 -0.8708
  920MOL0     C24097   0.388  11.100   2.176 -0.6215 -0.2859  1.0545
  920MOL0     C24098   0.281  11.159   2.242 -0.9776 -0.8069  1.8972
  920MOL0     C24099   0.189  11.090   2.332 -0.0514  0.0838  0.7908
  920MOL0     O24100   0.078  11.154   2.370  0.6010 -0.5394 -0.5973
  920MOL0     C24101   0.051  11.164   2.509  0.6654  0.5704  0.0497
  920MOL0     C24102   0.153  11.257   2.575  0.4464 -0.5309 -1.2041
  920MOL0     C24103   0.168  11.399   2.505 -0.4108 -0.2927 -0.3007
  920MOL0     C24104   0.246  11.492   2.591 -0.3437 -0.1649  0.2646
  920MOL0     C24105   0.252  11.631   2.508 -0.3735  0.5954  0.3246
  920MOL0     C24106   0.344  11.734   2.563  0.3906  0.3344  0.4169
  920MOL0     C24107   0.364  11.844   2.470  0.4705  0.6052  0.2981
  920MOL0     C24108   0.479  11.935   2.512 -0.3895 -0.2942 -0.0621
  920MOL0    Cl24109   0.631  11.836   2.472  0.0920  0.3033 -0.0555
  920MOL0     C24110   0.218  10.955   2.347  0.5663 -0.4252  0.0788
  920MOL0     C24111   0.336  10.902   2.299 -0.2551  1.0186  0.2514
  920MOL0     O24112   0.629  11.040   2.357 -0.1969 -0.0017  0.1063
  920MOL0     C24113   0.836  10.897   2.086  1.6537  0.2983  0.5898
  920MOL0     C24114   0.970  10.887   2.045  0.0268  1.3045 -0.1579
  920MOL0     N24115   1.754  10.678   1.967  0.2894  0.6323  0.4604
  920MOL0     N24116   1.820  10.579   2.008  0.5825 -0.3855 -0.3219
  920MOL0     C24117   3.009  10.853   2.142  0.7621 -0.2004  0.0159
  920MOL0     C24118   3.147  10.880   2.137  0.7477  0.4287  0.7113
  920MOL0     C24119   3.559  10.994   1.948 -0.3727 -0.3163 -0.2378
  920MOL0     C24120   3.599  11.015   2.082 -0.2016 -0.2580  0.7866
  920MOL0     C24121   3.729  11.057   2.122 -0.4305  0.4401  0.1793
  920MOL0     C24122   3.831  11.068   2.029  0.1395  0.1767 -1.3134
  920MOL0     O24123   3.957  11.092   2.078 -0.5865 -0.4488 -0.1657
  920MOL0     C24124   4.069  11.087   1.981  1.0493 -0.3108 -0.3412
  920MOL0     C24125   4.203  11.120   2.037  0.2735  0.0927  0.2697
  920MOL0     C24126   4.309  11.145   1.930 -0.5903 -0.8547  0.4016
  920MOL0     C24127   4.302  11.285   1.895  0.1195 -1.4563 -0.7286
  920MOL0     C24128   4.430  11.318   1.824  0.5530  1.3288  0.1508
  920MOL0     C24129   4.534  11.332   1.766 -0.5686 -0.3382  0.0954
  920MOL0     C24130   3.800  11.034   1.896  0.2451 -0.5121  0.0355
  920MOL0     C24131   3.670  10.998   1.861 -1.0154  0.0297 -1.2856
  920MOL0     C24132   3.655  10.952   1.724  0.1896  0.0800  0.8033
  920MOL0     H24133   3.169  10.889   1.801 -0.7632  0.8542 -0.5762
  920MOL0     H24134   2.912  10.888   1.824 -0.7864  2.4427  0.5026
  920MOL0     H24135   2.764  10.729   2.202 -0.2930 -0.7642 -0.9937
  920MOL0     H24136   2.705  10.902   2.205 -2.5584  1.4475  0.1309
  920MOL0     H24137   2.602  10.674   2.034  2.2152 -0.5184 -0.4161
  920MOL0     H24138   2.518  10.836   2.048  0.1831 -0.4641  0.0093
  920MOL0     H24139   2.476  10.791   2.300  0.0322 -3.0722  4.4094
  920MOL0     H24140   2.574  10.643   2.282  2.9560  1.8799  0.3493
  920MOL0     H24141   2.412  10.545   2.151  3.0484  2.2808 -0.9474
  920MOL0     H24142   2.332  10.615   2.302  0.5479  1.4679  0.9050
  920MOL0     H24143   2.215  10.789   2.162 -2.3228 -0.4194 -0.3199
  920MOL0     H24144   2.286  10.727   2.008 -0.3789  1.0690 -1.1101
  920MOL0     H24145   2.067  10.671   2.032  2.0651 -0.7372 -2.5839
  920MOL0     H24146   2.149  10.529   2.034 -1.2055  1.1649 -1.9017
  920MOL0     H24147   2.045  10.674   2.277 -0.4140  0.0750 -0.6428
  920MOL0     H24148   2.141  10.524   2.288  3.2733  1.9600 -1.8647
  920MOL0     H24149   1.944  10.404   2.195 -0.3941  0.4491  0.1267
  920MOL0     H24150   1.904  10.501   2.330  1.7255  1.0758 -0.4370
  920MOL0     H24151   1.774  10.771   2.270 -1.0191  0.1150 -1.0922
  920MOL0     H24152   1.720  10.976   2.124 -2.3555  1.1596  0.6795
  920MOL0     H24153   1.645  10.934   1.962 -2.3711  3.0222  1.5063
  920MOL0     H24154   1.486  10.792   2.096 -1.0671  0.6998  0.8333
  920MOL0     H24155   1.522  10.895   2.229 -1.2039 -4.1701  0.3990
  920MOL0     H24156   1.404  10.960   1.965  0.3536 -1.3844 -0.0570
  920MOL0     H24157   1.485  11.101   2.058  0.1646 -0.6141  0.8212
  920MOL0     H24158   1.270  11.134   2.115 -0.7187 -0.4819  0.9938
  920MOL0     H24159   1.329  11.031   2.244  1.9649  1.8500 -1.4636
  920MOL0     H24160   1.080  11.123   2.267 -2.1607  0.8895  0.4464
  920MOL0     H24161   0.860  11.122   2.337 -1.0243  0.9444 -1.6983
  920MOL0     H24162   0.462  11.156   2.119 -1.0302 -0.7962  0.0054
  920MOL0     H24163   0.249  11.255   2.204 -2.1204 -1.4346  1.1857
  920MOL0     H24164  -0.049  11.209   2.518  0.1509 -0.8344  1.9310
  920MOL0     H24165   0.044  11.066   2.556  0.4011  1.6527  2.4402
  920MOL0     H24166   0.118  11.268   2.678  2.4946 -0.2149 -0.4899
  920MOL0     H24167   0.251  11.207   2.580  0.1527 -1.0262  0.1962
  920MOL0     H24168   0.208  11.370   2.408 -0.6765  0.4755 -0.6449
  920MOL0     H24169   0.067  11.427   2.473 -1.3908 -2.9385  0.2280
  920MOL0     H24170   0.345  11.447   2.606  0.5221  1.4389 -0.3365
  920MOL0     H24171   0.204  11.508   2.691  2.1505  2.5706  1.0198
  920MOL0     H24172   0.153  11.676   2.496 -0.2317  0.5791 -1.0340
  920MOL0     H24173   0.289  11.604   2.409 -5.2245 -0.2269 -1.5432
  920MOL0     H24174   0.307  11.780   2.655  0.3788 -1.0137  1.1073
  920MOL0     H24175   0.437  11.679   2.581 -0.0624 -1.2487 -1.7024
  920MOL0     H24176   0.269  11.898   2.476 -0.1093 -0.5346  2.6083
  920MOL0     H24177   0.397  11.810   2.372  2.4343 -1.1643  1.4998
  920MOL0     H24178   0.476  12.020   2.444 -0.3493  0.0670  0.3839
  920MOL0     H24179   0.490  11.967   2.616 -0.2636 -2.4047  0.6246
  920MOL0     H24180   0.142  10.906   2.407 -1.4603  2.6432  0.2447
  920MOL0     H24181   0.362  10.798   2.320  0.8262  1.0493 -0.8189
  920MOL0     H24182   0.761  10.830   2.044 -0.3044  1.0382  2.7404
  920MOL0     H24183   1.004  10.813   1.974  0.3652 -0.0635  1.3933
  920MOL0     H24184   2.962  10.842   2.240  1.3268 -1.8702  0.1223
  920MOL0     H24185   3.217  10.881   2.220 -0.1876 -2.4679  1.6627
  920MOL0     H24186   3.529  11.013   2.166  0.1769  1.0886  1.1519
  920MOL0     H24187   3.742  11.062   2.230 -1.6768 -1.3984  0.4680
  920MOL0     H24188   4.044  11.160   1.904  1.3794  0.9921  0.7485
  920MOL0     H24189   4.067  10.985   1.941  0.1957 -0.2440 -0.4750
  920MOL0     H24190   4.236  11.031   2.091  1.8330 -0.0213 -0.7960
  920MOL0     H24191   4.190  11.203   2.107 -0.4979  0.2921 -0.0924
  920MOL0     H24192   4.294  11.082   1.842 -0.0163  1.1410 -1.1956
  920MOL0     H24193   4.410  11.122   1.967  0.8157 -0.3335 -2.8206
  920MOL0     H24194   4.213  11.304   1.835 -1.2239 -1.6171  1.1444
  920MOL0     H24195   4.292  11.348   1.984 -2.0369 -2.6321 -0.0781
  920MOL0     H24196   4.621  11.343   1.704 -0.2822 -0.3892  0.4823
  920MOL0     H24197   3.881  11.023   1.825 -0.2050  2.3728 -1.0327
  920MOL0     H24198   3.753  10.935   1.680 -0.7053 -2.6998 -0.2953
  920MOL0     H24199   3.604  10.857   1.707 -2.2176  1.9494 -5.3736
  920MOL0     H24200   3.599  11.026   1.664  1.7817 -0.9671 -2.1815
  921MOL0     O24201   8.468   2.063   9.706 -0.2883  0.0321  0.0067
  921MOL0     C24202   8.366   2.073   9.772  0.3816  0.1690 -0.6976
  921MOL0     O24203   8.238   2.063   9.721 -0.6807 -0.5667  0.3971
  921MOL0     C24204   8.224   2.010   9.589 -0.4479 -0.2017  0.3423
  921MOL0     C24205   8.180   2.106   9.493 -0.4019 -0.1603  0.0445
  921MOL0     C24206   8.148   2.058   9.369 -0.2583  0.2610  0.9286
  921MOL0     C24207   8.170   1.922   9.324 -0.3376 -1.0236  0.1162
  921MOL0     O24208   8.153   1.872   9.195 -0.6150 -0.3189 -0.9644
  921MOL0     C24209   8.111   1.968   9.095  0.2260  0.1333 -0.1443
  921MOL0     C24210   8.109   1.886   8.969 -0.4145 -0.0457 -0.0016
  921MOL0     C24211   7.995   1.930   8.882  0.5335 -0.0181 -0.1252
  921MOL0     C24212   7.898   1.816   8.886  0.2951 -0.4966  0.0628
  921MOL0     C24213   7.759   1.863   8.833 -0.3874  0.0105  0.2163
  921MOL0     C24214   7.769   1.886   8.676 -0.0250 -0.0435 -0.5455
  921MOL0     C24215   7.627   1.890   8.628  0.3556 -0.3478  0.6925
  921MOL0     C24216   7.569   2.033   8.657  0.5603 -0.6892 -0.7453
  921MOL0     N24217   7.625   2.135   8.566 -0.2025  0.6188 -0.6955
  921MOL0     C24218   7.587   2.150   8.433 -0.7799 -0.5777 -0.2214
  921MOL0     C24219   7.640   2.267   8.390  1.0171  0.4492  0.5623
  921MOL0     C24220   7.610   2.338   8.252 -1.0132  0.0855  0.7023
  921MOL0     C24221   7.505   2.446   8.258  0.5351 -0.5086  0.1800
  921MOL0     C24222   7.361   2.379   8.261 -0.1595 -0.2599  0.0364
  921MOL0     C24223   7.241   2.478   8.257  0.1212 -0.8161  0.8139
  921MOL0     O24224   7.239   2.536   8.125  0.0970  0.4645 -0.2273
  921MOL0     C24225   7.148   2.631   8.092  0.0712  0.1986  0.2621
  921MOL0     C24226   7.155   2.713   7.973  0.6167 -0.0431 -0.1090
  921MOL0     C24227   7.064   2.818   7.954 -0.6446  0.0728  0.1895
  921MOL0     C24228   6.964   2.843   8.053  0.7088 -0.2629 -0.0271
  921MOL0     C24229   6.870   2.950   8.026 -0.1150  0.8601 -0.2000
  921MOL0     O24230   6.787   2.966   8.130 -0.4095 -1.5330 -0.5139
  921MOL0     C24231   6.703   3.071   8.111 -0.6641 -0.3309 -0.2246
  921MOL0     C24232   6.766   3.196   8.132  1.5700  0.3193  0.5718
  921MOL0     C24233   6.682   3.309   8.143  0.2106  0.7186  0.0158
  921MOL0     C24234   6.537   3.295   8.141 -0.3507  0.3608 -0.7401
  921MOL0     O24235   6.455   3.403   8.145 -0.0257  0.3506  0.3335
  921MOL0     C24236   6.503   3.514   8.061 -0.4017 -0.2654 -0.9622
  921MOL0     C24237   6.404   3.629   8.078 -0.6252  0.0613  0.0649
  921MOL0     C24238   6.344   3.641   8.222  0.1826 -0.3061  0.4301
  921MOL0     C24239   6.258   3.760   8.229 -0.1545 -1.5912  0.2922
  921MOL0     C24240   6.334   3.894   8.192 -0.4525  0.5931 -0.1125
  921MOL0     C24241   6.244   4.018   8.213  0.2685  0.2467 -0.7434
  921MOL0     C24242   6.114   4.027   8.131 -0.3173 -0.4971  0.7982
  921MOL0     C24243   6.142   4.047   7.989  0.0704  0.4297 -0.0592
  921MOL0    Cl24244   6.009   3.983   7.891  0.0439 -0.0359  0.2237
  921MOL0     C24245   6.478   3.166   8.132 -0.7191 -0.2611 -0.6163
  921MOL0     C24246   6.569   3.058   8.133  0.1297  0.0394 -0.0142
  921MOL0     O24247   6.878   3.014   7.921 -0.2815  0.2794  0.3618
  921MOL0     C24248   6.959   2.764   8.169  0.9311 -0.3993  0.3204
  921MOL0     C24249   7.045   2.661   8.188 -0.3873 -0.1641  0.6524
  921MOL0     N24250   7.719   2.314   8.496 -0.0307 -0.3459 -0.2182
  921MOL0     N24251   7.716   2.231   8.595 -0.1352 -0.2391 -0.2663
  921MOL0     C24252   8.219   1.829   9.418 -0.1879 -0.3991  0.0716
  921MOL0     C24253   8.247   1.877   9.554  0.2793  0.2574  0.8213
  921MOL0     C24254   8.379   2.095   9.926  0.0430  0.9152  0.4292
  921MOL0     C24255   8.262   2.102  10.004 -0.0955  0.3041  0.1751
  921MOL0     C24256   8.263   2.125  10.147 -0.2704 -0.0328  0.3263
  921MOL0     C24257   8.383   2.145  10.204 -0.7791  0.1004  0.4484
  921MOL0     O24258   8.401   2.194  10.331 -0.3606 -0.3440 -0.0138
  921MOL0     C24259   8.363   2.335  10.352  0.4131 -0.4709  1.2052
  921MOL0     C24260   8.331   2.387  10.489  0.4729 -0.3135  0.3094
  921MOL0     C24261   8.438   2.328  10.581 -0.1927 -0.1643 -0.2293
  921MOL0     C24262   8.417   2.373  10.723  0.1226 -0.2014 -0.2490
  921MOL0     C24263   8.498   2.294  10.811 -0.4604  0.1923 -0.0203
  921MOL0     C24264   8.575   2.220  10.879  0.0219  0.8111  0.3430
  921MOL0     C24265   8.502   2.133  10.132 -1.4081 -0.3177 -0.4156
  921MOL0     C24266   8.503   2.125   9.996 -0.4906  0.0357  0.0596
  921MOL0     C24267   8.633   2.130   9.927  0.6360 -0.3173 -0.3667
  921MOL0     H24268   8.173   2.208   9.528 -0.5283 -1.3705  4.0281
  921MOL0     H24269   8.121   2.134   9.297 -0.4653 -0.7957 -0.1458
  921MOL0     H24270   8.007   1.993   9.118  0.4356  0.6654  0.2547
  921MOL0     H24271   8.172   2.059   9.096  0.4754 -0.0330  0.8224
  921MOL0     H24272   8.107   1.779   8.989  0.3221  0.1681  1.3283
  921MOL0     H24273   8.193   1.920   8.908 -1.1337  0.7229 -0.6057
  921MOL0     H24274   8.019   1.934   8.775 -0.2633  0.4078 -0.2953
  921MOL0     H24275   7.941   2.021   8.907 -1.5404 -1.2862  0.2343
  921MOL0     H24276   7.936   1.735   8.824 -1.1854 -1.8108  0.7818
  921MOL0     H24277   7.875   1.780   8.987  2.4467 -2.1857  0.0245
  921MOL0     H24278   7.690   1.781   8.853  0.3117 -1.0368 -1.4505
  921MOL0     H24279   7.719   1.951   8.883 -1.1802 -1.4100  2.2390
  921MOL0     H24280   7.826   1.977   8.655 -0.4408  0.4150  0.2744
  921MOL0     H24281   7.826   1.807   8.626 -1.2957  0.5037 -3.0110
  921MOL0     H24282   7.565   1.814   8.675 -1.6155  0.8704  0.1523
  921MOL0     H24283   7.630   1.873   8.520  1.1943 -0.2121  0.6882
  921MOL0     H24284   7.462   2.033   8.637  0.6576 -2.3907 -1.4109
  921MOL0     H24285   7.583   2.064   8.761 -0.5285 -0.1922 -0.7297
  921MOL0     H24286   7.512   2.100   8.371 -0.1113 -0.1517 -1.4115
  921MOL0     H24287   7.706   2.384   8.224 -1.2883  2.6406  3.5042
  921MOL0     H24288   7.578   2.264   8.178  2.8305 -0.2367 -0.8754
  921MOL0     H24289   7.508   2.527   8.332 -2.6831  0.9365 -1.0825
  921MOL0     H24290   7.492   2.500   8.164 -1.2429  0.0790  0.7171
  921MOL0     H24291   7.359   2.338   8.363  1.0863 -2.7858 -0.8830
  921MOL0     H24292   7.342   2.295   8.194 -2.8399 -1.3251  1.9363
  921MOL0     H24293   7.244   2.552   8.338 -0.2672 -0.3801  0.4353
  921MOL0     H24294   7.152   2.414   8.260 -0.0340 -0.5771  1.3784
  921MOL0     H24295   7.227   2.687   7.897  2.2626  3.2978  0.1371
  921MOL0     H24296   7.074   2.877   7.864 -0.5869 -0.3005 -0.0494
  921MOL0     H24297   6.870   3.224   8.144  1.8868  1.6917 -3.6875
  921MOL0     H24298   6.738   3.400   8.162 -0.2269  1.1943 -0.9314
  921MOL0     H24299   6.606   3.545   8.079 -0.8460  1.0418 -0.5796
  921MOL0     H24300   6.494   3.475   7.959  1.0127 -1.0725 -0.8025
  921MOL0     H24301   6.463   3.719   8.056 -1.1407  0.2324 -0.6547
  921MOL0     H24302   6.332   3.631   7.996 -1.4175 -0.0839  0.7442
  921MOL0     H24303   6.271   3.564   8.247 -0.9150  0.1291 -1.2761
  921MOL0     H24304   6.419   3.638   8.301  0.7515 -1.6145 -0.1272
  921MOL0     H24305   6.213   3.769   8.328  1.0137 -2.8455  0.9688
  921MOL0     H24306   6.183   3.738   8.153 -3.4493  0.0078  2.8295
  921MOL0     H24307   6.371   3.890   8.089 -1.9955 -4.2628 -0.7277
  921MOL0     H24308   6.422   3.910   8.255 -0.3747  1.3779 -0.4112
  921MOL0     H24309   6.215   4.006   8.318  1.4450 -4.7038 -0.7131
  921MOL0     H24310   6.300   4.112   8.206  0.7921  0.1217  1.1985
  921MOL0     H24311   6.049   4.109   8.161 -0.1062 -1.0739  3.0233
  921MOL0     H24312   6.062   3.932   8.144  2.2195 -2.2964 -1.1609
  921MOL0     H24313   6.150   4.156   7.982 -2.9744  0.9428  2.4715
  921MOL0     H24314   6.234   3.996   7.958 -2.6951 -4.9480 -0.5432
  921MOL0     H24315   6.371   3.155   8.136 -0.6362 -0.8551  0.2475
  921MOL0     H24316   6.529   2.961   8.159  3.2073 -1.2151  0.5294
  921MOL0     H24317   6.894   2.776   8.255 -0.2643  0.6940 -0.7003
  921MOL0     H24318   7.043   2.607   8.282  1.6479 -1.1951  0.1811
  921MOL0     H24319   8.235   1.728   9.384 -2.5072 -0.0106 -2.5410
  921MOL0     H24320   8.281   1.801   9.624  0.2418 -0.9759 -0.4461
  921MOL0     H24321   8.164   2.085   9.962 -1.9106  0.7758  3.8390
  921MOL0     H24322   8.183   2.120  10.220  1.5577 -2.6406  2.3402
  921MOL0     H24323   8.280   2.355  10.283  0.4599  1.5892  1.6672
  921MOL0     H24324   8.442   2.399  10.312 -0.7160 -1.0878 -2.3679
  921MOL0     H24325   8.230   2.357  10.518  0.3216 -0.4687 -0.3600
  921MOL0     H24326   8.333   2.497  10.495 -3.0453 -0.1665  0.4319
  921MOL0     H24327   8.535   2.353  10.536 -0.2920  0.1329 -0.2827
  921MOL0     H24328   8.431   2.220  10.568  0.6754 -0.2000 -0.4655
  921MOL0     H24329   8.453   2.474  10.746 -0.8125 -0.2564  1.6733
  921MOL0     H24330   8.316   2.373  10.763  0.6600  0.9638  1.1981
  921MOL0     H24331   8.643   2.157  10.934  0.9272  3.0050  1.8908
  921MOL0     H24332   8.599   2.152  10.177 -0.8189  0.6593 -2.0138
  921MOL0     H24333   8.629   2.208   9.851 -2.5242 -2.0056 -2.1419
  921MOL0     H24334   8.710   2.162   9.997 -0.2154  1.8508 -0.3746
  921MOL0     H24335   8.663   2.032   9.886  1.0190 -1.3603  2.2148
  922MOL0     O24336   1.618   3.669  10.623  0.0953 -0.3542 -0.1160
  922MOL0     C24337   1.498   3.676  10.648  0.0699  0.6629  0.6443
  922MOL0     O24338   1.398   3.644  10.561  0.5954 -0.4158  0.4396
  922MOL0     C24339   1.436   3.571  10.451  0.1729 -0.8332  0.1534
  922MOL0     C24340   1.410   3.604  10.316 -0.4685 -0.4352 -0.3848
  922MOL0     C24341   1.445   3.508  10.213  0.6655 -0.3848 -0.3697
  922MOL0     C24342   1.523   3.390  10.242 -0.8656 -0.4431 -0.5783
  922MOL0     O24343   1.569   3.311  10.145  0.0859 -0.4507 -0.3253
  922MOL0     C24344   1.483   3.247  10.057  0.5040  0.5027 -0.6458
  922MOL0     C24345   1.396   3.138  10.127 -0.3602 -0.1522 -0.1989
  922MOL0     C24346   1.482   3.031  10.196 -0.1219  0.1729  0.6962
  922MOL0     C24347   1.425   2.996  10.329  0.0604  0.6020 -0.5694
  922MOL0     C24348   1.510   2.903  10.412 -0.4495 -0.2184 -0.0467
  922MOL0     C24349   1.453   2.890  10.549  0.2161 -0.2244 -0.5706
  922MOL0     C24350   1.544   2.826  10.653 -0.3812 -0.5017 -0.5631
  922MOL0     C24351   1.669   2.911  10.683 -0.2460  0.0394 -0.7184
  922MOL0     N24352   1.763   2.838  10.765 -1.1884  0.5410  0.4060
  922MOL0     C24353   1.851   2.740  10.709  0.9046  0.1460  0.0899
  922MOL0     C24354   1.933   2.695  10.808 -0.4451 -0.2109  0.2000
  922MOL0     C24355   2.042   2.587  10.796  0.3167 -0.1702 -0.0206
  922MOL0     C24356   2.125   2.600  10.669  0.0020  0.9940  0.0019
  922MOL0     C24357   2.239   2.502  10.677 -0.6362 -0.2934 -0.4626
  922MOL0     C24358   2.316   2.480  10.541  0.3736  0.5091  0.2230
  922MOL0     O24359   2.446   2.412  10.560 -0.3939 -0.3908  0.7218
  922MOL0     C24360   2.558   2.480  10.598 -0.6453 -0.7656 -0.1679
  922MOL0     C24361   2.562   2.620  10.628  0.7665  0.6523  1.0173
  922MOL0     C24362   2.674   2.680  10.685 -0.5021 -0.3521 -0.0657
  922MOL0     C24363   2.799   2.608  10.694  0.6347 -0.4477  0.1465
  922MOL0     C24364   2.921   2.686  10.731 -0.5360 -0.1098 -0.1464
  922MOL0     O24365   2.905   2.821  10.716 -0.1707 -0.0079  0.0305
  922MOL0     C24366   3.007   2.918  10.733  0.0385 -0.1155 -0.6515
  922MOL0     C24367   3.144   2.883  10.746  0.1940 -0.1964 -0.6591
  922MOL0     C24368   3.236   2.976  10.796 -0.3168 -0.3085 -0.5708
  922MOL0     C24369   3.211   3.108  10.803  0.5937 -0.7726  0.1790
  922MOL0     O24370   3.318   3.188  10.838 -0.3954  0.0099  0.1081
  922MOL0     C24371   3.290   3.305  10.914 -0.5263 -0.1842 -0.6492
  922MOL0     C24372   3.352   3.432  10.850 -0.3911 -0.3273  0.9114
  922MOL0     C24373   3.238   3.540  10.827 -0.2357 -0.7492 -0.1153
  922MOL0     C24374   3.281   3.657  10.731  0.1515  0.4583 -0.0008
  922MOL0     C24375   3.175   3.768  10.710 -0.2652  0.2690 -1.1185
  922MOL0     C24376   3.163   3.861  10.837  0.1719  0.2906  0.6119
  922MOL0     C24377   3.086   3.992  10.802  0.2682  0.2686 -0.5561
  922MOL0     C24378   2.939   3.960  10.791  0.0725 -0.6017 -0.2388
  922MOL0    Cl24379   2.844   4.114  10.763  0.4553 -0.4153 -0.2597
  922MOL0     C24380   3.073   3.143  10.799 -0.6113 -0.6541  0.8536
  922MOL0     C24381   2.974   3.052  10.762  0.3757 -0.1859  0.6771
  922MOL0     O24382   3.026   2.627  10.771  0.4060  0.3774  0.4290
  922MOL0     C24383   2.796   2.474  10.668  0.5198 -0.8708 -0.7460
  922MOL0     C24384   2.677   2.417  10.620 -0.8313 -0.5473 -0.6367
  922MOL0     N24385   1.887   2.763  10.922  0.1590 -0.7602  0.1076
  922MOL0     N24386   1.794   2.854  10.895 -0.1843  0.6665 -0.6744
  922MOL0     C24387   1.553   3.374  10.375 -0.6935  0.3021  0.2432
  922MOL0     C24388   1.514   3.457  10.484  0.5165  0.3897  0.9398
  922MOL0     C24389   1.448   3.721  10.788 -0.8942 -0.1866  0.1822
  922MOL0     C24390   1.312   3.710  10.810  0.4128  0.1058  0.0885
  922MOL0     C24391   1.250   3.742  10.934 -0.5222 -0.3159  0.2438
  922MOL0     C24392   1.331   3.791  11.043  0.0559 -0.1997 -0.0103
  922MOL0     O24393   1.291   3.824  11.169  0.6775 -0.1773 -0.4855
  922MOL0     C24394   1.157   3.782  11.214 -0.4866  0.0317 -0.2221
  922MOL0     C24395   1.145   3.627  11.214 -0.0912 -0.8633  0.2237
  922MOL0     C24396   0.995   3.591  11.218  0.4154 -0.4828  0.3540
  922MOL0     C24397   0.922   3.645  11.347  0.6460  0.3729 -0.0109
  922MOL0     C24398   0.778   3.671  11.324  1.2475  0.5503 -0.7434
  922MOL0     C24399   0.658   3.685  11.344 -0.3007  0.2294  0.3636
  922MOL0     C24400   1.457   3.807  11.014  0.1953  0.2112 -0.0977
  922MOL0     C24401   1.522   3.770  10.896 -0.1878  0.5718  0.2218
  922MOL0     C24402   1.671   3.800  10.895 -0.0726  0.6470 -0.7205
  922MOL0     H24403   1.344   3.686  10.290  0.1147  0.6869  1.4536
  922MOL0     H24404   1.414   3.547  10.116 -2.3338  2.0701  1.4102
  922MOL0     H24405   1.421   3.313   9.996  1.0159 -0.2073 -1.9552
  922MOL0     H24406   1.542   3.193   9.982  0.7286  1.7204 -1.3589
  922MOL0     H24407   1.333   3.092  10.050  0.7240  0.1325 -1.2875
  922MOL0     H24408   1.334   3.189  10.202 -2.0129 -0.8155 -1.0475
  922MOL0     H24409   1.584   3.069  10.204  0.3303 -1.0183  0.8699
  922MOL0     H24410   1.484   2.945  10.129 -1.0456  0.7423 -0.0913
  922MOL0     H24411   1.410   3.087  10.387 -0.2182 -0.1591  0.6000
  922MOL0     H24412   1.330   2.948  10.304  1.4269 -0.3672 -4.6878
  922MOL0     H24413   1.531   2.809  10.359  1.6375  0.0414  0.2423
  922MOL0     H24414   1.608   2.951  10.415  0.1632 -1.4198 -0.1102
  922MOL0     H24415   1.419   2.987  10.587 -0.2351 -1.0446  1.2215
  922MOL0     H24416   1.365   2.827  10.544 -0.1840  0.3318 -0.6583
  922MOL0     H24417   1.577   2.725  10.629  3.4798  0.4394  0.0618
  922MOL0     H24418   1.484   2.801  10.741 -1.8108 -3.7349 -2.3187
  922MOL0     H24419   1.728   2.942  10.597 -0.2029  0.1354 -0.6558
  922MOL0     H24420   1.635   2.999  10.740  0.6351  0.4907 -0.8725
  922MOL0     H24421   1.850   2.706  10.606  1.3731  1.1102 -0.2451
  922MOL0     H24422   2.098   2.604  10.889  1.8708 -3.8281 -0.1358
  922MOL0     H24423   1.997   2.489  10.813  0.8677 -0.2320  1.2344
  922MOL0     H24424   2.060   2.583  10.583  0.3431 -1.4404  0.1621
  922MOL0     H24425   2.159   2.701  10.645  1.0138  0.5945 -0.2833
  922MOL0     H24426   2.197   2.404  10.700  0.0703 -0.6007 -0.4512
  922MOL0     H24427   2.311   2.525  10.756  1.4172  1.2016 -2.5992
  922MOL0     H24428   2.330   2.572  10.483 -1.0605 -0.7175 -2.2481
  922MOL0     H24429   2.242   2.417  10.491 -1.3742  3.0141 -0.5484
  922MOL0     H24430   2.474   2.681  10.610  2.6750  3.0152 -0.8346
  922MOL0     H24431   2.662   2.786  10.707 -1.4191 -0.2130 -1.1585
  922MOL0     H24432   3.182   2.784  10.725 -0.6965 -0.6059 -0.3940
  922MOL0     H24433   3.339   2.943  10.805  0.1811  0.7968 -1.7883
  922MOL0     H24434   3.195   3.313  10.968 -1.3791  2.9717 -2.3618
  922MOL0     H24435   3.359   3.280  10.995  0.1234  0.1679 -1.0864
  922MOL0     H24436   3.437   3.467  10.910 -0.1140 -0.7020  0.7398
  922MOL0     H24437   3.393   3.403  10.752  2.5842  4.3913  0.4314
  922MOL0     H24438   3.146   3.496  10.787 -2.5502  2.9138  0.7171
  922MOL0     H24439   3.212   3.572  10.928 -1.9991 -0.0094 -0.7741
  922MOL0     H24440   3.311   3.617  10.634 -0.3887  0.4472 -0.1614
  922MOL0     H24441   3.375   3.706  10.761  1.7619 -1.2708 -1.8920
  922MOL0     H24442   3.087   3.707  10.692  1.1756 -2.1071 -0.5268
  922MOL0     H24443   3.200   3.821  10.617  2.1880 -1.2788 -1.4137
  922MOL0     H24444   3.109   3.815  10.920 -2.8189  0.9806 -0.8121
  922MOL0     H24445   3.261   3.895  10.871  1.3749  1.4028 -3.4525
  922MOL0     H24446   3.130   4.041  10.715 -2.0797  1.2558 -1.2371
  922MOL0     H24447   3.103   4.067  10.880  1.6633  1.4031 -1.8827
  922MOL0     H24448   2.919   3.894  10.706  0.6900 -0.6410 -0.3573
  922MOL0     H24449   2.907   3.913  10.885  2.2738  0.4484  1.0973
  922MOL0     H24450   3.047   3.248  10.802 -1.3007 -0.7634 -0.3663
  922MOL0     H24451   2.873   3.091  10.755 -0.3427 -1.9973  0.4314
  922MOL0     H24452   2.877   2.406  10.692 -0.1306 -0.4009  3.6145
  922MOL0     H24453   2.682   2.312  10.595  0.3196 -0.5559 -0.4297
  922MOL0     H24454   1.612   3.284  10.393  1.5901  1.9169  1.4237
  922MOL0     H24455   1.541   3.428  10.585 -3.0642  0.2697  2.0086
  922MOL0     H24456   1.241   3.675  10.736  1.0241 -0.5148 -0.2158
  922MOL0     H24457   1.142   3.731  10.935 -0.4859 -1.8447 -2.4360
  922MOL0     H24458   1.084   3.834  11.152 -0.3714 -1.7033 -1.8844
  922MOL0     H24459   1.136   3.825  11.313 -0.7061  2.1485 -1.1384
  922MOL0     H24460   1.213   3.587  11.290 -0.4288 -1.1010  0.4051
  922MOL0     H24461   1.178   3.588  11.117  0.4774  2.0759 -0.8533
  922MOL0     H24462   0.998   3.481  11.213 -1.5838 -0.5649  0.0707
  922MOL0     H24463   0.936   3.620  11.131  0.2755  0.2272  0.6772
  922MOL0     H24464   0.938   3.585  11.437  0.2219  3.6367  2.4443
  922MOL0     H24465   0.962   3.740  11.386  1.1023 -0.7860  2.5581
  922MOL0     H24466   0.552   3.698  11.351 -0.1109  2.1417  0.1089
  922MOL0     H24467   1.513   3.858  11.091 -1.1239 -0.0060  1.0309
  922MOL0     H24468   1.708   3.875  10.967 -0.9228  0.4596 -0.0788
  922MOL0     H24469   1.720   3.706  10.923 -2.0588  0.0287  0.9455
  922MOL0     H24470   1.693   3.841  10.796  0.5377  1.7262 -0.1619
  923MOL0     O24471   5.180   1.743  10.261 -0.0943  0.1592  0.2401
  923MOL0     C24472   5.226   1.854  10.276 -0.8096 -0.5759 -0.0880
  923MOL0     O24473   5.158   1.969  10.280 -0.2638  0.7545 -0.3406
  923MOL0     C24474   5.031   1.989  10.229  0.2244  0.7261  0.2108
  923MOL0     C24475   4.911   1.926  10.265  0.5153 -0.1742  0.4012
  923MOL0     C24476   4.785   1.963  10.218 -0.6109  0.7427  0.0832
  923MOL0     C24477   4.779   2.077  10.138 -0.2973  0.3149  0.1322
  923MOL0     O24478   4.669   2.132  10.096  0.4519  0.7195 -0.1892
  923MOL0     C24479   4.555   2.043  10.094 -0.6709 -0.2729  0.6578
  923MOL0     C24480   4.442   2.100  10.014 -0.3007 -0.4182 -0.1466
  923MOL0     C24481   4.327   2.003   9.988 -0.1463 -0.2308 -0.1678
  923MOL0     C24482   4.215   2.062   9.903  0.6371 -0.7043  0.1273
  923MOL0     C24483   4.091   1.968   9.907 -0.4382 -0.6415 -1.1376
  923MOL0     C24484   3.960   2.038   9.842  0.2482  0.0358  0.3239
  923MOL0     C24485   3.898   1.932   9.743 -0.5531 -0.6095 -0.5694
  923MOL0     C24486   3.750   1.974   9.707 -0.5192  0.5296 -1.0072
  923MOL0     N24487   3.670   1.867   9.657  0.3767 -0.0381  0.4127
  923MOL0     C24488   3.546   1.824   9.717  0.3929  0.3107  0.5693
  923MOL0     C24489   3.506   1.726   9.632  0.3819 -0.2721  0.1751
  923MOL0     C24490   3.389   1.629   9.644  0.6178 -0.3318 -0.9192
  923MOL0     C24491   3.400   1.544   9.763 -0.5467 -0.0028 -0.3473
  923MOL0     C24492   3.260   1.509   9.806  0.1714  0.2900  0.0999
  923MOL0     C24493   3.184   1.393   9.729 -0.5308 -0.3465 -0.3110
  923MOL0     O24494   3.245   1.271   9.782  0.6117 -0.3179 -0.4976
  923MOL0     C24495   3.163   1.182   9.849 -0.2985 -0.3459 -0.1087
  923MOL0     C24496   3.066   1.215   9.950 -0.0320  0.7751  0.0580
  923MOL0     C24497   2.987   1.115  10.008  0.0893  0.1617  0.2032
  923MOL0     C24498   3.002   0.981   9.969  0.1349  0.0209  0.1026
  923MOL0     C24499   2.923   0.880  10.041 -0.0674 -0.8429  0.0321
  923MOL0     O24500   2.824   0.913  10.128 -0.2272 -0.1489 -0.3928
  923MOL0     C24501   2.783   0.832  10.238  0.0233 -0.4733 -0.4124
  923MOL0     C24502   2.669   0.881  10.299 -0.3090  0.7701  0.9794
  923MOL0     C24503   2.604   0.812  10.404 -0.3359  0.0098  0.1786
  923MOL0     C24504   2.653   0.686  10.451  0.4807  0.1632 -0.4675
  923MOL0     O24505   2.575   0.637  10.557  0.0972  0.2790 -0.1118
  923MOL0     C24506   2.620   0.519  10.610 -0.6306  0.1755  0.5172
  923MOL0     C24507   2.557   0.483  10.741  1.7219 -0.4484  0.1033
  923MOL0     C24508   2.398   0.470  10.714 -1.5009 -0.5353 -1.0671
  923MOL0     C24509   2.365   0.324  10.691 -0.7261  0.2142  0.0724
  923MOL0     C24510   2.212   0.311  10.665 -1.0445 -0.4343  0.0753
  923MOL0     C24511   2.170   0.187  10.594 -0.0148  0.5853  0.0450
  923MOL0     C24512   2.021   0.201  10.564 -0.2862 -0.3723  0.0522
  923MOL0     C24513   1.947   0.079  10.509  0.4347 -0.5212 -1.1245
  923MOL0    Cl24514   2.048  -0.036  10.416  0.3372 -0.0939 -0.1020
  923MOL0     C24515   2.775   0.636  10.393  0.2202  0.2040  0.8144
  923MOL0     C24516   2.842   0.711  10.290 -0.5132  0.5846 -1.2468
  923MOL0     O24517   2.961   0.764  10.023  0.2420 -0.5655 -0.3718
  923MOL0     C24518   3.097   0.953   9.872 -0.1733 -0.5698 -0.4000
  923MOL0     C24519   3.179   1.051   9.814  1.5868  0.1421 -0.3916
  923MOL0     N24520   3.591   1.724   9.521 -0.1317 -0.1925  0.6637
  923MOL0     N24521   3.681   1.803   9.542 -0.7219  0.3580  0.0878
  923MOL0     C24522   4.899   2.150  10.107  0.9556 -0.4356  0.4413
  923MOL0     C24523   5.022   2.107  10.150  1.1756 -0.1979  0.4143
  923MOL0     C24524   5.375   1.870  10.279  0.6633 -1.0110 -0.8436
  923MOL0     C24525   5.431   1.979  10.219 -0.1091  0.1397 -0.1001
  923MOL0     C24526   5.570   1.999  10.224  0.4079  0.7674 -0.1542
  923MOL0     C24527   5.649   1.897  10.278  0.1414  0.3802  0.3327
  923MOL0     O24528   5.780   1.911  10.276 -0.8450  0.3278 -0.3776
  923MOL0     C24529   5.829   2.038  10.338  0.6115 -0.1572 -0.5365
  923MOL0     C24530   5.971   2.031  10.378  0.1432 -0.7861 -0.2393
  923MOL0     C24531   6.062   2.009  10.258  0.0522  0.0892  0.5480
  923MOL0     C24532   6.206   1.988  10.284 -0.0956 -0.1553  0.5775
  923MOL0     C24533   6.290   2.114  10.331  0.1905 -0.0973 -0.8750
  923MOL0     C24534   6.369   2.207  10.350  0.4797 -0.4065  0.2491
  923MOL0     C24535   5.581   1.794  10.347 -0.0385 -0.3481 -0.3673
  923MOL0     C24536   5.447   1.773  10.346 -0.0171  0.6254  0.7241
  923MOL0     C24537   5.396   1.658  10.426  0.0419  1.1176  0.2593
  923MOL0     H24538   4.908   1.855  10.347 -1.3734 -0.1906  0.3520
  923MOL0     H24539   4.699   1.903  10.243 -0.2847 -0.0753 -0.7078
  923MOL0     H24540   4.585   1.957  10.033 -0.7763  0.8603 -1.0515
  923MOL0     H24541   4.520   2.015  10.194  0.2580  0.8729  1.3281
  923MOL0     H24542   4.488   2.136   9.922  1.5613  1.3551  1.3960
  923MOL0     H24543   4.417   2.192  10.068  2.1587 -1.1040  2.4197
  923MOL0     H24544   4.292   1.949  10.076  0.2670 -3.6608 -1.9316
  923MOL0     H24545   4.366   1.918   9.931 -0.2667  1.5427 -3.1130
  923MOL0     H24546   4.192   2.162   9.942  1.8298  1.4928 -4.1657
  923MOL0     H24547   4.251   2.087   9.803  1.3738 -0.0397  0.5436
  923MOL0     H24548   4.129   1.880   9.855 -1.0680 -1.8176  0.3110
  923MOL0     H24549   4.073   1.943  10.012 -0.1676 -0.2345 -0.9941
  923MOL0     H24550   3.895   2.048   9.930  0.3478 -1.3780  0.5894
  923MOL0     H24551   3.969   2.135   9.793 -1.1332 -0.6779 -1.4737
  923MOL0     H24552   3.892   1.834   9.793 -0.3482 -0.0365  0.6172
  923MOL0     H24553   3.950   1.914   9.649  1.5444 -3.1710  0.9105
  923MOL0     H24554   3.710   2.019   9.798  2.9125  0.5763  0.6696
  923MOL0     H24555   3.764   2.048   9.629 -0.8999  0.3550 -1.2386
  923MOL0     H24556   3.508   1.854   9.814  1.8001 -0.9972  1.5706
  923MOL0     H24557   3.293   1.682   9.641  0.5951 -0.3802 -1.1084
  923MOL0     H24558   3.394   1.575   9.548 -0.1814 -0.9963 -0.6025
  923MOL0     H24559   3.455   1.451   9.749 -1.4984 -0.9097  1.4555
  923MOL0     H24560   3.458   1.595   9.840 -1.8009  1.3859 -0.2835
  923MOL0     H24561   3.201   1.601   9.814  0.0677  0.6309 -3.3482
  923MOL0     H24562   3.273   1.470   9.907  0.6921 -0.8189 -0.3833
  923MOL0     H24563   3.203   1.404   9.621 -0.0369  4.5206  0.0690
  923MOL0     H24564   3.075   1.398   9.743 -0.4263 -0.9539  0.7890
  923MOL0     H24565   3.052   1.309  10.002  0.0745  1.0866 -0.4685
  923MOL0     H24566   2.911   1.140  10.081  0.2229 -3.6099  1.9144
  923MOL0     H24567   2.620   0.971  10.263  0.3169  0.9103  0.4565
  923MOL0     H24568   2.516   0.849  10.456  0.6440  0.1224  1.8444
  923MOL0     H24569   2.603   0.429  10.551  1.9597  1.7215 -2.9013
  923MOL0     H24570   2.727   0.523  10.634 -0.4223  1.7116 -0.5534
  923MOL0     H24571   2.598   0.394  10.789  2.0528  0.3733  1.3787
  923MOL0     H24572   2.564   0.569  10.807 -0.7938 -0.3439  0.3004
  923MOL0     H24573   2.342   0.508  10.800  0.8144 -1.0197  0.7739
  923MOL0     H24574   2.367   0.536  10.633 -1.4543 -2.1605 -2.4795
  923MOL0     H24575   2.393   0.258  10.774 -0.0535  0.1423 -0.2060
  923MOL0     H24576   2.415   0.292  10.599 -2.2268 -1.3664 -0.2641
  923MOL0     H24577   2.173   0.399  10.614 -0.5637  0.6634  1.5600
  923MOL0     H24578   2.151   0.318  10.755 -2.1731 -0.6919 -0.6536
  923MOL0     H24579   2.230   0.164  10.506  0.4746 -2.8736  1.1154
  923MOL0     H24580   2.185   0.102  10.662  2.8593  2.2736  1.7342
  923MOL0     H24581   2.027   0.295  10.508  0.9814 -0.2864  0.3046
  923MOL0     H24582   1.965   0.230  10.654 -0.1906 -2.4720  0.8423
  923MOL0     H24583   1.906   0.025  10.596  2.0986 -1.0065 -0.6048
  923MOL0     H24584   1.862   0.115  10.452 -1.3690  0.6717  2.0482
  923MOL0     H24585   2.821   0.545  10.431 -2.1389 -1.3923  0.0989
  923MOL0     H24586   2.936   0.675  10.249 -0.2926  1.3263 -1.4007
  923MOL0     H24587   3.099   0.853   9.829  0.7802 -0.3085 -0.9858
  923MOL0     H24588   3.244   1.010   9.737  0.7518 -3.4587  0.6405
  923MOL0     H24589   4.896   2.240  10.047  0.0869  0.1254  1.2997
  923MOL0     H24590   5.105   2.176  10.137 -0.5754  2.1862  1.2001
  923MOL0     H24591   5.363   2.049  10.170  2.1116  0.3293 -3.2348
  923MOL0     H24592   5.637   2.076  10.189  3.2728 -1.7575 -0.5954
  923MOL0     H24593   5.772   2.055  10.430  3.4819  1.1967  1.1457
  923MOL0     H24594   5.818   2.123  10.270 -0.2094  1.4201  1.4667
  923MOL0     H24595   5.978   1.948  10.449 -3.4809 -0.4694  0.6729
  923MOL0     H24596   5.995   2.131  10.416 -1.7059  0.6525 -2.5412
  923MOL0     H24597   6.054   2.096  10.193 -3.5317 -0.1449  0.4706
  923MOL0     H24598   6.019   1.927  10.200 -0.6055  0.8725 -0.0946
  923MOL0     H24599   6.218   1.903  10.352 -4.2864 -1.4464  0.0309
  923MOL0     H24600   6.246   1.962  10.186 -3.5926  0.5715 -1.2253
  923MOL0     H24601   6.436   2.289  10.364 -1.4172  0.9961  1.4222
  923MOL0     H24602   5.647   1.716  10.383  2.7964  2.2029  0.3823
  923MOL0     H24603   5.477   1.607  10.478  1.8021  2.3628 -1.1397
  923MOL0     H24604   5.320   1.695  10.495 -0.7889  0.6084 -0.3642
  923MOL0     H24605   5.347   1.581  10.365 -0.8050  0.9504  1.1206
  924MOL0     O24606   5.758  10.833   8.902  0.3719  0.1731 -0.5566
  924MOL0     C24607   5.668  10.791   8.975 -0.2659  0.0331  0.7407
  924MOL0     O24608   5.687  10.711   9.080  0.7368 -0.2088 -0.1356
  924MOL0     C24609   5.803  10.650   9.115 -0.1641  0.6721 -0.0256
  924MOL0     C24610   5.931  10.668   9.060 -0.2655  0.3228  0.3012
  924MOL0     C24611   6.040  10.589   9.097 -0.2420 -0.6776  0.4945
  924MOL0     C24612   6.026  10.498   9.195  0.9301 -0.7652 -0.6008
  924MOL0     O24613   6.127  10.416   9.251  0.0424 -0.2478 -0.8126
  924MOL0     C24614   6.255  10.413   9.196 -0.0349  0.5508 -0.0404
  924MOL0     C24615   6.335  10.299   9.258  0.7924  0.9179 -0.5334
  924MOL0     C24616   6.490  10.308   9.256  0.3949 -0.4479  0.7687
  924MOL0     C24617   6.546  10.202   9.349  1.1829 -0.2106  0.1549
  924MOL0     C24618   6.698  10.174   9.322  0.0507  0.0142  0.0036
  924MOL0     C24619   6.727  10.130   9.177  0.0153  0.4097 -0.6396
  924MOL0     C24620   6.625  10.022   9.126  0.4807  0.2384  0.2337
  924MOL0     C24621   6.648   9.965   8.984 -1.1694  0.1009 -0.0126
  924MOL0     N24622   6.593  10.054   8.879 -0.7302  0.2426  0.0518
  924MOL0     C24623   6.675  10.146   8.816  0.3414  0.4139  0.9226
  924MOL0     C24624   6.595  10.199   8.724  0.7099 -0.0826  0.4532
  924MOL0     C24625   6.628  10.302   8.622 -0.0170 -0.2992 -0.0705
  924MOL0     C24626   6.660  10.234   8.492  0.0133 -0.2099  0.1980
  924MOL0     C24627   6.710  10.311   8.372  0.0512  0.4613  0.0366
  924MOL0     C24628   6.722  10.212   8.257 -0.3661  0.7201 -0.4344
  924MOL0     O24629   6.863  10.209   8.229 -0.5323 -0.4250 -0.3226
  924MOL0     C24630   6.923  10.118   8.146  0.6612  0.8803  0.1674
  924MOL0     C24631   6.864   9.996   8.123  1.1069  0.6836 -0.6340
  924MOL0     C24632   6.930   9.912   8.022  0.2889  0.3743  0.4223
  924MOL0     C24633   7.042   9.960   7.945  0.8883 -0.0814 -0.9712
  924MOL0     C24634   7.094   9.890   7.822  0.4210  0.0091 -0.5065
  924MOL0     O24635   7.018   9.794   7.771  0.3072 -0.3524  0.6177
  924MOL0     C24636   7.041   9.725   7.656  0.5311 -0.1818  1.0962
  924MOL0     C24637   6.932   9.725   7.567 -0.2719 -0.8267  0.1899
  924MOL0     C24638   6.942   9.656   7.448 -0.0118  0.0821  0.0577
  924MOL0     C24639   7.064   9.594   7.413  0.4256  0.2366 -0.3765
  924MOL0     O24640   7.087   9.530   7.291  0.9623 -0.7352 -0.6031
  924MOL0     C24641   7.014   9.572   7.178  1.2375  0.0545 -0.1839
  924MOL0     C24642   7.097   9.561   7.057 -0.7107 -0.8354  0.0440
  924MOL0     C24643   7.173   9.432   7.039  0.7598 -1.0998  0.1819
  924MOL0     C24644   7.245   9.421   6.896  0.2005  0.0068 -0.5018
  924MOL0     C24645   7.326   9.552   6.858  0.5310  0.0957 -0.3690
  924MOL0     C24646   7.384   9.549   6.710 -0.2912 -0.0131  0.5559
  924MOL0     C24647   7.475   9.667   6.685 -0.7010  0.1534  0.9178
  924MOL0     C24648   7.509   9.675   6.537  0.2125 -1.1568 -0.7747
  924MOL0    Cl24649   7.629   9.805   6.507  0.2396  0.1485  0.2756
  924MOL0     C24650   7.167   9.586   7.505  0.5258  0.0919  0.5433
  924MOL0     C24651   7.164   9.657   7.625 -0.0557 -0.0756  0.0071
  924MOL0     O24652   7.195   9.937   7.765  0.0909  0.4487 -0.3513
  924MOL0     C24653   7.102  10.081   7.986 -0.1312  0.0939  0.6000
  924MOL0     C24654   7.042  10.156   8.082  0.0444 -0.5670 -0.7516
  924MOL0     N24655   6.476  10.137   8.724 -0.3722 -0.0435 -0.8275
  924MOL0     N24656   6.478  10.048   8.821  0.1017 -0.4827  0.5184
  924MOL0     C24657   5.898  10.485   9.259  0.0622  1.3465  0.3342
  924MOL0     C24658   5.786  10.546   9.211  0.0872  1.0070 -0.8078
  924MOL0     C24659   5.524  10.813   8.953  0.3659  0.2997  0.7853
  924MOL0     C24660   5.428  10.723   9.013  0.7179  0.4559  0.3537
  924MOL0     C24661   5.293  10.730   8.979 -1.1768  0.7744  0.4807
  924MOL0     C24662   5.251  10.827   8.890  0.2611 -0.5512 -1.5184
  924MOL0     O24663   5.119  10.816   8.852  0.7576  0.3700 -0.1935
  924MOL0     C24664   5.083  10.837   8.716  0.1427 -0.2817 -0.1664
  924MOL0     C24665   5.000  10.717   8.654  0.3828  0.4418 -0.1219
  924MOL0     C24666   4.885  10.662   8.747 -0.1252 -0.8663 -0.5734
  924MOL0     C24667   4.792  10.769   8.785  0.0931  0.1035 -0.0457
  924MOL0     C24668   4.685  10.716   8.870  0.1638 -0.0068 -0.2632
  924MOL0     C24669   4.604  10.651   8.934  0.6764 -0.1959 -0.8259
  924MOL0     C24670   5.342  10.909   8.835  0.1737 -0.5673  0.4180
  924MOL0     C24671   5.473  10.916   8.873 -0.0669  0.5192  0.4118
  924MOL0     C24672   5.553  11.013   8.793  0.3804  0.5336  0.1038
  924MOL0     H24673   5.940  10.744   8.983 -2.2404 -0.0444 -0.3485
  924MOL0     H24674   6.143  10.608   9.067 -0.0362 -1.8279  0.4067
  924MOL0     H24675   6.236  10.393   9.090 -2.2810  2.1795 -0.0118
  924MOL0     H24676   6.306  10.507   9.221  0.1925  0.2217  0.7502
  924MOL0     H24677   6.315  10.203   9.210  0.7080  0.1493  0.9688
  924MOL0     H24678   6.311  10.293   9.365  1.8479 -0.0251 -0.3371
  924MOL0     H24679   6.525  10.407   9.287 -0.1769 -1.1617  4.0637
  924MOL0     H24680   6.519  10.302   9.151 -0.8596  1.3131  0.2692
  924MOL0     H24681   6.533  10.224   9.455  3.0997  0.6188  0.2583
  924MOL0     H24682   6.490  10.108   9.337  3.8522 -2.4023  2.9804
  924MOL0     H24683   6.765  10.251   9.359  2.7787 -2.9934  1.8482
  924MOL0     H24684   6.726  10.096   9.394  1.9329  0.4585 -0.2059
  924MOL0     H24685   6.724  10.225   9.121  0.3652  0.1445 -1.1176
  924MOL0     H24686   6.829  10.093   9.181  0.5374  1.7628 -0.7863
  924MOL0     H24687   6.526  10.067   9.135  0.7624  0.6262  1.7011
  924MOL0     H24688   6.629   9.940   9.199  0.1868  1.1439  1.2930
  924MOL0     H24689   6.754   9.943   8.976 -0.9354  0.5712  1.4591
  924MOL0     H24690   6.595   9.871   8.967 -1.3095  0.1425  0.1909
  924MOL0     H24691   6.780  10.168   8.828  0.1895  2.1957 -0.5730
  924MOL0     H24692   6.543  10.367   8.605 -1.3802 -2.0579 -0.2698
  924MOL0     H24693   6.710  10.367   8.655  0.3395 -0.5885 -0.3748
  924MOL0     H24694   6.733  10.160   8.525 -0.3712 -0.3257  0.7988
  924MOL0     H24695   6.568  10.180   8.467 -1.5455  1.4256  2.0841
  924MOL0     H24696   6.802  10.368   8.390  1.8421 -2.3036  0.2199
  924MOL0     H24697   6.634  10.384   8.344 -0.9333 -0.6167 -0.1572
  924MOL0     H24698   6.664  10.245   8.171  0.5728 -3.3306 -2.8455
  924MOL0     H24699   6.687  10.111   8.279 -1.4847  0.9515 -1.0567
  924MOL0     H24700   6.785   9.961   8.188  1.4282  1.1488  0.0276
  924MOL0     H24701   6.877   9.821   8.000  1.0049  0.0249  0.0975
  924MOL0     H24702   6.847   9.786   7.595  0.8095  2.3348 -2.7387
  924MOL0     H24703   6.860   9.659   7.377 -0.8261  0.1719  0.9793
  924MOL0     H24704   6.926   9.508   7.173  0.2062  1.4887 -0.8038
  924MOL0     H24705   6.983   9.677   7.177  0.1649 -0.1956  1.5242
  924MOL0     H24706   7.030   9.566   6.971 -1.7742 -0.4329  0.8737
  924MOL0     H24707   7.157   9.653   7.056 -2.0964  0.1145  0.5963
  924MOL0     H24708   7.238   9.421   7.126  1.0628 -2.1494 -0.1618
  924MOL0     H24709   7.104   9.348   7.040  1.3466 -1.7029 -2.2671
  924MOL0     H24710   7.171   9.403   6.819 -1.2018  1.5770  0.4119
  924MOL0     H24711   7.314   9.336   6.889 -0.3160 -0.3165 -1.9574
  924MOL0     H24712   7.401   9.577   6.934  2.6058  1.2428 -2.6099
  924MOL0     H24713   7.266   9.643   6.864  1.0404  0.5329 -1.5365
  924MOL0     H24714   7.423   9.452   6.678 -0.0027  0.7113 -1.4482
  924MOL0     H24715   7.301   9.561   6.639  2.1678 -0.6659 -2.6274
  924MOL0     H24716   7.565   9.643   6.743 -2.3603 -1.7142  2.8730
  924MOL0     H24717   7.424   9.757   6.719  0.1757  0.4527  1.4665
  924MOL0     H24718   7.558   9.582   6.505  0.1159 -0.4974 -3.0337
  924MOL0     H24719   7.423   9.695   6.473 -2.4246  3.8253  3.5615
  924MOL0     H24720   7.254   9.535   7.465 -0.7805 -1.0365 -1.0418
  924MOL0     H24721   7.244   9.670   7.697 -0.3400  1.6284  0.0538
  924MOL0     H24722   7.189  10.122   7.934 -0.6775  0.3323 -0.1562
  924MOL0     H24723   7.102  10.238   8.119  0.0519 -0.4467 -1.0276
  924MOL0     H24724   5.887  10.406   9.333  3.9421  2.1399  1.9848
  924MOL0     H24725   5.698  10.515   9.267  1.2115 -2.5632 -0.7644
  924MOL0     H24726   5.460  10.647   9.084 -0.7310 -0.7933 -0.2818
  924MOL0     H24727   5.232  10.646   9.013 -1.6982  0.6300 -0.7837
  924MOL0     H24728   5.174  10.848   8.658 -0.5796  1.1403 -1.0915
  924MOL0     H24729   5.025  10.929   8.702 -0.8886 -1.2217 -2.6077
  924MOL0     H24730   5.082  10.647   8.638 -0.8881 -1.6621  1.9132
  924MOL0     H24731   4.952  10.736   8.558 -0.4749 -4.2385 -0.8571
  924MOL0     H24732   4.925  10.608   8.834 -1.2470  1.1922  1.3024
  924MOL0     H24733   4.835  10.586   8.686  1.0686 -1.8465 -0.3745
  924MOL0     H24734   4.842  10.840   8.851  1.4152  1.8182 -2.6910
  924MOL0     H24735   4.745  10.815   8.698 -1.2196 -2.3307 -0.7242
  924MOL0     H24736   4.531  10.593   8.987  1.1916 -1.1284 -1.1106
  924MOL0     H24737   5.288  10.979   8.771 -2.5329 -1.2385  1.8114
  924MOL0     H24738   5.611  10.968   8.712 -2.1865  1.4683 -2.4299
  924MOL0     H24739   5.495  11.089   8.740  0.7212 -0.7926 -2.2908
  924MOL0     H24740   5.619  11.061   8.867 -0.0914  0.9552  0.2525
  925MOL0     O24741  10.030   0.305   7.348  0.5721  0.5326 -0.4235
  925MOL0     C24742  10.150   0.325   7.343 -0.2260  0.2051  0.5880
  925MOL0     O24743  10.235   0.316   7.448 -0.1829  0.4550 -0.7274
  925MOL0     C24744  10.179   0.305   7.566  0.4968  0.0666 -0.6354
  925MOL0     C24745  10.164   0.180   7.624  0.5047 -0.2834 -0.3987
  925MOL0     C24746  10.085   0.155   7.739 -0.7070  0.1822  1.1890
  925MOL0     C24747  10.018   0.262   7.797  1.2502 -0.2365 -0.2092
  925MOL0     O24748   9.944   0.241   7.913 -0.4541 -0.4678  0.9083
  925MOL0     C24749   9.816   0.311   7.920  0.5548  0.6783  0.0511
  925MOL0     C24750   9.800   0.416   8.030  0.1257 -0.5287 -0.2965
  925MOL0     C24751   9.818   0.344   8.162 -0.0402  0.1505 -0.3108
  925MOL0     C24752   9.809   0.433   8.291  0.8500  0.1041 -0.0704
  925MOL0     C24753   9.864   0.369   8.419 -0.4217 -0.3384 -0.2706
  925MOL0     C24754   9.774   0.254   8.458 -0.0918 -0.2329 -0.9446
  925MOL0     C24755   9.795   0.199   8.596  0.3135 -0.3778  0.4290
  925MOL0     C24756   9.708   0.073   8.629  0.2358 -0.1396  0.1722
  925MOL0     N24757   9.709   0.031   8.770  1.0993 -0.7497 -0.2882
  925MOL0     C24758   9.772   0.103   8.872  0.2171  0.0419  0.3763
  925MOL0     C24759   9.724   0.057   8.985 -0.1903  1.4941  0.3570
  925MOL0     C24760   9.745   0.115   9.120 -0.2471 -0.1928  0.1955
  925MOL0     C24761   9.817   0.016   9.216  0.2136 -0.0461  0.3382
  925MOL0     C24762   9.824   0.072   9.364 -0.3197  0.3407 -0.4818
  925MOL0     C24763   9.749   0.001   9.486  0.5031 -0.0097 -0.0967
  925MOL0     O24764   9.626   0.069   9.514 -0.0692  0.7370  0.4385
  925MOL0     C24765   9.515   0.053   9.439 -0.5615 -0.3683  0.2157
  925MOL0     C24766   9.493  -0.045   9.338  0.3120  0.8047  0.4318
  925MOL0     C24767   9.368  -0.041   9.268 -0.7277 -0.3372 -0.3502
  925MOL0     C24768   9.266   0.056   9.307  0.0342  0.1001 -0.9787
  925MOL0     C24769   9.134   0.048   9.234  0.0405 -0.0205 -0.1704
  925MOL0     O24770   9.052   0.150   9.262 -0.1079 -0.1993  0.1302
  925MOL0     C24771   8.911   0.139   9.267  0.3290  0.1380  0.0235
  925MOL0     C24772   8.833   0.257   9.263 -0.0090 -0.0975 -0.0320
  925MOL0     C24773   8.694   0.255   9.287  0.3217  0.0056  0.0709
  925MOL0     C24774   8.619   0.136   9.293 -0.0385  1.5893  0.1028
  925MOL0     O24775   8.483   0.115   9.308  0.0241  0.3986  0.0798
  925MOL0     C24776   8.389   0.217   9.252  0.1451  0.6726 -0.6011
  925MOL0     C24777   8.321   0.172   9.121  0.2528 -0.3383 -1.0160
  925MOL0     C24778   8.261   0.032   9.123 -0.3412  0.5607  0.0762
  925MOL0     C24779   8.145   0.019   9.030  0.9014  0.5477  0.5097
  925MOL0     C24780   8.015   0.115   9.057  0.7997  0.1585 -0.4568
  925MOL0     C24781   7.876   0.070   8.998  0.5859 -0.2435 -0.1897
  925MOL0     C24782   7.758   0.151   9.041  0.3926 -0.3061 -0.4034
  925MOL0     C24783   7.628   0.130   8.962  0.2771 -0.5706  0.5770
  925MOL0    Cl24784   7.492   0.228   9.009 -0.0002 -0.1390  0.0171
  925MOL0     C24785   8.699   0.019   9.307  0.1603  0.4123 -0.0621
  925MOL0     C24786   8.837   0.018   9.294  0.0329 -0.2364 -0.6773
  925MOL0     O24787   9.119  -0.040   9.150 -0.3544  0.0881  0.3649
  925MOL0     C24788   9.290   0.148   9.408  0.3674  0.0891  0.3447
  925MOL0     C24789   9.419   0.140   9.475  1.0154  0.2532 -0.0024
  925MOL0     N24790   9.630  -0.050   8.962  0.7627 -0.6429  0.6091
  925MOL0     N24791   9.622  -0.057   8.829 -0.4579 -0.5150 -0.0946
  925MOL0     C24792  10.033   0.386   7.748 -0.2695 -1.4081 -0.2725
  925MOL0     C24793  10.106   0.412   7.630 -0.1893  0.2693 -0.0129
  925MOL0     C24794  10.205   0.365   7.209  0.0246  0.1390  0.3934
  925MOL0     C24795  10.330   0.329   7.172  0.2333 -0.4721  0.2931
  925MOL0     C24796  10.383   0.349   7.048 -0.6983 -0.2716 -0.2170
  925MOL0     C24797  10.305   0.412   6.949 -0.5922  0.8056 -0.2604
  925MOL0     O24798  10.367   0.426   6.829  0.3507 -0.2943 -0.1235
  925MOL0     C24799  10.310   0.467   6.706 -0.2566  0.4268  0.6102
  925MOL0     C24800  10.199   0.378   6.638  0.3216 -0.3409  0.4023
  925MOL0     C24801  10.230   0.219   6.650  0.5685  0.6425 -0.1987
  925MOL0     C24802  10.094   0.150   6.642  0.1156 -0.2368 -0.7601
  925MOL0     C24803  10.088   0.009   6.679  0.3072 -0.7511  0.0580
  925MOL0     C24804  10.066  -0.100   6.723 -0.0403  0.6428  1.0575
  925MOL0     C24805  10.172   0.450   6.978 -0.4806  0.9600 -0.2506
  925MOL0     C24806  10.128   0.429   7.110  0.4509  0.1986 -0.3573
  925MOL0     C24807   9.992   0.500   7.141 -0.1609 -1.2640  0.1502
  925MOL0     H24808  10.210   0.094   7.576 -1.0525 -1.4221  0.0558
  925MOL0     H24809  10.066   0.059   7.786  1.4270 -1.8254 -1.6857
  925MOL0     H24810   9.795   0.365   7.828 -0.2408  0.9194  0.3657
  925MOL0     H24811   9.731   0.243   7.931 -0.5439  1.8822 -0.7550
  925MOL0     H24812   9.701   0.461   8.043  0.7340  0.0529  3.2456
  925MOL0     H24813   9.868   0.500   8.014 -0.4401 -0.1334 -0.6947
  925MOL0     H24814   9.916   0.296   8.171  0.5922  1.6354  1.1003
  925MOL0     H24815   9.739   0.269   8.177 -1.0146  0.7826 -2.0501
  925MOL0     H24816   9.879   0.516   8.272  2.7423 -1.8141 -2.1652
  925MOL0     H24817   9.710   0.475   8.307  1.6634  2.4796 -0.7318
  925MOL0     H24818   9.968   0.343   8.401 -0.2734  1.6504 -2.9472
  925MOL0     H24819   9.863   0.455   8.487  3.4301  1.1008 -1.7409
  925MOL0     H24820   9.670   0.286   8.452 -0.3509 -1.2617 -2.6972
  925MOL0     H24821   9.798   0.173   8.388  0.7313  0.2510 -1.2388
  925MOL0     H24822   9.757   0.278   8.660  0.3094  0.5388 -0.6816
  925MOL0     H24823   9.904   0.191   8.595  1.2517  5.9319 -3.2953
  925MOL0     H24824   9.606   0.097   8.599 -0.7032 -1.6985  1.8628
  925MOL0     H24825   9.718  -0.008   8.556 -0.3260 -0.6752  0.6678
  925MOL0     H24826   9.840   0.187   8.867  0.0806  0.2194  1.3789
  925MOL0     H24827   9.797   0.211   9.110  1.3094 -0.9666  0.4970
  925MOL0     H24828   9.643   0.144   9.149 -0.5358  0.0312 -0.9977
  925MOL0     H24829   9.762  -0.078   9.211  0.1736 -0.2791  3.3100
  925MOL0     H24830   9.919  -0.008   9.186 -0.2569 -1.2667 -0.3434
  925MOL0     H24831   9.808   0.180   9.354  1.3317  0.4079 -4.1921
  925MOL0     H24832   9.928   0.059   9.396 -0.0387 -0.5865 -1.6846
  925MOL0     H24833   9.810   0.002   9.577  1.0478  3.3692 -0.3890
  925MOL0     H24834   9.739  -0.108   9.476  0.6363 -0.0617  0.3210
  925MOL0     H24835   9.565  -0.123   9.316 -0.5137  0.5101 -1.4768
  925MOL0     H24836   9.345  -0.096   9.178 -1.2584  1.2023 -1.2057
  925MOL0     H24837   8.879   0.355   9.253  0.2184 -0.0644  1.2060
  925MOL0     H24838   8.648   0.352   9.268 -1.8201 -0.5007  2.2032
  925MOL0     H24839   8.311   0.231   9.327  2.2713 -0.5777  2.0209
  925MOL0     H24840   8.429   0.318   9.239 -0.5753  1.2791  1.5314
  925MOL0     H24841   8.251   0.254   9.100 -1.3575 -0.6421  2.4217
  925MOL0     H24842   8.390   0.173   9.036  0.6331  0.0216 -0.7080
  925MOL0     H24843   8.332  -0.044   9.091 -3.1360 -1.3592 -2.1496
  925MOL0     H24844   8.232   0.010   9.226 -1.8548 -5.2966 -1.2265
  925MOL0     H24845   8.090  -0.075   9.040  1.7539  0.0915  0.9318
  925MOL0     H24846   8.182   0.027   8.927  2.5330  1.1886  1.1271
  925MOL0     H24847   8.033   0.218   9.023 -2.4114  0.8713 -0.3057
  925MOL0     H24848   8.000   0.109   9.165  0.9187 -0.1254 -0.4558
  925MOL0     H24849   7.883   0.065   8.889  0.8532 -0.1728 -0.1770
  925MOL0     H24850   7.865  -0.034   9.030  1.1133 -0.5978 -1.1345
  925MOL0     H24851   7.779   0.258   9.036  2.0380 -0.5646  0.2848
  925MOL0     H24852   7.727   0.118   9.141 -1.0348 -1.1268 -1.0856
  925MOL0     H24853   7.647   0.166   8.860  2.3433  2.1889  1.8315
  925MOL0     H24854   7.592   0.027   8.947 -0.6729  0.1014 -2.4177
  925MOL0     H24855   8.646  -0.074   9.324  1.8748 -0.3201  1.6197
  925MOL0     H24856   8.901  -0.069   9.288 -1.0087 -0.9439 -3.4297
  925MOL0     H24857   9.204   0.209   9.434  0.4785  1.3579 -1.9785
  925MOL0     H24858   9.433   0.228   9.536  0.7166  1.1999 -1.2585
  925MOL0     H24859   9.980   0.466   7.798  0.9041 -0.9708  0.3084
  925MOL0     H24860  10.108   0.506   7.576 -1.2276  1.2616  1.5849
  925MOL0     H24861  10.399   0.279   7.239  1.5271 -1.7061 -1.8649
  925MOL0     H24862  10.481   0.305   7.033 -0.5616 -0.8954  2.1037
  925MOL0     H24863  10.405   0.469   6.652 -1.1119 -2.4811 -1.2094
  925MOL0     H24864  10.276   0.571   6.707 -0.6381  0.3511 -1.0989
  925MOL0     H24865  10.197   0.395   6.530 -0.1400  0.8803  0.5964
  925MOL0     H24866  10.112   0.411   6.694  2.5116  0.5906  3.5014
  925MOL0     H24867  10.275   0.194   6.746  0.5868  1.3425 -0.0168
  925MOL0     H24868  10.286   0.177   6.566  0.7614 -1.1430  0.7783
  925MOL0     H24869  10.019   0.200   6.704 -1.1144 -0.3759 -2.0804
  925MOL0     H24870  10.053   0.166   6.542  3.3397  3.8179 -1.7102
  925MOL0     H24871  10.061  -0.202   6.755  0.6892  0.3602  0.3185
  925MOL0     H24872  10.105   0.499   6.908  0.8238  0.0132 -2.2628
  925MOL0     H24873  10.007   0.562   7.230  4.0765 -2.0715  0.1931
  925MOL0     H24874   9.965   0.568   7.060  1.7103  1.2352  1.5041
  925MOL0     H24875   9.906   0.432   7.143  0.7114 -2.5326 -2.3285
  926MOL0     O24876   2.946   2.810   6.939 -0.6134  0.5330  0.2796
  926MOL0     C24877   2.836   2.864   6.926 -0.0707  0.0042  0.5152
  926MOL0     O24878   2.775   2.913   6.812  0.2872 -0.1505  0.6726
  926MOL0     C24879   2.825   2.886   6.688 -0.2381  0.4779  0.0568
  926MOL0     C24880   2.822   2.994   6.599  0.2641  0.2702 -0.5927
  926MOL0     C24881   2.873   2.970   6.469  0.5572 -0.0757 -0.1932
  926MOL0     C24882   2.921   2.847   6.437 -0.7199  1.0619 -0.5987
  926MOL0     O24883   2.979   2.822   6.314  1.3153  0.3440 -0.1919
  926MOL0     C24884   3.107   2.755   6.326  0.0001  0.2211 -0.5024
  926MOL0     C24885   3.185   2.765   6.190 -0.0942 -0.0772 -0.3605
  926MOL0     C24886   3.115   2.725   6.055 -0.4170 -0.8141  0.0781
  926MOL0     C24887   3.223   2.737   5.945  0.6999  0.0672  0.4895
  926MOL0     C24888   3.154   2.694   5.818  0.2273  0.2841 -0.2713
  926MOL0     C24889   3.245   2.693   5.695  0.3853  1.0316  0.8425
  926MOL0     C24890   3.169   2.683   5.567 -0.0511  0.0867 -0.5054
  926MOL0     C24891   3.129   2.546   5.544 -0.4773 -0.6962 -0.3110
  926MOL0     N24892   3.018   2.536   5.445 -0.5774  0.1130 -0.0423
  926MOL0     C24893   2.947   2.430   5.411  0.1813  0.1683 -0.4311
  926MOL0     C24894   2.880   2.450   5.296  0.6640  0.0200 -0.6429
  926MOL0     C24895   2.781   2.373   5.216  0.1820  0.6877  0.3871
  926MOL0     C24896   2.832   2.226   5.179  0.3290 -0.3719 -0.1540
  926MOL0     C24897   2.720   2.163   5.096  1.1256 -0.2855 -0.1019
  926MOL0     C24898   2.766   2.060   4.986  0.4240 -1.0385 -0.6073
  926MOL0     O24899   2.872   1.975   5.030  0.0038 -0.4349  0.3269
  926MOL0     C24900   2.835   1.858   5.097 -0.0908 -0.9388  0.6172
  926MOL0     C24901   2.939   1.771   5.139 -0.4929  0.0392 -0.0496
  926MOL0     C24902   2.919   1.661   5.227 -0.5751  0.1258  0.6740
  926MOL0     C24903   2.795   1.626   5.265  0.1899  0.3808 -0.5289
  926MOL0     C24904   2.771   1.518   5.363 -0.5599 -0.2104 -0.9190
  926MOL0     O24905   2.643   1.495   5.401 -0.0872 -0.1105  0.0416
  926MOL0     C24906   2.626   1.376   5.473  0.3260  0.5516  0.6725
  926MOL0     C24907   2.648   1.246   5.414 -0.0894 -1.6136 -0.0469
  926MOL0     C24908   2.612   1.128   5.481 -0.8727  0.2736  0.0563
  926MOL0     C24909   2.568   1.135   5.611  0.1367  0.3248  0.2574
  926MOL0     O24910   2.532   1.016   5.670  0.3422 -0.5343 -0.1029
  926MOL0     C24911   2.419   1.020   5.771  0.3576  0.0959  0.7014
  926MOL0     C24912   2.416   0.874   5.817  0.2482 -0.4202  0.0086
  926MOL0     C24913   2.281   0.845   5.883 -0.0536 -0.0266  0.0183
  926MOL0     C24914   2.287   0.685   5.911  0.2148 -0.0753 -0.1933
  926MOL0     C24915   2.159   0.633   5.973  0.5657 -0.1232 -1.4323
  926MOL0     C24916   2.051   0.604   5.869 -1.1217  0.7408 -0.3266
  926MOL0     C24917   1.908   0.612   5.928  1.0197 -0.6443 -1.0285
  926MOL0     C24918   1.793   0.561   5.842  0.4863 -0.4287 -0.4255
  926MOL0    Cl24919   1.792   0.374   5.827  0.2541  0.0135  0.0015
  926MOL0     C24920   2.553   1.267   5.676 -0.2471 -0.4025  0.2574
  926MOL0     C24921   2.586   1.383   5.608 -0.4461 -0.8715  0.4108
  926MOL0     O24922   2.876   1.452   5.393  0.1117 -1.0480 -0.0199
  926MOL0     C24923   2.688   1.711   5.228  0.1562 -0.3677 -0.1774
  926MOL0     C24924   2.709   1.823   5.144  0.5041 -0.1774  0.9726
  926MOL0     N24925   2.919   2.578   5.258 -0.0395 -0.1544 -0.2411
  926MOL0     N24926   3.001   2.627   5.339  0.4701 -0.8704 -0.9264
  926MOL0     C24927   2.919   2.746   6.535  0.2403  0.6658  0.2071
  926MOL0     C24928   2.869   2.759   6.657  0.0823 -0.3387 -0.3962
  926MOL0     C24929   2.748   2.851   7.047  1.0400 -0.5404  0.7720
  926MOL0     C24930   2.618   2.909   7.039  0.4184  0.5978  0.7625
  926MOL0     C24931   2.525   2.903   7.150 -1.3540 -0.5941 -0.8344
  926MOL0     C24932   2.565   2.853   7.269  0.3715  0.0805 -0.4989
  926MOL0     O24933   2.477   2.849   7.369  0.3256  0.2467 -0.4399
  926MOL0     C24934   2.430   2.720   7.397  0.7288  0.7334 -0.4345
  926MOL0     C24935   2.282   2.711   7.442 -0.3524 -0.2388  0.4749
  926MOL0     C24936   2.222   2.847   7.487 -1.0113 -0.3936  0.0265
  926MOL0     C24937   2.071   2.838   7.519 -1.3668 -0.5256 -0.5958
  926MOL0     C24938   2.054   2.764   7.646 -0.3988  0.3559 -0.0858
  926MOL0     C24939   2.052   2.711   7.753 -0.2982 -0.2926  0.2640
  926MOL0     C24940   2.694   2.791   7.276 -0.3373  0.9556 -0.1656
  926MOL0     C24941   2.782   2.805   7.172  0.1143  0.6901  1.1477
  926MOL0     C24942   2.915   2.724   7.197  0.6704 -0.2816 -0.4518
  926MOL0     H24943   2.782   3.088   6.637 -0.1095 -0.1620  0.0913
  926MOL0     H24944   2.873   3.054   6.400 -1.0107 -1.2217 -1.6822
  926MOL0     H24945   3.170   2.783   6.411  0.8175  1.4616 -1.4909
  926MOL0     H24946   3.080   2.650   6.344 -0.5731 -0.2926 -3.8491
  926MOL0     H24947   3.274   2.701   6.195  0.5711  0.9057  1.7394
  926MOL0     H24948   3.240   2.857   6.167 -1.6856  0.4034 -2.5179
  926MOL0     H24949   3.038   2.802   6.042  2.3895  2.2695  0.2763
  926MOL0     H24950   3.065   2.628   6.062  0.3095 -1.5237 -2.9197
  926MOL0     H24951   3.258   2.841   5.944  0.1846  0.2401  0.4357
  926MOL0     H24952   3.308   2.670   5.959  1.6251  0.9109 -0.8111
  926MOL0     H24953   3.108   2.599   5.843  1.9357 -0.0150  2.0040
  926MOL0     H24954   3.076   2.767   5.794 -0.0695  0.3742  0.9454
  926MOL0     H24955   3.299   2.788   5.704  2.9476 -0.2359 -0.0981
  926MOL0     H24956   3.323   2.618   5.709 -0.3930  0.2151  0.9398
  926MOL0     H24957   3.232   2.729   5.491  1.0032  1.3894  1.0666
  926MOL0     H24958   3.078   2.743   5.568  0.9108  1.6505 -1.7952
  926MOL0     H24959   3.216   2.492   5.505  0.8160  2.2910 -1.9288
  926MOL0     H24960   3.091   2.496   5.633 -2.1243 -1.6792 -1.5192
  926MOL0     H24961   2.933   2.337   5.466  0.9133 -1.2762 -2.5344
  926MOL0     H24962   2.689   2.367   5.275  0.0194 -2.7172 -0.0281
  926MOL0     H24963   2.755   2.427   5.125 -0.0262  1.5992  0.9739
  926MOL0     H24964   2.930   2.237   5.129  2.0051 -1.5675  2.6393
  926MOL0     H24965   2.855   2.165   5.267  0.6344  0.1414  0.1236
  926MOL0     H24966   2.677   2.244   5.036 -0.7993 -1.2948 -0.1427
  926MOL0     H24967   2.640   2.119   5.156 -2.5919 -0.0380 -4.3712
  926MOL0     H24968   2.815   2.121   4.910  1.2481 -1.1417 -0.1747
  926MOL0     H24969   2.685   2.003   4.939  0.2203  0.1757 -1.7858
  926MOL0     H24970   3.036   1.808   5.109 -0.5660 -0.6293 -1.1536
  926MOL0     H24971   3.008   1.604   5.253  2.4321  3.6262 -0.9228
  926MOL0     H24972   2.682   1.238   5.310  1.9808  2.9466  0.0390
  926MOL0     H24973   2.626   1.031   5.434  2.4776 -1.0557  3.2819
  926MOL0     H24974   2.445   1.092   5.850  0.6789  3.4170 -2.2071
  926MOL0     H24975   2.327   1.045   5.718  0.0829 -2.3140 -0.0712
  926MOL0     H24976   2.438   0.812   5.729 -0.5273  1.3763 -1.5290
  926MOL0     H24977   2.498   0.866   5.889  1.2426  0.2119 -1.0272
  926MOL0     H24978   2.264   0.893   5.980  0.7543  0.9330 -0.2992
  926MOL0     H24979   2.192   0.864   5.823 -1.7878 -1.3626  2.0252
  926MOL0     H24980   2.368   0.669   5.983 -0.5951  0.5177  0.8818
  926MOL0     H24981   2.316   0.634   5.819 -0.9136  1.0496 -1.2238
  926MOL0     H24982   2.122   0.702   6.050  1.4204  3.1757 -3.7878
  926MOL0     H24983   2.186   0.542   6.026  2.5608  0.9533 -0.4938
  926MOL0     H24984   2.066   0.685   5.797  2.1878 -0.4648 -1.1868
  926MOL0     H24985   2.067   0.507   5.821 -2.3000 -0.6837  2.0113
  926MOL0     H24986   1.885   0.717   5.949  2.1891 -0.2570 -1.5822
  926MOL0     H24987   1.915   0.554   6.021 -0.2470  1.3881  0.4267
  926MOL0     H24988   1.698   0.590   5.887  0.3286 -2.4089  0.6392
  926MOL0     H24989   1.802   0.606   5.743  1.2384 -0.0347 -0.1846
  926MOL0     H24990   2.529   1.269   5.782 -2.2770 -0.1494 -0.1552
  926MOL0     H24991   2.577   1.478   5.661 -4.2735 -0.5898 -0.4068
  926MOL0     H24992   2.591   1.679   5.264 -0.0341  0.2463 -0.1468
  926MOL0     H24993   2.616   1.875   5.124  1.8820  2.1919  0.2728
  926MOL0     H24994   2.946   2.643   6.513  0.4744  1.0596 -1.4172
  926MOL0     H24995   2.848   2.677   6.725 -0.5258  1.9690  2.3437
  926MOL0     H24996   2.579   2.951   6.947 -1.6175 -2.3113  0.1483
  926MOL0     H24997   2.436   2.964   7.135 -0.7061  1.3392  2.2296
  926MOL0     H24998   2.488   2.689   7.484 -1.4109 -1.3635  0.3477
  926MOL0     H24999   2.443   2.645   7.319 -0.9922 -2.1627  1.8782
  926MOL0     H25000   2.279   2.643   7.527  1.0054  0.1444  0.8507
  926MOL0     H25001   2.227   2.671   7.357 -1.1444  0.3297  0.7058
  926MOL0     H25002   2.243   2.912   7.401 -0.8634 -1.8978 -1.1091
  926MOL0     H25003   2.264   2.888   7.579 -0.0112  2.6030 -1.6338
  926MOL0     H25004   2.035   2.940   7.532  0.3429  0.0141  0.2740
  926MOL0     H25005   2.015   2.796   7.436 -1.0885 -1.2393 -0.4295
  926MOL0     H25006   2.087   2.660   7.841 -3.3006 -2.3960  0.3917
  926MOL0     H25007   2.719   2.762   7.377  1.4739  3.5742  0.2333
  926MOL0     H25008   2.925   2.643   7.126 -2.3951  0.9931 -2.5647
  926MOL0     H25009   3.005   2.784   7.178 -0.5545  2.4301  1.5015
  926MOL0     H25010   2.915   2.683   7.299  0.4706  0.7618 -0.0160
  927MOL0     O25011  10.579   2.808   7.714 -0.2641 -0.1006 -0.2695
  927MOL0     C25012  10.588   2.931   7.692 -0.1145 -0.0445  0.4034
  927MOL0     O25013  10.707   3.005   7.716  0.1077  0.2795  0.5045
  927MOL0     C25014  10.809   2.931   7.777 -0.0678  0.0254  0.9689
  927MOL0     C25015  10.820   2.909   7.913  0.0909 -0.0838  0.1543
  927MOL0     C25016  10.933   2.850   7.973 -0.2139 -0.1251 -0.2889
  927MOL0     C25017  11.033   2.798   7.892  1.2668  0.2509 -0.2810
  927MOL0     O25018  11.143   2.748   7.945  0.1543 -0.7926  0.2215
  927MOL0     C25019  11.267   2.730   7.876 -0.1620  0.7423 -0.2562
  927MOL0     C25020  11.358   2.651   7.972 -0.5380 -0.3831  0.1502
  927MOL0     C25021  11.291   2.525   8.023  0.2638 -0.1837 -0.4874
  927MOL0     C25022  11.399   2.429   8.083  1.1393 -0.0259  0.5467
  927MOL0     C25023  11.321   2.302   8.125 -0.1285  0.5733 -0.4581
  927MOL0     C25024  11.403   2.176   8.154 -0.3931 -0.1600  0.2590
  927MOL0     C25025  11.498   2.129   8.044 -0.1158 -0.4860 -0.0341
  927MOL0     C25026  11.412   2.060   7.937  0.2714 -0.9585  0.5973
  927MOL0     N25027  11.504   1.999   7.836  0.0438 -0.0368 -0.2280
  927MOL0     C25028  11.556   1.872   7.838 -1.1533 -0.6012 -1.6838
  927MOL0     C25029  11.617   1.854   7.717  0.2379  0.2790 -0.4412
  927MOL0     C25030  11.683   1.719   7.671  0.3868  0.2020 -0.0380
  927MOL0     C25031  11.777   1.672   7.780 -0.0345  0.3710  0.4937
  927MOL0     C25032  11.878   1.570   7.717  0.7385 -0.4537 -0.1434
  927MOL0     C25033  11.990   1.542   7.813 -1.4538  0.6976  0.0980
  927MOL0     O25034  12.074   1.428   7.784  0.0011  0.2369 -0.1617
  927MOL0     C25035  12.184   1.401   7.867  0.1792  0.2391 -1.0772
  927MOL0     C25036  12.219   1.471   7.985  0.0875  0.8313  0.1716
  927MOL0     C25037  12.321   1.426   8.073 -0.6407 -0.0261  0.1289
  927MOL0     C25038  12.406   1.327   8.025 -0.8357  0.0041 -1.4855
  927MOL0     C25039  12.528   1.292   8.111 -0.5554 -0.4639  0.4801
  927MOL0     O25040  12.595   1.173   8.074 -0.0308  0.1382  0.0575
  927MOL0     C25041  12.707   1.141   8.139 -0.1979 -0.2548 -0.4599
  927MOL0     C25042  12.830   1.146   8.071 -0.2848  0.4893 -0.8699
  927MOL0     C25043  12.947   1.106   8.143 -0.3122 -0.5650  1.0830
  927MOL0     C25044  12.951   1.069   8.281 -0.3449 -1.0852  0.8450
  927MOL0     O25045  13.054   1.014   8.343  0.2557  0.0773 -0.0806
  927MOL0     C25046  13.176   1.074   8.315  1.4606 -0.6220 -0.3616
  927MOL0     C25047  13.264   1.071   8.432  0.8520  0.6026 -0.3020
  927MOL0     C25048  13.293   0.927   8.484 -0.5709 -0.1210  0.1845
  927MOL0     C25049  13.391   0.854   8.388  0.0308  0.1849 -0.4963
  927MOL0     C25050  13.542   0.870   8.424  0.4321  0.0248 -0.6093
  927MOL0     C25051  13.645   0.802   8.329 -0.9468 -0.2814  0.7093
  927MOL0     C25052  13.788   0.832   8.374  0.2416  0.6353 -0.3378
  927MOL0     C25053  13.885   0.747   8.291 -0.3798  0.3436  0.4437
  927MOL0    Cl25054  13.887   0.580   8.366 -0.1296  0.3688  0.0441
  927MOL0     C25055  12.822   1.054   8.337  0.2091  0.4793 -0.4119
  927MOL0     C25056  12.701   1.083   8.271  0.6896 -0.7036 -0.1171
  927MOL0     O25057  12.551   1.361   8.209  0.7342 -0.5100 -0.4116
  927MOL0     C25058  12.375   1.270   7.903 -0.8574 -0.0939 -0.4002
  927MOL0     C25059  12.271   1.299   7.832  0.1623 -0.7590  0.3445
  927MOL0     N25060  11.598   1.965   7.639 -0.2162  0.4429 -0.9104
  927MOL0     N25061  11.538   2.057   7.713  0.3746  0.9185 -0.1640
  927MOL0     C25062  11.017   2.817   7.750  0.0271  0.2876 -0.0699
  927MOL0     C25063  10.914   2.891   7.696 -0.8723  0.7159  0.6021
  927MOL0     C25064  10.465   3.003   7.661  0.2700  0.9020 -0.6496
  927MOL0     C25065  10.343   2.929   7.671  0.2119  0.0843  0.0666
  927MOL0     C25066  10.218   2.978   7.650  0.2436  0.0276  0.0390
  927MOL0     C25067  10.204   3.110   7.615  0.4996  0.3467 -0.2813
  927MOL0     O25068  10.075   3.170   7.622 -0.5971 -0.0344  0.0262
  927MOL0     C25069  10.049   3.298   7.565  0.6011  0.1584 -0.2903
  927MOL0     C25070   9.906   3.332   7.548  0.3960  0.2734  0.2118
  927MOL0     C25071   9.866   3.246   7.420  0.5921 -0.3323  0.0265
  927MOL0     C25072   9.737   3.290   7.348 -0.3403  0.2512 -0.5424
  927MOL0     C25073   9.762   3.426   7.301 -0.6062 -0.2228 -0.6131
  927MOL0     C25074   9.769   3.549   7.282  0.6636  1.1444  0.0740
  927MOL0     C25075  10.325   3.174   7.582  0.2863 -0.0883  0.2314
  927MOL0     C25076  10.456   3.129   7.604 -0.4498 -0.5241  0.5554
  927MOL0     C25077  10.579   3.218   7.567 -0.8125  0.5322  0.0625
  927MOL0     H25078  10.737   2.946   7.972 -1.1356 -0.7397 -1.1208
  927MOL0     H25079  10.936   2.851   8.081  1.3367  1.5817 -0.2973
  927MOL0     H25080  11.257   2.678   7.780  2.0709 -1.4718  0.5789
  927MOL0     H25081  11.325   2.818   7.846  1.8903 -0.8190 -1.1821
  927MOL0     H25082  11.389   2.721   8.049  0.5097  1.1382 -1.5671
  927MOL0     H25083  11.451   2.630   7.918 -0.1648  1.6059 -0.0578
  927MOL0     H25084  11.227   2.476   7.949 -2.2796  1.9901  0.1174
  927MOL0     H25085  11.219   2.558   8.099  0.4121 -1.8072  0.4138
  927MOL0     H25086  11.464   2.411   7.997 -1.0528 -0.8595 -1.0262
  927MOL0     H25087  11.453   2.468   8.170 -0.3349  1.4091  0.8632
  927MOL0     H25088  11.267   2.315   8.220  3.3518 -0.8892  1.9380
  927MOL0     H25089  11.236   2.284   8.058 -1.0615 -0.5950  0.9773
  927MOL0     H25090  11.467   2.191   8.242  1.1473 -1.1798 -0.6308
  927MOL0     H25091  11.336   2.094   8.181 -1.4674  0.4456 -0.4891
  927MOL0     H25092  11.564   2.051   8.084  0.8070 -0.3963 -1.3285
  927MOL0     H25093  11.564   2.207   8.006  2.3754 -3.5900 -2.7674
  927MOL0     H25094  11.344   1.982   7.974 -1.4772 -0.1070 -0.6884
  927MOL0     H25095  11.346   2.129   7.883  2.1031 -1.5282 -2.6434
  927MOL0     H25096  11.552   1.802   7.920  2.2309 -0.0557 -0.9182
  927MOL0     H25097  11.604   1.647   7.647 -0.5026  1.1652 -0.0748
  927MOL0     H25098  11.737   1.746   7.579  2.7426 -0.4312  1.0847
  927MOL0     H25099  11.832   1.755   7.824  0.1294  0.6842 -0.2900
  927MOL0     H25100  11.716   1.620   7.855  0.2103  0.0425  0.4666
  927MOL0     H25101  11.918   1.604   7.621  0.3737  2.4183  0.6384
  927MOL0     H25102  11.823   1.476   7.707  1.6769 -0.8158 -2.7035
  927MOL0     H25103  11.928   1.513   7.898  0.7380 -0.4501  1.3924
  927MOL0     H25104  12.061   1.623   7.835 -0.3098 -0.7894  2.3693
  927MOL0     H25105  12.169   1.562   8.017  2.6765  1.6386  2.2242
  927MOL0     H25106  12.344   1.482   8.163  0.1430  2.2733 -1.4062
  927MOL0     H25107  12.832   1.165   7.964  2.4012  1.9642 -0.6344
  927MOL0     H25108  13.039   1.091   8.088 -0.8956 -1.3038  0.2747
  927MOL0     H25109  13.232   1.021   8.237  3.9478  1.1597  0.0761
  927MOL0     H25110  13.161   1.178   8.283 -3.9485 -0.7738  0.8131
  927MOL0     H25111  13.360   1.115   8.404  0.9108  0.1142 -0.8879
  927MOL0     H25112  13.217   1.132   8.509  0.8968 -1.2580  1.2672
  927MOL0     H25113  13.339   0.951   8.581  0.9550 -3.5833  0.4781
  927MOL0     H25114  13.204   0.865   8.503 -0.1695 -0.7285  0.1182
  927MOL0     H25115  13.393   0.889   8.284  2.4754 -0.4696 -0.7271
  927MOL0     H25116  13.362   0.749   8.390 -1.1367  0.4868 -0.5272
  927MOL0     H25117  13.563   0.835   8.525  0.5947 -1.3231 -1.0927
  927MOL0     H25118  13.570   0.976   8.426  3.9665 -0.8001  0.5650
  927MOL0     H25119  13.644   0.692   8.324  2.6393 -0.4307  1.0867
  927MOL0     H25120  13.636   0.842   8.227 -0.0661  0.7882  1.0342
  927MOL0     H25121  13.803   0.803   8.479 -0.4967 -2.6264 -1.0244
  927MOL0     H25122  13.801   0.940   8.359 -0.9169  0.7833 -0.3562
  927MOL0     H25123  13.875   0.743   8.182 -4.1730 -3.0949  0.6745
  927MOL0     H25124  13.982   0.792   8.314 -0.7559  0.9131  0.9569
  927MOL0     H25125  12.809   1.035   8.443 -2.0894 -1.1620 -0.9172
  927MOL0     H25126  12.616   1.083   8.338  0.3979  1.1015 -0.4335
  927MOL0     H25127  12.442   1.204   7.849 -1.5033 -0.1593 -1.1299
  927MOL0     H25128  12.255   1.257   7.733  2.4854  0.5759 -0.6828
  927MOL0     H25129  11.091   2.769   7.686  1.5477  2.5042 -0.1165
  927MOL0     H25130  10.899   2.910   7.591 -2.0363  0.1169  0.6442
  927MOL0     H25131  10.337   2.828   7.712  1.5796 -0.8520 -1.8854
  927MOL0     H25132  10.126   2.921   7.663  1.1242 -1.8244 -1.2868
  927MOL0     H25133  10.106   3.318   7.474  0.7139  2.0709  0.1677
  927MOL0     H25134  10.093   3.376   7.627 -1.0611  1.6709 -0.9292
  927MOL0     H25135   9.891   3.439   7.531  2.5528  0.5250 -0.3159
  927MOL0     H25136   9.847   3.306   7.636 -0.6875  2.6698  0.2635
  927MOL0     H25137   9.848   3.145   7.458 -2.5456  0.5611  1.2591
  927MOL0     H25138   9.944   3.251   7.344  2.4302 -1.2784  1.7324
  927MOL0     H25139   9.708   3.219   7.271 -0.7852  1.0328 -1.1128
  927MOL0     H25140   9.652   3.286   7.417  1.7273 -1.6569  2.1311
  927MOL0     H25141   9.781   3.655   7.285 -0.5648  1.2952  0.0350
  927MOL0     H25142  10.318   3.274   7.541  0.7448  0.0342  0.4471
  927MOL0     H25143  10.646   3.180   7.488  1.3347  2.0642  1.0542
  927MOL0     H25144  10.544   3.314   7.530 -0.6456  0.6139  0.1167
  927MOL0     H25145  10.642   3.237   7.654  0.4172 -1.1510 -0.3959
  928MOL0     O25146   9.832   5.435   3.192  0.4521 -0.2411 -1.0020
  928MOL0     C25147   9.725   5.434   3.136  0.5585  0.2261 -0.7752
  928MOL0     O25148   9.654   5.326   3.092  0.6779  0.2551 -0.0619
  928MOL0     C25149   9.728   5.216   3.061  0.1630 -0.2253  0.3839
  928MOL0     C25150   9.726   5.115   3.147 -0.5076  0.0523 -0.4971
  928MOL0     C25151   9.808   4.998   3.124  0.1260 -0.1232  0.1736
  928MOL0     C25152   9.875   4.987   3.003 -0.8031 -0.5904  0.6508
  928MOL0     O25153   9.948   4.866   2.995 -0.0508 -0.5950 -0.1743
  928MOL0     C25154   9.992   4.823   2.867 -0.7219  0.1345 -0.8028
  928MOL0     C25155  10.079   4.696   2.894  0.3443  1.2298  0.4197
  928MOL0     C25156  10.219   4.714   2.944 -0.3609  0.0437 -0.6324
  928MOL0     C25157  10.296   4.581   2.955 -0.0186  0.6072  0.2645
  928MOL0     C25158  10.423   4.583   3.040  0.4541  0.8181  0.3802
  928MOL0     C25159  10.524   4.639   2.951 -0.5683  0.6565  0.2990
  928MOL0     C25160  10.661   4.649   3.025  0.4661  0.6570  0.6155
  928MOL0     C25161  10.709   4.511   3.092 -0.5334 -0.4347 -0.1706
  928MOL0     N25162  10.753   4.401   3.001  0.3062  0.2498  0.4256
  928MOL0     C25163  10.864   4.397   2.924  0.9097 -0.0414  0.8218
  928MOL0     C25164  10.872   4.268   2.874 -0.1383 -0.4503 -0.7704
  928MOL0     C25165  10.991   4.205   2.805  1.1281 -0.6365 -0.3335
  928MOL0     C25166  11.052   4.304   2.701 -0.0825  0.7201 -0.9216
  928MOL0     C25167  11.161   4.231   2.613 -0.2136 -0.1220 -0.0589
  928MOL0     C25168  11.285   4.224   2.701 -0.1369 -0.6381  0.1255
  928MOL0     O25169  11.389   4.144   2.640 -0.4431 -0.2079 -0.7720
  928MOL0     C25170  11.512   4.140   2.703  1.0031  0.4876  0.0590
  928MOL0     C25171  11.591   4.041   2.647  0.3678  0.1470 -0.1325
  928MOL0     C25172  11.710   3.990   2.691  0.3867 -0.5183 -0.0798
  928MOL0     C25173  11.764   4.062   2.801  0.7021  0.9090  0.2869
  928MOL0     C25174  11.905   4.039   2.851 -0.1371  0.1653  0.3991
  928MOL0     O25175  11.964   4.138   2.928 -0.4680  0.3675  0.1945
  928MOL0     C25176  12.091   4.133   2.965 -0.6418  0.6287 -0.4681
  928MOL0     C25177  12.139   4.017   3.032 -0.5363  0.1732 -0.0582
  928MOL0     C25178  12.261   4.013   3.092 -1.2757 -0.6619  0.1379
  928MOL0     C25179  12.334   4.133   3.105 -0.3540  0.2493  0.5510
  928MOL0     O25180  12.455   4.148   3.167 -0.0048 -0.0684  0.3506
  928MOL0     C25181  12.465   4.101   3.300 -0.2323 -0.1546  0.5681
  928MOL0     C25182  12.611   4.113   3.352  0.5655  0.1594  0.5196
  928MOL0     C25183  12.650   4.259   3.362  0.1464  0.3363 -0.3388
  928MOL0     C25184  12.801   4.265   3.407  0.6736 -0.3508 -0.9697
  928MOL0     C25185  12.806   4.406   3.489 -0.4167 -0.7417 -0.1984
  928MOL0     C25186  12.920   4.430   3.589 -0.1917  0.5210  0.4596
  928MOL0     C25187  12.898   4.576   3.626  0.3391 -0.8866  0.0210
  928MOL0     C25188  12.983   4.626   3.737 -0.8063  0.1063  0.0760
  928MOL0    Cl25189  13.147   4.625   3.653 -0.1154 -0.0683 -0.0678
  928MOL0     C25190  12.285   4.249   3.044  0.0124 -0.6590  0.3629
  928MOL0     C25191  12.168   4.247   2.962  0.2374 -0.4224 -0.2538
  928MOL0     O25192  11.963   3.948   2.791 -0.5431  0.5331 -0.0545
  928MOL0     C25193  11.695   4.164   2.862  0.0579  0.0042  0.0769
  928MOL0     C25194  11.564   4.198   2.827 -0.0716  0.0557 -0.7048
  928MOL0     N25195  10.767   4.198   2.925 -0.3500  0.1563  0.1531
  928MOL0     N25196  10.705   4.275   3.010 -0.1111  0.0505  0.9640
  928MOL0     C25197   9.882   5.090   2.907  0.9073  0.7210  0.5801
  928MOL0     C25198   9.791   5.199   2.930  0.0712 -0.1441 -0.0691
  928MOL0     C25199   9.641   5.558   3.145  0.5072 -0.0484 -0.4001
  928MOL0     C25200   9.513   5.561   3.076 -0.2716  1.6067  0.8919
  928MOL0     C25201   9.427   5.672   3.092 -0.1029  0.5745  0.4268
  928MOL0     C25202   9.465   5.784   3.163 -0.5078  0.3015 -0.3231
  928MOL0     O25203   9.386   5.894   3.172  0.3353 -0.2422  0.0876
  928MOL0     C25204   9.452   6.021   3.161  0.0785  0.3272  0.0629
  928MOL0     C25205   9.534   6.043   3.035  0.3161  0.3719 -0.2580
  928MOL0     C25206   9.436   6.037   2.921 -0.2231  0.8536  1.3315
  928MOL0     C25207   9.481   6.133   2.811 -0.1401 -0.0272 -0.1137
  928MOL0     C25208   9.407   6.122   2.681  0.1532  0.6779 -0.6487
  928MOL0     C25209   9.351   6.125   2.571  0.0568  0.8984 -0.2613
  928MOL0     C25210   9.596   5.784   3.215 -0.1406  0.8217  0.2852
  928MOL0     C25211   9.691   5.676   3.205  0.4478 -1.0036  0.1929
  928MOL0     C25212   9.830   5.708   3.260 -0.0471 -0.3685  0.7799
  928MOL0     H25213   9.662   5.112   3.235 -0.2230 -1.3194 -0.3101
  928MOL0     H25214   9.804   4.913   3.192  0.6839 -0.1498  0.1819
  928MOL0     H25215   9.914   4.816   2.791 -1.6811 -0.7668  0.2267
  928MOL0     H25216  10.062   4.896   2.825  1.5808 -0.5023  1.6511
  928MOL0     H25217  10.086   4.641   2.799 -1.3924 -1.4415  1.7174
  928MOL0     H25218  10.028   4.626   2.961  2.7366 -1.0697  0.0296
  928MOL0     H25219  10.206   4.763   3.041  0.1082  0.8118 -0.9528
  928MOL0     H25220  10.271   4.784   2.878 -0.2038  1.0380  0.4996
  928MOL0     H25221  10.228   4.512   3.006 -0.2439  0.3369 -0.4003
  928MOL0     H25222  10.313   4.547   2.852  1.8719  0.2368  0.6487
  928MOL0     H25223  10.420   4.632   3.138  2.0752  3.0846 -0.6135
  928MOL0     H25224  10.438   4.479   3.074 -0.0205  0.7121  0.2706
  928MOL0     H25225  10.539   4.586   2.857  1.5323  0.0438  0.9238
  928MOL0     H25226  10.518   4.747   2.932  3.0111  0.8408 -0.4242
  928MOL0     H25227  10.639   4.724   3.102  0.0375  1.9367 -0.7232
  928MOL0     H25228  10.740   4.684   2.957  0.0647 -0.6880 -0.5848
  928MOL0     H25229  10.797   4.539   3.150 -0.9565 -1.4366  1.0090
  928MOL0     H25230  10.639   4.470   3.167  0.9248  0.8842  2.0037
  928MOL0     H25231  10.937   4.477   2.923  0.5741  0.2597  0.1240
  928MOL0     H25232  11.063   4.177   2.882 -0.4304 -1.0840  1.0110
  928MOL0     H25233  10.974   4.111   2.751 -3.1286 -1.0069  1.2646
  928MOL0     H25234  10.977   4.338   2.628  0.0541  0.0212 -1.3978
  928MOL0     H25235  11.107   4.384   2.750  1.0581 -2.0174  2.6907
  928MOL0     H25236  11.178   4.286   2.520  1.3309  2.3693  1.5735
  928MOL0     H25237  11.121   4.132   2.586  0.0080  0.5548 -3.2357
  928MOL0     H25238  11.266   4.182   2.799 -0.6712  0.5229  0.5424
  928MOL0     H25239  11.323   4.326   2.714 -1.0240 -0.3047  0.1426
  928MOL0     H25240  11.557   4.001   2.552  0.2303  0.1021 -0.0637
  928MOL0     H25241  11.764   3.902   2.660  1.9175  0.8565 -1.5036
  928MOL0     H25242  12.080   3.927   3.044 -1.8892  0.8164 -1.4798
  928MOL0     H25243  12.294   3.933   3.157  0.0873  0.7779  1.3069
  928MOL0     H25244  12.400   4.161   3.363 -0.0016  1.3423 -0.5791
  928MOL0     H25245  12.456   3.992   3.297  2.0049 -0.3674 -1.7080
  928MOL0     H25246  12.613   4.075   3.455  1.2703  1.2106  0.9151
  928MOL0     H25247  12.665   4.048   3.282 -1.8220 -0.3783 -0.9246
  928MOL0     H25248  12.619   4.312   3.272  0.5988  1.3317  0.0808
  928MOL0     H25249  12.580   4.292   3.439  1.1584  0.8193  0.3941
  928MOL0     H25250  12.870   4.267   3.322  2.0080  0.4410  0.0941
  928MOL0     H25251  12.830   4.190   3.480 -2.3261 -0.3808  0.3473
  928MOL0     H25252  12.719   4.417   3.554  0.8461  0.4863  1.3606
  928MOL0     H25253  12.802   4.486   3.415 -1.5775  0.5767  1.2159
  928MOL0     H25254  12.922   4.370   3.680  1.2042 -2.4790 -1.3879
  928MOL0     H25255  13.015   4.421   3.535 -0.4178 -0.9847  0.2641
  928MOL0     H25256  12.797   4.585   3.667  0.3765 -2.5870  0.5458
  928MOL0     H25257  12.916   4.643   3.542  3.0812  1.3787  2.2299
  928MOL0     H25258  12.962   4.730   3.764 -1.8668  0.4989 -2.0430
  928MOL0     H25259  12.992   4.557   3.822 -0.9810  1.0278  0.8609
  928MOL0     H25260  12.347   4.338   3.044 -1.7647  0.6590 -1.3669
  928MOL0     H25261  12.132   4.333   2.906  2.5701  0.4868 -0.4488
  928MOL0     H25262  11.739   4.237   2.930  1.4895 -0.2044 -0.5871
  928MOL0     H25263  11.503   4.275   2.873 -0.1757 -0.7691  0.5919
  928MOL0     H25264   9.931   5.067   2.813  0.7346 -0.2449  0.7208
  928MOL0     H25265   9.779   5.284   2.863 -3.1676 -1.5953 -1.5299
  928MOL0     H25266   9.476   5.471   3.027  1.9777 -0.9849  3.5368
  928MOL0     H25267   9.333   5.658   3.040 -0.5600  0.3576  1.2811
  928MOL0     H25268   9.510   6.045   3.251  0.1865 -0.3975  0.1995
  928MOL0     H25269   9.374   6.096   3.147 -1.3147 -1.5661 -3.4864
  928MOL0     H25270   9.614   5.970   3.016 -0.4241  0.0193 -2.3032
  928MOL0     H25271   9.582   6.140   3.040 -0.1979  0.6194 -0.0094
  928MOL0     H25272   9.334   6.062   2.952 -0.1437 -0.7329  3.0319
  928MOL0     H25273   9.438   5.943   2.866  1.7619  1.7278 -0.2384
  928MOL0     H25274   9.501   6.232   2.853 -0.0070 -0.6427  1.3586
  928MOL0     H25275   9.583   6.109   2.782  0.2477  2.1245 -0.7157
  928MOL0     H25276   9.303   6.104   2.477 -0.5497  0.9419  0.0362
  928MOL0     H25277   9.637   5.869   3.268  1.2666 -1.5137  3.2758
  928MOL0     H25278   9.844   5.815   3.273 -3.6375  0.2759  0.2712
  928MOL0     H25279   9.842   5.666   3.360  0.4211 -3.2474 -0.3859
  928MOL0     H25280   9.902   5.676   3.184 -0.2336  0.8199  0.0753
  929MOL0     O25281   7.536   6.621  10.290 -0.4216  0.0907  1.0293
  929MOL0     C25282   7.571   6.742  10.283 -0.2771 -0.6109 -1.2381
  929MOL0     O25283   7.708   6.781  10.263 -0.1154  0.1692  0.5509
  929MOL0     C25284   7.798   6.679  10.252 -0.4965  0.7338  0.4967
  929MOL0     C25285   7.836   6.625  10.129 -0.3982 -0.2326 -0.6349
  929MOL0     C25286   7.923   6.512  10.122 -0.2016 -0.5241  0.6879
  929MOL0     C25287   7.977   6.450  10.240 -0.1388 -0.0005  0.5815
  929MOL0     O25288   8.077   6.356  10.244  0.5691 -0.1396 -0.1546
  929MOL0     C25289   8.099   6.284  10.124 -0.2465 -0.6595  0.8845
  929MOL0     C25290   8.188   6.164  10.151  0.4361 -0.4247 -0.7717
  929MOL0     C25291   8.210   6.093  10.014  0.3656  0.2406 -1.0144
  929MOL0     C25292   8.310   5.973  10.028  0.0079  0.3112  0.5330
  929MOL0     C25293   8.350   5.900   9.898 -0.5582 -0.2768 -0.3531
  929MOL0     C25294   8.363   5.995   9.775 -0.2273  0.2482 -0.2109
  929MOL0     C25295   8.435   5.923   9.657 -0.0949 -0.1574  0.2686
  929MOL0     C25296   8.468   6.022   9.544 -0.0729 -0.2118 -0.5181
  929MOL0     N25297   8.354   6.095   9.494  0.2417 -0.2303 -0.1106
  929MOL0     C25298   8.272   6.037   9.402  0.0890  0.0738  0.4959
  929MOL0     C25299   8.187   6.145   9.369 -0.2331  0.1426 -0.5447
  929MOL0     C25300   8.082   6.139   9.267  1.0355 -0.6301 -0.3986
  929MOL0     C25301   7.945   6.123   9.346 -0.4911  0.6154  0.3349
  929MOL0     C25302   7.920   6.228   9.459  0.1220  0.6547 -0.1249
  929MOL0     C25303   7.780   6.239   9.523  1.0418  0.2444  0.1830
  929MOL0     O25304   7.763   6.297   9.654 -0.3544  0.1226  0.2452
  929MOL0     C25305   7.649   6.368   9.686  0.1975 -0.0719  1.0399
  929MOL0     C25306   7.639   6.433   9.809 -0.0487  0.6865 -0.4866
  929MOL0     C25307   7.521   6.509   9.849 -0.7916 -0.7610  0.2668
  929MOL0     C25308   7.414   6.516   9.768  1.1515  0.5609 -0.4074
  929MOL0     C25309   7.284   6.582   9.799 -0.0034  0.0279  0.2281
  929MOL0     O25310   7.270   6.646   9.917 -0.1243 -0.2226  0.5952
  929MOL0     C25311   7.155   6.716   9.936 -0.2616 -0.1677 -0.3436
  929MOL0     C25312   7.075   6.673  10.044  0.1743  0.5848  0.8839
  929MOL0     C25313   6.958   6.737  10.079 -0.1686  0.1831  1.1511
  929MOL0     C25314   6.920   6.845  10.002  0.1672 -0.7422 -0.3213
  929MOL0     O25315   6.808   6.913  10.030 -0.6338 -0.2316 -0.4054
  929MOL0     C25316   6.784   7.040   9.968 -0.9029 -0.1676 -0.0033
  929MOL0     C25317   6.692   7.115  10.064  0.8621 -0.0295  0.5431
  929MOL0     C25318   6.694   7.274  10.051  0.4977 -0.4060  0.4758
  929MOL0     C25319   6.637   7.328   9.923  1.4086 -0.4942  0.4610
  929MOL0     C25320   6.483   7.350   9.948  0.1015 -0.0133  0.6833
  929MOL0     C25321   6.413   7.392   9.817 -0.0527 -0.4237  0.9465
  929MOL0     C25322   6.357   7.267   9.751 -0.3018 -0.3233 -0.0622
  929MOL0     C25323   6.341   7.278   9.600 -0.3135  0.2494 -0.2176
  929MOL0    Cl25324   6.500   7.277   9.511 -0.5495  0.5641  0.1923
  929MOL0     C25325   6.992   6.880   9.887 -0.0704  0.7152 -0.2935
  929MOL0     C25326   7.109   6.815   9.857 -0.6031  0.1017 -0.4524
  929MOL0     O25327   7.198   6.571   9.715 -0.4157  0.7518  0.1065
  929MOL0     C25328   7.425   6.456   9.637  0.6182 -0.1981  0.4024
  929MOL0     C25329   7.537   6.371   9.608  1.2883  0.5774 -0.5302
  929MOL0     N25330   8.227   6.256   9.442 -0.7051  0.1445 -0.2593
  929MOL0     N25331   8.327   6.228   9.520 -0.5741 -0.9438  0.0996
  929MOL0     C25332   7.926   6.500  10.362 -1.0118 -0.2672  0.3886
  929MOL0     C25333   7.835   6.611  10.369 -0.1253 -0.4587  0.4799
  929MOL0     C25334   7.462   6.833  10.279  0.0471 -0.1377 -0.6617
  929MOL0     C25335   7.339   6.799  10.229  0.1456  0.3867  1.1669
  929MOL0     C25336   7.228   6.883  10.235  0.6468  0.2181  0.2316
  929MOL0     C25337   7.238   7.006  10.287  1.1422  0.6497  0.6716
  929MOL0     O25338   7.123   7.080  10.307 -0.3347 -0.5281 -0.8119
  929MOL0     C25339   7.127   7.175  10.417  0.5379 -0.1494  1.7026
  929MOL0     C25340   6.991   7.216  10.442 -0.0727 -0.4704  0.1198
  929MOL0     C25341   6.943   7.343  10.373 -0.0512  0.0037 -0.3543
  929MOL0     C25342   6.796   7.371  10.408  0.0826 -0.3788  0.0955
  929MOL0     C25343   6.756   7.497  10.348 -0.3680  0.2063 -0.5314
  929MOL0     C25344   6.715   7.580  10.278 -0.2085  0.5572  0.3320
  929MOL0     C25345   7.363   7.043  10.339  0.5280  0.3005 -0.4581
  929MOL0     C25346   7.478   6.961  10.337  0.4426 -0.5348  0.6592
  929MOL0     C25347   7.608   7.010  10.394  0.2328 -0.3602 -0.3662
  929MOL0     H25348   7.797   6.669  10.038 -3.0299 -1.4329 -0.1780
  929MOL0     H25349   7.936   6.468  10.023 -4.6779 -1.1763  0.1647
  929MOL0     H25350   8.007   6.237  10.087  1.2027 -3.0468  0.0477
  929MOL0     H25351   8.139   6.347  10.044 -1.6775 -1.8825 -0.8860
  929MOL0     H25352   8.135   6.093  10.216  0.0689 -0.7804 -1.4399
  929MOL0     H25353   8.283   6.192  10.196 -0.5345 -2.2002  2.7510
  929MOL0     H25354   8.237   6.165   9.936  2.1387 -0.1320 -0.7674
  929MOL0     H25355   8.114   6.057   9.975  0.1927 -1.5055  0.8365
  929MOL0     H25356   8.405   6.011  10.067  0.4925  1.5335 -1.6617
  929MOL0     H25357   8.256   5.909  10.098 -0.3624  0.4434  0.3740
  929MOL0     H25358   8.447   5.860   9.930 -1.1058  0.1685  2.0143
  929MOL0     H25359   8.271   5.829   9.875 -0.3177  0.5050 -4.3303
  929MOL0     H25360   8.264   6.033   9.748  0.3200  1.5839 -0.3781
  929MOL0     H25361   8.413   6.085   9.811 -2.7746  1.2847  1.0402
  929MOL0     H25362   8.368   5.846   9.618  2.1739 -1.3496 -1.4917
  929MOL0     H25363   8.520   5.871   9.703 -0.6631  1.7830  3.9208
  929MOL0     H25364   8.546   6.090   9.581 -1.4702  0.9049  0.4944
  929MOL0     H25365   8.526   5.972   9.466 -0.2245 -1.1016 -0.0746
  929MOL0     H25366   8.274   5.932   9.373  2.2334 -0.0475  0.9466
  929MOL0     H25367   8.076   6.236   9.218 -2.8256 -1.0080 -1.0258
  929MOL0     H25368   8.112   6.065   9.194  2.1288  0.3419 -0.9573
  929MOL0     H25369   7.864   6.131   9.272  0.2957  2.1478 -0.4080
  929MOL0     H25370   7.936   6.023   9.390 -3.0022  0.4801 -0.3151
  929MOL0     H25371   7.938   6.330   9.424 -0.2964  1.2622  1.3637
  929MOL0     H25372   7.984   6.207   9.545 -2.3002  0.3102  1.7101
  929MOL0     H25373   7.737   6.139   9.534  0.7797  0.4971  1.6768
  929MOL0     H25374   7.744   6.298   9.439  3.5504  0.0954 -1.1169
  929MOL0     H25375   7.722   6.412   9.876  0.3039  0.2501 -1.0486
  929MOL0     H25376   7.517   6.543   9.952  0.5339 -1.7300  0.6658
  929MOL0     H25377   7.113   6.592  10.106  0.3395  1.5695  2.1108
  929MOL0     H25378   6.910   6.706  10.171  1.8074 -1.2469  1.7840
  929MOL0     H25379   6.877   7.096   9.959  0.1071 -1.9725 -1.3027
  929MOL0     H25380   6.748   7.030   9.865  2.6162 -2.8139 -1.1602
  929MOL0     H25381   6.591   7.076  10.049  1.2177 -0.8780  0.2965
  929MOL0     H25382   6.715   7.097  10.169 -0.9027  4.3498  1.8878
  929MOL0     H25383   6.645   7.319  10.138 -1.8488 -2.9792  0.6400
  929MOL0     H25384   6.800   7.302  10.053  0.6250 -0.8565  0.1028
  929MOL0     H25385   6.663   7.258   9.842  4.0307 -0.9000  1.5613
  929MOL0     H25386   6.676   7.427   9.898 -1.0755  0.1215 -1.4302
  929MOL0     H25387   6.465   7.427  10.024 -2.6421 -0.7008  0.8302
  929MOL0     H25388   6.432   7.260   9.982 -0.3703  0.4499  1.2288
  929MOL0     H25389   6.333   7.460   9.847 -1.0898 -2.0455  2.0827
  929MOL0     H25390   6.481   7.437   9.744 -2.1278  1.4980  0.0879
  929MOL0     H25391   6.264   7.228   9.793 -0.1879 -0.5793 -0.0529
  929MOL0     H25392   6.436   7.194   9.770  0.5376  0.4862 -0.3388
  929MOL0     H25393   6.283   7.187   9.579 -1.0824  0.7397 -0.2801
  929MOL0     H25394   6.279   7.365   9.576 -0.3393 -0.2106 -1.9541
  929MOL0     H25395   6.964   6.956   9.814 -0.9200  1.0235  0.3318
  929MOL0     H25396   7.173   6.860   9.782 -0.0481  2.5395  1.3844
  929MOL0     H25397   7.349   6.456   9.560  1.4675  0.3079 -0.4757
  929MOL0     H25398   7.526   6.331   9.507 -4.0235 -0.5139  0.1825
  929MOL0     H25399   7.955   6.449  10.453 -0.9734 -0.8615  0.0432
  929MOL0     H25400   7.799   6.662  10.457 -0.0685  2.8679 -1.2387
  929MOL0     H25401   7.318   6.694  10.212 -0.1659  0.7062 -0.6378
  929MOL0     H25402   7.131   6.844  10.207  0.7431  1.1662 -1.6112
  929MOL0     H25403   7.202   7.253  10.398  0.8126 -0.7001  0.4376
  929MOL0     H25404   7.157   7.127  10.510  2.1218  1.4360  2.0667
  929MOL0     H25405   6.995   7.228  10.551  1.3716  1.7260 -0.1344
  929MOL0     H25406   6.920   7.136  10.417 -2.9647  1.3037  2.0606
  929MOL0     H25407   6.943   7.327  10.265 -3.3362  3.1855 -0.9895
  929MOL0     H25408   6.996   7.434  10.401 -2.3674  1.2319  0.3018
  929MOL0     H25409   6.721   7.298  10.375  0.3068 -1.8715  2.6908
  929MOL0     H25410   6.785   7.380  10.516  1.5264  2.0753  0.1147
  929MOL0     H25411   6.665   7.658  10.224 -1.6742  0.4717  1.4818
  929MOL0     H25412   7.378   7.143  10.381 -0.8876  0.0777  0.6752
  929MOL0     H25413   7.642   6.939  10.470  1.3999  0.5148 -0.0430
  929MOL0     H25414   7.681   7.010  10.312 -2.2520 -1.4028 -2.7373
  929MOL0     H25415   7.602   7.105  10.447  0.9815  0.1469 -1.1660
  930MOL0     O25416   2.696   7.229   7.524 -0.0079  0.3156  0.7232
  930MOL0     C25417   2.790   7.302   7.494 -0.5711 -0.4797 -0.0979
  930MOL0     O25418   2.871   7.374   7.576  0.5958  0.2289 -0.3375
  930MOL0     C25419   2.837   7.383   7.710  0.5669  0.6438 -0.9281
  930MOL0     C25420   2.710   7.363   7.780  0.2267 -0.0694 -0.1482
  930MOL0     C25421   2.707   7.349   7.921 -0.3438 -0.0072 -0.3813
  930MOL0     C25422   2.816   7.362   8.003  0.1633  0.6309 -0.7971
  930MOL0     O25423   2.811   7.366   8.141 -0.0676 -0.6328  0.5600
  930MOL0     C25424   2.688   7.350   8.211 -0.1453  0.2571 -0.8003
  930MOL0     C25425   2.703   7.414   8.350  0.9428  0.4582 -0.1199
  930MOL0     C25426   2.562   7.453   8.399  0.6240 -0.8066 -0.1817
  930MOL0     C25427   2.489   7.350   8.481 -0.1491 -0.1285 -0.2572
  930MOL0     C25428   2.360   7.395   8.543  0.4859  0.2144 -0.5799
  930MOL0     C25429   2.250   7.434   8.447 -0.3226  0.5406 -0.0988
  930MOL0     C25430   2.110   7.417   8.506 -0.2495  0.1517 -0.6896
  930MOL0     C25431   2.006   7.424   8.399  0.7406  0.6220  0.1361
  930MOL0     N25432   1.976   7.568   8.365 -0.6316 -0.2937  0.3755
  930MOL0     C25433   1.870   7.646   8.412  0.8118 -0.0836 -0.0060
  930MOL0     C25434   1.876   7.769   8.357  0.7299  0.3330  0.1514
  930MOL0     C25435   1.789   7.882   8.383 -0.2757 -1.5386 -0.9389
  930MOL0     C25436   1.849   8.018   8.385  0.4962  1.0144 -0.2730
  930MOL0     C25437   1.888   8.058   8.532  0.8800 -0.6086  0.0051
  930MOL0     C25438   1.970   8.180   8.531 -1.4240 -0.6223 -0.1428
  930MOL0     O25439   2.109   8.149   8.511 -0.1254  0.8557  0.2846
  930MOL0     C25440   2.173   8.057   8.587 -0.6248 -0.7762  0.2992
  930MOL0     C25441   2.153   8.052   8.723  0.6239  0.1704  0.3419
  930MOL0     C25442   2.218   7.973   8.816  0.0924 -0.1293 -0.0819
  930MOL0     C25443   2.320   7.892   8.762  0.2941 -0.6404  0.7250
  930MOL0     C25444   2.405   7.797   8.852 -0.9856 -0.3198  1.0439
  930MOL0     O25445   2.511   7.721   8.796  0.4467  0.0908 -0.1351
  930MOL0     C25446   2.609   7.653   8.863 -0.2359 -0.5728  0.5034
  930MOL0     C25447   2.712   7.598   8.784  0.0419 -0.3437 -0.7995
  930MOL0     C25448   2.826   7.540   8.833  0.1007 -0.1865 -0.5990
  930MOL0     C25449   2.841   7.536   8.974  0.9851 -0.1016 -0.0899
  930MOL0     O25450   2.927   7.454   9.038  0.1368 -0.4341 -0.4413
  930MOL0     C25451   2.999   7.356   8.968  0.6253 -0.3051  0.1754
  930MOL0     C25452   3.065   7.250   9.063 -0.9489 -0.2869  1.3631
  930MOL0     C25453   2.978   7.144   9.120  0.5984 -0.2420 -0.9291
  930MOL0     C25454   3.057   7.037   9.185 -0.2468 -0.2764  1.0203
  930MOL0     C25455   2.966   6.924   9.218  0.2749  0.4193 -0.1484
  930MOL0     C25456   3.011   6.810   9.310 -0.3908  0.6070 -0.2666
  930MOL0     C25457   2.901   6.716   9.328 -0.6187 -0.0786  0.4025
  930MOL0     C25458   2.859   6.645   9.200 -0.5338  0.6073  0.5051
  930MOL0    Cl25459   2.780   6.478   9.244  0.7104  0.3515 -0.2045
  930MOL0     C25460   2.735   7.584   9.059  0.7428 -0.0376 -0.8254
  930MOL0     C25461   2.629   7.654   9.002  0.2383  0.1073 -0.4695
  930MOL0     O25462   2.370   7.803   8.967 -0.4187  0.4808  0.2016
  930MOL0     C25463   2.351   7.895   8.626  0.8392 -0.4175  0.1706
  930MOL0     C25464   2.270   7.971   8.537  0.2588  0.2150 -0.2311
  930MOL0     N25465   1.984   7.767   8.275 -0.6162  0.3406  0.2283
  930MOL0     N25466   2.031   7.645   8.271  0.2534 -0.8478 -0.4536
  930MOL0     C25467   2.938   7.390   7.938 -0.7489 -1.3792 -0.3220
  930MOL0     C25468   2.944   7.407   7.804  0.6071 -0.2368 -0.0569
  930MOL0     C25469   2.848   7.283   7.364 -0.0136  0.9525 -0.6315
  930MOL0     C25470   2.987   7.319   7.345 -1.0040 -0.1370  0.8938
  930MOL0     C25471   3.048   7.299   7.219 -0.4588  0.4657 -0.2252
  930MOL0     C25472   2.981   7.250   7.107  0.2205  0.3908 -0.4031
  930MOL0     O25473   3.024   7.227   6.979 -0.9259 -0.2506 -0.3488
  930MOL0     C25474   3.153   7.176   6.959 -0.2882 -0.7008  0.6799
  930MOL0     C25475   3.167   7.129   6.809 -0.4278 -0.5108 -1.4661
  930MOL0     C25476   3.138   7.244   6.711  0.6280 -0.3683  0.9869
  930MOL0     C25477   3.189   7.206   6.565  0.2455 -0.2556 -1.8426
  930MOL0     C25478   3.145   7.297   6.459  0.9604  0.5240  0.4931
  930MOL0     C25479   3.119   7.378   6.374  0.5522  0.4334  0.2141
  930MOL0     C25480   2.846   7.208   7.129  0.9288  0.2204 -0.7420
  930MOL0     C25481   2.780   7.226   7.253 -0.3593  0.8883 -0.1319
  930MOL0     C25482   2.635   7.201   7.250 -0.1974  0.0398  0.3621
  930MOL0     H25483   2.631   7.330   7.714 -0.6534  0.2892  0.7148
  930MOL0     H25484   2.619   7.325   7.980  1.7694  0.8149  3.3713
  930MOL0     H25485   2.601   7.396   8.162  0.5724  1.1840 -1.2355
  930MOL0     H25486   2.667   7.245   8.230  1.9494 -0.0303  0.1466
  930MOL0     H25487   2.770   7.500   8.352  2.1708 -0.4733  1.6587
  930MOL0     H25488   2.749   7.351   8.427 -0.1502  1.0019  1.0109
  930MOL0     H25489   2.498   7.481   8.315 -1.8163 -1.3520  1.3787
  930MOL0     H25490   2.576   7.551   8.445  0.8754 -0.9122 -0.0302
  930MOL0     H25491   2.465   7.256   8.430  0.1288 -0.3339 -0.0079
  930MOL0     H25492   2.565   7.325   8.555  2.4983  2.3496 -1.9261
  930MOL0     H25493   2.327   7.322   8.616  2.0203 -0.6484 -0.6970
  930MOL0     H25494   2.390   7.482   8.602  0.6773  1.6722 -2.6788
  930MOL0     H25495   2.261   7.535   8.406  0.8790  1.9091  3.2336
  930MOL0     H25496   2.262   7.364   8.364 -2.2166  1.4130 -1.1814
  930MOL0     H25497   2.095   7.495   8.581  1.3589  1.8917 -2.1016
  930MOL0     H25498   2.102   7.315   8.547 -0.5062 -0.3558 -1.9471
  930MOL0     H25499   2.021   7.356   8.315 -1.4768 -2.7442  2.2290
  930MOL0     H25500   1.917   7.381   8.445  1.4074 -0.0999  0.7880
  930MOL0     H25501   1.786   7.620   8.476 -0.2592 -0.6849 -1.6000
  930MOL0     H25502   1.717   7.875   8.301  0.6363 -4.3286 -1.5939
  930MOL0     H25503   1.737   7.856   8.476  2.8799  0.8647  1.7273
  930MOL0     H25504   1.932   8.014   8.314  0.4578 -2.1590 -0.2700
  930MOL0     H25505   1.771   8.080   8.341 -1.9175 -2.5870 -1.5455
  930MOL0     H25506   1.935   7.979   8.592  2.2105  1.5020  1.8958
  930MOL0     H25507   1.796   8.070   8.591  1.7352 -0.1440  1.2862
  930MOL0     H25508   1.969   8.218   8.633  1.6920 -0.9834  0.1296
  930MOL0     H25509   1.927   8.247   8.456 -1.1363  0.9872  1.0855
  930MOL0     H25510   2.087   8.124   8.771  0.9873  1.2683 -0.7493
  930MOL0     H25511   2.198   7.974   8.923 -0.9262  1.0439 -0.2603
  930MOL0     H25512   2.670   7.589   8.684  1.3508 -3.1496 -1.1951
  930MOL0     H25513   2.908   7.489   8.783  2.1795  0.7164  1.6302
  930MOL0     H25514   2.930   7.296   8.907  0.9510 -0.9113  0.3918
  930MOL0     H25515   3.077   7.407   8.912 -0.9591  0.5423 -1.3560
  930MOL0     H25516   3.148   7.223   8.997 -2.7649  0.2187 -1.2720
  930MOL0     H25517   3.101   7.307   9.149  1.6256 -1.6908  1.3237
  930MOL0     H25518   2.915   7.180   9.202 -1.9221  1.8000 -3.5365
  930MOL0     H25519   2.912   7.101   9.043  0.6608  0.2981 -1.2865
  930MOL0     H25520   3.097   7.063   9.283  0.2068 -0.9735  1.0235
  930MOL0     H25521   3.142   7.010   9.121 -0.7453  0.5362 -0.0303
  930MOL0     H25522   2.939   6.876   9.124  0.2132 -2.0223  1.0399
  930MOL0     H25523   2.877   6.963   9.269  1.7120  2.6947  0.7744
  930MOL0     H25524   3.102   6.754   9.287 -0.3927 -0.2445  1.5758
  930MOL0     H25525   3.037   6.860   9.404 -0.6160 -1.6878  1.1031
  930MOL0     H25526   2.817   6.772   9.369 -1.0003 -1.6254  1.8566
  930MOL0     H25527   2.947   6.643   9.395  2.0696  0.0334 -1.1605
  930MOL0     H25528   2.800   6.706   9.131 -0.1142  0.0218 -0.3771
  930MOL0     H25529   2.945   6.605   9.146 -2.0264 -0.8073 -0.9264
  930MOL0     H25530   2.740   7.569   9.166 -1.3871 -0.2882 -0.7311
  930MOL0     H25531   2.556   7.702   9.066  2.6351  0.8853  1.8564
  930MOL0     H25532   2.435   7.843   8.582 -1.3872 -3.2991 -1.0294
  930MOL0     H25533   2.278   7.950   8.431 -0.5430  0.1952 -0.2949
  930MOL0     H25534   3.025   7.408   8.001  1.0106  1.4318 -3.2359
  930MOL0     H25535   3.037   7.437   7.756  0.7296  0.0555  0.3613
  930MOL0     H25536   3.055   7.372   7.411  0.5409  0.9643 -1.4254
  930MOL0     H25537   3.151   7.331   7.211 -0.2139  1.4005  4.1047
  930MOL0     H25538   3.181   7.090   7.020  1.5124 -0.8914 -0.3606
  930MOL0     H25539   3.224   7.257   6.977 -3.1599  2.9768 -2.5166
  930MOL0     H25540   3.097   7.047   6.792 -2.1036  0.9148 -1.7004
  930MOL0     H25541   3.274   7.107   6.799 -0.3388 -0.1751 -1.2511
  930MOL0     H25542   3.185   7.337   6.744  1.3626 -0.1950 -0.4883
  930MOL0     H25543   3.030   7.258   6.717  0.6545  0.5820 -0.4588
  930MOL0     H25544   3.298   7.193   6.570  0.0849 -1.3372  0.3453
  930MOL0     H25545   3.152   7.104   6.546  2.0696 -2.6556  4.5518
  930MOL0     H25546   3.090   7.454   6.304  1.7980  1.4780  0.7971
  930MOL0     H25547   2.788   7.188   7.039  0.8450  1.2814 -0.9293
  930MOL0     H25548   2.600   7.117   7.311 -0.1678 -2.0468 -2.3237
  930MOL0     H25549   2.584   7.294   7.280 -1.0719 -0.7098  1.2959
  930MOL0     H25550   2.608   7.186   7.145  2.2614  2.5829 -0.7755
  931MOL0     O25551   3.890   0.845   5.496 -0.5447 -0.3563  0.3440
  931MOL0     C25552   4.002   0.882   5.457  0.7911 -0.4473 -0.7151
  931MOL0     O25553   4.028   0.913   5.325  0.2859 -0.6535  0.1552
  931MOL0     C25554   3.932   0.909   5.233  1.1884  0.2791 -0.1772
  931MOL0     C25555   3.902   0.804   5.152  0.0154 -0.3588 -0.3118
  931MOL0     C25556   3.811   0.826   5.050  0.2621 -0.5844  0.7568
  931MOL0     C25557   3.736   0.949   5.039  1.2008 -0.3222  0.0091
  931MOL0     O25558   3.637   0.973   4.944 -0.6904 -0.2413 -0.4517
  931MOL0     C25559   3.673   0.929   4.819 -0.7782 -0.0012 -0.5194
  931MOL0     C25560   3.583   0.997   4.719 -0.9914 -0.9232  1.4107
  931MOL0     C25561   3.439   1.005   4.766 -0.2545 -0.6111  0.6241
  931MOL0     C25562   3.345   1.045   4.652  0.9000  0.6923 -0.2268
  931MOL0     C25563   3.199   1.049   4.705 -0.0706  0.3742  0.2925
  931MOL0     C25564   3.115   1.135   4.615  0.2789  1.0270 -0.1962
  931MOL0     C25565   2.972   1.170   4.679 -1.1532 -0.0936 -0.4849
  931MOL0     C25566   2.878   1.226   4.572  0.1349  1.5506  0.3287
  931MOL0     N25567   2.749   1.253   4.642 -0.2373 -0.0748  1.1915
  931MOL0     C25568   2.664   1.164   4.698 -0.4950  0.4252  0.2412
  931MOL0     C25569   2.578   1.243   4.773 -0.3913 -0.7708 -1.0513
  931MOL0     C25570   2.473   1.188   4.851  0.3874  1.1161  0.3697
  931MOL0     C25571   2.328   1.195   4.791 -0.1635  0.3295  0.3514
  931MOL0     C25572   2.265   1.336   4.817 -0.3881 -0.0732 -0.5119
  931MOL0     C25573   2.133   1.356   4.748 -0.1937  1.0027 -0.7108
  931MOL0     O25574   2.097   1.493   4.773  0.6188  0.2187  0.0717
  931MOL0     C25575   2.021   1.532   4.884  0.1268  0.3474  0.5584
  931MOL0     C25576   1.967   1.655   4.879  0.1039  0.5963 -0.3486
  931MOL0     C25577   1.886   1.704   4.975  0.5274  0.3331  0.0299
  931MOL0     C25578   1.859   1.628   5.093  0.1255 -0.5140 -0.1964
  931MOL0     C25579   1.765   1.669   5.198  0.7437 -0.0491  0.0396
  931MOL0     O25580   1.735   1.581   5.299  0.6608  0.7365 -0.1637
  931MOL0     C25581   1.648   1.619   5.392 -0.3848  0.7331 -0.2240
  931MOL0     C25582   1.512   1.649   5.374  0.2044  0.5200  0.0525
  931MOL0     C25583   1.423   1.669   5.480  0.4876  1.0932  0.7312
  931MOL0     C25584   1.475   1.677   5.615 -0.4651  0.3257  0.6693
  931MOL0     O25585   1.405   1.718   5.728  0.2221 -0.2559  0.4444
  931MOL0     C25586   1.270   1.758   5.727 -0.6653 -0.0763  0.0349
  931MOL0     C25587   1.268   1.907   5.683  0.0945  0.6419 -0.0473
  931MOL0     C25588   1.134   1.972   5.723 -0.2749 -0.1029  0.8268
  931MOL0     C25589   1.118   2.111   5.659 -0.3159 -0.2224  0.9246
  931MOL0     C25590   0.993   2.176   5.706  0.7085  0.5863  0.1855
  931MOL0     C25591   0.968   2.314   5.644  0.0417 -0.0214  0.4777
  931MOL0     C25592   0.857   2.403   5.705  0.6692  0.7143  0.4964
  931MOL0     C25593   0.841   2.404   5.854 -0.3055 -0.3863  0.2281
  931MOL0    Cl25594   1.009   2.467   5.911  0.1212  0.6861 -0.1291
  931MOL0     C25595   1.608   1.644   5.632 -0.5119 -0.1393 -0.5713
  931MOL0     C25596   1.683   1.608   5.527 -0.0309  0.0476  0.9566
  931MOL0     O25597   1.719   1.785   5.190  0.4947  0.2941  0.6238
  931MOL0     C25598   1.916   1.502   5.100 -0.0750  0.4992  0.1798
  931MOL0     C25599   1.997   1.455   5.002  0.2992  0.5874  0.8313
  931MOL0     N25600   2.613   1.384   4.757 -1.2239  0.7487 -0.0501
  931MOL0     N25601   2.709   1.386   4.668  0.0413 -0.2040  0.7515
  931MOL0     C25602   3.755   1.050   5.135  0.6892 -0.2644 -1.2225
  931MOL0     C25603   3.859   1.033   5.224  0.4750 -0.4083  0.7180
  931MOL0     C25604   4.110   0.884   5.561 -0.4982  0.3982 -0.4556
  931MOL0     C25605   4.108   0.796   5.665 -0.0166 -0.5593  0.9359
  931MOL0     C25606   4.214   0.765   5.749 -1.3126 -0.5812  0.1415
  931MOL0     C25607   4.336   0.840   5.727  0.8305 -0.4337 -0.0318
  931MOL0     O25608   4.454   0.818   5.796  1.1033  0.5504 -0.2523
  931MOL0     C25609   4.448   0.839   5.942  0.5116  0.2030  0.2041
  931MOL0     C25610   4.416   0.980   5.978 -0.6875  0.6019 -0.5914
  931MOL0     C25611   4.514   1.088   5.939 -0.2870  0.4037 -0.7644
  931MOL0     C25612   4.627   1.108   6.040 -0.4867  0.2802 -0.1268
  931MOL0     C25613   4.709   1.215   5.984 -0.1242 -0.2339  0.3493
  931MOL0     C25614   4.779   1.293   5.926 -0.4973  0.3691 -0.0127
  931MOL0     C25615   4.342   0.930   5.617 -0.9564  0.2486  0.3356
  931MOL0     C25616   4.233   0.948   5.533 -0.5065 -0.0765 -0.2896
  931MOL0     C25617   4.251   1.053   5.439  0.0794 -0.0513  1.2150
  931MOL0     H25618   3.961   0.713   5.158 -0.9675 -0.9105  3.2823
  931MOL0     H25619   3.799   0.747   4.977  1.0532 -1.4006  1.4987
  931MOL0     H25620   3.780   0.942   4.798 -0.6506  0.1921  0.2055
  931MOL0     H25621   3.651   0.822   4.817 -0.9321  0.0362 -1.1194
  931MOL0     H25622   3.579   0.937   4.627 -4.3857 -2.0699  2.1582
  931MOL0     H25623   3.625   1.096   4.701 -0.2690 -1.6048 -1.1855
  931MOL0     H25624   3.435   1.079   4.846 -0.1811 -1.2139  1.1954
  931MOL0     H25625   3.397   0.914   4.809 -0.0116 -0.0420  2.1298
  931MOL0     H25626   3.369   1.146   4.619  1.9016  0.2197 -0.9896
  931MOL0     H25627   3.361   0.982   4.564 -2.3165  0.4373 -0.7795
  931MOL0     H25628   3.150   0.952   4.720  1.4143 -0.5461 -0.6051
  931MOL0     H25629   3.198   1.100   4.801  0.7827  3.1856 -1.0864
  931MOL0     H25630   3.172   1.227   4.601  1.3069  0.6714  1.3739
  931MOL0     H25631   3.107   1.101   4.512  0.4138  0.6431 -0.0809
  931MOL0     H25632   2.985   1.245   4.757  0.5528  0.8440 -1.5854
  931MOL0     H25633   2.943   1.073   4.720 -0.0130 -1.0559 -1.8200
  931MOL0     H25634   2.922   1.316   4.528  2.4611  0.3438  0.0755
  931MOL0     H25635   2.857   1.151   4.495  2.3029  2.3171 -1.0855
  931MOL0     H25636   2.682   1.057   4.701  2.6351  0.7995 -1.0738
  931MOL0     H25637   2.491   1.081   4.861 -0.5667  0.8874 -0.2857
  931MOL0     H25638   2.489   1.229   4.951 -0.7625  1.9596  0.2249
  931MOL0     H25639   2.339   1.165   4.687 -2.4501  1.5346 -0.3025
  931MOL0     H25640   2.267   1.117   4.836  0.2284  0.1788  0.6275
  931MOL0     H25641   2.328   1.412   4.771  2.2679 -2.3486 -0.8874
  931MOL0     H25642   2.262   1.355   4.925 -1.2496  0.5539 -0.6403
  931MOL0     H25643   2.075   1.282   4.804  0.8907  1.9063  1.7758
  931MOL0     H25644   2.160   1.329   4.646  3.2559  3.2931 -0.5980
  931MOL0     H25645   1.976   1.713   4.788 -0.9210 -0.5603 -1.2163
  931MOL0     H25646   1.846   1.803   4.956  2.2113  1.0625  0.1653
  931MOL0     H25647   1.473   1.642   5.273  2.2266 -0.6457 -0.7155
  931MOL0     H25648   1.317   1.681   5.459  0.4691  0.1558  0.2743
  931MOL0     H25649   1.214   1.695   5.657 -2.3565  2.4985 -1.0913
  931MOL0     H25650   1.211   1.754   5.819 -2.3136  3.6514 -0.6722
  931MOL0     H25651   1.356   1.963   5.715  0.4626 -0.8476  1.7568
  931MOL0     H25652   1.258   1.895   5.575 -4.6879  0.1731  0.2114
  931MOL0     H25653   1.050   1.905   5.701 -1.9785  1.4931  2.0931
  931MOL0     H25654   1.128   1.976   5.833 -3.1103 -0.1090  0.7501
  931MOL0     H25655   1.121   2.086   5.552  1.3249  0.6065  0.7406
  931MOL0     H25656   1.208   2.166   5.686 -1.0037 -0.0375  2.9958
  931MOL0     H25657   0.986   2.167   5.815 -0.4669  0.6567  0.1272
  931MOL0     H25658   0.910   2.117   5.667 -0.5930  1.4273  1.5181
  931MOL0     H25659   1.064   2.366   5.652  0.6458 -1.2295  1.4804
  931MOL0     H25660   0.931   2.293   5.543  0.9976  0.5933 -0.0206
  931MOL0     H25661   0.767   2.354   5.667  1.3119  1.6512 -2.5519
  931MOL0     H25662   0.868   2.505   5.667 -1.5271  0.0309 -2.3339
  931MOL0     H25663   0.774   2.483   5.887  0.3309  0.4546 -0.4566
  931MOL0     H25664   0.817   2.302   5.887 -0.2638 -0.6375 -0.4856
  931MOL0     H25665   1.652   1.670   5.728 -0.0063  1.9324 -1.3307
  931MOL0     H25666   1.785   1.576   5.549  1.0071  1.6458 -1.1512
  931MOL0     H25667   1.891   1.432   5.178 -1.0029 -1.5261 -1.8334
  931MOL0     H25668   2.047   1.359   5.007  1.0676  0.8711 -0.7329
  931MOL0     H25669   3.699   1.143   5.127  0.6862 -0.2462 -1.0077
  931MOL0     H25670   3.876   1.122   5.283  4.0232 -0.1169 -0.5155
  931MOL0     H25671   4.012   0.757   5.697 -0.7992  0.8073  0.3446
  931MOL0     H25672   4.211   0.691   5.828 -0.3913  2.7568  3.6541
  931MOL0     H25673   4.542   0.805   5.987  0.4682  2.4177  2.1050
  931MOL0     H25674   4.380   0.767   5.988  0.7371  0.3055  0.7021
  931MOL0     H25675   4.413   1.002   6.085  0.1682  3.4308 -1.0600
  931MOL0     H25676   4.313   1.000   5.947 -0.8997  0.9957  0.3281
  931MOL0     H25677   4.469   1.188   5.931  1.7217  1.4373 -0.0939
  931MOL0     H25678   4.557   1.060   5.842 -0.2754  2.0862 -1.2896
  931MOL0     H25679   4.594   1.133   6.141 -0.2890 -1.7934  0.4975
  931MOL0     H25680   4.696   1.023   6.046 -2.4299 -1.2637  1.8126
  931MOL0     H25681   4.855   1.351   5.878  1.3983 -1.1277  1.0473
  931MOL0     H25682   4.436   0.980   5.601  0.2190 -1.4011  1.6656
  931MOL0     H25683   4.268   0.994   5.348  0.2665 -0.9474  1.8125
  931MOL0     H25684   4.158   1.109   5.432  0.7551  1.2818  2.4391
  931MOL0     H25685   4.333   1.125   5.449  2.6204 -1.7256 -3.9795
  932MOL0     O25686  10.978   0.171   0.812 -0.0850 -0.2209  0.8276
  932MOL0     C25687  11.038   0.261   0.754 -0.3000 -1.3055  0.4443
  932MOL0     O25688  11.146   0.237   0.670 -0.3827 -0.6051  0.9445
  932MOL0     C25689  11.179   0.115   0.610 -0.6709  1.1247 -0.5610
  932MOL0     C25690  11.078   0.020   0.579  0.3825 -0.7501  0.7795
  932MOL0     C25691  11.119  -0.112   0.528 -0.1778  0.5531 -1.1358
  932MOL0     C25692  11.258  -0.143   0.509 -0.5171  0.7596  0.1108
  932MOL0     O25693  11.292  -0.265   0.452  0.2815  0.2871 -0.8964
  932MOL0     C25694  11.377  -0.346   0.538 -0.1181  0.4039  0.2061
  932MOL0     C25695  11.417  -0.469   0.453  0.8650 -0.3896  0.6421
  932MOL0     C25696  11.479  -0.435   0.321 -0.2405 -0.8100  0.0639
  932MOL0     C25697  11.616  -0.362   0.316  0.5659  0.1745  0.3928
  932MOL0     C25698  11.714  -0.408   0.211 -1.0647 -0.6824 -0.5344
  932MOL0     C25699  11.801  -0.296   0.152  0.1296  0.2119 -0.2913
  932MOL0     C25700  11.736  -0.222   0.036  0.0525 -0.4355 -0.3550
  932MOL0     C25701  11.818  -0.107  -0.036  0.3920 -0.5864 -0.6216
  932MOL0     N25702  11.735  -0.047  -0.141 -0.0836 -0.2805  0.2380
  932MOL0     C25703  11.704   0.087  -0.161  0.2480  0.0208  0.6779
  932MOL0     C25704  11.636   0.088  -0.281  0.0451  0.2608 -0.0526
  932MOL0     C25705  11.583   0.213  -0.322 -0.0360 -0.7193 -0.1183
  932MOL0     C25706  11.443   0.186  -0.386  0.9167  0.2390  0.3324
  932MOL0     C25707  11.381   0.312  -0.425  0.3639 -0.2637  0.5391
  932MOL0     C25708  11.244   0.275  -0.492 -0.0518  0.3603 -0.9711
  932MOL0     O25709  11.188   0.401  -0.520 -0.7180 -0.1838 -0.2149
  932MOL0     C25710  11.054   0.383  -0.557 -0.1768 -0.5500  1.2013
  932MOL0     C25711  11.015   0.331  -0.676  0.3940  0.8642 -0.2163
  932MOL0     C25712  10.883   0.305  -0.709  0.3447 -0.6677 -0.5419
  932MOL0     C25713  10.782   0.336  -0.614  0.9027  0.1863  0.4857
  932MOL0     C25714  10.638   0.292  -0.648 -0.9159 -0.8022  0.6498
  932MOL0     O25715  10.604   0.293  -0.782  0.0185 -0.0285  0.0130
  932MOL0     C25716  10.472   0.314  -0.834 -0.4151 -0.2531  0.1305
  932MOL0     C25717  10.355   0.350  -0.771  0.1445 -0.3880  0.3554
  932MOL0     C25718  10.239   0.369  -0.852  0.3837  0.4605  0.6947
  932MOL0     C25719  10.237   0.368  -0.990 -0.5172  1.3485  0.1484
  932MOL0     O25720  10.121   0.376  -1.068 -0.0752 -0.1179 -0.0009
  932MOL0     C25721  10.016   0.287  -1.031  1.4058 -0.0828 -0.0053
  932MOL0     C25722   9.959   0.219  -1.161  0.1402 -0.0407 -0.8571
  932MOL0     C25723  10.058   0.113  -1.214  0.3522  0.1772  0.6047
  932MOL0     C25724  10.027   0.056  -1.355 -0.7959  0.5296 -0.9620
  932MOL0     C25725   9.914  -0.051  -1.339 -0.0426  0.3953  0.3293
  932MOL0     C25726   9.876  -0.131  -1.470 -0.4749 -0.0555 -0.6314
  932MOL0     C25727   9.838  -0.039  -1.590  1.1362  0.4380  0.7057
  932MOL0     C25728   9.684  -0.038  -1.614  0.2054  0.1614 -0.2994
  932MOL0    Cl25729   9.627  -0.173  -1.717 -0.1386 -0.3484 -0.5702
  932MOL0     C25730  10.357   0.333  -1.046  0.1983  0.9506 -0.4164
  932MOL0     C25731  10.465   0.301  -0.972 -0.5118 -0.0764 -0.2907
  932MOL0     O25732  10.569   0.259  -0.557 -0.6557  0.0142 -0.5640
  932MOL0     C25733  10.816   0.377  -0.483  0.0544 -0.3837  0.4937
  932MOL0     C25734  10.957   0.395  -0.452 -0.0815 -0.6872  0.7520
  932MOL0     N25735  11.639  -0.037  -0.343 -0.0284 -0.2946  0.2286
  932MOL0     N25736  11.693  -0.121  -0.252 -0.1670 -0.4046 -0.2530
  932MOL0     C25737  11.353  -0.040   0.526 -1.0011  0.1953  0.3463
  932MOL0     C25738  11.309   0.084   0.581 -0.3769  0.2847 -1.3642
  932MOL0     C25739  10.994   0.406   0.780 -0.6619  0.3049  0.1067
  932MOL0     C25740  11.048   0.506   0.703  0.4721  0.1474  0.6175
  932MOL0     C25741  11.003   0.634   0.711 -0.7301  0.7279  0.3054
  932MOL0     C25742  10.896   0.671   0.784 -0.5294  0.0899  0.6017
  932MOL0     O25743  10.853   0.802   0.768 -0.4188  0.2401  0.3447
  932MOL0     C25744  10.741   0.853   0.843  0.3101  0.1869  0.1828
  932MOL0     C25745  10.603   0.824   0.779  0.5725  0.0311  0.2939
  932MOL0     C25746  10.602   0.805   0.632 -0.0422  0.4120  0.1599
  932MOL0     C25747  10.460   0.818   0.572  0.2311  0.6940 -0.1090
  932MOL0     C25748  10.468   0.785   0.429 -0.3395 -0.1885 -0.6309
  932MOL0     C25749  10.476   0.758   0.311 -0.4654  0.1015 -0.2843
  932MOL0     C25750  10.839   0.577   0.871 -0.0036 -0.8252  1.0559
  932MOL0     C25751  10.889   0.444   0.871  0.1161  0.5180  0.6232
  932MOL0     C25752  10.832   0.347   0.973  0.0872 -0.3001 -0.3641
  932MOL0     H25753  10.978   0.054   0.602  0.6426  0.2634  0.4608
  932MOL0     H25754  11.054  -0.197   0.517  0.7492 -0.7235  2.0376
  932MOL0     H25755  11.471  -0.295   0.560  0.3133 -0.4353  0.3471
  932MOL0     H25756  11.332  -0.388   0.629 -1.2558 -1.6903 -1.2352
  932MOL0     H25757  11.318  -0.515   0.442  0.7594 -0.8745  2.9968
  932MOL0     H25758  11.482  -0.540   0.505  1.9427  0.3887  0.3950
  932MOL0     H25759  11.409  -0.371   0.266 -0.3807 -0.0415  1.0993
  932MOL0     H25760  11.483  -0.529   0.267 -1.1973 -0.0304 -1.4226
  932MOL0     H25761  11.599  -0.256   0.296 -0.0230 -0.1337 -0.8470
  932MOL0     H25762  11.657  -0.371   0.417  1.4894  1.1545  0.1141
  932MOL0     H25763  11.780  -0.479   0.261 -1.0079  0.7429  1.5778
  932MOL0     H25764  11.673  -0.460   0.124  0.9984 -1.8641 -0.8686
  932MOL0     H25765  11.841  -0.235   0.233  1.3284 -1.5317  0.4723
  932MOL0     H25766  11.887  -0.347   0.108 -0.1206  0.0588 -0.6104
  932MOL0     H25767  11.644  -0.170   0.066 -1.1150 -2.1018 -0.9312
  932MOL0     H25768  11.697  -0.301  -0.029 -0.1940  0.8865 -1.8858
  932MOL0     H25769  11.841  -0.034   0.042  0.0554  0.7466 -1.7228
  932MOL0     H25770  11.912  -0.134  -0.085 -0.2217  1.6280 -3.2790
  932MOL0     H25771  11.724   0.177  -0.103 -1.6366  1.0148 -0.1114
  932MOL0     H25772  11.561   0.277  -0.236 -1.4043 -1.7993  0.3667
  932MOL0     H25773  11.660   0.265  -0.380  3.2386 -0.2769  4.1804
  932MOL0     H25774  11.441   0.112  -0.467  2.0386 -0.4716  0.9278
  932MOL0     H25775  11.389   0.140  -0.302 -0.0994 -0.0571 -0.4602
  932MOL0     H25776  11.451   0.365  -0.491  0.3059 -0.6002  0.2025
  932MOL0     H25777  11.360   0.374  -0.337 -0.5089  0.2327 -0.0133
  932MOL0     H25778  11.184   0.216  -0.423  2.0030 -3.1964 -1.9630
  932MOL0     H25779  11.259   0.215  -0.582 -3.5377  0.1187 -1.5311
  932MOL0     H25780  11.090   0.308  -0.751 -0.4171 -1.5270 -0.3789
  932MOL0     H25781  10.878   0.270  -0.812 -0.9358 -0.6187 -0.5033
  932MOL0     H25782  10.361   0.367  -0.664  2.0316  0.5873  0.1368
  932MOL0     H25783  10.141   0.386  -0.807  0.4494 -2.0860  2.0038
  932MOL0     H25784  10.055   0.209  -0.966  4.1260  1.5614  0.4727
  932MOL0     H25785   9.928   0.334  -0.986  1.6873  0.3348  0.1109
  932MOL0     H25786   9.866   0.165  -1.140 -0.4528  1.5461  0.8212
  932MOL0     H25787   9.930   0.302  -1.226 -0.1883  2.5428  2.3340
  932MOL0     H25788  10.151   0.166  -1.238  1.7539 -2.2021  0.5064
  932MOL0     H25789  10.082   0.035  -1.142 -3.1981 -1.1577  0.5303
  932MOL0     H25790  10.110   0.013  -1.411  1.3388  2.2649  0.7200
  932MOL0     H25791   9.991   0.143  -1.411  3.6747  3.1008 -0.3503
  932MOL0     H25792   9.819  -0.001  -1.320  0.1607 -0.0367  2.7687
  932MOL0     H25793   9.925  -0.129  -1.263  1.9748  0.3722  0.0843
  932MOL0     H25794   9.966  -0.180  -1.507 -0.0648  1.8624 -2.3526
  932MOL0     H25795   9.798  -0.199  -1.435 -2.0799  0.9061 -2.1581
  932MOL0     H25796   9.885  -0.069  -1.684  0.5866  1.9650 -0.0840
  932MOL0     H25797   9.872   0.063  -1.570  0.2117  0.5260  1.9019
  932MOL0     H25798   9.621  -0.047  -1.525 -0.1045 -3.0587 -0.7314
  932MOL0     H25799   9.659   0.054  -1.667  0.2827  1.0816  1.1832
  932MOL0     H25800  10.336   0.328  -1.153 -2.6297  0.5022  0.0761
  932MOL0     H25801  10.557   0.260  -1.014 -1.4733 -1.5156 -1.0813
  932MOL0     H25802  10.748   0.383  -0.399  0.5938  0.5642  0.8785
  932MOL0     H25803  10.989   0.434  -0.356 -3.5513  2.4376  0.8819
  932MOL0     H25804  11.455  -0.054   0.491  0.0570 -0.4702  3.4114
  932MOL0     H25805  11.383   0.161   0.601 -0.3906  0.0621 -0.4221
  932MOL0     H25806  11.131   0.480   0.637  0.9656  1.9239  0.4900
  932MOL0     H25807  11.041   0.712   0.647 -1.0603  0.8370  0.2395
  932MOL0     H25808  10.757   0.961   0.854  0.6551  0.1991 -0.4085
  932MOL0     H25809  10.745   0.824   0.948 -2.2615 -0.3783  0.1940
  932MOL0     H25810  10.535   0.903   0.810 -0.0497 -0.2140 -0.4208
  932MOL0     H25811  10.564   0.727   0.810 -0.1711  0.7421  1.6444
  932MOL0     H25812  10.652   0.711   0.607  3.0865  2.0657 -0.2734
  932MOL0     H25813  10.665   0.882   0.588  2.3143 -1.1245  0.6712
  932MOL0     H25814  10.398   0.744   0.623 -2.7751  3.8533  1.1843
  932MOL0     H25815  10.417   0.916   0.590 -4.8488 -1.4676  1.0651
  932MOL0     H25816  10.483   0.729   0.208 -1.6239  0.8848 -0.6090
  932MOL0     H25817  10.746   0.599   0.922 -0.5929 -1.7082  0.3993
  932MOL0     H25818  10.772   0.402   1.046  0.2488  1.6051 -1.5933
  932MOL0     H25819  10.779   0.262   0.929 -1.0139 -0.2583  0.8379
  932MOL0     H25820  10.907   0.300   1.037 -0.7749  1.9276  2.4786
  933MOL0     O25821   2.035  11.139   9.446  0.5693 -0.5017 -0.7749
  933MOL0     C25822   1.950  11.226   9.426 -0.4460  0.9642 -0.1441
  933MOL0     O25823   1.934  11.339   9.512  0.0809 -0.2069  0.2431
  933MOL0     C25824   1.951  11.294   9.640  0.5354 -0.2072 -0.9980
  933MOL0     C25825   2.076  11.267   9.705 -0.2784  1.2631  0.6262
  933MOL0     C25826   2.080  11.213   9.832 -0.0720 -0.1820  0.7860
  933MOL0     C25827   1.962  11.195   9.904  0.3898 -0.0311 -0.8592
  933MOL0     O25828   1.968  11.137  10.032 -0.1082 -0.0560  0.2426
  933MOL0     C25829   2.090  11.101  10.085  0.2212 -0.6370 -0.9164
  933MOL0     C25830   2.080  11.097  10.239 -0.3033  0.4847 -0.4882
  933MOL0     C25831   2.217  11.063  10.310 -0.4461  0.8001  0.3495
  933MOL0     C25832   2.178  10.983  10.434  0.3070  0.4458  0.0069
  933MOL0     C25833   2.290  10.965  10.538 -1.3680 -0.7165 -0.4312
  933MOL0     C25834   2.336  11.093  10.598 -0.7214 -0.2776 -0.7286
  933MOL0     C25835   2.241  11.143  10.702  0.4949  0.3262  0.9554
  933MOL0     C25836   2.307  11.247  10.802  1.0513  0.4635 -0.9467
  933MOL0     N25837   2.356  11.175  10.926  0.0301  0.1915  0.1209
  933MOL0     C25838   2.496  11.151  10.943  1.2742  0.1345  0.7540
  933MOL0     C25839   2.505  11.081  11.056  0.3988 -0.0290 -1.5759
  933MOL0     C25840   2.620  11.047  11.132 -0.0117 -0.3257 -1.3256
  933MOL0     C25841   2.712  10.938  11.056  0.1620 -0.5120 -0.1657
  933MOL0     C25842   2.633  10.831  10.985 -0.7863  0.5070 -0.2971
  933MOL0     C25843   2.591  10.719  11.082 -0.7217  0.9272 -0.4007
  933MOL0     O25844   2.528  10.602  11.023 -0.2122 -0.0719 -0.3560
  933MOL0     C25845   2.405  10.624  10.959  0.2931  0.6243 -0.3085
  933MOL0     C25846   2.375  10.539  10.854  0.3380  1.1538 -0.8414
  933MOL0     C25847   2.264  10.556  10.772 -0.4962 -0.0839 -0.2589
  933MOL0     C25848   2.177  10.664  10.786  0.0411 -0.3300  0.2366
  933MOL0     C25849   2.056  10.686  10.705  0.4824 -0.6327  0.5023
  933MOL0     O25850   2.058  10.624  10.585  0.1352  0.3476  0.2442
  933MOL0     C25851   1.951  10.625  10.497  1.2675  0.4285  0.7141
  933MOL0     C25852   1.868  10.738  10.473 -0.0452  0.2573 -0.0219
  933MOL0     C25853   1.767  10.738  10.371  0.4879  0.4549 -0.2739
  933MOL0     C25854   1.740  10.625  10.296  0.9561  0.0984 -0.5371
  933MOL0     O25855   1.629  10.622  10.214  0.5305 -0.2664  0.5025
  933MOL0     C25856   1.580  10.501  10.148 -0.6580  0.2413  0.2948
  933MOL0     C25857   1.448  10.532  10.071  0.3274  0.5737 -0.1363
  933MOL0     C25858   1.465  10.557   9.920  1.7082  0.2241 -0.9946
  933MOL0     C25859   1.324  10.571   9.852  0.7623  0.8188  0.6067
  933MOL0     C25860   1.340  10.618   9.698  0.7355 -0.6202  0.3241
  933MOL0     C25861   1.200  10.662   9.648 -0.3199 -0.4041 -0.3877
  933MOL0     C25862   1.216  10.717   9.508  0.1203 -0.6610  0.4513
  933MOL0     C25863   1.082  10.776   9.455 -0.6865  0.7797  0.1883
  933MOL0    Cl25864   0.967  10.632   9.451 -0.2454  0.1504  0.1133
  933MOL0     C25865   1.830  10.518  10.310 -1.4394 -0.8225 -0.1347
  933MOL0     C25866   1.929  10.519  10.412  0.1070  0.0492 -0.1646
  933MOL0     O25867   1.953  10.739  10.758 -0.3557 -0.5608 -0.0171
  933MOL0     C25868   2.208  10.743  10.898 -0.6242 -0.6045 -0.5325
  933MOL0     C25869   2.309  10.719  10.983  0.4999  0.1454  0.2686
  933MOL0     N25870   2.372  11.073  11.108 -0.1202 -0.5243  0.8484
  933MOL0     N25871   2.284  11.125  11.026  0.1749  0.1241 -0.0644
  933MOL0     C25872   1.843  11.237   9.843  0.3234  0.2803 -0.4994
  933MOL0     C25873   1.836  11.283   9.717 -0.1923  0.7405  0.4297
  933MOL0     C25874   1.863  11.213   9.307  1.0443  0.2926  0.4301
  933MOL0     C25875   1.888  11.100   9.231  0.4839  0.2394 -0.5971
  933MOL0     C25876   1.802  11.070   9.120  0.7749  0.3460  0.1150
  933MOL0     C25877   1.698  11.154   9.078 -0.4433  0.2010  0.0840
  933MOL0     O25878   1.623  11.131   8.964 -0.5298 -0.2539 -0.0837
  933MOL0     C25879   1.655  11.022   8.884 -0.6049  0.7228  0.5190
  933MOL0     C25880   1.550  11.022   8.767  0.5598 -0.4031 -0.1198
  933MOL0     C25881   1.518  11.165   8.698  0.2682  0.3018 -0.1049
  933MOL0     C25882   1.422  11.178   8.569 -0.6100  0.3593  0.0211
  933MOL0     C25883   1.278  11.134   8.596  0.3640  0.0361 -0.1237
  933MOL0     C25884   1.168  11.091   8.604 -0.2891  0.1743  0.0398
  933MOL0     C25885   1.681  11.272   9.149 -0.8235  0.1615 -0.0209
  933MOL0     C25886   1.751  11.298   9.267  0.1073 -0.4252  0.0559
  933MOL0     C25887   1.733  11.430   9.339 -0.3943  0.6445  0.2942
  933MOL0     H25888   2.166  11.293   9.650 -0.0350 -0.3439  0.2156
  933MOL0     H25889   2.186  11.195   9.850  0.4428  2.2120  0.5695
  933MOL0     H25890   2.113  10.996  10.063 -0.7553 -0.5396 -2.5886
  933MOL0     H25891   2.175  11.168  10.068 -0.4977  0.4036 -0.4801
  933MOL0     H25892   1.997  11.031  10.265 -0.8491  1.0122 -0.8539
  933MOL0     H25893   2.038  11.195  10.263 -1.6162 -0.2079  0.1697
  933MOL0     H25894   2.271  11.155  10.333  0.0900  0.4574  0.4915
  933MOL0     H25895   2.286  11.017  10.240 -0.3090  2.1119 -0.3963
  933MOL0     H25896   2.090  11.033  10.475 -0.9209  2.2093 -4.2013
  933MOL0     H25897   2.134  10.887  10.405  2.7299 -0.1746 -1.9493
  933MOL0     H25898   2.261  10.890  10.612  0.2971 -2.4853 -1.4577
  933MOL0     H25899   2.364  10.902  10.488  0.5225 -0.4051  1.7666
  933MOL0     H25900   2.432  11.087  10.650  0.8141  0.6901 -3.2143
  933MOL0     H25901   2.364  11.176  10.531 -1.0486  1.5079  1.2387
  933MOL0     H25902   2.200  11.063  10.764  2.6097 -0.1074  1.8635
  933MOL0     H25903   2.162  11.190  10.642  1.4048  0.3480 -0.2673
  933MOL0     H25904   2.382  11.311  10.755  0.5838  0.8486 -1.1747
  933MOL0     H25905   2.223  11.309  10.834  1.0239  2.0980 -3.7861
  933MOL0     H25906   2.577  11.179  10.876 -1.4410  2.2637 -1.9197
  933MOL0     H25907   2.684  11.133  11.155 -0.7860 -0.4577  1.7859
  933MOL0     H25908   2.586  11.000  11.225 -0.0666  2.9644  0.4753
  933MOL0     H25909   2.777  10.994  10.988  0.4537  0.1227  0.6084
  933MOL0     H25910   2.778  10.886  11.126 -0.2700 -0.1422  0.5311
  933MOL0     H25911   2.710  10.790  10.919 -2.3519 -1.6163 -0.9515
  933MOL0     H25912   2.546  10.860  10.925  1.3108  1.7780 -2.9135
  933MOL0     H25913   2.543  10.766  11.168 -1.1475  3.7105 -2.0483
  933MOL0     H25914   2.672  10.665  11.134 -3.1850 -4.6648 -1.6343
  933MOL0     H25915   2.448  10.467  10.820  0.9433 -0.4315  3.2560
  933MOL0     H25916   2.232  10.473  10.710 -2.0804 -0.7190  1.3038
  933MOL0     H25917   1.889  10.832  10.523  0.1087  1.3915 -2.1225
  933MOL0     H25918   1.701  10.824  10.363  1.9371  1.4703 -2.0957
  933MOL0     H25919   1.655  10.453  10.084  0.4864  3.1396 -0.7578
  933MOL0     H25920   1.550  10.433  10.228 -0.9290 -0.6232 -0.5190
  933MOL0     H25921   1.383  10.444  10.077  1.4734 -0.4714 -1.9444
  933MOL0     H25922   1.387  10.614  10.108  3.0700  2.8680 -0.3432
  933MOL0     H25923   1.532  10.642   9.902 -0.3293  1.2629 -4.9071
  933MOL0     H25924   1.512  10.471   9.872  0.8998 -0.1235 -1.1969
  933MOL0     H25925   1.258  10.642   9.902  0.0680  2.2552 -2.1073
  933MOL0     H25926   1.277  10.476   9.826 -1.2976  2.5909 -2.9989
  933MOL0     H25927   1.365  10.530   9.638 -0.6862 -1.7002  1.2408
  933MOL0     H25928   1.407  10.702   9.683  0.1000 -0.0275  0.7701
  933MOL0     H25929   1.141  10.570   9.649 -0.2060 -0.4761 -0.2174
  933MOL0     H25930   1.149  10.734   9.712  0.0316 -0.7236  0.2667
  933MOL0     H25931   1.240  10.630   9.446 -0.9547 -0.2261 -0.6118
  933MOL0     H25932   1.288  10.800   9.500 -0.1095 -0.4455  0.6185
  933MOL0     H25933   1.031  10.846   9.523 -4.0590  2.7511 -3.8792
  933MOL0     H25934   1.098  10.831   9.362  1.3654  2.9657  1.6951
  933MOL0     H25935   1.833  10.438  10.237  3.5987 -0.6612 -0.4058
  933MOL0     H25936   1.999  10.437  10.416  0.7967  0.6361 -0.0508
  933MOL0     H25937   2.135  10.820  10.918 -1.0098 -1.0230 -0.2957
  933MOL0     H25938   2.321  10.771  11.077  0.1794 -0.5448  0.7026
  933MOL0     H25939   1.754  11.231   9.905 -0.0751  1.0554 -0.9876
  933MOL0     H25940   1.737  11.312   9.685 -0.5461 -1.2281 -0.3657
  933MOL0     H25941   1.975  11.038   9.251  2.7786  2.5563 -2.6180
  933MOL0     H25942   1.834  10.981   9.067 -1.1477 -1.9766  2.5615
  933MOL0     H25943   1.644  10.936   8.951  0.7858  1.0315  1.1742
  933MOL0     H25944   1.756  11.029   8.841 -1.0760 -1.7217 -1.1903
  933MOL0     H25945   1.459  10.984   8.814  0.8984  0.9090  1.7140
  933MOL0     H25946   1.579  10.960   8.682 -1.9279  1.5024 -2.5257
  933MOL0     H25947   1.611  11.210   8.661  1.1722 -3.5200 -3.1697
  933MOL0     H25948   1.486  11.243   8.767  3.1545 -0.3368  2.1494
  933MOL0     H25949   1.420  11.282   8.536 -1.0492  0.5788  0.7156
  933MOL0     H25950   1.464  11.120   8.487 -1.6638 -0.1892 -0.1382
  933MOL0     H25951   1.074  11.040   8.605 -0.1577 -0.0951 -0.7429
  933MOL0     H25952   1.602  11.344   9.127 -1.9106 -1.2538 -1.0201
  933MOL0     H25953   1.715  11.410   9.445  0.6008 -1.9690  0.0309
  933MOL0     H25954   1.822  11.492   9.325  0.5044 -0.4965  0.7987
  933MOL0     H25955   1.652  11.489   9.296  1.1318  2.3603 -0.3811
  934MOL0     O25956   4.208   4.787   9.962  0.2834 -0.4750  1.2843
  934MOL0     C25957   4.088   4.824   9.965  0.1733  0.6462  0.1201
  934MOL0     O25958   4.031   4.910  10.053 -0.4954 -0.4153  0.3114
  934MOL0     C25959   4.101   4.982  10.137 -0.2963 -0.9540 -0.7800
  934MOL0     C25960   4.234   5.025  10.121  0.1005  0.1282 -0.0941
  934MOL0     C25961   4.273   5.124  10.213 -0.4996  0.4662 -0.1423
  934MOL0     C25962   4.187   5.187  10.303 -0.6274  1.1484 -0.0456
  934MOL0     O25963   4.221   5.304  10.370 -0.4655 -0.1661 -0.2688
  934MOL0     C25964   4.256   5.419  10.292 -0.2908  0.1088 -0.6327
  934MOL0     C25965   4.336   5.512  10.378 -0.7228  0.6024 -0.1278
  934MOL0     C25966   4.475   5.445  10.416 -0.0122 -0.1949  0.5045
  934MOL0     C25967   4.468   5.340  10.531  0.5782  0.6428  0.1570
  934MOL0     C25968   4.608   5.333  10.591 -1.6020  0.5405 -0.7894
  934MOL0     C25969   4.590   5.293  10.744 -1.1279  0.2989  0.8751
  934MOL0     C25970   4.521   5.159  10.762 -0.1685  0.6927 -0.6999
  934MOL0     C25971   4.608   5.049  10.717 -0.4375 -0.1273  0.7404
  934MOL0     N25972   4.549   4.917  10.725 -0.3464 -0.4656  0.1449
  934MOL0     C25973   4.526   4.831  10.839 -0.2421 -0.6732  0.6218
  934MOL0     C25974   4.477   4.716  10.791 -0.0869 -0.5950 -0.3005
  934MOL0     C25975   4.440   4.599  10.872  0.2548 -0.2098  0.0456
  934MOL0     C25976   4.569   4.512  10.881  0.4364  0.0819 -0.1377
  934MOL0     C25977   4.558   4.383  10.969 -0.3765  0.9847  0.6980
  934MOL0     C25978   4.690   4.298  10.982 -0.3302 -0.1857 -0.2428
  934MOL0     O25979   4.799   4.371  11.060 -0.1622  0.9106  0.4530
  934MOL0     C25980   4.921   4.310  11.077  0.6119  0.4490  1.2927
  934MOL0     C25981   5.031   4.395  11.107 -0.2593 -0.9702  0.7786
  934MOL0     C25982   5.163   4.352  11.119 -0.2682 -0.4612 -0.0412
  934MOL0     C25983   5.177   4.216  11.100 -0.2661 -0.3249 -0.1741
  934MOL0     C25984   5.308   4.145  11.132  0.1383  0.2550 -0.1956
  934MOL0     O25985   5.320   4.019  11.109  1.1743  0.3560  0.0338
  934MOL0     C25986   5.427   3.946  11.156 -0.5479  0.5000 -0.1095
  934MOL0     C25987   5.453   3.944  11.295  0.2717  0.0348 -1.0591
  934MOL0     C25988   5.553   3.855  11.350  0.7900  0.1367  0.4513
  934MOL0     C25989   5.619   3.764  11.277  0.7828  0.0430  1.0167
  934MOL0     O25990   5.692   3.675  11.340 -0.0567 -0.6173  0.4915
  934MOL0     C25991   5.770   3.581  11.266 -1.0480  0.4041 -1.0224
  934MOL0     C25992   5.865   3.509  11.366 -0.4798  0.1427 -0.0683
  934MOL0     C25993   5.963   3.436  11.278 -0.3338 -0.0810  0.6520
  934MOL0     C25994   6.084   3.391  11.354  0.0049 -0.3001 -0.2791
  934MOL0     C25995   6.168   3.293  11.270 -0.0422  0.3118 -0.2081
  934MOL0     C25996   6.259   3.369  11.176 -0.1950  0.6460  0.7192
  934MOL0     C25997   6.363   3.274  11.100  0.3741  0.3052  0.1060
  934MOL0     C25998   6.471   3.353  11.032  1.3877 -0.7426  0.3255
  934MOL0    Cl25999   6.609   3.256  10.972 -0.1061 -0.3514  0.3059
  934MOL0     C26000   5.586   3.769  11.135  0.5224  0.7222 -0.4081
  934MOL0     C26001   5.494   3.853  11.071  0.1828 -0.0081  0.1751
  934MOL0     O26002   5.411   4.213  11.168  1.3006 -0.6879 -0.1645
  934MOL0     C26003   5.069   4.129  11.065  0.5507 -0.0843 -0.2817
  934MOL0     C26004   4.942   4.176  11.054 -0.2706  0.2922 -0.4504
  934MOL0     N26005   4.464   4.730  10.654  0.4481  0.3361 -0.6019
  934MOL0     N26006   4.494   4.853  10.614  0.2743  0.0898 -1.2262
  934MOL0     C26007   4.061   5.127  10.335 -0.5250 -1.1449 -0.0344
  934MOL0     C26008   4.023   5.027  10.241  0.1749 -0.1415  0.1958
  934MOL0     C26009   3.991   4.742   9.878  0.6441 -0.9493  0.7409
  934MOL0     C26010   3.873   4.817   9.849 -0.1306  0.0182 -0.2839
  934MOL0     C26011   3.775   4.746   9.784  0.0916 -0.8190 -0.7377
  934MOL0     C26012   3.781   4.609   9.761  0.5099  0.4334 -0.1014
  934MOL0     O26013   3.666   4.549   9.709  0.1266 -0.3608  0.2691
  934MOL0     C26014   3.671   4.422   9.652  0.3239  0.1999  0.0406
  934MOL0     C26015   3.736   4.407   9.511 -0.6549 -0.1373  0.1716
  934MOL0     C26016   3.770   4.264   9.495  1.0961  0.5644 -0.8222
  934MOL0     C26017   3.815   4.231   9.350 -0.9008  0.5983  0.4973
  934MOL0     C26018   3.823   4.086   9.344 -0.4553  0.8320 -0.5091
  934MOL0     C26019   3.838   3.965   9.338 -0.6679 -0.4161 -0.0288
  934MOL0     C26020   3.898   4.542   9.790 -0.5336 -1.1888  0.5613
  934MOL0     C26021   4.002   4.604   9.860 -1.4026 -0.5674 -0.2356
  934MOL0     C26022   4.115   4.509   9.892 -0.7546 -0.1377 -0.0193
  934MOL0     H26023   4.297   5.001  10.036 -0.3683 -1.9794  0.0910
  934MOL0     H26024   4.372   5.164  10.194 -0.0867 -1.8903 -4.0404
  934MOL0     H26025   4.318   5.405  10.204 -0.4309  1.7308 -1.0253
  934MOL0     H26026   4.163   5.465  10.257 -0.1542  1.1067  0.2513
  934MOL0     H26027   4.270   5.528  10.464 -0.7053  0.1205 -0.0253
  934MOL0     H26028   4.359   5.604  10.322 -0.0830  1.7185  1.8753
  934MOL0     H26029   4.549   5.523  10.435 -1.3917  1.1431  0.5810
  934MOL0     H26030   4.512   5.404  10.322 -1.4518 -3.0274  1.0816
  934MOL0     H26031   4.402   5.382  10.607  1.8454  0.4397  1.4131
  934MOL0     H26032   4.449   5.237  10.499  3.0243 -0.2164  1.1541
  934MOL0     H26033   4.685   5.279  10.535  0.1039  1.3161  0.7287
  934MOL0     H26034   4.660   5.428  10.599 -1.0931  0.1358  1.0747
  934MOL0     H26035   4.693   5.290  10.783 -0.6143 -0.4634 -0.4688
  934MOL0     H26036   4.533   5.363  10.806 -1.3891 -1.6786  3.0300
  934MOL0     H26037   4.430   5.152  10.700 -1.0969 -2.3622  0.8279
  934MOL0     H26038   4.490   5.147  10.866 -0.6501 -3.2288 -1.1360
  934MOL0     H26039   4.633   5.062  10.611  0.8833 -0.9024  0.9271
  934MOL0     H26040   4.694   5.056  10.784 -0.3331 -1.2344  0.7407
  934MOL0     H26041   4.566   4.862  10.935  1.4418  0.4259 -0.3861
  934MOL0     H26042   4.410   4.631  10.972 -0.8559 -0.0257 -0.3406
  934MOL0     H26043   4.366   4.531  10.828 -0.7551  1.7151 -1.3543
  934MOL0     H26044   4.584   4.485  10.776  0.7869  2.1370 -0.6568
  934MOL0     H26045   4.655   4.565  10.923  2.1212 -4.2977  2.7596
  934MOL0     H26046   4.494   4.316  10.910 -0.5749  1.6109  0.1860
  934MOL0     H26047   4.505   4.401  11.062  0.6318  1.2380  1.2348
  934MOL0     H26048   4.732   4.267  10.887 -0.0728 -0.4591 -0.0378
  934MOL0     H26049   4.654   4.214  11.041  0.0003 -0.3043 -0.2137
  934MOL0     H26050   5.012   4.500  11.126  2.3827 -0.1042 -0.8381
  934MOL0     H26051   5.242   4.424  11.138 -1.1810  0.1909  1.5465
  934MOL0     H26052   5.389   3.997  11.364 -0.4701 -0.7152 -1.1539
  934MOL0     H26053   5.584   3.871  11.453 -0.1169  2.0888  0.4628
  934MOL0     H26054   5.716   3.510  11.203 -1.9782 -0.3711  0.5713
  934MOL0     H26055   5.827   3.639  11.194  0.1003 -2.7206 -2.8230
  934MOL0     H26056   5.916   3.582  11.428  0.8857 -1.5801  0.9427
  934MOL0     H26057   5.818   3.434  11.431  0.3912 -1.3091 -1.0373
  934MOL0     H26058   5.912   3.352  11.230  2.3681 -1.3264 -0.2360
  934MOL0     H26059   5.989   3.500  11.193  0.1977 -1.1216  0.0064
  934MOL0     H26060   6.048   3.338  11.443 -0.8010  0.3220 -0.2247
  934MOL0     H26061   6.153   3.471  11.382  0.6055 -0.6407 -0.7698
  934MOL0     H26062   6.104   3.225  11.213 -1.9338  1.5034  0.3935
  934MOL0     H26063   6.226   3.227  11.336 -1.0102 -0.6391 -0.2627
  934MOL0     H26064   6.194   3.422  11.105 -1.3424 -0.4106  0.9589
  934MOL0     H26065   6.311   3.446  11.235 -2.8286  1.0158  2.7283
  934MOL0     H26066   6.316   3.223  11.016 -0.7139  0.3233  0.6859
  934MOL0     H26067   6.399   3.199  11.172 -0.3108 -0.0319  0.1061
  934MOL0     H26068   6.427   3.400  10.943  1.3550 -1.0474  0.1767
  934MOL0     H26069   6.502   3.439  11.091 -2.2774 -1.8370  4.2790
  934MOL0     H26070   5.630   3.701  11.063  0.4946  0.1738  0.0850
  934MOL0     H26071   5.469   3.848  10.965  0.4080  0.0589  0.1179
  934MOL0     H26072   5.080   4.022  11.048  1.8857  0.2312 -1.5878
  934MOL0     H26073   4.869   4.102  11.021  0.9449 -0.3082 -1.9094
  934MOL0     H26074   3.996   5.173  10.409 -0.5097  1.9649 -1.7746
  934MOL0     H26075   3.926   4.978  10.241 -0.6674  1.4237  1.4023
  934MOL0     H26076   3.862   4.922   9.874  1.4421 -0.1579  1.4772
  934MOL0     H26077   3.682   4.801   9.772  1.1045  1.5294  1.3328
  934MOL0     H26078   3.566   4.393   9.640  0.2522  1.2469 -2.4449
  934MOL0     H26079   3.707   4.342   9.718  1.4361 -0.9575 -1.8890
  934MOL0     H26080   3.832   4.459   9.507  0.4548 -1.9924  0.9492
  934MOL0     H26081   3.659   4.437   9.440 -0.1841 -0.3615 -0.4405
  934MOL0     H26082   3.689   4.194   9.517  0.9994  0.9673  0.1595
  934MOL0     H26083   3.853   4.234   9.561 -1.4067 -2.4095  1.2859
  934MOL0     H26084   3.734   4.268   9.285 -0.6730  0.7582  0.3033
  934MOL0     H26085   3.910   4.266   9.310 -1.0966 -2.3197 -3.0581
  934MOL0     H26086   3.858   3.861   9.328  5.4690  0.3250  0.8550
  934MOL0     H26087   3.908   4.437   9.763  0.5766 -0.4275 -2.2567
  934MOL0     H26088   4.109   4.414   9.838  2.7132  0.1490 -1.1607
  934MOL0     H26089   4.211   4.553   9.861  0.1639 -0.4513  2.2168
  934MOL0     H26090   4.115   4.497  10.001  1.4079  3.2635  0.5179
  935MOL0     O26091   2.777  10.820   8.009  0.5670  0.1316  0.9138
  935MOL0     C26092   2.666  10.794   7.961  0.1674  1.2023  1.4347
  935MOL0     O26093   2.643  10.705   7.859 -0.4094  0.1516  0.3639
  935MOL0     C26094   2.752  10.640   7.793 -0.0251 -0.0683 -1.1111
  935MOL0     C26095   2.721  10.516   7.743  0.5003 -0.2052 -0.3887
  935MOL0     C26096   2.803  10.463   7.647 -0.0837  0.4055  0.4042
  935MOL0     C26097   2.937  10.510   7.615 -0.6749 -0.9554  0.6740
  935MOL0     O26098   3.016  10.427   7.538  0.0075 -0.1049  0.3725
  935MOL0     C26099   3.146  10.410   7.580 -0.1733  0.1035 -0.5653
  935MOL0     C26100   3.196  10.277   7.537 -0.5648 -0.3698  0.2077
  935MOL0     C26101   3.352  10.260   7.562  1.0314 -0.3919  0.8288
  935MOL0     C26102   3.432  10.341   7.464  0.0648 -0.3358  0.3168
  935MOL0     C26103   3.578  10.300   7.463  0.0955  0.1020  0.9760
  935MOL0     C26104   3.652  10.349   7.589 -0.1582  0.0102 -0.4782
  935MOL0     C26105   3.791  10.290   7.609 -0.1472 -0.0703  0.2211
  935MOL0     C26106   3.877  10.358   7.707  0.3244 -0.5702 -0.1590
  935MOL0     N26107   3.813  10.376   7.839 -0.5275 -0.4274  1.0003
  935MOL0     C26108   3.761  10.268   7.910  0.3025 -0.5146  0.0547
  935MOL0     C26109   3.670  10.323   7.996 -0.1478  0.9034 -0.9700
  935MOL0     C26110   3.556  10.242   8.072 -0.7807 -0.2528  0.8656
  935MOL0     C26111   3.582  10.207   8.214 -0.5053  0.1706 -0.5808
  935MOL0     C26112   3.607  10.332   8.302  0.1095 -0.2402  0.2236
  935MOL0     C26113   3.591  10.285   8.441 -0.3199 -0.0836 -0.1910
  935MOL0     O26114   3.641  10.377   8.543  0.0075  0.5982  0.4318
  935MOL0     C26115   3.568  10.492   8.569  0.0245  0.8790  0.4932
  935MOL0     C26116   3.425  10.492   8.554 -0.2029  0.1525 -0.2481
  935MOL0     C26117   3.352  10.598   8.611 -0.1467 -0.0415  0.5362
  935MOL0     C26118   3.414  10.708   8.682 -0.9194  0.5196 -0.2543
  935MOL0     C26119   3.331  10.799   8.755 -0.2452 -0.1809 -0.4398
  935MOL0     O26120   3.393  10.888   8.836  0.0674  0.1577  0.0873
  935MOL0     C26121   3.339  10.990   8.914 -0.0091  0.0361  0.1003
  935MOL0     C26122   3.431  11.055   9.003  0.7720  0.4452  0.6054
  935MOL0     C26123   3.381  11.154   9.087 -0.4637 -0.0447  0.5923
  935MOL0     C26124   3.257  11.212   9.051 -0.1206 -0.7058 -0.8658
  935MOL0     O26125   3.219  11.314   9.138 -0.0075 -0.0500 -0.4377
  935MOL0     C26126   3.083  11.341   9.146  0.0426 -1.0006  0.6212
  935MOL0     C26127   3.067  11.404   9.284 -0.3350 -0.4670 -0.3011
  935MOL0     C26128   2.943  11.373   9.359  0.6262 -0.8797 -0.3466
  935MOL0     C26129   2.927  11.447   9.486 -0.1445 -0.6544 -0.7115
  935MOL0     C26130   2.817  11.400   9.569 -0.6214 -0.2282  0.3320
  935MOL0     C26131   2.683  11.423   9.492  1.0386  0.8678 -0.7243
  935MOL0     C26132   2.558  11.360   9.552 -0.0630 -0.8036 -0.4823
  935MOL0     C26133   2.424  11.366   9.472  0.3235 -0.1764  0.2242
  935MOL0    Cl26134   2.417  11.224   9.364 -0.0390  0.2068 -0.2406
  935MOL0     C26135   3.179  11.156   8.956 -0.0603  0.8729  0.8432
  935MOL0     C26136   3.215  11.041   8.895  0.2726 -1.1761  0.6016
  935MOL0     O26137   3.212  10.794   8.739  0.0008  0.5312  0.0285
  935MOL0     C26138   3.555  10.704   8.686  0.8605 -0.5228  0.9003
  935MOL0     C26139   3.628  10.604   8.626  0.7103 -0.9760 -0.7683
  935MOL0     N26140   3.671  10.452   7.971 -0.1483 -0.0469 -0.7883
  935MOL0     N26141   3.756  10.497   7.885  0.3583  0.4261 -0.1456
  935MOL0     C26142   2.973  10.626   7.682 -0.2243 -0.5553 -0.0377
  935MOL0     C26143   2.879  10.694   7.765 -0.7940  0.0565 -0.5203
  935MOL0     C26144   2.542  10.845   8.023  0.7641  0.0938 -0.0813
  935MOL0     C26145   2.421  10.864   7.944 -0.5532  0.3150 -0.9274
  935MOL0     C26146   2.300  10.901   8.007 -0.3579 -0.1404 -0.2621
  935MOL0     C26147   2.288  10.915   8.141 -0.0811  0.7146  0.1697
  935MOL0     O26148   2.180  10.941   8.218  0.3038 -1.0228  0.3189
  935MOL0     C26149   2.069  10.989   8.136 -0.1420  0.5592 -0.6680
  935MOL0     C26150   1.937  10.999   8.205  0.4084 -0.8640  0.5778
  935MOL0     C26151   1.949  11.003   8.352  0.0826 -0.8102 -0.7309
  935MOL0     C26152   1.817  11.055   8.414  0.8061  0.4246 -0.1579
  935MOL0     C26153   1.710  10.956   8.420  0.7028  1.3527 -0.5130
  935MOL0     C26154   1.627  10.865   8.430  0.7433 -0.0814  0.3856
  935MOL0     C26155   2.401  10.900   8.215  0.0362  0.7526 -0.6545
  935MOL0     C26156   2.530  10.867   8.166  0.3481  0.6888  0.8368
  935MOL0     C26157   2.643  10.854   8.261  1.0537 -0.3523 -0.2879
  935MOL0     H26158   2.620  10.478   7.756  0.3915 -0.3149 -1.5085
  935MOL0     H26159   2.767  10.375   7.593  1.6926 -1.5185  2.1637
  935MOL0     H26160   3.191  10.504   7.546 -4.0443  2.0668 -0.9129
  935MOL0     H26161   3.152  10.415   7.689  1.6821  1.6294 -0.6799
  935MOL0     H26162   3.168  10.281   7.431 -1.4400  4.1308  0.4094
  935MOL0     H26163   3.156  10.186   7.582  2.2161 -1.8380 -0.0573
  935MOL0     H26164   3.366  10.155   7.535  0.7703  0.4330 -3.0425
  935MOL0     H26165   3.373  10.283   7.667  4.4149 -2.5676  0.7782
  935MOL0     H26166   3.388  10.320   7.366  0.3228  0.8463 -0.0647
  935MOL0     H26167   3.427  10.448   7.484 -1.8239 -0.3173 -0.0902
  935MOL0     H26168   3.593  10.192   7.459 -0.3502  0.0837 -1.2675
  935MOL0     H26169   3.621  10.346   7.374 -2.4724 -1.7745 -1.3976
  935MOL0     H26170   3.672  10.457   7.581 -1.8997  0.5686  1.5613
  935MOL0     H26171   3.588  10.329   7.676  0.6635  2.4099  0.7692
  935MOL0     H26172   3.834  10.280   7.509 -1.5562  0.5202 -0.4706
  935MOL0     H26173   3.797  10.186   7.640  1.9415 -0.2466 -0.6271
  935MOL0     H26174   3.968  10.298   7.709  0.4077 -0.6259 -2.7813
  935MOL0     H26175   3.903  10.458   7.672 -1.6432 -0.3008 -0.9827
  935MOL0     H26176   3.768  10.161   7.894  2.1054 -0.5977  1.1675
  935MOL0     H26177   3.464  10.300   8.062 -0.2157  0.7768  1.5176
  935MOL0     H26178   3.545  10.153   8.010  1.9503  0.5366 -0.9190
  935MOL0     H26179   3.491  10.161   8.254 -0.7584  1.9128  0.9462
  935MOL0     H26180   3.665  10.142   8.243 -0.0858  1.7954  2.1459
  935MOL0     H26181   3.538  10.415   8.286 -0.0802 -0.5285 -0.4897
  935MOL0     H26182   3.710  10.366   8.288  0.4568 -1.6005 -0.6514
  935MOL0     H26183   3.649  10.193   8.452 -3.3766 -1.8075  3.9396
  935MOL0     H26184   3.492  10.243   8.456  0.0068 -2.3023 -3.2387
  935MOL0     H26185   3.361  10.419   8.505 -0.0962 -0.6702  0.7957
  935MOL0     H26186   3.244  10.599   8.625  0.0345  3.3739  3.2456
  935MOL0     H26187   3.532  11.018   9.015  0.7649  0.1049 -0.2806
  935MOL0     H26188   3.448  11.192   9.164 -2.5700  2.2689  1.4125
  935MOL0     H26189   3.052  11.418   9.076 -0.2105  0.4916  2.2973
  935MOL0     H26190   3.017  11.254   9.138  0.8595 -1.4667 -1.6259
  935MOL0     H26191   3.149  11.381   9.352  0.0288 -3.9553 -1.7107
  935MOL0     H26192   3.086  11.511   9.272 -0.0069 -0.7263 -2.7529
  935MOL0     H26193   2.861  11.398   9.293  0.1669  3.2251  1.4896
  935MOL0     H26194   2.946  11.267   9.387  0.0066  0.3334  5.8638
  935MOL0     H26195   2.906  11.550   9.456 -0.6563 -0.1071  1.3765
  935MOL0     H26196   3.019  11.440   9.544 -1.4934 -1.6847  1.4443
  935MOL0     H26197   2.819  11.454   9.664  2.9749  0.6280 -0.0961
  935MOL0     H26198   2.827  11.294   9.598  0.7108 -0.1830  0.1291
  935MOL0     H26199   2.676  11.532   9.478  4.7542  0.9886 -3.2484
  935MOL0     H26200   2.687  11.396   9.386 -4.8736  0.2416 -1.0900
  935MOL0     H26201   2.551  11.399   9.654  4.3289 -3.3487  1.0520
  935MOL0     H26202   2.571  11.253   9.573  1.3037 -1.2157 -3.0568
  935MOL0     H26203   2.336  11.347   9.534 -0.4644 -0.6549 -1.0036
  935MOL0     H26204   2.397  11.462   9.428 -1.8974 -0.7147  0.2518
  935MOL0     H26205   3.086  11.201   8.922 -0.3486 -0.8150 -0.7759
  935MOL0     H26206   3.144  11.002   8.823  1.9849  0.6913 -2.2777
  935MOL0     H26207   3.613  10.781   8.736 -0.5807  0.1297  1.6458
  935MOL0     H26208   3.735  10.599   8.639  0.9099  0.7870 -1.3890
  935MOL0     H26209   3.068  10.677   7.672 -1.9135  2.8793  0.0834
  935MOL0     H26210   2.894  10.795   7.801 -1.3329  0.2621 -0.8592
  935MOL0     H26211   2.421  10.842   7.837 -3.2599 -0.1910 -0.8835
  935MOL0     H26212   2.219  10.906   7.935 -0.2060 -0.9946 -0.4956
  935MOL0     H26213   2.045  10.920   8.054  1.0137  1.6735 -1.9997
  935MOL0     H26214   2.096  11.083   8.087  1.9473  1.4942  2.0404
  935MOL0     H26215   1.879  10.907   8.190 -1.5619  0.4997 -0.5666
  935MOL0     H26216   1.879  11.079   8.158  2.1093 -0.4340 -0.8737
  935MOL0     H26217   2.030  11.072   8.375  0.1218 -1.4922  1.4456
  935MOL0     H26218   1.959  10.906   8.403  3.9839  0.5333  1.4419
  935MOL0     H26219   1.840  11.085   8.516  2.2646 -0.7216 -0.1086
  935MOL0     H26220   1.776  11.140   8.359 -0.9794  0.0129  0.4616
  935MOL0     H26221   1.567  10.777   8.446  0.0807  0.4094  0.6785
  935MOL0     H26222   2.388  10.897   8.323 -0.2915  1.4941 -0.6680
  935MOL0     H26223   2.614  10.859   8.367 -1.3742  0.8563 -0.9516
  935MOL0     H26224   2.673  10.749   8.262 -0.0187 -0.6728 -0.3229
  935MOL0     H26225   2.717  10.933   8.248  0.3887  0.4992  0.9245
  936MOL0     O26226   4.186   9.440   5.907 -0.1843 -1.0318 -0.0911
  936MOL0     C26227   4.100   9.425   5.819  0.3727  0.5790 -0.3580
  936MOL0     O26228   4.101   9.484   5.696  0.1088 -0.2392  0.4191
  936MOL0     C26229   4.220   9.545   5.667  0.1241 -0.5086 -0.1884
  936MOL0     C26230   4.235   9.680   5.713 -0.4483  0.2652 -0.0668
  936MOL0     C26231   4.345   9.750   5.675 -0.0682  0.0393 -0.2457
  936MOL0     C26232   4.433   9.699   5.582  0.7067 -0.1167 -0.2632
  936MOL0     O26233   4.541   9.778   5.544  0.1184 -0.0028  0.1556
  936MOL0     C26234   4.505   9.863   5.438 -0.1504 -0.6710  0.4162
  936MOL0     C26235   4.605   9.970   5.422  0.2058  0.4163 -1.2278
  936MOL0     C26236   4.743   9.924   5.363  0.3222 -0.2475 -0.1457
  936MOL0     C26237   4.861  10.015   5.400 -0.1935 -0.8843  0.1432
  936MOL0     C26238   4.851  10.147   5.325 -0.2616  0.9296  0.4604
  936MOL0     C26239   4.970  10.231   5.386  0.5999 -0.4114 -0.9534
  936MOL0     C26240   5.116  10.178   5.390 -0.1664  0.2373 -0.3986
  936MOL0     C26241   5.163  10.105   5.510 -1.2543  0.5800 -0.0512
  936MOL0     N26242   5.296  10.036   5.494 -0.3552 -0.5013  0.4682
  936MOL0     C26243   5.421  10.097   5.476  0.4422  0.5572 -0.2414
  936MOL0     C26244   5.498   9.984   5.489 -0.0129  1.1860  0.9363
  936MOL0     C26245   5.646   9.988   5.490  0.4131  0.3861 -0.1445
  936MOL0     C26246   5.685   9.987   5.636 -0.6388  0.0415  0.8230
  936MOL0     C26247   5.651   9.862   5.716 -0.9925 -0.3047 -1.3974
  936MOL0     C26248   5.729   9.868   5.856  0.0055  0.3711  0.3390
  936MOL0     O26249   5.864   9.826   5.845  0.5620 -0.2012 -0.8615
  936MOL0     C26250   5.890   9.693   5.835 -0.4784 -0.9183  0.2670
  936MOL0     C26251   6.020   9.657   5.829 -1.4976 -0.1590  0.0991
  936MOL0     C26252   6.065   9.530   5.811  0.2203  0.5551  0.0904
  936MOL0     C26253   5.972   9.424   5.800  0.3227 -0.8817 -0.1419
  936MOL0     C26254   6.006   9.283   5.795  0.0725 -0.2218  0.2148
  936MOL0     O26255   5.915   9.184   5.771  0.0743  0.6613  0.1300
  936MOL0     C26256   5.968   9.058   5.756 -1.3037 -0.0546 -0.5115
  936MOL0     C26257   6.008   8.974   5.870  0.8661 -0.6733  0.2903
  936MOL0     C26258   6.066   8.859   5.831  0.0603  0.3412  0.0360
  936MOL0     C26259   6.081   8.815   5.694  0.9486 -0.2435  0.3785
  936MOL0     O26260   6.144   8.697   5.684  0.4153  0.5597 -0.0671
  936MOL0     C26261   6.122   8.610   5.574 -0.4579  0.4605  0.8393
  936MOL0     C26262   6.235   8.621   5.465 -0.1985  0.8629 -0.3266
  936MOL0     C26263   6.367   8.551   5.496  0.1649  1.2593  0.4062
  936MOL0     C26264   6.478   8.591   5.401 -0.1474 -0.1475  0.4010
  936MOL0     C26265   6.607   8.531   5.444  0.0406 -0.4233 -0.0322
  936MOL0     C26266   6.722   8.556   5.349 -0.1839 -0.4887  0.0390
  936MOL0     C26267   6.694   8.518   5.203  0.2883  0.3074  0.1420
  936MOL0     C26268   6.826   8.497   5.123  0.1343  0.4444  0.7697
  936MOL0    Cl26269   6.909   8.662   5.104 -0.7935  0.2575  0.1474
  936MOL0     C26270   6.030   8.901   5.588 -0.0799  1.1665 -0.0902
  936MOL0     C26271   5.975   9.020   5.625 -1.2198  0.2085 -0.5146
  936MOL0     O26272   6.126   9.265   5.788 -0.6245  0.0586 -0.4832
  936MOL0     C26273   5.835   9.457   5.787 -0.2403 -0.0872  0.7407
  936MOL0     C26274   5.793   9.589   5.805  0.6747 -0.5751 -0.2960
  936MOL0     N26275   5.426   9.863   5.513  0.2746  0.1445 -0.1431
  936MOL0     N26276   5.297   9.896   5.509  0.1090 -1.2949 -0.6677
  936MOL0     C26277   4.420   9.576   5.526 -0.3025  0.4440 -0.3862
  936MOL0     C26278   4.313   9.495   5.580 -0.2471 -0.2607  0.4943
  936MOL0     C26279   3.983   9.350   5.865 -0.5578  0.3772  0.8976
  936MOL0     C26280   3.919   9.386   5.984  0.1434  0.0828  1.2022
  936MOL0     C26281   3.803   9.324   6.027  0.0301 -0.2133  0.5270
  936MOL0     C26282   3.728   9.242   5.941 -0.6013 -0.1088  0.2804
  936MOL0     O26283   3.607   9.195   5.988  0.1650 -0.5010 -0.1174
  936MOL0     C26284   3.529   9.109   5.909 -0.6667 -0.0132  0.0127
  936MOL0     C26285   3.401   9.080   5.985 -0.1238  0.5747  0.3946
  936MOL0     C26286   3.329   8.982   5.892 -0.3053  0.2930  0.0820
  936MOL0     C26287   3.177   8.966   5.917 -0.4095  0.7155 -0.3180
  936MOL0     C26288   3.108   8.844   5.862 -0.3614 -0.0521  0.0628
  936MOL0     C26289   3.075   8.742   5.799 -1.2745 -0.2038  0.9125
  936MOL0     C26290   3.775   9.219   5.813 -1.2026 -0.4094 -0.2322
  936MOL0     C26291   3.909   9.267   5.779  0.4231 -0.9540 -0.7011
  936MOL0     C26292   3.975   9.208   5.658  0.3110  0.0861  0.1128
  936MOL0     H26293   4.162   9.712   5.787 -1.1412 -3.3391  1.0365
  936MOL0     H26294   4.367   9.851   5.708 -0.6538  0.8571 -2.1863
  936MOL0     H26295   4.509   9.807   5.344  1.0741  2.6104 -1.6763
  936MOL0     H26296   4.404   9.904   5.448 -0.5519 -2.0383  2.8241
  936MOL0     H26297   4.624  10.019   5.518 -0.1823  0.9516 -1.4178
  936MOL0     H26298   4.553  10.040   5.355 -0.2575  1.2330 -0.0563
  936MOL0     H26299   4.746   9.910   5.254  0.0879  2.5862 -0.5822
  936MOL0     H26300   4.766   9.832   5.418 -2.8850 -0.7849  0.4871
  936MOL0     H26301   4.855  10.031   5.508 -1.6790 -0.0240 -0.0453
  936MOL0     H26302   4.955   9.961   5.384 -0.0676 -1.5326  2.6650
  936MOL0     H26303   4.854  10.126   5.218  0.4491  0.7042  0.5189
  936MOL0     H26304   4.751  10.185   5.344  0.2809  2.8626 -0.3941
  936MOL0     H26305   4.977  10.325   5.331  2.3821 -0.4263 -0.7978
  936MOL0     H26306   4.961  10.258   5.492  3.2334  1.7550 -1.1631
  936MOL0     H26307   5.188  10.260   5.392  1.7491 -1.3768 -0.1338
  936MOL0     H26308   5.133  10.110   5.306  0.9698  2.2276 -1.8695
  936MOL0     H26309   5.174  10.179   5.589  3.3034  0.9041 -0.6853
  936MOL0     H26310   5.089  10.030   5.539 -0.0911 -1.5050 -2.1118
  936MOL0     H26311   5.450  10.201   5.462  1.9909 -0.0358 -1.9519
  936MOL0     H26312   5.698   9.906   5.440  3.2326  1.9513  0.0378
  936MOL0     H26313   5.690  10.074   5.438  3.1298 -0.1512  1.1221
  936MOL0     H26314   5.793   9.999   5.631 -0.7986  1.3567 -2.8589
  936MOL0     H26315   5.648  10.077   5.686  0.6513  0.3609  1.2317
  936MOL0     H26316   5.664   9.772   5.655  0.0828  1.4084 -3.8626
  936MOL0     H26317   5.545   9.863   5.742 -1.0100  0.3765 -1.4877
  936MOL0     H26318   5.665   9.825   5.933  1.5875 -3.2572 -0.1605
  936MOL0     H26319   5.744   9.973   5.879  3.1560  0.0758  0.0701
  936MOL0     H26320   6.094   9.734   5.849 -2.1534 -0.3384  4.1981
  936MOL0     H26321   6.172   9.514   5.805  0.2144  1.0546 -4.3728
  936MOL0     H26322   5.996   9.013   5.971 -1.3559  2.3145 -0.9494
  936MOL0     H26323   6.116   8.785   5.893 -1.9847 -0.9106  0.2941
  936MOL0     H26324   6.122   8.512   5.623  1.1588  1.1086  2.2541
  936MOL0     H26325   6.024   8.621   5.527  1.1225  3.9973 -2.1511
  936MOL0     H26326   6.195   8.572   5.376  1.1381  0.1501 -0.5724
  936MOL0     H26327   6.249   8.728   5.445 -0.6787  1.2634  1.3373
  936MOL0     H26328   6.387   8.584   5.598 -2.6308  1.1547  1.0578
  936MOL0     H26329   6.372   8.441   5.496  1.3168  1.2853  1.3795
  936MOL0     H26330   6.479   8.700   5.393 -0.3125 -0.1876 -0.1873
  936MOL0     H26331   6.442   8.555   5.304  0.8869  2.3244 -1.0194
  936MOL0     H26332   6.582   8.428   5.470 -0.3987 -0.4972 -0.7123
  936MOL0     H26333   6.624   8.581   5.540 -1.6122 -0.4179  0.2937
  936MOL0     H26334   6.741   8.663   5.342  2.1069 -0.9621 -4.0023
  936MOL0     H26335   6.813   8.509   5.387  0.0032  0.2556  0.5207
  936MOL0     H26336   6.634   8.603   5.170  0.3556  1.4877  2.8164
  936MOL0     H26337   6.642   8.423   5.186 -0.7722  0.7214  0.9925
  936MOL0     H26338   6.903   8.434   5.169  1.3247  0.8013 -0.6569
  936MOL0     H26339   6.802   8.465   5.022 -2.2851  2.4050  0.6275
  936MOL0     H26340   6.034   8.868   5.484  3.1069  1.2540 -0.0980
  936MOL0     H26341   5.926   9.085   5.553 -3.2078  1.7178  2.0570
  936MOL0     H26342   5.755   9.384   5.778  0.7894 -1.3521  1.5643
  936MOL0     H26343   5.685   9.599   5.809  0.4889 -2.5553  1.5130
  936MOL0     H26344   4.494   9.536   5.457  0.2223 -1.5900  1.2569
  936MOL0     H26345   4.303   9.394   5.540  2.3837 -0.1718 -0.5622
  936MOL0     H26346   3.972   9.461   6.042  3.1782 -2.2998  1.7298
  936MOL0     H26347   3.761   9.350   6.123 -1.4895 -2.0914  0.4368
  936MOL0     H26348   3.587   9.019   5.891  0.5929  0.4384  1.5718
  936MOL0     H26349   3.507   9.161   5.815  1.4436  2.5068  0.8114
  936MOL0     H26350   3.357   9.180   5.993  2.7105  1.9948 -0.4930
  936MOL0     H26351   3.415   9.026   6.079 -0.8795 -3.2386 -1.5323
  936MOL0     H26352   3.364   8.880   5.909  1.8196  0.7979 -0.9221
  936MOL0     H26353   3.347   9.002   5.786 -2.5339 -2.5784 -0.9850
  936MOL0     H26354   3.160   8.960   6.025 -1.3651  1.0638 -0.4452
  936MOL0     H26355   3.116   9.046   5.875 -3.6043 -1.0615  0.6008
  936MOL0     H26356   3.063   8.648   5.749  0.2338 -0.3947  0.8483
  936MOL0     H26357   3.726   9.152   5.742 -1.0900 -1.6646  0.8336
  936MOL0     H26358   3.921   9.249   5.573  4.1535 -1.3585 -3.3646
  936MOL0     H26359   4.079   9.243   5.659  0.0187  0.9910  0.7853
  936MOL0     H26360   3.968   9.102   5.634 -3.4585  0.6941 -2.2915
  937MOL0     O26361   7.570   4.996   4.004 -0.7853 -0.2346 -0.4746
  937MOL0     C26362   7.544   5.111   4.056 -0.1673 -0.0184 -0.1011
  937MOL0     O26363   7.623   5.182   4.140 -0.3711 -0.5869 -0.9289
  937MOL0     C26364   7.750   5.135   4.174  0.9622 -0.5002 -0.6126
  937MOL0     C26365   7.787   4.999   4.202 -0.3257 -0.5006  0.2486
  937MOL0     C26366   7.919   4.963   4.238 -0.7537 -0.3325  0.5353
  937MOL0     C26367   8.019   5.058   4.227 -1.0987  0.4528  0.1723
  937MOL0     O26368   8.149   5.014   4.261  0.1560 -0.2983  0.1348
  937MOL0     C26369   8.232   5.105   4.332 -0.7782 -0.2269  0.4230
  937MOL0     C26370   8.365   5.027   4.363 -0.6043 -0.0637 -1.0622
  937MOL0     C26371   8.469   5.043   4.255  0.3312  0.3311  1.0794
  937MOL0     C26372   8.595   4.950   4.271  0.9965  0.0335 -0.6678
  937MOL0     C26373   8.679   4.974   4.397  1.1037  0.5730  0.1449
  937MOL0     C26374   8.761   5.101   4.394  0.0393 -1.0012 -0.5402
  937MOL0     C26375   8.875   5.094   4.489 -0.6884 -0.5437  0.0898
  937MOL0     C26376   8.832   5.080   4.631  0.7094  0.4652  0.6280
  937MOL0     N26377   8.948   5.075   4.718 -0.0132 -0.0460  0.0352
  937MOL0     C26378   9.010   5.184   4.772  0.1660 -0.4932 -0.0372
  937MOL0     C26379   9.125   5.135   4.823  0.3123  0.5139  0.5168
  937MOL0     C26380   9.241   5.207   4.892  0.2358 -0.0781  0.3567
  937MOL0     C26381   9.194   5.219   5.038 -0.8895  0.1839 -0.2464
  937MOL0     C26382   9.296   5.288   5.128 -0.8716 -0.2200 -0.1598
  937MOL0     C26383   9.297   5.444   5.117  0.7720 -0.7468 -0.1384
  937MOL0     O26384   9.163   5.504   5.130 -0.1344 -0.0300 -0.3648
  937MOL0     C26385   9.105   5.536   5.255  0.5501  0.6558  0.2490
  937MOL0     C26386   9.160   5.492   5.369  0.0572 -0.1017  0.1370
  937MOL0     C26387   9.108   5.513   5.494 -0.1649  0.9990  0.2694
  937MOL0     C26388   8.991   5.591   5.509 -0.1375 -0.6058  0.2760
  937MOL0     C26389   8.946   5.626   5.644  0.4778  0.5586 -0.5310
  937MOL0     O26390   9.010   5.582   5.753  0.2844 -0.0087  0.0148
  937MOL0     C26391   8.971   5.602   5.886  0.5494 -0.2229  0.2986
  937MOL0     C26392   9.064   5.600   5.987  0.1115  0.4099  0.0580
  937MOL0     C26393   9.030   5.620   6.130 -0.1119 -0.1801  0.2378
  937MOL0     C26394   8.893   5.640   6.177  1.0862  0.9619  0.4864
  937MOL0     O26395   8.840   5.659   6.301 -0.8092  0.3653 -0.3586
  937MOL0     C26396   8.933   5.646   6.414 -0.2315  0.3177  0.2426
  937MOL0     C26397   9.006   5.775   6.449  0.3116  0.0411 -0.0201
  937MOL0     C26398   8.898   5.874   6.495 -0.5274 -0.9965 -0.0390
  937MOL0     C26399   8.806   5.825   6.608  0.3957 -0.0820 -0.0965
  937MOL0     C26400   8.720   5.944   6.669 -0.0387 -0.4386 -0.1286
  937MOL0     C26401   8.610   5.898   6.761 -0.1251  0.3136 -0.2089
  937MOL0     C26402   8.525   6.019   6.815  0.2645 -0.0056  0.2073
  937MOL0     C26403   8.497   6.009   6.963  0.2237 -0.8062 -0.7413
  937MOL0    Cl26404   8.386   6.145   6.998  0.5410  0.0009 -0.2254
  937MOL0     C26405   8.803   5.636   6.066  0.5400  0.6925 -0.4526
  937MOL0     C26406   8.841   5.622   5.931  0.3274 -0.5963  0.0985
  937MOL0     O26407   8.839   5.693   5.649  0.3598  0.1196 -0.1028
  937MOL0     C26408   8.930   5.641   5.389 -0.2748  0.0442  0.7868
  937MOL0     C26409   8.984   5.610   5.266 -0.1164  0.4512 -0.0327
  937MOL0     N26410   9.126   4.999   4.804 -0.0576 -0.1376 -0.4091
  937MOL0     N26411   9.016   4.956   4.750 -0.8070 -0.3824  0.3415
  937MOL0     C26412   7.984   5.191   4.211 -0.0499  0.6521 -0.1796
  937MOL0     C26413   7.858   5.232   4.182  0.0165 -0.7216  0.7341
  937MOL0     C26414   7.433   5.169   3.984 -0.3971  0.0441  0.1245
  937MOL0     C26415   7.397   5.292   4.036 -0.6490 -0.3458  0.3344
  937MOL0     C26416   7.291   5.369   3.988  0.4512  0.0662 -0.0128
  937MOL0     C26417   7.223   5.318   3.875  0.3397  0.3057  0.4301
  937MOL0     O26418   7.117   5.380   3.812 -0.1178  0.8083 -0.0997
  937MOL0     C26419   7.023   5.445   3.896 -0.2194  0.3860  0.1463
  937MOL0     C26420   6.979   5.564   3.813  0.1240  0.9938  0.0578
  937MOL0     C26421   7.079   5.669   3.842  0.0863  0.4490  0.5735
  937MOL0     C26422   7.061   5.787   3.746  0.2381  0.1747  0.2562
  937MOL0     C26423   7.145   5.900   3.793  0.5899  0.4338 -0.8450
  937MOL0     C26424   7.193   6.006   3.831  1.3367 -0.8453 -0.5913
  937MOL0     C26425   7.264   5.200   3.820  0.5351 -0.1571  0.1738
  937MOL0     C26426   7.356   5.116   3.877 -0.4823 -0.3537 -0.1305
  937MOL0     C26427   7.397   4.992   3.796 -0.0965 -0.0541 -0.9002
  937MOL0     H26428   7.715   4.918   4.209 -2.9102  1.4659 -1.6709
  937MOL0     H26429   7.944   4.860   4.260 -1.9063 -1.2566 -2.0617
  937MOL0     H26430   8.256   5.192   4.271  0.7212  0.6785  2.2377
  937MOL0     H26431   8.181   5.132   4.425  0.8628  2.5194  0.6304
  937MOL0     H26432   8.358   4.919   4.384  0.0448  0.0358 -0.2640
  937MOL0     H26433   8.407   5.079   4.449 -3.2248  0.8309 -0.2120
  937MOL0     H26434   8.507   5.145   4.236  4.2075 -1.4052 -2.2096
  937MOL0     H26435   8.419   5.011   4.163 -1.3650 -1.6390  2.6117
  937MOL0     H26436   8.568   4.844   4.270  0.6878  0.0937  0.2720
  937MOL0     H26437   8.653   4.977   4.182  2.1734 -0.5730 -0.1123
  937MOL0     H26438   8.606   4.980   4.478 -0.1920  0.2873 -0.9597
  937MOL0     H26439   8.742   4.885   4.405 -0.6545 -0.7552 -0.1124
  937MOL0     H26440   8.786   5.116   4.288 -1.4334 -0.2419 -0.7990
  937MOL0     H26441   8.700   5.188   4.417  0.9535 -0.1113 -1.3826
  937MOL0     H26442   8.937   5.184   4.490 -1.0265 -0.2892  2.1485
  937MOL0     H26443   8.935   5.004   4.469  0.4130  0.3042 -0.5360
  937MOL0     H26444   8.779   5.172   4.658 -0.2471  0.2838 -0.5340
  937MOL0     H26445   8.766   4.993   4.642 -1.2632  1.6120 -1.2170
  937MOL0     H26446   8.979   5.287   4.784  1.4451 -0.1719  0.6874
  937MOL0     H26447   9.332   5.150   4.872  0.3160  0.6272 -1.4806
  937MOL0     H26448   9.242   5.304   4.841  0.7266 -1.0985 -1.6913
  937MOL0     H26449   9.103   5.280   5.047 -1.1527 -0.3170  0.6438
  937MOL0     H26450   9.167   5.118   5.072  2.0719 -0.1104  1.5651
  937MOL0     H26451   9.397   5.248   5.111 -1.1632 -1.0539  0.0368
  937MOL0     H26452   9.263   5.260   5.229 -2.2478 -0.9676 -0.7885
  937MOL0     H26453   9.345   5.464   5.021  1.6643 -2.1197 -0.0020
  937MOL0     H26454   9.357   5.492   5.194 -0.2166  1.2903 -0.5659
  937MOL0     H26455   9.257   5.442   5.362 -0.6390 -1.7528  1.5413
  937MOL0     H26456   9.165   5.478   5.579 -0.4032 -1.4794 -0.4912
  937MOL0     H26457   9.171   5.601   5.968  0.4210 -0.2997  1.6467
  937MOL0     H26458   9.103   5.642   6.208  1.0529  0.2127 -0.9307
  937MOL0     H26459   8.885   5.600   6.500  0.0728 -1.3919 -0.4438
  937MOL0     H26460   9.007   5.572   6.381  1.1605  1.4106  0.8060
  937MOL0     H26461   9.088   5.766   6.521  0.4959  0.5922 -0.1524
  937MOL0     H26462   9.051   5.823   6.362 -2.7767  0.7120 -1.3813
  937MOL0     H26463   8.956   5.961   6.529  1.4431 -1.5165 -1.8327
  937MOL0     H26464   8.837   5.913   6.413 -0.0150  0.9979  0.4566
  937MOL0     H26465   8.868   5.779   6.685 -0.4201 -2.1912 -0.6179
  937MOL0     H26466   8.743   5.738   6.589 -0.3155 -0.1926  2.4162
  937MOL0     H26467   8.674   5.990   6.581  1.1575  0.6054 -0.2375
  937MOL0     H26468   8.781   6.014   6.726  4.2023 -2.3779 -1.8625
  937MOL0     H26469   8.546   5.846   6.689  0.3082  1.4796 -1.4920
  937MOL0     H26470   8.645   5.832   6.841 -0.1105 -0.6168 -0.9684
  937MOL0     H26471   8.426   6.019   6.768 -0.4985 -1.3396  1.7325
  937MOL0     H26472   8.575   6.109   6.778 -1.3880 -0.1447 -2.6955
  937MOL0     H26473   8.445   5.917   6.993  1.4815 -1.4686 -0.5299
  937MOL0     H26474   8.597   6.008   7.008 -0.1822  2.1265  0.4097
  937MOL0     H26475   8.697   5.632   6.091  0.0819  0.5447 -2.2690
  937MOL0     H26476   8.755   5.616   5.865 -0.6562  0.8473  1.1805
  937MOL0     H26477   8.839   5.700   5.391 -1.8778 -2.2814 -0.0643
  937MOL0     H26478   8.950   5.658   5.175  0.6977  0.5548 -0.2863
  937MOL0     H26479   8.058   5.270   4.223  1.7398 -0.9720  0.0064
  937MOL0     H26480   7.849   5.337   4.156  1.3479 -0.2418  2.0335
  937MOL0     H26481   7.451   5.338   4.119  0.4687  0.7296 -0.9515
  937MOL0     H26482   7.254   5.459   4.037 -0.0006  0.0294 -0.2816
  937MOL0     H26483   7.059   5.478   3.994  3.3635 -0.1365 -0.8466
  937MOL0     H26484   6.938   5.376   3.897 -0.7880  0.9232 -2.4480
  937MOL0     H26485   6.875   5.589   3.836 -1.3300 -3.3974 -0.6962
  937MOL0     H26486   6.987   5.536   3.707 -1.2901 -0.9195  0.4042
  937MOL0     H26487   7.183   5.635   3.836 -0.0573 -0.0769  1.0736
  937MOL0     H26488   7.057   5.689   3.947  1.9676  0.2003  1.0552
  937MOL0     H26489   7.086   5.770   3.641  3.7020 -3.5115  1.4422
  937MOL0     H26490   6.958   5.824   3.747  0.3232  0.5776 -1.5503
  937MOL0     H26491   7.246   6.096   3.850  1.6902 -0.3573 -3.4699
  937MOL0     H26492   7.213   5.177   3.728 -0.3023  0.2698  0.5261
  937MOL0     H26493   7.336   4.978   3.707  1.4149  1.8031 -2.3215
  937MOL0     H26494   7.497   4.990   3.752  0.0499  0.0393 -0.5775
  937MOL0     H26495   7.385   4.899   3.852  1.5094  0.8518  1.0768
  938MOL0     O26496   9.664   8.327   5.035 -0.2419  0.2652  0.6155
  938MOL0     C26497   9.615   8.359   4.929 -0.3737 -0.4189 -0.1873
  938MOL0     O26498   9.645   8.306   4.805  0.1938  0.1209  0.7993
  938MOL0     C26499   9.763   8.229   4.787 -0.8662 -0.7204  0.8464
  938MOL0     C26500   9.832   8.255   4.666 -0.3343  0.2783  0.4840
  938MOL0     C26501   9.931   8.174   4.616  0.0350 -0.1581 -0.7075
  938MOL0     C26502   9.976   8.070   4.697  0.0298 -0.2436  0.6076
  938MOL0     O26503  10.081   8.001   4.644  0.1326 -0.2990 -0.0477
  938MOL0     C26504  10.088   7.859   4.657  0.3276  0.2795 -1.0142
  938MOL0     C26505  10.214   7.810   4.599  0.0456 -1.3975  0.0866
  938MOL0     C26506  10.329   7.829   4.708 -0.6801 -0.4764  0.2127
  938MOL0     C26507  10.462   7.800   4.636 -0.4808 -0.4285  0.4157
  938MOL0     C26508  10.570   7.807   4.736  0.7052 -0.7566 -0.0619
  938MOL0     C26509  10.699   7.751   4.670 -0.1734 -0.4490 -0.4820
  938MOL0     C26510  10.828   7.798   4.751 -0.4550 -0.7654  0.5798
  938MOL0     C26511  10.840   7.736   4.890  0.4831 -0.3768 -0.1248
  938MOL0     N26512  10.979   7.719   4.941 -0.1522  0.2965 -0.4543
  938MOL0     C26513  11.073   7.819   4.936 -0.2030 -0.5669  0.2178
  938MOL0     C26514  11.189   7.755   4.969 -0.2035  0.4462 -0.3572
  938MOL0     C26515  11.315   7.828   4.959  0.0762  0.0185 -0.2962
  938MOL0     C26516  11.361   7.862   4.813  0.5903  0.6058 -0.2811
  938MOL0     C26517  11.357   7.737   4.719 -0.5788  0.5168 -0.9914
  938MOL0     C26518  11.477   7.722   4.619  0.2131 -0.3017 -0.4148
  938MOL0     O26519  11.591   7.709   4.705  0.0992  0.1464 -0.6016
  938MOL0     C26520  11.695   7.642   4.665 -0.6418  0.1256  0.4164
  938MOL0     C26521  11.796   7.618   4.760  0.0589  0.4004 -0.1479
  938MOL0     C26522  11.923   7.565   4.724 -0.0426  0.1330 -0.1341
  938MOL0     C26523  11.946   7.533   4.588  0.8376 -0.5831 -0.4637
  938MOL0     C26524  12.079   7.489   4.533 -0.8734  0.0388  0.0702
  938MOL0     O26525  12.179   7.493   4.628  0.2976 -0.2476  0.4092
  938MOL0     C26526  12.304   7.493   4.571 -0.4957  1.0236  0.0431
  938MOL0     C26527  12.345   7.578   4.467 -0.9335 -1.2205  0.1732
  938MOL0     C26528  12.482   7.580   4.439 -0.1123  0.5057  0.1675
  938MOL0     C26529  12.573   7.494   4.511 -1.4177 -0.3958  0.0765
  938MOL0     O26530  12.711   7.490   4.493  0.5204 -0.0308  0.3790
  938MOL0     C26531  12.765   7.554   4.384 -0.1870 -0.6433  0.7099
  938MOL0     C26532  12.915   7.546   4.398  0.4125 -0.2860 -0.0281
  938MOL0     C26533  12.980   7.580   4.258 -0.4434  0.0787 -0.2840
  938MOL0     C26534  13.135   7.587   4.275  0.1170 -0.4159 -0.5696
  938MOL0     C26535  13.191   7.596   4.133 -0.3395  1.6278  0.6304
  938MOL0     C26536  13.210   7.455   4.061 -0.4720 -0.4191  0.3728
  938MOL0     C26537  13.300   7.471   3.940 -0.4750 -0.7828  0.6678
  938MOL0     C26538  13.254   7.566   3.827  0.7746 -0.4675 -0.0878
  938MOL0    Cl26539  13.076   7.569   3.791  0.0953 -0.3680  0.1813
  938MOL0     C26540  12.526   7.406   4.601 -0.1396  0.8186  0.1498
  938MOL0     C26541  12.394   7.406   4.638  0.1803 -0.2875  0.5316
  938MOL0     O26542  12.092   7.461   4.412 -0.1397  0.5051  0.0302
  938MOL0     C26543  11.851   7.571   4.494 -0.1862  0.2834 -0.8923
  938MOL0     C26544  11.729   7.622   4.534 -0.2875  0.0094  0.4188
  938MOL0     N26545  11.158   7.622   5.011 -0.8351  0.0573 -0.1687
  938MOL0     N26546  11.029   7.603   5.000  0.9815 -0.8105  0.4059
  938MOL0     C26547   9.919   8.050   4.830 -0.2856  0.7316  0.6027
  938MOL0     C26548   9.804   8.125   4.866  0.6020 -0.3062 -0.5563
  938MOL0     C26549   9.493   8.448   4.932  0.1912 -0.6730  0.2494
  938MOL0     C26550   9.450   8.503   4.816  0.2174  0.5568  1.2825
  938MOL0     C26551   9.337   8.586   4.794 -0.7063 -0.4136  0.0828
  938MOL0     C26552   9.246   8.603   4.889 -0.6671  0.3361 -0.6132
  938MOL0     O26553   9.126   8.664   4.870 -0.7200  0.2746  0.4857
  938MOL0     C26554   9.021   8.578   4.855 -0.2591  0.5342 -1.1166
  938MOL0     C26555   9.001   8.505   4.723  0.7402  0.4137 -0.1349
  938MOL0     C26556   8.884   8.398   4.726  0.4051 -0.1237 -0.5727
  938MOL0     C26557   8.942   8.258   4.754 -0.3085  0.6803  0.5659
  938MOL0     C26558   9.052   8.256   4.853  0.1188  0.3340 -0.6743
  938MOL0     C26559   9.134   8.225   4.940 -0.0153 -0.0901  0.5437
  938MOL0     C26560   9.282   8.549   5.014 -0.6756 -0.6847 -0.6878
  938MOL0     C26561   9.403   8.475   5.041 -0.2721 -0.5624  0.2188
  938MOL0     C26562   9.418   8.433   5.180  0.0245 -0.4868 -0.4594
  938MOL0     H26563   9.785   8.322   4.594  0.5495 -0.3481 -0.7083
  938MOL0     H26564   9.972   8.198   4.519 -1.1074 -1.2133 -1.4763
  938MOL0     H26565  10.075   7.834   4.763 -1.7776  2.6346 -0.6442
  938MOL0     H26566   9.995   7.826   4.610 -1.6600  0.4370  2.4672
  938MOL0     H26567  10.237   7.872   4.511  3.2597 -3.8932 -1.0166
  938MOL0     H26568  10.215   7.704   4.572  0.9601 -2.0847  2.5702
  938MOL0     H26569  10.314   7.757   4.789  1.1795 -1.1886 -0.0343
  938MOL0     H26570  10.328   7.932   4.744  0.6999  0.6371 -2.6683
  938MOL0     H26571  10.463   7.701   4.589  0.3039  1.1949 -3.3486
  938MOL0     H26572  10.493   7.861   4.550  2.1508 -0.3977  1.2938
  938MOL0     H26573  10.584   7.913   4.758 -1.2120 -0.3344 -0.6841
  938MOL0     H26574  10.532   7.755   4.825 -0.9083 -0.1398 -0.3662
  938MOL0     H26575  10.687   7.643   4.656 -2.6862 -0.1272 -1.2592
  938MOL0     H26576  10.710   7.789   4.568  3.7202  0.7300  0.2193
  938MOL0     H26577  10.834   7.908   4.753 -0.0944 -0.7156 -1.4486
  938MOL0     H26578  10.912   7.759   4.694  0.4423 -1.8835  2.5705
  938MOL0     H26579  10.772   7.783   4.962  0.0446  1.7958 -1.8426
  938MOL0     H26580  10.806   7.632   4.882 -1.1186  0.0192  0.9985
  938MOL0     H26581  11.063   7.919   4.895  1.9355 -0.3303  0.1599
  938MOL0     H26582  11.307   7.916   5.024  2.0808  1.3994 -1.7745
  938MOL0     H26583  11.404   7.775   4.996  0.2888  1.6629  1.7279
  938MOL0     H26584  11.291   7.935   4.771 -1.0905 -0.3574  0.7679
  938MOL0     H26585  11.461   7.905   4.825  1.1947 -0.0405 -2.4340
  938MOL0     H26586  11.266   7.746   4.660 -0.7986 -0.9444 -0.9084
  938MOL0     H26587  11.338   7.642   4.770 -0.2142 -1.9319 -5.0187
  938MOL0     H26588  11.483   7.814   4.560 -0.9349  0.3180  0.3971
  938MOL0     H26589  11.469   7.631   4.558  0.0067 -0.9579  0.5818
  938MOL0     H26590  11.771   7.649   4.860  1.0311 -0.8939  0.5246
  938MOL0     H26591  11.996   7.552   4.804  0.0961  0.9865 -0.1109
  938MOL0     H26592  12.274   7.640   4.413 -1.3935  1.1292  3.2228
  938MOL0     H26593  12.526   7.654   4.372  1.5866 -1.4654 -1.0035
  938MOL0     H26594  12.745   7.508   4.287  0.2241 -0.5674  0.5840
  938MOL0     H26595  12.741   7.661   4.378  0.5160 -0.5518 -0.8972
  938MOL0     H26596  12.952   7.622   4.469 -0.5688 -0.5362  0.7777
  938MOL0     H26597  12.940   7.447   4.438 -0.0266 -1.4374 -2.4544
  938MOL0     H26598  12.950   7.497   4.194 -4.7436  3.1978 -2.9103
  938MOL0     H26599  12.942   7.678   4.225  1.9601  2.5799  3.5942
  938MOL0     H26600  13.174   7.499   4.328 -0.5696 -1.0076 -1.0259
  938MOL0     H26601  13.163   7.672   4.338 -1.0942 -1.9267  2.2026
  938MOL0     H26602  13.290   7.640   4.140  1.0074 -1.0363 -0.1791
  938MOL0     H26603  13.128   7.665   4.077 -1.5828 -1.3100 -1.9036
  938MOL0     H26604  13.250   7.382   4.133 -0.6454  0.8473  1.8254
  938MOL0     H26605  13.118   7.408   4.026  1.2632 -2.0038 -2.4294
  938MOL0     H26606  13.307   7.375   3.887  0.2288 -0.1193 -0.4819
  938MOL0     H26607  13.395   7.510   3.977 -3.0627  3.9434  3.1498
  938MOL0     H26608  13.286   7.666   3.857  0.2251 -0.7148  1.4411
  938MOL0     H26609  13.312   7.534   3.741 -1.2497 -1.4618 -1.1650
  938MOL0     H26610  12.588   7.335   4.655 -0.6678  0.0535 -0.2295
  938MOL0     H26611  12.360   7.336   4.714  0.1178  0.5539  1.2913
  938MOL0     H26612  11.877   7.554   4.390  1.4695  1.5107 -0.7151
  938MOL0     H26613  11.669   7.650   4.448  2.1848  0.2705 -1.3325
  938MOL0     H26614   9.960   7.982   4.903  0.5326 -0.3348 -0.8019
  938MOL0     H26615   9.743   8.114   4.955 -1.2115 -0.8616 -1.8281
  938MOL0     H26616   9.503   8.485   4.724  0.9484  1.0147  1.6044
  938MOL0     H26617   9.324   8.620   4.692  0.3778 -3.3567 -1.1494
  938MOL0     H26618   8.942   8.654   4.858 -1.8979 -1.1066  1.4622
  938MOL0     H26619   9.000   8.513   4.940 -2.0104  1.3997 -0.8532
  938MOL0     H26620   9.096   8.468   4.685  1.8864  2.1218  0.9381
  938MOL0     H26621   8.973   8.579   4.647  0.1169 -0.7094 -1.0254
  938MOL0     H26622   8.832   8.400   4.630 -0.1726  5.2458 -0.4665
  938MOL0     H26623   8.807   8.434   4.794 -0.8715 -0.4605 -1.8040
  938MOL0     H26624   8.862   8.188   4.778  0.7954 -2.2806 -3.3729
  938MOL0     H26625   8.986   8.224   4.660 -0.7150  1.2467  0.1589
  938MOL0     H26626   9.202   8.209   5.021 -1.2093 -1.6529  1.2920
  938MOL0     H26627   9.206   8.555   5.091 -0.2681 -4.4270  0.2238
  938MOL0     H26628   9.504   8.486   5.223  0.8453 -2.8789  1.0641
  938MOL0     H26629   9.324   8.456   5.232 -0.0929  1.3855 -1.4342
  938MOL0     H26630   9.439   8.327   5.194  0.8628 -0.2381  0.2519
  939MOL0     O26631   3.268   4.367   7.298  0.0713 -0.1392  1.0029
  939MOL0     C26632   3.251   4.247   7.321 -0.3182  0.8817 -0.0453
  939MOL0     O26633   3.303   4.180   7.436 -1.2354 -0.0871  0.3133
  939MOL0     C26634   3.324   4.255   7.557 -0.2508 -0.2464  0.1411
  939MOL0     C26635   3.273   4.378   7.591 -0.1674  0.6212 -0.2443
  939MOL0     C26636   3.295   4.436   7.711  0.1866 -0.2010 -0.2107
  939MOL0     C26637   3.378   4.388   7.807  0.4718  0.0090  0.0214
  939MOL0     O26638   3.411   4.453   7.927  0.0171  0.1398  0.8114
  939MOL0     C26639   3.483   4.398   8.036  0.0917  0.4982  0.7270
  939MOL0     C26640   3.433   4.466   8.163 -0.2435 -0.2875 -0.0493
  939MOL0     C26641   3.302   4.408   8.224  0.7814  0.6038 -1.0018
  939MOL0     C26642   3.271   4.445   8.375 -0.6317  0.1356  0.2175
  939MOL0     C26643   3.129   4.404   8.432  0.3130  0.3536  0.1821
  939MOL0     C26644   3.102   4.254   8.442  0.7919  0.4901 -0.3906
  939MOL0     C26645   3.169   4.194   8.568 -0.4328  0.4583 -0.3222
  939MOL0     C26646   3.073   4.154   8.681 -0.6669 -0.7766  0.0112
  939MOL0     N26647   2.982   4.257   8.730  0.2260 -0.1285  0.1415
  939MOL0     C26648   2.855   4.242   8.775 -0.4295  0.9539 -0.1785
  939MOL0     C26649   2.808   4.362   8.817 -0.1807 -0.1778 -0.3305
  939MOL0     C26650   2.667   4.402   8.874  0.2599  0.1465 -0.6074
  939MOL0     C26651   2.551   4.376   8.781  1.0318  1.8635 -0.5647
  939MOL0     C26652   2.496   4.232   8.810  0.6004 -0.5573  0.2522
  939MOL0     C26653   2.369   4.204   8.732 -0.0488 -0.1936  0.0440
  939MOL0     O26654   2.393   4.221   8.589  0.8341  0.1593 -0.4278
  939MOL0     C26655   2.489   4.142   8.536  0.0450  0.5498 -0.2964
  939MOL0     C26656   2.605   4.203   8.484  1.1610  0.2392 -0.1184
  939MOL0     C26657   2.709   4.125   8.436 -0.7717  0.0823 -0.2601
  939MOL0     C26658   2.716   3.985   8.450  0.1027 -0.6797  0.2861
  939MOL0     C26659   2.834   3.907   8.406  0.1030 -0.2886  0.9207
  939MOL0     O26660   2.956   3.966   8.378  0.4064 -0.3604  0.4769
  939MOL0     C26661   3.050   3.879   8.328 -0.0772 -0.1117 -0.4686
  939MOL0     C26662   3.104   3.773   8.400 -0.7015 -0.2622 -1.1515
  939MOL0     C26663   3.219   3.710   8.345  0.0806  0.0997 -0.2063
  939MOL0     C26664   3.273   3.741   8.220 -0.1436  0.2425  0.1338
  939MOL0     O26665   3.384   3.684   8.164  0.5974 -0.4487  0.0631
  939MOL0     C26666   3.484   3.617   8.240 -0.8441  0.2477  0.0808
  939MOL0     C26667   3.582   3.721   8.300 -0.4288  0.4764 -0.5842
  939MOL0     C26668   3.673   3.645   8.401  0.5241  0.1693  0.3365
  939MOL0     C26669   3.778   3.728   8.478  1.5298 -0.1045  0.7792
  939MOL0     C26670   3.846   3.643   8.600 -0.3233 -0.1759  0.4456
  939MOL0     C26671   3.948   3.722   8.673 -0.0074 -0.4353 -0.3741
  939MOL0     C26672   4.047   3.637   8.759  0.5089 -0.0503  0.3287
  939MOL0     C26673   4.074   3.718   8.891 -0.0947  0.2468  0.3581
  939MOL0    Cl26674   3.940   3.695   9.008 -0.1390 -0.1985 -0.2257
  939MOL0     C26675   3.220   3.853   8.163 -0.4205 -0.7338  0.9858
  939MOL0     C26676   3.105   3.914   8.200 -0.4060  0.7924 -0.3967
  939MOL0     O26677   2.807   3.790   8.388  0.7286  0.1220 -0.2800
  939MOL0     C26678   2.605   3.928   8.514  0.0699  0.1292  0.8439
  939MOL0     C26679   2.499   3.995   8.552 -0.2044 -0.6649 -0.3164
  939MOL0     N26680   2.918   4.452   8.800  0.1581 -0.4817  1.2632
  939MOL0     N26681   3.014   4.388   8.739 -0.1012  0.0314  0.4307
  939MOL0     C26682   3.438   4.264   7.766  0.0050  0.0907  0.6122
  939MOL0     C26683   3.418   4.199   7.644  0.3082 -1.4379  0.1483
  939MOL0     C26684   3.185   4.176   7.212  1.0958 -0.2985 -0.0613
  939MOL0     C26685   3.213   4.037   7.199 -0.8141 -0.2509 -0.5713
  939MOL0     C26686   3.166   3.961   7.094 -0.5919  0.6668  0.2783
  939MOL0     C26687   3.084   4.018   6.998  0.1368 -0.4847 -0.3170
  939MOL0     O26688   3.038   3.929   6.900 -0.5745 -0.7171 -0.2753
  939MOL0     C26689   2.972   3.976   6.783  0.7828 -0.4068  0.2235
  939MOL0     C26690   2.919   3.851   6.709 -0.0721  1.1513 -1.0132
  939MOL0     C26691   2.788   3.812   6.777  0.4542 -0.1328 -0.5400
  939MOL0     C26692   2.753   3.670   6.739 -0.7432 -0.8453 -0.0981
  939MOL0     C26693   2.672   3.608   6.844 -0.9588  0.5823  0.8313
  939MOL0     C26694   2.591   3.572   6.928 -0.2476  0.3985 -0.1269
  939MOL0     C26695   3.057   4.159   7.011 -0.4101 -0.0817  0.1822
  939MOL0     C26696   3.102   4.244   7.114 -0.9303  0.0280 -0.5732
  939MOL0     C26697   3.062   4.391   7.110  0.6158 -0.5743 -1.1500
  939MOL0     H26698   3.193   4.428   7.537 -0.7049  0.6774  0.5796
  939MOL0     H26699   3.240   4.529   7.727  2.1947  1.6335 -2.9316
  939MOL0     H26700   3.460   4.291   8.047  0.8284  0.1734 -0.7458
  939MOL0     H26701   3.590   4.415   8.024 -0.5238  3.2651 -2.0136
  939MOL0     H26702   3.417   4.573   8.143 -0.0885 -0.1741  0.4169
  939MOL0     H26703   3.518   4.457   8.232 -0.4487 -2.2247 -0.0055
  939MOL0     H26704   3.301   4.299   8.209  3.6995 -0.0838  2.4264
  939MOL0     H26705   3.221   4.452   8.166  0.7583 -0.2641 -1.6518
  939MOL0     H26706   3.360   4.408   8.427  0.7634 -0.2999 -2.3300
  939MOL0     H26707   3.283   4.554   8.377  2.3414 -0.0054 -2.0721
  939MOL0     H26708   3.112   4.447   8.532 -1.0607 -2.0170  1.0553
  939MOL0     H26709   3.054   4.436   8.360  1.2383  0.9271 -0.5410
  939MOL0     H26710   2.993   4.241   8.450  0.9853 -0.1578  1.8975
  939MOL0     H26711   3.138   4.207   8.350 -2.4852  0.1854 -1.6504
  939MOL0     H26712   3.239   4.261   8.619  1.1523  0.3290 -2.1942
  939MOL0     H26713   3.227   4.107   8.538 -1.3505 -0.8106  1.4391
  939MOL0     H26714   3.012   4.076   8.634  1.4988 -2.3604 -0.3388
  939MOL0     H26715   3.134   4.114   8.763  1.5313 -0.8504 -1.5772
  939MOL0     H26716   2.799   4.149   8.776  1.0680  0.0131  0.9178
  939MOL0     H26717   2.648   4.359   8.973  3.4164 -0.8420 -0.3182
  939MOL0     H26718   2.667   4.510   8.887  0.1794  0.0121  0.6284
  939MOL0     H26719   2.476   4.455   8.794 -0.9533  0.4170 -2.4581
  939MOL0     H26720   2.586   4.386   8.678 -0.2161 -2.4576 -1.6299
  939MOL0     H26721   2.468   4.218   8.915  0.4438 -1.5045  0.0938
  939MOL0     H26722   2.568   4.159   8.771 -0.6925 -2.3060  1.0267
  939MOL0     H26723   2.279   4.262   8.755 -0.2265 -0.0536 -0.9623
  939MOL0     H26724   2.346   4.098   8.748  1.5001 -0.8967 -1.9259
  939MOL0     H26725   2.589   4.308   8.462  0.7505  0.2854  0.3724
  939MOL0     H26726   2.792   4.176   8.387 -2.0893  4.3689  1.4661
  939MOL0     H26727   3.075   3.761   8.503 -1.7948 -0.8089 -1.5106
  939MOL0     H26728   3.272   3.644   8.413  0.7595 -1.7443 -2.3748
  939MOL0     H26729   3.439   3.566   8.325  1.5137  0.6359  1.6903
  939MOL0     H26730   3.544   3.548   8.180  1.9016  1.3474  1.3480
  939MOL0     H26731   3.624   3.780   8.217 -3.3387  0.2848 -2.3510
  939MOL0     H26732   3.522   3.793   8.355  0.5508  1.0831 -0.2956
  939MOL0     H26733   3.604   3.593   8.468 -1.4015 -0.5782 -2.0813
  939MOL0     H26734   3.728   3.566   8.349 -0.7250 -1.5451  1.5213
  939MOL0     H26735   3.734   3.818   8.522  2.0570  0.3110  0.4559
  939MOL0     H26736   3.847   3.772   8.406  0.8428  1.5798  1.0976
  939MOL0     H26737   3.891   3.555   8.553 -2.2270  0.0039 -1.8848
  939MOL0     H26738   3.772   3.617   8.676 -0.2945  2.1491  1.3529
  939MOL0     H26739   4.016   3.779   8.610  0.7482  0.3015  1.0561
  939MOL0     H26740   3.888   3.791   8.733 -0.0459 -1.3924  0.7295
  939MOL0     H26741   4.141   3.616   8.708  0.7678  1.5398  0.1287
  939MOL0     H26742   3.994   3.544   8.783  1.4639 -0.4447  0.9794
  939MOL0     H26743   4.160   3.671   8.940 -1.3053 -0.5818  1.7848
  939MOL0     H26744   4.088   3.826   8.877  0.3106  0.4133  1.8352
  939MOL0     H26745   3.262   3.898   8.074 -3.1211  0.0210 -0.0085
  939MOL0     H26746   3.067   4.004   8.152 -0.1445  1.2774  0.2758
  939MOL0     H26747   2.591   3.823   8.536 -3.0710  0.3048  0.1412
  939MOL0     H26748   2.416   3.956   8.610 -1.8669  4.0449  0.9232
  939MOL0     H26749   3.493   4.207   7.840 -0.1826 -3.3439 -1.6834
  939MOL0     H26750   3.443   4.094   7.633  1.3091 -1.4003  1.7574
  939MOL0     H26751   3.278   3.991   7.274 -0.4302 -0.9664 -1.3237
  939MOL0     H26752   3.194   3.856   7.084  0.5326  1.1159 -1.6442
  939MOL0     H26753   3.043   4.016   6.710  0.3661 -3.2045 -1.8473
  939MOL0     H26754   2.895   4.051   6.809 -0.2186  0.0456 -3.4857
  939MOL0     H26755   2.994   3.773   6.727  0.4834  2.1079  1.2329
  939MOL0     H26756   2.916   3.850   6.600  1.8992 -1.1270 -1.1330
  939MOL0     H26757   2.712   3.881   6.739  1.0400  0.4509 -0.6450
  939MOL0     H26758   2.798   3.816   6.885  2.6136 -0.0150 -0.7055
  939MOL0     H26759   2.703   3.659   6.643 -0.5837 -1.9801 -0.0694
  939MOL0     H26760   2.842   3.606   6.739  0.2373  0.3772 -2.6688
  939MOL0     H26761   2.506   3.545   6.989 -0.0605  1.7308  0.7744
  939MOL0     H26762   2.995   4.208   6.935 -0.0537 -0.3480 -0.2837
  939MOL0     H26763   3.019   4.422   7.206  1.7394 -1.5602 -0.2922
  939MOL0     H26764   3.143   4.462   7.091  0.1696  0.8223  1.6722
  939MOL0     H26765   2.991   4.404   7.028  1.9004  2.5866 -1.8940
  940MOL0     O26766  11.063   4.663   2.830  1.0647 -0.3243 -0.2823
  940MOL0     C26767  11.043   4.710   2.716  0.1672 -1.1495  0.2699
  940MOL0     O26768  10.966   4.808   2.679 -0.1025 -0.2668  0.6646
  940MOL0     C26769  10.882   4.862   2.776 -0.0052 -0.6386  0.4830
  940MOL0     C26770  10.752   4.869   2.737  0.1431  0.3961  0.2610
  940MOL0     C26771  10.659   4.928   2.818 -0.1534 -0.2890 -0.4626
  940MOL0     C26772  10.693   4.967   2.948 -0.4618 -0.5413 -0.1334
  940MOL0     O26773  10.612   5.022   3.055 -0.6205  0.5605 -0.5912
  940MOL0     C26774  10.476   5.066   3.041 -0.4721  0.1981  0.4476
  940MOL0     C26775  10.408   5.075   3.182 -1.1012  0.5360 -0.1267
  940MOL0     C26776  10.314   5.197   3.187  0.0905 -0.5224  0.4686
  940MOL0     C26777  10.223   5.182   3.303  0.0453 -0.2554  0.4134
  940MOL0     C26778  10.119   5.296   3.300 -0.8124  0.0943  0.1950
  940MOL0     C26779  10.040   5.304   3.429  0.1137  0.5526 -0.4555
  940MOL0     C26780   9.976   5.173   3.478 -0.0786 -0.0058  0.4790
  940MOL0     C26781   9.918   5.186   3.607  0.3874  0.7082 -0.2754
  940MOL0     N26782   9.773   5.203   3.595  0.2948 -0.8208  0.0259
  940MOL0     C26783   9.704   5.317   3.561  0.0429  0.1288  0.0309
  940MOL0     C26784   9.574   5.290   3.584  0.7440  0.3543  0.0654
  940MOL0     C26785   9.455   5.391   3.583  0.0924  0.1952  1.0121
  940MOL0     C26786   9.439   5.453   3.443  0.1016 -0.1647  0.2595
  940MOL0     C26787   9.316   5.547   3.442 -0.0808 -0.1823  0.0735
  940MOL0     C26788   9.195   5.509   3.346 -0.1996  0.0436 -0.1123
  940MOL0     O26789   9.117   5.630   3.330 -0.3351 -0.2667 -0.1907
  940MOL0     C26790   9.002   5.646   3.405 -0.2210 -0.1249  0.4036
  940MOL0     C26791   8.914   5.744   3.354  0.1669 -0.0958 -0.0509
  940MOL0     C26792   8.804   5.789   3.429  0.5115  0.5401  0.2602
  940MOL0     C26793   8.755   5.706   3.533  0.3995 -0.0142 -0.1479
  940MOL0     C26794   8.624   5.723   3.598 -0.3788  0.1052 -0.4261
  940MOL0     O26795   8.532   5.821   3.548 -0.1806  0.2680 -0.3580
  940MOL0     C26796   8.416   5.843   3.625 -0.0833  0.2916  0.8278
  940MOL0     C26797   8.426   5.914   3.745  0.6692 -0.0708 -1.0624
  940MOL0     C26798   8.310   5.930   3.825  0.7711  0.0651  0.8641
  940MOL0     C26799   8.186   5.886   3.778  0.2497 -0.7812 -0.3701
  940MOL0     O26800   8.079   5.894   3.866 -0.5502 -0.2100 -0.0429
  940MOL0     C26801   8.012   5.772   3.899 -0.2892 -0.0631  0.9134
  940MOL0     C26802   8.075   5.709   4.026  0.5359 -0.3552  1.1066
  940MOL0     C26803   8.171   5.602   3.986 -0.4151 -0.7465  0.2074
  940MOL0     C26804   8.151   5.468   4.057 -0.0816  0.6211  0.2298
  940MOL0     C26805   8.280   5.380   4.027 -0.4218  0.0909  0.4098
  940MOL0     C26806   8.314   5.356   3.876 -0.2312 -0.6460  0.2652
  940MOL0     C26807   8.420   5.233   3.855 -0.0785  0.7642 -0.0176
  940MOL0     C26808   8.570   5.264   3.826  0.4740  0.2775 -0.6494
  940MOL0    Cl26809   8.660   5.120   3.788 -0.2711  0.3144 -0.0592
  940MOL0     C26810   8.168   5.823   3.652 -0.5222 -0.9978 -0.1315
  940MOL0     C26811   8.289   5.800   3.576  0.1601 -0.5932 -0.0497
  940MOL0     O26812   8.596   5.637   3.688 -0.0976  0.0445  0.2675
  940MOL0     C26813   8.821   5.586   3.556 -0.3407 -1.0353 -0.0848
  940MOL0     C26814   8.943   5.559   3.498  0.3033  0.3982 -0.1680
  940MOL0     N26815   9.566   5.165   3.638  0.2609  0.0562  0.9617
  940MOL0     N26816   9.684   5.106   3.625  0.2454  0.4484  0.4466
  940MOL0     C26817  10.822   4.959   2.989  0.3837 -0.4149 -0.7758
  940MOL0     C26818  10.922   4.915   2.899  0.3223 -0.3052 -0.4262
  940MOL0     C26819  11.129   4.638   2.616 -0.2325  0.1675 -0.3238
  940MOL0     C26820  11.268   4.632   2.637 -1.0078 -0.1009  0.7889
  940MOL0     C26821  11.362   4.588   2.541 -0.3532 -1.2785 -0.6059
  940MOL0     C26822  11.313   4.545   2.422  0.2026  0.0152  1.1079
  940MOL0     O26823  11.405   4.521   2.322  0.3031  0.6345  0.2583
  940MOL0     C26824  11.440   4.381   2.321 -0.1488 -0.0771 -0.2916
  940MOL0     C26825  11.561   4.362   2.231  0.1399 -0.1167 -1.0172
  940MOL0     C26826  11.578   4.227   2.170 -0.8649  0.4379  0.3238
  940MOL0     C26827  11.573   4.109   2.264  0.0115 -0.1925 -0.2377
  940MOL0     C26828  11.700   4.092   2.333  0.8984  0.4734 -0.2556
  940MOL0     C26829  11.795   4.056   2.388 -0.5976 -0.2117 -0.1551
  940MOL0     C26830  11.170   4.555   2.390 -0.0051  0.6250  0.0509
  940MOL0     C26831  11.084   4.594   2.491 -0.1429  1.0593  0.6970
  940MOL0     C26832  10.941   4.575   2.453  0.2448  0.2442 -0.5917
  940MOL0     H26833  10.738   4.827   2.639  2.0957 -0.8021  0.4465
  940MOL0     H26834  10.554   4.942   2.791  0.2949  0.6942 -1.8151
  940MOL0     H26835  10.459   5.164   2.996  1.8675  0.0404 -0.9556
  940MOL0     H26836  10.421   5.001   2.972 -1.4133  1.2626  0.1643
  940MOL0     H26837  10.486   5.097   3.255 -1.5925 -2.3282  1.3906
  940MOL0     H26838  10.369   4.974   3.194  0.1384  0.2113  1.4823
  940MOL0     H26839  10.249   5.200   3.100  1.2690  1.4381 -0.4056
  940MOL0     H26840  10.374   5.289   3.184  1.1336 -1.1716  0.8810
  940MOL0     H26841  10.182   5.081   3.299  2.7689 -1.5494  2.0768
  940MOL0     H26842  10.288   5.187   3.391  0.4811 -3.8816  0.4823
  940MOL0     H26843  10.157   5.397   3.280  0.6094 -0.7535 -1.6334
  940MOL0     H26844  10.057   5.273   3.213  0.0276 -0.3544 -0.3061
  940MOL0     H26845  10.109   5.334   3.508  2.8912  0.9900 -2.8606
  940MOL0     H26846   9.963   5.380   3.415  0.3811  1.4950  2.5743
  940MOL0     H26847  10.051   5.094   3.481  0.3753  0.2134 -2.4335
  940MOL0     H26848   9.897   5.141   3.410 -0.5093  3.0510 -0.6446
  940MOL0     H26849   9.940   5.095   3.664  2.4713  2.6237  2.2482
  940MOL0     H26850   9.960   5.267   3.667  0.7022  0.2167  0.1835
  940MOL0     H26851   9.735   5.415   3.527 -2.1093  1.4757  1.6883
  940MOL0     H26852   9.371   5.331   3.617  0.1465 -0.8499 -0.5900
  940MOL0     H26853   9.482   5.462   3.662 -0.5259  2.8645 -1.0312
  940MOL0     H26854   9.529   5.513   3.425  0.7992 -0.1083  3.2647
  940MOL0     H26855   9.431   5.375   3.367  0.8777 -2.0804  2.0339
  940MOL0     H26856   9.353   5.647   3.414 -0.0093 -0.5042 -0.9895
  940MOL0     H26857   9.277   5.548   3.545  1.8187 -0.2712  0.8470
  940MOL0     H26858   9.143   5.420   3.384  1.3239 -1.8536 -2.1475
  940MOL0     H26859   9.232   5.471   3.251 -2.0337 -1.5115 -0.2690
  940MOL0     H26860   8.932   5.791   3.258 -1.5597  0.1713 -0.2917
  940MOL0     H26861   8.745   5.869   3.385  3.9332  1.9915 -2.0494
  940MOL0     H26862   8.524   5.946   3.780  0.6907 -1.0230 -0.1934
  940MOL0     H26863   8.315   5.970   3.926 -0.6711 -0.5096  1.1907
  940MOL0     H26864   7.907   5.797   3.919  0.1426  1.3757  1.4570
  940MOL0     H26865   8.022   5.705   3.813  2.1978  0.8553  0.4146
  940MOL0     H26866   8.124   5.783   4.088  0.7849  0.3450  0.0904
  940MOL0     H26867   7.996   5.652   4.077  0.0907 -0.1958  0.5984
  940MOL0     H26868   8.161   5.584   3.878 -0.4400  1.2390 -0.1558
  940MOL0     H26869   8.271   5.642   4.001 -0.0034 -2.1717  1.4400
  940MOL0     H26870   8.057   5.425   4.023  0.1692  0.1442  0.1250
  940MOL0     H26871   8.149   5.485   4.165 -0.5650  2.6237 -0.0485
  940MOL0     H26872   8.288   5.280   4.071 -1.5070  0.2311  0.9549
  940MOL0     H26873   8.366   5.424   4.077  1.2528 -3.3892  0.9389
  940MOL0     H26874   8.222   5.341   3.818 -0.7742  2.2648  0.2170
  940MOL0     H26875   8.354   5.449   3.834  0.6062 -1.0949  0.0342
  940MOL0     H26876   8.388   5.173   3.768  0.9484  2.7131 -1.8375
  940MOL0     H26877   8.425   5.171   3.944 -0.6145  1.0811  0.2408
  940MOL0     H26878   8.580   5.341   3.749  1.2812  0.5526 -0.2925
  940MOL0     H26879   8.618   5.311   3.913  1.9961 -0.9976 -0.7533
  940MOL0     H26880   8.075   5.784   3.612 -0.8010 -0.9538  0.4700
  940MOL0     H26881   8.295   5.751   3.480  2.5609 -1.8697  0.6731
  940MOL0     H26882   8.784   5.503   3.616  1.7036 -4.7925 -3.5536
  940MOL0     H26883   9.002   5.472   3.525  3.3297  2.5831  0.8298
  940MOL0     H26884  10.844   4.988   3.091 -0.0800 -2.5900  0.0001
  940MOL0     H26885  11.027   4.923   2.925 -0.0406  0.2922  0.9533
  940MOL0     H26886  11.320   4.680   2.720 -1.7638 -0.5573  1.5342
  940MOL0     H26887  11.466   4.607   2.564 -0.0826 -0.8593 -2.0915
  940MOL0     H26888  11.364   4.311   2.287 -0.2831  0.0323 -0.2178
  940MOL0     H26889  11.474   4.369   2.424 -1.6705  1.7117  0.4872
  940MOL0     H26890  11.649   4.375   2.295  1.5790  0.8862 -3.0649
  940MOL0     H26891  11.558   4.443   2.157 -2.4917  1.3431  0.5467
  940MOL0     H26892  11.682   4.230   2.137 -1.1254  0.7184 -0.4938
  940MOL0     H26893  11.517   4.209   2.081 -0.1728 -3.3212  0.4619
  940MOL0     H26894  11.495   4.129   2.338 -0.1226  2.6342 -1.0282
  940MOL0     H26895  11.545   4.020   2.206  1.9373 -1.0522  0.0624
  940MOL0     H26896  11.888   4.026   2.432  1.7201  0.0831 -4.2962
  940MOL0     H26897  11.138   4.529   2.290  0.1129 -1.1995  0.4520
  940MOL0     H26898  10.933   4.468   2.429  0.1406 -0.4403  2.1360
  940MOL0     H26899  10.879   4.591   2.542  2.1911 -1.2916  1.1301
  940MOL0     H26900  10.903   4.640   2.373  0.7770  2.5643  0.9383
  941MOL0     O26901   9.527   6.288   8.884  0.0803 -1.1137 -0.6036
  941MOL0     C26902   9.451   6.212   8.948 -0.2113  0.2715  0.5938
  941MOL0     O26903   9.488   6.124   9.046  0.2519  0.0151 -0.1040
  941MOL0     C26904   9.622   6.123   9.079 -0.6225 -0.1231  1.1715
  941MOL0     C26905   9.719   6.095   8.985 -0.0507 -0.6205  0.4374
  941MOL0     C26906   9.849   6.064   9.025 -0.0239  0.1350  0.6938
  941MOL0     C26907   9.892   6.083   9.150 -0.2410  0.5137 -0.2612
  941MOL0     O26908  10.016   6.070   9.185 -0.0561 -0.1932 -0.1297
  941MOL0     C26909  10.116   6.144   9.118 -0.0626 -0.2693  0.0676
  941MOL0     C26910  10.241   6.120   9.206 -0.4035  0.2035  0.3062
  941MOL0     C26911  10.375   6.153   9.130  0.0624 -1.4725 -0.4887
  941MOL0     C26912  10.402   6.037   9.033  0.0486  1.0899  0.1398
  941MOL0     C26913  10.551   6.026   9.005 -0.5420 -0.4548  0.7006
  941MOL0     C26914  10.596   6.136   8.903  0.5306  0.5472  0.5106
  941MOL0     C26915  10.739   6.132   8.845 -0.3379  0.7882 -0.5598
  941MOL0     C26916  10.764   5.992   8.788  0.0030 -0.2078 -0.1789
  941MOL0     N26917  10.892   5.984   8.708 -0.3355  0.0386  0.4709
  941MOL0     C26918  10.915   6.041   8.583  0.0018 -0.4028 -0.6191
  941MOL0     C26919  11.036   5.999   8.557  0.3602 -0.0512  0.3688
  941MOL0     C26920  11.116   6.020   8.433  0.0155  0.4237  0.0465
  941MOL0     C26921  11.186   5.887   8.395  0.4295  0.6242 -0.3230
  941MOL0     C26922  11.258   5.893   8.259 -0.7332  0.2079 -0.3572
  941MOL0     C26923  11.326   5.764   8.236 -0.1666 -0.6027  0.5929
  941MOL0     O26924  11.388   5.771   8.106  0.4766 -0.6709  0.5152
  941MOL0     C26925  11.501   5.830   8.081  0.5788 -0.4047  0.1965
  941MOL0     C26926  11.589   5.867   8.182 -0.0863 -0.1965 -0.0004
  941MOL0     C26927  11.717   5.916   8.163  0.4397  0.3213 -0.0788
  941MOL0     C26928  11.757   5.929   8.038 -0.8604 -0.0727 -0.0997
  941MOL0     C26929  11.893   5.985   8.005 -0.4080 -0.2195  0.2019
  941MOL0     O26930  11.971   6.009   8.115 -0.1511  0.4609  0.1307
  941MOL0     C26931  12.091   6.064   8.106  0.4082 -1.1305 -0.3422
  941MOL0     C26932  12.124   6.150   8.208 -0.0284  0.7110 -0.0244
  941MOL0     C26933  12.242   6.209   8.224 -1.4819  0.2163 -0.4681
  941MOL0     C26934  12.347   6.182   8.127 -0.3733 -0.1267  0.0431
  941MOL0     O26935  12.477   6.220   8.137  0.2074 -1.0557  0.3823
  941MOL0     C26936  12.541   6.268   8.008  0.2006  0.5069 -0.4726
  941MOL0     C26937  12.663   6.347   8.051 -0.3194  0.1008 -0.7096
  941MOL0     C26938  12.639   6.466   8.139 -0.2057 -0.6204 -0.0293
  941MOL0     C26939  12.760   6.479   8.233  0.5359 -0.4600  0.2387
  941MOL0     C26940  12.731   6.604   8.320 -0.1515  0.1653  0.0166
  941MOL0     C26941  12.765   6.740   8.251  0.1998 -0.7761  0.5935
  941MOL0     C26942  12.759   6.842   8.364  1.2025  0.1514 -0.5169
  941MOL0     C26943  12.785   6.979   8.309  0.1838  0.5138  0.5013
  941MOL0    Cl26944  12.778   7.119   8.424  0.1927  0.1712 -0.2758
  941MOL0     C26945  12.314   6.112   8.012 -0.5652 -0.7898  0.5302
  941MOL0     C26946  12.180   6.055   8.000 -1.0247  1.0941 -0.1941
  941MOL0     O26947  11.927   5.995   7.884  0.0053 -0.5278 -0.4307
  941MOL0     C26948  11.670   5.898   7.925 -0.0239  0.8101 -0.6976
  941MOL0     C26949  11.538   5.853   7.944  0.6912  0.9461  0.0691
  941MOL0     N26950  11.084   5.927   8.664 -0.4718 -0.7271 -0.0270
  941MOL0     N26951  10.999   5.928   8.760  0.3494 -0.6995 -0.6767
  941MOL0     C26952   9.793   6.114   9.243 -0.3476  0.3840 -0.8294
  941MOL0     C26953   9.660   6.126   9.217 -0.0437  0.1675  1.2336
  941MOL0     C26954   9.308   6.227   8.924 -0.8182 -0.0822  0.3166
  941MOL0     C26955   9.223   6.239   9.035  0.3714  0.5257  0.2126
  941MOL0     C26956   9.086   6.228   9.017 -0.1006 -0.0391 -0.4929
  941MOL0     C26957   9.029   6.238   8.895 -0.1724  0.0477  0.4462
  941MOL0     O26958   8.897   6.232   8.886  0.7095  0.3870 -0.1299
  941MOL0     C26959   8.817   6.352   8.891 -1.1962 -0.1757 -0.4637
  941MOL0     C26960   8.812   6.439   8.765  0.2122  0.0428  0.6762
  941MOL0     C26961   8.785   6.380   8.629 -0.4560 -0.2779  1.7976
  941MOL0     C26962   8.680   6.276   8.630 -0.1399 -0.2525  0.4940
  941MOL0     C26963   8.550   6.335   8.675 -0.4982  0.7878 -1.2327
  941MOL0     C26964   8.453   6.394   8.726  0.2132 -0.0386 -1.1161
  941MOL0     C26965   9.108   6.232   8.779  0.3497  0.2598  0.9938
  941MOL0     C26966   9.253   6.229   8.792  0.5737  1.4639 -0.1879
  941MOL0     C26967   9.318   6.219   8.658 -0.9338  0.3813 -0.9566
  941MOL0     H26968   9.687   6.089   8.881  1.1631  0.2965 -0.0125
  941MOL0     H26969   9.921   6.028   8.953  0.4637  0.0271  1.2220
  941MOL0     H26970  10.124   6.095   9.021 -3.3361 -0.8045 -0.0196
  941MOL0     H26971  10.094   6.251   9.111 -0.4150 -0.2803  0.9366
  941MOL0     H26972  10.246   6.018   9.244  0.1767  0.6281  1.4247
  941MOL0     H26973  10.236   6.193   9.288  0.9212  2.7174 -1.6798
  941MOL0     H26974  10.450   6.158   9.209 -0.4715  1.0639 -0.0652
  941MOL0     H26975  10.370   6.244   9.071 -1.9755 -1.9048 -1.0830
  941MOL0     H26976  10.364   5.939   9.063  1.4088  0.6283  0.4317
  941MOL0     H26977  10.345   6.051   8.941 -1.1646 -0.7011  0.5737
  941MOL0     H26978  10.622   6.007   9.086  1.4524  0.8654 -0.6455
  941MOL0     H26979  10.549   5.930   8.953 -0.0005 -1.9624  3.2906
  941MOL0     H26980  10.526   6.125   8.820  0.3381 -0.2978  0.7738
  941MOL0     H26981  10.582   6.239   8.937  1.1465  1.1480 -0.9607
  941MOL0     H26982  10.814   6.147   8.923  0.6453 -0.3482 -1.2488
  941MOL0     H26983  10.754   6.219   8.780 -2.4772  2.4877  1.0539
  941MOL0     H26984  10.763   5.923   8.874  1.2136  1.1701  0.9966
  941MOL0     H26985  10.687   5.983   8.712 -0.3792 -2.7833  0.4172
  941MOL0     H26986  10.850   6.115   8.539  0.1563  1.3229  1.8580
  941MOL0     H26987  11.057   6.061   8.351 -0.4560  1.5558  0.9151
  941MOL0     H26988  11.199   6.092   8.440  0.0299  0.7802 -2.7483
  941MOL0     H26989  11.247   5.862   8.482 -0.0291 -1.3491 -0.5228
  941MOL0     H26990  11.101   5.818   8.389  1.7524 -0.9857 -1.1358
  941MOL0     H26991  11.335   5.971   8.256  0.3605 -0.8477 -0.9700
  941MOL0     H26992  11.190   5.905   8.173 -1.7849 -0.1191  0.4107
  941MOL0     H26993  11.258   5.678   8.248  0.9305 -1.5158  0.4751
  941MOL0     H26994  11.404   5.736   8.307  1.2850  1.9932  0.1054
  941MOL0     H26995  11.572   5.832   8.283 -1.4297  1.3305  0.3248
  941MOL0     H26996  11.776   5.945   8.249 -2.4464  3.5554  1.0356
  941MOL0     H26997  12.059   6.153   8.295  1.6032 -0.1847  1.2894
  941MOL0     H26998  12.271   6.272   8.307  2.9743  0.0018 -1.5856
  941MOL0     H26999  12.562   6.187   7.938  1.5643  1.3671 -1.0916
  941MOL0     H27000  12.474   6.334   7.953 -2.8942 -1.4529  0.7279
  941MOL0     H27001  12.726   6.270   8.097 -0.5827 -1.7369 -3.2429
  941MOL0     H27002  12.713   6.387   7.963 -1.0181  2.9960  0.0905
  941MOL0     H27003  12.614   6.558   8.086  0.5450 -0.6720 -0.4919
  941MOL0     H27004  12.547   6.455   8.196 -1.5145  2.2986 -1.3740
  941MOL0     H27005  12.860   6.475   8.188  1.0795  1.7944  1.0712
  941MOL0     H27006  12.761   6.387   8.292  2.8522 -0.1097  0.8440
  941MOL0     H27007  12.794   6.598   8.409 -0.3114 -0.3083  0.1027
  941MOL0     H27008  12.628   6.610   8.356  0.5628 -0.6878  2.3829
  941MOL0     H27009  12.866   6.738   8.208 -0.4820 -0.6958 -1.1099
  941MOL0     H27010  12.688   6.763   8.176  1.1847  0.7061  0.0081
  941MOL0     H27011  12.832   6.828   8.444 -1.1562  0.7296  1.8846
  941MOL0     H27012  12.659   6.839   8.410  1.1028 -0.2718 -0.7538
  941MOL0     H27013  12.886   6.979   8.267  0.6490 -1.8455  1.4847
  941MOL0     H27014  12.715   6.998   8.227  1.0813  0.2904 -0.3374
  941MOL0     H27015  12.387   6.093   7.934 -0.7270 -0.2438  0.2391
  941MOL0     H27016  12.157   5.980   7.925  0.4632 -2.1361  2.3266
  941MOL0     H27017  11.694   5.901   7.819 -0.8302 -0.0258 -0.9206
  941MOL0     H27018  11.469   5.830   7.863  1.7426  0.9386 -0.8433
  941MOL0     H27019   9.809   6.136   9.347 -1.7748 -0.6665 -0.3521
  941MOL0     H27020   9.587   6.137   9.297 -0.9218  0.1348  0.4485
  941MOL0     H27021   9.254   6.244   9.139 -5.4916  1.7483  2.2723
  941MOL0     H27022   9.023   6.234   9.106 -0.3839  0.7957 -0.7348
  941MOL0     H27023   8.859   6.418   8.967  2.6038 -0.3878 -2.1552
  941MOL0     H27024   8.719   6.309   8.911 -1.2413 -0.1901 -0.7129
  941MOL0     H27025   8.900   6.502   8.754 -0.5463  1.7400  3.3749
  941MOL0     H27026   8.738   6.518   8.777  0.2911 -0.0179  1.6470
  941MOL0     H27027   8.873   6.319   8.605  1.0751  2.2386  0.6365
  941MOL0     H27028   8.771   6.450   8.546 -0.2246 -1.6111  0.5939
  941MOL0     H27029   8.671   6.234   8.530  2.4064 -3.0746  1.3101
  941MOL0     H27030   8.715   6.195   8.695  0.9720  0.2731  0.5604
  941MOL0     H27031   8.354   6.432   8.740 -0.2866 -0.7665 -2.4859
  941MOL0     H27032   9.055   6.242   8.685 -1.6665 -1.1492  1.9018
  941MOL0     H27033   9.356   6.318   8.631  1.0526 -0.5132 -1.6919
  941MOL0     H27034   9.403   6.153   8.680 -0.7618  1.4097  2.0463
  941MOL0     H27035   9.260   6.173   8.578 -1.9624 -2.7896  1.3855
  942MOL0     O27036   6.211   8.057   8.084 -0.4971  0.7720  0.6735
  942MOL0     C27037   6.241   7.944   8.128  0.0129 -0.6188 -0.2977
  942MOL0     O27038   6.251   7.909   8.258  0.0960 -0.7675  0.7844
  942MOL0     C27039   6.222   7.994   8.354 -0.1509  0.5179 -0.0718
  942MOL0     C27040   6.293   7.970   8.472  0.0525 -0.1590  0.2207
  942MOL0     C27041   6.289   8.070   8.567 -0.1672 -1.4733 -0.3590
  942MOL0     C27042   6.189   8.165   8.578  0.2495  0.5607 -0.2899
  942MOL0     O27043   6.190   8.252   8.685  0.0208  0.5270  0.3047
  942MOL0     C27044   6.176   8.398   8.651 -0.0194  0.3385 -0.3235
  942MOL0     C27045   6.288   8.444   8.556 -0.9315  0.2029  0.2048
  942MOL0     C27046   6.429   8.445   8.628 -0.2550 -0.0982  0.3692
  942MOL0     C27047   6.445   8.579   8.714 -0.8645  0.0073 -0.3445
  942MOL0     C27048   6.587   8.609   8.758  1.0862  0.3614 -0.1720
  942MOL0     C27049   6.606   8.705   8.875  0.5324 -0.5579  0.1841
  942MOL0     C27050   6.505   8.817   8.892 -0.1249  0.2149  0.9574
  942MOL0     C27051   6.535   8.919   8.997  0.0966 -0.3007  0.3347
  942MOL0     N27052   6.659   8.990   8.979 -0.4660  0.4088 -0.0902
  942MOL0     C27053   6.707   9.049   8.867  0.4502 -0.1375 -1.1084
  942MOL0     C27054   6.832   9.074   8.897 -0.6474 -0.2264 -0.2183
  942MOL0     C27055   6.928   9.143   8.803 -0.1284 -0.6138  0.3948
  942MOL0     C27056   7.049   9.196   8.881 -0.4802 -0.4270 -0.3873
  942MOL0     C27057   7.158   9.090   8.890  0.1379  1.2967 -0.3773
  942MOL0     C27058   7.273   9.159   8.959  0.0214  0.2988  0.3749
  942MOL0     O27059   7.371   9.065   8.986 -0.9749 -0.1352 -0.4249
  942MOL0     C27060   7.490   9.109   9.035  0.5710 -0.5862 -0.1985
  942MOL0     C27061   7.531   9.233   9.057 -0.7885 -0.2708 -0.4119
  942MOL0     C27062   7.654   9.255   9.102 -0.9859  0.5720  0.0239
  942MOL0     C27063   7.745   9.146   9.124  0.0012  0.3544  0.3701
  942MOL0     C27064   7.877   9.160   9.175 -0.5772  0.8344 -0.0472
  942MOL0     O27065   7.900   9.252   9.270  1.6085 -0.0177 -0.1767
  942MOL0     C27066   8.030   9.285   9.282  0.4978 -0.9463  0.3795
  942MOL0     C27067   8.116   9.217   9.371  0.0591 -0.4576  0.0807
  942MOL0     C27068   8.253   9.246   9.366  0.2873  1.6384  0.0290
  942MOL0     C27069   8.301   9.363   9.307 -0.6666 -0.0614 -0.2184
  942MOL0     O27070   8.440   9.383   9.308  0.7247 -0.2416 -0.2142
  942MOL0     C27071   8.491   9.512   9.282  0.0290 -0.4301  0.4375
  942MOL0     C27072   8.630   9.510   9.337 -0.3279 -0.1884  0.2611
  942MOL0     C27073   8.706   9.646   9.339  1.8024 -0.3297 -0.8090
  942MOL0     C27074   8.836   9.633   9.422 -0.4237  0.1905  0.8335
  942MOL0     C27075   8.909   9.765   9.408  0.3079  0.5108 -0.2104
  942MOL0     C27076   9.018   9.775   9.524 -0.5546  0.9433  0.3422
  942MOL0     C27077   9.121   9.887   9.489 -0.9578  0.7945 -0.6112
  942MOL0     C27078   9.116  10.015   9.573  0.3563 -0.6963  0.1047
  942MOL0    Cl27079   8.960  10.102   9.552  0.4067  0.3496 -0.2430
  942MOL0     C27080   8.213   9.441   9.229 -0.3758 -0.6719 -0.1150
  942MOL0     C27081   8.080   9.403   9.217 -0.2656 -0.5399 -0.4375
  942MOL0     O27082   7.964   9.099   9.113 -0.3951 -0.4576 -0.2924
  942MOL0     C27083   7.696   9.015   9.098 -0.2188 -1.3374  0.3726
  942MOL0     C27084   7.567   8.997   9.052  1.1305  0.3853  0.1797
  942MOL0     N27085   6.862   9.035   9.030  0.3847  0.7336 -0.2534
  942MOL0     N27086   6.759   8.982   9.076  0.5972  0.9841  0.4943
  942MOL0     C27087   6.103   8.165   8.466 -0.0643  0.0079 -0.3742
  942MOL0     C27088   6.121   8.091   8.349 -0.4596 -0.3271 -0.7596
  942MOL0     C27089   6.272   7.840   8.040 -0.1460  0.0748  0.3338
  942MOL0     C27090   6.347   7.870   7.922  0.5475  0.1828  0.8214
  942MOL0     C27091   6.374   7.780   7.823  0.1397  0.3860  0.3205
  942MOL0     C27092   6.333   7.647   7.841  0.1429 -0.2455 -0.4783
  942MOL0     O27093   6.346   7.555   7.738 -0.0894 -0.0612 -0.2205
  942MOL0     C27094   6.298   7.419   7.745 -0.2403  0.7028  0.3502
  942MOL0     C27095   6.295   7.353   7.600  0.0246 -0.3907 -0.0613
  942MOL0     C27096   6.427   7.346   7.521 -0.7955  0.4550 -0.2763
  942MOL0     C27097   6.426   7.233   7.409  0.8463  0.7490  1.0046
  942MOL0     C27098   6.556   7.202   7.370 -0.2904  0.4744 -0.2841
  942MOL0     C27099   6.667   7.167   7.335  0.0416  0.1993  0.9196
  942MOL0     C27100   6.265   7.612   7.963 -0.0703  0.0084 -0.3153
  942MOL0     C27101   6.228   7.709   8.062  0.0857  0.8662  0.6241
  942MOL0     C27102   6.147   7.655   8.178  0.0651 -0.9707 -0.0422
  942MOL0     H27103   6.368   7.892   8.480  0.6430  0.3004 -0.7137
  942MOL0     H27104   6.360   8.056   8.647 -1.0460  2.2861  1.3080
  942MOL0     H27105   6.079   8.428   8.609  0.7108  0.5052 -1.9677
  942MOL0     H27106   6.186   8.450   8.746  0.5877 -2.1436  1.0658
  942MOL0     H27107   6.263   8.535   8.501  2.0270  0.3240 -1.1009
  942MOL0     H27108   6.308   8.363   8.485  1.9344  0.4295  0.6320
  942MOL0     H27109   6.505   8.452   8.549 -0.0554 -2.0281  0.3392
  942MOL0     H27110   6.446   8.351   8.681 -0.5545  0.3798  1.3416
  942MOL0     H27111   6.411   8.655   8.643  0.0595  0.8080  0.0443
  942MOL0     H27112   6.380   8.568   8.802 -0.2705 -1.7838 -0.0898
  942MOL0     H27113   6.633   8.513   8.781  0.2710  0.2954  1.2995
  942MOL0     H27114   6.644   8.657   8.678 -0.0397  0.9408 -0.6373
  942MOL0     H27115   6.608   8.651   8.970  0.2363  0.3916  0.7433
  942MOL0     H27116   6.711   8.737   8.874 -0.0362  1.4768 -1.5460
  942MOL0     H27117   6.409   8.769   8.909  0.9879 -3.3239 -1.5446
  942MOL0     H27118   6.495   8.883   8.805 -2.4028 -1.7792 -0.4155
  942MOL0     H27119   6.460   8.999   8.998 -0.2826 -0.6175 -1.0964
  942MOL0     H27120   6.527   8.865   9.092 -0.1530 -1.8817 -0.5506
  942MOL0     H27121   6.643   9.073   8.782 -1.6523  1.5222  0.7925
  942MOL0     H27122   6.962   9.072   8.728  0.4675  1.3404 -1.2565
  942MOL0     H27123   6.887   9.230   8.751  3.1268  1.0372  0.3321
  942MOL0     H27124   7.095   9.278   8.825 -0.8625  1.4624  1.9086
  942MOL0     H27125   7.030   9.221   8.985 -1.7315 -1.6901 -0.2795
  942MOL0     H27126   7.196   9.055   8.794  0.8793  0.8741  0.0673
  942MOL0     H27127   7.120   9.003   8.944 -1.4519 -0.0242 -3.4005
  942MOL0     H27128   7.244   9.214   9.049  0.4317 -0.4622  0.9895
  942MOL0     H27129   7.315   9.222   8.880  1.6140  1.2065  1.8727
  942MOL0     H27130   7.467   9.320   9.041  0.0177  0.4904  0.3471
  942MOL0     H27131   7.705   9.350   9.115  3.2762 -1.4466 -0.1097
  942MOL0     H27132   8.080   9.136   9.433 -1.6671 -0.4811 -0.8882
  942MOL0     H27133   8.317   9.171   9.410  0.3055  1.2445 -0.6549
  942MOL0     H27134   8.501   9.533   9.175  1.3880  4.4836  1.2525
  942MOL0     H27135   8.438   9.599   9.321 -0.6955  0.0116 -1.4015
  942MOL0     H27136   8.634   9.479   9.441  0.4410 -2.0957 -0.2917
  942MOL0     H27137   8.690   9.444   9.274  0.0107  1.0099 -0.7348
  942MOL0     H27138   8.717   9.680   9.236  1.6746  2.6205  0.0593
  942MOL0     H27139   8.645   9.725   9.384  2.7551  0.6505 -1.1851
  942MOL0     H27140   8.896   9.551   9.382 -0.5450  1.1570 -1.5047
  942MOL0     H27141   8.823   9.622   9.530  2.0544  1.4113  1.3456
  942MOL0     H27142   8.832   9.839   9.429 -2.6777 -2.9766  2.4239
  942MOL0     H27143   8.950   9.775   9.307  0.8126 -0.3926 -0.1028
  942MOL0     H27144   8.970   9.794   9.620 -0.6562  0.5818  0.3656
  942MOL0     H27145   9.065   9.677   9.536 -1.4080  0.4404 -0.2685
  942MOL0     H27146   9.098   9.921   9.388  2.9179 -0.6244 -2.1581
  942MOL0     H27147   9.219   9.838   9.490 -0.8111  1.0253 -2.1754
  942MOL0     H27148   9.122   9.986   9.678 -0.5740  1.1874  0.7438
  942MOL0     H27149   9.209  10.068   9.550  0.2485  2.1530  4.8009
  942MOL0     H27150   8.240   9.535   9.182 -4.9532  0.3755 -1.2158
  942MOL0     H27151   8.009   9.465   9.163 -0.9763 -1.7813 -0.9925
  942MOL0     H27152   7.754   8.925   9.113  1.9930 -0.3564 -1.6659
  942MOL0     H27153   7.520   8.899   9.051 -0.8044  1.2098  2.0660
  942MOL0     H27154   6.015   8.229   8.466  0.7189  1.1296  1.0601
  942MOL0     H27155   6.067   8.103   8.256 -1.9893  0.0628  0.1564
  942MOL0     H27156   6.368   7.971   7.887  1.4860  0.4888  2.1712
  942MOL0     H27157   6.424   7.816   7.734  1.4783  0.9200  1.2509
  942MOL0     H27158   6.203   7.418   7.799 -0.0091  0.4325  0.7611
  942MOL0     H27159   6.365   7.366   7.813  3.1543  0.0915 -3.1184
  942MOL0     H27160   6.219   7.408   7.543  0.3646  1.8401  1.4993
  942MOL0     H27161   6.255   7.253   7.614 -1.4399  0.1763  0.0462
  942MOL0     H27162   6.505   7.328   7.595 -0.4739 -0.4430 -0.8215
  942MOL0     H27163   6.447   7.441   7.470 -1.8729 -0.3944 -2.4436
  942MOL0     H27164   6.371   7.150   7.454 -1.5155  1.6628 -0.0761
  942MOL0     H27165   6.380   7.263   7.315  1.1100 -0.6127  0.4111
  942MOL0     H27166   6.764   7.125   7.317  0.6861  1.5906  0.9838
  942MOL0     H27167   6.245   7.509   7.992  0.5982  0.4646  2.0470
  942MOL0     H27168   6.080   7.572   8.153  0.7471 -0.9834 -1.9607
  942MOL0     H27169   6.222   7.630   8.254  1.8487 -1.3781 -1.8491
  942MOL0     H27170   6.071   7.725   8.214 -0.5131 -0.4342 -2.1786
  943MOL0     O27171   8.671  10.998   7.970  0.5577 -0.1868 -0.4539
  943MOL0     C27172   8.676  11.093   8.048 -0.5292  0.3898  0.0204
  943MOL0     O27173   8.570  11.143   8.120 -0.2932 -0.0344 -0.2098
  943MOL0     C27174   8.445  11.126   8.077  0.0617  0.3918 -0.6923
  943MOL0     C27175   8.379  11.007   8.108 -0.9854 -0.6814 -0.2023
  943MOL0     C27176   8.256  10.981   8.057  0.5859 -0.2146  0.9829
  943MOL0     C27177   8.191  11.067   7.967  0.3808 -0.1718 -0.2178
  943MOL0     O27178   8.069  11.035   7.921 -0.6715  0.4087 -0.4674
  943MOL0     C27179   8.035  11.057   7.786 -0.4518  0.5478  0.5990
  943MOL0     C27180   7.923  10.964   7.738  0.6985 -0.4834 -0.8114
  943MOL0     C27181   7.909  10.976   7.595 -0.1127  0.7783 -0.0309
  943MOL0     C27182   7.854  11.097   7.521 -0.3417  0.0551 -0.8934
  943MOL0     C27183   7.722  11.156   7.580 -0.0987 -0.0950 -0.1932
  943MOL0     C27184   7.676  11.273   7.491  0.2897 -0.0027  1.4098
  943MOL0     C27185   7.603  11.220   7.368 -0.1878 -0.4824 -0.6318
  943MOL0     C27186   7.457  11.239   7.386 -0.2090 -0.1830 -0.1370
  943MOL0     N27187   7.380  11.161   7.290 -0.1426 -0.3128 -0.1608
  943MOL0     C27188   7.252  11.191   7.266 -0.2866 -0.9558 -0.5154
  943MOL0     C27189   7.198  11.077   7.222  0.6310  0.6421 -0.1702
  943MOL0     C27190   7.051  11.064   7.171 -0.7537  0.0298  0.1235
  943MOL0     C27191   6.938  11.114   7.269 -0.7618  0.1133 -0.4029
  943MOL0     C27192   6.801  11.043   7.269 -0.2918 -0.4607 -0.2178
  943MOL0     C27193   6.726  11.078   7.139 -0.4537  0.3186 -0.2552
  943MOL0     O27194   6.586  11.089   7.165  0.4433 -0.4646 -0.3110
  943MOL0     C27195   6.499  10.984   7.169 -0.5925  0.7658 -0.5974
  943MOL0     C27196   6.370  11.011   7.210 -0.8904  0.2982  0.1228
  943MOL0     C27197   6.285  10.911   7.235 -0.1118  0.6297  0.4062
  943MOL0     C27198   6.308  10.777   7.199 -0.9227  0.3453  0.2944
  943MOL0     C27199   6.201  10.676   7.215  0.6103  0.2031  0.5506
  943MOL0     O27200   6.104  10.680   7.117 -0.2679  0.7961  0.0837
  943MOL0     C27201   5.988  10.612   7.139 -0.1706  0.1701 -0.0861
  943MOL0     C27202   5.930  10.555   7.024  0.3283 -0.4216 -0.0246
  943MOL0     C27203   5.824  10.455   7.026 -0.3451 -0.5929 -0.2569
  943MOL0     C27204   5.778  10.427   7.154  0.7423  0.5148  0.6209
  943MOL0     O27205   5.672  10.353   7.195  0.6155  0.3908  0.2743
  943MOL0     C27206   5.613  10.278   7.084  0.0901 -0.4498 -0.4167
  943MOL0     C27207   5.508  10.173   7.146 -0.5999 -0.5986 -0.2672
  943MOL0     C27208   5.451  10.104   7.028 -0.2278  0.0119 -0.3191
  943MOL0     C27209   5.389   9.979   7.084  0.0537 -0.4575 -0.5335
  943MOL0     C27210   5.316   9.887   6.979 -0.7870  1.3409 -0.0815
  943MOL0     C27211   5.322   9.727   7.009  0.1193  0.4891 -1.6923
  943MOL0     C27212   5.258   9.654   6.891 -0.5571  0.0999 -0.7911
  943MOL0     C27213   5.100   9.664   6.875 -0.2924  0.6425  0.6806
  943MOL0    Cl27214   5.015   9.570   6.998  0.5638 -0.1167  0.0113
  943MOL0     C27215   5.825  10.494   7.260 -0.4237  0.7102 -0.3922
  943MOL0     C27216   5.929  10.583   7.261 -0.1968 -0.1481 -0.2617
  943MOL0     O27217   6.216  10.587   7.294  0.8955  0.2455 -0.2532
  943MOL0     C27218   6.439  10.744   7.154  0.9731  0.9913 -0.9535
  943MOL0     C27219   6.536  10.849   7.134  0.6805  0.1674  0.3126
  943MOL0     N27220   7.290  10.978   7.216 -0.2617  0.0002 -0.2758
  943MOL0     N27221   7.393  11.025   7.274  0.1799  0.1644  0.5659
  943MOL0     C27222   8.253  11.185   7.929  0.3699 -0.5897 -0.2316
  943MOL0     C27223   8.380  11.215   7.991  0.5154 -0.2387  0.2410
  943MOL0     C27224   8.801  11.180   8.064 -0.5198 -0.1074  0.0767
  943MOL0     C27225   8.790  11.303   8.137 -0.7835 -0.1011  0.4315
  943MOL0     C27226   8.900  11.393   8.141 -0.2836  0.4962 -0.8327
  943MOL0     C27227   9.020  11.369   8.066  0.1652  0.5558  0.2246
  943MOL0     O27228   9.133  11.443   8.061 -0.5350 -1.1155  0.1071
  943MOL0     C27229   9.145  11.561   8.142  0.9090  0.5940 -0.8346
  943MOL0     C27230   9.236  11.525   8.261 -0.5447 -0.3113  0.2594
  943MOL0     C27231   9.392  11.544   8.236  0.1231 -0.2715  0.4285
  943MOL0     C27232   9.426  11.689   8.188 -0.1064 -0.2043  0.5003
  943MOL0     C27233   9.408  11.783   8.293 -0.5583 -1.0152 -0.3173
  943MOL0     C27234   9.404  11.866   8.387  0.7875 -0.7033 -0.1548
  943MOL0     C27235   9.018  11.256   7.980 -0.6246  0.3769 -0.1465
  943MOL0     C27236   8.913  11.155   7.988 -1.2299  0.2727 -0.4388
  943MOL0     C27237   8.934  11.026   7.901 -0.3034 -0.5920  0.1683
  943MOL0     H27238   8.430  10.937   8.174 -0.9805  0.8105  1.4440
  943MOL0     H27239   8.205  10.889   8.083 -1.5749  0.9066  0.9843
  943MOL0     H27240   8.025  11.165   7.773  4.5199  1.1620 -0.1681
  943MOL0     H27241   8.120  11.028   7.724  1.0887  1.7854  2.0257
  943MOL0     H27242   7.824  10.974   7.781 -0.4010 -2.3858 -2.7050
  943MOL0     H27243   7.958  10.863   7.763  1.7403  0.2775  0.9788
  943MOL0     H27244   7.850  10.890   7.563 -0.9736  1.2189  0.3121
  943MOL0     H27245   8.009  10.950   7.560  0.1825 -1.0037  1.9464
  943MOL0     H27246   7.926  11.176   7.542  0.9693 -1.0112 -1.2030
  943MOL0     H27247   7.868  11.081   7.413  2.8163 -0.7525 -0.4632
  943MOL0     H27248   7.646  11.078   7.594 -1.1916  1.3108  2.3203
  943MOL0     H27249   7.733  11.213   7.673 -0.8021  0.6366 -0.5445
  943MOL0     H27250   7.610  11.333   7.556  1.9526  1.1514  2.1146
  943MOL0     H27251   7.762  11.329   7.453  1.1291 -3.2383 -2.0355
  943MOL0     H27252   7.634  11.120   7.335  1.1565 -0.6558  1.0099
  943MOL0     H27253   7.630  11.292   7.291 -1.0728  1.6501  0.9431
  943MOL0     H27254   7.437  11.192   7.483 -2.0262  1.1731  0.2054
  943MOL0     H27255   7.419  11.342   7.388 -2.0005 -0.7759 -1.2510
  943MOL0     H27256   7.213  11.290   7.288  0.1819 -1.0981  1.0799
  943MOL0     H27257   7.045  11.110   7.072 -1.9875  1.3658  0.7877
  943MOL0     H27258   7.024  10.960   7.148  0.6254 -0.1186 -0.9607
  943MOL0     H27259   6.994  11.113   7.363 -0.2301  2.5905 -0.6312
  943MOL0     H27260   6.936  11.221   7.246  1.3763  1.4885  4.4270
  943MOL0     H27261   6.743  11.069   7.358 -0.8669  2.0614 -1.2442
  943MOL0     H27262   6.820  10.935   7.267 -0.7392 -0.5570  0.3549
  943MOL0     H27263   6.744  11.017   7.050 -2.3547  0.4534 -0.7774
  943MOL0     H27264   6.756  11.179   7.110 -0.7389 -0.5958 -4.3777
  943MOL0     H27265   6.348  11.116   7.222 -0.4343  1.1282 -4.4902
  943MOL0     H27266   6.185  10.937   7.267 -0.0319  3.2510 -1.1762
  943MOL0     H27267   5.974  10.597   6.934 -1.8395  1.4311 -0.3068
  943MOL0     H27268   5.800  10.402   6.934  0.9931 -0.4339 -0.7192
  943MOL0     H27269   5.555  10.349   7.024  3.4655  0.9711 -2.2589
  943MOL0     H27270   5.685  10.223   7.022  0.4647 -0.2557 -0.1580
  943MOL0     H27271   5.565  10.104   7.209 -0.6527 -1.2328 -0.8942
  943MOL0     H27272   5.422  10.215   7.199 -2.3005 -1.2451 -2.3633
  943MOL0     H27273   5.376  10.155   6.967  0.7778  1.2197 -0.5938
  943MOL0     H27274   5.529  10.060   6.964 -0.0930 -1.1547  0.6126
  943MOL0     H27275   5.317  10.021   7.154  0.0754  1.6073 -1.6756
  943MOL0     H27276   5.464   9.912   7.128 -0.5960 -1.8044 -1.4201
  943MOL0     H27277   5.354   9.916   6.881 -0.7405  1.7207  0.0469
  943MOL0     H27278   5.212   9.916   6.967 -0.5269  1.6844 -1.8276
  943MOL0     H27279   5.428   9.700   7.004  0.6251  1.5736  1.4147
  943MOL0     H27280   5.287   9.708   7.110  1.7455  0.4212 -1.1161
  943MOL0     H27281   5.284   9.548   6.887 -1.8483 -0.4780  2.6283
  943MOL0     H27282   5.306   9.710   6.810  1.1772 -0.7872 -0.4162
  943MOL0     H27283   5.063   9.767   6.877 -0.5909  0.8830 -4.5333
  943MOL0     H27284   5.065   9.623   6.780  0.3381  1.2143  0.1940
  943MOL0     H27285   5.762  10.487   7.348 -3.2900 -0.7087 -2.4006
  943MOL0     H27286   5.961  10.636   7.350  2.3400  1.8892 -2.2407
  943MOL0     H27287   6.457  10.640   7.130  1.0162  0.7921 -0.0708
  943MOL0     H27288   6.635  10.828   7.094  0.9574  2.3526 -0.2716
  943MOL0     H27289   8.214  11.260   7.860 -0.0511  0.0351  0.6569
  943MOL0     H27290   8.415  11.315   7.966 -0.9740  1.5213  4.4038
  943MOL0     H27291   8.708  11.333   8.201  0.4709  3.3707  0.5823
  943MOL0     H27292   8.894  11.472   8.215  0.9844 -2.3696  2.6220
  943MOL0     H27293   9.053  11.602   8.185  0.6376  0.7531 -1.5550
  943MOL0     H27294   9.188  11.640   8.080  0.7507  1.1343 -0.2644
  943MOL0     H27295   9.219  11.420   8.289  0.8507 -1.1909 -1.9581
  943MOL0     H27296   9.200  11.595   8.337  0.7354 -0.3928  0.9640
  943MOL0     H27297   9.412  11.469   8.160 -2.5722 -1.3794  0.6850
  943MOL0     H27298   9.441  11.523   8.331  2.5688  2.2766 -0.1265
  943MOL0     H27299   9.531  11.702   8.159  0.2178  0.2889  1.8303
  943MOL0     H27300   9.373  11.712   8.095  1.2461 -1.9398 -0.7758
  943MOL0     H27301   9.397  11.933   8.471  0.6892 -0.5122 -0.3151
  943MOL0     H27302   9.104  11.238   7.917  2.3191  2.6943  2.8241
  943MOL0     H27303   8.897  10.935   7.948 -0.4516 -1.3247 -1.3083
  943MOL0     H27304   8.889  11.037   7.802 -1.1851 -3.2546  0.1983
  943MOL0     H27305   9.036  10.994   7.877 -1.2894 -2.9817 -1.2502
  944MOL0     O27306   8.044  11.330  10.876 -0.3545 -0.1827  0.1684
  944MOL0     C27307   7.938  11.371  10.826 -0.4045 -0.5619  0.5181
  944MOL0     O27308   7.887  11.495  10.849 -0.0429 -0.4777 -0.4004
  944MOL0     C27309   7.959  11.576  10.932 -0.6288  0.0784 -0.3698
  944MOL0     C27310   8.065  11.662  10.890 -0.9553 -0.7790 -0.2463
  944MOL0     C27311   8.142  11.738  10.976  0.8300  0.2580 -0.0887
  944MOL0     C27312   8.116  11.732  11.115 -0.2834  0.1788  0.6026
  944MOL0     O27313   8.193  11.796  11.206 -0.5916  0.1069 -0.8591
  944MOL0     C27314   8.133  11.878  11.308 -0.0349 -1.4013  0.0708
  944MOL0     C27315   8.076  12.012  11.266  0.1852  0.5428  0.3778
  944MOL0     C27316   8.173  12.106  11.199 -0.3355  0.6416  0.7529
  944MOL0     C27317   8.110  12.243  11.172 -0.0306 -0.3465  0.2891
  944MOL0     C27318   8.198  12.337  11.094 -0.2750 -0.3813 -0.1787
  944MOL0     C27319   8.155  12.478  11.128  0.3193 -1.1296  0.1605
  944MOL0     C27320   8.023  12.524  11.057  0.3851 -0.0254 -0.2025
  944MOL0     C27321   8.037  12.541  10.905 -0.2761 -0.4067  0.2078
  944MOL0     N27322   8.121  12.653  10.859  0.5697 -0.5749  0.4518
  944MOL0     C27323   8.076  12.761  10.794  0.9557  0.1797  0.5415
  944MOL0     C27324   8.180  12.817  10.735 -0.2078 -0.1930 -0.7365
  944MOL0     C27325   8.176  12.947  10.650  1.1071  0.0130  0.9007
  944MOL0     C27326   8.174  12.913  10.497 -1.0498 -0.3914 -0.4224
  944MOL0     C27327   8.305  12.848  10.446  0.2151 -0.0657 -0.9598
  944MOL0     C27328   8.434  12.931  10.476 -0.2383 -0.0207 -0.5082
  944MOL0     O27329   8.431  13.072  10.452  0.9859 -0.3961  0.2074
  944MOL0     C27330   8.535  13.166  10.481  0.2353  0.3505  0.5976
  944MOL0     C27331   8.653  13.135  10.524  0.0397  0.2672  0.9062
  944MOL0     C27332   8.751  13.233  10.551 -0.6873  0.6102 -0.2265
  944MOL0     C27333   8.728  13.368  10.533  0.1483 -0.0175 -0.1167
  944MOL0     C27334   8.827  13.474  10.561 -0.3193  0.4793  0.5707
  944MOL0     O27335   8.773  13.600  10.568  0.3872 -0.2970  0.4190
  944MOL0     C27336   8.857  13.707  10.577  0.3984  1.5295 -0.0771
  944MOL0     C27337   8.967  13.720  10.491  0.3499  0.1572 -0.1066
  944MOL0     C27338   9.048  13.836  10.488  0.1821  0.8012  0.7132
  944MOL0     C27339   9.028  13.941  10.576  0.0499  0.5869 -0.2211
  944MOL0     O27340   9.081  14.067  10.568 -0.2869 -0.2070 -0.4141
  944MOL0     C27341   9.185  14.100  10.479 -0.9621  0.6025 -1.0474
  944MOL0     C27342   9.197  14.240  10.446  0.0095  0.3454 -0.1195
  944MOL0     C27343   9.234  14.332  10.563  0.6410  0.2792 -0.1318
  944MOL0     C27344   9.265  14.479  10.526 -0.7834  0.3162  0.2035
  944MOL0     C27345   9.249  14.565  10.655 -0.1972  0.7595 -0.3140
  944MOL0     C27346   9.218  14.712  10.623  0.1774 -0.0893 -0.3760
  944MOL0     C27347   9.181  14.787  10.754 -0.7772 -0.4629 -0.4836
  944MOL0     C27348   9.177  14.936  10.718 -0.4440 -0.9277 -0.9421
  944MOL0    Cl27349   9.098  15.026  10.855  0.4499 -0.6386 -0.2563
  944MOL0     C27350   8.912  13.926  10.661 -0.2297  0.2347 -0.2271
  944MOL0     C27351   8.835  13.809  10.664 -0.2262  0.3156  0.4429
  944MOL0     O27352   8.944  13.444  10.569  0.3681  0.4979 -0.4258
  944MOL0     C27353   8.596  13.401  10.480 -0.6868  0.0864 -0.5073
  944MOL0     C27354   8.510  13.301  10.461  0.3774  0.1991  0.1757
  944MOL0     N27355   8.297  12.751  10.780 -0.0177 -0.5156  1.0703
  944MOL0     N27356   8.256  12.654  10.847  0.5695  0.0943 -1.0405
  944MOL0     C27357   8.014  11.645  11.166 -0.1014  0.2381  0.2245
  944MOL0     C27358   7.930  11.578  11.072 -0.4706  0.2666 -0.8466
  944MOL0     C27359   7.873  11.278  10.737  0.8327  0.1002 -0.0723
  944MOL0     C27360   7.931  11.245  10.612  1.1975 -0.7711 -0.1420
  944MOL0     C27361   7.855  11.168  10.523  0.3908  0.6432  0.3087
  944MOL0     C27362   7.731  11.111  10.559 -1.6681  0.4493  0.0786
  944MOL0     O27363   7.661  11.032  10.471 -0.4951 -0.1841  1.2984
  944MOL0     C27364   7.539  10.971  10.510  0.2795 -0.3202  0.9225
  944MOL0     C27365   7.485  10.884  10.391  0.5113 -0.4012 -0.3479
  944MOL0     C27366   7.358  10.807  10.432 -0.3309 -0.6883  0.3970
  944MOL0     C27367   7.296  10.755  10.301 -0.5275  0.5363 -0.3529
  944MOL0     C27368   7.165  10.686  10.307 -0.4132 -0.8661  0.3300
  944MOL0     C27369   7.060  10.628  10.298 -0.2901 -1.0700 -0.2776
  944MOL0     C27370   7.676  11.146  10.687 -0.5965  0.1022 -0.1915
  944MOL0     C27371   7.740  11.229  10.779  0.1863 -0.4125 -0.5518
  944MOL0     C27372   7.687  11.244  10.924 -0.5578  0.1778  0.9436
  944MOL0     H27373   8.095  11.673  10.786  1.1709  4.5031  0.6036
  944MOL0     H27374   8.223  11.802  10.944  0.8439  0.8795  1.1176
  944MOL0     H27375   8.053  11.829  11.364 -2.8187  1.4117 -1.1477
  944MOL0     H27376   8.221  11.905  11.366  1.7426 -0.6167 -2.7873
  944MOL0     H27377   8.027  12.056  11.354 -3.4352 -1.8020 -0.2204
  944MOL0     H27378   7.995  11.985  11.198  0.7070 -2.3635  0.7932
  944MOL0     H27379   8.193  12.053  11.106 -0.1562  1.1865  0.4728
  944MOL0     H27380   8.264  12.115  11.258 -0.5135  0.3573  1.0726
  944MOL0     H27381   8.019  12.231  11.113  0.2158 -1.0838  0.0422
  944MOL0     H27382   8.075  12.296  11.261  1.2605  2.9886 -1.0560
  944MOL0     H27383   8.297  12.334  11.140 -0.8102  2.3961  1.3870
  944MOL0     H27384   8.198  12.320  10.986  2.0458  0.3020 -0.3313
  944MOL0     H27385   8.128  12.487  11.233 -2.2971 -1.5952 -0.3913
  944MOL0     H27386   8.234  12.553  11.121 -0.2866 -0.4836  0.1604
  944MOL0     H27387   7.982  12.614  11.102  0.0792 -0.3271  0.1315
  944MOL0     H27388   7.936  12.459  11.068  0.6152 -0.3224 -0.0849
  944MOL0     H27389   8.081  12.449  10.866  3.4084  0.3542  2.0739
  944MOL0     H27390   7.936  12.548  10.862  0.2122  0.9888 -0.8089
  944MOL0     H27391   7.973  12.795  10.787  0.9348  0.0933  0.4228
  944MOL0     H27392   8.081  12.998  10.669  1.9304  1.8791  0.3259
  944MOL0     H27393   8.250  13.020  10.685  0.6690  0.5298  0.7734
  944MOL0     H27394   8.089  12.848  10.474  1.3717 -2.8408 -3.2526
  944MOL0     H27395   8.168  13.008  10.444  0.4131  0.0458  0.1355
  944MOL0     H27396   8.295  12.826  10.340 -2.3540 -1.6512 -0.4689
  944MOL0     H27397   8.320  12.756  10.503 -1.8734  1.6333  2.7333
  944MOL0     H27398   8.518  12.884  10.422 -0.9291  0.0716 -1.6890
  944MOL0     H27399   8.444  12.914  10.584 -1.3996 -1.8136 -0.6441
  944MOL0     H27400   8.692  13.035  10.539  0.5843  0.6217  1.9072
  944MOL0     H27401   8.855  13.214  10.576  0.6523  4.4691 -2.0114
  944MOL0     H27402   8.993  13.643  10.420  3.8736  2.6336 -1.8307
  944MOL0     H27403   9.128  13.827  10.416 -1.3593  0.0185 -1.0123
  944MOL0     H27404   9.283  14.066  10.513 -1.8039  0.8765  1.9216
  944MOL0     H27405   9.191  14.044  10.385  1.7439 -1.2344  0.0967
  944MOL0     H27406   9.265  14.256  10.362  2.0428 -0.6810  1.2332
  944MOL0     H27407   9.095  14.255  10.411 -0.5968 -1.5981  0.6535
  944MOL0     H27408   9.141  14.333  10.621  2.5219 -0.7155  3.1383
  944MOL0     H27409   9.317  14.303  10.627 -1.2736 -0.6736  2.0761
  944MOL0     H27410   9.197  14.513  10.447  1.6375  2.8702 -0.9830
  944MOL0     H27411   9.369  14.489  10.492  1.3017 -1.3511  5.1404
  944MOL0     H27412   9.341  14.548  10.711 -0.0744 -0.3381 -0.8373
  944MOL0     H27413   9.167  14.525  10.715  0.6247 -0.2907  0.1496
  944MOL0     H27414   9.308  14.757  10.580  1.2024 -1.5550  0.1664
  944MOL0     H27415   9.132  14.721  10.556 -1.0119  0.4080  1.1636
  944MOL0     H27416   9.255  14.775  10.834  1.0972  2.0933 -1.6987
  944MOL0     H27417   9.078  14.763  10.780 -1.0900  0.2640 -1.0230
  944MOL0     H27418   9.275  14.978  10.692 -1.4479  3.0595  0.9162
  944MOL0     H27419   9.105  14.949  10.637 -0.7992 -0.8462 -0.6138
  944MOL0     H27420   8.896  14.011  10.728 -0.3392  1.0010 -1.2108
  944MOL0     H27421   8.742  13.821  10.719 -1.8094 -1.7304 -1.5846
  944MOL0     H27422   8.559  13.500  10.457  0.1586  0.4470 -0.3350
  944MOL0     H27423   8.418  13.324  10.409  1.2476 -2.1277 -2.7108
  944MOL0     H27424   8.010  11.642  11.274 -0.6142  1.0528  0.2434
  944MOL0     H27425   7.843  11.532  11.117  0.6293 -0.7925  0.2727
  944MOL0     H27426   8.028  11.284  10.581  1.7840  1.9277  4.1707
  944MOL0     H27427   7.888  11.143  10.423 -2.9871  1.8489 -1.2754
  944MOL0     H27428   7.465  11.051  10.518  1.3394  0.6803  1.0936
  944MOL0     H27429   7.557  10.913  10.601  4.3201 -2.8566 -1.1912
  944MOL0     H27430   7.563  10.817  10.355  1.9684  0.6106  0.7987
  944MOL0     H27431   7.463  10.948  10.305  0.8146 -0.2510 -0.3171
  944MOL0     H27432   7.284  10.866  10.487 -1.7003 -0.1643 -1.8752
  944MOL0     H27433   7.367  10.724  10.503  0.8188 -0.5461  0.4442
  944MOL0     H27434   7.272  10.842  10.240 -2.3236  1.0559  1.0079
  944MOL0     H27435   7.371  10.690  10.254  1.4961  2.0099  0.6637
  944MOL0     H27436   6.964  10.580  10.297 -1.1440  0.5266  0.6610
  944MOL0     H27437   7.573  11.121  10.710 -0.2839  0.8038  2.2005
  944MOL0     H27438   7.650  11.344  10.945  0.4807  0.4365  1.6327
  944MOL0     H27439   7.603  11.177  10.945 -0.5410  0.2976  1.4091
  944MOL0     H27440   7.770  11.223  10.992  3.5923  1.2989 -3.2214
  945MOL0     O27441   8.978   6.551   7.053  0.2032 -0.0316  0.8515
  945MOL0     C27442   9.067   6.468   7.043 -0.0884 -0.4326 -1.1652
  945MOL0     O27443   9.136   6.424   7.158 -1.0562 -0.2382 -0.2712
  945MOL0     C27444   9.089   6.469   7.282  0.3342  0.3764 -0.1792
  945MOL0     C27445   9.154   6.573   7.344 -0.7600 -0.5473  0.3260
  945MOL0     C27446   9.149   6.606   7.476  0.5423  0.4075 -0.1033
  945MOL0     C27447   9.078   6.519   7.560  0.5166  0.2216 -0.1882
  945MOL0     O27448   9.089   6.542   7.694  0.0182  0.3418 -0.3560
  945MOL0     C27449   9.056   6.434   7.784  0.3418 -0.2226  0.0986
  945MOL0     C27450   9.076   6.489   7.930  0.5545 -0.2707 -1.2454
  945MOL0     C27451   9.017   6.392   8.027 -0.2706  0.2886  0.3899
  945MOL0     C27452   8.980   6.440   8.170  1.4115 -0.2289  0.1344
  945MOL0     C27453   9.085   6.414   8.282  0.2663  0.2195 -0.1828
  945MOL0     C27454   9.224   6.484   8.259 -0.1431  0.7532 -0.3534
  945MOL0     C27455   9.318   6.447   8.373  0.0541  0.0872  0.9925
  945MOL0     C27456   9.455   6.499   8.332  1.1174 -0.0385  0.6859
  945MOL0     N27457   9.568   6.429   8.390  0.6135  0.5060  0.4941
  945MOL0     C27458   9.619   6.447   8.514 -0.1171 -0.4587 -0.6108
  945MOL0     C27459   9.714   6.344   8.525 -0.6558  0.0084 -0.7951
  945MOL0     C27460   9.800   6.312   8.638 -0.0872 -0.3310 -1.2779
  945MOL0     C27461   9.911   6.417   8.664 -0.3619 -0.1386  0.5591
  945MOL0     C27462  10.018   6.369   8.763  1.0574  0.4763 -0.7887
  945MOL0     C27463  10.150   6.353   8.698  0.0101 -0.1187 -0.2679
  945MOL0     O27464  10.150   6.226   8.621 -0.0452 -0.3634 -0.2516
  945MOL0     C27465  10.272   6.176   8.576 -0.4609  0.9207 -0.0570
  945MOL0     C27466  10.393   6.231   8.577  0.3045  0.3142 -1.2368
  945MOL0     C27467  10.508   6.169   8.517  0.4509 -0.0567 -0.2293
  945MOL0     C27468  10.490   6.046   8.444  0.0349 -0.0491 -0.8431
  945MOL0     C27469  10.597   5.986   8.364  0.3715  0.4270 -0.4651
  945MOL0     O27470  10.563   5.866   8.310  0.1830  0.3088  0.1164
  945MOL0     C27471  10.660   5.783   8.279 -0.7475 -0.4232 -0.2251
  945MOL0     C27472  10.738   5.806   8.166 -0.0267  0.6618 -0.4727
  945MOL0     C27473  10.844   5.716   8.124 -0.1825  0.6520  0.7569
  945MOL0     C27474  10.880   5.608   8.203  0.1744 -0.2008  0.1102
  945MOL0     O27475  10.976   5.505   8.174  0.8208 -0.5398  0.3412
  945MOL0     C27476  11.066   5.541   8.073 -0.2424 -0.1282  0.3701
  945MOL0     C27477  11.186   5.430   8.054  0.0504 -0.2855 -0.0785
  945MOL0     C27478  11.197   5.363   7.912  0.1920 -0.3506  0.1274
  945MOL0     C27479  11.225   5.468   7.809 -0.9683 -0.1357  0.2557
  945MOL0     C27480  11.243   5.411   7.670  0.7287 -0.7565  0.0375
  945MOL0     C27481  11.103   5.357   7.621 -0.1893 -0.4307 -0.1738
  945MOL0     C27482  11.086   5.390   7.470  0.2066  0.5793 -0.5311
  945MOL0     C27483  11.050   5.540   7.443  0.2948  0.2934 -0.1890
  945MOL0    Cl27484  10.884   5.571   7.522 -0.0983  0.0023  0.2921
  945MOL0     C27485  10.814   5.600   8.327 -0.0831 -0.5667  0.2873
  945MOL0     C27486  10.705   5.677   8.358  0.4110  0.4516  0.1528
  945MOL0     O27487  10.708   6.037   8.364  0.9709 -0.4558 -0.2123
  945MOL0     C27488  10.364   5.987   8.440  0.3012  0.6240 -0.7943
  945MOL0     C27489  10.260   6.052   8.513  0.1962 -0.7167 -0.2129
  945MOL0     N27490   9.703   6.266   8.416  0.6173  0.6847  0.2241
  945MOL0     N27491   9.617   6.316   8.328  0.4838 -0.2306  0.0215
  945MOL0     C27492   9.002   6.412   7.501 -0.0793 -0.2690 -0.0736
  945MOL0     C27493   9.011   6.391   7.366 -0.3888  0.9397  0.9507
  945MOL0     C27494   9.104   6.428   6.911 -0.4215 -0.4953  0.5813
  945MOL0     C27495   9.239   6.428   6.896 -0.4475  0.6308 -0.3477
  945MOL0     C27496   9.302   6.401   6.773 -0.2501  0.5992  0.9087
  945MOL0     C27497   9.222   6.393   6.655 -0.7347 -0.0820 -1.1692
  945MOL0     O27498   9.276   6.402   6.533  0.0452  1.4287 -0.2908
  945MOL0     C27499   9.220   6.481   6.420 -0.4542  0.0388 -0.7589
  945MOL0     C27500   9.250   6.625   6.441 -0.0215 -0.0096  0.5486
  945MOL0     C27501   9.173   6.711   6.333  0.1874 -0.1609 -0.4199
  945MOL0     C27502   9.258   6.790   6.224 -0.0651  0.4015 -0.7503
  945MOL0     C27503   9.370   6.716   6.168  0.5002  0.6091 -0.3118
  945MOL0     C27504   9.448   6.635   6.112  0.0380  0.3243 -0.8063
  945MOL0     C27505   9.083   6.389   6.671  0.3686  0.2829 -0.0868
  945MOL0     C27506   9.028   6.398   6.798 -0.0409 -1.3998 -0.3284
  945MOL0     C27507   8.879   6.390   6.812  0.5910 -0.0348  0.0415
  945MOL0     H27508   9.210   6.645   7.285  0.4643 -1.4515  0.3537
  945MOL0     H27509   9.205   6.692   7.511  0.6236 -0.2182  1.4011
  945MOL0     H27510   8.956   6.396   7.760 -0.1019  0.8854  0.1574
  945MOL0     H27511   9.132   6.357   7.764 -1.6510 -1.6471 -2.5591
  945MOL0     H27512   9.025   6.585   7.947  1.0939  0.0513 -1.4145
  945MOL0     H27513   9.185   6.499   7.930  0.8052  0.0529  4.1012
  945MOL0     H27514   9.091   6.312   8.030  0.2377  0.7690  0.8210
  945MOL0     H27515   8.923   6.363   7.979 -3.5375  3.3996  4.1208
  945MOL0     H27516   8.963   6.548   8.168  0.7136 -0.3402 -0.2236
  945MOL0     H27517   8.884   6.394   8.194  2.2154 -1.7695  0.5167
  945MOL0     H27518   9.039   6.462   8.369 -0.8883  0.2493 -0.7883
  945MOL0     H27519   9.110   6.310   8.302 -5.7826 -2.0513 -2.1711
  945MOL0     H27520   9.251   6.434   8.165 -0.9026  3.3397 -2.0786
  945MOL0     H27521   9.210   6.592   8.245 -2.2669  0.4252 -1.1676
  945MOL0     H27522   9.318   6.338   8.368 -0.0850 -0.0231 -5.2793
  945MOL0     H27523   9.276   6.483   8.467 -0.9369 -0.4674  0.7812
  945MOL0     H27524   9.460   6.496   8.223 -1.1675  1.7777  0.4571
  945MOL0     H27525   9.463   6.606   8.354 -1.9748  0.5588 -0.6128
  945MOL0     H27526   9.616   6.533   8.581 -0.4270 -0.6334 -0.3993
  945MOL0     H27527   9.739   6.307   8.729  0.2909 -0.3688 -1.0216
  945MOL0     H27528   9.826   6.205   8.633 -3.0928 -1.3096  1.0196
  945MOL0     H27529   9.968   6.417   8.570 -0.6042 -3.2236  0.3379
  945MOL0     H27530   9.875   6.520   8.675 -0.9944 -0.0111 -2.0441
  945MOL0     H27531   9.994   6.274   8.812 -1.5443  1.9336  1.0350
  945MOL0     H27532  10.025   6.451   8.834  0.4097  0.2827 -0.4939
  945MOL0     H27533  10.225   6.353   8.777 -1.5892  0.1058  1.3198
  945MOL0     H27534  10.165   6.429   8.621 -2.9060 -0.5188 -1.3651
  945MOL0     H27535  10.406   6.329   8.623 -1.2069 -1.1947  2.8853
  945MOL0     H27536  10.603   6.221   8.510  0.8195 -0.4851  1.2343
  945MOL0     H27537  10.714   5.881   8.091 -0.9279 -0.1706 -1.0370
  945MOL0     H27538  10.892   5.747   8.032 -0.2684  1.9989  1.1414
  945MOL0     H27539  11.017   5.559   7.977 -1.2397 -2.6005  0.3471
  945MOL0     H27540  11.117   5.636   8.094 -0.2007  0.1272 -0.8606
  945MOL0     H27541  11.281   5.477   8.079 -0.7009  1.6025 -0.6393
  945MOL0     H27542  11.175   5.356   8.133  2.9380  1.2029  1.8788
  945MOL0     H27543  11.272   5.284   7.911 -0.9323 -1.4410  0.0383
  945MOL0     H27544  11.102   5.312   7.896  0.8653 -2.0771  1.3313
  945MOL0     H27545  11.316   5.518   7.844 -1.3921  0.7428  0.1333
  945MOL0     H27546  11.152   5.550   7.810  1.5567  2.2592 -0.4275
  945MOL0     H27547  11.313   5.329   7.652  2.8233  1.2809 -1.7001
  945MOL0     H27548  11.280   5.487   7.601 -0.5568  0.0980  0.2513
  945MOL0     H27549  11.097   5.252   7.649  0.7489  0.0558  2.0696
  945MOL0     H27550  11.027   5.410   7.679  0.2490 -0.0836  0.0988
  945MOL0     H27551  11.009   5.326   7.427  0.5077  0.2798 -0.6220
  945MOL0     H27552  11.185   5.369   7.430  1.0264 -1.1287  2.1174
  945MOL0     H27553  11.126   5.603   7.491  0.3159 -0.0036  0.1726
  945MOL0     H27554  11.041   5.572   7.339 -2.2678 -1.3526 -0.5707
  945MOL0     H27555  10.820   5.522   8.403 -0.0142 -0.7052  0.1417
  945MOL0     H27556  10.650   5.648   8.447  1.6331 -0.1262  0.7413
  945MOL0     H27557  10.341   5.892   8.392 -4.2607  0.0826  1.8594
  945MOL0     H27558  10.162   6.006   8.506  0.5657 -1.5305 -0.2423
  945MOL0     H27559   8.939   6.349   7.563 -4.4311  2.7980 -0.9028
  945MOL0     H27560   8.966   6.299   7.330  3.5004 -0.8323  0.1591
  945MOL0     H27561   9.309   6.439   6.978  0.2912  0.1004 -0.8905
  945MOL0     H27562   9.408   6.413   6.758 -0.5604  1.6555 -0.6379
  945MOL0     H27563   9.113   6.461   6.415 -0.9244  2.2754 -0.5916
  945MOL0     H27564   9.251   6.435   6.326  0.7410  0.1848 -0.4614
  945MOL0     H27565   9.358   6.635   6.433 -0.1861  1.0217 -0.8618
  945MOL0     H27566   9.221   6.664   6.539 -1.7598 -0.5894  0.3136
  945MOL0     H27567   9.104   6.784   6.376 -0.2339 -0.5069 -0.5074
  945MOL0     H27568   9.097   6.648   6.286  0.1896 -1.5458  1.3036
  945MOL0     H27569   9.192   6.830   6.147 -0.1798  1.6529 -0.0303
  945MOL0     H27570   9.300   6.876   6.278  0.4622 -0.2616 -0.0797
  945MOL0     H27571   9.510   6.564   6.061  0.1412  0.1320 -0.4123
  945MOL0     H27572   9.028   6.381   6.578  2.4723  2.8063 -1.7112
  945MOL0     H27573   8.831   6.487   6.820  1.9000  0.5110  2.1980
  945MOL0     H27574   8.845   6.341   6.721  2.5917 -1.9041  0.2154
  945MOL0     H27575   8.857   6.330   6.901  0.1632  2.9042  2.0714
  946MOL0     O27576   1.504   0.819   1.723  0.3793  0.5419  0.2593
  946MOL0     C27577   1.501   0.714   1.654  0.7579  0.0395 -0.4112
  946MOL0     O27578   1.605   0.626   1.631 -0.2042  0.2732  0.4882
  946MOL0     C27579   1.725   0.627   1.691 -0.5062 -0.0791  0.2698
  946MOL0     C27580   1.834   0.590   1.611 -0.2177 -0.5915 -0.3854
  946MOL0     C27581   1.965   0.583   1.662 -0.0591  0.1602 -0.0161
  946MOL0     C27582   1.987   0.608   1.799 -0.1511 -0.0680  0.8053
  946MOL0     O27583   2.106   0.575   1.856 -0.9013 -0.3112  0.5509
  946MOL0     C27584   2.190   0.694   1.882 -0.5235  0.5608 -0.4403
  946MOL0     C27585   2.338   0.668   1.845 -0.2491 -1.3313  0.1078
  946MOL0     C27586   2.418   0.802   1.836  0.0667  0.3017  0.2491
  946MOL0     C27587   2.571   0.764   1.848 -0.4243  0.7272 -0.5016
  946MOL0     C27588   2.672   0.883   1.838 -0.1191 -0.7288 -0.1461
  946MOL0     C27589   2.818   0.846   1.823  0.4701  0.9885  0.1240
  946MOL0     C27590   2.858   0.793   1.675  0.1111 -0.7103  0.2399
  946MOL0     C27591   2.909   0.918   1.586  0.5737  0.8222 -0.1992
  946MOL0     N27592   3.052   0.953   1.607  0.4691  0.9450 -0.4124
  946MOL0     C27593   3.162   0.864   1.592  0.6427  0.0711  0.4043
  946MOL0     C27594   3.274   0.927   1.627 -0.2023  0.0344 -0.8913
  946MOL0     C27595   3.404   0.865   1.615 -0.0931  0.3978 -0.5838
  946MOL0     C27596   3.502   0.901   1.723  0.8682  0.6786  0.4908
  946MOL0     C27597   3.607   0.796   1.733  0.6959 -0.2074  0.0051
  946MOL0     C27598   3.702   0.823   1.847 -0.3446 -0.4361  0.7134
  946MOL0     O27599   3.796   0.718   1.870 -0.9446  0.1736  0.3078
  946MOL0     C27600   3.901   0.740   1.957 -0.1167  0.3063 -0.0311
  946MOL0     C27601   3.984   0.850   1.975  0.0059  0.0898  0.4558
  946MOL0     C27602   4.097   0.849   2.064 -1.0324  0.1659 -0.4644
  946MOL0     C27603   4.134   0.732   2.114 -0.3059  0.3713 -0.4544
  946MOL0     C27604   4.253   0.723   2.204 -0.1922 -0.7234 -0.5772
  946MOL0     O27605   4.312   0.846   2.255 -0.5552  0.2311  0.1297
  946MOL0     C27606   4.449   0.866   2.283  1.6454  0.4463  0.6617
  946MOL0     C27607   4.548   0.766   2.298 -0.6227  0.0573  0.5935
  946MOL0     C27608   4.679   0.788   2.328  0.3311 -1.1811 -1.0990
  946MOL0     C27609   4.724   0.923   2.343  0.5613  0.2433  0.8024
  946MOL0     O27610   4.854   0.958   2.362 -0.2722 -0.4042  0.3498
  946MOL0     C27611   4.952   0.865   2.356 -0.4300 -0.0329  0.2974
  946MOL0     C27612   5.099   0.915   2.363 -0.2771 -0.0884 -0.4500
  946MOL0     C27613   5.122   1.000   2.492 -0.1673 -0.1752 -0.1918
  946MOL0     C27614   5.269   1.048   2.503  0.1127  0.5246 -0.0853
  946MOL0     C27615   5.299   1.118   2.637  0.4445 -0.5141 -0.1457
  946MOL0     C27616   5.427   1.189   2.645  0.3478 -0.2730 -0.5277
  946MOL0     C27617   5.442   1.287   2.763 -0.2524 -0.1286 -0.6577
  946MOL0     C27618   5.579   1.356   2.794  0.0085  0.3087  0.4478
  946MOL0    Cl27619   5.701   1.237   2.834 -0.2122 -0.1735  0.0501
  946MOL0     C27620   4.624   1.018   2.346 -0.0205 -0.9203  0.5431
  946MOL0     C27621   4.493   0.992   2.310 -0.1785 -1.3898 -0.6286
  946MOL0     O27622   4.310   0.612   2.203  0.8842 -0.4022  0.4316
  946MOL0     C27623   4.060   0.615   2.087 -0.2101  0.0781  0.4969
  946MOL0     C27624   3.949   0.619   2.008 -0.3665  0.6947  0.1716
  946MOL0     N27625   3.242   1.051   1.678  0.2020 -0.1030 -0.0863
  946MOL0     N27626   3.118   1.068   1.662  0.8874 -0.1135  0.1880
  946MOL0     C27627   1.884   0.655   1.882 -0.2714  0.6775  0.6455
  946MOL0     C27628   1.758   0.665   1.824 -0.4474  0.6481 -0.2971
  946MOL0     C27629   1.374   0.686   1.587  0.7275  0.6314  0.6038
  946MOL0     C27630   1.254   0.746   1.632 -0.7935 -0.1254  0.1736
  946MOL0     C27631   1.130   0.727   1.574  0.8295  0.5213  0.3938
  946MOL0     C27632   1.115   0.636   1.471  0.0441 -0.2126 -0.1630
  946MOL0     O27633   0.994   0.605   1.416  0.8522  0.5763  0.0930
  946MOL0     C27634   0.941   0.691   1.312 -0.2873 -1.1086 -0.4298
  946MOL0     C27635   0.876   0.823   1.366  0.7447 -0.3065 -0.6151
  946MOL0     C27636   0.876   0.931   1.264  0.3890 -0.7050 -0.2507
  946MOL0     C27637   0.796   1.056   1.307 -0.4588 -0.9397 -0.3360
  946MOL0     C27638   0.893   1.149   1.364  0.4456 -0.0379  0.5821
  946MOL0     C27639   0.975   1.231   1.399 -0.4664 -1.4549  1.8404
  946MOL0     C27640   1.230   0.573   1.422  0.4617  0.0325  0.5226
  946MOL0     C27641   1.357   0.596   1.470  0.0868  0.0327  0.3367
  946MOL0     C27642   1.463   0.524   1.399 -0.4461  1.5585 -0.3744
  946MOL0     H27643   1.815   0.581   1.505  0.6722  4.0304 -1.1464
  946MOL0     H27644   2.033   0.542   1.588  0.4158 -0.2128  0.6315
  946MOL0     H27645   2.153   0.784   1.831 -1.3982 -0.1468 -1.1112
  946MOL0     H27646   2.184   0.706   1.990 -3.4055 -1.9112 -0.1637
  946MOL0     H27647   2.348   0.628   1.743  0.4624  0.8498 -0.7429
  946MOL0     H27648   2.367   0.597   1.923  0.1281 -0.4250  0.8006
  946MOL0     H27649   2.389   0.875   1.913 -0.8843  2.3823 -1.9289
  946MOL0     H27650   2.407   0.846   1.736  1.7722 -1.6778 -0.8816
  946MOL0     H27651   2.579   0.718   1.947 -0.1547  1.1024 -0.3480
  946MOL0     H27652   2.604   0.693   1.772 -0.1829 -0.5137  0.7330
  946MOL0     H27653   2.646   0.933   1.744  0.0015  0.2007  0.3031
  946MOL0     H27654   2.653   0.952   1.921  0.2571 -0.7243 -0.0656
  946MOL0     H27655   2.886   0.924   1.857  2.8523 -1.4058  1.2520
  946MOL0     H27656   2.833   0.763   1.893  0.7811 -1.1254 -2.2949
  946MOL0     H27657   2.775   0.737   1.631 -0.9662  0.2188  1.0344
  946MOL0     H27658   2.939   0.721   1.689  0.1612 -0.7747 -0.3590
  946MOL0     H27659   2.897   0.891   1.481  0.7975 -0.9873  0.2053
  946MOL0     H27660   2.828   0.990   1.600  0.0737  0.0276  1.2137
  946MOL0     H27661   3.149   0.760   1.561 -0.0138 -0.6604  2.8562
  946MOL0     H27662   3.403   0.757   1.598  1.0433  0.6578 -2.6154
  946MOL0     H27663   3.459   0.899   1.526  1.4768  1.1694  0.6236
  946MOL0     H27664   3.548   1.000   1.714  1.0187  0.8644  2.7127
  946MOL0     H27665   3.455   0.885   1.821  0.8830 -1.7985  0.1395
  946MOL0     H27666   3.661   0.790   1.638  1.8892  1.0445  0.5825
  946MOL0     H27667   3.553   0.702   1.748 -2.5756  1.5084 -0.0841
  946MOL0     H27668   3.644   0.844   1.937 -3.4168 -0.3897 -1.1402
  946MOL0     H27669   3.758   0.916   1.834  1.4264 -1.2438  2.0969
  946MOL0     H27670   3.964   0.944   1.925 -1.5472  0.8591  2.3838
  946MOL0     H27671   4.140   0.949   2.062  0.7963 -0.5767 -2.3810
  946MOL0     H27672   4.520   0.662   2.297 -1.9717  0.3977 -0.0514
  946MOL0     H27673   4.744   0.702   2.339  1.8359  0.0134 -0.2472
  946MOL0     H27674   4.934   0.804   2.445  0.6093  1.3971  1.5382
  946MOL0     H27675   4.941   0.804   2.266  1.4448  0.8875 -0.6308
  946MOL0     H27676   5.164   0.827   2.368  1.6881  1.3033 -0.3742
  946MOL0     H27677   5.137   0.971   2.277 -0.0571  0.2634 -0.1305
  946MOL0     H27678   5.056   1.088   2.488 -0.4228 -0.3999 -1.5099
  946MOL0     H27679   5.093   0.934   2.574 -5.2541  0.8713 -0.8044
  946MOL0     H27680   5.294   1.115   2.421 -2.4730  0.0530 -1.3504
  946MOL0     H27681   5.332   0.961   2.483  1.6537  2.5578 -6.0108
  946MOL0     H27682   5.304   1.047   2.720  5.2283  0.0806  0.3385
  946MOL0     H27683   5.219   1.191   2.652  0.2842  0.1780 -3.5225
  946MOL0     H27684   5.512   1.120   2.645  2.3801  2.0814  0.3841
  946MOL0     H27685   5.429   1.248   2.553 -1.2263 -1.1382 -1.1548
  946MOL0     H27686   5.410   1.243   2.859  2.6130  0.7458  0.8069
  946MOL0     H27687   5.385   1.377   2.740  0.4972  0.6066  0.2549
  946MOL0     H27688   5.614   1.403   2.702 -1.8596  2.1813  0.5927
  946MOL0     H27689   5.575   1.427   2.878  1.6846  1.1889 -0.1793
  946MOL0     H27690   4.654   1.115   2.384  2.3848 -1.2217 -0.3867
  946MOL0     H27691   4.421   1.072   2.322  1.4216 -0.0520  0.5975
  946MOL0     H27692   4.087   0.519   2.131 -3.1788 -0.4036  1.4964
  946MOL0     H27693   3.890   0.529   1.997 -0.0613  0.6075 -0.8483
  946MOL0     H27694   1.903   0.681   1.986 -0.4317  0.3800  0.7509
  946MOL0     H27695   1.688   0.708   1.895 -3.0857 -2.0558 -1.0460
  946MOL0     H27696   1.264   0.811   1.719  4.3186 -0.9599  0.5186
  946MOL0     H27697   1.041   0.776   1.610  0.5954 -2.1540  3.9467
  946MOL0     H27698   0.880   0.626   1.249 -1.2466  0.3763 -1.0918
  946MOL0     H27699   1.016   0.727   1.242  0.6308 -3.0516 -0.5095
  946MOL0     H27700   0.927   0.870   1.451 -2.2924 -0.4421  1.4842
  946MOL0     H27701   0.772   0.803   1.394  0.9897 -2.8389 -1.2422
  946MOL0     H27702   0.816   0.895   1.180 -0.2085  0.1057 -0.1773
  946MOL0     H27703   0.979   0.951   1.232  1.7837  1.4674  4.6201
  946MOL0     H27704   0.752   1.103   1.219  0.7431  0.7374 -0.0966
  946MOL0     H27705   0.725   1.032   1.387 -0.6621 -0.1044 -0.2537
  946MOL0     H27706   1.039   1.315   1.416  1.9773 -2.3878 -1.6118
  946MOL0     H27707   1.217   0.503   1.341 -1.7395 -1.0020  1.6630
  946MOL0     H27708   1.546   0.595   1.389  1.5704  0.8986  6.4551
  946MOL0     H27709   1.507   0.441   1.455 -1.8212  2.0036  1.4504
  946MOL0     H27710   1.422   0.492   1.303  0.3530  1.0824 -0.5702
  947MOL0     O27711   1.988  10.505   9.681 -0.4824 -1.1739  0.0056
  947MOL0     C27712   1.914  10.600   9.713 -0.0167 -0.8818  0.0544
  947MOL0     O27713   1.897  10.640   9.850  0.0084  0.7390 -0.2297
  947MOL0     C27714   2.001  10.647   9.939  0.5421  0.0922  0.2868
  947MOL0     C27715   2.136  10.627   9.909  0.1058  0.7581 -0.9290
  947MOL0     C27716   2.230  10.654  10.012  0.3742 -0.5764  0.2933
  947MOL0     C27717   2.200  10.714  10.139 -0.3261  0.4237  0.4260
  947MOL0     O27718   2.289  10.737  10.249 -0.1547  0.8494  0.5290
  947MOL0     C27719   2.413  10.677  10.261 -0.8355 -0.0294  0.0586
  947MOL0     C27720   2.420  10.538  10.329  0.3891 -0.7030  1.0351
  947MOL0     C27721   2.467  10.550  10.471  0.7207  0.2877 -0.1949
  947MOL0     C27722   2.618  10.568  10.473 -0.3264  0.1425  0.5266
  947MOL0     C27723   2.670  10.581  10.618  1.1482  0.3823  0.0204
  947MOL0     C27724   2.826  10.569  10.626 -0.0643 -0.9782  0.3500
  947MOL0     C27725   2.888  10.428  10.612 -0.4052  0.5057 -1.1550
  947MOL0     C27726   2.876  10.367  10.751  0.2519 -0.1801 -0.4475
  947MOL0     N27727   2.785  10.246  10.744 -0.1631 -0.0578 -0.4781
  947MOL0     C27728   2.816  10.130  10.805  1.0855 -0.8966  0.4795
  947MOL0     C27729   2.703  10.061  10.794 -0.6923 -0.0165  0.3761
  947MOL0     C27730   2.654   9.941  10.874 -0.0745  0.5163 -0.4486
  947MOL0     C27731   2.516   9.958  10.943  0.2631  0.3964  0.3488
  947MOL0     C27732   2.456   9.830  11.006  0.0829 -0.1931 -0.2575
  947MOL0     C27733   2.561   9.739  11.072  0.9682 -0.9646  0.5024
  947MOL0     O27734   2.506   9.674  11.184 -0.0712  0.5873  0.2681
  947MOL0     C27735   2.436   9.558  11.168  0.2900  1.2754 -1.3189
  947MOL0     C27736   2.392   9.489  11.276  0.1152  0.0686 -1.2176
  947MOL0     C27737   2.334   9.367  11.268  0.5331 -0.0993 -0.4599
  947MOL0     C27738   2.306   9.307  11.153 -0.7387 -0.0226  0.2948
  947MOL0     C27739   2.234   9.176  11.152  0.8480  0.0063 -0.0899
  947MOL0     O27740   2.196   9.121  11.033  0.6661 -0.0663  0.1606
  947MOL0     C27741   2.096   9.024  11.038  0.6269 -0.0259  1.1503
  947MOL0     C27742   1.966   9.040  11.095 -0.1501  0.7409  0.7726
  947MOL0     C27743   1.868   8.938  11.088  0.6041 -0.4674  0.4387
  947MOL0     C27744   1.897   8.815  11.025  0.7812 -0.0019  0.7784
  947MOL0     O27745   1.790   8.720  11.029 -0.6759 -0.4952  1.1966
  947MOL0     C27746   1.822   8.582  11.019 -0.4984  0.8102 -1.4311
  947MOL0     C27747   1.698   8.497  11.000 -0.1492  0.1069  0.1537
  947MOL0     C27748   1.602   8.512  11.124 -0.2009  0.1647  0.1959
  947MOL0     C27749   1.474   8.427  11.098 -0.2337  0.6221  0.5575
  947MOL0     C27750   1.480   8.291  11.020  0.2611 -0.7036  0.1210
  947MOL0     C27751   1.554   8.191  11.115  0.3058  0.9785 -0.1241
  947MOL0     C27752   1.559   8.045  11.068  0.1364  0.1741  0.3016
  947MOL0     C27753   1.612   8.033  10.926 -0.3600  0.5164  0.3395
  947MOL0    Cl27754   1.678   7.873  10.885  0.1712  0.3497 -0.2580
  947MOL0     C27755   2.016   8.806  10.958 -0.5200  0.8805  0.5216
  947MOL0     C27756   2.106   8.914  10.961 -0.6110 -0.1168 -0.5348
  947MOL0     O27757   2.208   9.127  11.261  0.6610  0.8831 -0.7723
  947MOL0     C27758   2.335   9.370  11.030 -0.4365 -0.2619  0.4506
  947MOL0     C27759   2.399   9.498  11.040 -0.6385  0.4562  0.3460
  947MOL0     N27760   2.618  10.125  10.709 -0.8980 -0.1914  0.1802
  947MOL0     N27761   2.667  10.234  10.674  0.6382  1.3301  0.1802
  947MOL0     C27762   2.066  10.731  10.160  0.8321 -0.6035 -0.1789
  947MOL0     C27763   1.965  10.711  10.057  0.1612  0.8993 -0.4093
  947MOL0     C27764   1.815  10.656   9.613  0.2560  0.0538 -0.3285
  947MOL0     C27765   1.746  10.582   9.526  0.2530  0.7746  0.2814
  947MOL0     C27766   1.670  10.643   9.422 -0.3618 -0.1454  0.0810
  947MOL0     C27767   1.636  10.772   9.416  0.5227  0.0105 -0.4889
  947MOL0     O27768   1.557  10.846   9.324  0.3527  0.7799 -0.5039
  947MOL0     C27769   1.487  10.767   9.229 -0.0287  0.7592 -1.2612
  947MOL0     C27770   1.386  10.871   9.175  0.1499 -0.1989 -0.1485
  947MOL0     C27771   1.329  10.820   9.049  0.2470 -0.3275 -0.4820
  947MOL0     C27772   1.230  10.925   8.990  1.0604 -0.0581 -0.6246
  947MOL0     C27773   1.111  10.930   9.069 -0.2710  0.3827 -0.7497
  947MOL0     C27774   1.014  10.934   9.147  0.2497 -0.2407  0.3956
  947MOL0     C27775   1.692  10.846   9.520 -0.7109 -0.2825 -0.6245
  947MOL0     C27776   1.783  10.797   9.615 -0.0605  0.0673 -0.4342
  947MOL0     C27777   1.867  10.890   9.699  0.5573  0.5055 -0.7968
  947MOL0     H27778   2.178  10.584   9.818 -1.1045  2.4173 -2.3372
  947MOL0     H27779   2.332  10.628   9.989  0.8568  1.0839  0.4367
  947MOL0     H27780   2.467  10.679  10.166  0.1024  4.0356  0.4661
  947MOL0     H27781   2.471  10.748  10.322  1.3278 -1.7997  0.1840
  947MOL0     H27782   2.473  10.475  10.258 -2.8387 -0.5068 -1.8028
  947MOL0     H27783   2.319  10.495  10.331 -0.0999  0.4093  1.8377
  947MOL0     H27784   2.444  10.454  10.518  2.4232 -0.5464 -1.0031
  947MOL0     H27785   2.422  10.636  10.522 -0.7812 -0.3822 -0.3452
  947MOL0     H27786   2.656  10.480  10.421 -2.5093 -1.6213  1.7346
  947MOL0     H27787   2.637  10.663  10.423  0.1172  0.0886  0.5931
  947MOL0     H27788   2.629  10.680  10.639  0.8321 -0.1734  2.2275
  947MOL0     H27789   2.632  10.498  10.678  3.2595 -0.3412  0.4245
  947MOL0     H27790   2.866  10.629  10.543 -2.1827 -0.8917 -0.6920
  947MOL0     H27791   2.870  10.613  10.716  0.6287 -1.5358  0.2919
  947MOL0     H27792   2.993  10.425  10.580 -0.7051 -0.1847 -2.1424
  947MOL0     H27793   2.833  10.378  10.532 -2.8636 -1.1542  1.4027
  947MOL0     H27794   2.980  10.337  10.771 -0.7097 -2.3987  1.7554
  947MOL0     H27795   2.846  10.443  10.823 -0.4212 -1.7091  0.9417
  947MOL0     H27796   2.902  10.117  10.870  0.8397  1.2779  1.3420
  947MOL0     H27797   2.648   9.860  10.801  0.2284  3.3157 -3.8689
  947MOL0     H27798   2.727   9.907  10.947 -1.5299  1.0919  1.3542
  947MOL0     H27799   2.536  10.010  11.037 -2.8207 -0.0793  1.3826
  947MOL0     H27800   2.448  10.015  10.879 -0.5742 -1.2790 -0.3274
  947MOL0     H27801   2.397   9.779  10.929  0.5066  0.1452 -0.8165
  947MOL0     H27802   2.380   9.858  11.080  0.2930 -1.4599  0.4552
  947MOL0     H27803   2.651   9.786  11.114 -0.8159  1.5919  1.6585
  947MOL0     H27804   2.599   9.673  10.993 -0.8815 -0.8754 -0.4999
  947MOL0     H27805   2.407   9.529  11.376  1.1834 -3.6175  0.2972
  947MOL0     H27806   2.308   9.328  11.366  0.7846  0.8128 -0.0206
  947MOL0     H27807   1.954   9.128  11.157 -2.9552  1.5302 -0.7011
  947MOL0     H27808   1.767   8.957  11.125  0.6570  4.4627 -1.2107
  947MOL0     H27809   1.886   8.556  10.935  1.8016 -0.3989  0.5817
  947MOL0     H27810   1.866   8.552  11.114 -1.4728  1.3223 -0.7997
  947MOL0     H27811   1.647   8.524  10.907 -1.8211 -2.3827  0.2484
  947MOL0     H27812   1.719   8.390  10.992 -0.9545  0.0806 -4.6717
  947MOL0     H27813   1.649   8.477  11.216  0.6384 -0.2567 -0.3792
  947MOL0     H27814   1.574   8.617  11.138 -1.9025 -0.0359 -1.3934
  947MOL0     H27815   1.415   8.500  11.041  1.6712  0.1339 -2.2248
  947MOL0     H27816   1.419   8.407  11.191  2.0612 -0.3586  1.7866
  947MOL0     H27817   1.524   8.309  10.922  2.0212  1.3397  1.1990
  947MOL0     H27818   1.377   8.255  11.012 -0.9930  1.4193  3.9725
  947MOL0     H27819   1.652   8.231  11.146  0.0970  0.2671  1.5754
  947MOL0     H27820   1.488   8.188  11.202  0.7420  1.6187  0.2338
  947MOL0     H27821   1.456   8.009  11.075 -0.1621  0.8816 -0.2860
  947MOL0     H27822   1.625   7.995  11.140 -0.2178  1.2519  1.4137
  947MOL0     H27823   1.532   8.064  10.859  0.0527 -0.5361 -0.6799
  947MOL0     H27824   1.696   8.102  10.917 -0.0988  0.0537 -1.1730
  947MOL0     H27825   2.033   8.723  10.891 -0.0471  0.4274  1.1933
  947MOL0     H27826   2.198   8.899  10.905 -0.3027  1.5106 -0.5290
  947MOL0     H27827   2.302   9.329  10.936 -0.0288 -0.4003  0.3643
  947MOL0     H27828   2.420   9.542  10.943  0.4082  1.9816  1.2288
  947MOL0     H27829   2.047  10.778  10.256  0.8118  1.1211 -0.9905
  947MOL0     H27830   1.859  10.730  10.061 -0.4948 -2.3218  2.8664
  947MOL0     H27831   1.745  10.475   9.510  0.5268  0.1574  3.6265
  947MOL0     H27832   1.649  10.573   9.342  2.3207 -0.7450 -0.2142
  947MOL0     H27833   1.435  10.681   9.272 -0.5381  1.0147 -1.3588
  947MOL0     H27834   1.556  10.729   9.154  0.3965  1.3217 -1.1584
  947MOL0     H27835   1.440  10.963   9.154 -0.6197  0.1218 -0.7835
  947MOL0     H27836   1.301  10.890   9.242 -0.9923  1.8750 -2.0415
  947MOL0     H27837   1.274  10.727   9.061  0.0748 -0.1244  0.3729
  947MOL0     H27838   1.403  10.813   8.969  0.4643  3.0312 -0.7517
  947MOL0     H27839   1.290  11.017   8.991  1.2420 -0.1400  1.5921
  947MOL0     H27840   1.211  10.906   8.884 -1.8707  2.8386 -0.7607
  947MOL0     H27841   0.933  10.936   9.217  0.2113  0.0959  0.3460
  947MOL0     H27842   1.689  10.954   9.530  1.4307 -0.3022  0.8838
  947MOL0     H27843   1.972  10.861   9.693  1.0982  1.8838  1.1062
  947MOL0     H27844   1.856  10.992   9.663  0.1355  0.4448 -0.8500
  947MOL0     H27845   1.838  10.888   9.804  0.0126 -0.2767 -0.9499
  948MOL0     O27846   4.677   0.698   1.387  0.2275  0.5342 -0.2098
  948MOL0     C27847   4.566   0.741   1.340 -1.1813 -0.3941  0.1132
  948MOL0     O27848   4.449   0.672   1.318 -0.5248  0.7935  0.0226
  948MOL0     C27849   4.426   0.541   1.343 -0.8293  0.1873 -0.1532
  948MOL0     C27850   4.501   0.463   1.440  0.6603 -0.7719 -0.0002
  948MOL0     C27851   4.455   0.327   1.449  0.2358  0.2563  0.1398
  948MOL0     C27852   4.365   0.271   1.358  0.2055 -0.4112 -0.3552
  948MOL0     O27853   4.315   0.140   1.360 -0.0494  0.2390 -0.4165
  948MOL0     C27854   4.360   0.049   1.460  0.5324  0.5461 -0.1696
  948MOL0     C27855   4.305  -0.091   1.450  0.2603  0.9233  0.2441
  948MOL0     C27856   4.389  -0.180   1.362  0.1714 -0.2912  1.1508
  948MOL0     C27857   4.363  -0.330   1.392  0.5007  0.0681  0.1554
  948MOL0     C27858   4.463  -0.422   1.322  0.4592  0.1803  0.3011
  948MOL0     C27859   4.603  -0.409   1.383  0.1435 -0.2690 -0.1617
  948MOL0     C27860   4.599  -0.465   1.524  0.1675  0.7855  0.3944
  948MOL0     C27861   4.739  -0.466   1.583  0.3593 -0.3018 -0.0908
  948MOL0     N27862   4.829  -0.569   1.551 -0.2028  0.0238 -0.1797
  948MOL0     C27863   4.962  -0.554   1.524 -0.5417 -0.2906  0.3419
  948MOL0     C27864   5.024  -0.673   1.548  0.5434  0.0807  0.3010
  948MOL0     C27865   5.167  -0.709   1.520  0.1434  0.6380 -0.7052
  948MOL0     C27866   5.261  -0.625   1.612  0.5662  0.1145 -1.2026
  948MOL0     C27867   5.399  -0.687   1.607  1.0621  0.4414 -1.1400
  948MOL0     C27868   5.494  -0.591   1.671  0.4719 -0.0332 -0.4899
  948MOL0     O27869   5.609  -0.662   1.691  0.0508 -0.2384  0.4307
  948MOL0     C27870   5.719  -0.607   1.737  0.8939 -0.2565 -0.5358
  948MOL0     C27871   5.815  -0.694   1.768 -1.0649 -0.6099 -0.3360
  948MOL0     C27872   5.938  -0.644   1.805  1.1366  0.0518 -0.3661
  948MOL0     C27873   5.955  -0.508   1.829 -0.6644 -0.1113  0.0574
  948MOL0     C27874   6.074  -0.450   1.884 -0.7348 -0.7628  0.1152
  948MOL0     O27875   6.091  -0.305   1.887 -0.0336 -0.1140 -0.0798
  948MOL0     C27876   6.205  -0.243   1.936 -0.2104 -0.3224 -0.1614
  948MOL0     C27877   6.331  -0.305   1.953  0.3623 -0.7002 -0.4230
  948MOL0     C27878   6.445  -0.238   2.012 -0.1001  0.5069 -0.6964
  948MOL0     C27879   6.432  -0.096   2.045 -0.3737 -0.5893  0.3878
  948MOL0     O27880   6.539  -0.019   2.074  0.1282  0.2626 -0.8491
  948MOL0     C27881   6.654  -0.079   2.137 -0.0801  0.1731 -0.2464
  948MOL0     C27882   6.773   0.014   2.171 -0.3530  0.5908  0.0453
  948MOL0     C27883   6.851   0.066   2.048 -0.4031  0.2960  0.1360
  948MOL0     C27884   6.996   0.112   2.088 -0.7014  0.2062 -0.4173
  948MOL0     C27885   7.083   0.153   1.966  0.0518 -0.1888  0.0088
  948MOL0     C27886   7.213   0.227   2.028  0.4516 -0.5517  0.2082
  948MOL0     C27887   7.314   0.135   2.101  0.3789  0.3703  0.1220
  948MOL0     C27888   7.414   0.224   2.180 -0.3682  0.0456 -0.0355
  948MOL0    Cl27889   7.522   0.299   2.076  0.2032  0.2065  0.3177
  948MOL0     C27890   6.308  -0.035   2.013 -0.5405 -0.0053 -0.0935
  948MOL0     C27891   6.200  -0.110   1.958  0.3422 -0.5980 -0.3524
  948MOL0     O27892   6.148  -0.531   1.939  0.6538 -0.0923 -0.1376
  948MOL0     C27893   5.850  -0.421   1.793 -0.1216  0.0009 -0.1101
  948MOL0     C27894   5.734  -0.468   1.746 -0.4379  0.1634 -0.0659
  948MOL0     N27895   4.926  -0.765   1.591  0.1005  0.1025  0.5763
  948MOL0     N27896   4.817  -0.697   1.593 -0.5290  0.4742  0.1992
  948MOL0     C27897   4.307   0.349   1.266  0.1927 -0.3197  0.4020
  948MOL0     C27898   4.334   0.481   1.258  0.0762 -0.4418  0.3650
  948MOL0     C27899   4.557   0.892   1.306  0.5377  0.9086  0.1434
  948MOL0     C27900   4.425   0.950   1.315  0.4159  0.2126 -0.0417
  948MOL0     C27901   4.405   1.086   1.291  0.0836  0.2425 -0.6840
  948MOL0     C27902   4.510   1.180   1.276  0.6945  0.4693  0.0881
  948MOL0     O27903   4.481   1.306   1.238 -0.2644  0.1933  0.0923
  948MOL0     C27904   4.550   1.356   1.124  0.2555 -0.0069  0.0649
  948MOL0     C27905   4.534   1.289   0.987  0.0018  0.7528  0.4179
  948MOL0     C27906   4.387   1.304   0.937 -0.9597 -0.5306  0.7875
  948MOL0     C27907   4.326   1.446   0.951  0.0190 -0.3023 -0.1551
  948MOL0     C27908   4.418   1.540   0.883 -0.4881  0.3302  0.0202
  948MOL0     C27909   4.466   1.637   0.831 -0.8332  0.5970 -0.1626
  948MOL0     C27910   4.638   1.126   1.272 -0.2101  1.0418  0.2556
  948MOL0     C27911   4.657   0.989   1.297 -0.2504  0.5595 -0.8320
  948MOL0     C27912   4.802   0.958   1.311 -0.6350  0.7309  1.1570
  948MOL0     H27913   4.576   0.512   1.500 -0.1709  3.4800 -2.0637
  948MOL0     H27914   4.498   0.265   1.527 -1.4028 -1.1514 -0.0403
  948MOL0     H27915   4.469   0.042   1.457  0.5062 -2.8775  1.5706
  948MOL0     H27916   4.332   0.085   1.559 -2.9829  1.9562 -1.5465
  948MOL0     H27917   4.203  -0.088   1.410  0.7635  1.7652 -1.0522
  948MOL0     H27918   4.306  -0.122   1.555  5.3820  2.0525  0.7910
  948MOL0     H27919   4.494  -0.153   1.377  0.0287  1.3784 -0.4649
  948MOL0     H27920   4.363  -0.139   1.264  0.4281 -1.5892  0.5155
  948MOL0     H27921   4.360  -0.341   1.501  0.4907  1.1393  0.2752
  948MOL0     H27922   4.263  -0.351   1.353  1.8884 -0.1941 -3.6450
  948MOL0     H27923   4.435  -0.527   1.326  3.1601 -0.5843  1.0985
  948MOL0     H27924   4.475  -0.397   1.216 -1.8502 -0.9174 -0.2779
  948MOL0     H27925   4.684  -0.466   1.338 -0.4893 -0.8656 -0.5553
  948MOL0     H27926   4.634  -0.306   1.362 -0.9059 -0.4935 -3.2742
  948MOL0     H27927   4.556  -0.563   1.503 -1.6500  1.9478 -1.6980
  948MOL0     H27928   4.534  -0.415   1.597 -0.1923 -0.0385  0.6487
  948MOL0     H27929   4.784  -0.372   1.549 -0.1374  0.2812  0.8371
  948MOL0     H27930   4.743  -0.455   1.692  0.1373 -0.3042 -0.0825
  948MOL0     H27931   5.018  -0.464   1.499 -0.4628  0.8808  4.1402
  948MOL0     H27932   5.189  -0.814   1.542  0.9966  1.3037  1.9119
  948MOL0     H27933   5.185  -0.698   1.412 -0.0451 -1.8630 -1.0714
  948MOL0     H27934   5.260  -0.523   1.573  0.4812  0.1011 -1.2340
  948MOL0     H27935   5.221  -0.616   1.713  0.3214 -0.1138 -1.2813
  948MOL0     H27936   5.430  -0.713   1.506 -0.1298  2.3491 -2.0575
  948MOL0     H27937   5.384  -0.777   1.668 -0.4337 -0.1818 -2.3589
  948MOL0     H27938   5.477  -0.569   1.777  4.2738  0.1241  0.2405
  948MOL0     H27939   5.509  -0.501   1.611  0.0412  2.1076  2.3962
  948MOL0     H27940   5.797  -0.798   1.746  2.1296 -0.8566 -2.3619
  948MOL0     H27941   6.012  -0.723   1.816 -0.5923 -1.7701 -1.0417
  948MOL0     H27942   6.343  -0.409   1.924  3.3078 -0.1282 -1.6676
  948MOL0     H27943   6.529  -0.302   2.032 -1.2219 -1.0030 -0.6504
  948MOL0     H27944   6.621  -0.130   2.228 -2.0942 -1.2244 -1.6956
  948MOL0     H27945   6.691  -0.161   2.075  2.6728  1.0610  0.0647
  948MOL0     H27946   6.750   0.099   2.236 -1.1083 -0.4080  1.1251
  948MOL0     H27947   6.827  -0.060   2.231 -2.1452  0.0091  1.0027
  948MOL0     H27948   6.850  -0.006   1.966 -0.9537 -0.4505  0.7841
  948MOL0     H27949   6.791   0.148   2.009 -2.4679 -0.8708  0.7364
  948MOL0     H27950   7.049   0.027   2.132 -2.6551 -1.0545 -0.3832
  948MOL0     H27951   7.000   0.186   2.169  3.2357 -0.1458 -0.1091
  948MOL0     H27952   7.028   0.220   1.899  1.9048  0.7948 -0.6098
  948MOL0     H27953   7.094   0.059   1.911 -2.2731 -0.5951  0.1601
  948MOL0     H27954   7.261   0.294   1.956 -1.2251 -0.8089 -1.2166
  948MOL0     H27955   7.175   0.309   2.090  0.1995 -0.1979 -0.4109
  948MOL0     H27956   7.369   0.065   2.037  0.9006  1.0116 -0.1351
  948MOL0     H27957   7.276   0.062   2.174  3.4300 -3.3209 -1.6466
  948MOL0     H27958   7.365   0.292   2.250 -1.3568  1.6831 -2.2154
  948MOL0     H27959   7.469   0.160   2.250 -0.4226  1.5668  1.4448
  948MOL0     H27960   6.298   0.073   2.016 -0.8994 -0.0001 -1.0420
  948MOL0     H27961   6.108  -0.055   1.939  1.0549  0.0975 -2.0231
  948MOL0     H27962   5.850  -0.316   1.819 -0.4242 -0.3595  1.4419
  948MOL0     H27963   5.650  -0.401   1.731 -2.1152 -1.2975  2.2424
  948MOL0     H27964   4.244   0.295   1.197  0.3920  0.2815 -0.2646
  948MOL0     H27965   4.298   0.552   1.185  1.3831  0.6011  0.6903
  948MOL0     H27966   4.342   0.882   1.331 -0.8695  2.0453  1.5339
  948MOL0     H27967   4.303   1.122   1.301 -0.5488 -1.8134  0.9610
  948MOL0     H27968   4.657   1.356   1.149  0.4360  3.3369 -0.3309
  948MOL0     H27969   4.528   1.463   1.117  3.3715  0.7481  0.1144
  948MOL0     H27970   4.555   1.183   0.999  3.2913  0.7637 -3.2390
  948MOL0     H27971   4.609   1.327   0.915 -2.1565  1.0260 -1.8279
  948MOL0     H27972   4.329   1.221   0.980  0.7712 -2.3830 -0.2362
  948MOL0     H27973   4.381   1.275   0.831  0.4581  0.0345  0.5200
  948MOL0     H27974   4.232   1.443   0.896  0.7912  0.0926 -1.5354
  948MOL0     H27975   4.288   1.478   1.049 -1.6912  1.5565 -1.3533
  948MOL0     H27976   4.525   1.711   0.780  1.6293 -1.5508 -0.6049
  948MOL0     H27977   4.717   1.196   1.248 -2.3189  3.5771  0.2962
  948MOL0     H27978   4.842   0.885   1.240  0.5213  1.8830  0.6036
  948MOL0     H27979   4.869   1.040   1.288 -1.8527  1.6823  0.9004
  948MOL0     H27980   4.835   0.911   1.405  3.2627 -1.8986 -1.2532
  949MOL0     O27981   6.143   6.512   6.291  0.0489 -0.6193  0.6656
  949MOL0     C27982   6.122   6.486   6.170  0.4506  0.4178 -0.5338
  949MOL0     O27983   6.203   6.422   6.088  0.8552  0.6135 -0.7362
  949MOL0     C27984   6.334   6.404   6.128  0.4778 -0.3337  0.6633
  949MOL0     C27985   6.397   6.378   6.255 -0.1647  0.3621 -0.3966
  949MOL0     C27986   6.540   6.356   6.259  0.5442 -0.3292  0.2627
  949MOL0     C27987   6.624   6.387   6.150 -0.3040  0.2815  0.3055
  949MOL0     O27988   6.763   6.382   6.152  0.5129  0.3886  0.3453
  949MOL0     C27989   6.832   6.262   6.195  0.4438  0.1418 -0.7443
  949MOL0     C27990   6.770   6.136   6.128  0.2138 -0.5109 -0.9405
  949MOL0     C27991   6.839   6.025   6.199 -0.2156 -0.4861 -0.0457
  949MOL0     C27992   6.777   5.885   6.163 -0.2066  0.2115  0.4725
  949MOL0     C27993   6.829   5.776   6.245 -0.4096 -0.3616 -0.0462
  949MOL0     C27994   6.982   5.755   6.232 -0.3723  0.8431  0.0755
  949MOL0     C27995   7.032   5.639   6.324  0.2928 -0.0480 -0.5582
  949MOL0     C27996   7.135   5.697   6.421 -0.4028  0.3252  0.4388
  949MOL0     N27997   7.159   5.600   6.536  0.5368 -0.6996 -0.3695
  949MOL0     C27998   7.190   5.641   6.660  0.4640  0.3018  0.3900
  949MOL0     C27999   7.215   5.522   6.729  0.8494  0.0568 -0.4779
  949MOL0     C28000   7.275   5.504   6.862  0.7627  0.0604 -0.8179
  949MOL0     C28001   7.184   5.445   6.977  1.4010  0.1803  0.2793
  949MOL0     C28002   7.059   5.530   6.998 -0.1619  0.0105 -0.9967
  949MOL0     C28003   6.963   5.459   7.090  0.2069  0.3440  1.0129
  949MOL0     O28004   7.017   5.412   7.212 -0.3798  0.4004  0.5742
  949MOL0     C28005   7.010   5.491   7.316  0.0580 -0.2181 -0.4501
  949MOL0     C28006   6.983   5.628   7.321  0.9218 -0.3038  0.6888
  949MOL0     C28007   6.961   5.697   7.444 -0.6513  0.8484  0.1511
  949MOL0     C28008   6.990   5.626   7.564 -0.1368  0.0580 -0.1690
  949MOL0     C28009   6.986   5.696   7.696 -0.3934  0.4667 -0.3220
  949MOL0     O28010   6.954   5.827   7.704  0.9742 -0.8375  0.2428
  949MOL0     C28011   6.963   5.892   7.827  0.1219 -0.1732  0.4259
  949MOL0     C28012   7.071   5.971   7.866  0.3716 -1.2437 -0.6829
  949MOL0     C28013   7.069   6.033   7.996 -0.3402 -0.3865  0.5185
  949MOL0     C28014   6.960   6.004   8.083 -0.0408 -1.0582  0.1461
  949MOL0     O28015   6.956   6.064   8.209 -1.3892  0.2443 -0.5816
  949MOL0     C28016   7.085   6.102   8.262  0.3884 -0.0616 -0.6885
  949MOL0     C28017   7.063   6.142   8.411 -0.2444  0.0629  0.3817
  949MOL0     C28018   7.196   6.178   8.489  0.0875 -0.5425 -0.5523
  949MOL0     C28019   7.232   6.309   8.436  0.3086  0.4147 -1.2122
  949MOL0     C28020   7.313   6.396   8.525 -0.8225 -0.0157 -0.1334
  949MOL0     C28021   7.269   6.433   8.660  0.4940  0.1272  0.2197
  949MOL0     C28022   7.368   6.536   8.729  0.6517 -0.1730  0.6356
  949MOL0     C28023   7.287   6.607   8.840  0.4802  0.0513 -0.2196
  949MOL0    Cl28024   7.378   6.759   8.879 -0.4280  0.1164 -0.3125
  949MOL0     C28025   6.855   5.927   8.042  0.1133  0.3564 -0.0832
  949MOL0     C28026   6.856   5.880   7.917  0.6380 -0.2538  0.0973
  949MOL0     O28027   7.013   5.632   7.796  0.0560 -0.6226  0.3983
  949MOL0     C28028   7.024   5.488   7.560  0.9725 -0.4498 -0.4220
  949MOL0     C28029   7.029   5.417   7.443 -0.1745 -0.8828  0.8165
  949MOL0     N28030   7.184   5.414   6.654 -0.3112  0.4337  0.2616
  949MOL0     N28031   7.148   5.465   6.541 -0.1534  0.2044  0.8163
  949MOL0     C28032   6.559   6.439   6.034 -1.3452 -0.2906 -0.1879
  949MOL0     C28033   6.422   6.429   6.018 -0.4122 -0.4238  0.1198
  949MOL0     C28034   5.982   6.497   6.127 -1.0684 -0.1041 -0.0838
  949MOL0     C28035   5.909   6.606   6.183 -0.3242  0.1200 -0.2038
  949MOL0     C28036   5.777   6.628   6.156 -0.1902  0.1721  0.1669
  949MOL0     C28037   5.705   6.530   6.075 -0.0070 -0.3900  0.0816
  949MOL0     O28038   5.577   6.534   6.033  0.1273 -0.8666  0.3404
  949MOL0     C28039   5.482   6.634   6.092 -0.0958  0.1766  0.1046
  949MOL0     C28040   5.489   6.773   6.021 -0.9376 -0.6120 -0.2917
  949MOL0     C28041   5.404   6.874   6.087 -0.4985 -0.6040 -0.5229
  949MOL0     C28042   5.284   6.913   6.002  0.0736 -0.1064 -0.4926
  949MOL0     C28043   5.321   6.993   5.885 -0.6762 -0.9080  0.2989
  949MOL0     C28044   5.377   7.070   5.810  0.4695 -0.4797  0.1806
  949MOL0     C28045   5.782   6.427   6.019 -0.3598  0.0664 -0.7438
  949MOL0     C28046   5.917   6.412   6.036 -0.4139  0.6105  0.1628
  949MOL0     C28047   5.981   6.297   5.967  0.7904  0.5147 -0.0357
  949MOL0     H28048   6.343   6.363   6.348  1.2918  0.5384  0.4961
  949MOL0     H28049   6.575   6.320   6.355 -1.6517 -0.5317  1.0345
  949MOL0     H28050   6.937   6.283   6.177  0.7682  4.3783  3.8985
  949MOL0     H28051   6.829   6.247   6.303  1.8071 -2.1745 -0.9621
  949MOL0     H28052   6.793   6.147   6.021  1.6717  1.1495 -0.5150
  949MOL0     H28053   6.661   6.133   6.131  0.0284 -1.0024 -4.3081
  949MOL0     H28054   6.820   6.027   6.307  0.1176  1.4359 -0.0003
  949MOL0     H28055   6.945   6.027   6.174 -0.6316 -2.1297 -2.2236
  949MOL0     H28056   6.668   5.888   6.170 -0.1481  0.6891  1.2973
  949MOL0     H28057   6.794   5.864   6.057 -2.0643  1.3509 -0.0947
  949MOL0     H28058   6.800   5.802   6.348  0.0053  0.6309 -0.1640
  949MOL0     H28059   6.780   5.690   6.200 -0.1110 -0.0219 -1.0518
  949MOL0     H28060   7.005   5.734   6.127  3.9249 -0.1464  1.0246
  949MOL0     H28061   7.029   5.852   6.251  0.2204  1.0312 -2.1090
  949MOL0     H28062   7.073   5.554   6.268 -3.1210 -1.1138 -1.7033
  949MOL0     H28063   6.950   5.607   6.389  0.6966  0.6892  0.3333
  949MOL0     H28064   7.232   5.728   6.382 -0.2803 -0.6175 -0.0318
  949MOL0     H28065   7.092   5.786   6.468  0.9029  1.7108 -0.8731
  949MOL0     H28066   7.186   5.744   6.694 -1.2364  0.1161  0.8259
  949MOL0     H28067   7.365   5.443   6.856  0.2914 -0.7977  0.3223
  949MOL0     H28068   7.310   5.604   6.892  0.4324  0.6020 -2.1474
  949MOL0     H28069   7.148   5.345   6.948  3.0748 -0.4980  0.3883
  949MOL0     H28070   7.240   5.432   7.070  0.8781 -1.4068  0.4089
  949MOL0     H28071   7.023   5.551   6.897  3.2690 -1.8835 -2.7923
  949MOL0     H28072   7.083   5.626   7.045 -0.1567 -0.6947  0.5154
  949MOL0     H28073   6.920   5.369   7.044 -0.6260  1.3830 -0.3426
  949MOL0     H28074   6.877   5.525   7.106 -1.8301 -1.7176 -0.6140
  949MOL0     H28075   6.980   5.696   7.236 -0.2644  0.4685  1.3223
  949MOL0     H28076   6.943   5.804   7.447 -1.8279  0.7605 -1.9390
  949MOL0     H28077   7.161   5.990   7.810  1.5754  1.4355  1.8870
  949MOL0     H28078   7.155   6.094   8.022 -0.2018 -0.0207 -0.7490
  949MOL0     H28079   7.145   6.011   8.258 -0.0892 -0.5004  1.0964
  949MOL0     H28080   7.116   6.194   8.212 -1.5342  1.2623  0.4159
  949MOL0     H28081   6.982   6.216   8.414 -1.7603 -1.4185 -1.2689
  949MOL0     H28082   7.027   6.051   8.461 -0.4152 -2.1506 -3.3834
  949MOL0     H28083   7.187   6.188   8.598  0.2556  0.4644 -0.6252
  949MOL0     H28084   7.270   6.102   8.465  1.3200  0.5784 -0.3731
  949MOL0     H28085   7.146   6.373   8.414 -0.3168 -0.3040 -0.9253
  949MOL0     H28086   7.282   6.293   8.340  2.5190 -1.8859  0.1885
  949MOL0     H28087   7.328   6.488   8.470  0.3634  0.3312  0.7367
  949MOL0     H28088   7.414   6.354   8.522 -1.2297 -0.9441 -1.5342
  949MOL0     H28089   7.168   6.472   8.645  0.9594  0.6117 -2.1070
  949MOL0     H28090   7.263   6.341   8.719  3.2920 -2.2784 -2.8253
  949MOL0     H28091   7.410   6.615   8.666  1.8278 -0.6772  0.7595
  949MOL0     H28092   7.452   6.486   8.777 -0.0870 -0.1674  2.0094
  949MOL0     H28093   7.186   6.631   8.805  1.1061 -0.5552 -2.6175
  949MOL0     H28094   7.286   6.544   8.929  4.5940  0.6844  0.5118
  949MOL0     H28095   6.776   5.895   8.108 -1.0104 -1.0566 -2.0102
  949MOL0     H28096   6.767   5.825   7.889  0.0985  1.3004 -1.3530
  949MOL0     H28097   7.055   5.436   7.650 -1.0867  1.0819  1.2804
  949MOL0     H28098   7.052   5.311   7.437  2.1543 -0.3768 -0.0569
  949MOL0     H28099   6.617   6.467   5.946 -0.8716 -3.0727 -0.8668
  949MOL0     H28100   6.384   6.439   5.917  0.0072  0.8714  0.0735
  949MOL0     H28101   5.960   6.669   6.255 -1.1209  0.6459 -0.0947
  949MOL0     H28102   5.726   6.721   6.179  1.5286  0.9160  1.1388
  949MOL0     H28103   5.508   6.642   6.198 -0.9402  2.0621  0.2010
  949MOL0     H28104   5.384   6.585   6.083  0.2235 -1.0598  2.4319
  949MOL0     H28105   5.456   6.763   5.917 -3.5380  0.4455  0.3482
  949MOL0     H28106   5.590   6.815   6.021 -1.4358  0.7717 -2.7350
  949MOL0     H28107   5.467   6.961   6.105  0.4296 -1.2299 -0.6922
  949MOL0     H28108   5.354   6.832   6.175  1.2561 -1.1170  0.2604
  949MOL0     H28109   5.239   6.820   5.966 -1.3765  0.5185 -0.3704
  949MOL0     H28110   5.210   6.965   6.063  1.0300  2.2554 -1.2372
  949MOL0     H28111   5.444   7.138   5.761 -2.3227  2.9844  0.7607
  949MOL0     H28112   5.728   6.358   5.956 -1.1278 -0.8551  0.8494
  949MOL0     H28113   6.052   6.244   6.031 -0.2851  0.8089  1.4394
  949MOL0     H28114   5.902   6.228   5.936  2.4457 -1.5948  0.1643
  949MOL0     H28115   6.026   6.337   5.876  0.2814  0.8265 -0.1488
  950MOL0     O28116   8.308   0.938   0.938  0.0686 -0.3123  0.2656
  950MOL0     C28117   8.322   0.879   1.042 -0.2527  0.4358 -0.0945
  950MOL0     O28118   8.243   0.894   1.158  0.3330  0.5603  0.7671
  950MOL0     C28119   8.117   0.960   1.156 -0.2422  0.1400 -0.4014
  950MOL0     C28120   8.089   1.058   1.256 -1.1448 -0.1365 -0.2415
  950MOL0     C28121   7.965   1.110   1.273 -1.0655 -1.3766  0.1630
  950MOL0     C28122   7.867   1.090   1.176  0.3063 -0.9715 -0.6433
  950MOL0     O28123   7.747   1.160   1.179 -0.4029  0.3713  0.3548
  950MOL0     C28124   7.714   1.264   1.273 -0.2944  0.2213 -0.5940
  950MOL0     C28125   7.595   1.352   1.246 -0.0756  0.8184 -1.2296
  950MOL0     C28126   7.466   1.281   1.220 -0.0423 -1.0693 -0.5433
  950MOL0     C28127   7.348   1.382   1.202  0.0558  0.0293 -0.5516
  950MOL0     C28128   7.239   1.313   1.117  0.0996  0.1214  0.1347
  950MOL0     C28129   7.107   1.389   1.104 -0.6822  0.1041 -0.1574
  950MOL0     C28130   6.998   1.309   1.037  0.3352 -0.6294  0.2249
  950MOL0     C28131   6.878   1.395   1.040  0.6257  0.7629  0.6402
  950MOL0     N28132   6.780   1.340   0.946 -0.1477  0.9079  0.3284
  950MOL0     C28133   6.708   1.405   0.855  0.6413  0.3962 -0.4382
  950MOL0     C28134   6.620   1.318   0.796  0.7920 -0.1002  0.0952
  950MOL0     C28135   6.515   1.364   0.699 -0.3996 -0.8617  0.1353
  950MOL0     C28136   6.563   1.384   0.558 -0.4348  1.0942 -0.3585
  950MOL0     C28137   6.621   1.257   0.499 -0.2857 -0.6740 -0.7281
  950MOL0     C28138   6.518   1.150   0.473 -0.4123 -0.3377 -0.1088
  950MOL0     O28139   6.569   1.071   0.363  1.0607  0.3219  0.3318
  950MOL0     C28140   6.484   0.984   0.301  0.2808  0.9153  0.7943
  950MOL0     C28141   6.356   0.941   0.349  0.5147  0.3817 -0.2669
  950MOL0     C28142   6.280   0.844   0.286 -0.1713  0.0737 -0.1072
  950MOL0     C28143   6.329   0.787   0.176 -0.2354 -0.2153  0.9032
  950MOL0     C28144   6.240   0.686   0.093 -0.6350  0.4836 -0.2931
  950MOL0     O28145   6.278   0.679  -0.039  0.2162 -0.2714  0.2979
  950MOL0     C28146   6.194   0.617  -0.124  0.5040 -0.0958 -0.3598
  950MOL0     C28147   6.251   0.562  -0.236  0.0496  0.2201  0.5564
  950MOL0     C28148   6.175   0.481  -0.332  0.1940 -0.1060 -0.4052
  950MOL0     C28149   6.038   0.469  -0.315 -0.0003  0.3609  0.4330
  950MOL0     O28150   5.971   0.393  -0.411  0.7046  0.2279  0.5612
  950MOL0     C28151   5.827   0.393  -0.403  0.8807 -0.4101  0.2703
  950MOL0     C28152   5.765   0.321  -0.513 -0.4598  0.6940  0.6534
  950MOL0     C28153   5.832   0.337  -0.652 -0.0991 -0.1154  0.8198
  950MOL0     C28154   5.742   0.428  -0.741 -0.4366 -0.1962 -0.2956
  950MOL0     C28155   5.815   0.446  -0.877 -0.1059 -0.7721  0.5084
  950MOL0     C28156   5.735   0.518  -0.983 -0.2601  0.6793  0.4222
  950MOL0     C28157   5.816   0.543  -1.111  0.5481  0.3039 -0.5501
  950MOL0     C28158   5.727   0.540  -1.230 -0.5533  0.4084  0.0299
  950MOL0    Cl28159   5.602   0.672  -1.244 -0.3823  0.0404 -0.5063
  950MOL0     C28160   5.972   0.540  -0.204 -0.6690 -0.4031 -0.1022
  950MOL0     C28161   6.050   0.611  -0.112 -0.1026 -0.3685 -0.1649
  950MOL0     O28162   6.157   0.613   0.150  0.1060 -0.0690 -0.3045
  950MOL0     C28163   6.456   0.827   0.115  0.0286  0.6219  0.2536
  950MOL0     C28164   6.532   0.928   0.180 -0.4653 -0.1725  0.7935
  950MOL0     N28165   6.648   1.190   0.853  0.3485 -0.0162  0.2662
  950MOL0     N28166   6.745   1.206   0.941  0.0141 -0.2239 -0.0253
  950MOL0     C28167   7.906   1.007   1.065 -0.2309 -0.0013 -0.0737
  950MOL0     C28168   8.027   0.944   1.053  0.1275  0.6894 -0.0572
  950MOL0     C28169   8.443   0.786   1.056  0.1747 -0.8449  0.2139
  950MOL0     C28170   8.522   0.770   0.938 -0.0668 -0.6170 -0.1795
  950MOL0     C28171   8.632   0.687   0.936  0.2275 -0.2042 -0.3108
  950MOL0     C28172   8.653   0.597   1.037 -0.0750  0.4103  0.0980
  950MOL0     O28173   8.761   0.517   1.046  0.6196 -0.4107 -0.2962
  950MOL0     C28174   8.772   0.429   0.930 -0.3193 -0.1240  0.0187
  950MOL0     C28175   8.921   0.396   0.923  0.9269 -0.3723 -0.4421
  950MOL0     C28176   9.001   0.499   0.831 -0.2602 -0.1499 -1.2938
  950MOL0     C28177   8.987   0.454   0.690  0.1806  0.1313 -0.9109
  950MOL0     C28178   9.058   0.331   0.654  0.8209  0.8193  0.5050
  950MOL0     C28179   9.107   0.219   0.630  0.5082 -0.0360 -0.3862
  950MOL0     C28180   8.579   0.598   1.157  0.8932 -0.1339 -0.2810
  950MOL0     C28181   8.474   0.699   1.169  0.4387 -0.0438  0.3909
  950MOL0     C28182   8.395   0.713   1.299  0.4093 -0.3012 -0.0995
  950MOL0     H28183   8.174   1.083   1.318 -1.6870 -0.0018  0.4612
  950MOL0     H28184   7.952   1.186   1.350 -1.0841  0.7847 -1.8787
  950MOL0     H28185   7.706   1.214   1.370  3.1619  1.3518  0.4079
  950MOL0     H28186   7.804   1.326   1.275  0.1018 -0.3531 -0.6693
  950MOL0     H28187   7.624   1.410   1.157 -1.9292  0.7332 -1.9246
  950MOL0     H28188   7.600   1.427   1.326 -1.3116 -0.3471 -0.0220
  950MOL0     H28189   7.447   1.213   1.304  1.1554 -0.3958  0.3190
  950MOL0     H28190   7.472   1.206   1.141  3.2945 -0.4412 -1.0377
  950MOL0     H28191   7.304   1.399   1.300 -1.6988 -0.2131 -1.2567
  950MOL0     H28192   7.382   1.478   1.162  0.1049  1.2952  2.3226
  950MOL0     H28193   7.272   1.299   1.014  0.4988  1.5539  0.0404
  950MOL0     H28194   7.218   1.225   1.179 -2.8310  1.9593  2.0176
  950MOL0     H28195   7.061   1.421   1.198 -3.2756 -2.9381 -0.2411
  950MOL0     H28196   7.131   1.480   1.047  0.6402 -0.5308 -0.6520
  950MOL0     H28197   6.983   1.219   1.096 -1.2038  0.4444  1.5807
  950MOL0     H28198   7.027   1.283   0.935  0.1366 -1.0942  0.2836
  950MOL0     H28199   6.832   1.394   1.140  1.7347  2.4620  1.2164
  950MOL0     H28200   6.895   1.502   1.023 -2.3128  1.0641 -1.0328
  950MOL0     H28201   6.707   1.512   0.836 -2.5042  1.0090  2.2881
  950MOL0     H28202   6.433   1.292   0.690 -3.2396  2.1822 -0.3343
  950MOL0     H28203   6.482   1.466   0.724  1.8622  0.5093 -1.9376
  950MOL0     H28204   6.478   1.424   0.502  0.0682  1.9201 -0.5461
  950MOL0     H28205   6.637   1.465   0.557 -0.0021  0.8799  2.9761
  950MOL0     H28206   6.703   1.220   0.561 -0.5452  2.3129  1.6110
  950MOL0     H28207   6.680   1.286   0.411  1.0932  0.9792  0.6568
  950MOL0     H28208   6.418   1.180   0.439 -0.4520 -0.2786  0.0622
  950MOL0     H28209   6.520   1.098   0.569 -2.4200  0.3818  0.3791
  950MOL0     H28210   6.324   0.970   0.449  0.3025 -0.8346  0.0427
  950MOL0     H28211   6.189   0.815   0.339 -0.5150  0.0256 -0.7164
  950MOL0     H28212   6.359   0.555  -0.239  0.0275 -1.2589  2.0852
  950MOL0     H28213   6.218   0.463  -0.430  1.8640 -1.2540  0.4851
  950MOL0     H28214   5.809   0.335  -0.312 -0.9094 -1.0885 -0.4683
  950MOL0     H28215   5.788   0.495  -0.394  5.4880  1.3878  3.0931
  950MOL0     H28216   5.782   0.217  -0.482  0.9158  1.3972  2.4175
  950MOL0     H28217   5.656   0.334  -0.513 -0.6733 -0.4822 -1.9391
  950MOL0     H28218   5.935   0.374  -0.646  0.6031 -2.0269  1.0788
  950MOL0     H28219   5.837   0.239  -0.701  1.6673  0.9593 -1.3680
  950MOL0     H28220   5.726   0.524  -0.692 -0.1867  0.9055 -2.2722
  950MOL0     H28221   5.645   0.380  -0.755 -0.6666 -0.0381  0.7254
  950MOL0     H28222   5.839   0.343  -0.905 -2.6379 -2.0819  2.6825
  950MOL0     H28223   5.904   0.507  -0.858  0.2474 -1.6273  1.6672
  950MOL0     H28224   5.646   0.461  -1.009 -2.1290  3.7698 -0.4737
  950MOL0     H28225   5.706   0.613  -0.938 -1.3253  0.6894 -0.2545
  950MOL0     H28226   5.893   0.465  -1.117  1.1426  0.8609 -0.3585
  950MOL0     H28227   5.874   0.635  -1.101  1.2121 -0.0896 -0.6934
  950MOL0     H28228   5.791   0.539  -1.319  0.1955  0.0098  0.5601
  950MOL0     H28229   5.680   0.442  -1.231 -0.5993  0.4247  0.4896
  950MOL0     H28230   5.867   0.528  -0.179 -0.1696  0.2522  2.5945
  950MOL0     H28231   6.008   0.658  -0.023  2.1190 -0.6788  1.1131
  950MOL0     H28232   6.504   0.795   0.024  2.5291  1.7053  1.1025
  950MOL0     H28233   6.633   0.955   0.154 -0.7148  0.0562  0.0322
  950MOL0     H28234   7.831   0.990   0.988  0.0366 -1.1426 -0.1041
  950MOL0     H28235   8.043   0.896   0.957 -1.1532 -1.8904  0.9058
  950MOL0     H28236   8.520   0.845   0.860 -1.6277  1.8450  2.0640
  950MOL0     H28237   8.691   0.685   0.845 -1.5407  0.4499 -1.5070
  950MOL0     H28238   8.743   0.475   0.836 -0.8776  1.7156  1.0318
  950MOL0     H28239   8.711   0.341   0.953  1.2913 -1.3110 -0.1347
  950MOL0     H28240   8.928   0.291   0.895 -0.0833 -0.4446 -0.4365
  950MOL0     H28241   8.968   0.378   1.020 -1.0730  0.7275  0.7906
  950MOL0     H28242   9.105   0.497   0.864 -0.4615  0.0572 -0.6324
  950MOL0     H28243   8.964   0.601   0.844 -0.6886 -0.5715  1.4924
  950MOL0     H28244   8.879   0.454   0.678 -0.6409  1.2556  4.2000
  950MOL0     H28245   9.025   0.531   0.622 -2.0487  1.1200 -1.1198
  950MOL0     H28246   9.146   0.126   0.594  0.3696 -1.2215  2.2890
  950MOL0     H28247   8.614   0.536   1.239 -1.5053 -0.9812  0.1848
  950MOL0     H28248   8.387   0.818   1.327  2.0023 -0.3311  0.5563
  950MOL0     H28249   8.295   0.668   1.293  1.2030 -2.5257  1.7599
  950MOL0     H28250   8.450   0.651   1.371  2.1619 -1.6107 -2.4121
  951MOL0     O28251   1.415   3.382   4.481 -0.1322  0.2471 -0.4057
  951MOL0     C28252   1.442   3.494   4.436  0.5576 -0.3455 -0.1014
  951MOL0     O28253   1.370   3.603   4.465  0.8169  0.1536 -0.1571
  951MOL0     C28254   1.259   3.590   4.549 -1.5146 -0.0203  0.3460
  951MOL0     C28255   1.269   3.522   4.672 -0.9113 -0.5138  0.0983
  951MOL0     C28256   1.156   3.512   4.742 -0.2961  0.0757 -0.3282
  951MOL0     C28257   1.045   3.588   4.708 -0.0097  1.0082 -0.2447
  951MOL0     O28258   0.939   3.567   4.798 -0.8253 -0.1650  0.1523
  951MOL0     C28259   0.814   3.514   4.734 -0.0767 -0.0189  0.7955
  951MOL0     C28260   0.693   3.549   4.818  0.4242 -0.7941  0.1060
  951MOL0     C28261   0.557   3.495   4.761 -0.1081 -1.2133 -0.1392
  951MOL0     C28262   0.538   3.347   4.798  0.0007  0.2386 -0.8805
  951MOL0     C28263   0.471   3.265   4.694  0.1219 -0.8775 -0.4504
  951MOL0     C28264   0.529   3.125   4.693  0.8723  0.7307  0.3810
  951MOL0     C28265   0.455   3.027   4.603 -1.2672 -0.3938  0.5465
  951MOL0     C28266   0.484   2.885   4.648  0.3788  0.3648  0.0022
  951MOL0     N28267   0.625   2.825   4.644 -0.7433  0.4934 -0.3374
  951MOL0     C28268   0.717   2.824   4.542  0.6177  0.4357  1.2377
  951MOL0     C28269   0.816   2.754   4.585  0.3694  0.1191  0.0607
  951MOL0     C28270   0.953   2.734   4.519  0.8372  0.3974  0.7145
  951MOL0     C28271   1.028   2.606   4.579 -0.1796 -0.0017 -0.5660
  951MOL0     C28272   1.170   2.597   4.529  0.4125  0.5081 -0.1153
  951MOL0     C28273   1.251   2.481   4.591 -0.3414 -0.7374 -0.7241
  951MOL0     O28274   1.224   2.370   4.506 -0.2301 -0.0807  0.2660
  951MOL0     C28275   1.326   2.277   4.488 -0.3642 -0.9302 -0.0733
  951MOL0     C28276   1.393   2.228   4.602 -0.2304 -0.1549 -1.1470
  951MOL0     C28277   1.485   2.118   4.595  0.5650 -0.5063 -0.7274
  951MOL0     C28278   1.527   2.071   4.470  0.5069  0.0854  0.2259
  951MOL0     C28279   1.632   1.972   4.470 -0.7427 -0.2222  0.4565
  951MOL0     O28280   1.651   1.900   4.348 -0.1049  0.1345  0.3162
  951MOL0     C28281   1.759   1.812   4.343 -0.8046 -0.1683 -0.3676
  951MOL0     C28282   1.806   1.719   4.444  1.0288  0.4587 -0.3625
  951MOL0     C28283   1.914   1.632   4.425 -1.1337 -0.2668  0.5344
  951MOL0     C28284   1.980   1.630   4.303  0.0392 -0.3742  0.0903
  951MOL0     O28285   2.086   1.555   4.278 -0.0575  0.3250  0.3110
  951MOL0     C28286   2.162   1.489   4.385  0.9975 -0.5809  0.5974
  951MOL0     C28287   2.276   1.413   4.318  0.3038  0.0363  0.4179
  951MOL0     C28288   2.380   1.370   4.423 -0.8142 -0.0061 -0.6465
  951MOL0     C28289   2.510   1.325   4.361  0.1748  0.4984 -0.6583
  951MOL0     C28290   2.501   1.225   4.242 -0.5782  0.5364  0.0338
  951MOL0     C28291   2.635   1.131   4.218 -0.6217  0.2338 -0.2145
  951MOL0     C28292   2.604   1.040   4.098  0.5775  0.1682 -0.2445
  951MOL0     C28293   2.521   0.927   4.147  0.2724  1.8673  0.1696
  951MOL0    Cl28294   2.608   0.822   4.266  0.2926  0.2684 -0.1710
  951MOL0     C28295   1.933   1.716   4.203  1.1596  0.6107  0.7074
  951MOL0     C28296   1.816   1.802   4.222 -0.8058  0.3604 -0.3252
  951MOL0     O28297   1.700   1.961   4.571  0.9435 -0.5025 -0.1627
  951MOL0     C28298   1.464   2.121   4.355 -0.2323 -0.4933  0.6160
  951MOL0     C28299   1.365   2.218   4.363  0.9263 -1.2340 -0.3417
  951MOL0     N28300   0.793   2.710   4.711 -0.3586  0.0414 -0.2965
  951MOL0     N28301   0.678   2.752   4.745 -1.0351  0.8037  0.9260
  951MOL0     C28302   1.040   3.667   4.600  0.0013 -0.4306 -0.5364
  951MOL0     C28303   1.152   3.665   4.519  0.4940 -0.3829  0.7348
  951MOL0     C28304   1.573   3.513   4.358  0.7617  0.7299  0.2330
  951MOL0     C28305   1.582   3.641   4.294 -0.3169 -0.4740 -0.2336
  951MOL0     C28306   1.685   3.671   4.214 -0.1551 -0.1477 -0.8817
  951MOL0     C28307   1.796   3.581   4.202  0.3194 -0.2492  0.8045
  951MOL0     O28308   1.905   3.624   4.131  0.2138  0.4410  0.7285
  951MOL0     C28309   1.992   3.518   4.079  0.3565 -0.2486 -1.0173
  951MOL0     C28310   2.087   3.558   3.963 -0.4462  0.4086  0.5657
  951MOL0     C28311   2.230   3.602   4.018 -0.5014  0.9478  0.2589
  951MOL0     C28312   2.223   3.746   4.068 -0.1746 -0.4695  0.0495
  951MOL0     C28313   2.352   3.792   4.131 -0.4012 -0.1814 -0.6196
  951MOL0     C28314   2.473   3.805   4.155  0.2364 -0.2300 -1.4107
  951MOL0     C28315   1.790   3.454   4.257  0.1357  0.5431 -1.0639
  951MOL0     C28316   1.683   3.421   4.340 -0.2246 -1.1482 -0.0524
  951MOL0     C28317   1.691   3.302   4.430  0.5918 -0.3787 -0.2754
  951MOL0     H28318   1.355   3.473   4.716 -0.4268  0.9907  0.9283
  951MOL0     H28319   1.164   3.453   4.832  1.3348 -2.2046 -1.8533
  951MOL0     H28320   0.810   3.553   4.632  2.1967 -2.6122 -0.4268
  951MOL0     H28321   0.816   3.405   4.721 -0.1886 -0.1218  1.5729
  951MOL0     H28322   0.686   3.658   4.819  0.1371 -0.7896 -1.1566
  951MOL0     H28323   0.701   3.503   4.917 -1.7900  0.6725  1.0445
  951MOL0     H28324   0.555   3.519   4.655 -3.5221  3.7986  0.7366
  951MOL0     H28325   0.472   3.548   4.805 -0.5540 -2.9356  1.1982
  951MOL0     H28326   0.629   3.290   4.818 -1.2747 -1.0682  1.7268
  951MOL0     H28327   0.484   3.343   4.893  1.8973  4.1122  0.5598
  951MOL0     H28328   0.364   3.266   4.716  0.7434  0.3864  3.2451
  951MOL0     H28329   0.492   3.310   4.596 -1.6050 -0.3508 -0.6011
  951MOL0     H28330   0.635   3.117   4.668  0.4576 -2.7508 -0.7328
  951MOL0     H28331   0.526   3.087   4.796  1.8425 -0.0626  0.1314
  951MOL0     H28332   0.492   3.047   4.502  1.5724  0.0633  1.5833
  951MOL0     H28333   0.350   3.058   4.608 -1.0168  0.6007 -0.1111
  951MOL0     H28334   0.448   2.865   4.749  0.0574  1.1936  0.0576
  951MOL0     H28335   0.421   2.829   4.579  0.8141 -1.0021  0.6845
  951MOL0     H28336   0.697   2.881   4.452  0.9563  2.7385  2.5597
  951MOL0     H28337   0.937   2.728   4.411  0.0795  0.1507  0.8385
  951MOL0     H28338   1.009   2.826   4.541 -2.6544  2.1961  3.0713
  951MOL0     H28339   1.032   2.615   4.688  1.0460 -0.2864 -0.5621
  951MOL0     H28340   0.984   2.509   4.552 -0.3222 -0.0271 -0.2493
  951MOL0     H28341   1.232   2.686   4.542 -0.6258  1.1245  0.7607
  951MOL0     H28342   1.167   2.590   4.420  0.6299 -0.9378 -0.0484
  951MOL0     H28343   1.230   2.448   4.693 -0.9823 -0.0492 -0.6231
  951MOL0     H28344   1.353   2.518   4.586 -0.3949 -0.7286 -2.5104
  951MOL0     H28345   1.366   2.262   4.701 -0.5370  0.4730 -1.4408
  951MOL0     H28346   1.522   2.068   4.684  0.3822 -2.2424 -1.5885
  951MOL0     H28347   1.746   1.713   4.534 -1.8686 -1.3651 -2.2520
  951MOL0     H28348   1.947   1.567   4.505 -0.7006 -3.3108 -1.9497
  951MOL0     H28349   2.206   1.561   4.455 -0.1504 -0.5104  1.2773
  951MOL0     H28350   2.097   1.422   4.443 -1.8151  0.7110 -0.8823
  951MOL0     H28351   2.245   1.321   4.268 -1.8068  0.6205  0.5939
  951MOL0     H28352   2.315   1.483   4.243 -0.2804 -1.7421 -1.6437
  951MOL0     H28353   2.397   1.459   4.485 -1.8092  0.7731 -1.4580
  951MOL0     H28354   2.343   1.292   4.489  0.5426  0.9469  1.3622
  951MOL0     H28355   2.586   1.297   4.435  2.0044  1.6396 -1.9973
  951MOL0     H28356   2.557   1.416   4.323  0.7376  0.7244  0.5361
  951MOL0     H28357   2.463   1.268   4.149 -0.7286 -1.8449 -1.0771
  951MOL0     H28358   2.420   1.156   4.266 -1.0762  1.8293  2.3856
  951MOL0     H28359   2.726   1.188   4.197 -0.0908 -0.8185 -0.8266
  951MOL0     H28360   2.657   1.067   4.303 -0.0095 -0.9383 -1.2297
  951MOL0     H28361   2.693   0.992   4.056 -0.8161 -2.2474 -0.6382
  951MOL0     H28362   2.568   1.095   4.010 -0.4806 -1.2074 -0.7068
  951MOL0     H28363   2.424   0.962   4.183 -0.8268 -2.0860  1.6941
  951MOL0     H28364   2.491   0.857   4.068 -0.0024 -1.1404  2.7117
  951MOL0     H28365   1.980   1.703   4.106  0.6338 -2.4805  0.7825
  951MOL0     H28366   1.778   1.873   4.149  0.3411  2.1354  0.7334
  951MOL0     H28367   1.487   2.083   4.256  0.9651  0.4093  0.5327
  951MOL0     H28368   1.319   2.253   4.271 -1.0314  2.6851  1.8408
  951MOL0     H28369   0.955   3.727   4.570  0.4037 -0.3422 -1.5459
  951MOL0     H28370   1.152   3.729   4.431  2.1303  0.5448  1.3584
  951MOL0     H28371   1.510   3.720   4.307  0.6097  0.7170 -1.8451
  951MOL0     H28372   1.694   3.769   4.169  2.7861 -0.9487 -2.3254
  951MOL0     H28373   1.933   3.436   4.037  1.6447 -2.4244  1.1524
  951MOL0     H28374   2.049   3.478   4.163 -1.9273 -0.2117  0.6250
  951MOL0     H28375   2.054   3.631   3.889  3.4908  3.6998  1.6596
  951MOL0     H28376   2.107   3.470   3.902  2.5606  1.3115  0.0869
  951MOL0     H28377   2.307   3.589   3.941 -0.2023  2.7012  0.2081
  951MOL0     H28378   2.262   3.540   4.103  1.5519  1.2603 -0.2380
  951MOL0     H28379   2.194   3.811   3.986 -1.0443  0.6475  1.1947
  951MOL0     H28380   2.138   3.763   4.134  0.3532  3.7113 -0.1175
  951MOL0     H28381   2.576   3.826   4.176  0.4944 -2.6708  0.2062
  951MOL0     H28382   1.875   3.387   4.253  0.3105  0.7965 -1.9542
  951MOL0     H28383   1.786   3.247   4.435  1.7418  1.3708 -1.7872
  951MOL0     H28384   1.667   3.340   4.530 -2.5375  2.2392 -1.8314
  951MOL0     H28385   1.605   3.239   4.404 -0.2780 -0.0988  1.7399
  952MOL0     O28386   1.644   4.644   0.756 -1.2759  0.2994 -0.4640
  952MOL0     C28387   1.630   4.735   0.843  0.0368  0.2358 -0.8034
  952MOL0     O28388   1.734   4.801   0.913  0.5173  0.1122  0.3898
  952MOL0     C28389   1.866   4.744   0.933  0.4264  0.2605 -0.6058
  952MOL0     C28390   1.977   4.824   0.952  0.3698 -0.7660 -0.6336
  952MOL0     C28391   2.104   4.771   0.983 -0.5768  0.4504  0.7948
  952MOL0     C28392   2.127   4.635   0.974  0.1764 -0.9752  0.5420
  952MOL0     O28393   2.254   4.592   0.994 -0.4740 -0.4853 -0.3302
  952MOL0     C28394   2.277   4.457   1.037 -0.1953 -0.5643 -0.0449
  952MOL0     C28395   2.427   4.470   1.088  0.9165  1.0455  0.0635
  952MOL0     C28396   2.470   4.345   1.173 -0.3945 -0.4693 -0.4031
  952MOL0     C28397   2.605   4.368   1.246 -0.9739  0.4207  1.1155
  952MOL0     C28398   2.649   4.246   1.324 -0.2800  0.2612  0.3333
  952MOL0     C28399   2.770   4.266   1.422  0.3744 -0.8052  0.1353
  952MOL0     C28400   2.789   4.128   1.491 -0.1930 -0.1746  0.0513
  952MOL0     C28401   2.877   4.035   1.405 -0.4727  0.8109 -0.2100
  952MOL0     N28402   3.002   4.100   1.373  0.6214 -0.7364  0.2189
  952MOL0     C28403   3.104   4.114   1.457 -0.1645  0.8695 -0.2454
  952MOL0     C28404   3.194   4.180   1.392 -0.2931 -0.3452 -0.1288
  952MOL0     C28405   3.325   4.237   1.451  0.5342 -0.2771  0.5183
  952MOL0     C28406   3.330   4.391   1.458 -0.1148 -0.5028 -1.1578
  952MOL0     C28407   3.445   4.457   1.519  0.0525 -0.0463  0.1369
  952MOL0     C28408   3.449   4.614   1.511  0.3806 -0.1767 -0.6926
  952MOL0     O28409   3.560   4.656   1.570  0.2282  0.4159 -0.6488
  952MOL0     C28410   3.571   4.792   1.586 -0.1372  0.2157 -0.4252
  952MOL0     C28411   3.513   4.889   1.499 -0.1442 -0.9699  0.4994
  952MOL0     C28412   3.560   5.023   1.491 -0.1199  0.7586 -0.2819
  952MOL0     C28413   3.659   5.067   1.581 -0.4066  0.5198  0.6224
  952MOL0     C28414   3.701   5.203   1.593 -0.7540 -0.1351  0.5386
  952MOL0     O28415   3.701   5.276   1.475  0.0578  0.1759  0.5600
  952MOL0     C28416   3.713   5.412   1.487  0.1574  0.5879  0.8833
  952MOL0     C28417   3.609   5.498   1.530 -0.0925 -0.6892  0.6564
  952MOL0     C28418   3.635   5.633   1.551  0.1828  0.5713  0.1838
  952MOL0     C28419   3.768   5.679   1.546 -0.1523  0.1117 -0.6080
  952MOL0     O28420   3.786   5.816   1.549 -0.6721 -0.2189  0.0539
  952MOL0     C28421   3.846   5.867   1.669  0.3055  0.4768 -0.4627
  952MOL0     C28422   3.760   5.839   1.803  1.6155 -1.0438  0.6828
  952MOL0     C28423   3.748   5.953   1.903 -0.1429  0.1140 -0.3248
  952MOL0     C28424   3.681   6.076   1.855  0.2861  0.0609  0.4008
  952MOL0     C28425   3.637   6.174   1.967  0.0394 -0.5083  0.2730
  952MOL0     C28426   3.628   6.317   1.914 -0.5251 -0.2488 -0.2599
  952MOL0     C28427   3.596   6.411   2.035  0.5437 -0.1217  0.1352
  952MOL0     C28428   3.550   6.552   1.975  0.0175  0.3710 -0.5398
  952MOL0    Cl28429   3.543   6.660   2.116  0.1813 -0.0333 -0.0650
  952MOL0     C28430   3.864   5.598   1.504 -0.2747  1.0972 -0.2512
  952MOL0     C28431   3.840   5.467   1.477  0.1637  0.1862 -0.5553
  952MOL0     O28432   3.738   5.241   1.706  0.4710  0.6840  0.0887
  952MOL0     C28433   3.716   4.975   1.666 -0.0084 -0.7847  0.7099
  952MOL0     C28434   3.671   4.843   1.669  0.1981 -0.1602 -0.3490
  952MOL0     N28435   3.150   4.205   1.266 -0.0805  0.5795 -0.9942
  952MOL0     N28436   3.034   4.161   1.258 -0.0499 -0.3487  0.0306
  952MOL0     C28437   2.021   4.548   0.955  0.6496 -0.7233  0.6510
  952MOL0     C28438   1.892   4.603   0.938 -0.0025 -0.2599 -0.2465
  952MOL0     C28439   1.501   4.802   0.844  0.3731 -0.3978 -0.6805
  952MOL0     C28440   1.500   4.921   0.929 -0.3960  0.1580 -0.5589
  952MOL0     C28441   1.384   4.996   0.935 -0.4724  0.7241  0.1380
  952MOL0     C28442   1.266   4.955   0.875  0.6728 -0.6051 -0.5640
  952MOL0     O28443   1.152   5.035   0.876  0.2746 -0.0415 -0.9797
  952MOL0     C28444   1.051   5.006   0.977  0.9532 -0.3464 -0.0271
  952MOL0     C28445   0.959   4.894   0.926  0.4126  0.2928 -0.0508
  952MOL0     C28446   0.874   4.936   0.810  0.2358 -0.2685 -0.6136
  952MOL0     C28447   0.813   4.825   0.733  0.3472  0.0037 -0.8432
  952MOL0     C28448   0.728   4.898   0.637  0.7795  0.5408 -0.5842
  952MOL0     C28449   0.648   4.960   0.559  0.0182  0.4601 -0.1938
  952MOL0     C28450   1.271   4.848   0.792  0.2661 -0.4536 -0.0318
  952MOL0     C28451   1.382   4.765   0.776 -1.3767  0.2428 -0.5405
  952MOL0     C28452   1.353   4.628   0.713 -0.5799  0.3030  0.4000
  952MOL0     H28453   1.961   4.932   0.960 -1.1261 -0.9225 -1.1817
  952MOL0     H28454   2.186   4.842   0.995  0.6544 -0.9317  0.8330
  952MOL0     H28455   2.210   4.435   1.121  2.2441  1.1955  2.5538
  952MOL0     H28456   2.286   4.388   0.953  3.7876  0.1666 -0.4039
  952MOL0     H28457   2.426   4.561   1.148 -1.4006  1.4877 -0.5636
  952MOL0     H28458   2.487   4.483   0.998 -0.7468 -0.5845 -1.3733
  952MOL0     H28459   2.460   4.254   1.113  1.8342  0.6459 -2.6650
  952MOL0     H28460   2.407   4.337   1.262  0.7186  1.0298  0.5765
  952MOL0     H28461   2.686   4.380   1.173 -0.8919 -1.2464  0.8992
  952MOL0     H28462   2.588   4.458   1.306 -5.2298  0.5046  0.0945
  952MOL0     H28463   2.566   4.210   1.385 -2.2114 -0.1312 -2.3531
  952MOL0     H28464   2.679   4.165   1.256 -0.8008  1.2318 -1.1051
  952MOL0     H28465   2.862   4.301   1.374  0.4906 -1.5395 -0.1922
  952MOL0     H28466   2.739   4.336   1.500 -3.5208 -1.6540 -0.4524
  952MOL0     H28467   2.700   4.075   1.526  0.5048  0.0904  2.4144
  952MOL0     H28468   2.839   4.132   1.588 -1.3795 -1.2751  0.7422
  952MOL0     H28469   2.896   3.940   1.454 -2.8585  1.1760  1.6158
  952MOL0     H28470   2.827   4.005   1.312  1.9889  0.0337 -1.3502
  952MOL0     H28471   3.104   4.098   1.565  2.6573  2.1598  0.0367
  952MOL0     H28472   3.333   4.190   1.549 -1.7169 -2.9170 -0.4413
  952MOL0     H28473   3.413   4.201   1.397  1.2219 -0.9932  2.0573
  952MOL0     H28474   3.320   4.438   1.359  0.9474 -0.4146 -1.2351
  952MOL0     H28475   3.245   4.420   1.521  2.3717  0.2341  2.1189
  952MOL0     H28476   3.536   4.421   1.470  0.1419 -0.3400  0.5175
  952MOL0     H28477   3.451   4.430   1.625  2.6488  1.1766  0.3711
  952MOL0     H28478   3.368   4.654   1.573  1.5803  1.3334 -0.0316
  952MOL0     H28479   3.438   4.656   1.410  1.3614  4.3478  0.8418
  952MOL0     H28480   3.443   4.858   1.423  0.3114 -1.1710  0.1527
  952MOL0     H28481   3.521   5.088   1.414  1.6268  2.8056  0.4761
  952MOL0     H28482   3.506   5.469   1.545 -0.4289  0.8103  1.3768
  952MOL0     H28483   3.547   5.694   1.568 -2.2086 -2.7211  0.4928
  952MOL0     H28484   3.947   5.831   1.689  1.6646  3.2293 -1.8862
  952MOL0     H28485   3.863   5.975   1.667  0.2834  0.4654 -1.5054
  952MOL0     H28486   3.660   5.805   1.778  0.9391 -0.3518  2.2536
  952MOL0     H28487   3.795   5.750   1.856 -1.2507 -1.9991  1.1114
  952MOL0     H28488   3.687   5.928   1.991  1.9141 -0.4348  1.0091
  952MOL0     H28489   3.844   5.978   1.949 -0.3276 -1.4072  1.0074
  952MOL0     H28490   3.591   6.047   1.799  1.7885 -1.0374 -1.6054
  952MOL0     H28491   3.734   6.131   1.776 -0.4970  2.2414  1.3105
  952MOL0     H28492   3.708   6.170   2.050 -0.8963  3.0328  1.4372
  952MOL0     H28493   3.540   6.139   2.003 -1.0693  0.2981 -1.7860
  952MOL0     H28494   3.715   6.355   1.860 -1.6646  2.1037 -0.5466
  952MOL0     H28495   3.551   6.319   1.836  0.3762  0.5748 -1.1616
  952MOL0     H28496   3.684   6.419   2.100 -0.1617 -1.1926  1.2691
  952MOL0     H28497   3.504   6.382   2.086  0.6061 -1.2413 -0.3511
  952MOL0     H28498   3.639   6.578   1.917  1.2591  1.5424  1.7236
  952MOL0     H28499   3.464   6.549   1.907  1.0229  0.0730 -1.8298
  952MOL0     H28500   3.968   5.629   1.496 -0.4700  1.3222 -2.9764
  952MOL0     H28501   3.927   5.404   1.459  1.8050  1.3531  2.4886
  952MOL0     H28502   3.795   5.008   1.732  0.9768  0.6148 -1.0925
  952MOL0     H28503   3.715   4.774   1.740 -2.4565 -1.2966  0.3315
  952MOL0     H28504   2.039   4.444   0.927  1.5125  0.0691 -2.1023
  952MOL0     H28505   1.812   4.534   0.914 -1.0820  0.5517  0.9262
  952MOL0     H28506   1.586   4.948   0.990 -1.9035  5.2927 -0.2676
  952MOL0     H28507   1.390   5.087   0.994  0.5642  0.2254  0.8370
  952MOL0     H28508   0.993   5.096   0.995  0.9392 -0.1284 -1.0756
  952MOL0     H28509   1.113   4.977   1.062  1.9450 -0.5451 -0.7923
  952MOL0     H28510   0.903   4.848   1.008 -0.0333  1.9457  0.6163
  952MOL0     H28511   1.020   4.805   0.907 -1.6133 -0.7383 -2.2934
  952MOL0     H28512   0.944   4.993   0.747  0.3364  2.2987  1.6382
  952MOL0     H28513   0.800   5.010   0.841  1.5350 -0.1293  2.5291
  952MOL0     H28514   0.895   4.772   0.683  0.0186  0.4514 -1.8877
  952MOL0     H28515   0.759   4.756   0.799  2.6286 -0.6476  0.4523
  952MOL0     H28516   0.595   5.021   0.489  2.6234  2.0833 -0.9098
  952MOL0     H28517   1.174   4.840   0.743  0.2742  0.4547 -0.2066
  952MOL0     H28518   1.412   4.547   0.759 -0.8235 -1.2718 -1.8649
  952MOL0     H28519   1.246   4.607   0.709 -0.9132  1.3423  2.8410
  952MOL0     H28520   1.387   4.621   0.609 -2.9220 -3.2662 -0.3306
  953MOL0     O28521   2.786   5.637   2.484 -0.5890  0.3386  0.5643
  953MOL0     C28522   2.716   5.623   2.586  0.1479  0.9464  1.0613
  953MOL0     O28523   2.715   5.514   2.662  0.2955  0.3823 -0.0792
  953MOL0     C28524   2.795   5.515   2.773  0.3605  0.1488 -0.3037
  953MOL0     C28525   2.865   5.630   2.826  0.4058 -0.3785 -0.4440
  953MOL0     C28526   2.925   5.629   2.953  0.7564  1.0513  0.5016
  953MOL0     C28527   2.928   5.502   3.021  0.0012 -0.5936  0.3347
  953MOL0     O28528   2.996   5.476   3.135  0.3581 -0.1112 -0.2009
  953MOL0     C28529   3.007   5.590   3.219  0.5252  0.5381 -1.1031
  953MOL0     C28530   3.087   5.538   3.345  0.2177 -0.0685  0.1231
  953MOL0     C28531   3.080   5.619   3.479 -0.2753 -0.0009 -0.9541
  953MOL0     C28532   3.154   5.561   3.601 -0.3828 -0.4622  0.3218
  953MOL0     C28533   3.177   5.663   3.710 -0.2790  0.0576 -0.3657
  953MOL0     C28534   3.271   5.594   3.819  0.0373  0.8546 -0.5682
  953MOL0     C28535   3.407   5.535   3.772 -0.4005  0.2037 -0.4916
  953MOL0     C28536   3.512   5.551   3.885 -0.2363 -0.2039  0.5892
  953MOL0     N28537   3.654   5.520   3.830 -0.1265 -0.5850 -0.1688
  953MOL0     C28538   3.710   5.399   3.801  1.0772  0.6421  0.2110
  953MOL0     C28539   3.835   5.416   3.777 -0.0159 -0.6830  0.0726
  953MOL0     C28540   3.933   5.318   3.731 -0.7135  0.4088  1.3455
  953MOL0     C28541   3.979   5.218   3.848  0.0520  0.1117 -0.1633
  953MOL0     C28542   4.099   5.129   3.807  0.1603 -0.1235  0.1834
  953MOL0     C28543   4.171   5.073   3.933  0.1583  1.4100 -0.3446
  953MOL0     O28544   4.302   5.016   3.887 -0.2353 -0.5744  0.6167
  953MOL0     C28545   4.388   4.969   3.981  0.5253 -0.7579  0.2573
  953MOL0     C28546   4.384   4.975   4.122  0.1471 -0.0949 -0.2258
  953MOL0     C28547   4.485   4.930   4.203 -0.6452 -0.9467  0.0765
  953MOL0     C28548   4.612   4.887   4.147  0.4321 -0.1331 -0.3177
  953MOL0     C28549   4.726   4.839   4.226  0.2013 -0.6403 -0.0566
  953MOL0     O28550   4.821   4.764   4.170 -0.5567  0.5623  0.1036
  953MOL0     C28551   4.956   4.781   4.212  0.4139 -0.3309 -0.1906
  953MOL0     C28552   5.039   4.674   4.163 -0.0007 -0.3542  0.3559
  953MOL0     C28553   5.181   4.673   4.192  0.2435  0.1183  0.8756
  953MOL0     C28554   5.233   4.787   4.256 -0.0735 -0.1917  0.2050
  953MOL0     O28555   5.368   4.803   4.266  1.0037 -0.0444  0.3590
  953MOL0     C28556   5.441   4.792   4.146 -0.3142 -1.1395 -0.3646
  953MOL0     C28557   5.585   4.832   4.181 -1.0699 -0.5519 -0.1720
  953MOL0     C28558   5.684   4.844   4.059 -0.4100 -0.1668  0.0917
  953MOL0     C28559   5.810   4.925   4.101  0.8139 -0.8700 -0.6631
  953MOL0     C28560   5.875   4.875   4.228 -0.1755  0.1211  0.2768
  953MOL0     C28561   5.972   4.754   4.197  0.6707 -0.5082 -0.2842
  953MOL0     C28562   6.078   4.730   4.310  0.4737 -0.5288  1.1029
  953MOL0     C28563   6.223   4.716   4.261  0.2990 -0.6763 -0.1593
  953MOL0    Cl28564   6.332   4.724   4.403 -0.0850  0.0926 -0.1658
  953MOL0     C28565   5.155   4.898   4.288 -0.1879  0.6553  0.1878
  953MOL0     C28566   5.013   4.897   4.277 -1.2416  0.5275 -0.0291
  953MOL0     O28567   4.718   4.858   4.342 -0.5625  0.0320 -1.0095
  953MOL0     C28568   4.616   4.894   4.012 -0.4997  0.0578  0.3936
  953MOL0     C28569   4.511   4.935   3.927 -0.4817 -0.5584  0.0274
  953MOL0     N28570   3.859   5.555   3.794  0.6630  0.1836  0.5914
  953MOL0     N28571   3.747   5.617   3.821  0.6920  1.1228  0.4720
  953MOL0     C28572   2.871   5.387   2.967  0.2754 -0.4696 -0.1049
  953MOL0     C28573   2.806   5.399   2.847  0.3953 -0.7119  0.1950
  953MOL0     C28574   2.612   5.737   2.601  0.6940 -0.3577  0.4834
  953MOL0     C28575   2.622   5.860   2.535  0.5323 -0.1785  0.0626
  953MOL0     C28576   2.533   5.961   2.560  0.4454 -0.5110  0.8935
  953MOL0     C28577   2.440   5.953   2.657 -0.0551 -0.1990 -0.4736
  953MOL0     O28578   2.359   6.062   2.681  0.4567 -0.2688  0.2369
  953MOL0     C28579   2.414   6.198   2.669  0.2340  0.0872 -0.0987
  953MOL0     C28580   2.302   6.314   2.670  0.4700  0.3806 -0.7624
  953MOL0     C28581   2.346   6.445   2.602 -0.8489  0.6010 -0.1217
  953MOL0     C28582   2.491   6.492   2.646 -0.0978 -0.6625  0.0602
  953MOL0     C28583   2.506   6.554   2.781  0.6707 -0.3879  0.8974
  953MOL0     C28584   2.534   6.600   2.887 -0.3802  0.9543 -0.5387
  953MOL0     C28585   2.430   5.837   2.737  0.6728 -0.1590  1.3161
  953MOL0     C28586   2.510   5.730   2.705 -0.8441 -0.0800  0.2240
  953MOL0     C28587   2.475   5.602   2.777 -0.1651 -0.0532  0.5194
  953MOL0     H28588   2.888   5.724   2.776  1.9942  0.7210  2.1434
  953MOL0     H28589   2.960   5.727   2.983  0.2779  1.9222 -1.6201
  953MOL0     H28590   3.055   5.669   3.161  0.4048 -0.3906 -2.5027
  953MOL0     H28591   2.909   5.620   3.256  0.7224 -0.3513  0.2078
  953MOL0     H28592   3.193   5.527   3.320 -0.2401  0.6931 -2.3703
  953MOL0     H28593   3.034   5.445   3.367 -0.9061  0.8577  1.5103
  953MOL0     H28594   2.973   5.629   3.496 -0.3986 -2.2789 -0.1038
  953MOL0     H28595   3.125   5.717   3.457  3.2508 -0.7130  2.1548
  953MOL0     H28596   3.108   5.470   3.641 -0.5738  0.1756  1.5808
  953MOL0     H28597   3.245   5.523   3.554  0.2035  0.9838  0.2480
  953MOL0     H28598   3.232   5.753   3.681  1.3104 -0.8717 -0.3323
  953MOL0     H28599   3.078   5.698   3.742  0.0538  3.1785 -2.3170
  953MOL0     H28600   3.291   5.672   3.893 -1.6152  0.8968 -0.1243
  953MOL0     H28601   3.222   5.514   3.877  1.5014 -0.3375 -0.9068
  953MOL0     H28602   3.430   5.595   3.684  0.0193 -3.2822 -2.9453
  953MOL0     H28603   3.394   5.428   3.751 -3.9477  0.1602  1.1018
  953MOL0     H28604   3.500   5.656   3.914 -1.8878 -0.4403  0.8957
  953MOL0     H28605   3.486   5.484   3.968 -0.7318 -0.3866  0.2950
  953MOL0     H28606   3.666   5.300   3.791 -0.5904  1.3962 -0.3792
  953MOL0     H28607   3.895   5.260   3.647  2.3274 -0.6832  0.5865
  953MOL0     H28608   4.025   5.359   3.689  0.5967 -2.5356  1.1026
  953MOL0     H28609   3.994   5.277   3.940 -0.0927 -5.4690  3.9825
  953MOL0     H28610   3.893   5.152   3.861  1.0188 -1.3601 -1.0338
  953MOL0     H28611   4.162   5.199   3.752 -0.7590 -0.9815 -2.1070
  953MOL0     H28612   4.069   5.041   3.750 -3.2252 -0.7189  2.5453
  953MOL0     H28613   4.117   4.988   3.975  0.9953  1.5627  1.1074
  953MOL0     H28614   4.188   5.139   4.018  1.2387 -0.5127  1.0056
  953MOL0     H28615   4.297   5.015   4.174  1.1389  0.2558  1.2036
  953MOL0     H28616   4.481   4.923   4.311 -0.6419  0.4040  0.1829
  953MOL0     H28617   4.990   4.589   4.116  0.8058 -0.3999 -0.4416
  953MOL0     H28618   5.241   4.587   4.163 -2.0052 -1.1049 -0.5147
  953MOL0     H28619   5.437   4.697   4.093  2.1367 -2.1868  1.1780
  953MOL0     H28620   5.403   4.875   4.085 -1.0667 -1.3927 -0.2484
  953MOL0     H28621   5.583   4.915   4.253 -2.6153 -1.2085  0.5786
  953MOL0     H28622   5.624   4.745   4.234 -0.7985 -0.7406 -0.6768
  953MOL0     H28623   5.707   4.743   4.026  1.6713  0.9368 -2.0849
  953MOL0     H28624   5.623   4.888   3.980 -0.0800  0.3172  0.1038
  953MOL0     H28625   5.774   5.025   4.127 -0.5017 -1.8754  1.7249
  953MOL0     H28626   5.887   4.913   4.025  1.3603 -2.2353  0.0826
  953MOL0     H28627   5.807   4.838   4.306  2.3522 -3.9332  0.8826
  953MOL0     H28628   5.939   4.956   4.266 -0.7122 -0.0554  1.6360
  953MOL0     H28629   5.902   4.671   4.188 -0.8740  0.5204  1.4350
  953MOL0     H28630   6.029   4.761   4.104 -0.1158  0.3994 -0.7261
  953MOL0     H28631   6.045   4.643   4.368 -1.5330 -0.6037 -0.0638
  953MOL0     H28632   6.080   4.815   4.380  1.7472  0.3780  0.0340
  953MOL0     H28633   6.234   4.623   4.205 -0.5246  0.7315 -2.8520
  953MOL0     H28634   6.247   4.803   4.198  1.1137  1.1029  2.4243
  953MOL0     H28635   5.211   4.978   4.335  4.0481  0.0809 -3.1968
  953MOL0     H28636   4.968   4.989   4.315 -0.4040 -0.3329  3.4133
  953MOL0     H28637   4.706   4.878   3.954 -0.6822  1.2286 -0.2410
  953MOL0     H28638   4.517   4.939   3.819 -2.2213  0.0152 -0.0718
  953MOL0     H28639   2.889   5.297   3.025 -1.3477 -2.2037 -2.1303
  953MOL0     H28640   2.762   5.308   2.807  0.6146  1.0339 -4.8431
  953MOL0     H28641   2.694   5.872   2.454 -1.9257 -1.2470 -2.4750
  953MOL0     H28642   2.523   6.044   2.491 -1.9606 -1.1439  0.3746
  953MOL0     H28643   2.478   6.205   2.581 -0.0135 -0.1332 -0.2998
  953MOL0     H28644   2.483   6.219   2.752 -1.2010  1.5777  0.7713
  953MOL0     H28645   2.287   6.321   2.778 -0.5879 -0.1862 -0.8562
  953MOL0     H28646   2.204   6.282   2.632  0.0922  0.6061 -0.0040
  953MOL0     H28647   2.272   6.524   2.619  1.7925  2.8482  2.0412
  953MOL0     H28648   2.352   6.432   2.493 -1.1932 -1.8064  0.0904
  953MOL0     H28649   2.564   6.411   2.638 -0.4495 -1.1172  1.2612
  953MOL0     H28650   2.513   6.570   2.573 -1.4949 -0.7325 -0.4644
  953MOL0     H28651   2.572   6.649   2.975 -0.3813  0.9062 -0.5115
  953MOL0     H28652   2.347   5.832   2.807 -1.4378  1.0371 -0.9374
  953MOL0     H28653   2.545   5.596   2.861  0.6456 -0.1635 -0.1504
  953MOL0     H28654   2.372   5.599   2.813 -0.1444 -1.1212  0.5097
  953MOL0     H28655   2.488   5.511   2.718  0.1110 -1.9480  3.3130
  954MOL0     O28656  11.168   9.704   0.467  0.2155  0.2780  0.5536
  954MOL0     C28657  11.063   9.732   0.412  0.0311  0.0298  0.3631
  954MOL0     O28658  10.961   9.644   0.361  0.3844  0.1915 -0.8602
  954MOL0     C28659  11.005   9.515   0.353  0.6871  0.2724 -1.1906
  954MOL0     C28660  11.092   9.474   0.254  0.5043  0.4083  0.3329
  954MOL0     C28661  11.124   9.344   0.226 -0.4612 -0.5837  0.3260
  954MOL0     C28662  11.089   9.252   0.321  0.2658 -1.0290 -0.1795
  954MOL0     O28663  11.124   9.123   0.303  0.5654 -0.2787 -0.5428
  954MOL0     C28664  11.180   9.063   0.423 -0.5341 -0.0744 -0.1319
  954MOL0     C28665  11.298   9.129   0.491 -1.0761 -0.1603 -0.3436
  954MOL0     C28666  11.416   9.117   0.393 -0.2259  0.4993 -0.4452
  954MOL0     C28667  11.545   9.188   0.450  0.2523  0.1440  0.6735
  954MOL0     C28668  11.674   9.169   0.364  0.2951 -0.1446  0.8214
  954MOL0     C28669  11.751   9.034   0.390 -0.6887  0.0193 -0.2059
  954MOL0     C28670  11.896   9.045   0.333 -0.3179 -0.0954  0.0201
  954MOL0     C28671  11.966   8.906   0.314 -0.3647 -0.2857  0.6211
  954MOL0     N28672  12.020   8.855   0.437 -0.0813  0.5453 -0.2173
  954MOL0     C28673  12.136   8.886   0.499  0.3194  0.1954 -0.3765
  954MOL0     C28674  12.165   8.779   0.590 -0.4011  0.6670 -0.1342
  954MOL0     C28675  12.272   8.765   0.692  0.1366 -0.5171 -0.6436
  954MOL0     C28676  12.407   8.783   0.620 -0.6241  0.1255  0.2777
  954MOL0     C28677  12.514   8.793   0.725  0.5284 -0.6990  0.2583
  954MOL0     C28678  12.643   8.786   0.659 -0.2808 -0.4368  0.3181
  954MOL0     O28679  12.648   8.894   0.570 -0.4345 -0.5229  0.1907
  954MOL0     C28680  12.774   8.919   0.518 -0.1561  0.9051 -0.1788
  954MOL0     C28681  12.813   9.060   0.495  1.0886  0.0566 -0.3978
  954MOL0     C28682  12.948   9.090   0.460 -0.5386 -0.3750 -0.7115
  954MOL0     C28683  13.044   8.985   0.439  0.4536  0.0251 -0.9915
  954MOL0     C28684  13.187   9.029   0.418 -0.5867  0.1942  0.4367
  954MOL0     O28685  13.210   9.107   0.310 -0.4986  0.3202 -0.0800
  954MOL0     C28686  13.332   9.154   0.283 -0.3638  0.5124 -0.1359
  954MOL0     C28687  13.395   9.262   0.347  1.4063 -0.3487  0.1816
  954MOL0     C28688  13.515   9.308   0.307  0.6926  0.7140  1.2972
  954MOL0     C28689  13.581   9.262   0.196 -0.4795 -0.4329 -0.7159
  954MOL0     O28690  13.705   9.308   0.159 -0.0416 -0.6127 -0.1743
  954MOL0     C28691  13.804   9.256   0.251 -0.7313 -0.4295  0.3658
  954MOL0     C28692  13.922   9.201   0.172 -0.3288  0.1831  0.8776
  954MOL0     C28693  14.001   9.086   0.245  1.1106 -0.1353 -0.4061
  954MOL0     C28694  13.935   8.960   0.318  0.2831 -0.3796 -0.5786
  954MOL0     C28695  13.827   8.908   0.235  0.3075  0.3758  0.5406
  954MOL0     C28696  13.739   8.808   0.317 -0.3057 -0.2178 -0.1507
  954MOL0     C28697  13.629   8.885   0.407 -0.0734  0.4788 -0.2042
  954MOL0     C28698  13.524   8.791   0.469 -0.6230 -0.3915 -0.6444
  954MOL0    Cl28699  13.626   8.660   0.563  0.7813 -0.3419  0.0518
  954MOL0     C28700  13.532   9.153   0.134  0.7916  0.2106 -0.2339
  954MOL0     C28701  13.408   9.091   0.183  0.5903  0.1481  0.0929
  954MOL0     O28702  13.280   8.991   0.497  0.3011  0.2355  0.3281
  954MOL0     C28703  13.007   8.846   0.447 -0.2448  1.0533 -0.2573
  954MOL0     C28704  12.875   8.822   0.497  0.3144 -0.2749 -0.5090
  954MOL0     N28705  12.062   8.693   0.562 -0.0090 -0.0150 -1.4051
  954MOL0     N28706  11.976   8.734   0.479  0.4871 -0.2450  0.0311
  954MOL0     C28707  10.986   9.280   0.417 -0.5382 -0.5570  0.4449
  954MOL0     C28708  10.957   9.420   0.442  0.3406 -0.0417  1.3396
  954MOL0     C28709  11.024   9.870   0.400  0.2568 -0.2117 -0.2617
  954MOL0     C28710  11.049   9.949   0.505 -0.4174 -0.5231 -1.1229
  954MOL0     C28711  11.002  10.085   0.512 -0.5713  0.3102  0.9087
  954MOL0     C28712  10.945  10.146   0.405 -0.6468 -0.2035 -0.3201
  954MOL0     O28713  10.923  10.280   0.407  0.1017 -0.3847 -0.4561
  954MOL0     C28714  10.939  10.357   0.288  0.0420 -0.0810 -0.1234
  954MOL0     C28715  10.975  10.497   0.326  1.3559  0.1017 -0.0500
  954MOL0     C28716  11.104  10.502   0.405  0.7427  0.0905 -0.0864
  954MOL0     C28717  11.129  10.652   0.458  0.8973  0.3385  0.1008
  954MOL0     C28718  11.039  10.703   0.568  0.5432 -0.0549 -1.1547
  954MOL0     C28719  10.964  10.749   0.658 -0.1615 -0.4431 -0.3434
  954MOL0     C28720  10.918  10.063   0.295 -0.2301 -0.4280 -0.5033
  954MOL0     C28721  10.959   9.930   0.295  0.8140 -0.7813  0.7286
  954MOL0     C28722  10.930   9.851   0.163  0.4976 -0.2867 -0.0417
  954MOL0     H28723  11.150   9.543   0.194  2.7540 -0.0161  1.9060
  954MOL0     H28724  11.203   9.312   0.158 -0.5818 -2.6431  1.0764
  954MOL0     H28725  11.100   9.053   0.497 -3.0675 -3.3743 -2.9563
  954MOL0     H28726  11.201   8.961   0.389 -2.5051  0.7837 -4.6237
  954MOL0     H28727  11.325   9.069   0.578 -0.8809 -0.5873 -0.6945
  954MOL0     H28728  11.281   9.234   0.515 -0.1019 -0.2714  0.9407
  954MOL0     H28729  11.372   9.155   0.300 -2.7858  0.5328  0.6824
  954MOL0     H28730  11.440   9.011   0.378  2.6227  0.5425  2.6648
  954MOL0     H28731  11.524   9.295   0.451 -2.3906 -0.2835 -0.5553
  954MOL0     H28732  11.568   9.152   0.551 -1.5169  0.4596  1.2303
  954MOL0     H28733  11.660   9.190   0.258  0.6103 -1.7915  0.4253
  954MOL0     H28734  11.734   9.256   0.394  1.1051 -0.1566 -0.6980
  954MOL0     H28735  11.760   9.014   0.497  2.3191  0.3032 -0.3172
  954MOL0     H28736  11.694   8.953   0.343 -0.9600 -1.0700  1.9133
  954MOL0     H28737  11.954   9.106   0.403 -0.2013  0.0347 -0.1899
  954MOL0     H28738  11.896   9.097   0.237 -3.3179  3.9462  1.9085
  954MOL0     H28739  11.892   8.836   0.275 -0.9615 -0.1019  1.4081
  954MOL0     H28740  12.052   8.912   0.246 -1.8204 -2.4600 -1.5732
  954MOL0     H28741  12.193   8.975   0.524 -0.2505  0.9406 -1.6729
  954MOL0     H28742  12.280   8.856   0.753 -1.3699 -0.0123 -1.1375
  954MOL0     H28743  12.262   8.673   0.749 -3.2163  0.2098  0.2010
  954MOL0     H28744  12.419   8.688   0.568 -3.5766 -0.5320  0.5713
  954MOL0     H28745  12.409   8.859   0.541 -3.3207 -0.7392 -0.7461
  954MOL0     H28746  12.499   8.716   0.802  1.9107 -1.5798 -0.3185
  954MOL0     H28747  12.505   8.888   0.778  0.3789 -1.9055  2.5137
  954MOL0     H28748  12.650   8.690   0.607  1.7715 -0.6174  0.8760
  954MOL0     H28749  12.719   8.791   0.737  2.3763  1.5729 -2.2003
  954MOL0     H28750  12.737   9.137   0.507  0.6967  0.2821 -3.5216
  954MOL0     H28751  12.984   9.190   0.442  0.3570 -1.2083 -4.1545
  954MOL0     H28752  13.351   9.312   0.433  0.1350  1.6629 -1.5332
  954MOL0     H28753  13.563   9.399   0.341  2.3824  0.2585  0.2582
  954MOL0     H28754  13.833   9.322   0.333  0.4065 -1.7759  1.1080
  954MOL0     H28755  13.756   9.175   0.306  1.0315 -1.6807  0.1517
  954MOL0     H28756  13.876   9.149   0.087  0.9396  0.8551 -0.2478
  954MOL0     H28757  13.989   9.275   0.128  1.8267 -3.3810 -2.4600
  954MOL0     H28758  14.062   9.051   0.161  1.1829 -1.7655  0.2773
  954MOL0     H28759  14.065   9.141   0.314  0.4153  0.0323  0.1236
  954MOL0     H28760  13.911   8.984   0.422  0.1710 -0.7692 -0.5127
  954MOL0     H28761  14.013   8.883   0.332  2.2651  1.9015  2.2970
  954MOL0     H28762  13.867   8.851   0.151  0.8397 -2.2533  2.4772
  954MOL0     H28763  13.762   8.988   0.197 -0.4207 -0.8572 -0.9101
  954MOL0     H28764  13.676   8.746   0.252 -2.6823  0.6380  1.2360
  954MOL0     H28765  13.801   8.737   0.372 -0.6298  1.5198  2.6169
  954MOL0     H28766  13.579   8.949   0.333 -2.0868 -1.0456 -0.2412
  954MOL0     H28767  13.679   8.953   0.477 -1.4819  0.3321  0.9970
  954MOL0     H28768  13.465   8.845   0.543 -0.0779  1.8856 -1.7821
  954MOL0     H28769  13.462   8.754   0.387 -0.9596  1.4709 -1.2769
  954MOL0     H28770  13.590   9.117   0.051  2.6761 -1.8749  1.8587
  954MOL0     H28771  13.375   8.999   0.137  3.0241 -0.4645 -0.5908
  954MOL0     H28772  13.080   8.773   0.415 -1.3482 -0.5988  0.8421
  954MOL0     H28773  12.843   8.718   0.507 -3.9802  1.0784  3.9131
  954MOL0     H28774  10.941   9.199   0.473 -2.4267  1.1116  1.4828
  954MOL0     H28775  10.882   9.446   0.515 -2.2162  0.2703 -1.2070
  954MOL0     H28776  11.099   9.922   0.598 -1.5886 -0.4879 -0.4620
  954MOL0     H28777  11.025  10.149   0.597 -1.8115 -0.1632  1.6349
  954MOL0     H28778  10.847  10.343   0.230  1.1211  0.2986 -2.0139
  954MOL0     H28779  11.004  10.307   0.216 -0.8495 -2.8507  0.8251
  954MOL0     H28780  10.897  10.539   0.390  1.4921  0.5721 -0.1905
  954MOL0     H28781  10.976  10.556   0.234  0.4224  0.7237  0.3343
  954MOL0     H28782  11.190  10.469   0.345  1.5350  1.4663  0.2434
  954MOL0     H28783  11.097  10.442   0.496 -0.8177  1.9710  1.0975
  954MOL0     H28784  11.230  10.659   0.498  0.5759 -0.4080  1.1234
  954MOL0     H28785  11.122  10.720   0.373 -0.1842  1.5486  1.1184
  954MOL0     H28786  10.899  10.791   0.732 -1.1458 -2.7117  0.1398
  954MOL0     H28787  10.863  10.096   0.207 -0.1819 -1.6773 -1.0230
  954MOL0     H28788  10.870   9.916   0.099 -0.5433 -1.5747 -0.4188
  954MOL0     H28789  11.015   9.829   0.099 -0.2007  0.6032 -1.3141
  954MOL0     H28790  10.865   9.764   0.177 -0.3395 -0.1032 -2.4362
  955MOL0     O28791  10.162   1.889   3.343 -0.4172  0.6525  0.0399
  955MOL0     C28792  10.102   1.794   3.391  0.2852  0.2774  0.3610
  955MOL0     O28793  10.073   1.679   3.323 -0.3063 -0.2789  0.5708
  955MOL0     C28794  10.167   1.640   3.223 -0.4293  0.1219 -0.0741
  955MOL0     C28795  10.267   1.548   3.245 -1.0923 -0.5143  0.2900
  955MOL0     C28796  10.371   1.522   3.153 -0.6926 -0.3347  0.1249
  955MOL0     C28797  10.372   1.588   3.035  0.1540  0.1114  0.5249
  955MOL0     O28798  10.463   1.578   2.928  0.5696  0.5837  0.0350
  955MOL0     C28799  10.511   1.441   2.900  0.0303  1.1525  0.5403
  955MOL0     C28800  10.402   1.354   2.838  0.2759  0.1658 -1.1400
  955MOL0     C28801  10.334   1.423   2.717 -0.3939  0.5238 -0.9534
  955MOL0     C28802  10.435   1.462   2.606  0.2390  0.4690 -0.1785
  955MOL0     C28803  10.370   1.524   2.478 -0.0859  0.7535  0.8486
  955MOL0     C28804  10.470   1.558   2.364  0.8092 -0.2592 -1.0372
  955MOL0     C28805  10.466   1.467   2.239  0.4636 -0.6768 -1.5540
  955MOL0     C28806  10.605   1.465   2.172 -0.4323  0.0933 -0.0323
  955MOL0     N28807  10.662   1.332   2.167 -0.2513 -0.2823  0.0981
  955MOL0     C28808  10.748   1.279   2.076 -0.5206  0.4632 -1.0408
  955MOL0     C28809  10.776   1.150   2.114  0.2390 -0.2253  0.3443
  955MOL0     C28810  10.860   1.034   2.046 -0.9803  0.2053  0.7241
  955MOL0     C28811  10.999   1.082   1.997 -0.2108 -0.6690 -0.1036
  955MOL0     C28812  11.084   0.976   1.921  0.2399 -0.6658 -0.0826
  955MOL0     C28813  11.110   0.875   2.022 -0.4385 -0.1669 -0.0308
  955MOL0     O28814  11.229   0.807   1.977 -0.3992 -0.1145 -0.5317
  955MOL0     C28815  11.222   0.693   1.909 -0.6858  1.0153  0.1184
  955MOL0     C28816  11.228   0.698   1.771  0.4427  0.2422 -0.1029
  955MOL0     C28817  11.190   0.593   1.698  0.1024  0.1792 -0.3042
  955MOL0     C28818  11.171   0.465   1.761 -0.5428  0.4841 -0.5693
  955MOL0     C28819  11.160   0.343   1.682 -0.4228  0.0067  0.2773
  955MOL0     O28820  11.188   0.350   1.542 -0.6876 -0.3777 -0.4914
  955MOL0     C28821  11.193   0.236   1.463  0.5732 -0.0643 -0.3390
  955MOL0     C28822  11.222   0.107   1.514  0.0633  0.0358  0.4545
  955MOL0     C28823  11.228  -0.002   1.425 -0.2912 -0.4102 -0.1699
  955MOL0     C28824  11.186   0.007   1.289  0.2128 -0.0479 -0.6758
  955MOL0     O28825  11.179  -0.113   1.222  0.6339  0.2475  0.7532
  955MOL0     C28826  11.164  -0.116   1.081 -0.1504  0.6143 -0.8024
  955MOL0     C28827  11.284  -0.057   1.007 -0.1959 -0.3307  0.2466
  955MOL0     C28828  11.382  -0.151   0.932 -0.4989  0.7273 -0.1848
  955MOL0     C28829  11.421  -0.273   1.009  0.4686  0.1811  0.6128
  955MOL0     C28830  11.506  -0.368   0.920  0.0009  0.0025  0.5437
  955MOL0     C28831  11.648  -0.307   0.902 -0.1485 -0.5299 -0.4430
  955MOL0     C28832  11.759  -0.421   0.877  0.8829  0.9666  0.1736
  955MOL0     C28833  11.906  -0.379   0.903  0.9110  0.8156  0.8276
  955MOL0    Cl28834  11.956  -0.277   0.764 -0.1401 -0.1947 -0.3342
  955MOL0     C28835  11.169   0.135   1.239 -0.2040  0.2695  0.7805
  955MOL0     C28836  11.181   0.248   1.325  0.2679 -0.2933 -0.0642
  955MOL0     O28837  11.120   0.242   1.736  0.2538 -0.2848  0.1098
  955MOL0     C28838  11.171   0.462   1.904  0.2961 -0.5155 -0.7879
  955MOL0     C28839  11.193   0.575   1.977 -0.7409  0.0873  0.4899
  955MOL0     N28840  10.705   1.131   2.236 -0.1359 -0.7646 -1.3356
  955MOL0     N28841  10.650   1.243   2.269  0.6201 -0.7991 -0.1748
  955MOL0     C28842  10.264   1.677   3.001 -0.8678 -0.2229  0.0777
  955MOL0     C28843  10.161   1.699   3.094  0.4444  0.5644 -0.2499
  955MOL0     C28844  10.024   1.813   3.521 -0.0766  0.2216 -0.2921
  955MOL0     C28845   9.938   1.711   3.563  0.3894  0.5725 -0.2734
  955MOL0     C28846   9.865   1.717   3.686  0.9706  0.7198  0.5090
  955MOL0     C28847   9.861   1.834   3.756  0.1245  1.3387  0.2634
  955MOL0     O28848   9.810   1.835   3.886  1.0550  0.2720  0.0459
  955MOL0     C28849   9.782   1.711   3.955 -0.0683 -1.0787 -0.0607
  955MOL0     C28850   9.757   1.743   4.107 -0.7558 -1.2335 -0.1270
  955MOL0     C28851   9.663   1.658   4.178 -0.3605  0.4885  0.8555
  955MOL0     C28852   9.692   1.667   4.322  0.4353  0.2008  0.0983
  955MOL0     C28853   9.807   1.580   4.346 -0.1908  0.4663  0.1234
  955MOL0     C28854   9.904   1.515   4.371 -1.2866  0.6545  0.9077
  955MOL0     C28855   9.944   1.933   3.721  0.3327 -0.3413  0.0860
  955MOL0     C28856  10.025   1.925   3.603  0.4849 -0.5213  0.4401
  955MOL0     C28857  10.133   2.025   3.609  0.3273 -0.8098 -0.2555
  955MOL0     H28858  10.275   1.495   3.339  3.3782  2.7330  2.0719
  955MOL0     H28859  10.452   1.454   3.177  1.2867  0.8045 -2.7030
  955MOL0     H28860  10.604   1.439   2.842  1.5150  0.6819  2.8019
  955MOL0     H28861  10.541   1.397   2.996 -4.3325 -0.7407  1.2869
  955MOL0     H28862  10.332   1.330   2.918  2.2758 -1.1536  0.3233
  955MOL0     H28863  10.446   1.256   2.815 -2.1658 -1.3119  0.0809
  955MOL0     H28864  10.270   1.506   2.748  0.4530  0.5574  0.8352
  955MOL0     H28865  10.268   1.346   2.675 -0.3670 -0.7769  1.2402
  955MOL0     H28866  10.512   1.531   2.641 -0.9032  1.2827  0.7864
  955MOL0     H28867  10.478   1.367   2.573 -1.3386 -0.1650 -0.5412
  955MOL0     H28868  10.291   1.451   2.458  2.1985 -2.0629  1.4419
  955MOL0     H28869  10.329   1.623   2.499  1.5760  1.8469 -0.7558
  955MOL0     H28870  10.463   1.662   2.330  3.5506  0.7508  1.0808
  955MOL0     H28871  10.568   1.548   2.412  0.3458  1.4076  0.3475
  955MOL0     H28872  10.395   1.519   2.174  1.9389 -1.1394 -3.6337
  955MOL0     H28873  10.431   1.365   2.262 -2.6694  0.6821  0.4093
  955MOL0     H28874  10.597   1.511   2.073 -1.8359 -1.3625 -0.6368
  955MOL0     H28875  10.669   1.529   2.233  0.6756  0.2483 -1.3189
  955MOL0     H28876  10.785   1.314   1.981  3.5688 -2.8257 -0.9531
  955MOL0     H28877  10.870   0.957   2.123 -0.0993  0.2344  0.6496
  955MOL0     H28878  10.815   0.988   1.958  4.9911 -0.5470 -2.4865
  955MOL0     H28879  10.996   1.165   1.926 -0.2851  1.4557  2.2428
  955MOL0     H28880  11.051   1.110   2.090 -0.0927 -0.3824 -0.2539
  955MOL0     H28881  11.179   1.024   1.897 -1.1315  1.9725 -0.7078
  955MOL0     H28882  11.032   0.937   1.832  0.2927  2.5795 -1.6971
  955MOL0     H28883  11.029   0.803   2.033  0.6651 -1.8955 -2.4790
  955MOL0     H28884  11.129   0.920   2.120 -0.6612  2.4287 -1.0996
  955MOL0     H28885  11.250   0.794   1.724  1.5469  1.7634  3.1792
  955MOL0     H28886  11.203   0.598   1.590  0.6126  2.4678 -0.1899
  955MOL0     H28887  11.242   0.090   1.619  3.3928 -0.6369 -0.1949
  955MOL0     H28888  11.260  -0.100   1.458 -0.1382 -0.7943 -1.4001
  955MOL0     H28889  11.164  -0.220   1.048  0.1899  0.4392 -0.2588
  955MOL0     H28890  11.067  -0.071   1.058 -1.5670 -0.9032  1.8193
  955MOL0     H28891  11.235   0.003   0.930  0.7019  3.0547  2.1017
  955MOL0     H28892  11.352   0.003   1.069  1.2474  1.3135 -2.7449
  955MOL0     H28893  11.341  -0.169   0.832 -1.1074  0.5141  0.0979
  955MOL0     H28894  11.471  -0.089   0.921  1.1599 -1.1313  1.8983
  955MOL0     H28895  11.332  -0.330   1.038  0.6978 -1.0649 -0.9899
  955MOL0     H28896  11.479  -0.242   1.097  2.0869 -1.1917  0.0743
  955MOL0     H28897  11.467  -0.378   0.818 -1.7136 -0.4905  1.2167
  955MOL0     H28898  11.512  -0.467   0.966 -1.8934 -0.9567 -1.1014
  955MOL0     H28899  11.647  -0.239   0.816  5.2536  0.9083  0.2361
  955MOL0     H28900  11.678  -0.248   0.989  1.0968 -1.1035 -0.4616
  955MOL0     H28901  11.751  -0.453   0.773  4.0138  0.0023  0.1025
  955MOL0     H28902  11.730  -0.504   0.942 -0.2279 -0.0035 -1.4807
  955MOL0     H28903  11.927  -0.318   0.992  0.1603  0.4170  1.2894
  955MOL0     H28904  11.964  -0.471   0.899 -1.1104 -0.5366  1.3367
  955MOL0     H28905  11.160   0.152   1.132 -2.7989  1.8918  1.1747
  955MOL0     H28906  11.184   0.344   1.273 -1.4973 -1.3650 -2.3508
  955MOL0     H28907  11.155   0.370   1.959  0.7085  0.4577  1.0346
  955MOL0     H28908  11.191   0.571   2.085  0.5236 -2.5722  0.4933
  955MOL0     H28909  10.265   1.720   2.901  2.0903  3.1897  1.3663
  955MOL0     H28910  10.090   1.780   3.079  0.4436  0.2581 -2.1070
  955MOL0     H28911   9.939   1.609   3.528 -1.5937 -1.2564  4.1915
  955MOL0     H28912   9.821   1.628   3.729  0.9576 -0.2378 -1.3783
  955MOL0     H28913   9.867   1.642   3.951  0.1669 -1.2426  3.7213
  955MOL0     H28914   9.694   1.668   3.905  0.7449  0.8239 -3.3726
  955MOL0     H28915   9.707   1.840   4.113  2.4263  0.4582  0.9430
  955MOL0     H28916   9.843   1.774   4.166 -1.4027 -0.9413  0.6800
  955MOL0     H28917   9.662   1.556   4.140 -2.4268  0.2143  1.4830
  955MOL0     H28918   9.563   1.702   4.168  0.1747  2.2138  2.3753
  955MOL0     H28919   9.707   1.773   4.346  0.5679  0.1586  0.2027
  955MOL0     H28920   9.604   1.625   4.372 -2.0822  0.0477 -3.9677
  955MOL0     H28921   9.986   1.450   4.392 -1.3186  0.5413  0.6910
  955MOL0     H28922   9.959   2.013   3.793 -1.2086 -1.2278  1.4899
  955MOL0     H28923  10.089   2.122   3.582 -1.3745 -1.3502  0.4140
  955MOL0     H28924  10.181   2.035   3.707 -0.8731  0.3702  0.2445
  955MOL0     H28925  10.218   2.004   3.544 -0.7274 -0.8007 -1.6715
  956MOL0     O28926   2.488   9.911   2.567 -0.1749 -0.1669 -0.0596
  956MOL0     C28927   2.539   9.812   2.624  0.0817 -0.3277 -0.3073
  956MOL0     O28928   2.663   9.805   2.669 -0.3455  0.3947 -0.6564
  956MOL0     C28929   2.746   9.911   2.660 -0.8523 -0.0241 -0.0815
  956MOL0     C28930   2.814   9.931   2.544 -0.7867  0.3964  0.2865
  956MOL0     C28931   2.923  10.013   2.531 -0.1833  0.4613  0.4748
  956MOL0     C28932   2.962  10.086   2.639 -0.1534  0.1873 -0.4702
  956MOL0     O28933   3.073  10.161   2.623 -0.2539  0.2736 -0.0591
  956MOL0     C28934   3.159  10.172   2.745 -0.2602  0.0526  1.4005
  956MOL0     C28935   3.256  10.288   2.721  0.0190 -0.5973 -0.0782
  956MOL0     C28936   3.393  10.252   2.669  0.3682  0.8912 -0.1590
  956MOL0     C28937   3.490  10.372   2.664  0.2109 -0.5878  0.5462
  956MOL0     C28938   3.607  10.325   2.577  0.7518 -0.1361  0.5713
  956MOL0     C28939   3.706  10.432   2.545 -0.8508  0.2779 -0.3707
  956MOL0     C28940   3.771  10.483   2.670  0.8631 -0.2795  0.0039
  956MOL0     C28941   3.905  10.552   2.651  1.3259 -0.1057 -0.4383
  956MOL0     N28942   3.950  10.603   2.785 -0.8769  0.0877  0.0484
  956MOL0     C28943   4.078  10.610   2.826 -0.3225  0.9187  0.1007
  956MOL0     C28944   4.081  10.680   2.943  0.1067  1.0851  1.0253
  956MOL0     C28945   4.206  10.696   3.024 -0.0846  0.9606 -0.3186
  956MOL0     C28946   4.180  10.626   3.159  0.7664 -0.0287 -0.1900
  956MOL0     C28947   4.136  10.729   3.265  0.3767 -0.5950 -0.6958
  956MOL0     C28948   4.024  10.669   3.359  0.0238  0.0124  0.0719
  956MOL0     O28949   3.964  10.760   3.454 -0.1081 -0.4011 -0.6108
  956MOL0     C28950   3.828  10.736   3.476 -1.2439 -0.0586 -0.4016
  956MOL0     C28951   3.750  10.798   3.385  0.3194 -0.1740 -0.2891
  956MOL0     C28952   3.611  10.790   3.405  0.1498  0.7304  0.5619
  956MOL0     C28953   3.549  10.712   3.506  0.4205  0.3087 -1.0313
  956MOL0     C28954   3.402  10.684   3.520  0.5620 -0.3357  0.4580
  956MOL0     O28955   3.321  10.745   3.431 -0.2950 -0.2614  0.2824
  956MOL0     C28956   3.191  10.735   3.450 -0.0237 -0.4505 -0.1872
  956MOL0     C28957   3.113  10.815   3.530  0.6272 -0.8521  0.1779
  956MOL0     C28958   2.975  10.799   3.540  0.4636 -0.5601 -0.4846
  956MOL0     C28959   2.911  10.694   3.473 -0.3422  0.4505  0.3788
  956MOL0     O28960   2.783  10.656   3.504  0.2485 -0.3699 -0.0777
  956MOL0     C28961   2.740  10.683   3.646 -0.2391 -0.0039  0.1242
  956MOL0     C28962   2.611  10.602   3.657  0.4797 -0.5417 -0.2676
  956MOL0     C28963   2.492  10.665   3.583  1.2381  0.1474  1.1866
  956MOL0     C28964   2.447  10.809   3.626 -0.1104  0.8955  0.0020
  956MOL0     C28965   2.299  10.834   3.586  0.4617  0.7564  0.0458
  956MOL0     C28966   2.205  10.783   3.699  0.0288  0.3223  0.4567
  956MOL0     C28967   2.086  10.708   3.644 -0.4325 -0.0125 -0.0450
  956MOL0     C28968   1.940  10.746   3.709 -0.3044 -0.2725  0.1540
  956MOL0    Cl28969   1.907  10.914   3.680  0.0624  0.0769 -0.0738
  956MOL0     C28970   2.993  10.614   3.383  0.5276 -0.2574 -0.7996
  956MOL0     C28971   3.131  10.637   3.375 -0.4383  0.0219  0.5501
  956MOL0     O28972   3.370  10.607   3.609  0.5826 -0.9749  0.1333
  956MOL0     C28973   3.636  10.666   3.603 -0.2501  1.0347 -0.7772
  956MOL0     C28974   3.774  10.673   3.590 -0.5261  0.8889  0.5099
  956MOL0     N28975   3.953  10.716   2.970 -0.0952 -0.6603 -0.3459
  956MOL0     N28976   3.883  10.668   2.872 -0.4445 -0.0448 -1.1320
  956MOL0     C28977   2.890  10.070   2.757 -0.1977 -0.6712 -0.7040
  956MOL0     C28978   2.779   9.984   2.772  0.1851  0.8642  0.1600
  956MOL0     C28979   2.450   9.704   2.647 -0.2766  0.0428 -0.2132
  956MOL0     C28980   2.313   9.732   2.674 -0.0736  0.0635  0.0346
  956MOL0     C28981   2.211   9.631   2.674  0.1159  0.9310 -0.3344
  956MOL0     C28982   2.255   9.496   2.672 -0.2073 -0.6304 -0.9051
  956MOL0     O28983   2.165   9.389   2.681 -0.3034  0.5353 -1.1283
  956MOL0     C28984   2.111   9.357   2.815  0.9741 -0.2248 -0.0372
  956MOL0     C28985   1.958   9.378   2.814 -1.2180 -0.3181  0.6995
  956MOL0     C28986   1.899   9.374   2.956 -0.3274  0.0353  0.1690
  956MOL0     C28987   1.893   9.235   3.013  0.0177  0.3943  0.1242
  956MOL0     C28988   1.802   9.150   2.939  0.2962  0.0982  0.2153
  956MOL0     C28989   1.723   9.072   2.879 -0.2811 -0.2570  0.5770
  956MOL0     C28990   2.391   9.469   2.647 -0.4376 -0.5273  0.8106
  956MOL0     C28991   2.486   9.574   2.626  0.4560  1.4055  0.2324
  956MOL0     C28992   2.616   9.526   2.568  0.1726  0.1771  0.2245
  956MOL0     H28993   2.793   9.866   2.460  1.4201 -0.9703  0.7140
  956MOL0     H28994   2.975  10.032   2.438 -1.8729 -0.4356 -0.6982
  956MOL0     H28995   3.112  10.192   2.842  0.4554  1.0722  1.5511
  956MOL0     H28996   3.214  10.078   2.759 -1.9528 -1.2480 -0.1836
  956MOL0     H28997   3.279  10.350   2.808  3.0252  2.7637 -2.9347
  956MOL0     H28998   3.217  10.365   2.653 -1.4863 -0.3574  1.0042
  956MOL0     H28999   3.377  10.211   2.570 -1.3531 -2.7856  1.4624
  956MOL0     H29000   3.433  10.169   2.729 -1.5603  0.6369  0.8618
  956MOL0     H29001   3.430  10.453   2.621 -0.7582 -1.8173 -0.4721
  956MOL0     H29002   3.518  10.398   2.767 -1.8801  1.3002  0.7042
  956MOL0     H29003   3.658  10.242   2.626 -1.7242 -2.5458 -0.6502
  956MOL0     H29004   3.572  10.296   2.477 -1.4015  0.9003  0.9456
  956MOL0     H29005   3.793  10.396   2.489 -0.0461 -0.2207  1.1158
  956MOL0     H29006   3.655  10.505   2.482 -2.2437  0.4090  0.8438
  956MOL0     H29007   3.777  10.397   2.737  1.3837 -0.5767 -0.4105
  956MOL0     H29008   3.704  10.551   2.723 -0.7546 -1.6280 -0.2450
  956MOL0     H29009   3.989  10.487   2.626  2.5605  1.4339 -0.4207
  956MOL0     H29010   3.895  10.629   2.575  0.4057 -1.3671 -1.6621
  956MOL0     H29011   4.170  10.584   2.775  0.7727  2.0781  1.4226
  956MOL0     H29012   4.296  10.653   2.979 -1.6439 -1.0581 -1.6825
  956MOL0     H29013   4.221  10.802   3.044 -0.8957  1.3378 -1.6079
  956MOL0     H29014   4.112  10.540   3.153  0.0390  0.5204  0.0719
  956MOL0     H29015   4.277  10.588   3.192  0.4259  0.5933  1.6551
  956MOL0     H29016   4.093  10.818   3.218 -0.2482 -0.3263  0.3526
  956MOL0     H29017   4.226  10.750   3.323 -1.2260  0.9809  1.3799
  956MOL0     H29018   4.066  10.584   3.413  2.3045  0.8579 -0.2517
  956MOL0     H29019   3.945  10.630   3.294  1.7677 -0.9642 -1.5387
  956MOL0     H29020   3.794  10.859   3.306 -0.2778  1.4419  0.5667
  956MOL0     H29021   3.553  10.847   3.333 -1.6173  1.1314  2.2078
  956MOL0     H29022   3.159  10.895   3.588  0.6141  0.6099 -1.7209
  956MOL0     H29023   2.920  10.870   3.601  1.3952  0.5034 -0.8505
  956MOL0     H29024   2.813  10.652   3.721 -0.2498 -1.6663 -0.5230
  956MOL0     H29025   2.713  10.788   3.660 -1.0274 -0.2104  0.2021
  956MOL0     H29026   2.622  10.497   3.629 -0.6002 -0.8106  0.2492
  956MOL0     H29027   2.598  10.582   3.764  0.6091 -0.1076 -0.1686
  956MOL0     H29028   2.501  10.655   3.475 -3.0841 -2.7224  0.8379
  956MOL0     H29029   2.408  10.597   3.603 -0.0133  0.5926 -2.0215
  956MOL0     H29030   2.516  10.877   3.574 -1.5965  1.4868 -1.2615
  956MOL0     H29031   2.464  10.819   3.734 -1.6142 -2.3253  0.6422
  956MOL0     H29032   2.278  10.793   3.487  0.5167  0.0284  0.3297
  956MOL0     H29033   2.277  10.941   3.584 -3.1688  0.1466 -0.6138
  956MOL0     H29034   2.254  10.715   3.770 -1.7796  1.1450  2.6285
  956MOL0     H29035   2.189  10.875   3.756  2.7930  2.4485 -1.9228
  956MOL0     H29036   2.107  10.602   3.666  0.6792 -0.1897 -1.7847
  956MOL0     H29037   2.091  10.711   3.535 -2.4225  2.4437 -0.1622
  956MOL0     H29038   1.861  10.687   3.661 -0.1101 -0.5069  0.1216
  956MOL0     H29039   1.933  10.708   3.811  0.7008 -1.1001 -0.0705
  956MOL0     H29040   2.942  10.539   3.323  0.5134  0.7937 -2.1583
  956MOL0     H29041   3.193  10.574   3.313  1.3798 -0.7546  2.9910
  956MOL0     H29042   3.608  10.623   3.699 -2.1457 -1.1498 -2.1892
  956MOL0     H29043   3.844  10.636   3.664 -0.2840  0.1569 -0.0670
  956MOL0     H29044   2.914  10.134   2.841 -1.1135  1.6671 -2.1092
  956MOL0     H29045   2.715   9.994   2.859 -1.0487 -0.0686 -0.5960
  956MOL0     H29046   2.268   9.830   2.689 -0.7818 -0.2378 -0.0513
  956MOL0     H29047   2.105   9.651   2.683 -0.0158 -0.1253  0.6152
  956MOL0     H29048   2.164   9.417   2.890 -2.8945  0.5603  2.3233
  956MOL0     H29049   2.145   9.255   2.838 -1.8037 -1.1418  0.3236
  956MOL0     H29050   1.918   9.312   2.735  0.4545 -1.3938  0.7179
  956MOL0     H29051   1.937   9.479   2.777 -0.8604  0.4197  2.4307
  956MOL0     H29052   1.801   9.421   2.943 -0.3032 -0.0007 -0.1590
  956MOL0     H29053   1.958   9.435   3.025 -0.9403 -0.5693  1.2549
  956MOL0     H29054   1.990   9.184   3.014 -1.5611 -3.0533 -2.5005
  956MOL0     H29055   1.859   9.252   3.115  1.4157 -1.2287  0.9172
  956MOL0     H29056   1.646   9.007   2.842  0.3135 -1.1087  0.7938
  956MOL0     H29057   2.424   9.366   2.637  1.1539  0.0656 -0.5941
  956MOL0     H29058   2.703   9.575   2.614  0.3306 -1.0740  1.3063
  956MOL0     H29059   2.627   9.418   2.557  0.5668  0.5096 -4.4977
  956MOL0     H29060   2.628   9.566   2.467 -2.9191 -0.1420 -0.3511
  957MOL0     O29061   1.841   3.253  10.539 -0.2117  0.2780  0.6023
  957MOL0     C29062   1.952   3.301  10.541 -0.3460  0.4403  0.3928
  957MOL0     O29063   2.048   3.270  10.447 -0.5939  0.8417  0.4430
  957MOL0     C29064   2.035   3.151  10.368  0.4583  0.5037  0.1508
  957MOL0     C29065   2.073   3.159  10.230 -0.4586  0.9074 -0.5049
  957MOL0     C29066   2.057   3.051  10.146 -0.4484  0.7983 -0.3397
  957MOL0     C29067   2.009   2.929  10.191  0.4922  0.6004 -0.1776
  957MOL0     O29068   1.980   2.819  10.116  0.7061  0.4130  0.0825
  957MOL0     C29069   2.023   2.792   9.988  0.5340  0.1716 -0.1269
  957MOL0     C29070   1.933   2.864   9.888  0.2157 -0.5889 -0.0895
  957MOL0     C29071   1.780   2.824   9.908 -0.3517  0.0638 -0.1010
  957MOL0     C29072   1.682   2.883   9.804  0.4050  0.0107  0.8267
  957MOL0     C29073   1.548   2.813   9.812 -0.5961 -0.9568 -0.5035
  957MOL0     C29074   1.446   2.919   9.779  0.6254  0.5914  0.0618
  957MOL0     C29075   1.443   2.958   9.628 -0.3573  0.6532  0.6482
  957MOL0     C29076   1.332   3.050   9.592 -0.5482 -0.4598 -0.4963
  957MOL0     N29077   1.351   3.184   9.657 -0.1947 -0.8697 -0.2327
  957MOL0     C29078   1.450   3.272   9.630  0.1094 -1.0717  0.7835
  957MOL0     C29079   1.412   3.383   9.695 -0.4227 -0.5015  0.3114
  957MOL0     C29080   1.477   3.517   9.678 -0.3476 -0.6865  0.0052
  957MOL0     C29081   1.507   3.555   9.530  0.2847  0.4554 -0.8139
  957MOL0     C29082   1.374   3.581   9.441  0.0503  0.8607  0.2356
  957MOL0     C29083   1.406   3.571   9.287  0.4774 -0.6268  0.7314
  957MOL0     O29084   1.456   3.446   9.247  0.1556  0.6921 -0.4939
  957MOL0     C29085   1.452   3.411   9.114 -0.7147  0.2420 -0.1098
  957MOL0     C29086   1.373   3.468   9.010 -0.2532 -0.5052  0.7643
  957MOL0     C29087   1.374   3.421   8.876  0.0500  0.1205 -0.8549
  957MOL0     C29088   1.452   3.312   8.847  0.1376  0.5431 -0.0976
  957MOL0     C29089   1.460   3.246   8.715 -0.4811 -0.4358  0.0958
  957MOL0     O29090   1.538   3.137   8.700  0.4625  1.1244 -0.8943
  957MOL0     C29091   1.569   3.091   8.573  0.0414 -0.4040  0.8094
  957MOL0     C29092   1.567   3.164   8.449 -0.3711 -0.5841  0.6379
  957MOL0     C29093   1.607   3.097   8.335  0.7881  0.6415  0.0867
  957MOL0     C29094   1.643   2.960   8.340 -0.2201 -0.9211 -0.3470
  957MOL0     O29095   1.669   2.904   8.214  0.1937 -0.2679  0.1521
  957MOL0     C29096   1.559   2.833   8.160 -0.0839 -0.1486  0.2141
  957MOL0     C29097   1.574   2.798   8.001  0.0800  0.5772 -0.0187
  957MOL0     C29098   1.561   2.927   7.916  0.4627  0.4756  0.6531
  957MOL0     C29099   1.621   2.921   7.781  0.0099 -0.0882  0.8677
  957MOL0     C29100   1.656   3.060   7.734  0.2573 -0.2916  0.6802
  957MOL0     C29101   1.752   3.028   7.609 -0.2778 -0.7405  1.3613
  957MOL0     C29102   1.777   3.153   7.533  0.1415 -0.5144  0.0250
  957MOL0     C29103   1.818   3.125   7.386  0.1960 -0.0645  0.2941
  957MOL0    Cl29104   1.685   3.053   7.283 -0.3892 -0.2472  0.0925
  957MOL0     C29105   1.647   2.895   8.465  0.7906  0.0375 -0.6934
  957MOL0     C29106   1.605   2.956   8.578 -0.1773  0.3179 -0.4615
  957MOL0     O29107   1.402   3.302   8.626  0.4115  0.5299  1.0880
  957MOL0     C29108   1.537   3.252   8.951  0.1216 -0.1765 -0.4047
  957MOL0     C29109   1.531   3.303   9.082 -1.2464  0.0783 -0.1970
  957MOL0     N29110   1.296   3.363   9.760 -0.4034  0.1489 -0.1195
  957MOL0     N29111   1.264   3.241   9.745 -0.4770 -0.5226 -0.2747
  957MOL0     C29112   1.975   2.919  10.329  0.8456 -1.0918  0.0078
  957MOL0     C29113   1.977   3.029  10.415 -0.1410  0.0611  0.1847
  957MOL0     C29114   1.987   3.401  10.638 -0.2658  0.2486  0.6590
  957MOL0     C29115   1.910   3.515  10.641 -0.2592 -0.8217 -0.3347
  957MOL0     C29116   1.945   3.628  10.717  0.8554 -1.1712 -0.2397
  957MOL0     C29117   2.061   3.624  10.801  0.2268 -0.3497  0.6562
  957MOL0     O29118   2.123   3.726  10.856 -0.1226 -0.0449  0.5326
  957MOL0     C29119   2.078   3.857  10.820  0.1959  0.9077 -0.0285
  957MOL0     C29120   2.193   3.958  10.844 -0.1213  0.4587 -0.2834
  957MOL0     C29121   2.299   3.961  10.739  0.1244  0.5632  0.4205
  957MOL0     C29122   2.435   4.016  10.776  0.3172  0.6395 -0.4801
  957MOL0     C29123   2.529   3.977  10.670 -0.4974  0.3002 -0.6613
  957MOL0     C29124   2.604   3.940  10.586 -0.1080  0.4146 -0.1690
  957MOL0     C29125   2.124   3.507  10.810  0.0053  0.4150  0.5306
  957MOL0     C29126   2.097   3.396  10.731  0.0869  1.1629  0.4016
  957MOL0     C29127   2.192   3.283  10.736  0.1077  0.0444 -0.8646
  957MOL0     H29128   2.108   3.257  10.197  1.3190  0.4054 -0.2062
  957MOL0     H29129   2.088   3.073  10.044  0.8837  0.0105 -0.1265
  957MOL0     H29130   2.126   2.823   9.968 -0.8700  4.7167 -1.4387
  957MOL0     H29131   2.035   2.688   9.957 -1.0045 -0.0310 -0.0916
  957MOL0     H29132   1.965   2.849   9.785 -2.6878 -1.3011 -0.9930
  957MOL0     H29133   1.936   2.971   9.911  0.9825 -0.8129  0.9423
  957MOL0     H29134   1.738   2.839  10.008 -2.7387 -3.5237 -0.3576
  957MOL0     H29135   1.768   2.716   9.895 -0.9716  0.1085  0.0430
  957MOL0     H29136   1.683   2.990   9.827 -1.0972 -0.3146  2.6025
  957MOL0     H29137   1.726   2.862   9.706  3.5594  1.7167  1.7510
  957MOL0     H29138   1.528   2.732   9.742  1.1892 -0.1421 -2.0276
  957MOL0     H29139   1.522   2.781   9.913 -0.8801 -0.8761 -0.5506
  957MOL0     H29140   1.346   2.888   9.811  0.5741  0.9470  0.2515
  957MOL0     H29141   1.463   3.013   9.831 -0.6368 -0.4929  2.6003
  957MOL0     H29142   1.429   2.861   9.580 -0.3093  0.7397  0.4605
  957MOL0     H29143   1.536   3.003   9.591  0.6434 -2.9831 -1.7874
  957MOL0     H29144   1.336   3.061   9.483  0.0815 -1.8334 -0.6256
  957MOL0     H29145   1.230   3.027   9.626 -1.1379  2.0067 -0.3696
  957MOL0     H29146   1.547   3.265   9.581  0.8826  0.3336  1.9989
  957MOL0     H29147   1.418   3.599   9.720  1.6461  0.6214  0.4011
  957MOL0     H29148   1.572   3.513   9.733  2.9398 -1.5462 -5.0756
  957MOL0     H29149   1.571   3.643   9.539  0.5226  0.1502  0.7240
  957MOL0     H29150   1.563   3.469   9.492 -2.6877 -1.8517 -0.3760
  957MOL0     H29151   1.313   3.668   9.469  0.2315  0.6122  1.4835
  957MOL0     H29152   1.305   3.498   9.459 -2.8360  2.7453 -1.3158
  957MOL0     H29153   1.476   3.644   9.245  2.1979 -2.2712  0.5984
  957MOL0     H29154   1.307   3.585   9.242  0.1040 -0.7900  1.4881
  957MOL0     H29155   1.303   3.545   9.039  0.9656  0.7998  0.3553
  957MOL0     H29156   1.322   3.475   8.799  1.5116  0.8105 -1.3953
  957MOL0     H29157   1.563   3.273   8.443 -3.3989 -0.6504 -0.1616
  957MOL0     H29158   1.622   3.145   8.239  2.0549  0.0839 -0.0081
  957MOL0     H29159   1.556   2.735   8.209  2.9161  1.2805  3.6040
  957MOL0     H29160   1.464   2.888   8.167 -1.0450 -1.5675 -0.8974
  957MOL0     H29161   1.675   2.757   7.991  0.9208  2.0840  1.8886
  957MOL0     H29162   1.498   2.728   7.964 -0.1014  1.9623 -2.4911
  957MOL0     H29163   1.457   2.959   7.906 -0.3124 -1.9363  0.3425
  957MOL0     H29164   1.620   3.001   7.971  2.0210 -0.3405  0.1309
  957MOL0     H29165   1.545   2.877   7.717  1.3123  1.1585 -1.6705
  957MOL0     H29166   1.711   2.858   7.783 -0.2501 -0.5426 -0.6118
  957MOL0     H29167   1.705   3.113   7.816  0.3482  0.3869  0.1928
  957MOL0     H29168   1.567   3.121   7.717 -1.8583 -2.9685  1.3513
  957MOL0     H29169   1.850   2.996   7.646  1.6361 -2.8236 -4.3634
  957MOL0     H29170   1.720   2.947   7.542  3.8002  0.1368 -2.0452
  957MOL0     H29171   1.850   3.216   7.584  2.2622 -1.3838 -1.8041
  957MOL0     H29172   1.684   3.211   7.521  0.5189 -0.1628 -1.4768
  957MOL0     H29173   1.846   3.211   7.325 -1.7209 -0.9454 -1.9790
  957MOL0     H29174   1.913   3.072   7.377 -0.7890 -2.1108  1.3663
  957MOL0     H29175   1.676   2.791   8.473 -1.8463 -0.7389 -0.0553
  957MOL0     H29176   1.606   2.905   8.673 -2.2844 -0.9156 -1.0310
  957MOL0     H29177   1.609   3.173   8.930 -0.5458 -0.5101 -1.5083
  957MOL0     H29178   1.596   3.261   9.158 -0.9727 -2.0796 -1.5376
  957MOL0     H29179   1.910   2.834  10.349 -1.5775  0.1490 -1.9538
  957MOL0     H29180   1.945   3.014  10.518  4.0868  1.5259  1.9003
  957MOL0     H29181   1.822   3.498  10.580  0.4984 -0.0516 -1.6802
  957MOL0     H29182   1.888   3.717  10.694  0.2221 -1.5187 -0.0591
  957MOL0     H29183   1.988   3.891  10.872 -0.4620 -2.5158  1.3033
  957MOL0     H29184   2.061   3.867  10.712  0.3362 -0.8874 -0.2548
  957MOL0     H29185   2.247   3.925  10.934  0.7008 -0.9933 -1.2688
  957MOL0     H29186   2.159   4.060  10.865  0.7963  0.6882  0.1769
  957MOL0     H29187   2.269   4.003  10.643  0.1944 -1.5752 -0.6016
  957MOL0     H29188   2.304   3.859  10.700 -1.1934  0.5452  0.2742
  957MOL0     H29189   2.437   4.122  10.801  0.5706  0.1963  1.4757
  957MOL0     H29190   2.473   3.962  10.863  1.5199  3.0555  0.5975
  957MOL0     H29191   2.666   3.904  10.506 -0.3555 -0.9165  0.2235
  957MOL0     H29192   2.206   3.496  10.881  0.3536  0.9139  0.2106
  957MOL0     H29193   2.220   3.279  10.842 -0.9380 -1.3023 -0.6160
  957MOL0     H29194   2.148   3.186  10.711  3.6027 -1.2296 -2.7915
  957MOL0     H29195   2.274   3.300  10.665 -0.0313 -2.1257 -1.6439
  958MOL0     O29196   0.214   4.667  10.029  0.1386 -0.7687  0.4991
  958MOL0     C29197   0.203   4.789  10.012  0.2909  0.5125 -0.8642
  958MOL0     O29198   0.280   4.864   9.927 -1.0207 -0.1969 -0.2249
  958MOL0     C29199   0.382   4.807   9.851 -0.3056 -0.9954  0.8149
  958MOL0     C29200   0.511   4.811   9.897  0.5746  0.2358  0.5580
  958MOL0     C29201   0.622   4.777   9.829 -0.7804 -0.5447  0.2477
  958MOL0     C29202   0.602   4.729   9.699  0.7336  0.6429  0.0729
  958MOL0     O29203   0.713   4.680   9.634 -0.7683  0.0845 -0.0229
  958MOL0     C29204   0.848   4.685   9.686  0.1033 -0.2151 -0.2227
  958MOL0     C29205   0.890   4.833   9.662 -0.2870 -0.2276 -0.7759
  958MOL0     C29206   1.027   4.861   9.709 -0.2776 -1.0143  0.9338
  958MOL0     C29207   1.061   5.012   9.670  0.3702 -0.5863 -0.9206
  958MOL0     C29208   1.205   5.047   9.626  0.0147 -0.0120  0.4098
  958MOL0     C29209   1.207   5.002   9.472 -0.1971 -1.0096  0.4600
  958MOL0     C29210   1.349   4.990   9.425  0.7450 -0.4286 -0.2959
  958MOL0     C29211   1.416   5.123   9.418 -0.2776 -0.1897  1.1869
  958MOL0     N29212   1.555   5.106   9.394 -0.5796  0.3477  0.3898
  958MOL0     C29213   1.647   5.007   9.424 -0.2726  0.2340 -0.3772
  958MOL0     C29214   1.769   5.049   9.376 -0.3533  0.3378  0.7893
  958MOL0     C29215   1.900   4.961   9.390 -0.0466 -0.3740  0.1860
  958MOL0     C29216   1.886   4.822   9.458  0.3055 -0.4906 -0.6080
  958MOL0     C29217   2.020   4.753   9.485 -0.3565 -0.5209  0.2159
  958MOL0     C29218   2.081   4.797   9.624 -0.1630  0.1639  0.3494
  958MOL0     O29219   2.022   4.722   9.721  0.6683  0.6623  0.2543
  958MOL0     C29220   2.091   4.695   9.834 -0.1451  0.1370  0.4803
  958MOL0     C29221   2.210   4.773   9.875  0.3156 -0.4754 -0.0896
  958MOL0     C29222   2.289   4.731   9.979  0.6357 -0.3881 -0.2052
  958MOL0     C29223   2.254   4.628  10.057  0.4834  0.7081  0.0056
  958MOL0     C29224   2.335   4.581  10.170 -0.9173  0.0218 -0.1976
  958MOL0     O29225   2.464   4.622  10.186 -0.1075 -0.1440  0.6022
  958MOL0     C29226   2.533   4.599  10.297 -0.0348  0.7611 -0.1156
  958MOL0     C29227   2.558   4.473  10.356  0.0889  0.9440 -0.5361
  958MOL0     C29228   2.638   4.463  10.478 -1.0104  0.6926 -1.1485
  958MOL0     C29229   2.710   4.580  10.527 -0.1335  0.0756 -1.2497
  958MOL0     O29230   2.795   4.576  10.632  0.5495  0.1258 -0.2605
  958MOL0     C29231   2.757   4.486  10.738 -0.2048 -1.0335 -0.3229
  958MOL0     C29232   2.872   4.460  10.835  0.1813 -0.2347  0.1158
  958MOL0     C29233   3.004   4.424  10.766  0.3694 -0.9336 -0.4324
  958MOL0     C29234   3.111   4.375  10.875 -0.1289 -0.0270 -0.0076
  958MOL0     C29235   3.246   4.337  10.810 -0.8661 -0.2864  0.0942
  958MOL0     C29236   3.355   4.337  10.923  0.6703 -0.9648  0.1823
  958MOL0     C29237   3.349   4.204  10.997  0.2570 -0.1787  0.4380
  958MOL0     C29238   3.432   4.203  11.120  0.4538  0.2469  0.4604
  958MOL0    Cl29239   3.418   4.033  11.189 -0.1722 -0.4795 -0.3241
  958MOL0     C29240   2.698   4.698  10.457 -0.2280 -0.1022 -0.0579
  958MOL0     C29241   2.614   4.710  10.345  0.1056 -0.9643  0.5641
  958MOL0     O29242   2.289   4.497  10.243  0.2183 -0.4498 -0.4012
  958MOL0     C29243   2.139   4.552  10.026  0.3392 -0.8905 -0.6334
  958MOL0     C29244   2.053   4.595   9.921 -0.0679  0.5331 -0.2060
  958MOL0     N29245   1.745   5.171   9.330  0.0561 -0.3124  0.4997
  958MOL0     N29246   1.625   5.210   9.346  0.6964 -0.5349  0.2452
  958MOL0     C29247   0.476   4.715   9.643  0.2923 -0.2620 -0.0996
  958MOL0     C29248   0.365   4.746   9.730 -0.2243  0.1010  0.2966
  958MOL0     C29249   0.099   4.848  10.104  0.1597 -0.5458  0.4375
  958MOL0     C29250   0.000   4.769  10.160 -0.7437  0.0423  0.1393
  958MOL0     C29251  -0.091   4.828  10.245  0.7568 -0.4726 -0.4805
  958MOL0     C29252  -0.100   4.963  10.278 -0.2975 -0.2746  0.1664
  958MOL0     O29253  -0.196   4.990  10.379  0.0633 -0.1678  0.0726
  958MOL0     C29254  -0.195   5.133  10.410 -0.3830 -0.2295 -0.5375
  958MOL0     C29255  -0.283   5.222  10.320 -0.6099  0.7620 -0.2678
  958MOL0     C29256  -0.429   5.175  10.311 -0.3662  0.2276  0.6273
  958MOL0     C29257  -0.495   5.241  10.200 -0.2504  0.3868  0.0511
  958MOL0     C29258  -0.633   5.215  10.194  0.4457 -0.2117 -0.1988
  958MOL0     C29259  -0.752   5.210  10.216  0.2140  1.0666  0.2839
  958MOL0     C29260  -0.005   5.045  10.215  0.1660  0.7163  0.4789
  958MOL0     C29261   0.095   4.992  10.127  0.4720  0.3928  0.2738
  958MOL0     C29262   0.188   5.090  10.066 -0.2000  0.1724 -0.4160
  958MOL0     H29263   0.531   4.844   9.999  1.3819  3.2480 -0.4883
  958MOL0     H29264   0.715   4.783   9.886 -2.0505 -0.5586  2.4653
  958MOL0     H29265   0.844   4.658   9.792 -0.2380 -0.1758 -0.2221
  958MOL0     H29266   0.923   4.620   9.640  0.7315  0.2570  0.1260
  958MOL0     H29267   0.818   4.894   9.717  0.1784 -0.9739  0.7216
  958MOL0     H29268   0.874   4.865   9.558 -0.6647  0.9329 -0.3726
  958MOL0     H29269   1.095   4.797   9.651 -0.2345  0.8953 -1.2685
  958MOL0     H29270   1.024   4.850   9.818 -0.5693 -0.6923  0.9576
  958MOL0     H29271   1.003   5.038   9.581 -1.6500 -1.4232  0.0761
  958MOL0     H29272   1.022   5.085   9.743  0.3561 -1.1256 -0.3790
  958MOL0     H29273   1.226   5.154   9.638  5.3476 -0.4613 -2.0065
  958MOL0     H29274   1.278   4.988   9.681  0.5753 -0.3563 -0.6783
  958MOL0     H29275   1.168   4.902   9.454  0.7616 -1.1488 -1.0125
  958MOL0     H29276   1.155   5.077   9.412  0.4940 -0.2532  0.7820
  958MOL0     H29277   1.353   4.937   9.329 -3.8462  0.4633 -1.2678
  958MOL0     H29278   1.403   4.930   9.499  2.2023  0.6893 -0.4178
  958MOL0     H29279   1.367   5.176   9.336  1.5604 -0.8009 -0.3834
  958MOL0     H29280   1.412   5.180   9.511  0.2809  1.0152  0.4916
  958MOL0     H29281   1.629   4.908   9.467 -2.3397  0.1163 -1.3886
  958MOL0     H29282   1.940   4.948   9.288  1.7457 -1.7669  1.0111
  958MOL0     H29283   1.965   5.019   9.456  0.2694  0.1669 -0.5746
  958MOL0     H29284   1.825   4.832   9.549  0.8610  2.4989 -0.4631
  958MOL0     H29285   1.832   4.765   9.382  1.9891 -2.0542 -0.6814
  958MOL0     H29286   2.090   4.765   9.402 -1.1121 -0.0872 -0.3671
  958MOL0     H29287   2.018   4.644   9.487 -0.6183 -0.5458 -0.7996
  958MOL0     H29288   2.065   4.904   9.640  0.2053 -0.0265  2.1965
  958MOL0     H29289   2.190   4.795   9.630 -0.1377  1.0950  0.3368
  958MOL0     H29290   2.235   4.874   9.846  1.5062 -0.4512  0.9212
  958MOL0     H29291   2.372   4.793  10.013 -0.0105  2.2760 -3.0425
  958MOL0     H29292   2.495   4.395  10.314  0.2974  1.4075 -1.7171
  958MOL0     H29293   2.640   4.367  10.527  2.3728  0.8555 -0.7873
  958MOL0     H29294   2.677   4.533  10.796  0.7288  2.1705 -1.4564
  958MOL0     H29295   2.730   4.388  10.696  0.7804 -1.4956  0.0961
  958MOL0     H29296   2.894   4.540  10.906  1.7174 -1.2044  0.7910
  958MOL0     H29297   2.852   4.374  10.900  3.4578 -0.3794  1.1405
  958MOL0     H29298   2.978   4.341  10.701 -0.9398 -1.1228  0.2994
  958MOL0     H29299   3.041   4.513  10.714 -0.7167 -0.1999 -0.0034
  958MOL0     H29300   3.070   4.284  10.920  1.8168 -1.5413 -1.1240
  958MOL0     H29301   3.125   4.453  10.950 -1.7171 -0.0763  0.3855
  958MOL0     H29302   3.276   4.424  10.752 -0.4069  1.4132  2.7226
  958MOL0     H29303   3.245   4.244  10.752 -1.3552 -0.9355  1.1112
  958MOL0     H29304   3.455   4.362  10.886  0.5536  3.0971  2.0462
  958MOL0     H29305   3.331   4.415  10.996  0.1421 -0.4540 -0.5332
  958MOL0     H29306   3.381   4.122  10.931  0.3191 -0.9337  1.3851
  958MOL0     H29307   3.246   4.187  11.029  1.3674 -3.6322  2.7057
  958MOL0     H29308   3.535   4.217  11.085 -0.1628 -2.9628 -3.3143
  958MOL0     H29309   3.401   4.283  11.189 -0.3791  0.7624 -0.4804
  958MOL0     H29310   2.754   4.778  10.504  1.5658 -0.2797 -1.7555
  958MOL0     H29311   2.615   4.808  10.298 -0.2445 -1.9708 -1.6726
  958MOL0     H29312   2.109   4.465  10.084  0.5367  0.1160  1.0160
  958MOL0     H29313   1.960   4.547   9.894 -0.4479  1.6897 -1.0144
  958MOL0     H29314   0.463   4.672   9.544  1.6353 -1.6425  0.2785
  958MOL0     H29315   0.266   4.718   9.697  0.2308  0.8808 -1.9418
  958MOL0     H29316  -0.013   4.663  10.145 -1.7767 -0.0208  1.3322
  958MOL0     H29317  -0.161   4.760  10.293 -0.7395  1.7272  0.6279
  958MOL0     H29318  -0.096   5.176  10.429 -1.2285 -0.0976  5.8815
  958MOL0     H29319  -0.249   5.138  10.505  0.6716 -1.4378  0.1547
  958MOL0     H29320  -0.233   5.214  10.224  4.4721  1.3608  1.9907
  958MOL0     H29321  -0.290   5.322  10.364 -0.0716  0.3650  0.7680
  958MOL0     H29322  -0.482   5.213  10.399 -1.7917  1.0719 -0.5497
  958MOL0     H29323  -0.449   5.069  10.293 -1.0788  0.3596  0.6133
  958MOL0     H29324  -0.472   5.347  10.215 -1.0174  0.5407  0.1833
  958MOL0     H29325  -0.447   5.203  10.109 -0.5907 -0.4085  0.1927
  958MOL0     H29326  -0.850   5.176  10.246  0.8397 -2.7536 -1.4001
  958MOL0     H29327  -0.003   5.152  10.233  1.1356  0.7495  0.2395
  958MOL0     H29328   0.288   5.072  10.108 -1.7645 -1.9258  2.8045
  958MOL0     H29329   0.190   5.097   9.957 -4.3396  1.6539 -0.5756
  958MOL0     H29330   0.145   5.188  10.089  0.3386  0.5100 -0.8008
  959MOL0     O29331   7.400   1.591   8.670 -0.3345 -0.5358 -0.2823
  959MOL0     C29332   7.296   1.534   8.692  0.6691 -0.3854  0.2666
  959MOL0     O29333   7.185   1.554   8.620 -0.9072 -0.1240  0.3696
  959MOL0     C29334   7.160   1.674   8.548 -0.0810 -0.1794 -0.2109
  959MOL0     C29335   7.220   1.796   8.564 -0.2419 -0.2506 -0.2700
  959MOL0     C29336   7.178   1.907   8.491 -0.1803 -0.7437  0.9867
  959MOL0     C29337   7.085   1.894   8.393  0.4311  0.2454  0.0401
  959MOL0     O29338   7.061   2.017   8.336  0.2944  0.1041  0.1270
  959MOL0     C29339   6.966   2.028   8.233  0.3705 -1.0164 -0.0071
  959MOL0     C29340   6.956   2.183   8.213  0.1978 -0.3753  0.3360
  959MOL0     C29341   6.845   2.237   8.119  0.6705 -0.0385  0.6902
  959MOL0     C29342   6.847   2.391   8.106  0.1943 -0.6362  0.3718
  959MOL0     C29343   6.741   2.453   8.018 -0.5615  1.1457  0.0494
  959MOL0     C29344   6.599   2.377   8.000  0.0112 -0.5126  0.6057
  959MOL0     C29345   6.494   2.463   7.913  0.4710 -0.3536  0.0201
  959MOL0     C29346   6.353   2.400   7.933 -0.0292 -0.0796 -0.3458
  959MOL0     N29347   6.341   2.277   7.860 -0.3855  0.1852  0.2544
  959MOL0     C29348   6.333   2.265   7.719 -0.1369 -0.2251 -0.6216
  959MOL0     C29349   6.324   2.125   7.700 -0.1801 -0.0703 -0.7582
  959MOL0     C29350   6.324   2.043   7.583  0.7764 -0.1575  0.3741
  959MOL0     C29351   6.471   2.008   7.559 -0.3092 -0.2283 -0.4090
  959MOL0     C29352   6.490   1.940   7.420  0.3559 -0.2678 -0.1082
  959MOL0     C29353   6.634   1.906   7.391 -0.1304 -0.9138  0.1369
  959MOL0     O29354   6.682   1.810   7.482 -0.7694  0.3530 -0.1173
  959MOL0     C29355   6.817   1.798   7.502  0.6269  0.8093  0.3316
  959MOL0     C29356   6.923   1.847   7.419  0.6299 -0.2156 -0.0803
  959MOL0     C29357   7.055   1.832   7.448 -0.2824 -0.8042  0.1910
  959MOL0     C29358   7.101   1.752   7.544  0.5823  0.9235 -0.8185
  959MOL0     C29359   7.246   1.712   7.557  0.1455 -0.0507  0.5930
  959MOL0     O29360   7.285   1.641   7.669  0.3177 -0.4410  0.3704
  959MOL0     C29361   7.413   1.616   7.709  0.9254 -0.3866 -0.1337
  959MOL0     C29362   7.517   1.570   7.627  1.1416 -0.4640 -0.0563
  959MOL0     C29363   7.640   1.529   7.679 -1.3828 -0.7503  0.0747
  959MOL0     C29364   7.671   1.524   7.815 -0.3307 -0.3332 -0.3240
  959MOL0     O29365   7.805   1.493   7.854  0.1014 -0.2525  0.1512
  959MOL0     C29366   7.818   1.409   7.968  0.0174  0.6205 -1.0804
  959MOL0     C29367   7.953   1.396   8.037 -0.1681  0.7824 -0.4248
  959MOL0     C29368   8.060   1.329   7.953 -0.0881 -0.1883 -0.0831
  959MOL0     C29369   8.047   1.178   7.947 -0.4201  0.4688 -0.5312
  959MOL0     C29370   8.136   1.134   7.838 -0.5227 -0.2274  0.3097
  959MOL0     C29371   8.123   0.978   7.817  0.6242 -0.5621  0.3056
  959MOL0     C29372   8.251   0.914   7.764 -0.1329 -0.1021 -0.1305
  959MOL0     C29373   8.355   0.861   7.870 -1.7847 -0.2342  0.5271
  959MOL0    Cl29374   8.293   0.747   7.998 -0.6638  0.0794  0.0856
  959MOL0     C29375   7.565   1.556   7.897 -0.5098 -0.4625 -0.1389
  959MOL0     C29376   7.441   1.603   7.846 -0.0790  0.8554  0.5554
  959MOL0     O29377   7.325   1.760   7.476  0.1151 -0.0735  0.1836
  959MOL0     C29378   7.000   1.697   7.633 -0.2249  0.2776  1.3918
  959MOL0     C29379   6.860   1.730   7.616 -0.8610 -0.3983  1.0316
  959MOL0     N29380   6.339   2.067   7.823 -0.3519  0.1408 -0.3564
  959MOL0     N29381   6.343   2.151   7.919 -0.2159  0.0131 -0.0659
  959MOL0     C29382   7.022   1.768   8.376  0.0340  1.2225 -0.0856
  959MOL0     C29383   7.062   1.655   8.453 -0.8121  0.4364  0.0784
  959MOL0     C29384   7.296   1.420   8.789  0.4826  0.5671 -0.0346
  959MOL0     C29385   7.189   1.327   8.776  0.0518 -1.1662 -0.2416
  959MOL0     C29386   7.195   1.210   8.850 -0.2465  0.5800 -0.1308
  959MOL0     C29387   7.294   1.188   8.939  0.0042 -0.8326 -0.2673
  959MOL0     O29388   7.297   1.076   9.021  0.1709  0.2362  0.8538
  959MOL0     C29389   7.236   0.956   8.978 -0.2460 -0.0221 -0.1223
  959MOL0     C29390   7.288   0.843   9.063 -0.3306  0.2556  0.6137
  959MOL0     C29391   7.410   0.786   8.991 -0.1212 -0.2846 -0.1595
  959MOL0     C29392   7.542   0.820   9.052  0.4597 -0.1056  1.1220
  959MOL0     C29393   7.559   0.784   9.195  0.4933  0.4941 -0.1837
  959MOL0     C29394   7.549   0.757   9.312 -0.5656  0.6675  0.2467
  959MOL0     C29395   7.379   1.293   8.965 -0.1704 -0.0237  0.6527
  959MOL0     C29396   7.387   1.408   8.901 -0.5511  0.1214  0.6877
  959MOL0     C29397   7.474   1.518   8.960 -0.3796  0.0285  0.3196
  959MOL0     H29398   7.290   1.813   8.645 -2.7791  3.4991  1.3956
  959MOL0     H29399   7.212   2.008   8.512  3.0687 -1.0244 -2.0682
  959MOL0     H29400   7.004   1.981   8.142  2.7796  2.4690 -1.0265
  959MOL0     H29401   6.862   2.005   8.258 -1.3095  4.1682 -1.0440
  959MOL0     H29402   7.054   2.219   8.180 -0.5840  0.6913 -0.8897
  959MOL0     H29403   6.934   2.226   8.311 -3.9137  1.6783 -1.2861
  959MOL0     H29404   6.745   2.219   8.160  0.8263 -1.1265  0.6435
  959MOL0     H29405   6.856   2.196   8.018  2.2420 -0.5767  1.0581
  959MOL0     H29406   6.839   2.439   8.204 -0.8848  2.5169 -1.1305
  959MOL0     H29407   6.943   2.421   8.064 -0.4934 -0.4537 -1.1476
  959MOL0     H29408   6.713   2.547   8.065 -6.1914 -0.3134  0.3656
  959MOL0     H29409   6.773   2.480   7.917 -2.2882 -0.2577 -0.9469
  959MOL0     H29410   6.613   2.279   7.953 -0.4697 -0.5814  0.6037
  959MOL0     H29411   6.557   2.359   8.099  0.9593 -2.4376  0.7197
  959MOL0     H29412   6.504   2.467   7.805 -1.2980  1.0333 -0.1409
  959MOL0     H29413   6.489   2.564   7.954 -3.7710  0.2622 -1.5065
  959MOL0     H29414   6.331   2.394   8.040 -3.2545  3.0631 -0.6389
  959MOL0     H29415   6.270   2.461   7.896 -0.9014 -0.1310  1.4303
  959MOL0     H29416   6.338   2.342   7.643 -0.4002  2.1217  1.6025
  959MOL0     H29417   6.257   1.958   7.595 -1.2374  1.3335  0.2084
  959MOL0     H29418   6.276   2.101   7.504 -1.6708 -3.1555 -0.5209
  959MOL0     H29419   6.525   2.103   7.547  1.2848 -0.8684  1.1510
  959MOL0     H29420   6.517   1.957   7.644  2.7380 -0.8188 -2.2398
  959MOL0     H29421   6.455   2.007   7.341 -1.8736 -3.5714 -2.1828
  959MOL0     H29422   6.434   1.846   7.413  0.2548 -0.4588  2.3828
  959MOL0     H29423   6.692   1.999   7.389 -3.0057  1.0200 -1.7504
  959MOL0     H29424   6.647   1.858   7.294 -1.0764 -0.8033 -0.0607
  959MOL0     H29425   6.894   1.913   7.338 -1.0876  1.3025  1.6473
  959MOL0     H29426   7.126   1.867   7.374 -1.3238 -2.5336 -1.7439
  959MOL0     H29427   7.493   1.569   7.521  1.7993 -2.2886 -0.2177
  959MOL0     H29428   7.719   1.505   7.609 -1.3645  2.6065 -1.2201
  959MOL0     H29429   7.754   1.439   8.051 -2.6402 -1.5706 -2.1900
  959MOL0     H29430   7.775   1.313   7.937  2.1950 -0.4403 -1.0001
  959MOL0     H29431   7.979   1.499   8.064 -0.4545  0.6528  0.3759
  959MOL0     H29432   7.933   1.355   8.137 -2.0231  4.1179  0.7436
  959MOL0     H29433   8.058   1.380   7.856  0.4083  1.7346  0.8550
  959MOL0     H29434   8.154   1.351   8.003  0.2063 -2.0395  0.2563
  959MOL0     H29435   7.940   1.161   7.929 -1.0048  3.9362 -0.9919
  959MOL0     H29436   8.075   1.134   8.043 -1.9143 -2.5245 -1.3344
  959MOL0     H29437   8.236   1.160   7.874 -1.0740  2.2779  0.1865
  959MOL0     H29438   8.120   1.175   7.738 -1.4760 -1.8436 -0.2354
  959MOL0     H29439   8.101   0.935   7.915 -0.8452  2.7304  1.5978
  959MOL0     H29440   8.041   0.965   7.746  2.1808  0.8854 -1.8881
  959MOL0     H29441   8.300   0.987   7.698 -0.5097  0.3709  0.1013
  959MOL0     H29442   8.240   0.831   7.694  0.0106  0.4399 -0.8127
  959MOL0     H29443   8.437   0.807   7.821 -0.5708  0.6054  1.5645
  959MOL0     H29444   8.387   0.956   7.912 -3.6503  1.1416 -0.9899
  959MOL0     H29445   7.576   1.564   8.005  1.2407  2.5283 -0.4314
  959MOL0     H29446   7.363   1.622   7.919  0.6104  1.2377  1.2070
  959MOL0     H29447   7.029   1.626   7.710  1.2036 -2.0523 -1.1196
  959MOL0     H29448   6.783   1.672   7.666 -1.6967 -0.9272 -0.7980
  959MOL0     H29449   6.931   1.754   8.318 -0.7317 -0.1316  1.3814
  959MOL0     H29450   6.997   1.569   8.439  1.1216 -1.5395  2.3077
  959MOL0     H29451   7.107   1.331   8.706  0.2314  2.6064 -0.4558
  959MOL0     H29452   7.105   1.148   8.848 -0.5252  0.9923 -0.3373
  959MOL0     H29453   7.266   0.945   8.874 -3.3875 -1.1390 -1.0077
  959MOL0     H29454   7.127   0.965   8.984 -0.1367  6.2087 -0.7367
  959MOL0     H29455   7.215   0.762   9.067  1.2097 -1.1320  3.3615
  959MOL0     H29456   7.318   0.881   9.161 -0.0441 -0.6157  0.8727
  959MOL0     H29457   7.409   0.800   8.883 -1.5706 -3.5175 -0.7034
  959MOL0     H29458   7.402   0.677   8.997 -0.6292 -0.2253  0.4118
  959MOL0     H29459   7.620   0.779   8.987  0.6256  0.3467  1.0374
  959MOL0     H29460   7.555   0.927   9.039  1.5840 -0.1120  2.0391
  959MOL0     H29461   7.560   0.736   9.417  1.1601  3.0661  0.6162
  959MOL0     H29462   7.450   1.284   9.046 -1.2921  1.7280  1.9035
  959MOL0     H29463   7.580   1.492   8.949  0.2619  2.5995 -0.1802
  959MOL0     H29464   7.461   1.616   8.913 -0.3214 -1.3978 -2.9520
  959MOL0     H29465   7.456   1.527   9.067  0.0490  2.6479  0.2316
  960MOL0     O29466   2.692   4.886   5.787 -0.2139  0.0470  0.0401
  960MOL0     C29467   2.615   4.972   5.814 -0.1162 -1.0288  0.1064
  960MOL0     O29468   2.632   5.101   5.772 -0.8015 -0.3252 -0.4662
  960MOL0     C29469   2.753   5.129   5.715 -0.0742  0.0468  1.2352
  960MOL0     C29470   2.867   5.133   5.787 -1.0099  0.3251 -0.7618
  960MOL0     C29471   2.983   5.188   5.736 -0.0999  0.9687 -0.1687
  960MOL0     C29472   2.995   5.218   5.603 -0.1446 -0.5298  0.3133
  960MOL0     O29473   3.120   5.272   5.562  0.1528 -0.7167  0.0497
  960MOL0     C29474   3.096   5.398   5.497  0.0725  0.9442 -0.1016
  960MOL0     C29475   3.233   5.454   5.468  0.1770  0.2426 -0.8495
  960MOL0     C29476   3.318   5.473   5.595 -0.4737  0.0422 -0.3924
  960MOL0     C29477   3.460   5.424   5.577  1.3938  0.0262 -0.4704
  960MOL0     C29478   3.535   5.446   5.707  0.0033  0.8077 -0.7890
  960MOL0     C29479   3.678   5.404   5.693  0.3442 -0.0573 -1.2555
  960MOL0     C29480   3.736   5.395   5.837 -0.3546 -0.6675 -0.5904
  960MOL0     C29481   3.890   5.401   5.845 -0.4796  0.2416 -0.2167
  960MOL0     N29482   3.937   5.270   5.821 -0.5513  0.2103 -0.1523
  960MOL0     C29483   3.947   5.203   5.703 -1.0240  0.6262  0.3958
  960MOL0     C29484   3.967   5.073   5.733  0.1001  0.4214 -0.0485
  960MOL0     C29485   3.971   4.977   5.623  1.1289  1.2228 -0.3031
  960MOL0     C29486   4.041   4.839   5.664  0.1031 -0.9001  0.7180
  960MOL0     C29487   4.195   4.837   5.692  0.8956 -0.5828  0.0406
  960MOL0     C29488   4.298   4.891   5.582  0.0122  0.4096 -0.2238
  960MOL0     O29489   4.300   5.033   5.590  0.1152  0.3034  0.1175
  960MOL0     C29490   4.374   5.112   5.510  0.6906 -0.4769 -0.1016
  960MOL0     C29491   4.476   5.066   5.429  0.5867 -0.2315 -0.5662
  960MOL0     C29492   4.550   5.164   5.361 -0.5668  0.4084  0.0247
  960MOL0     C29493   4.525   5.302   5.371  0.1895 -1.0765  0.6231
  960MOL0     C29494   4.607   5.401   5.295  0.0704 -0.8267  0.4137
  960MOL0     O29495   4.690   5.348   5.200 -0.8975  0.0359  0.0620
  960MOL0     C29496   4.765   5.413   5.106 -0.1298 -0.4269 -0.2802
  960MOL0     C29497   4.743   5.550   5.059  0.2532  0.1653  0.5417
  960MOL0     C29498   4.834   5.592   4.966 -0.2054  0.4286  1.5591
  960MOL0     C29499   4.927   5.507   4.905  0.5795 -0.7306 -0.4990
  960MOL0     O29500   5.014   5.569   4.815 -0.4317  0.5190  0.7507
  960MOL0     C29501   5.142   5.513   4.790  0.1034  1.3844 -1.0360
  960MOL0     C29502   5.245   5.619   4.758 -0.0457  0.1539 -0.9897
  960MOL0     C29503   5.236   5.654   4.619  0.6746  0.3779 -0.5384
  960MOL0     C29504   5.324   5.768   4.576 -0.2129  0.6079 -0.7704
  960MOL0     C29505   5.466   5.718   4.539  0.5423 -0.2953  0.3466
  960MOL0     C29506   5.537   5.824   4.446  0.2572  0.0757 -0.2871
  960MOL0     C29507   5.673   5.777   4.404  0.1472  0.3135  0.0988
  960MOL0     C29508   5.741   5.884   4.326 -0.2570  0.3354 -0.9031
  960MOL0    Cl29509   5.907   5.829   4.302 -0.3561  0.1554  0.3862
  960MOL0     C29510   4.938   5.380   4.942 -0.3091  0.5312 -0.3435
  960MOL0     C29511   4.853   5.332   5.039 -0.0031 -0.2167 -1.2447
  960MOL0     O29512   4.607   5.523   5.327  1.2496  0.1793 -0.1863
  960MOL0     C29513   4.406   5.341   5.435  0.0744  0.1076  0.3127
  960MOL0     C29514   4.338   5.246   5.509  0.2131  0.7855  0.3998
  960MOL0     N29515   3.980   5.066   5.874  0.0547  0.1952  0.3215
  960MOL0     N29516   3.959   5.177   5.924 -0.4080 -0.0139  0.2777
  960MOL0     C29517   2.881   5.201   5.521 -0.3533 -0.4753  0.0103
  960MOL0     C29518   2.753   5.176   5.579 -0.1038 -0.2659 -0.3891
  960MOL0     C29519   2.494   4.942   5.899 -0.0403  0.3792  0.6095
  960MOL0     C29520   2.408   5.043   5.917  0.1981 -0.8880 -0.5246
  960MOL0     C29521   2.284   5.027   5.978 -0.1376 -0.8467  0.2872
  960MOL0     C29522   2.240   4.900   6.022 -0.8908 -0.3949 -0.4243
  960MOL0     O29523   2.124   4.905   6.099 -0.1817 -0.2268 -0.0333
  960MOL0     C29524   2.077   4.775   6.146 -0.2411 -0.9573 -0.9957
  960MOL0     C29525   1.959   4.795   6.241  0.6808 -0.2284 -0.0545
  960MOL0     C29526   1.830   4.818   6.153 -0.3463  0.4943 -0.7671
  960MOL0     C29527   1.736   4.924   6.222 -0.6611  0.4942  0.1726
  960MOL0     C29528   1.593   4.907   6.178 -0.3029  0.6917  0.4564
  960MOL0     C29529   1.491   4.915   6.119  0.9118  0.0548  0.0068
  960MOL0     C29530   2.330   4.796   6.007  0.6267  0.5951 -0.4946
  960MOL0     C29531   2.454   4.815   5.950  0.1811  0.1145 -0.5735
  960MOL0     C29532   2.528   4.689   5.927 -0.9054  0.1389 -0.2296
  960MOL0     H29533   2.876   5.106   5.891  2.6720 -1.1982 -1.3425
  960MOL0     H29534   3.068   5.180   5.802 -0.6534 -2.4882  0.3259
  960MOL0     H29535   3.041   5.374   5.405 -2.1116  0.4625  1.2447
  960MOL0     H29536   3.041   5.471   5.558  0.0882  0.1321  0.8994
  960MOL0     H29537   3.215   5.555   5.429 -4.9783 -0.2143 -0.3472
  960MOL0     H29538   3.281   5.394   5.391  0.0516  0.1706 -0.8719
  960MOL0     H29539   3.268   5.427   5.681 -0.5821  0.5283 -0.1915
  960MOL0     H29540   3.324   5.580   5.619 -1.0559 -0.3552  1.7337
  960MOL0     H29541   3.455   5.319   5.548 -0.6400  0.6860 -2.8807
  960MOL0     H29542   3.514   5.468   5.493  0.2347  1.1587 -0.6562
  960MOL0     H29543   3.525   5.551   5.733 -0.2798  0.6524 -0.2513
  960MOL0     H29544   3.489   5.386   5.787  3.3574 -1.5695 -0.4310
  960MOL0     H29545   3.689   5.308   5.641 -2.6534 -0.1262 -1.9060
  960MOL0     H29546   3.730   5.486   5.641  0.1258  1.4754  0.7963
  960MOL0     H29547   3.703   5.313   5.901  1.9337  0.7058  2.6151
  960MOL0     H29548   3.703   5.488   5.884 -1.0601 -1.8744  1.4148
  960MOL0     H29549   3.934   5.476   5.778  1.4798 -1.4637 -0.9287
  960MOL0     H29550   3.912   5.428   5.948 -0.4596  2.0272 -0.6513
  960MOL0     H29551   3.921   5.240   5.605  1.7884  1.8174 -0.0135
  960MOL0     H29552   3.871   4.965   5.581  0.7699  1.5384  0.4430
  960MOL0     H29553   4.017   5.015   5.531 -0.7387  0.3073 -1.6843
  960MOL0     H29554   4.001   4.815   5.763  2.4510 -2.1151  1.4474
  960MOL0     H29555   4.018   4.757   5.594 -0.5303 -0.2941  0.1982
  960MOL0     H29556   4.228   4.735   5.713 -1.8510 -2.0686 -2.2046
  960MOL0     H29557   4.208   4.904   5.778 -0.5943 -0.4373  0.1769
  960MOL0     H29558   4.274   4.857   5.480  1.6391 -1.5623 -0.0014
  960MOL0     H29559   4.400   4.851   5.591 -0.7869 -1.4260  1.5970
  960MOL0     H29560   4.504   4.961   5.428 -1.5965 -0.9401  1.6536
  960MOL0     H29561   4.626   5.134   5.289  0.9608 -0.1848  1.7879
  960MOL0     H29562   4.670   5.625   5.084 -0.0150  1.1287 -2.7383
  960MOL0     H29563   4.821   5.688   4.917 -0.4773 -0.9630 -1.2800
  960MOL0     H29564   5.170   5.450   4.875 -3.9890 -0.1339 -0.5774
  960MOL0     H29565   5.140   5.437   4.711 -0.2628  0.8375 -0.5086
  960MOL0     H29566   5.215   5.702   4.823 -1.4533 -0.9997 -0.1153
  960MOL0     H29567   5.344   5.577   4.779 -0.2804 -0.4502 -1.0987
  960MOL0     H29568   5.245   5.556   4.570 -0.0624 -1.3404  2.4767
  960MOL0     H29569   5.132   5.690   4.613  1.2009  2.1635  0.3323
  960MOL0     H29570   5.328   5.836   4.661 -3.5632 -3.4162  3.0760
  960MOL0     H29571   5.289   5.820   4.486 -1.2814 -0.9879 -1.3298
  960MOL0     H29572   5.463   5.615   4.502 -0.1279 -0.6783  1.4370
  960MOL0     H29573   5.522   5.703   4.632 -0.0466 -1.5741  0.5229
  960MOL0     H29574   5.474   5.846   4.360 -1.4660  1.5298  1.2456
  960MOL0     H29575   5.562   5.912   4.506  4.8070 -0.8443 -0.4254
  960MOL0     H29576   5.669   5.681   4.351  2.0804  0.4271 -0.3076
  960MOL0     H29577   5.732   5.764   4.495 -0.7229 -1.0267  0.5091
  960MOL0     H29578   5.689   5.912   4.234 -3.6503 -0.8628  0.5032
  960MOL0     H29579   5.745   5.967   4.397 -1.2457 -0.6210  0.3212
  960MOL0     H29580   5.009   5.308   4.901  0.5959  1.5095 -0.5543
  960MOL0     H29581   4.857   5.228   5.071 -1.2747 -0.6047 -2.2731
  960MOL0     H29582   4.362   5.440   5.441 -1.0356 -0.4567  2.9178
  960MOL0     H29583   4.248   5.257   5.570 -1.4855  1.3084 -2.0535
  960MOL0     H29584   2.892   5.222   5.415  0.7397 -0.5541  0.0902
  960MOL0     H29585   2.673   5.185   5.507 -1.6180  0.3608  1.2995
  960MOL0     H29586   2.435   5.141   5.878 -0.1992 -0.6503 -0.2019
  960MOL0     H29587   2.213   5.106   5.998 -1.1319 -1.2878 -1.2758
  960MOL0     H29588   2.153   4.725   6.207 -0.8419  0.6012  1.1462
  960MOL0     H29589   2.050   4.701   6.070 -0.3139 -0.8837 -1.0408
  960MOL0     H29590   1.980   4.879   6.308  2.2520 -0.6556  0.0249
  960MOL0     H29591   1.948   4.704   6.300 -2.2336 -0.4039 -0.7210
  960MOL0     H29592   1.771   4.726   6.164 -1.3327  1.1300 -0.6293
  960MOL0     H29593   1.847   4.845   6.049 -2.2650 -4.6265 -2.7484
  960MOL0     H29594   1.745   4.927   6.331 -1.9470  4.9397  0.3758
  960MOL0     H29595   1.771   5.019   6.180  0.9287  0.1096  0.5432
  960MOL0     H29596   1.397   4.924   6.069  1.7267  2.0019 -1.3026
  960MOL0     H29597   2.312   4.696   6.047  0.6054  1.3826  1.5733
  960MOL0     H29598   2.637   4.694   5.925 -0.5713 -3.9096  0.4092
  960MOL0     H29599   2.509   4.607   5.996  0.8327  0.1882  0.3429
  960MOL0     H29600   2.506   4.655   5.825 -0.6764 -0.1283 -0.1909
  961MOL0     O29601   9.215   8.622   1.191  0.0851 -0.1752  0.0322
  961MOL0     C29602   9.312   8.617   1.269  0.0335  0.2755  0.0196
  961MOL0     O29603   9.429   8.542   1.243  0.2644 -1.0380  0.5599
  961MOL0     C29604   9.415   8.451   1.142  1.2324 -0.3226 -0.1750
  961MOL0     C29605   9.414   8.321   1.179 -0.3194 -0.0381  0.6871
  961MOL0     C29606   9.407   8.230   1.071 -0.0169 -1.1486  0.8054
  961MOL0     C29607   9.421   8.268   0.941 -0.1172  0.8405  1.1053
  961MOL0     O29608   9.416   8.171   0.842  0.6991 -0.5710  0.9495
  961MOL0     C29609   9.401   8.218   0.703 -0.3615  0.3440  0.1247
  961MOL0     C29610   9.428   8.103   0.609  0.4645  0.1271 -0.7950
  961MOL0     C29611   9.326   7.994   0.644  0.1054  0.3952 -0.1442
  961MOL0     C29612   9.341   7.874   0.544  0.2976  0.2697 -0.0179
  961MOL0     C29613   9.220   7.782   0.529  0.1294  1.4255 -0.5076
  961MOL0     C29614   9.083   7.836   0.484 -0.1619 -0.3400  0.6684
  961MOL0     C29615   8.961   7.745   0.472 -0.2679  1.4121  0.2461
  961MOL0     C29616   8.866   7.791   0.359 -0.2408  0.4916 -0.1236
  961MOL0     N29617   8.857   7.935   0.346 -0.1398  0.2187  1.0143
  961MOL0     C29618   8.770   8.012   0.413 -0.0094 -0.3064  0.8608
  961MOL0     C29619   8.792   8.141   0.373 -0.0793 -0.9248  0.3039
  961MOL0     C29620   8.716   8.262   0.422 -0.1862  0.5445 -0.3263
  961MOL0     C29621   8.727   8.298   0.574 -0.3467  0.0715  0.0384
  961MOL0     C29622   8.663   8.436   0.607 -0.7560  0.5154  0.4595
  961MOL0     C29623   8.708   8.476   0.744 -0.4319  0.2407 -0.5416
  961MOL0     O29624   8.696   8.618   0.754  0.0679  0.1030 -0.1077
  961MOL0     C29625   8.711   8.674   0.875  0.2289  0.0007 -0.3056
  961MOL0     C29626   8.769   8.604   0.986 -0.6188  0.3481  0.1594
  961MOL0     C29627   8.783   8.668   1.114  0.8550 -0.6893  0.9029
  961MOL0     C29628   8.739   8.790   1.142 -0.4453 -0.3168  0.3750
  961MOL0     C29629   8.765   8.857   1.265 -0.3831  0.4982 -1.7122
  961MOL0     O29630   8.683   8.960   1.298  0.1306 -0.2629  0.5251
  961MOL0     C29631   8.703   9.047   1.395  0.0108  0.0212 -1.2367
  961MOL0     C29632   8.681   9.184   1.369 -0.7940  1.0543  1.0899
  961MOL0     C29633   8.692   9.280   1.470 -0.6766  0.1407 -0.3315
  961MOL0     C29634   8.746   9.251   1.593  0.0100 -0.0222 -0.0295
  961MOL0     O29635   8.761   9.351   1.690  0.7706 -0.1316  0.5564
  961MOL0     C29636   8.900   9.359   1.743  0.8579  0.4086  0.2241
  961MOL0     C29637   8.936   9.496   1.787  0.0074 -0.5409  0.5372
  961MOL0     C29638   8.960   9.607   1.682 -0.1520  0.1577 -0.5608
  961MOL0     C29639   8.991   9.735   1.750  0.4027  0.1505  0.5840
  961MOL0     C29640   9.056   9.825   1.638 -0.4328  0.2651  0.4566
  961MOL0     C29641   9.072   9.971   1.682 -0.9306  0.4376  1.0995
  961MOL0     C29642   8.948  10.032   1.742  0.0125  0.2531 -0.5840
  961MOL0     C29643   8.963  10.188   1.736  0.1346  0.1151  0.4946
  961MOL0    Cl29644   9.091  10.261   1.821  0.6280 -0.1901  0.2693
  961MOL0     C29645   8.782   9.119   1.616  0.0107 -1.2458 -0.6780
  961MOL0     C29646   8.742   9.014   1.529 -0.4113 -0.0933  0.9555
  961MOL0     O29647   8.861   8.818   1.332 -0.2353  0.0572  0.2091
  961MOL0     C29648   8.694   8.866   1.032  0.6362  0.2298  0.1920
  961MOL0     C29649   8.678   8.804   0.895 -0.0100 -0.7680  0.3800
  961MOL0     N29650   8.877   8.129   0.266 -0.2518 -0.0827  0.9051
  961MOL0     N29651   8.921   8.006   0.248  0.3639  0.9212 -0.4336
  961MOL0     C29652   9.411   8.407   0.907 -0.1494  0.9556 -0.2849
  961MOL0     C29653   9.409   8.496   1.016  0.6612 -0.3227  1.3684
  961MOL0     C29654   9.287   8.701   1.396  0.3492  0.8527 -0.2947
  961MOL0     C29655   9.185   8.800   1.391 -0.5173 -0.1784  0.3826
  961MOL0     C29656   9.157   8.878   1.498 -0.8175 -1.4281  0.2024
  961MOL0     C29657   9.217   8.869   1.622 -0.4949 -0.6210  0.2075
  961MOL0     O29658   9.185   8.955   1.724 -0.4735  0.0356  0.4668
  961MOL0     C29659   9.216   8.927   1.855 -0.0916  0.7062 -0.4592
  961MOL0     C29660   9.149   9.015   1.951  0.2268 -0.1095 -0.7292
  961MOL0     C29661   9.001   8.958   1.953 -0.2454 -0.0188 -1.0127
  961MOL0     C29662   8.907   9.045   2.040 -0.5239 -0.0280 -0.1483
  961MOL0     C29663   8.952   9.083   2.172 -0.2842  1.2407 -0.0530
  961MOL0     C29664   8.987   9.116   2.282 -0.2397  0.1498  0.3702
  961MOL0     C29665   9.312   8.765   1.631 -1.4620 -1.3124  0.2377
  961MOL0     C29666   9.347   8.681   1.521 -0.0790  0.1744 -0.0289
  961MOL0     C29667   9.455   8.578   1.543  0.5627 -0.0176  0.1546
  961MOL0     H29668   9.409   8.291   1.283 -1.3336 -1.9974  0.1345
  961MOL0     H29669   9.402   8.122   1.086 -0.0050 -1.2222  0.2977
  961MOL0     H29670   9.308   8.271   0.679  0.4598  3.4637  3.0264
  961MOL0     H29671   9.481   8.289   0.679  1.7867 -2.4535 -1.4943
  961MOL0     H29672   9.532   8.068   0.614  0.3300 -0.3217 -0.9996
  961MOL0     H29673   9.409   8.146   0.510 -1.2533  4.7282  1.2899
  961MOL0     H29674   9.227   8.040   0.648 -0.0892  0.2199 -1.9673
  961MOL0     H29675   9.352   7.947   0.739  2.4538  0.4818 -0.6564
  961MOL0     H29676   9.351   7.908   0.440 -3.3599 -0.8631 -0.8878
  961MOL0     H29677   9.438   7.828   0.564  0.7148  2.4394  4.2877
  961MOL0     H29678   9.237   7.689   0.473 -1.2772  2.0969 -2.1613
  961MOL0     H29679   9.197   7.743   0.628 -0.4054  0.1765 -1.0929
  961MOL0     H29680   9.055   7.921   0.547  2.1549  1.3836 -0.4620
  961MOL0     H29681   9.099   7.875   0.383 -1.9338 -1.6872 -0.1857
  961MOL0     H29682   8.927   7.760   0.576  1.2900 -2.1665  1.4075
  961MOL0     H29683   8.993   7.641   0.463  0.7049  1.8302 -1.4004
  961MOL0     H29684   8.908   7.760   0.262  0.6067  4.1715 -1.0609
  961MOL0     H29685   8.773   7.741   0.388 -0.0302  1.6618  2.8949
  961MOL0     H29686   8.705   7.988   0.497 -2.3587  0.0970 -0.7493
  961MOL0     H29687   8.756   8.351   0.373 -0.3010  0.9103  0.2416
  961MOL0     H29688   8.610   8.263   0.392 -0.0674 -0.2304 -0.8278
  961MOL0     H29689   8.698   8.220   0.645  2.0722 -0.6603  0.3193
  961MOL0     H29690   8.834   8.308   0.595 -0.2372  1.4768 -1.0557
  961MOL0     H29691   8.553   8.432   0.607 -0.7251 -0.9877 -0.1081
  961MOL0     H29692   8.694   8.515   0.540  0.7019 -0.3676  0.0586
  961MOL0     H29693   8.812   8.444   0.757  1.6662  4.6939 -3.4026
  961MOL0     H29694   8.648   8.425   0.819  0.1321 -0.0394 -0.2752
  961MOL0     H29695   8.805   8.502   0.997 -1.7552  0.1276  2.6271
  961MOL0     H29696   8.810   8.613   1.204 -0.3478  1.1932  2.4827
  961MOL0     H29697   8.628   9.203   1.276  2.7599  0.9222 -1.1506
  961MOL0     H29698   8.674   9.383   1.441 -0.9063  0.0642 -0.4669
  961MOL0     H29699   8.888   9.293   1.829 -2.3762 -1.2538 -1.3111
  961MOL0     H29700   8.965   9.316   1.665 -1.5145 -0.0599 -1.6330
  961MOL0     H29701   8.852   9.510   1.855 -0.1544 -0.4941  0.3260
  961MOL0     H29702   9.023   9.483   1.853  2.0489 -0.7683 -2.0263
  961MOL0     H29703   9.049   9.575   1.626 -0.1954 -0.4606 -0.2833
  961MOL0     H29704   8.879   9.618   1.610  0.8340 -1.1705 -1.9388
  961MOL0     H29705   9.069   9.709   1.823  2.0760  1.3415 -0.6729
  961MOL0     H29706   8.900   9.775   1.795 -0.1019  2.0396 -1.8630
  961MOL0     H29707   9.005   9.826   1.541 -0.7781  1.8503  0.6216
  961MOL0     H29708   9.151   9.780   1.609 -0.7142  0.4572 -0.8792
  961MOL0     H29709   9.140   9.990   1.765 -0.3562  2.6763  0.1778
  961MOL0     H29710   9.117  10.025   1.598  1.2589  1.3040  2.7596
  961MOL0     H29711   8.926  10.014   1.847 -5.2018  0.7151 -1.3470
  961MOL0     H29712   8.861   9.988   1.694  2.1936 -4.1310 -0.9993
  961MOL0     H29713   8.972  10.209   1.629 -0.2488 -0.7941  0.2660
  961MOL0     H29714   8.865  10.226   1.767 -0.2081 -1.7514  1.8786
  961MOL0     H29715   8.828   9.099   1.712  0.0170 -0.1786 -0.4540
  961MOL0     H29716   8.759   8.910   1.556 -5.1458 -2.4142 -3.4282
  961MOL0     H29717   8.682   8.972   1.047 -1.7621  0.2992 -1.6160
  961MOL0     H29718   8.645   8.865   0.812  0.2251  0.0768  0.9013
  961MOL0     H29719   9.395   8.449   0.808  0.6397  4.0623  0.7868
  961MOL0     H29720   9.416   8.604   1.003  0.4740 -0.3654  0.8938
  961MOL0     H29721   9.133   8.818   1.297 -0.8930 -0.5711  0.5113
  961MOL0     H29722   9.089   8.961   1.477 -0.5430  0.1995  4.6417
  961MOL0     H29723   9.324   8.931   1.871 -0.0764 -0.9383  0.0095
  961MOL0     H29724   9.193   8.823   1.880  0.8836  0.4904 -0.4421
  961MOL0     H29725   9.169   9.117   1.917  1.0857 -0.4061 -1.1245
  961MOL0     H29726   9.191   9.000   2.050 -3.7280 -0.2676  1.1423
  961MOL0     H29727   8.990   8.853   1.984 -3.9414  0.4888 -0.1395
  961MOL0     H29728   8.944   8.957   1.860  0.6251 -2.5742 -1.5940
  961MOL0     H29729   8.897   9.139   1.986  0.9311  0.4903  0.4301
  961MOL0     H29730   8.805   9.004   2.048 -0.8367  0.9981  2.1286
  961MOL0     H29731   9.012   9.152   2.380 -2.5923 -3.5125  2.5326
  961MOL0     H29732   9.377   8.754   1.717  0.4950  0.4501 -0.9205
  961MOL0     H29733   9.529   8.603   1.465 -0.9713 -1.8931 -2.0459
  961MOL0     H29734   9.503   8.570   1.641  1.0506  1.5169  0.0757
  961MOL0     H29735   9.417   8.478   1.523 -0.3789  0.2940  0.3267
  962MOL0     O29736   9.717   9.085   8.302  0.3992 -0.5818 -0.3026
  962MOL0     C29737   9.745   9.060   8.182  0.8728 -0.6591 -0.0986
  962MOL0     O29738   9.648   9.043   8.084 -0.0753  0.1809 -0.0248
  962MOL0     C29739   9.690   9.016   7.952  0.0737  0.1601 -0.4563
  962MOL0     C29740   9.745   8.892   7.925  0.4098  0.1794  0.8347
  962MOL0     C29741   9.784   8.860   7.796  0.3036  0.5902 -0.6680
  962MOL0     C29742   9.768   8.941   7.688  0.6700  0.5444 -0.0226
  962MOL0     O29743   9.810   8.905   7.555 -0.4356  0.2075 -0.2151
  962MOL0     C29744   9.947   8.883   7.547 -0.6819 -0.1433  0.0861
  962MOL0     C29745  10.000   8.879   7.398  0.2438 -0.3505  0.5139
  962MOL0     C29746   9.955   8.995   7.314 -0.7634 -0.2055  0.5244
  962MOL0     C29747   9.990   8.963   7.170 -0.5257 -0.2470  0.4854
  962MOL0     C29748   9.980   9.090   7.089  0.2611  0.0490 -0.0308
  962MOL0     C29749  10.108   9.158   7.051  0.4163 -0.6637 -0.3672
  962MOL0     C29750  10.197   9.207   7.170 -0.2362 -1.3149  0.2156
  962MOL0     C29751  10.321   9.285   7.121 -0.2706  0.0853  0.3513
  962MOL0     N29752  10.400   9.338   7.235 -1.1409 -0.0323  0.1453
  962MOL0     C29753  10.528   9.291   7.263  0.2445 -0.2831 -0.1908
  962MOL0     C29754  10.556   9.336   7.389  0.4240  0.3352  0.4737
  962MOL0     C29755  10.682   9.317   7.471  1.1902  0.2047  0.7856
  962MOL0     C29756  10.804   9.363   7.392  0.0089 -0.1360  0.0664
  962MOL0     C29757  10.935   9.306   7.452 -0.4719  0.3612 -0.8822
  962MOL0     C29758  11.063   9.377   7.404 -0.1044 -0.3832  0.2764
  962MOL0     O29759  11.065   9.387   7.259 -0.3993 -0.4667 -0.6716
  962MOL0     C29760  11.190   9.398   7.202  0.4669 -0.4256 -0.1312
  962MOL0     C29761  11.294   9.477   7.253 -0.1226  0.4092  0.3548
  962MOL0     C29762  11.425   9.481   7.199  0.9148 -0.2438  0.9311
  962MOL0     C29763  11.446   9.406   7.082 -0.6818 -0.0228  0.6955
  962MOL0     C29764  11.586   9.393   7.025 -0.4421 -0.1280  0.0493
  962MOL0     O29765  11.597   9.315   6.914  0.2659  0.2895  0.2271
  962MOL0     C29766  11.714   9.276   6.860 -0.1154 -0.8683  1.2896
  962MOL0     C29767  11.830   9.238   6.928  0.6948 -0.2517  0.1008
  962MOL0     C29768  11.945   9.207   6.845 -0.3532 -0.6544 -0.3780
  962MOL0     C29769  11.939   9.216   6.710  1.1605 -0.2612  0.2377
  962MOL0     O29770  12.049   9.184   6.633  0.0978 -0.2070 -0.5164
  962MOL0     C29771  12.180   9.235   6.685  0.9696  0.7594  0.3566
  962MOL0     C29772  12.194   9.386   6.720  0.6528  0.0804 -0.4401
  962MOL0     C29773  12.224   9.486   6.596  0.1002  0.3774 -1.0410
  962MOL0     C29774  12.371   9.477   6.566 -0.2314  0.9223  0.0558
  962MOL0     C29775  12.390   9.502   6.411 -0.0140  0.4008 -0.0103
  962MOL0     C29776  12.543   9.500   6.383  0.4173 -0.4310 -0.3060
  962MOL0     C29777  12.579   9.516   6.235 -0.9389  0.2474  0.3007
  962MOL0     C29778  12.718   9.451   6.181 -0.2926 -0.3553  0.2573
  962MOL0    Cl29779  12.851   9.471   6.303  0.3874 -0.1174 -0.0270
  962MOL0     C29780  11.818   9.244   6.647  0.7060 -1.1858  0.1905
  962MOL0     C29781  11.705   9.267   6.720  0.2845 -0.1201  1.0169
  962MOL0     O29782  11.678   9.456   7.081 -0.0638  0.3635  0.6353
  962MOL0     C29783  11.346   9.329   7.021 -0.0752  0.2801 -0.3733
  962MOL0     C29784  11.219   9.331   7.077  0.4207 -0.7035 -0.0028
  962MOL0     N29785  10.445   9.409   7.435  0.4067 -0.1587  1.0703
  962MOL0     N29786  10.363   9.418   7.330  0.1098  0.4546 -0.8608
  962MOL0     C29787   9.724   9.074   7.715  0.6102  0.1798  0.9974
  962MOL0     C29788   9.676   9.105   7.842 -0.0258  0.7776 -0.0679
  962MOL0     C29789   9.888   9.058   8.160 -0.0144  0.3701 -0.4448
  962MOL0     C29790   9.966   8.957   8.230 -0.8714  0.2584 -1.1117
  962MOL0     C29791  10.103   8.940   8.208  0.2690 -0.2752  0.3505
  962MOL0     C29792  10.175   9.049   8.148 -0.5733 -0.0442 -0.0951
  962MOL0     O29793  10.310   9.043   8.128 -0.4923 -0.1409 -0.1601
  962MOL0     C29794  10.383   9.166   8.138 -0.2343  0.3461  0.1587
  962MOL0     C29795  10.520   9.139   8.215  0.9453  0.3325  0.1871
  962MOL0     C29796  10.597   9.266   8.228  0.1969  0.1008 -0.6177
  962MOL0     C29797  10.715   9.264   8.324  0.4132  0.5437  0.4883
  962MOL0     C29798  10.843   9.222   8.261 -0.0679  1.0046  0.1979
  962MOL0     C29799  10.947   9.184   8.204  0.1212  0.7526  0.5270
  962MOL0     C29800  10.102   9.145   8.083 -0.9421 -0.1939 -0.3995
  962MOL0     C29801   9.960   9.161   8.090  0.1068  0.8347 -0.5015
  962MOL0     C29802   9.896   9.289   8.038  0.1198  0.2602 -0.0374
  962MOL0     H29803   9.767   8.821   8.005  0.7283 -3.3224 -2.1123
  962MOL0     H29804   9.826   8.761   7.791 -0.4151  0.2168  0.3623
  962MOL0     H29805   9.995   8.967   7.598  0.1174 -1.2805  1.2719
  962MOL0     H29806   9.961   8.784   7.590 -1.2588 -0.3050 -0.0955
  962MOL0     H29807   9.972   8.784   7.353  1.6220 -0.2362 -0.6808
  962MOL0     H29808  10.109   8.882   7.408  0.1509  4.1841  2.5234
  962MOL0     H29809   9.996   9.090   7.351 -1.1129 -0.5084  1.7292
  962MOL0     H29810   9.846   9.003   7.320 -0.8267 -0.8720  0.2899
  962MOL0     H29811  10.091   8.923   7.153 -0.4409  0.7277 -1.7894
  962MOL0     H29812   9.920   8.887   7.134  2.1058 -1.5785 -2.3250
  962MOL0     H29813   9.928   9.058   6.998 -1.0019 -1.6483  1.2279
  962MOL0     H29814   9.914   9.163   7.137 -0.3424  1.4802 -2.7856
  962MOL0     H29815  10.172   9.098   6.985  0.4730 -0.1086 -0.8250
  962MOL0     H29816  10.091   9.250   6.994  0.9230  0.0511  0.6025
  962MOL0     H29817  10.236   9.120   7.224 -1.2727 -2.9778 -1.5647
  962MOL0     H29818  10.132   9.265   7.236 -0.3588 -1.5506  0.3049
  962MOL0     H29819  10.386   9.223   7.059 -0.5238  0.2839 -0.1154
  962MOL0     H29820  10.288   9.369   7.059  3.4210  0.1729 -1.7852
  962MOL0     H29821  10.588   9.223   7.204  1.2520  0.9697 -0.6653
  962MOL0     H29822  10.674   9.383   7.558 -1.4760  0.8986  0.1279
  962MOL0     H29823  10.699   9.212   7.500 -1.5687 -0.3493  0.6580
  962MOL0     H29824  10.796   9.328   7.289 -0.2949 -3.9935  1.2151
  962MOL0     H29825  10.791   9.471   7.385 -1.1085 -0.2196  0.5355
  962MOL0     H29826  10.952   9.199   7.436 -2.4794 -0.9307  3.9165
  962MOL0     H29827  10.912   9.320   7.558 -0.9676  1.5608 -1.1300
  962MOL0     H29828  11.153   9.325   7.436  0.6199 -0.2537 -1.4392
  962MOL0     H29829  11.076   9.477   7.448 -2.0517  0.5680 -1.1028
  962MOL0     H29830  11.293   9.532   7.346  0.7275  1.3089 -0.1528
  962MOL0     H29831  11.497   9.544   7.249  0.2527  1.0583  0.2911
  962MOL0     H29832  11.838   9.232   7.036  0.8523 -0.8775  0.0579
  962MOL0     H29833  12.038   9.175   6.890  0.2653  2.7452  1.0336
  962MOL0     H29834  12.215   9.179   6.772  3.1261 -0.2419 -1.1005
  962MOL0     H29835  12.254   9.220   6.606 -0.1167 -0.0684 -0.5279
  962MOL0     H29836  12.103   9.422   6.769  1.7119 -0.1614  1.8333
  962MOL0     H29837  12.282   9.388   6.786 -0.8831 -0.0834  1.7210
  962MOL0     H29838  12.163   9.436   6.520 -1.2812 -1.7207  1.2832
  962MOL0     H29839  12.191   9.589   6.610 -0.1738  0.5723 -2.8008
  962MOL0     H29840  12.411   9.386   6.612  0.2784  2.2203  2.3059
  962MOL0     H29841  12.421   9.562   6.613 -1.1435  1.5982 -0.1632
  962MOL0     H29842  12.347   9.597   6.378  0.5483 -0.4155 -3.4631
  962MOL0     H29843  12.337   9.421   6.360 -3.5459  2.1840  0.5069
  962MOL0     H29844  12.580   9.587   6.439  0.5154  0.4496 -1.6927
  962MOL0     H29845  12.580   9.402   6.412 -2.6681 -2.0630 -1.4532
  962MOL0     H29846  12.599   9.623   6.226  2.4905 -0.2729  0.2742
  962MOL0     H29847  12.500   9.489   6.164  2.1816 -1.4955 -2.8598
  962MOL0     H29848  12.688   9.346   6.179  1.8239 -1.2573  4.1063
  962MOL0     H29849  12.748   9.491   6.084  0.2471  1.7171  1.2271
  962MOL0     H29850  11.801   9.252   6.540 -1.9074  0.4358  0.6451
  962MOL0     H29851  11.608   9.302   6.687 -0.1082 -0.7278  1.5071
  962MOL0     H29852  11.356   9.262   6.936  2.0092  0.7405 -0.5561
  962MOL0     H29853  11.145   9.266   7.031 -0.7320  0.2784  0.4032
  962MOL0     H29854   9.728   9.144   7.633  0.5780 -0.8428  0.1068
  962MOL0     H29855   9.643   9.205   7.867  0.6506  0.8526  0.5672
  962MOL0     H29856   9.920   8.888   8.300 -0.7894  0.3159 -1.0015
  962MOL0     H29857  10.155   8.855   8.251 -0.3277 -0.8782 -0.0991
  962MOL0     H29858  10.315   9.228   8.196 -2.2236  0.5043 -2.1972
  962MOL0     H29859  10.404   9.201   8.036 -0.0636 -1.4242 -0.4461
  962MOL0     H29860  10.586   9.079   8.152  1.6640  2.7471 -1.4708
  962MOL0     H29861  10.498   9.096   8.313 -0.8934 -0.6843 -0.6143
  962MOL0     H29862  10.523   9.339   8.261  1.8546  1.8822 -0.6799
  962MOL0     H29863  10.635   9.310   8.135  0.9812 -3.1029 -1.9853
  962MOL0     H29864  10.720   9.366   8.364  1.5658  0.5872  0.2645
  962MOL0     H29865  10.703   9.199   8.411 -0.4652  1.2023  0.8847
  962MOL0     H29866  11.036   9.169   8.147 -0.1016 -0.7150  0.5282
  962MOL0     H29867  10.151   9.214   8.015 -0.8396  1.3287  1.1610
  962MOL0     H29868   9.805   9.303   8.097 -1.0809 -0.8946 -1.5368
  962MOL0     H29869   9.963   9.374   8.052 -0.7289  0.7496  1.2042
  962MOL0     H29870   9.868   9.287   7.932  0.0442  3.0448 -0.1493
  963MOL0     O29871   8.846  10.504   0.522 -0.3939 -0.5607  0.3304
  963MOL0     C29872   8.804  10.420   0.599 -0.5336  0.3960  0.9435
  963MOL0     O29873   8.884  10.322   0.659 -0.1529 -0.5259  0.0251
  963MOL0     C29874   9.013  10.311   0.616 -0.7586  0.3794 -0.9208
  963MOL0     C29875   9.105  10.403   0.668 -0.6371  0.1380 -0.7027
  963MOL0     C29876   9.239  10.404   0.618 -1.3714 -0.4598 -1.9597
  963MOL0     C29877   9.281  10.313   0.523  0.5185  0.8200  0.5362
  963MOL0     O29878   9.408  10.308   0.461  0.6738  0.0136 -0.1019
  963MOL0     C29879   9.504  10.391   0.517 -0.2233 -0.9936 -0.4922
  963MOL0     C29880   9.622  10.383   0.433 -0.3007  0.4313  0.4252
  963MOL0     C29881   9.595  10.447   0.299 -0.7950 -0.3025 -0.3652
  963MOL0     C29882   9.609  10.601   0.293 -0.1118 -1.1360 -0.1189
  963MOL0     C29883   9.594  10.651   0.146 -0.0598 -0.1791  0.2884
  963MOL0     C29884   9.723  10.629   0.062  0.4857 -0.8845 -0.9032
  963MOL0     C29885   9.704  10.698  -0.079 -0.8950  0.6317 -1.2566
  963MOL0     C29886   9.657  10.845  -0.073  0.2379 -0.8658  0.6729
  963MOL0     N29887   9.734  10.906  -0.186  0.6586 -0.1180 -0.5137
  963MOL0     C29888   9.803  11.019  -0.176 -0.3202 -0.5739  0.7224
  963MOL0     C29889   9.875  11.027  -0.291 -0.0286 -0.4636 -0.3763
  963MOL0     C29890   9.963  11.139  -0.326 -0.7486 -0.2301 -0.6911
  963MOL0     C29891  10.101  11.097  -0.279  0.9488  0.2313  0.7531
  963MOL0     C29892  10.203  11.213  -0.286  0.5135  0.1442  0.1544
  963MOL0     C29893  10.344  11.162  -0.240 -0.2867 -0.0684 -0.3574
  963MOL0     O29894  10.399  11.089  -0.350  0.5381  0.3590 -0.3265
  963MOL0     C29895  10.533  11.061  -0.329 -0.1191 -0.1941  0.0715
  963MOL0     C29896  10.598  11.076  -0.202 -0.7764 -0.6005  0.4635
  963MOL0     C29897  10.724  11.016  -0.187 -0.2067  0.7831  0.3957
  963MOL0     C29898  10.794  10.976  -0.301  0.1716 -0.7425  0.9291
  963MOL0     C29899  10.936  10.933  -0.291 -0.4090 -0.7380  0.1608
  963MOL0     O29900  10.975  10.874  -0.175  0.2179 -0.4056  0.0268
  963MOL0     C29901  11.092  10.810  -0.155  1.2827 -0.0323  1.0340
  963MOL0     C29902  11.191  10.778  -0.251  0.3981 -0.6557  0.6575
  963MOL0     C29903  11.302  10.702  -0.212 -1.0581  0.0711 -0.6020
  963MOL0     C29904  11.321  10.661  -0.076 -0.3413  0.3547  0.2972
  963MOL0     O29905  11.437  10.595  -0.039  0.0608  0.1947 -0.1869
  963MOL0     C29906  11.523  10.671   0.048 -0.2484 -1.0849  0.3536
  963MOL0     C29907  11.624  10.753  -0.037  0.8961 -0.8182 -0.2366
  963MOL0     C29908  11.690  10.676  -0.147 -0.2808  0.0698  1.0405
  963MOL0     C29909  11.796  10.753  -0.220 -0.7715  0.5760  0.2458
  963MOL0     C29910  11.847  10.675  -0.347 -0.0425  0.4204 -0.1536
  963MOL0     C29911  11.923  10.762  -0.445 -0.0262  0.0369 -0.6355
  963MOL0     C29912  11.962  10.674  -0.563 -0.2487 -0.5940 -0.4906
  963MOL0     C29913  12.054  10.761  -0.650  0.2906  0.7493  0.4199
  963MOL0    Cl29914  12.159  10.647  -0.734 -0.2037  0.2663  0.2575
  963MOL0     C29915  11.223  10.690   0.009  0.8573 -0.8717  0.3584
  963MOL0     C29916  11.113  10.763  -0.032 -0.1694 -1.3351 -0.0633
  963MOL0     O29917  11.011  10.961  -0.387  0.6588 -0.2475  0.3121
  963MOL0     C29918  10.733  10.971  -0.427 -0.2460  0.0135 -1.2961
  963MOL0     C29919  10.601  11.012  -0.445  0.4446 -0.2890 -0.0291
  963MOL0     N29920   9.847  10.916  -0.369 -0.2217  0.5011  0.3260
  963MOL0     N29921   9.753  10.849  -0.307  0.3478 -0.4187 -0.1845
  963MOL0     C29922   9.189  10.226   0.475  0.5458  0.0225  0.2262
  963MOL0     C29923   9.054  10.227   0.511 -0.2270  0.4775 -0.0558
  963MOL0     C29924   8.663  10.416   0.628  0.4147  0.3910 -0.1334
  963MOL0     C29925   8.616  10.329   0.726 -0.4518  0.1744  0.6992
  963MOL0     C29926   8.479  10.316   0.758  0.3297 -0.1121  0.3827
  963MOL0     C29927   8.380  10.384   0.690 -0.0244  0.0100 -0.9774
  963MOL0     O29928   8.244  10.363   0.710  0.5359 -0.4835 -0.2045
  963MOL0     C29929   8.204  10.275   0.818 -0.0493  0.3821 -0.6632
  963MOL0     C29930   8.194  10.351   0.956  0.1753  0.0193  0.1237
  963MOL0     C29931   8.076  10.452   0.972 -0.7095  0.1427  0.2737
  963MOL0     C29932   8.069  10.541   1.097  1.1386 -0.0689  0.2748
  963MOL0     C29933   8.048  10.469   1.217 -0.0627  0.3887  0.0132
  963MOL0     C29934   8.019  10.405   1.316 -0.4921  0.3080 -0.2376
  963MOL0     C29935   8.424  10.470   0.587 -1.0711  0.4503  0.1249
  963MOL0     C29936   8.561  10.491   0.554 -0.5691  0.0851 -0.6600
  963MOL0     C29937   8.597  10.593   0.444 -0.1225  0.0693  0.1410
  963MOL0     H29938   9.085  10.459   0.759  0.0885 -3.0093  1.5706
  963MOL0     H29939   9.310  10.469   0.669 -0.2155 -3.2680  0.2961
  963MOL0     H29940   9.464  10.493   0.525 -2.7174 -1.9837  1.1128
  963MOL0     H29941   9.525  10.348   0.615  1.0474  1.6183  0.5000
  963MOL0     H29942   9.634  10.276   0.414  1.0935  0.9881 -2.3093
  963MOL0     H29943   9.714  10.432   0.466 -1.2457  1.6773  1.3005
  963MOL0     H29944   9.503  10.406   0.255  1.0868 -3.8288 -1.4018
  963MOL0     H29945   9.680  10.405   0.245 -2.0613 -4.8989  0.7957
  963MOL0     H29946   9.531  10.655   0.348  2.0651  3.4477 -0.9895
  963MOL0     H29947   9.703  10.631   0.340 -1.9761 -0.5574  3.6518
  963MOL0     H29948   9.504  10.611   0.099  0.5383 -1.3621  0.1149
  963MOL0     H29949   9.576  10.759   0.149  0.9428  0.0209 -0.3227
  963MOL0     H29950   9.813  10.669   0.109 -0.4370 -0.5388  0.6191
  963MOL0     H29951   9.734  10.522   0.045 -1.2130 -1.5423  1.5988
  963MOL0     H29952   9.629  10.651  -0.143 -0.6707  0.5912 -1.4972
  963MOL0     H29953   9.796  10.685  -0.137  0.0064  4.6462 -1.0557
  963MOL0     H29954   9.551  10.851  -0.095  0.5270  3.1354 -0.2814
  963MOL0     H29955   9.684  10.897   0.020  1.0517  2.9356 -1.4936
  963MOL0     H29956   9.796  11.091  -0.095 -0.5114 -0.1093  0.2910
  963MOL0     H29957   9.964  11.162  -0.433 -0.6464 -0.9343 -0.8492
  963MOL0     H29958   9.935  11.223  -0.262 -0.6052 -0.7027  0.0042
  963MOL0     H29959  10.101  11.052  -0.179 -0.7677 -1.0107  0.2475
  963MOL0     H29960  10.132  11.006  -0.331 -1.4704 -0.7443  0.8619
  963MOL0     H29961  10.158  11.289  -0.222 -0.7740 -0.8725  0.5036
  963MOL0     H29962  10.217  11.258  -0.385  3.0469 -1.2067 -0.1780
  963MOL0     H29963  10.340  11.105  -0.147 -2.9432 -0.7214 -0.7805
  963MOL0     H29964  10.404  11.252  -0.228 -0.4058  0.7722 -4.5088
  963MOL0     H29965  10.558  11.102  -0.104  0.1766  0.1353  0.6743
  963MOL0     H29966  10.776  11.015  -0.092 -0.7320  0.5146  0.6846
  963MOL0     H29967  11.168  10.812  -0.351 -4.0436 -3.1989  0.5402
  963MOL0     H29968  11.379  10.684  -0.287 -1.5572 -1.5920 -0.7574
  963MOL0     H29969  11.470  10.730   0.123  0.8665 -0.6183  0.7947
  963MOL0     H29970  11.575  10.594   0.106 -2.0444 -3.8570 -1.4764
  963MOL0     H29971  11.572  10.842  -0.075 -2.5262 -1.9251  1.4677
  963MOL0     H29972  11.704  10.776   0.034  1.3118 -0.4371 -0.8132
  963MOL0     H29973  11.742  10.590  -0.102  1.3096  1.6245  2.3259
  963MOL0     H29974  11.616  10.651  -0.224  1.0357 -2.1272  0.4049
  963MOL0     H29975  11.872  10.780  -0.145  0.5484  0.0116 -0.8353
  963MOL0     H29976  11.764  10.848  -0.263  1.7219  0.7247 -1.5285
  963MOL0     H29977  11.760  10.629  -0.395  0.6092  0.7543 -1.7157
  963MOL0     H29978  11.915  10.598  -0.309 -1.5683  0.3869  2.7817
  963MOL0     H29979  11.857  10.844  -0.474 -2.0735 -1.0166  0.8367
  963MOL0     H29980  12.023  10.783  -0.406 -0.1290  0.5166 -0.6277
  963MOL0     H29981  11.884  10.631  -0.626  0.3506 -1.7694 -0.4478
  963MOL0     H29982  12.017  10.587  -0.527  1.1847 -0.5208 -2.3577
  963MOL0     H29983  12.000  10.820  -0.725 -0.6867  0.7387  1.0991
  963MOL0     H29984  12.113  10.827  -0.587 -4.2166  0.7511  5.2907
  963MOL0     H29985  11.227  10.651   0.110 -0.2441  0.1660  0.8324
  963MOL0     H29986  11.038  10.803   0.036 -0.9873  1.8343 -2.5869
  963MOL0     H29987  10.778  10.909  -0.504 -1.7509 -3.5596  0.4917
  963MOL0     H29988  10.534  11.005  -0.530 -0.8186  2.6166  0.5927
  963MOL0     H29989   9.211  10.151   0.400 -2.2524 -0.0219 -0.6685
  963MOL0     H29990   8.986  10.150   0.477  0.4784 -0.4442  0.5411
  963MOL0     H29991   8.675  10.256   0.781  1.7214  0.9200 -0.5542
  963MOL0     H29992   8.467  10.257   0.848  3.5276  0.7839  1.5519
  963MOL0     H29993   8.273  10.192   0.834  0.1276  0.6808  0.2305
  963MOL0     H29994   8.108  10.228   0.795  0.3191  0.4194 -2.3735
  963MOL0     H29995   8.295  10.391   0.977  0.6404 -1.3149  0.5146
  963MOL0     H29996   8.179  10.278   1.036 -1.0668  0.3633  0.2148
  963MOL0     H29997   7.985  10.392   0.967 -0.1860 -0.5724 -1.7726
  963MOL0     H29998   8.075  10.516   0.883 -0.1436 -0.4750 -0.1940
  963MOL0     H29999   8.158  10.602   1.111  0.0288  1.8907 -0.7761
  963MOL0     H30000   7.992  10.615   1.075  1.3385  0.7369  2.1447
  963MOL0     H30001   8.009  10.346   1.405  0.0876 -1.1358 -1.1009
  963MOL0     H30002   8.332  10.510   0.545 -0.7055  0.2524 -0.8833
  963MOL0     H30003   8.504  10.618   0.393 -0.2771 -2.3540 -0.8974
  963MOL0     H30004   8.665  10.676   0.466  0.8459  0.6123 -4.0122
  963MOL0     H30005   8.654  10.532   0.373 -0.5887 -0.6537  0.3827
  964MOL0     O30006   7.775   3.149   7.034  0.0630 -0.5663 -0.4267
  964MOL0     C30007   7.843   3.246   7.064 -0.8381 -0.3860  0.5587
  964MOL0     O30008   7.849   3.359   6.993 -0.2463  1.1778 -0.1783
  964MOL0     C30009   7.757   3.390   6.889 -0.4195  0.0661  0.3204
  964MOL0     C30010   7.627   3.342   6.867 -0.8160 -0.1271  0.5932
  964MOL0     C30011   7.549   3.399   6.760  0.1310 -0.2563 -0.0961
  964MOL0     C30012   7.592   3.502   6.680 -0.2873  0.4950 -0.4383
  964MOL0     O30013   7.511   3.564   6.588  0.5763  0.6754  0.2073
  964MOL0     C30014   7.383   3.502   6.565  0.0017  0.1855  0.3595
  964MOL0     C30015   7.293   3.604   6.495 -0.3718 -0.5935 -0.4869
  964MOL0     C30016   7.374   3.656   6.365  1.1079 -0.7440 -0.2046
  964MOL0     C30017   7.355   3.546   6.258 -0.9531  0.2942 -0.4219
  964MOL0     C30018   7.397   3.595   6.118  0.3166  0.4962 -0.4510
  964MOL0     C30019   7.548   3.633   6.114 -0.5270  0.3034  0.9876
  964MOL0     C30020   7.587   3.669   5.967 -0.6476 -1.0157  0.5868
  964MOL0     C30021   7.548   3.572   5.857 -0.4499  0.4948  0.2003
  964MOL0     N30022   7.582   3.432   5.881 -0.2450 -0.1444  0.0018
  964MOL0     C30023   7.715   3.391   5.913  0.6606 -0.8606 -0.4249
  964MOL0     C30024   7.696   3.258   5.946 -0.5658  0.7978 -0.9737
  964MOL0     C30025   7.811   3.167   5.971 -0.7058  0.8239 -0.1202
  964MOL0     C30026   7.920   3.222   6.071  0.3013  0.1146  0.7381
  964MOL0     C30027   7.880   3.203   6.220 -0.7105 -0.8554 -0.4793
  964MOL0     C30028   7.773   3.299   6.274  0.6262  0.0911  0.5440
  964MOL0     O30029   7.819   3.435   6.270  0.3310  0.2163 -0.5798
  964MOL0     C30030   7.920   3.456   6.366  0.2298  0.8929  0.1765
  964MOL0     C30031   8.033   3.523   6.322 -0.5085  0.3317 -0.3244
  964MOL0     C30032   8.140   3.532   6.404  0.1224 -0.2005 -0.0781
  964MOL0     C30033   8.157   3.467   6.521  0.9151  0.3626 -0.6813
  964MOL0     C30034   8.269   3.498   6.610  1.0675 -0.7089 -0.5637
  964MOL0     O30035   8.259   3.457   6.730 -0.8090  0.7912 -1.0023
  964MOL0     C30036   8.367   3.464   6.820  0.0523 -0.4793 -0.7616
  964MOL0     C30037   8.342   3.456   6.952  0.0458 -0.2896  0.7344
  964MOL0     C30038   8.446   3.457   7.053  0.2077 -0.1546 -0.1792
  964MOL0     C30039   8.581   3.463   7.011 -0.2884 -0.6725  0.3663
  964MOL0     O30040   8.680   3.467   7.101  0.2344 -1.0215 -0.1823
  964MOL0     C30041   8.670   3.411   7.235  0.0797 -0.1910  0.5677
  964MOL0     C30042   8.808   3.380   7.294 -0.0050 -0.5791 -0.4368
  964MOL0     C30043   8.884   3.280   7.205  0.3088  0.1023  0.0029
  964MOL0     C30044   9.028   3.313   7.208 -0.0603  0.0760  1.3953
  964MOL0     C30045   9.068   3.433   7.124  0.0789 -0.3117  0.4407
  964MOL0     C30046   9.034   3.417   6.977 -0.0984 -0.6561  0.1604
  964MOL0     C30047   9.125   3.493   6.879  0.4722  0.3774  0.3373
  964MOL0     C30048   9.072   3.484   6.730 -0.1968  0.0911  0.1813
  964MOL0    Cl30049   9.063   3.311   6.680 -0.6648  0.1833 -0.1998
  964MOL0     C30050   8.607   3.460   6.872 -0.9050  0.3000  0.7387
  964MOL0     C30051   8.502   3.465   6.777 -0.8958 -0.1965 -0.6138
  964MOL0     O30052   8.355   3.582   6.575  0.0351  0.8494  0.3677
  964MOL0     C30053   8.039   3.402   6.572  0.4552  0.9434  0.4871
  964MOL0     C30054   7.920   3.397   6.496  0.7135  0.0451  0.8106
  964MOL0     N30055   7.560   3.223   5.926 -0.8396 -0.2186 -0.1391
  964MOL0     N30056   7.497   3.326   5.892  1.0312 -0.2363 -0.2419
  964MOL0     C30057   7.730   3.548   6.694 -0.0645 -0.3824 -0.0027
  964MOL0     C30058   7.809   3.497   6.805 -0.9987 -0.5041 -0.7081
  964MOL0     C30059   7.939   3.247   7.180 -0.0328  0.1892  0.2720
  964MOL0     C30060   8.008   3.128   7.216 -0.3394 -0.8810 -1.5344
  964MOL0     C30061   8.101   3.128   7.321 -0.2696 -0.4637  0.2727
  964MOL0     C30062   8.125   3.234   7.404 -0.3070  0.3322  0.0988
  964MOL0     O30063   8.212   3.248   7.514  0.2235  0.1926 -0.6278
  964MOL0     C30064   8.258   3.125   7.560  0.5067  0.2616 -0.0539
  964MOL0     C30065   8.360   3.140   7.678 -0.4831 -0.1635  1.1714
  964MOL0     C30066   8.375   3.019   7.768  0.0660 -0.6550 -0.5344
  964MOL0     C30067   8.486   3.038   7.873 -1.4206 -0.3714  0.0725
  964MOL0     C30068   8.454   3.130   7.977  0.7457 -0.4678 -0.0616
  964MOL0     C30069   8.424   3.216   8.054 -0.7541 -0.0932  0.1732
  964MOL0     C30070   8.030   3.342   7.392 -0.7917 -0.7285  0.2929
  964MOL0     C30071   7.956   3.359   7.272  1.0045  0.4097  0.6637
  964MOL0     C30072   7.854   3.478   7.255 -1.1071 -0.1492  0.6376
  964MOL0     H30073   7.581   3.276   6.939 -1.6408  0.5559  0.7144
  964MOL0     H30074   7.453   3.348   6.765 -1.4964  2.7000  1.8151
  964MOL0     H30075   7.400   3.412   6.505 -1.7318 -0.5242  0.8669
  964MOL0     H30076   7.333   3.470   6.657  3.9267  1.2198  3.1228
  964MOL0     H30077   7.277   3.687   6.564  0.7561 -0.9285  0.1871
  964MOL0     H30078   7.194   3.568   6.464 -1.5493  1.1733  0.9630
  964MOL0     H30079   7.477   3.687   6.385  1.2057  1.4103 -3.3921
  964MOL0     H30080   7.312   3.738   6.329 -0.9393 -3.0939 -2.4506
  964MOL0     H30081   7.403   3.451   6.283 -1.2053  0.3958  0.5037
  964MOL0     H30082   7.249   3.522   6.248 -1.4683  2.4476 -0.7184
  964MOL0     H30083   7.364   3.515   6.052 -4.4871  0.1825  1.9244
  964MOL0     H30084   7.332   3.676   6.084  3.0099  3.8313  1.6935
  964MOL0     H30085   7.584   3.703   6.190  3.2092 -3.6738  3.3711
  964MOL0     H30086   7.600   3.541   6.141 -0.6246  0.0027  0.1715
  964MOL0     H30087   7.696   3.680   5.968 -0.7302 -0.1266  0.7787
  964MOL0     H30088   7.550   3.764   5.928 -0.9740 -1.2771  0.2624
  964MOL0     H30089   7.442   3.589   5.837 -0.7020  0.7490  1.6698
  964MOL0     H30090   7.594   3.583   5.758 -2.4048 -0.6356 -0.8888
  964MOL0     H30091   7.805   3.451   5.907  0.0828 -0.0424 -1.3330
  964MOL0     H30092   7.775   3.073   6.013  0.5514  0.4825  0.2507
  964MOL0     H30093   7.849   3.148   5.870  0.4523 -1.8380  0.7276
  964MOL0     H30094   8.006   3.159   6.045 -0.8627 -0.1087 -3.2186
  964MOL0     H30095   7.940   3.327   6.049 -1.2668  0.6139  1.5775
  964MOL0     H30096   7.973   3.213   6.276 -0.8866 -3.0707  0.3156
  964MOL0     H30097   7.843   3.100   6.232 -2.7405 -0.1506 -0.2278
  964MOL0     H30098   7.744   3.265   6.373 -0.4778 -2.8619 -0.6989
  964MOL0     H30099   7.685   3.290   6.210  1.0933  0.3492 -0.1454
  964MOL0     H30100   8.041   3.556   6.219 -2.0695  2.2434  0.0940
  964MOL0     H30101   8.219   3.589   6.356 -1.0131  0.8843 -0.6967
  964MOL0     H30102   8.239   3.454   6.988  0.6022 -0.2448  2.3927
  964MOL0     H30103   8.430   3.478   7.158  0.8331  0.9081 -0.2742
  964MOL0     H30104   8.623   3.490   7.294  4.1545  1.7809  1.5640
  964MOL0     H30105   8.608   3.321   7.232 -2.9101  1.7019  1.2873
  964MOL0     H30106   8.867   3.468   7.322 -0.6106 -0.7409  1.4573
  964MOL0     H30107   8.788   3.331   7.389 -1.8815 -2.5242 -1.7368
  964MOL0     H30108   8.890   3.176   7.240  1.9001 -0.2326 -1.1411
  964MOL0     H30109   8.840   3.283   7.105  1.3721 -0.3244 -0.4945
  964MOL0     H30110   9.082   3.227   7.168 -2.4275 -1.0423  0.3915
  964MOL0     H30111   9.065   3.335   7.309 -1.5305  0.7040  1.8308
  964MOL0     H30112   9.173   3.453   7.147  0.0437 -0.1640  0.4754
  964MOL0     H30113   9.021   3.525   7.158  1.7364 -0.2139  2.6745
  964MOL0     H30114   9.026   3.308   6.973  2.3768 -1.2126  4.2657
  964MOL0     H30115   8.933   3.455   6.956  0.7241  2.4638  1.2395
  964MOL0     H30116   9.221   3.441   6.871 -2.5519 -5.8299 -2.3498
  964MOL0     H30117   9.123   3.599   6.909 -1.2698  0.0300  1.6051
  964MOL0     H30118   8.972   3.528   6.725 -0.2496  0.4152  2.9004
  964MOL0     H30119   9.141   3.536   6.662  0.1939 -1.6525 -0.8124
  964MOL0     H30120   8.708   3.447   6.835 -1.2916 -1.0496  0.0806
  964MOL0     H30121   8.533   3.459   6.673 -0.3667 -0.1497 -0.4647
  964MOL0     H30122   8.024   3.369   6.674 -0.0663 -1.0498 -0.1995
  964MOL0     H30123   7.833   3.359   6.547  1.6926  0.7647  3.1934
  964MOL0     H30124   7.759   3.635   6.636 -0.2735 -0.0347  0.4138
  964MOL0     H30125   7.909   3.528   6.833 -0.6777 -2.3968  0.4471
  964MOL0     H30126   8.002   3.045   7.146 -0.5831 -2.6898  0.5337
  964MOL0     H30127   8.167   3.041   7.317 -0.0236 -0.2488 -0.4827
  964MOL0     H30128   8.285   3.055   7.480 -0.8522 -1.4852  0.9560
  964MOL0     H30129   8.177   3.080   7.618  0.0866  1.4775  0.3424
  964MOL0     H30130   8.332   3.231   7.732  0.0181  1.1661 -0.7113
  964MOL0     H30131   8.453   3.166   7.628 -1.3811 -0.3641 -0.6683
  964MOL0     H30132   8.382   2.928   7.707 -2.3412 -0.6289 -0.9649
  964MOL0     H30133   8.279   3.011   7.821 -0.2113 -0.2647 -0.9690
  964MOL0     H30134   8.497   2.938   7.915 -2.3907 -0.3794  0.3395
  964MOL0     H30135   8.585   3.056   7.829 -1.7992  0.8416 -0.3203
  964MOL0     H30136   8.412   3.304   8.113 -2.5089  0.9063 -1.5515
  964MOL0     H30137   8.023   3.428   7.458 -1.0261  0.4848 -1.2387
  964MOL0     H30138   7.861   3.548   7.340 -1.6132  2.4510 -1.3301
  964MOL0     H30139   7.866   3.546   7.170  0.9731  1.0953  1.8280
  964MOL0     H30140   7.750   3.445   7.260 -0.1410 -3.7325 -0.0078
  965MOL0     O30141   6.071   1.145   4.238 -0.0744  0.2873 -0.1393
  965MOL0     C30142   6.060   1.147   4.118 -0.6142  0.1642  0.5720
  965MOL0     O30143   6.161   1.174   4.035 -0.1097 -0.3699 -0.5321
  965MOL0     C30144   6.288   1.216   4.087 -0.4806  0.6473 -0.1191
  965MOL0     C30145   6.300   1.340   4.155  0.0885  0.6076 -0.3269
  965MOL0     C30146   6.420   1.394   4.205  0.3698  1.0464  0.1404
  965MOL0     C30147   6.531   1.313   4.197 -0.5083 -0.6179 -0.5061
  965MOL0     O30148   6.651   1.370   4.253  0.3226 -0.0673  0.1606
  965MOL0     C30149   6.708   1.282   4.344  0.4498 -0.2154  0.1459
  965MOL0     C30150   6.796   1.358   4.442 -0.0551  0.2150  0.5128
  965MOL0     C30151   6.901   1.443   4.371 -0.8192  0.1097  1.6986
  965MOL0     C30152   7.012   1.524   4.458 -0.2808  0.0590  0.0330
  965MOL0     C30153   7.114   1.607   4.363  0.3551  0.2924  0.2073
  965MOL0     C30154   7.222   1.526   4.306 -0.0479 -0.9677  0.0011
  965MOL0     C30155   7.311   1.614   4.225 -0.6688 -0.3509  0.5908
  965MOL0     C30156   7.391   1.535   4.118 -0.1444  1.0627  0.3035
  965MOL0     N30157   7.488   1.437   4.180  0.0370  0.1505  1.0816
  965MOL0     C30158   7.537   1.447   4.304  0.1896 -0.0258 -0.1551
  965MOL0     C30159   7.578   1.323   4.334 -0.2785 -0.1703  0.1504
  965MOL0     C30160   7.628   1.287   4.475 -0.2573 -0.4572  0.2350
  965MOL0     C30161   7.764   1.356   4.485 -0.5866 -0.6343 -0.3327
  965MOL0     C30162   7.872   1.295   4.396  0.3894  0.2663  0.2606
  965MOL0     C30163   7.929   1.156   4.436  1.1127 -0.1209  0.1820
  965MOL0     O30164   7.944   1.141   4.579  0.0755 -0.4856 -0.6089
  965MOL0     C30165   8.041   1.204   4.649 -0.2229  0.8252 -0.2598
  965MOL0     C30166   8.022   1.200   4.787 -0.9663  0.1524  0.4701
  965MOL0     C30167   8.122   1.246   4.869  1.3807  0.2451  0.3753
  965MOL0     C30168   8.242   1.297   4.818 -0.2518 -0.3837  0.5480
  965MOL0     C30169   8.343   1.349   4.908  0.5476  0.0353  0.1252
  965MOL0     O30170   8.474   1.341   4.876  0.2469  0.1470  0.9340
  965MOL0     C30171   8.566   1.355   4.977 -0.8299 -0.0198 -0.2547
  965MOL0     C30172   8.650   1.243   5.008  1.1378 -0.2933  0.0913
  965MOL0     C30173   8.759   1.260   5.096 -0.1052 -0.6201 -0.5117
  965MOL0     C30174   8.795   1.393   5.149 -0.7586  0.1776  0.0892
  965MOL0     O30175   8.906   1.397   5.235  0.3370  0.1405 -0.2520
  965MOL0     C30176   8.950   1.529   5.264  0.1155  0.2136 -0.2938
  965MOL0     C30177   9.060   1.519   5.367  0.4840  0.5523  0.7511
  965MOL0     C30178   9.114   1.657   5.405 -0.3219  0.1416 -0.4021
  965MOL0     C30179   9.234   1.641   5.506  0.1359  0.4825  0.0337
  965MOL0     C30180   9.264   1.771   5.585 -1.1860 -0.3849 -0.1374
  965MOL0     C30181   9.349   1.735   5.714  0.5263 -0.8060  0.2043
  965MOL0     C30182   9.263   1.677   5.829 -0.6822  0.2880  0.0345
  965MOL0     C30183   9.347   1.637   5.953  0.0539 -0.9005  0.0673
  965MOL0    Cl30184   9.267   1.629   6.106 -0.1914  0.0385  0.2068
  965MOL0     C30185   8.719   1.493   5.109 -0.2010  0.1961 -0.5819
  965MOL0     C30186   8.602   1.475   5.033 -1.1638 -0.4978  0.1356
  965MOL0     O30187   8.296   1.403   5.010 -0.1258  0.4815 -0.4821
  965MOL0     C30188   8.268   1.292   4.680  0.3805 -0.2016 -0.1647
  965MOL0     C30189   8.162   1.247   4.599  0.2257  0.2413  0.1445
  965MOL0     N30190   7.548   1.239   4.231 -0.8772  0.5441  0.6164
  965MOL0     N30191   7.505   1.301   4.130  0.1041 -0.4122 -0.1246
  965MOL0     C30192   6.529   1.190   4.133 -0.7730  0.3644 -1.1099
  965MOL0     C30193   6.408   1.137   4.086 -0.5033  0.2117  0.7161
  965MOL0     C30194   5.941   1.080   4.056  0.0347 -0.7870  0.4162
  965MOL0     C30195   5.943   0.980   3.957  0.1166 -0.6605 -0.0544
  965MOL0     C30196   5.827   0.941   3.891 -0.6815  0.0080  0.5591
  965MOL0     C30197   5.702   0.976   3.931 -0.1202 -0.0415 -0.3947
  965MOL0     O30198   5.584   0.919   3.883  0.0924 -0.4854 -0.4596
  965MOL0     C30199   5.594   0.794   3.823 -0.5382 -0.0633  0.0480
  965MOL0     C30200   5.460   0.719   3.816 -0.1135  1.0458  0.7926
  965MOL0     C30201   5.352   0.804   3.756  0.2135 -0.1244 -0.3361
  965MOL0     C30202   5.211   0.759   3.740 -0.2006 -0.1791 -0.0649
  965MOL0     C30203   5.203   0.634   3.670 -0.1260  0.1958 -0.1528
  965MOL0     C30204   5.186   0.542   3.595 -0.4635  0.3264  0.2617
  965MOL0     C30205   5.697   1.069   4.036  0.4113 -0.5609  0.6597
  965MOL0     C30206   5.812   1.125   4.091  0.4968 -0.2158  0.3065
  965MOL0     C30207   5.799   1.237   4.190 -0.1319 -0.4871 -1.1167
  965MOL0     H30208   6.205   1.391   4.167 -0.3291 -0.7733  3.3596
  965MOL0     H30209   6.420   1.488   4.260 -0.5359  0.3301  1.4281
  965MOL0     H30210   6.635   1.215   4.389 -0.6073 -0.9107 -2.4322
  965MOL0     H30211   6.763   1.210   4.283 -1.0842 -0.9464 -0.4428
  965MOL0     H30212   6.847   1.296   4.517 -0.9745 -0.0521  0.9393
  965MOL0     H30213   6.732   1.418   4.508 -2.1923 -0.9257 -0.4128
  965MOL0     H30214   6.851   1.523   4.316  0.4827  1.1409  1.9687
  965MOL0     H30215   6.961   1.379   4.306 -2.1829  0.1272  0.3756
  965MOL0     H30216   6.950   1.596   4.512 -3.6500 -2.3182 -0.3254
  965MOL0     H30217   7.063   1.463   4.533  1.1387  0.5191 -0.5259
  965MOL0     H30218   7.058   1.647   4.278  0.8860 -2.7598 -1.7253
  965MOL0     H30219   7.153   1.697   4.411  0.7373  1.6972 -2.5693
  965MOL0     H30220   7.274   1.475   4.387  1.1701 -0.3821 -0.3939
  965MOL0     H30221   7.171   1.450   4.245 -0.5197  0.1059 -0.9879
  965MOL0     H30222   7.378   1.659   4.299 -2.5805  1.6358  1.2206
  965MOL0     H30223   7.258   1.698   4.178 -1.7162 -2.3283 -2.0087
  965MOL0     H30224   7.326   1.469   4.060 -1.2722  0.9470  1.6626
  965MOL0     H30225   7.441   1.610   4.056 -2.3122  1.8337 -0.5767
  965MOL0     H30226   7.541   1.533   4.372 -0.8765  0.2427 -0.4278
  965MOL0     H30227   7.556   1.325   4.547 -0.0389 -0.6814  0.5754
  965MOL0     H30228   7.634   1.178   4.481 -0.8521 -0.4509  1.0025
  965MOL0     H30229   7.754   1.462   4.460 -0.3591  0.1837  2.6682
  965MOL0     H30230   7.790   1.359   4.591 -2.0966 -1.6733  0.1058
  965MOL0     H30231   7.955   1.366   4.391 -0.6745  1.5476  0.2811
  965MOL0     H30232   7.853   1.285   4.289 -0.2836  3.0107  0.0589
  965MOL0     H30233   8.014   1.143   4.368  2.9165  0.5742  2.2271
  965MOL0     H30234   7.849   1.088   4.406  0.8409  0.2754 -0.0029
  965MOL0     H30235   7.935   1.150   4.828 -0.1160 -2.8905 -1.0844
  965MOL0     H30236   8.094   1.236   4.973  3.3204  0.6108  0.9652
  965MOL0     H30237   8.630   1.147   4.963  1.2683 -0.3841  0.2271
  965MOL0     H30238   8.837   1.192   5.128  1.7403  2.2585  1.6060
  965MOL0     H30239   8.990   1.589   5.181  1.6004  0.0547  0.2732
  965MOL0     H30240   8.874   1.591   5.311 -2.4497 -2.2892 -0.8930
  965MOL0     H30241   9.020   1.479   5.461  2.8106 -1.7165  0.8714
  965MOL0     H30242   9.138   1.451   5.332  1.8853  2.3733  0.2048
  965MOL0     H30243   9.146   1.720   5.322  2.4296  1.1717  1.3110
  965MOL0     H30244   9.035   1.717   5.452  0.5986  1.8770 -0.9984
  965MOL0     H30245   9.325   1.611   5.455 -0.0955 -1.5368  0.7389
  965MOL0     H30246   9.204   1.565   5.579  1.2017  2.1486  2.3418
  965MOL0     H30247   9.175   1.820   5.625  0.1027 -1.2834  4.3651
  965MOL0     H30248   9.320   1.839   5.520  2.1691 -0.7172  2.1498
  965MOL0     H30249   9.426   1.662   5.688 -0.4626 -1.1536 -1.9137
  965MOL0     H30250   9.393   1.831   5.741 -0.1856 -0.3746 -0.1608
  965MOL0     H30251   9.224   1.583   5.789  0.1900 -0.8124  1.6669
  965MOL0     H30252   9.176   1.739   5.852  0.2246  2.0104 -0.9415
  965MOL0     H30253   9.395   1.540   5.936 -0.8211 -1.4039  0.3809
  965MOL0     H30254   9.423   1.714   5.965 -0.2422 -0.6331  0.2597
  965MOL0     H30255   8.738   1.590   5.153 -4.0804 -0.8375  4.2739
  965MOL0     H30256   8.552   1.564   4.997  3.6808  1.1966 -3.4565
  965MOL0     H30257   8.364   1.328   4.646 -0.8606  3.3730 -0.3570
  965MOL0     H30258   8.174   1.257   4.492 -3.3080 -3.4432 -0.8245
  965MOL0     H30259   6.628   1.150   4.119 -0.3441  0.9442  0.1114
  965MOL0     H30260   6.409   1.046   4.027 -0.7783 -0.6470  1.9870
  965MOL0     H30261   6.041   0.944   3.927  3.1933  2.8315  4.3041
  965MOL0     H30262   5.842   0.854   3.827  4.1915  0.1205  1.1366
  965MOL0     H30263   5.665   0.733   3.881 -0.7989 -1.1807 -0.7744
  965MOL0     H30264   5.624   0.801   3.718 -2.1877 -0.8885 -0.5120
  965MOL0     H30265   5.431   0.673   3.911 -0.1107  0.3135  0.4466
  965MOL0     H30266   5.491   0.632   3.758 -0.6260 -0.3797  2.5924
  965MOL0     H30267   5.395   0.842   3.662  0.9551  3.2417  1.2207
  965MOL0     H30268   5.341   0.890   3.822 -0.1498 -3.0872  3.8489
  965MOL0     H30269   5.164   0.745   3.837 -1.9108  3.0287 -0.3027
  965MOL0     H30270   5.162   0.833   3.675 -0.9693  0.0314  0.7426
  965MOL0     H30271   5.159   0.457   3.536  1.3991  0.8081 -1.3787
  965MOL0     H30272   5.604   1.109   4.075  0.8589 -0.1051  1.2807
  965MOL0     H30273   5.864   1.321   4.162  1.2343 -0.2582  2.3196
  965MOL0     H30274   5.698   1.276   4.202  0.5768  1.1867 -0.2369
  965MOL0     H30275   5.832   1.214   4.292 -1.4642  0.8370 -0.3468
  966MOL0     O30276   6.973   6.350   4.058 -0.2564  0.0345 -1.2166
  966MOL0     C30277   6.979   6.332   4.177 -0.4100  0.2398 -0.2199
  966MOL0     O30278   7.088   6.292   4.258 -0.4760  0.4398 -0.2177
  966MOL0     C30279   7.217   6.283   4.202  0.2439 -0.0284 -0.0943
  966MOL0     C30280   7.316   6.243   4.291  0.0339  0.0866  0.3422
  966MOL0     C30281   7.448   6.225   4.243  0.1297 -0.8418 -0.6894
  966MOL0     C30282   7.492   6.264   4.119 -0.1431 -0.6869  0.4166
  966MOL0     O30283   7.633   6.280   4.099  0.1181  0.6708  0.4400
  966MOL0     C30284   7.681   6.415   4.141  0.1030  0.7830  0.3421
  966MOL0     C30285   7.677   6.509   4.024 -0.2538 -0.3328 -0.0665
  966MOL0     C30286   7.800   6.498   3.938 -0.1920 -0.7055  0.0470
  966MOL0     C30287   7.788   6.586   3.806 -1.5222  0.0571  0.1648
  966MOL0     C30288   7.904   6.561   3.711  0.5237  0.2306  0.0551
  966MOL0     C30289   7.923   6.668   3.599 -0.5666 -0.2304  0.6086
  966MOL0     C30290   8.044   6.642   3.517 -0.1352  0.3563  0.0289
  966MOL0     C30291   8.055   6.729   3.397  1.0695 -0.2697  1.5184
  966MOL0     N30292   8.101   6.865   3.418 -0.2828  0.0389  0.2583
  966MOL0     C30293   8.217   6.902   3.491 -0.0050  0.1462  0.0028
  966MOL0     C30294   8.216   7.037   3.499  0.2823  0.3128  0.0735
  966MOL0     C30295   8.323   7.131   3.539  0.6187 -0.4644  0.3820
  966MOL0     C30296   8.426   7.131   3.430 -0.2346 -0.5713 -0.1586
  966MOL0     C30297   8.505   7.263   3.429 -0.5067 -0.2631 -0.7028
  966MOL0     C30298   8.603   7.275   3.319  0.0537  0.1202  0.0645
  966MOL0     O30299   8.687   7.153   3.314 -0.4597 -0.4039 -0.1805
  966MOL0     C30300   8.786   7.151   3.221  0.3619 -0.1744  1.1178
  966MOL0     C30301   8.780   7.093   3.096 -0.4521  0.0000 -0.6569
  966MOL0     C30302   8.886   7.116   3.006 -0.1077  0.2052 -0.0528
  966MOL0     C30303   9.009   7.174   3.050  0.9689  0.0854 -0.2620
  966MOL0     C30304   9.126   7.204   2.958 -0.7213 -0.0453  0.5993
  966MOL0     O30305   9.244   7.246   3.006  0.9377  0.0147 -0.2786
  966MOL0     C30306   9.339   7.277   2.913  0.8783  0.0265 -0.3901
  966MOL0     C30307   9.370   7.408   2.890  0.5814 -0.3106  1.5166
  966MOL0     C30308   9.469   7.450   2.791  0.6920 -0.0158 -0.2929
  966MOL0     C30309   9.535   7.349   2.720  0.2681 -0.3463 -0.5013
  966MOL0     O30310   9.628   7.380   2.625  0.2297 -0.3740 -0.8020
  966MOL0     C30311   9.630   7.504   2.563 -0.3752  0.4448 -0.3152
  966MOL0     C30312   9.704   7.495   2.434  0.1879  0.4125  0.3991
  966MOL0     C30313   9.740   7.631   2.364 -1.0578 -0.4010  0.0383
  966MOL0     C30314   9.780   7.617   2.213  0.0380  0.3431  0.0034
  966MOL0     C30315   9.816   7.748   2.159 -0.3546  0.4663  0.4965
  966MOL0     C30316   9.865   7.729   2.010 -0.2039 -0.2292 -0.2965
  966MOL0     C30317   9.967   7.840   1.976 -0.3798 -0.0608 -0.7299
  966MOL0     C30318  10.027   7.786   1.849  0.1620  0.4677  0.0618
  966MOL0    Cl30319  10.164   7.895   1.818 -0.0769  0.5260 -0.1648
  966MOL0     C30320   9.519   7.217   2.757 -0.7945  0.2815 -0.2178
  966MOL0     C30321   9.421   7.181   2.849  0.3400  0.5756 -0.2215
  966MOL0     O30322   9.106   7.159   2.845 -0.3748  0.1340  0.4482
  966MOL0     C30323   9.022   7.223   3.175 -0.5906  0.1895 -0.6290
  966MOL0     C30324   8.912   7.216   3.262  0.4742  0.4031  0.3818
  966MOL0     N30325   8.100   7.069   3.432  0.8779 -0.6705 -0.0153
  966MOL0     N30326   8.028   6.972   3.386  0.8673  0.3236 -0.1484
  966MOL0     C30327   7.389   6.309   4.035  0.0890  0.5111  0.0313
  966MOL0     C30328   7.252   6.306   4.074 -0.2055 -0.2894 -0.4422
  966MOL0     C30329   6.854   6.357   4.255 -1.2267  0.3076 -0.1592
  966MOL0     C30330   6.839   6.294   4.378 -0.3248  0.6015 -0.9745
  966MOL0     C30331   6.726   6.296   4.458  0.2791 -0.4637  0.3278
  966MOL0     C30332   6.614   6.358   4.417  0.5446 -0.5537 -0.1274
  966MOL0     O30333   6.491   6.358   4.489  0.9047  0.0060 -0.1080
  966MOL0     C30334   6.477   6.283   4.609 -0.2414  0.2711 -1.0358
  966MOL0     C30335   6.333   6.290   4.658  0.0370 -0.5607  0.6431
  966MOL0     C30336   6.304   6.219   4.793  0.3590  0.0319  0.6478
  966MOL0     C30337   6.162   6.170   4.808 -0.4753  0.1525 -0.5822
  966MOL0     C30338   6.140   6.047   4.733  0.1471 -0.2334  0.9034
  966MOL0     C30339   6.098   5.961   4.654 -1.1871  0.4903 -0.6781
  966MOL0     C30340   6.625   6.441   4.306  0.0275 -0.3997  0.2913
  966MOL0     C30341   6.744   6.441   4.226  0.8200 -0.3706  0.5680
  966MOL0     C30342   6.753   6.542   4.107 -0.2086  0.2072 -0.7249
  966MOL0     H30343   7.292   6.220   4.395  0.6760 -1.2837  0.2050
  966MOL0     H30344   7.523   6.188   4.313 -1.2428 -2.3459  0.0336
  966MOL0     H30345   7.619   6.451   4.224 -3.4994  2.3367 -2.7173
  966MOL0     H30346   7.781   6.405   4.183  2.4802 -0.6002 -4.8622
  966MOL0     H30347   7.659   6.611   4.058 -2.4872 -1.0414  1.0878
  966MOL0     H30348   7.588   6.472   3.972  0.7645 -0.5986 -1.7073
  966MOL0     H30349   7.815   6.393   3.908 -1.7944 -1.1325  0.6731
  966MOL0     H30350   7.884   6.537   3.996 -1.9190  1.4490  1.2284
  966MOL0     H30351   7.691   6.567   3.759 -1.6049  0.3024  0.2346
  966MOL0     H30352   7.796   6.690   3.839 -1.2986  0.6202 -1.5838
  966MOL0     H30353   7.999   6.575   3.764  0.8260 -0.0449 -0.4083
  966MOL0     H30354   7.904   6.455   3.683  4.1237 -0.3618  1.7035
  966MOL0     H30355   7.841   6.677   3.527  0.8169  1.6362 -0.8581
  966MOL0     H30356   7.941   6.765   3.646  1.1850  0.2348 -0.9002
  966MOL0     H30357   8.043   6.536   3.490 -1.1566  0.6594 -1.2012
  966MOL0     H30358   8.134   6.670   3.573  0.7842 -0.5489 -0.9468
  966MOL0     H30359   8.116   6.680   3.321 -2.8926 -1.1883 -1.3732
  966MOL0     H30360   7.956   6.730   3.351  2.9975 -0.2430 -3.1396
  966MOL0     H30361   8.294   6.834   3.526  0.7260  1.0280  0.1430
  966MOL0     H30362   8.275   7.228   3.555  2.7033  0.4651  1.4132
  966MOL0     H30363   8.361   7.110   3.639  3.0630 -0.4984 -0.4647
  966MOL0     H30364   8.494   7.046   3.442  0.7379 -0.1208 -2.0683
  966MOL0     H30365   8.385   7.128   3.328  0.1972 -0.2188 -0.3445
  966MOL0     H30366   8.559   7.251   3.524  1.3561 -0.0939 -1.6992
  966MOL0     H30367   8.442   7.352   3.418 -0.1131  0.1211  0.0402
  966MOL0     H30368   8.663   7.366   3.327 -0.0108  0.2953 -1.2155
  966MOL0     H30369   8.554   7.275   3.221  3.7097  0.1389 -1.9435
  966MOL0     H30370   8.686   7.048   3.066 -0.1345 -1.2911  0.2130
  966MOL0     H30371   8.871   7.086   2.902 -0.3948  0.1180  0.0111
  966MOL0     H30372   9.320   7.487   2.945 -0.8219  1.1034 -1.5504
  966MOL0     H30373   9.482   7.558   2.787 -0.1399  0.1049  0.1808
  966MOL0     H30374   9.526   7.523   2.536  0.1131  0.4848 -2.3094
  966MOL0     H30375   9.675   7.587   2.620  1.1837 -2.1310  2.4841
  966MOL0     H30376   9.801   7.448   2.453  0.3948  0.5002 -0.4060
  966MOL0     H30377   9.647   7.425   2.373 -1.2592  2.0483 -0.1904
  966MOL0     H30378   9.657   7.702   2.364 -0.2873  0.5424 -1.1288
  966MOL0     H30379   9.822   7.666   2.428 -2.7652 -1.9111  3.3007
  966MOL0     H30380   9.703   7.573   2.149 -0.3218  2.7662 -1.3817
  966MOL0     H30381   9.864   7.551   2.190  0.1295  1.5832 -3.8608
  966MOL0     H30382   9.901   7.774   2.223  0.4439  1.1608 -0.7941
  966MOL0     H30383   9.728   7.810   2.177 -0.3864  0.8194 -0.8242
  966MOL0     H30384   9.917   7.633   2.008  0.7268  0.1854  1.5898
  966MOL0     H30385   9.782   7.736   1.939  0.3331  0.3213 -0.8926
  966MOL0     H30386  10.041   7.852   2.056 -0.1036  2.7589 -1.3037
  966MOL0     H30387   9.930   7.940   1.953  0.4064 -0.5825 -5.1658
  966MOL0     H30388  10.069   7.686   1.864 -0.3375  0.2208 -0.1582
  966MOL0     H30389   9.954   7.788   1.768 -2.1517 -0.2400  2.0194
  966MOL0     H30390   9.588   7.145   2.714  0.6607 -1.0186  3.8382
  966MOL0     H30391   9.413   7.076   2.877 -0.5093 -0.3556 -3.5501
  966MOL0     H30392   9.111   7.276   3.208 -1.6360  0.3171  2.1659
  966MOL0     H30393   8.913   7.255   3.364  1.1832 -1.0875  0.9761
  966MOL0     H30394   7.412   6.331   3.931  3.1966 -1.7661  0.0889
  966MOL0     H30395   7.182   6.337   3.997 -0.6144  2.3635  0.8999
  966MOL0     H30396   6.926   6.241   4.413  1.0415  1.5042 -2.8506
  966MOL0     H30397   6.719   6.231   4.545  2.7064 -0.9722  0.2068
  966MOL0     H30398   6.558   6.307   4.679 -1.2296  0.8855 -0.0503
  966MOL0     H30399   6.493   6.177   4.592 -1.3519 -0.6946  2.7903
  966MOL0     H30400   6.271   6.249   4.578 -1.9702  0.4949  1.5751
  966MOL0     H30401   6.304   6.396   4.661 -0.7933 -0.6445 -2.2732
  966MOL0     H30402   6.322   6.277   4.884 -3.0530  3.0047 -0.3419
  966MOL0     H30403   6.375   6.136   4.789 -2.2718 -2.3371 -1.7549
  966MOL0     H30404   6.145   6.153   4.915 -0.0008 -1.1673 -0.7053
  966MOL0     H30405   6.092   6.249   4.779 -1.3863  0.1823  1.5287
  966MOL0     H30406   6.050   5.896   4.584 -2.2882  0.5133  0.0258
  966MOL0     H30407   6.534   6.491   4.272  0.6211  0.6704  0.2290
  966MOL0     H30408   6.760   6.486   4.013  1.2184  2.7312 -2.2173
  966MOL0     H30409   6.670   6.614   4.102  1.3441  2.0683 -0.7123
  966MOL0     H30410   6.848   6.595   4.110 -0.1394  0.1070 -1.1565
  967MOL0     O30411   3.650   5.211  10.976  0.7250  0.6651  0.1706
  967MOL0     C30412   3.597   5.281  11.072 -1.2820 -0.1708  0.1819
  967MOL0     O30413   3.509   5.388  11.061 -0.3576 -0.0754  0.2089
  967MOL0     C30414   3.504   5.433  10.926  0.3948 -0.7853 -0.2158
  967MOL0     C30415   3.385   5.441  10.856 -0.4346  0.7031 -0.9300
  967MOL0     C30416   3.375   5.493  10.725  0.6733  0.1567 -0.4857
  967MOL0     C30417   3.496   5.537  10.660 -0.0277  0.0182  0.4640
  967MOL0     O30418   3.511   5.595  10.535 -0.0116  0.6378  0.2034
  967MOL0     C30419   3.389   5.645  10.480  0.3227  0.4962  0.0312
  967MOL0     C30420   3.426   5.714  10.348 -1.0417  0.2514  1.4701
  967MOL0     C30421   3.557   5.774  10.321  0.3152 -0.2162  0.0349
  967MOL0     C30422   3.584   5.919  10.369  1.2570 -0.4368  1.2542
  967MOL0     C30423   3.742   5.932  10.372 -0.5143 -0.4300 -0.9212
  967MOL0     C30424   3.786   6.070  10.417 -0.0452  0.2980 -0.2925
  967MOL0     C30425   3.766   6.084  10.568  0.2459 -0.7141 -0.5190
  967MOL0     C30426   3.761   6.234  10.606 -0.9079 -0.4400  0.7821
  967MOL0     N30427   3.891   6.303  10.638  0.0297  0.1175 -0.8047
  967MOL0     C30428   4.002   6.283  10.570  0.3882 -0.3842  0.2223
  967MOL0     C30429   4.097   6.343  10.643  0.1219 -0.0914  0.8331
  967MOL0     C30430   4.246   6.333  10.610 -0.3723  0.2417  0.5246
  967MOL0     C30431   4.292   6.431  10.495 -0.7888  0.7869  0.2270
  967MOL0     C30432   4.268   6.575  10.537 -1.0097  0.4206 -0.3813
  967MOL0     C30433   4.303   6.683  10.433  0.1426 -0.2739  0.4976
  967MOL0     O30434   4.430   6.701  10.369 -0.1225  0.2451 -0.1402
  967MOL0     C30435   4.500   6.798  10.431 -1.2356 -1.3399  0.0544
  967MOL0     C30436   4.603   6.779  10.524  0.4744  0.0178  0.6023
  967MOL0     C30437   4.664   6.891  10.571  0.4031  0.4717 -0.2485
  967MOL0     C30438   4.652   7.015  10.517  0.1514  0.3209  0.3061
  967MOL0     C30439   4.744   7.134  10.538 -0.5125  0.6227 -0.0093
  967MOL0     O30440   4.864   7.112  10.570 -0.6941 -0.1412 -0.3898
  967MOL0     C30441   4.952   7.216  10.580 -0.0505  0.4653  0.2143
  967MOL0     C30442   5.011   7.242  10.707  0.6157  0.5010  0.7092
  967MOL0     C30443   5.095   7.346  10.728 -0.0374 -0.0949 -0.1118
  967MOL0     C30444   5.129   7.425  10.620 -0.1824 -1.4243 -0.9917
  967MOL0     O30445   5.209   7.539  10.639  0.4259 -0.3652 -0.2000
  967MOL0     C30446   5.131   7.625  10.727  0.8573 -0.0713 -0.3098
  967MOL0     C30447   5.193   7.767  10.737 -0.3968 -0.6034  0.0415
  967MOL0     C30448   5.119   7.852  10.852 -0.1548  0.3593  1.2395
  967MOL0     C30449   5.166   7.995  10.867  0.1594  0.4073  0.5334
  967MOL0     C30450   5.092   8.066  10.987  0.4137 -0.2920 -0.9520
  967MOL0     C30451   5.143   8.194  11.027 -0.1556 -0.8180  0.1833
  967MOL0     C30452   5.087   8.234  11.162  0.0336  0.3828 -0.3404
  967MOL0     C30453   5.120   8.372  11.201 -0.6461  0.0900 -1.3401
  967MOL0    Cl30454   5.293   8.382  11.239 -0.3272 -0.7840 -0.0498
  967MOL0     C30455   5.075   7.399  10.491  0.6633  0.3628  0.1290
  967MOL0     C30456   4.990   7.287  10.467  0.5589  0.4505  0.3759
  967MOL0     O30457   4.692   7.241  10.518  0.4259 -0.0568 -0.3860
  967MOL0     C30458   4.553   7.032  10.417  0.2879  0.3850 -0.1020
  967MOL0     C30459   4.485   6.924  10.371  0.0417 -0.0321  0.4293
  967MOL0     N30460   4.047   6.400  10.754  0.2858 -0.4766  0.9565
  967MOL0     N30461   3.919   6.379  10.741 -0.2151 -0.7041  0.2377
  967MOL0     C30462   3.615   5.528  10.732 -0.9464  0.1448  0.2705
  967MOL0     C30463   3.625   5.478  10.862  0.4429  1.0014 -0.5363
  967MOL0     C30464   3.640   5.251  11.206  0.5147 -0.7265 -0.5494
  967MOL0     C30465   3.584   5.328  11.309 -0.5365 -0.4109 -0.0649
  967MOL0     C30466   3.598   5.298  11.444 -0.2818  0.0425 -0.0969
  967MOL0     C30467   3.664   5.179  11.477 -0.2412  0.6339 -0.3587
  967MOL0     O30468   3.703   5.141  11.605  0.6434  0.2193 -0.3071
  967MOL0     C30469   3.656   5.222  11.707  0.1970 -0.3224  0.6544
  967MOL0     C30470   3.690   5.168  11.847 -0.3407  0.2604  0.0828
  967MOL0     C30471   3.842   5.129  11.849 -0.0362 -0.0078 -0.2399
  967MOL0     C30472   3.899   5.111  11.992 -0.3994  0.1629  0.0659
  967MOL0     C30473   3.919   5.234  12.067  0.1153  0.2037  1.0471
  967MOL0     C30474   3.897   5.344  12.114  0.0585  0.9466  0.7354
  967MOL0     C30475   3.727   5.103  11.372 -0.2819 -0.3813 -0.7901
  967MOL0     C30476   3.711   5.131  11.237  0.1576 -0.0068 -0.5125
  967MOL0     C30477   3.771   5.033  11.134  0.6872  1.0825  0.3244
  967MOL0     H30478   3.299   5.397  10.906 -0.2228 -0.3255 -1.4577
  967MOL0     H30479   3.286   5.505  10.663  1.2516  0.6463 -1.2463
  967MOL0     H30480   3.320   5.561  10.464  2.1267 -0.8082 -1.2942
  967MOL0     H30481   3.338   5.709  10.553  1.3656  0.5314  0.7474
  967MOL0     H30482   3.360   5.801  10.340  0.0808  1.1142  1.4393
  967MOL0     H30483   3.398   5.644  10.269 -0.8559  2.6067 -0.8054
  967MOL0     H30484   3.558   5.784  10.212 -0.1405 -0.4696  0.0050
  967MOL0     H30485   3.638   5.712  10.360  1.1439  1.2661  0.7434
  967MOL0     H30486   3.537   5.994  10.304  5.2877 -1.4767 -3.5831
  967MOL0     H30487   3.546   5.930  10.470  0.7909 -3.5066  1.5096
  967MOL0     H30488   3.785   5.865  10.447 -3.1918 -0.1953  0.9460
  967MOL0     H30489   3.786   5.912  10.273 -0.7402  0.9395 -1.3125
  967MOL0     H30490   3.886   6.099  10.385  0.4914  0.3257  1.3554
  967MOL0     H30491   3.719   6.141  10.367 -0.9253 -0.2399  0.0942
  967MOL0     H30492   3.847   6.045  10.630  0.3337 -0.6954 -0.6214
  967MOL0     H30493   3.680   6.028  10.605 -0.3297  0.4948  0.0162
  967MOL0     H30494   3.724   6.291  10.520 -0.0311 -2.7145 -1.2021
  967MOL0     H30495   3.686   6.257  10.682 -2.7115  0.9483 -1.2910
  967MOL0     H30496   4.003   6.218  10.483 -6.9416 -2.5057  1.0619
  967MOL0     H30497   4.303   6.352  10.702 -3.4437 -1.0316  2.8565
  967MOL0     H30498   4.251   6.228  10.581 -2.6281  0.2247 -0.0042
  967MOL0     H30499   4.397   6.414  10.471 -1.6869 -1.6526 -2.5702
  967MOL0     H30500   4.236   6.409  10.403 -0.6458  1.3208  0.0073
  967MOL0     H30501   4.325   6.581  10.630  0.4701 -2.9504 -0.9339
  967MOL0     H30502   4.164   6.591  10.565 -0.8273 -0.8910  1.1571
  967MOL0     H30503   4.266   6.772  10.485 -1.7721 -2.2671  2.8319
  967MOL0     H30504   4.228   6.661  10.357 -0.9718 -0.2187  1.5530
  967MOL0     H30505   4.633   6.686  10.572  1.6794  0.8548  1.5258
  967MOL0     H30506   4.735   6.874  10.651 -2.2321 -1.4569  1.8303
  967MOL0     H30507   4.985   7.165  10.778  4.3368 -3.7188 -1.9399
  967MOL0     H30508   5.139   7.355  10.827 -1.0213 -0.9934  0.4246
  967MOL0     H30509   5.027   7.639  10.698  0.9601 -1.0566 -1.2053
  967MOL0     H30510   5.132   7.587  10.829 -0.2807  0.1335 -0.2150
  967MOL0     H30511   5.298   7.761  10.767 -0.8225 -1.7730  1.4022
  967MOL0     H30512   5.198   7.824  10.644  1.0734 -0.9422 -0.1127
  967MOL0     H30513   5.012   7.860  10.833  0.3511 -0.2445 -2.7577
  967MOL0     H30514   5.128   7.797  10.946  0.2855  0.7525  1.4317
  967MOL0     H30515   5.147   8.057  10.779 -0.6854 -0.9680 -0.2897
  967MOL0     H30516   5.272   7.991  10.894  0.4077  1.8224 -0.1446
  967MOL0     H30517   5.088   7.996  11.071  0.9610 -0.5403 -1.1258
  967MOL0     H30518   4.988   8.081  10.955  0.1155  0.3828  0.2796
  967MOL0     H30519   5.250   8.182  11.045  0.6487  0.7755 -2.8763
  967MOL0     H30520   5.126   8.267  10.947 -0.2630 -1.2697 -0.2076
  967MOL0     H30521   5.112   8.160  11.239 -0.3056 -1.3748 -1.8434
  967MOL0     H30522   4.978   8.228  11.159  0.0667 -1.4667  0.4849
  967MOL0     H30523   5.090   8.450  11.130 -0.7421  2.6506  1.2752
  967MOL0     H30524   5.074   8.406  11.294 -0.8824  1.1200 -1.8161
  967MOL0     H30525   5.088   7.484  10.423 -0.0330 -1.2785 -2.1852
  967MOL0     H30526   4.939   7.272  10.373  1.1938  1.3064 -0.1215
  967MOL0     H30527   4.518   7.125  10.372 -2.7186 -1.4502 -1.8519
  967MOL0     H30528   4.420   6.939  10.285  0.4661  2.0037  0.4328
  967MOL0     H30529   3.714   5.556  10.698 -0.2225 -4.0102 -1.7990
  967MOL0     H30530   3.717   5.453  10.914  0.9796  1.1386 -1.4070
  967MOL0     H30531   3.535   5.423  11.293  3.1477  1.5018 -1.0417
  967MOL0     H30532   3.541   5.358  11.515 -2.4028 -2.7069  0.6816
  967MOL0     H30533   3.547   5.217  11.701  0.1433  1.1793 -0.2564
  967MOL0     H30534   3.692   5.323  11.683 -1.6701  0.0602 -0.7896
  967MOL0     H30535   3.617   5.088  11.863  0.0437 -0.1168 -0.0141
  967MOL0     H30536   3.679   5.247  11.921  2.1963  0.9592 -0.1929
  967MOL0     H30537   3.904   5.203  11.800 -1.4849 -0.4469 -2.9103
  967MOL0     H30538   3.841   5.035  11.793 -3.1558 -0.4543  0.3526
  967MOL0     H30539   3.840   5.045  12.056  1.8323 -2.0153 -0.0135
  967MOL0     H30540   3.993   5.061  11.967  0.1076  1.6033 -1.0662
  967MOL0     H30541   3.889   5.448  12.139  0.7501  0.8154  1.5600
  967MOL0     H30542   3.774   5.012  11.407  2.4013  0.2407 -2.4727
  967MOL0     H30543   3.697   4.987  11.068  0.8331  0.7156  0.4184
  967MOL0     H30544   3.841   5.083  11.066 -1.4242 -0.9549 -3.7181
  967MOL0     H30545   3.821   4.952  11.187 -0.3909  0.1828 -0.0084
  968MOL0     O30546   8.729   3.410   7.797  0.6755  0.5786  0.3458
  968MOL0     C30547   8.689   3.479   7.886  0.6475  0.2527 -1.8594
  968MOL0     O30548   8.571   3.555   7.882  0.3077 -0.4314 -1.3294
  968MOL0     C30549   8.503   3.558   7.765 -0.7083 -0.4273 -0.2829
  968MOL0     C30550   8.560   3.593   7.639 -0.1674 -0.6079  0.5039
  968MOL0     C30551   8.478   3.614   7.525  0.2814 -0.1826 -0.8535
  968MOL0     C30552   8.341   3.587   7.533  0.7345 -0.6722 -0.3411
  968MOL0     O30553   8.254   3.589   7.423  0.6964  0.4737 -0.2862
  968MOL0     C30554   8.241   3.722   7.360  0.0272 -0.6040 -0.5748
  968MOL0     C30555   8.099   3.753   7.354  0.3230 -1.1969 -0.8201
  968MOL0     C30556   8.092   3.885   7.288 -0.9324  0.6707 -0.5345
  968MOL0     C30557   7.950   3.908   7.227 -0.0921 -0.7864  0.0982
  968MOL0     C30558   7.941   4.054   7.186  0.9255  0.2396  0.1550
  968MOL0     C30559   7.805   4.080   7.116  0.1749  0.1117  0.4560
  968MOL0     C30560   7.796   4.232   7.071 -0.4934 -0.3988  0.2002
  968MOL0     C30561   7.664   4.271   7.000 -0.4064 -0.7557 -0.8469
  968MOL0     N30562   7.534   4.248   7.071  0.3206  0.1779 -0.1396
  968MOL0     C30563   7.504   4.307   7.190 -0.2239  0.3663 -0.2452
  968MOL0     C30564   7.392   4.238   7.226 -0.1576  0.3165  0.1912
  968MOL0     C30565   7.317   4.259   7.353 -0.3446 -0.0848  0.5361
  968MOL0     C30566   7.164   4.299   7.338 -0.0911 -0.2492 -0.0270
  968MOL0     C30567   7.130   4.430   7.252 -0.4470 -1.4498  0.3374
  968MOL0     C30568   7.245   4.525   7.236 -0.6320  0.5875  0.0193
  968MOL0     O30569   7.307   4.557   7.355 -0.6111 -0.1311 -0.3366
  968MOL0     C30570   7.256   4.657   7.433 -0.9194  0.9800  0.6059
  968MOL0     C30571   7.249   4.646   7.576 -0.3949 -0.0698  0.3589
  968MOL0     C30572   7.223   4.752   7.663  0.7562 -0.4611  0.3980
  968MOL0     C30573   7.167   4.874   7.600  0.1335 -0.1576 -0.8552
  968MOL0     C30574   7.130   4.995   7.680 -0.2774 -0.5391  0.7128
  968MOL0     O30575   7.160   4.985   7.810  0.4383 -0.4000 -0.2252
  968MOL0     C30576   7.157   5.106   7.879 -0.2889 -0.3960  0.2424
  968MOL0     C30577   7.276   5.176   7.874 -0.0454  0.1041  0.0357
  968MOL0     C30578   7.296   5.307   7.927 -0.4573 -0.0929 -0.2295
  968MOL0     C30579   7.183   5.375   7.973  0.4331 -0.6987  0.0611
  968MOL0     O30580   7.213   5.495   8.041  0.2313 -0.0441 -1.2653
  968MOL0     C30581   7.169   5.524   8.176  0.2370  0.5263  0.2532
  968MOL0     C30582   7.219   5.672   8.196 -0.1687  0.0671 -0.7156
  968MOL0     C30583   7.369   5.687   8.216 -0.4206  0.9119  0.7954
  968MOL0     C30584   7.422   5.634   8.354  0.5966 -0.4225  0.5067
  968MOL0     C30585   7.561   5.692   8.395  0.2025 -0.2398 -0.1791
  968MOL0     C30586   7.541   5.823   8.464 -1.0100 -0.5590 -0.8856
  968MOL0     C30587   7.685   5.875   8.512 -0.2479  0.4362 -0.4616
  968MOL0     C30588   7.693   6.002   8.600  0.6041  0.6225  0.1677
  968MOL0    Cl30589   7.564   6.116   8.543  0.0958  0.1875 -0.1566
  968MOL0     C30590   7.058   5.310   7.989 -0.7369 -1.0905 -0.3159
  968MOL0     C30591   7.045   5.182   7.925 -0.3439 -0.0039 -0.3533
  968MOL0     O30592   7.085   5.095   7.623 -0.2190 -0.6116  0.3668
  968MOL0     C30593   7.145   4.871   7.469 -0.1064 -0.2792 -0.2725
  968MOL0     C30594   7.203   4.777   7.385  0.1281 -0.3341 -0.1542
  968MOL0     N30595   7.365   4.139   7.129  0.0531 -0.4175 -0.1684
  968MOL0     N30596   7.444   4.150   7.030  0.2672 -0.1884 -0.8049
  968MOL0     C30597   8.286   3.543   7.658  0.0808  0.3280  0.7202
  968MOL0     C30598   8.371   3.527   7.763  0.2823 -0.1197  0.4762
  968MOL0     C30599   8.751   3.460   8.026  0.0963  0.2411  0.2694
  968MOL0     C30600   8.664   3.493   8.139  0.2169 -0.6743 -0.8743
  968MOL0     C30601   8.719   3.499   8.269 -0.1892 -0.2652 -0.0153
  968MOL0     C30602   8.850   3.464   8.291  0.3766  0.4164  0.4394
  968MOL0     O30603   8.927   3.476   8.408 -0.6964  0.7873 -0.1374
  968MOL0     C30604   8.858   3.489   8.533 -0.1121  0.2452 -0.0340
  968MOL0     C30605   8.760   3.366   8.557 -1.3972 -1.1308  0.9371
  968MOL0     C30606   8.695   3.385   8.688  0.3975 -0.3923  0.7517
  968MOL0     C30607   8.577   3.282   8.715 -0.4045 -1.0039 -0.3965
  968MOL0     C30608   8.620   3.144   8.736 -0.2043 -0.8864 -0.1413
  968MOL0     C30609   8.648   3.026   8.757 -0.0328 -0.3289  0.3466
  968MOL0     C30610   8.923   3.420   8.183  0.5913 -0.0336 -0.0872
  968MOL0     C30611   8.885   3.428   8.050 -0.0779 -0.3448  0.8932
  968MOL0     C30612   8.990   3.413   7.944 -1.3755  0.0123  0.5379
  968MOL0     H30613   8.665   3.617   7.647 -0.3183  0.4111 -0.3143
  968MOL0     H30614   8.528   3.632   7.431 -1.5572 -0.1389 -1.8799
  968MOL0     H30615   8.287   3.798   7.424 -2.1998  0.2797  0.0519
  968MOL0     H30616   8.291   3.724   7.262 -0.2879  2.4725 -0.7674
  968MOL0     H30617   8.059   3.754   7.456  2.3475 -3.4823  0.0913
  968MOL0     H30618   8.044   3.674   7.302 -2.2449  0.6592 -1.1652
  968MOL0     H30619   8.167   3.892   7.208 -1.5424 -1.8979 -1.4305
  968MOL0     H30620   8.100   3.960   7.368 -2.7741  0.8656 -0.4869
  968MOL0     H30621   7.939   3.845   7.139 -0.2425  0.6572 -0.9640
  968MOL0     H30622   7.870   3.892   7.299 -3.5394  2.3459 -2.6302
  968MOL0     H30623   7.962   4.125   7.266  0.5387  1.9946 -1.2216
  968MOL0     H30624   8.008   4.078   7.103  0.8444 -1.8150 -0.5564
  968MOL0     H30625   7.799   4.009   7.033  2.1170 -1.7330  1.7779
  968MOL0     H30626   7.718   4.059   7.180 -1.5861  0.4311 -1.6927
  968MOL0     H30627   7.878   4.254   7.002  0.9940 -2.6375  1.1528
  968MOL0     H30628   7.811   4.300   7.155  1.2381 -0.6687  0.1460
  968MOL0     H30629   7.667   4.378   6.977  0.8745 -0.4665  0.5067
  968MOL0     H30630   7.649   4.207   6.913 -3.8235 -2.0548  0.5313
  968MOL0     H30631   7.549   4.390   7.245 -0.3864  0.1332  0.2432
  968MOL0     H30632   7.316   4.154   7.383 -1.5128 -0.5996 -1.1684
  968MOL0     H30633   7.368   4.315   7.431  0.4002  0.3405 -0.2423
  968MOL0     H30634   7.098   4.221   7.298 -2.1606  1.0354  0.7158
  968MOL0     H30635   7.127   4.316   7.440 -0.1531 -0.3536 -0.0318
  968MOL0     H30636   7.050   4.482   7.306 -0.9026 -1.4646 -0.3210
  968MOL0     H30637   7.094   4.409   7.151  1.3155  0.2524 -0.7222
  968MOL0     H30638   7.218   4.618   7.186  2.0402  1.4525  0.0014
  968MOL0     H30639   7.321   4.468   7.181 -0.4588 -0.6254  1.4470
  968MOL0     H30640   7.283   4.547   7.603 -1.2815 -0.8893 -1.3563
  968MOL0     H30641   7.246   4.753   7.769  2.0969  2.1742  0.1610
  968MOL0     H30642   7.354   5.113   7.832 -1.5947 -0.3828 -2.3116
  968MOL0     H30643   7.393   5.356   7.930 -0.4898 -0.0595  0.3289
  968MOL0     H30644   7.060   5.523   8.170 -0.1347 -1.3466  4.0687
  968MOL0     H30645   7.210   5.457   8.252 -1.5465 -0.8715  0.0479
  968MOL0     H30646   7.185   5.735   8.113 -3.9768 -1.3576 -0.4412
  968MOL0     H30647   7.166   5.717   8.280 -0.4082 -0.9023 -0.3373
  968MOL0     H30648   7.424   5.632   8.139 -1.0784  2.3353 -0.7583
  968MOL0     H30649   7.405   5.789   8.203 -0.8793  0.9519 -0.2259
  968MOL0     H30650   7.427   5.526   8.340  2.3053 -0.2947 -0.1892
  968MOL0     H30651   7.353   5.653   8.436 -0.7410 -3.5683  0.2671
  968MOL0     H30652   7.624   5.691   8.305  1.1078 -4.0195  0.3301
  968MOL0     H30653   7.604   5.619   8.464 -2.9462 -2.4959 -0.4157
  968MOL0     H30654   7.502   5.891   8.387 -1.1631 -2.1500 -2.2760
  968MOL0     H30655   7.483   5.821   8.556 -2.7232 -0.0799 -1.9110
  968MOL0     H30656   7.741   5.901   8.422  0.8418 -0.1275  0.0360
  968MOL0     H30657   7.727   5.788   8.563  0.0875  1.2153  0.6223
  968MOL0     H30658   7.655   5.981   8.700 -0.2661 -2.6027 -0.7260
  968MOL0     H30659   7.789   6.053   8.612  1.2854 -0.8990  1.6383
  968MOL0     H30660   6.975   5.370   8.026  0.0326  0.7537 -1.4693
  968MOL0     H30661   6.943   5.147   7.917 -1.6005  3.4629 -1.5604
  968MOL0     H30662   7.092   4.953   7.420  0.3532 -1.3613 -2.7303
  968MOL0     H30663   7.202   4.796   7.278  0.3129  0.3954 -0.0293
  968MOL0     H30664   8.178   3.542   7.663 -0.3194  2.0213 -3.4529
  968MOL0     H30665   8.315   3.509   7.854  1.8525  2.0680  1.9964
  968MOL0     H30666   8.561   3.520   8.116  0.5318 -2.2646 -4.9432
  968MOL0     H30667   8.658   3.527   8.354 -0.2499 -1.0206  0.1957
  968MOL0     H30668   8.794   3.577   8.530  0.2905  0.5245 -3.0393
  968MOL0     H30669   8.932   3.498   8.614  1.9492 -0.4297 -1.7305
  968MOL0     H30670   8.829   3.283   8.573  0.6752  0.1745 -0.7315
  968MOL0     H30671   8.686   3.350   8.478  1.5349 -1.1181 -1.9795
  968MOL0     H30672   8.649   3.484   8.698  1.5265  0.3506 -1.1341
  968MOL0     H30673   8.768   3.374   8.769  1.4075  0.7167  0.0103
  968MOL0     H30674   8.517   3.316   8.800  2.3444  0.5203  1.0676
  968MOL0     H30675   8.510   3.289   8.629 -2.2201  0.7714  1.0454
  968MOL0     H30676   8.679   2.926   8.776 -1.8550 -1.7605 -3.3221
  968MOL0     H30677   9.026   3.396   8.208  0.0703 -0.8492  1.4201
  968MOL0     H30678   8.966   3.482   7.862  2.2428  0.1510 -0.5815
  968MOL0     H30679   9.094   3.426   7.978 -0.3138 -0.9675 -2.0733
  968MOL0     H30680   8.977   3.311   7.907 -4.3987  0.5121 -0.0040
  969MOL0     O30681   8.902   9.777   8.464 -0.6576  0.0999  0.6897
  969MOL0     C30682   8.917   9.657   8.504 -1.4682  0.2133  0.2951
  969MOL0     O30683   9.008   9.611   8.589 -1.1083  0.6434  0.1500
  969MOL0     C30684   9.113   9.682   8.648  1.1967 -0.4866  0.7411
  969MOL0     C30685   9.195   9.611   8.731 -0.6725 -0.0473  0.7137
  969MOL0     C30686   9.301   9.668   8.793  0.4278 -0.1130 -0.3440
  969MOL0     C30687   9.328   9.801   8.789 -0.1426  0.1927 -1.1804
  969MOL0     O30688   9.433   9.860   8.853 -0.0807 -0.1877  0.4790
  969MOL0     C30689   9.557   9.789   8.841  1.4113 -0.0153  0.0637
  969MOL0     C30690   9.653   9.903   8.863  0.7038 -0.1331 -0.1221
  969MOL0     C30691   9.645  10.029   8.761 -0.2841  0.6283 -0.0618
  969MOL0     C30692   9.646  10.165   8.835  0.0021 -0.3972 -0.5036
  969MOL0     C30693   9.749  10.168   8.953  0.0571 -0.2871  0.9010
  969MOL0     C30694   9.892  10.144   8.893 -0.4581  0.1652  0.6414
  969MOL0     C30695  10.001  10.203   8.984  1.0929  0.1179 -1.5013
  969MOL0     C30696  10.134  10.167   8.933  0.2886  1.1357  0.5283
  969MOL0     N30697  10.200  10.078   9.023 -0.6642  1.0680  0.0308
  969MOL0     C30698  10.195   9.943   9.021 -0.0727  0.3604  0.8117
  969MOL0     C30699  10.257   9.902   9.130 -0.5852 -0.2004 -0.1399
  969MOL0     C30700  10.289   9.762   9.161 -0.2052  0.2734  0.5609
  969MOL0     C30701  10.397   9.707   9.061 -0.3977  0.7797 -0.1025
  969MOL0     C30702  10.431   9.567   9.122 -1.1733  0.2437  0.3974
  969MOL0     C30703  10.533   9.492   9.037  0.6475 -0.3379 -0.3939
  969MOL0     O30704  10.651   9.573   9.042  0.6272 -0.5014  0.6629
  969MOL0     C30705  10.720   9.578   8.919 -0.0860 -0.0984 -0.1998
  969MOL0     C30706  10.769   9.473   8.853 -0.2024 -0.3125  0.4529
  969MOL0     C30707  10.842   9.491   8.739 -0.3166 -0.2025  0.9549
  969MOL0     C30708  10.878   9.615   8.691  0.1561 -0.0469  0.2832
  969MOL0     C30709  10.972   9.634   8.569  0.4984 -0.6301  0.4477
  969MOL0     O30710  10.975   9.534   8.477  0.2354  0.3928 -0.5283
  969MOL0     C30711  11.059   9.539   8.376  0.0748 -0.7880  0.4736
  969MOL0     C30712  11.006   9.545   8.249 -0.3872  0.5572  0.1740
  969MOL0     C30713  11.083   9.565   8.135 -0.1709  0.4307  0.5877
  969MOL0     C30714  11.222   9.563   8.133 -0.4820  1.0157 -0.2582
  969MOL0     O30715  11.297   9.575   8.014 -0.0227 -0.4633 -0.3996
  969MOL0     C30716  11.263   9.485   7.908 -0.5059 -0.4221  0.2719
  969MOL0     C30717  11.382   9.486   7.805 -0.9201 -0.3855 -0.4669
  969MOL0     C30718  11.356   9.384   7.697 -0.1633  0.6108  0.0451
  969MOL0     C30719  11.475   9.343   7.610  0.1422 -0.6606 -0.3433
  969MOL0     C30720  11.452   9.246   7.497  0.7197 -0.1105  0.0754
  969MOL0     C30721  11.579   9.169   7.448  0.2163 -0.3990  0.0210
  969MOL0     C30722  11.701   9.260   7.420  0.1991  1.1865  0.5882
  969MOL0     C30723  11.824   9.187   7.449 -0.1838  0.2519  1.2961
  969MOL0    Cl30724  11.858   9.019   7.359 -0.0431 -0.2476  0.1079
  969MOL0     C30725  11.276   9.528   8.263 -0.4610  0.0313  0.5822
  969MOL0     C30726  11.198   9.514   8.378 -0.2166 -0.3273  0.2888
  969MOL0     O30727  11.045   9.733   8.564  0.0576  0.1847 -0.0400
  969MOL0     C30728  10.834   9.727   8.772  0.1380 -0.2300  0.6378
  969MOL0     C30729  10.768   9.705   8.885 -0.0997  0.6654 -0.5210
  969MOL0     N30730  10.315  10.007   9.192  0.1729 -0.8431  0.0696
  969MOL0     N30731  10.277  10.111   9.132  0.1876  0.9809 -0.8423
  969MOL0     C30732   9.244   9.877   8.704  0.1940 -0.2034 -0.1544
  969MOL0     C30733   9.137   9.823   8.635  0.5397 -0.1616  0.7718
  969MOL0     C30734   8.810   9.573   8.444 -0.2156 -0.6932 -0.5891
  969MOL0     C30735   8.767   9.473   8.519  0.7986 -0.2035 -0.7011
  969MOL0     C30736   8.666   9.379   8.481 -0.1294 -0.0505  0.2314
  969MOL0     C30737   8.618   9.385   8.355  0.5398  0.3509 -0.4404
  969MOL0     O30738   8.528   9.298   8.303  0.3054  0.2762  0.0569
  969MOL0     C30739   8.480   9.168   8.356  0.1210  0.1349 -0.7202
  969MOL0     C30740   8.372   9.170   8.450 -0.6415  0.2398 -0.3727
  969MOL0     C30741   8.239   9.252   8.415 -0.2032  0.3987  0.6448
  969MOL0     C30742   8.120   9.221   8.496 -0.0967 -0.0233  0.7107
  969MOL0     C30743   8.145   9.223   8.645 -0.0277  0.4724 -0.7625
  969MOL0     C30744   8.168   9.226   8.767 -1.0198  0.1356  0.6382
  969MOL0     C30745   8.662   9.487   8.268  0.4804  0.0095 -0.1094
  969MOL0     C30746   8.761   9.580   8.312 -0.2774  0.6515  0.0427
  969MOL0     C30747   8.793   9.693   8.224 -0.4250  0.7071  0.2256
  969MOL0     H30748   9.175   9.505   8.743 -1.8053  0.2424  1.5228
  969MOL0     H30749   9.357   9.597   8.853 -2.7794 -2.6667 -0.1085
  969MOL0     H30750   9.580   9.716   8.919  0.5599  0.3159  0.6365
  969MOL0     H30751   9.579   9.746   8.743 -0.5259  2.0670 -1.3821
  969MOL0     H30752   9.751   9.857   8.880 -0.9667 -2.7944  3.6802
  969MOL0     H30753   9.626   9.944   8.961  1.8698 -3.9878  2.0218
  969MOL0     H30754   9.559  10.023   8.694  0.3672 -0.5436 -0.8288
  969MOL0     H30755   9.736  10.015   8.701 -0.7847 -3.3079 -0.1486
  969MOL0     H30756   9.657  10.250   8.766 -1.8511  0.2758 -0.0350
  969MOL0     H30757   9.554  10.190   8.889 -0.1608  0.1466 -1.0171
  969MOL0     H30758   9.741  10.261   9.010  1.1007 -0.6552  1.6801
  969MOL0     H30759   9.740  10.088   9.027  1.6855 -0.7060  0.6941
  969MOL0     H30760   9.911  10.039   8.870  2.1103  0.8881 -0.9356
  969MOL0     H30761   9.903  10.200   8.799 -1.6942 -2.2176 -1.0318
  969MOL0     H30762   9.991  10.172   9.088  2.7401  1.4012 -0.9417
  969MOL0     H30763   9.997  10.312   8.980  1.3718  0.1623 -0.6436
  969MOL0     H30764  10.127  10.145   8.826  1.4991  3.5444 -0.1248
  969MOL0     H30765  10.198  10.256   8.933  0.1829  1.2576  2.4059
  969MOL0     H30766  10.155   9.886   8.938 -0.3385 -0.5898  1.5652
  969MOL0     H30767  10.320   9.752   9.265  3.2234 -0.5419 -0.4308
  969MOL0     H30768  10.202   9.698   9.144  1.1480 -2.2603  2.6057
  969MOL0     H30769  10.364   9.696   8.957 -2.9224 -0.3624  0.7581
  969MOL0     H30770  10.485   9.772   9.056  1.3695 -1.3378  1.6572
  969MOL0     H30771  10.346   9.498   9.124 -2.3239  1.5268 -1.0337
  969MOL0     H30772  10.474   9.585   9.221  0.5820 -2.6153  0.2447
  969MOL0     H30773  10.498   9.479   8.934 -0.0931 -0.9834 -0.0738
  969MOL0     H30774  10.547   9.395   9.084 -0.6582  0.6738  2.2870
  969MOL0     H30775  10.751   9.372   8.891  0.3440 -0.9174 -0.8382
  969MOL0     H30776  10.856   9.397   8.686 -0.9609  0.0701  0.2781
  969MOL0     H30777  10.898   9.553   8.245 -0.3472  0.6259 -2.1541
  969MOL0     H30778  11.023   9.601   8.052  0.3350  0.4519  0.2306
  969MOL0     H30779  11.253   9.378   7.930  3.1922 -1.3458 -1.7008
  969MOL0     H30780  11.175   9.518   7.853  1.2703  1.4508 -1.6400
  969MOL0     H30781  11.413   9.588   7.779 -2.0291  0.3039  0.8234
  969MOL0     H30782  11.468   9.439   7.855 -2.5186 -1.0819  1.7513
  969MOL0     H30783  11.322   9.289   7.738 -1.7291  0.3343 -1.7707
  969MOL0     H30784  11.281   9.428   7.631  0.8066 -0.0602 -1.5795
  969MOL0     H30785  11.550   9.307   7.681 -2.5287 -0.2747  2.8649
  969MOL0     H30786  11.510   9.436   7.565  0.4370 -0.0990  1.0010
  969MOL0     H30787  11.404   9.301   7.415 -3.8187 -4.0152 -0.3411
  969MOL0     H30788  11.374   9.181   7.537  0.9330  0.4533  1.4388
  969MOL0     H30789  11.607   9.089   7.518  1.0783  0.1283  0.3020
  969MOL0     H30790  11.560   9.127   7.349  1.7934  0.6757 -0.7820
  969MOL0     H30791  11.703   9.342   7.493  2.8013 -0.1084  2.1023
  969MOL0     H30792  11.703   9.292   7.315 -0.0125 -2.2546 -0.5959
  969MOL0     H30793  11.912   9.248   7.430  0.4840 -1.4921 -1.8923
  969MOL0     H30794  11.827   9.165   7.556 -1.8303 -1.2071  1.0962
  969MOL0     H30795  11.383   9.517   8.253 -0.8418 -2.7787 -1.8774
  969MOL0     H30796  11.249   9.490   8.471 -0.4500  0.6542  0.6848
  969MOL0     H30797  10.862   9.827   8.740  0.1742 -0.7326 -0.9798
  969MOL0     H30798  10.736   9.788   8.947  0.5991  1.8858 -1.7314
  969MOL0     H30799   9.274   9.981   8.698 -0.5427 -0.0908 -3.7329
  969MOL0     H30800   9.077   9.890   8.575 -0.9368  0.1733  2.5616
  969MOL0     H30801   8.785   9.452   8.624 -2.1657  1.1266  0.1879
  969MOL0     H30802   8.633   9.310   8.558 -0.3865  1.3203  1.3840
  969MOL0     H30803   8.572   9.114   8.382 -1.3173 -1.1835  2.0139
  969MOL0     H30804   8.438   9.108   8.275  2.0839 -0.6721 -1.2137
  969MOL0     H30805   8.414   9.217   8.540 -0.6066  1.0057 -0.7840
  969MOL0     H30806   8.351   9.066   8.478 -1.8870  1.1446  2.4567
  969MOL0     H30807   8.223   9.219   8.312  1.6617  3.7665 -0.8829
  969MOL0     H30808   8.253   9.360   8.409  1.6975  0.0938 -0.9405
  969MOL0     H30809   8.036   9.289   8.482 -0.2655 -0.1496  1.0913
  969MOL0     H30810   8.081   9.125   8.459 -1.4684  1.1230 -0.9735
  969MOL0     H30811   8.188   9.230   8.872 -2.2143  0.9429  0.8588
  969MOL0     H30812   8.604   9.493   8.177 -3.2666 -2.4582  1.8098
  969MOL0     H30813   8.721   9.692   8.141 -1.3000 -0.6590  0.9585
  969MOL0     H30814   8.780   9.792   8.269 -0.5895 -0.0826  1.9805
  969MOL0     H30815   8.894   9.670   8.187 -0.8027  0.3589 -0.6182
  970MOL0     O30816   2.392   2.161   3.094  0.1335 -0.3214 -0.6518
  970MOL0     C30817   2.343   2.051   3.069 -0.2909  0.2287 -1.2192
  970MOL0     O30818   2.394   1.937   3.128  0.5667 -0.2156  0.4161
  970MOL0     C30819   2.514   1.944   3.186 -0.3223 -0.1019 -0.5505
  970MOL0     C30820   2.604   1.837   3.147  0.6335 -1.2628  0.3478
  970MOL0     C30821   2.735   1.827   3.203  0.8756  0.0003  0.8307
  970MOL0     C30822   2.779   1.923   3.298 -0.2430 -0.1214  0.6441
  970MOL0     O30823   2.903   1.920   3.361  0.5277 -0.1303  0.3513
  970MOL0     C30824   2.998   1.837   3.303 -1.2353 -0.4215  0.8303
  970MOL0     C30825   3.067   1.874   3.161  0.5205 -0.4136  0.0166
  970MOL0     C30826   3.145   1.745   3.117  0.3213 -0.7815 -1.0364
  970MOL0     C30827   3.224   1.766   2.979 -0.0188 -0.2008 -1.4278
  970MOL0     C30828   3.314   1.645   2.952  0.9426 -0.1928  0.6428
  970MOL0     C30829   3.388   1.678   2.816 -0.0292 -0.4854  0.3855
  970MOL0     C30830   3.504   1.572   2.793 -0.0899  0.0667  0.5120
  970MOL0     C30831   3.613   1.559   2.894  0.4968  0.6633  0.4449
  970MOL0     N30832   3.728   1.479   2.874 -0.0673 -0.7943  1.8044
  970MOL0     C30833   3.810   1.437   2.974 -0.7706 -0.5074  0.4247
  970MOL0     C30834   3.902   1.355   2.912  0.7357 -0.5723  1.3639
  970MOL0     C30835   3.993   1.265   2.981 -0.3717 -0.3181  0.6009
  970MOL0     C30836   3.903   1.170   3.050 -1.4019  0.7169  0.3320
  970MOL0     C30837   3.987   1.067   3.116  0.7182 -0.0214 -0.2692
  970MOL0     C30838   4.052   0.967   3.024  0.0357 -0.5591 -0.7511
  970MOL0     O30839   4.163   0.913   3.081  0.1681 -0.1603 -0.2644
  970MOL0     C30840   4.276   0.995   3.091 -0.7359 -0.6967 -0.0578
  970MOL0     C30841   4.296   1.089   2.992 -0.4074 -0.3461 -0.9964
  970MOL0     C30842   4.398   1.186   3.002 -0.6874 -0.3105 -0.4248
  970MOL0     C30843   4.475   1.197   3.118 -0.5748 -0.0856 -0.3289
  970MOL0     C30844   4.570   1.303   3.141 -0.1850 -0.0884 -0.8154
  970MOL0     O30845   4.621   1.309   3.260 -0.3872 -0.0314 -0.0134
  970MOL0     C30846   4.719   1.400   3.292  0.0786  0.0630 -0.2225
  970MOL0     C30847   4.710   1.456   3.422  1.3127  0.8098  1.3212
  970MOL0     C30848   4.798   1.563   3.455 -1.1059 -0.1596 -0.4068
  970MOL0     C30849   4.912   1.596   3.383 -0.8003  0.2524 -0.7915
  970MOL0     O30850   4.980   1.710   3.417  0.1208  0.2985 -0.4478
  970MOL0     C30851   5.119   1.712   3.390 -0.2189 -0.0288 -0.2137
  970MOL0     C30852   5.191   1.797   3.495  0.0385 -0.7297 -0.4735
  970MOL0     C30853   5.169   1.775   3.645  0.1750  0.0737 -0.1743
  970MOL0     C30854   5.182   1.623   3.678  0.0579  0.1734  0.4776
  970MOL0     C30855   5.201   1.611   3.826 -0.5170 -0.1757  0.0204
  970MOL0     C30856   5.350   1.600   3.850 -0.5297 -0.2520  0.1744
  970MOL0     C30857   5.376   1.572   3.995  0.6610 -0.3367 -0.1933
  970MOL0     C30858   5.485   1.470   4.022  0.5143  0.6686 -0.4032
  970MOL0    Cl30859   5.416   1.312   4.046  0.0626  0.1792  0.1336
  970MOL0     C30860   4.934   1.526   3.261 -0.1610  1.2697 -0.0581
  970MOL0     C30861   4.828   1.430   3.217  0.0399  0.3796  0.6074
  970MOL0     O30862   4.580   1.386   3.054  0.0987  0.0244 -0.6571
  970MOL0     C30863   4.460   1.091   3.211 -0.0482 -0.5770  0.2039
  970MOL0     C30864   4.367   0.995   3.194 -0.0389  0.4938  0.4146
  970MOL0     N30865   3.881   1.363   2.776  0.6526  0.4738  0.2561
  970MOL0     N30866   3.781   1.441   2.754  0.5662  0.2216 -0.6657
  970MOL0     C30867   2.691   2.027   3.339  0.3112 -0.3329 -0.4201
  970MOL0     C30868   2.564   2.038   3.282  0.6838 -0.5230  0.3396
  970MOL0     C30869   2.219   2.053   2.985 -0.1655  0.2125 -0.2071
  970MOL0     C30870   2.129   2.168   2.992  0.1420 -0.3090  0.0776
  970MOL0     C30871   2.008   2.168   2.916 -0.7882  1.3097  0.7253
  970MOL0     C30872   1.975   2.057   2.834 -0.0595  0.2684 -0.3487
  970MOL0     O30873   1.865   2.041   2.749 -0.4669  0.2365 -0.1870
  970MOL0     C30874   1.746   2.130   2.769  0.5114  0.7353  0.5777
  970MOL0     C30875   1.651   2.093   2.655 -0.1339  0.8914 -0.0780
  970MOL0     C30876   1.681   2.145   2.514 -0.0522  0.2439 -0.1967
  970MOL0     C30877   1.553   2.132   2.441  0.4383  0.6779 -0.2234
  970MOL0     C30878   1.547   2.206   2.308 -0.3398 -0.0858 -0.2317
  970MOL0     C30879   1.543   2.250   2.193  0.4806  0.3026 -0.1122
  970MOL0     C30880   2.068   1.959   2.822  0.4981  0.4961 -0.6224
  970MOL0     C30881   2.188   1.953   2.892 -0.0935  0.3104 -0.2295
  970MOL0     C30882   2.279   1.830   2.879 -0.3258 -0.4266  0.4715
  970MOL0     H30883   2.573   1.761   3.076 -1.8127  1.2992 -1.6238
  970MOL0     H30884   2.790   1.741   3.169 -2.3349 -1.7391 -0.3956
  970MOL0     H30885   3.084   1.844   3.370 -1.1929 -0.6621  0.8023
  970MOL0     H30886   2.975   1.731   3.312 -2.7120 -0.0303  1.9583
  970MOL0     H30887   3.131   1.962   3.168 -2.2654  1.9228 -1.6873
  970MOL0     H30888   2.988   1.903   3.092 -2.1435  0.9328  3.3190
  970MOL0     H30889   3.062   1.675   3.107  0.8091 -1.7903  1.1847
  970MOL0     H30890   3.215   1.716   3.196 -1.0985  0.3269  0.7092
  970MOL0     H30891   3.158   1.784   2.894 -2.6755  2.5498  0.9633
  970MOL0     H30892   3.288   1.854   2.986  3.1173 -2.4186  0.8134
  970MOL0     H30893   3.381   1.635   3.038  0.5055 -2.8623  0.7514
  970MOL0     H30894   3.253   1.556   2.934 -0.1187  0.8610 -1.4810
  970MOL0     H30895   3.334   1.683   2.721  2.1113  2.3527 -0.8201
  970MOL0     H30896   3.439   1.774   2.828  3.3930 -1.8677 -1.8257
  970MOL0     H30897   3.548   1.605   2.699 -0.9895 -3.2842 -1.2266
  970MOL0     H30898   3.487   1.465   2.782  1.3764 -0.1977  0.6679
  970MOL0     H30899   3.659   1.658   2.903 -0.4036  1.1898 -0.4503
  970MOL0     H30900   3.574   1.534   2.993 -0.2966  0.6611  0.1443
  970MOL0     H30901   3.812   1.480   3.074  0.5349  2.6517 -0.8103
  970MOL0     H30902   4.072   1.228   2.914 -0.0961  1.4094 -0.0726
  970MOL0     H30903   4.052   1.311   3.061 -1.3749 -2.4687  2.7272
  970MOL0     H30904   3.850   1.217   3.134 -0.8473  0.9965  0.5313
  970MOL0     H30905   3.831   1.127   2.980 -3.7564  3.9834  0.5028
  970MOL0     H30906   3.925   1.015   3.190 -1.4014  0.5934 -1.5320
  970MOL0     H30907   4.067   1.114   3.175  1.1741 -0.4171 -0.5664
  970MOL0     H30908   4.077   0.986   2.919  0.8705 -0.3476 -0.5161
  970MOL0     H30909   3.978   0.886   3.020  2.0456 -2.6160  0.8324
  970MOL0     H30910   4.243   1.072   2.898  1.4423 -3.8328 -1.5669
  970MOL0     H30911   4.402   1.269   2.932  0.6846 -0.3474 -0.4009
  970MOL0     H30912   4.616   1.438   3.472  0.0379  1.1662 -0.7932
  970MOL0     H30913   4.788   1.618   3.548 -1.2470  0.2544 -0.6637
  970MOL0     H30914   5.167   1.614   3.401 -1.2520 -0.8290 -2.2592
  970MOL0     H30915   5.133   1.753   3.289 -1.5516 -1.5200 -1.0488
  970MOL0     H30916   5.297   1.781   3.472 -0.4556 -0.2852 -3.3666
  970MOL0     H30917   5.186   1.904   3.475  1.3198  0.4575  4.2738
  970MOL0     H30918   5.252   1.826   3.695 -1.8443  2.6227  0.7824
  970MOL0     H30919   5.083   1.830   3.682  0.0886  1.4235 -2.2331
  970MOL0     H30920   5.257   1.569   3.620 -1.1325 -0.4747 -0.5128
  970MOL0     H30921   5.093   1.568   3.646  0.7769 -0.7285 -0.0262
  970MOL0     H30922   5.144   1.523   3.860 -2.8680  1.8683  1.7514
  970MOL0     H30923   5.171   1.702   3.878  2.0946  2.2946 -2.4681
  970MOL0     H30924   5.393   1.529   3.779  4.3043  4.1373 -1.9102
  970MOL0     H30925   5.408   1.690   3.825  0.1340 -0.6566  0.2322
  970MOL0     H30926   5.287   1.535   4.045  1.1142 -0.3677  0.6073
  970MOL0     H30927   5.400   1.666   4.045  0.3382  0.1899 -0.9988
  970MOL0     H30928   5.561   1.452   3.945  0.3455 -2.7753  0.1164
  970MOL0     H30929   5.533   1.499   4.116 -0.1014 -1.3356  0.5707
  970MOL0     H30930   5.013   1.556   3.192 -0.2451 -0.1875 -0.8347
  970MOL0     H30931   4.831   1.393   3.115 -2.1551 -0.5028  0.8177
  970MOL0     H30932   4.519   1.097   3.302  2.1770  2.2692 -1.2497
  970MOL0     H30933   4.356   0.918   3.270 -0.6073  0.5377  0.3789
  970MOL0     H30934   2.732   2.101   3.407  0.9653 -1.7100  0.7415
  970MOL0     H30935   2.506   2.113   3.334  0.6190 -1.2293  1.3300
  970MOL0     H30936   2.151   2.248   3.061 -2.3241 -1.6993  2.6810
  970MOL0     H30937   1.941   2.253   2.924  0.7022  3.0477 -2.8165
  970MOL0     H30938   1.765   2.237   2.758  3.0252  0.1798 -1.6348
  970MOL0     H30939   1.692   2.105   2.861 -0.9563  3.8469  0.6936
  970MOL0     H30940   1.548   2.121   2.683 -0.7540 -2.0530  0.8963
  970MOL0     H30941   1.640   1.986   2.640 -1.8996  0.9835  0.2432
  970MOL0     H30942   1.766   2.089   2.474  1.8790  2.1436  1.0086
  970MOL0     H30943   1.717   2.248   2.512 -3.5456  1.6206  0.6502
  970MOL0     H30944   1.520   2.028   2.437  0.6802  0.5563  0.6939
  970MOL0     H30945   1.481   2.182   2.507  1.6063 -0.0506  1.6822
  970MOL0     H30946   1.562   2.276   2.091  0.6205 -1.1850 -0.5022
  970MOL0     H30947   2.056   1.879   2.749  2.6263 -0.3270 -0.1266
  970MOL0     H30948   2.350   1.846   2.798  1.2386 -0.2605  1.8249
  970MOL0     H30949   2.333   1.804   2.970 -1.8947  0.1954  1.6337
  970MOL0     H30950   2.222   1.739   2.860 -0.2149 -0.5922  0.9131
  971MOL0     O30951   1.313   3.413   5.133 -0.3763  0.0878 -0.7554
  971MOL0     C30952   1.204   3.360   5.118 -0.2697  0.5769  0.1329
  971MOL0     O30953   1.193   3.246   5.037 -0.0956  0.1305 -0.3997
  971MOL0     C30954   1.307   3.177   5.028 -0.4074 -0.2074  0.2467
  971MOL0     C30955   1.326   3.072   5.123  0.4188  0.4664  0.3151
  971MOL0     C30956   1.435   2.989   5.117 -0.5726 -0.0062 -0.1822
  971MOL0     C30957   1.527   3.004   5.017  0.6945  1.5984  0.0997
  971MOL0     O30958   1.631   2.924   5.025 -0.3635  0.9847  0.3361
  971MOL0     C30959   1.707   2.882   4.907  0.7617 -0.1416 -0.3320
  971MOL0     C30960   1.632   2.779   4.831  0.0231 -0.3559  0.0926
  971MOL0     C30961   1.692   2.746   4.695 -0.6563 -0.0743  0.6420
  971MOL0     C30962   1.650   2.605   4.657 -0.0600 -0.4962 -0.5584
  971MOL0     C30963   1.712   2.566   4.524 -0.3011 -0.7820  0.0750
  971MOL0     C30964   1.666   2.422   4.473  0.1849  1.0142 -0.1887
  971MOL0     C30965   1.731   2.386   4.338  0.2371  0.1583 -0.2014
  971MOL0     C30966   1.636   2.433   4.220 -0.6356  0.1186 -0.6001
  971MOL0     N30967   1.644   2.573   4.200 -0.1023 -0.1237  0.6195
  971MOL0     C30968   1.539   2.661   4.197 -0.4635 -0.4617 -0.0114
  971MOL0     C30969   1.595   2.781   4.183  0.7254 -0.3049  0.0085
  971MOL0     C30970   1.528   2.913   4.172  0.9926 -0.4621 -0.3407
  971MOL0     C30971   1.545   3.000   4.300  0.0398 -0.8593  0.7915
  971MOL0     C30972   1.475   2.932   4.420  0.0639 -0.2167  0.4896
  971MOL0     C30973   1.455   3.028   4.539 -0.1675 -0.4636  0.0320
  971MOL0     O30974   1.402   2.943   4.637  0.5770 -0.1003  1.2773
  971MOL0     C30975   1.280   2.981   4.694 -0.4125 -0.2304 -0.0204
  971MOL0     C30976   1.236   2.877   4.775 -0.0905 -0.7049  0.2247
  971MOL0     C30977   1.109   2.896   4.835 -0.7430  0.1873  0.9929
  971MOL0     C30978   1.041   3.023   4.834  0.2359  0.7155  0.6704
  971MOL0     C30979   0.914   3.034   4.905  0.5390  0.0668  0.2803
  971MOL0     O30980   0.897   2.957   5.018 -0.1209 -0.1720 -0.0187
  971MOL0     C30981   0.792   2.989   5.111  1.1782  0.7364  0.6542
  971MOL0     C30982   0.825   3.026   5.240  0.1757  0.3767  0.2859
  971MOL0     C30983   0.724   3.061   5.327  0.0741  0.5283 -0.2440
  971MOL0     C30984   0.590   3.064   5.292 -0.2017  0.2322 -0.0181
  971MOL0     O30985   0.491   3.112   5.374 -0.2897 -0.2696  0.0892
  971MOL0     C30986   0.504   3.082   5.514 -0.4535  0.1767 -0.2189
  971MOL0     C30987   0.383   3.140   5.590 -0.1836 -0.0697  0.0742
  971MOL0     C30988   0.346   3.284   5.552  1.0572 -0.7261 -0.7615
  971MOL0     C30989   0.248   3.356   5.650  0.4543  0.8211 -0.2489
  971MOL0     C30990   0.098   3.317   5.622 -0.0814 -0.5741  0.1405
  971MOL0     C30991  -0.011   3.382   5.711 -0.6345 -0.2423  0.3625
  971MOL0     C30992  -0.158   3.333   5.681  0.1665  0.1054 -0.2873
  971MOL0     C30993  -0.233   3.403   5.573  0.5921  0.0659  0.0570
  971MOL0    Cl30994  -0.411   3.371   5.573  0.0240 -0.7168  0.1768
  971MOL0     C30995   0.558   3.034   5.162  0.6754  0.7241  0.5468
  971MOL0     C30996   0.655   2.995   5.074 -0.6552  0.9027  0.4710
  971MOL0     O30997   0.834   3.112   4.860  0.4698 -0.0741  0.4181
  971MOL0     C30998   1.091   3.123   4.748  0.3337  0.2874  0.2533
  971MOL0     C30999   1.212   3.105   4.675  0.4556  0.4072 -0.0680
  971MOL0     N31000   1.732   2.768   4.172 -0.4282  0.2880  0.1584
  971MOL0     N31001   1.759   2.641   4.191 -0.1945 -0.2417  0.2551
  971MOL0     C31002   1.512   3.104   4.920 -1.0180 -0.0040 -0.0262
  971MOL0     C31003   1.406   3.185   4.930  0.9225 -0.6274  1.0128
  971MOL0     C31004   1.072   3.409   5.179 -0.1107  0.5932  1.3468
  971MOL0     C31005   0.956   3.371   5.103 -0.3157 -0.3521 -0.3888
  971MOL0     C31006   0.823   3.396   5.154  0.4361  0.4178  0.3916
  971MOL0     C31007   0.809   3.457   5.277  0.1942 -0.0660  0.1753
  971MOL0     O31008   0.691   3.478   5.338  0.0705 -0.4310 -0.1708
  971MOL0     C31009   0.563   3.454   5.264 -1.4622  0.2788  0.1257
  971MOL0     C31010   0.468   3.562   5.280 -1.1037  0.2781  1.4663
  971MOL0     C31011   0.534   3.693   5.237  0.6522  0.0451 -0.6254
  971MOL0     C31012   0.440   3.814   5.240 -0.1914 -0.1049 -1.1532
  971MOL0     C31013   0.379   3.837   5.371 -0.1961 -0.4723 -0.3481
  971MOL0     C31014   0.336   3.843   5.484 -0.5860 -0.0216  0.1044
  971MOL0     C31015   0.923   3.496   5.355 -0.5973  1.0146 -0.5180
  971MOL0     C31016   1.049   3.474   5.305 -0.6408  0.4932 -0.1229
  971MOL0     C31017   1.172   3.506   5.406  0.1576 -0.1498  0.5150
  971MOL0     H31018   1.266   3.068   5.213 -1.6834  0.8200 -0.9894
  971MOL0     H31019   1.439   2.912   5.194 -0.5917  0.3144  0.1377
  971MOL0     H31020   1.717   2.966   4.838 -0.0217 -0.3595 -0.7268
  971MOL0     H31021   1.803   2.852   4.950 -0.0608  1.5491  3.0324
  971MOL0     H31022   1.535   2.819   4.802  0.3232  0.0971 -0.3101
  971MOL0     H31023   1.630   2.689   4.893 -0.4752  0.2629  0.9864
  971MOL0     H31024   1.801   2.756   4.697 -0.6150  3.0214 -3.4132
  971MOL0     H31025   1.670   2.819   4.617  0.4447  1.7337  1.9601
  971MOL0     H31026   1.693   2.544   4.737 -0.7224 -0.3892 -0.1153
  971MOL0     H31027   1.544   2.586   4.673 -0.1378 -0.4187 -0.9531
  971MOL0     H31028   1.678   2.632   4.444 -0.8193 -3.0381 -1.6880
  971MOL0     H31029   1.821   2.561   4.525 -0.0433 -1.4656 -5.0837
  971MOL0     H31030   1.708   2.347   4.540  2.5823 -0.2318 -2.8913
  971MOL0     H31031   1.557   2.413   4.468  0.1871  1.4405 -1.0902
  971MOL0     H31032   1.734   2.278   4.326 -0.3752  0.3812 -3.1520
  971MOL0     H31033   1.833   2.424   4.336  0.0991  0.5496  0.1457
  971MOL0     H31034   1.669   2.390   4.125 -0.0630  0.0797 -0.3857
  971MOL0     H31035   1.534   2.396   4.233  0.4627 -2.8331  0.4894
  971MOL0     H31036   1.434   2.633   4.204 -1.1546  0.9054 -3.1950
  971MOL0     H31037   1.556   2.969   4.082 -3.1550  4.1104  0.7390
  971MOL0     H31038   1.423   2.892   4.150  0.8512 -1.9957  1.5280
  971MOL0     H31039   1.653   3.015   4.308  0.2461 -2.6464  2.2226
  971MOL0     H31040   1.499   3.094   4.268  2.0358  0.2868  1.0878
  971MOL0     H31041   1.533   2.845   4.453  1.8384  0.8509  0.3392
  971MOL0     H31042   1.375   2.903   4.389 -0.6511  1.2941  1.2658
  971MOL0     H31043   1.394   3.115   4.510 -1.8106 -1.3398  0.7366
  971MOL0     H31044   1.555   3.065   4.564  0.7001 -3.6700  1.8754
  971MOL0     H31045   1.299   2.789   4.782  2.4405  0.8168 -1.6444
  971MOL0     H31046   1.059   2.812   4.881 -0.5784 -0.3430  0.2293
  971MOL0     H31047   0.931   3.031   5.263  0.7973  0.2393 -2.2059
  971MOL0     H31048   0.761   3.090   5.425  0.1018 -0.5937  0.0923
  971MOL0     H31049   0.500   2.973   5.529 -1.8648  0.4988  2.1063
  971MOL0     H31050   0.585   3.128   5.571 -0.7999  0.2879  0.1905
  971MOL0     H31051   0.293   3.077   5.589 -0.3651 -0.0046  3.3250
  971MOL0     H31052   0.410   3.144   5.695 -0.4828  1.2868  0.1222
  971MOL0     H31053   0.438   3.343   5.548  0.6051  0.1556  0.9997
  971MOL0     H31054   0.309   3.294   5.449  0.0018  1.3431 -0.2376
  971MOL0     H31055   0.245   3.465   5.641  0.9673  0.7483 -1.4785
  971MOL0     H31056   0.276   3.338   5.755 -2.3514 -1.5941  0.1978
  971MOL0     H31057   0.092   3.209   5.639  1.5527 -0.9760 -1.4796
  971MOL0     H31058   0.083   3.342   5.517 -2.3588 -2.0410  0.0617
  971MOL0     H31059   0.009   3.358   5.815  1.2483  0.5220  0.2174
  971MOL0     H31060  -0.008   3.490   5.694 -0.6505  0.2152  2.9376
  971MOL0     H31061  -0.222   3.332   5.770 -2.1515 -1.7853 -1.8401
  971MOL0     H31062  -0.161   3.229   5.648  0.6790  0.4481 -1.4360
  971MOL0     H31063  -0.213   3.510   5.583 -0.3896  0.2376  0.3843
  971MOL0     H31064  -0.204   3.368   5.474 -2.8320  1.9533 -1.8433
  971MOL0     H31065   0.458   3.034   5.120  1.2619  0.0103 -0.9592
  971MOL0     H31066   0.637   2.955   4.975 -1.7835 -1.5486  1.5769
  971MOL0     H31067   1.028   3.204   4.712 -0.5979 -1.0179 -1.2250
  971MOL0     H31068   1.235   3.188   4.608  1.6870  0.4026  0.3318
  971MOL0     H31069   1.586   3.121   4.842 -1.9435 -2.9363 -1.6857
  971MOL0     H31070   1.412   3.271   4.864 -0.9837 -0.7712  0.6165
  971MOL0     H31071   0.958   3.304   5.019  0.6067  1.3297 -1.7709
  971MOL0     H31072   0.735   3.357   5.103  2.5602 -2.7892 -1.2387
  971MOL0     H31073   0.525   3.358   5.301 -2.5694  0.7802  0.3101
  971MOL0     H31074   0.582   3.452   5.157  1.3292 -1.8434  0.5314
  971MOL0     H31075   0.445   3.566   5.387  0.3010  0.0454  1.7857
  971MOL0     H31076   0.374   3.551   5.225 -1.8796  1.6506  2.4515
  971MOL0     H31077   0.586   3.695   5.141  4.8615  0.6187  1.4206
  971MOL0     H31078   0.614   3.713   5.309  0.1315 -3.5914  1.1530
  971MOL0     H31079   0.500   3.904   5.222  1.0283 -0.9377 -1.4221
  971MOL0     H31080   0.358   3.808   5.168 -2.5818 -0.1812  1.4142
  971MOL0     H31081   0.287   3.841   5.579  1.6055 -3.2579  1.3319
  971MOL0     H31082   0.917   3.507   5.462 -0.7401 -0.3135 -0.3703
  971MOL0     H31083   1.141   3.546   5.503 -0.7517  2.3775 -0.7124
  971MOL0     H31084   1.234   3.418   5.420 -1.3245 -1.2635  0.3683
  971MOL0     H31085   1.237   3.585   5.367 -2.4004  1.7874 -0.1209
  972MOL0     O31086   9.802   0.147   1.446  0.1065 -0.1388  0.7528
  972MOL0     C31087   9.690   0.113   1.485  0.7386  0.0934 -0.3100
  972MOL0     O31088   9.657   0.066   1.610  0.5401  0.2729  1.0215
  972MOL0     C31089   9.731   0.093   1.725 -0.6416  0.1589  0.1162
  972MOL0     C31090   9.806   0.211   1.743  0.6169 -0.4336  0.0860
  972MOL0     C31091   9.881   0.226   1.855  0.1412 -0.4814 -0.7163
  972MOL0     C31092   9.868   0.135   1.963  0.0181  0.2549  0.0862
  972MOL0     O31093   9.917   0.165   2.095 -0.6675 -0.2463  0.5321
  972MOL0     C31094   9.989   0.062   2.161  0.4566 -0.1351 -0.4478
  972MOL0     C31095  10.115   0.038   2.073 -0.2717  0.1995 -0.2139
  972MOL0     C31096  10.223   0.147   2.083  0.0769 -0.8717  1.3773
  972MOL0     C31097  10.269   0.180   1.944  0.4785 -1.0955  0.2505
  972MOL0     C31098  10.365   0.292   1.954 -0.9284 -0.3701 -0.1815
  972MOL0     C31099  10.499   0.274   2.035  0.3008 -1.2006 -0.4119
  972MOL0     C31100  10.568   0.142   1.995  0.1992 -0.9729 -0.1279
  972MOL0     C31101  10.710   0.130   2.065  0.0042 -0.4445 -0.3012
  972MOL0     N31102  10.766   0.009   1.997  0.5257  0.7816 -0.9451
  972MOL0     C31103  10.824   0.009   1.875  0.0525  1.1999  0.3327
  972MOL0     C31104  10.883  -0.122   1.867  0.2162 -0.2925 -1.1711
  972MOL0     C31105  10.968  -0.178   1.759 -0.8224  0.2012 -0.0410
  972MOL0     C31106  11.111  -0.205   1.807  0.7518 -0.6354 -0.5487
  972MOL0     C31107  11.193  -0.301   1.716  0.9798 -0.7158 -0.2016
  972MOL0     C31108  11.340  -0.315   1.765 -0.5318  1.1922 -0.5590
  972MOL0     O31109  11.409  -0.204   1.731 -0.1468  0.2276 -0.5043
  972MOL0     C31110  11.547  -0.220   1.731 -1.2731 -1.2887  0.1065
  972MOL0     C31111  11.617  -0.325   1.783  0.4783  0.6950  0.2674
  972MOL0     C31112  11.756  -0.347   1.801  0.7000 -0.2898 -0.8201
  972MOL0     C31113  11.839  -0.246   1.757 -0.5909 -0.5773  0.0303
  972MOL0     C31114  11.982  -0.254   1.802 -0.4443 -0.1432 -0.0155
  972MOL0     O31115  12.060  -0.145   1.767 -0.1470 -0.4450  0.2304
  972MOL0     C31116  12.187  -0.141   1.811  0.0827 -0.2741 -0.2451
  972MOL0     C31117  12.212  -0.115   1.943  0.0812 -0.0681 -0.7840
  972MOL0     C31118  12.335  -0.112   2.007  0.1643  0.2876 -0.3915
  972MOL0     C31119  12.448  -0.123   1.921  0.0327 -0.2674 -0.0380
  972MOL0     O31120  12.568  -0.106   1.980  0.4458 -0.2949 -0.3778
  972MOL0     C31121  12.688  -0.093   1.911 -0.8595 -0.2916 -0.1713
  972MOL0     C31122  12.806  -0.070   2.003 -0.2462  0.4200  0.6266
  972MOL0     C31123  12.928  -0.091   1.922  0.2392  1.1275  0.0632
  972MOL0     C31124  13.053  -0.095   2.012  0.6793  0.6255  0.0104
  972MOL0     C31125  13.172  -0.175   1.953 -0.1223 -0.1015 -0.7418
  972MOL0     C31126  13.296  -0.180   2.048  0.1968 -0.4629  0.0958
  972MOL0     C31127  13.405  -0.268   1.986 -0.3818 -0.3968  0.9576
  972MOL0     C31128  13.513  -0.307   2.083  0.0698  0.1482 -0.1063
  972MOL0    Cl31129  13.464  -0.452   2.181  0.0097  0.0868  0.0344
  972MOL0     C31130  12.422  -0.161   1.786 -0.3890 -0.2351 -0.0149
  972MOL0     C31131  12.293  -0.174   1.731 -0.4759 -0.7548  0.0603
  972MOL0     O31132  12.005  -0.343   1.889  0.3177  0.3980  0.0474
  972MOL0     C31133  11.777  -0.132   1.702  0.4321 -0.1275  0.6219
  972MOL0     C31134  11.636  -0.112   1.694 -0.7265  0.4349  0.5328
  972MOL0     N31135  10.832  -0.191   1.974  0.9155  0.5701 -0.4641
  972MOL0     N31136  10.763  -0.115   2.050  0.3148 -0.1821 -0.7932
  972MOL0     C31137   9.790   0.022   1.944  0.1711  1.0877  1.1948
  972MOL0     C31138   9.726  -0.001   1.825 -0.1806 -0.1594 -0.3261
  972MOL0     C31139   9.576   0.129   1.388  0.4998  0.2033 -0.1291
  972MOL0     C31140   9.588   0.079   1.261  0.1199  0.9988 -0.5263
  972MOL0     C31141   9.489   0.100   1.171 -0.1889 -0.4860  0.7059
  972MOL0     C31142   9.377   0.182   1.190  0.2376  0.6505  0.2080
  972MOL0     O31143   9.309   0.229   1.077  0.3976 -0.5822  0.0873
  972MOL0     C31144   9.370   0.349   1.015 -0.8281  0.5680  0.0634
  972MOL0     C31145   9.366   0.352   0.856  0.2755 -0.0334  0.9756
  972MOL0     C31146   9.447   0.239   0.797 -0.2307  0.0630 -0.5986
  972MOL0     C31147   9.601   0.247   0.810 -0.5106 -0.3344  0.5049
  972MOL0     C31148   9.643   0.349   0.711 -0.2133 -0.1954  0.2578
  972MOL0     C31149   9.673   0.430   0.624  0.2185  0.2118 -0.1279
  972MOL0     C31150   9.361   0.234   1.317 -0.3366 -0.7211  0.0930
  972MOL0     C31151   9.460   0.213   1.419  0.3306  0.0428 -0.0938
  972MOL0     C31152   9.443   0.287   1.552 -0.2924  0.2183  0.1945
  972MOL0     H31153   9.801   0.291   1.669 -0.3569  0.6239  1.2378
  972MOL0     H31154   9.935   0.317   1.878 -0.6723 -0.0595 -0.4654
  972MOL0     H31155  10.013   0.098   2.262  2.0460  1.1199 -1.2372
  972MOL0     H31156   9.935  -0.030   2.184  0.0915  0.8069  3.0662
  972MOL0     H31157  10.103   0.007   1.969  4.1857  1.3047 -1.2683
  972MOL0     H31158  10.144  -0.058   2.116 -4.1524 -2.4285 -2.8679
  972MOL0     H31159  10.308   0.112   2.142  1.1521 -0.9008 -0.1381
  972MOL0     H31160  10.184   0.237   2.130 -0.3141  0.6639 -1.6693
  972MOL0     H31161  10.306   0.090   1.894  1.0831 -0.2635 -0.8201
  972MOL0     H31162  10.175   0.214   1.900 -1.9130 -1.8493  4.1921
  972MOL0     H31163  10.396   0.313   1.851 -0.1557 -2.1916 -0.3608
  972MOL0     H31164  10.317   0.375   2.006  0.3060  0.6534 -0.6197
  972MOL0     H31165  10.576   0.348   2.011  0.1547 -1.1778 -0.8334
  972MOL0     H31166  10.473   0.272   2.141 -0.2833 -1.1941 -0.5485
  972MOL0     H31167  10.569   0.138   1.886 -1.4496  0.4732 -0.2603
  972MOL0     H31168  10.509   0.054   2.022 -1.3121 -0.8690 -2.7587
  972MOL0     H31169  10.782   0.210   2.047  2.4493 -2.8974 -2.3489
  972MOL0     H31170  10.702   0.114   2.173  1.2001 -3.1451 -0.5174
  972MOL0     H31171  10.843   0.095   1.811  0.3502  2.4827  2.0850
  972MOL0     H31172  10.914  -0.269   1.731 -0.1559  0.0158 -0.7512
  972MOL0     H31173  10.978  -0.108   1.676  3.5701  1.5168  1.3135
  972MOL0     H31174  11.168  -0.112   1.812 -1.0202  0.4262  1.0677
  972MOL0     H31175  11.109  -0.250   1.907 -0.0724  0.4496 -0.0669
  972MOL0     H31176  11.194  -0.256   1.616 -4.9608 -2.7752 -1.5907
  972MOL0     H31177  11.141  -0.396   1.705 -0.6245  0.2484 -1.2897
  972MOL0     H31178  11.388  -0.396   1.709  0.4142 -0.8635  2.9669
  972MOL0     H31179  11.337  -0.336   1.872 -0.8230 -0.7005 -0.9065
  972MOL0     H31180  11.564  -0.407   1.831  1.0547 -1.2472 -2.2022
  972MOL0     H31181  11.787  -0.442   1.844  1.0327 -0.2460 -0.9647
  972MOL0     H31182  12.131  -0.120   2.015 -0.1816 -2.2837 -1.1451
  972MOL0     H31183  12.349  -0.098   2.113  1.3754  0.7129 -0.5896
  972MOL0     H31184  12.710  -0.192   1.870  1.2761 -0.5230  1.3384
  972MOL0     H31185  12.686  -0.011   1.840  1.9274  0.0475  0.0423
  972MOL0     H31186  12.788   0.032   2.039 -0.2333  0.1395  1.4629
  972MOL0     H31187  12.803  -0.145   2.083 -1.4656 -3.2831 -2.5503
  972MOL0     H31188  12.928  -0.183   1.863 -1.0485  0.9735  0.2668
  972MOL0     H31189  12.938   0.001   1.864  0.7806  3.1141  3.0993
  972MOL0     H31190  13.030  -0.138   2.109 -0.4341  1.5397  0.1716
  972MOL0     H31191  13.081   0.010   2.024  0.0956  1.4597 -4.1749
  972MOL0     H31192  13.196  -0.133   1.855  2.9071  0.6835  0.2210
  972MOL0     H31193  13.139  -0.278   1.934 -1.0740  0.1258 -0.3736
  972MOL0     H31194  13.325  -0.080   2.082 -2.2085  0.2916  0.1928
  972MOL0     H31195  13.254  -0.243   2.127  1.9423 -1.4833  0.2440
  972MOL0     H31196  13.449  -0.204   1.908  0.7887 -0.6168  1.4174
  972MOL0     H31197  13.362  -0.356   1.937 -1.0938  0.5148 -0.1061
  972MOL0     H31198  13.613  -0.327   2.043  1.7423  1.5366  2.9672
  972MOL0     H31199  13.539  -0.228   2.154  4.0084  2.1625 -3.3729
  972MOL0     H31200  12.518  -0.177   1.737  0.2310 -0.2888  1.1674
  972MOL0     H31201  12.285  -0.205   1.627 -2.4040 -2.1560  0.5651
  972MOL0     H31202  11.827  -0.041   1.671 -1.6522 -0.0945 -3.2736
  972MOL0     H31203  11.585  -0.024   1.656 -3.0349 -1.6004 -1.3576
  972MOL0     H31204   9.791  -0.052   2.024 -1.1033 -0.4466 -0.1308
  972MOL0     H31205   9.663  -0.085   1.796 -1.6656  1.6898 -2.8487
  972MOL0     H31206   9.680   0.034   1.225  0.4237  1.0438  0.1837
  972MOL0     H31207   9.516   0.078   1.069  0.0949 -0.4829  0.7792
  972MOL0     H31208   9.477   0.359   1.037 -0.8843  3.8614 -0.5309
  972MOL0     H31209   9.330   0.443   1.054 -1.8917  0.3742 -0.5358
  972MOL0     H31210   9.402   0.447   0.817 -0.1696 -0.8795 -1.7170
  972MOL0     H31211   9.262   0.343   0.823  0.7563  1.0738 -0.9971
  972MOL0     H31212   9.411   0.241   0.694  0.2369 -1.5291 -0.8234
  972MOL0     H31213   9.402   0.151   0.843  0.1599  0.7037  1.1061
  972MOL0     H31214   9.641   0.268   0.910  1.1722 -2.8406  0.4335
  972MOL0     H31215   9.653   0.156   0.779  1.7332  1.2768 -0.7676
  972MOL0     H31216   9.668   0.486   0.533 -2.8110  1.0131  0.4229
  972MOL0     H31217   9.278   0.297   1.346 -0.7789 -1.6384  0.8760
  972MOL0     H31218   9.361   0.252   1.615  0.9788 -1.2850  1.1065
  972MOL0     H31219   9.529   0.265   1.616 -0.2443  1.3496  0.5482
  972MOL0     H31220   9.430   0.396   1.548  1.6432  0.4525 -1.1848
  973MOL0     O31221   8.067   6.661   2.549  0.2248 -0.4755 -0.1109
  973MOL0     C31222   8.078   6.544   2.600  0.1524  1.4020 -0.0331
  973MOL0     O31223   7.978   6.476   2.674  0.3972 -0.3643  0.2893
  973MOL0     C31224   7.856   6.541   2.672 -0.1016  0.3538  0.3950
  973MOL0     C31225   7.749   6.501   2.582  0.4895 -0.8375  0.1374
  973MOL0     C31226   7.623   6.562   2.583 -0.8951 -0.8399 -0.4399
  973MOL0     C31227   7.608   6.675   2.669  0.0515  0.5262  0.5042
  973MOL0     O31228   7.495   6.747   2.675  0.3052 -0.7602 -0.2182
  973MOL0     C31229   7.474   6.845   2.572  1.4616  0.5207  0.7464
  973MOL0     C31230   7.566   6.970   2.572 -0.6595 -0.2114 -0.4840
  973MOL0     C31231   7.520   7.080   2.470 -0.4001  1.3138  0.2702
  973MOL0     C31232   7.619   7.198   2.471  0.3869  0.3599 -0.3171
  973MOL0     C31233   7.566   7.295   2.366 -0.8288 -0.2166 -0.1467
  973MOL0     C31234   7.463   7.395   2.438 -0.6094 -0.8687  0.4087
  973MOL0     C31235   7.392   7.486   2.334 -0.4828  0.0861  0.2349
  973MOL0     C31236   7.276   7.422   2.250  0.2569  0.3010 -0.2154
  973MOL0     N31237   7.160   7.397   2.325  0.4054 -0.0283 -0.0433
  973MOL0     C31238   7.105   7.457   2.434 -0.2926  0.0897 -0.9876
  973MOL0     C31239   7.024   7.361   2.483 -0.7137  0.5277  0.6750
  973MOL0     C31240   6.945   7.371   2.612 -0.1211 -0.1288  0.6134
  973MOL0     C31241   6.995   7.262   2.710  0.1449  0.2073 -0.1382
  973MOL0     C31242   7.139   7.286   2.746 -0.4003 -0.7362  0.3431
  973MOL0     C31243   7.185   7.188   2.853 -0.3782  0.3642 -1.1201
  973MOL0     O31244   7.331   7.193   2.881 -0.1723 -0.0979  0.2351
  973MOL0     C31245   7.402   7.086   2.940 -0.7552 -0.6519  1.4141
  973MOL0     C31246   7.530   7.125   2.986  1.2036 -1.0919 -0.1208
  973MOL0     C31247   7.612   7.030   3.026 -0.1852 -0.3973 -0.1252
  973MOL0     C31248   7.577   6.894   3.036  0.1617 -0.0747  0.1555
  973MOL0     C31249   7.662   6.796   3.100 -0.1878 -0.0433 -0.5253
  973MOL0     O31250   7.629   6.664   3.110  0.5908 -0.3555 -0.2670
  973MOL0     C31251   7.717   6.572   3.157  0.7639 -0.5228 -0.4926
  973MOL0     C31252   7.704   6.539   3.291 -0.0511  0.6707  0.2592
  973MOL0     C31253   7.795   6.455   3.354 -0.0311 -0.3926 -0.6336
  973MOL0     C31254   7.901   6.402   3.278  0.3882  0.6627 -0.0382
  973MOL0     O31255   7.982   6.334   3.373 -0.5984  0.7904  0.3874
  973MOL0     C31256   8.091   6.260   3.306 -0.4130 -0.2087  0.5356
  973MOL0     C31257   8.164   6.195   3.433 -0.1113 -0.2721 -0.3777
  973MOL0     C31258   8.254   6.281   3.513 -0.0732  0.2858 -0.3399
  973MOL0     C31259   8.315   6.207   3.631  0.1972 -0.2305  0.3088
  973MOL0     C31260   8.431   6.285   3.703 -0.2565  0.1942  0.3270
  973MOL0     C31261   8.554   6.322   3.617 -0.3117 -0.0854  0.1590
  973MOL0     C31262   8.642   6.195   3.601 -0.0125  0.2688 -0.5479
  973MOL0     C31263   8.770   6.207   3.509 -0.4540 -0.4845  0.8494
  973MOL0    Cl31264   8.908   6.316   3.578 -0.1608  0.1049  0.3317
  973MOL0     C31265   7.909   6.414   3.139 -0.1393  0.4046  0.7508
  973MOL0     C31266   7.808   6.501   3.077  0.6252  0.3299 -0.2975
  973MOL0     O31267   7.758   6.843   3.160 -0.3079 -0.3630 -0.1153
  973MOL0     C31268   7.449   6.861   3.006  0.2571  0.6990  0.4402
  973MOL0     C31269   7.355   6.955   2.953  0.2725 -0.1339  0.2123
  973MOL0     N31270   7.027   7.256   2.401  0.1511 -0.2325  0.2926
  973MOL0     N31271   7.100   7.278   2.302 -0.3139 -0.5507 -0.1352
  973MOL0     C31272   7.717   6.725   2.743 -0.1158 -0.3437  1.1206
  973MOL0     C31273   7.833   6.655   2.747  0.3648 -0.5406 -0.7561
  973MOL0     C31274   8.216   6.475   2.606  0.7770  0.5396 -0.4174
  973MOL0     C31275   8.325   6.552   2.652 -0.2661 -0.6540  0.4824
  973MOL0     C31276   8.464   6.507   2.650  0.1300  0.0218 -1.1305
  973MOL0     C31277   8.489   6.375   2.604  0.0111  0.5022  0.7351
  973MOL0     O31278   8.602   6.307   2.578  0.2962  0.5673  0.0130
  973MOL0     C31279   8.725   6.381   2.582  0.1779 -0.2654 -0.3501
  973MOL0     C31280   8.838   6.313   2.514  0.4090 -0.0853 -0.3943
  973MOL0     C31281   8.822   6.312   2.360 -0.0551 -1.0733 -0.4041
  973MOL0     C31282   8.863   6.444   2.293  0.0702 -0.2927  0.0376
  973MOL0     C31283   9.007   6.454   2.273 -0.1282  0.6917 -0.3247
  973MOL0     C31284   9.127   6.451   2.262  0.0121  0.0375 -0.1253
  973MOL0     C31285   8.376   6.294   2.582  0.4026 -0.2082  0.2075
  973MOL0     C31286   8.241   6.338   2.592 -0.2077 -0.4956 -0.1690
  973MOL0     C31287   8.126   6.245   2.562 -0.3921  0.3679 -0.3569
  973MOL0     H31288   7.764   6.411   2.522 -1.9849 -1.4484  0.3242
  973MOL0     H31289   7.546   6.528   2.515  1.9056 -3.3940 -2.5754
  973MOL0     H31290   7.483   6.785   2.481  0.0392 -0.2621  1.0940
  973MOL0     H31291   7.371   6.880   2.585  1.2385  0.6019 -1.0712
  973MOL0     H31292   7.663   6.934   2.536 -0.0341  0.5959  0.3493
  973MOL0     H31293   7.574   6.998   2.677 -1.2030 -0.5611 -0.3407
  973MOL0     H31294   7.416   7.108   2.493  0.0872  3.1768  0.3519
  973MOL0     H31295   7.519   7.032   2.371 -0.6603 -2.1514  1.8131
  973MOL0     H31296   7.626   7.242   2.571 -0.7504  0.1887 -0.1524
  973MOL0     H31297   7.717   7.162   2.439 -0.0388 -2.3449  1.1229
  973MOL0     H31298   7.652   7.343   2.318 -0.5103 -1.8491 -1.3014
  973MOL0     H31299   7.505   7.248   2.287 -0.0530 -2.4822  0.5317
  973MOL0     H31300   7.392   7.338   2.498  1.3556 -1.9099  1.8383
  973MOL0     H31301   7.512   7.452   2.517  0.3684 -0.6771 -0.3227
  973MOL0     H31302   7.471   7.509   2.262 -0.9873  0.3500 -0.2339
  973MOL0     H31303   7.360   7.580   2.381  1.0474  1.5650 -1.4833
  973MOL0     H31304   7.261   7.470   2.153 -2.0069 -1.1466 -0.6484
  973MOL0     H31305   7.319   7.328   2.217  1.5412  0.6995  0.2542
  973MOL0     H31306   7.130   7.557   2.468 -1.5991  0.3379 -0.7308
  973MOL0     H31307   6.960   7.474   2.645 -3.9917  1.0995 -0.9326
  973MOL0     H31308   6.836   7.366   2.610 -0.2183  1.0069 -2.4640
  973MOL0     H31309   6.930   7.273   2.798 -0.1656  1.7179 -0.5163
  973MOL0     H31310   6.975   7.161   2.675 -2.5838  0.9475 -0.9041
  973MOL0     H31311   7.157   7.391   2.770 -0.6014 -0.5746 -0.1986
  973MOL0     H31312   7.200   7.277   2.655 -0.3754 -0.5413  0.3398
  973MOL0     H31313   7.166   7.083   2.825  3.3560 -0.7282 -0.0892
  973MOL0     H31314   7.114   7.207   2.934 -0.4266  1.5320 -1.4166
  973MOL0     H31315   7.565   7.227   2.977  0.8991 -1.1376 -2.4323
  973MOL0     H31316   7.713   7.054   3.056 -0.5982  1.3319 -0.0067
  973MOL0     H31317   7.631   6.575   3.363  0.2931 -1.4421  1.7691
  973MOL0     H31318   7.805   6.434   3.461 -1.4223 -1.1518 -0.6193
  973MOL0     H31319   8.051   6.183   3.239  0.9055 -2.3590  2.0991
  973MOL0     H31320   8.162   6.327   3.256 -2.3109  1.7822  0.3082
  973MOL0     H31321   8.084   6.165   3.501  0.6632  1.7582  1.5375
  973MOL0     H31322   8.225   6.110   3.400  0.0697  0.2987 -1.5815
  973MOL0     H31323   8.329   6.317   3.441 -0.0250 -3.2739 -2.2876
  973MOL0     H31324   8.190   6.361   3.551 -0.7328 -1.0238  1.4298
  973MOL0     H31325   8.351   6.110   3.598  0.4456 -0.7740  2.0363
  973MOL0     H31326   8.240   6.176   3.704 -0.9897  0.8087 -0.4407
  973MOL0     H31327   8.472   6.220   3.781  0.2695 -1.4337 -1.2356
  973MOL0     H31328   8.387   6.372   3.752  4.1378  1.3199  2.8826
  973MOL0     H31329   8.533   6.369   3.521  2.4718  1.3626  0.1372
  973MOL0     H31330   8.607   6.387   3.688 -0.5075  0.3516 -0.0920
  973MOL0     H31331   8.574   6.118   3.562 -1.0409  2.1541 -2.7497
  973MOL0     H31332   8.674   6.165   3.701 -0.8573 -0.8167 -0.5810
  973MOL0     H31333   8.813   6.106   3.507  1.2841  0.2181  1.0483
  973MOL0     H31334   8.747   6.244   3.409  0.0540  1.2382  1.3376
  973MOL0     H31335   7.994   6.379   3.082  0.4563 -1.5762  2.7322
  973MOL0     H31336   7.818   6.525   2.971 -0.7229  2.5513 -0.0032
  973MOL0     H31337   7.424   6.756   3.017  2.6500  0.1818  1.7469
  973MOL0     H31338   7.252   6.935   2.924  0.2150  2.9491 -2.2008
  973MOL0     H31339   7.701   6.818   2.795  1.4276  0.8138 -0.3901
  973MOL0     H31340   7.912   6.685   2.815 -0.7204 -1.4993  1.0236
  973MOL0     H31341   8.296   6.653   2.678 -1.7822 -0.4418 -1.7376
  973MOL0     H31342   8.541   6.577   2.679  0.9494 -1.5447  0.6486
  973MOL0     H31343   8.765   6.391   2.683  0.7576 -4.1134 -0.0402
  973MOL0     H31344   8.711   6.481   2.540 -0.7208  0.6274  1.9269
  973MOL0     H31345   8.831   6.211   2.553  0.5214 -0.5536 -1.5462
  973MOL0     H31346   8.935   6.357   2.537  1.3578 -2.2259  0.0049
  973MOL0     H31347   8.717   6.305   2.331 -0.6103  1.1444  0.8145
  973MOL0     H31348   8.875   6.230   2.312  0.5111 -0.6471 -0.5281
  973MOL0     H31349   8.825   6.474   2.195  0.3814  3.7169  0.9665
  973MOL0     H31350   8.838   6.531   2.354  0.8249  0.3492 -0.5419
  973MOL0     H31351   9.233   6.441   2.253  0.0312 -1.4839  1.4406
  973MOL0     H31352   8.403   6.189   2.581  0.7084 -0.1436 -1.3867
  973MOL0     H31353   8.158   6.145   2.531  0.3745  0.6233 -0.4107
  973MOL0     H31354   8.064   6.234   2.651  0.1399  2.1454  0.2677
  973MOL0     H31355   8.068   6.290   2.481  1.3352 -0.7445 -2.3066
  974MOL0     O31356   8.024   4.449   7.389  0.0751 -0.4741  0.3684
  974MOL0     C31357   7.903   4.454   7.400 -0.5797 -0.2371  1.2703
  974MOL0     O31358   7.821   4.368   7.461  0.4515  0.0478 -0.5148
  974MOL0     C31359   7.890   4.262   7.523 -0.0161  0.0414  0.3215
  974MOL0     C31360   8.016   4.269   7.590  0.0416  0.3942 -0.0019
  974MOL0     C31361   8.056   4.144   7.647  0.2412  0.0340  0.2969
  974MOL0     C31362   7.978   4.023   7.653  0.0898  1.3514  0.1853
  974MOL0     O31363   8.024   3.908   7.718  0.1453 -0.3086  1.0015
  974MOL0     C31364   8.142   3.917   7.807  0.1300  0.1716  0.6170
  974MOL0     C31365   8.279   3.915   7.736  0.2614  0.4471 -0.2591
  974MOL0     C31366   8.393   3.946   7.834  0.2348  0.2077  0.3814
  974MOL0     C31367   8.533   3.948   7.770 -1.3970  0.9009 -0.4647
  974MOL0     C31368   8.657   3.920   7.862  0.0347 -1.6069 -0.1584
  974MOL0     C31369   8.658   4.011   7.984  0.6600  0.6613  0.3055
  974MOL0     C31370   8.772   3.983   8.079 -0.0673 -0.1760  0.0463
  974MOL0     C31371   8.761   3.844   8.150 -0.2820  0.3733 -0.5098
  974MOL0     N31372   8.861   3.839   8.255 -0.4122  0.1325 -0.6685
  974MOL0     C31373   8.996   3.842   8.246 -0.4576 -0.7365  0.3223
  974MOL0     C31374   9.046   3.827   8.375  0.3121 -0.4483 -0.2923
  974MOL0     C31375   9.185   3.817   8.424  0.4435 -0.1036 -0.3034
  974MOL0     C31376   9.227   3.672   8.458 -0.2776 -0.2424 -0.1762
  974MOL0     C31377   9.241   3.583   8.331 -0.3975  0.1865  0.4788
  974MOL0     C31378   9.271   3.435   8.384  0.1422  0.6629  0.5450
  974MOL0     O31379   9.388   3.421   8.470  0.0139 -0.2917 -0.5010
  974MOL0     C31380   9.505   3.369   8.408 -0.3262 -0.6935 -0.6023
  974MOL0     C31381   9.538   3.379   8.271  0.0314  0.3753 -0.4947
  974MOL0     C31382   9.663   3.326   8.233 -0.0098  0.3598  0.2682
  974MOL0     C31383   9.755   3.269   8.324 -1.1231 -0.1222  0.4928
  974MOL0     C31384   9.896   3.229   8.283  0.7624  0.5858 -0.0893
  974MOL0     O31385   9.975   3.179   8.379  0.5347  0.0707  0.1535
  974MOL0     C31386  10.111   3.180   8.370 -1.0777 -0.8006 -0.5937
  974MOL0     C31387  10.180   3.282   8.302  0.2180  0.2259  0.5369
  974MOL0     C31388  10.318   3.290   8.300 -0.4068 -0.0131 -0.6124
  974MOL0     C31389  10.401   3.197   8.370  0.2001 -0.0087 -0.7881
  974MOL0     O31390  10.540   3.212   8.361  0.8133  0.0115  0.1358
  974MOL0     C31391  10.615   3.088   8.358 -0.7554  0.3243  0.1230
  974MOL0     C31392  10.758   3.110   8.308 -0.2599 -0.3256  0.1398
  974MOL0     C31393  10.868   3.016   8.358 -0.3610 -0.5525  1.1191
  974MOL0     C31394  11.005   3.047   8.294  0.1878  0.4158 -0.0323
  974MOL0     C31395  11.087   2.929   8.325  1.4400  0.5985 -0.4306
  974MOL0     C31396  11.230   2.939   8.269  0.3350 -0.3020  0.1232
  974MOL0     C31397  11.331   2.838   8.328  0.0167 -0.6646 -0.2598
  974MOL0     C31398  11.369   2.874   8.470  0.7397  0.4582  0.1920
  974MOL0    Cl31399  11.457   2.745   8.545  0.0191  0.1253 -0.0024
  974MOL0     C31400  10.328   3.092   8.431  0.6141 -0.1980 -0.4595
  974MOL0     C31401  10.186   3.089   8.445  0.0470 -0.2956  0.6400
  974MOL0     O31402   9.918   3.237   8.162 -0.9984  0.1796 -0.7739
  974MOL0     C31403   9.719   3.265   8.461 -1.0171  0.1109  0.6699
  974MOL0     C31404   9.598   3.333   8.499  0.2917  0.4000 -0.7308
  974MOL0     N31405   8.938   3.831   8.455 -0.4149 -0.7106 -0.3246
  974MOL0     N31406   8.827   3.829   8.385  0.7941 -0.2225 -0.3636
  974MOL0     C31407   7.860   4.021   7.577  0.0837  0.6609 -0.2922
  974MOL0     C31408   7.823   4.142   7.512  0.0804  0.9005  0.0077
  974MOL0     C31409   7.826   4.560   7.325  0.2890 -0.4600 -1.2109
  974MOL0     C31410   7.680   4.570   7.342 -0.3763 -0.2449 -0.8698
  974MOL0     C31411   7.606   4.657   7.266  0.1531  0.2276  0.2641
  974MOL0     C31412   7.659   4.722   7.158 -0.2447  0.1725 -0.2485
  974MOL0     O31413   7.560   4.798   7.091 -0.2497  0.7082 -0.8491
  974MOL0     C31414   7.581   4.860   6.965 -0.4127 -0.1864  0.6050
  974MOL0     C31415   7.451   4.862   6.879  0.3155 -0.4186 -0.8428
  974MOL0     C31416   7.329   4.933   6.949  0.4174 -0.1981 -0.7615
  974MOL0     C31417   7.195   4.863   6.931 -0.6519  0.7521  0.8392
  974MOL0     C31418   7.083   4.934   7.003 -0.0356  1.1451 -0.0175
  974MOL0     C31419   7.003   4.985   7.076  0.3490 -0.4564 -0.3040
  974MOL0     C31420   7.792   4.715   7.125 -1.0719  1.0415 -0.0488
  974MOL0     C31421   7.878   4.634   7.208  0.2237 -0.0137  0.1778
  974MOL0     C31422   8.029   4.634   7.182  0.7056  0.7344  0.4043
  974MOL0     H31423   8.068   4.364   7.599  0.4803  0.0220  1.6734
  974MOL0     H31424   8.152   4.128   7.696  1.1024 -0.1697 -1.3528
  974MOL0     H31425   8.130   4.009   7.865  0.5630  0.6468 -0.0283
  974MOL0     H31426   8.141   3.828   7.871  1.1712  0.7817  1.5160
  974MOL0     H31427   8.285   3.981   7.649  0.4595  0.4845 -0.2169
  974MOL0     H31428   8.293   3.811   7.703  0.0315 -0.6305  2.7620
  974MOL0     H31429   8.384   3.866   7.908 -0.1429 -0.9565 -0.8814
  974MOL0     H31430   8.371   4.041   7.886  2.1549  2.3853 -2.4757
  974MOL0     H31431   8.544   3.868   7.696 -1.3491  1.7367 -1.3988
  974MOL0     H31432   8.545   4.046   7.721  3.6449  2.6954  3.4282
  974MOL0     H31433   8.679   3.816   7.885  1.9445 -1.4992 -1.2758
  974MOL0     H31434   8.740   3.949   7.797 -0.6516  0.4623 -0.2010
  974MOL0     H31435   8.663   4.116   7.954  0.4471  0.6071  0.0795
  974MOL0     H31436   8.566   3.989   8.040  0.6042 -0.0228 -0.0423
  974MOL0     H31437   8.761   4.059   8.157 -2.6123  0.9727 -1.3255
  974MOL0     H31438   8.870   3.995   8.030 -0.1887  1.5913  0.1463
  974MOL0     H31439   8.660   3.828   8.188  0.8209 -1.8856  1.7476
  974MOL0     H31440   8.779   3.771   8.071 -1.0408  1.1844 -1.4469
  974MOL0     H31441   9.069   3.840   8.166  0.5222 -2.7495  1.1945
  974MOL0     H31442   9.235   3.859   8.336 -1.3208  0.5408 -1.0420
  974MOL0     H31443   9.196   3.874   8.517  0.5100 -1.2798  0.4413
  974MOL0     H31444   9.326   3.676   8.505 -0.4769  1.4503  0.1480
  974MOL0     H31445   9.155   3.630   8.530  0.3097  2.3695  2.0833
  974MOL0     H31446   9.322   3.628   8.271 -1.3955  3.8627  1.5903
  974MOL0     H31447   9.149   3.578   8.273  1.0188 -3.3693 -1.8045
  974MOL0     H31448   9.261   3.361   8.304  2.0563  2.3239 -1.3829
  974MOL0     H31449   9.189   3.407   8.450 -0.0939 -0.7316 -0.2954
  974MOL0     H31450   9.458   3.412   8.205 -2.2935 -3.0475  0.3353
  974MOL0     H31451   9.689   3.321   8.127 -0.2620 -4.5807  0.2298
  974MOL0     H31452  10.124   3.354   8.243  0.0897 -0.0125  0.3677
  974MOL0     H31453  10.357   3.383   8.260 -1.5595  0.6984 -0.1189
  974MOL0     H31454  10.607   3.051   8.460 -1.7997 -1.9594 -0.7252
  974MOL0     H31455  10.569   3.019   8.287 -0.8520 -1.6233  1.9713
  974MOL0     H31456  10.757   3.111   8.199  0.3569 -4.5129 -0.0468
  974MOL0     H31457  10.790   3.208   8.346  2.7223 -0.5001 -1.6908
  974MOL0     H31458  10.889   3.031   8.464 -4.0102  0.1270  1.8565
  974MOL0     H31459  10.842   2.913   8.332  0.2161  0.2539 -3.5829
  974MOL0     H31460  11.045   3.131   8.352  0.5798  0.3113 -0.1519
  974MOL0     H31461  10.986   3.063   8.188  2.0025 -0.5311 -0.5431
  974MOL0     H31462  11.042   2.839   8.281  2.2300  1.1080 -2.3990
  974MOL0     H31463  11.092   2.910   8.433 -0.4472  1.0419 -0.2455
  974MOL0     H31464  11.227   2.914   8.162  2.1079  1.2301 -0.3400
  974MOL0     H31465  11.269   3.041   8.273  0.7914 -0.5081  1.5130
  974MOL0     H31466  11.423   2.825   8.271 -0.3233 -0.2403 -0.9221
  974MOL0     H31467  11.289   2.737   8.334  3.4748 -2.1200  3.1252
  974MOL0     H31468  11.432   2.963   8.478 -1.1739  1.8093  1.0915
  974MOL0     H31469  11.280   2.890   8.532  2.1139 -0.3726  2.5109
  974MOL0     H31470  10.388   3.019   8.485  0.5598 -0.9676 -1.4082
  974MOL0     H31471  10.141   3.018   8.514 -0.2335 -1.4038 -0.6356
  974MOL0     H31472   9.795   3.233   8.531  0.1828 -1.5409 -1.2891
  974MOL0     H31473   9.565   3.364   8.598 -3.1638 -0.4721 -1.5058
  974MOL0     H31474   7.783   3.948   7.556 -0.9266  1.6641 -0.1294
  974MOL0     H31475   7.746   4.136   7.437 -0.3599  0.8037  0.4607
  974MOL0     H31476   7.618   4.514   7.411  0.7399 -3.0543 -2.0383
  974MOL0     H31477   7.501   4.668   7.292  0.2043  0.5977  0.3187
  974MOL0     H31478   7.659   4.807   6.910  1.6828  5.2025 -2.3503
  974MOL0     H31479   7.618   4.962   6.981 -0.9323  0.2377 -0.7626
  974MOL0     H31480   7.423   4.758   6.863 -0.5618  0.1910 -3.9833
  974MOL0     H31481   7.464   4.899   6.777 -1.0458 -1.7299 -1.5300
  974MOL0     H31482   7.330   5.030   6.898  0.0296  0.1427 -0.1234
  974MOL0     H31483   7.335   4.959   7.055 -2.5491 -2.1416  0.0026
  974MOL0     H31484   7.179   4.859   6.823  0.5401 -2.5543  0.6562
  974MOL0     H31485   7.209   4.759   6.964 -1.4808  0.1388 -0.6181
  974MOL0     H31486   6.935   5.034   7.142 -0.2612 -1.1609 -0.3982
  974MOL0     H31487   7.821   4.769   7.035 -1.7762  0.6795 -0.5025
  974MOL0     H31488   8.085   4.642   7.276  1.0034 -1.3533  0.4450
  974MOL0     H31489   8.051   4.537   7.138 -0.9909 -0.6135  2.3521
  974MOL0     H31490   8.071   4.708   7.113  2.7046 -0.6467  0.0538
  975MOL0     O31491  11.250   8.681   0.298  0.0302 -0.4786 -0.1332
  975MOL0     C31492  11.261   8.733   0.190  0.0842  0.0710  0.1333
  975MOL0     O31493  11.151   8.759   0.112  0.1889 -0.4078  0.0123
  975MOL0     C31494  11.022   8.726   0.148  0.6393 -0.1597 -0.5693
  975MOL0     C31495  10.942   8.801   0.235 -0.5405  0.6641  0.6087
  975MOL0     C31496  10.811   8.761   0.260  0.1040 -0.7800  0.2086
  975MOL0     C31497  10.755   8.642   0.206 -0.3024 -0.0703 -0.4625
  975MOL0     O31498  10.623   8.601   0.218  0.2770  0.0539  0.0444
  975MOL0     C31499  10.537   8.700   0.280 -0.0380  0.1691 -0.0687
  975MOL0     C31500  10.403   8.661   0.249  0.1028 -0.0733 -0.7387
  975MOL0     C31501  10.336   8.531   0.302  1.1504 -0.6636  0.2081
  975MOL0     C31502  10.251   8.479   0.188 -1.4621  0.1203 -0.2458
  975MOL0     C31503  10.190   8.337   0.195  0.5692  1.3189 -0.4680
  975MOL0     C31504  10.058   8.314   0.267  0.7971 -0.1785  0.1272
  975MOL0     C31505  10.050   8.170   0.312  0.5009 -0.8286  0.0745
  975MOL0     C31506   9.903   8.120   0.329  0.1044 -0.5004 -0.7715
  975MOL0     N31507   9.887   8.007   0.415 -0.0042 -0.0051  0.1894
  975MOL0     C31508   9.864   8.015   0.544 -0.1721  0.7522 -1.5434
  975MOL0     C31509   9.887   7.894   0.597  0.5748  0.0814 -0.3560
  975MOL0     C31510   9.846   7.847   0.735 -0.6021  0.6540  0.2955
  975MOL0     C31511   9.700   7.808   0.737 -0.2252 -0.1892 -0.4095
  975MOL0     C31512   9.674   7.719   0.864 -0.3623 -0.9119  0.0917
  975MOL0     C31513   9.527   7.683   0.879  0.2780  0.5242 -1.2074
  975MOL0     O31514   9.488   7.594   0.771  0.1568  0.6331 -0.6123
  975MOL0     C31515   9.356   7.549   0.770 -1.2439  0.2926  0.0344
  975MOL0     C31516   9.333   7.455   0.677 -0.5234  0.3388  0.6821
  975MOL0     C31517   9.210   7.401   0.668  0.1094  0.7959  0.7173
  975MOL0     C31518   9.104   7.428   0.744  0.6494  0.6356 -0.5033
  975MOL0     C31519   8.977   7.345   0.725 -0.1403 -0.9515  0.3123
  975MOL0     O31520   8.985   7.257   0.625  0.0302  0.5448  1.0799
  975MOL0     C31521   8.909   7.141   0.605  0.4454  0.9324  0.1508
  975MOL0     C31522   8.903   7.104   0.467 -0.3407  1.5200  1.0797
  975MOL0     C31523   8.820   7.000   0.424 -0.5303 -0.3408  0.9476
  975MOL0     C31524   8.740   6.936   0.520  0.1847 -0.0016  0.7805
  975MOL0     O31525   8.651   6.835   0.478  0.4466  0.0639 -0.4073
  975MOL0     C31526   8.609   6.724   0.565  1.3993 -0.2970 -0.0530
  975MOL0     C31527   8.596   6.589   0.500  0.2374 -0.5432  0.1077
  975MOL0     C31528   8.588   6.469   0.603 -0.6135  0.4559  0.5873
  975MOL0     C31529   8.661   6.344   0.539 -0.6505  0.2846 -0.8569
  975MOL0     C31530   8.642   6.212   0.608  0.2561 -1.1605  0.0226
  975MOL0     C31531   8.730   6.103   0.546 -0.1391 -0.4541  0.3230
  975MOL0     C31532   8.691   5.972   0.610 -0.0165 -0.0948 -0.9402
  975MOL0     C31533   8.799   5.871   0.582  0.9785  0.5509 -0.3947
  975MOL0    Cl31534   8.934   5.898   0.698 -0.0583  0.4969 -0.2354
  975MOL0     C31535   8.745   6.976   0.649 -0.3357 -0.6914 -0.6883
  975MOL0     C31536   8.832   7.079   0.695  0.0407 -0.1629 -0.2437
  975MOL0     O31537   8.881   7.372   0.802  0.2640 -0.2652 -0.1577
  975MOL0     C31538   9.122   7.521   0.841  0.7675 -0.3233  0.0253
  975MOL0     C31539   9.255   7.583   0.860  0.1410 -0.1816  0.4967
  975MOL0     N31540   9.930   7.818   0.492 -0.8021  0.5131  0.1334
  975MOL0     N31541   9.939   7.888   0.380  0.9852  1.3850 -0.3246
  975MOL0     C31542  10.845   8.565   0.131  0.3977  0.7843  0.1062
  975MOL0     C31543  10.970   8.613   0.093 -0.1934  0.9771  0.0207
  975MOL0     C31544  11.394   8.782   0.143 -0.2321 -0.4808  0.1761
  975MOL0     C31545  11.392   8.900   0.059 -0.1926  1.2508 -0.7290
  975MOL0     C31546  11.516   8.949   0.000 -0.0463  0.1115 -0.6460
  975MOL0     C31547  11.631   8.892   0.048 -0.2539 -0.8037  0.4755
  975MOL0     O31548  11.750   8.952   0.009 -0.1837  0.9084  0.2926
  975MOL0     C31549  11.779   8.976  -0.129  0.4194 -0.4066  0.6522
  975MOL0     C31550  11.741   8.855  -0.205 -0.5046  1.1546  0.0459
  975MOL0     C31551  11.829   8.827  -0.324 -0.5044 -0.2905 -0.0115
  975MOL0     C31552  11.832   8.940  -0.433 -1.4868  0.0324 -0.0522
  975MOL0     C31553  11.715   8.938  -0.523 -0.8458  0.0610 -0.4640
  975MOL0     C31554  11.633   8.950  -0.608  0.2609 -0.1218 -0.0356
  975MOL0     C31555  11.635   8.776   0.122  0.7447 -0.6387  0.1551
  975MOL0     C31556  11.515   8.718   0.176 -0.1256 -0.4835  0.3909
  975MOL0     C31557  11.525   8.598   0.261 -0.5623  0.7585  0.1373
  975MOL0     H31558  10.982   8.895   0.272 -0.7129  0.7076  0.6848
  975MOL0     H31559  10.742   8.814   0.326  1.9259  0.6595  1.0602
  975MOL0     H31560  10.555   8.705   0.388  2.4603  0.0001 -0.4203
  975MOL0     H31561  10.543   8.805   0.248  2.4290 -0.2912 -1.3683
  975MOL0     H31562  10.402   8.679   0.141  1.7660  3.0146 -0.3872
  975MOL0     H31563  10.338   8.743   0.282 -1.0835 -0.7785 -1.2806
  975MOL0     H31564  10.275   8.548   0.390 -1.1073 -1.4890 -1.1121
  975MOL0     H31565  10.418   8.463   0.327  0.3171 -2.2462 -1.1651
  975MOL0     H31566  10.189   8.566   0.166 -2.4607  0.5579  3.5342
  975MOL0     H31567  10.332   8.472   0.114 -0.9602 -1.4819  0.3919
  975MOL0     H31568  10.187   8.304   0.091 -0.3549  2.1500 -0.7215
  975MOL0     H31569  10.265   8.278   0.248  0.0550 -0.0392 -1.2100
  975MOL0     H31570  10.048   8.379   0.354 -1.6264  2.0531 -1.6426
  975MOL0     H31571   9.990   8.349   0.189  2.8577  1.6478 -0.9589
  975MOL0     H31572  10.095   8.166   0.411 -0.1039 -1.7602  0.3286
  975MOL0     H31573  10.124   8.110   0.258  1.1415  3.3267 -4.3686
  975MOL0     H31574   9.838   8.205   0.353  0.6408  0.5747 -2.9458
  975MOL0     H31575   9.875   8.083   0.230  0.4907 -2.1529 -0.3014
  975MOL0     H31576   9.828   8.097   0.605 -3.6238 -0.7142 -1.3934
  975MOL0     H31577   9.919   7.775   0.772 -0.1019  1.6087  1.2440
  975MOL0     H31578   9.854   7.931   0.805  0.4086 -0.6773  1.8511
  975MOL0     H31579   9.632   7.894   0.745 -2.7246 -2.1824  2.6369
  975MOL0     H31580   9.681   7.759   0.641 -0.5436  1.2983 -1.1395
  975MOL0     H31581   9.712   7.767   0.955 -0.0776  1.3406 -1.1479
  975MOL0     H31582   9.726   7.624   0.848  0.8691 -0.9363  3.4755
  975MOL0     H31583   9.465   7.772   0.890 -2.0086 -1.1837  1.3081
  975MOL0     H31584   9.514   7.623   0.970  1.0252  1.3355 -0.5554
  975MOL0     H31585   9.407   7.426   0.603 -1.1272 -0.0702  0.2151
  975MOL0     H31586   9.212   7.322   0.593  0.3836  0.6025  0.9225
  975MOL0     H31587   8.966   7.152   0.392 -1.2196 -0.2941 -0.9403
  975MOL0     H31588   8.824   6.960   0.323  3.1178 -0.4708  1.0245
  975MOL0     H31589   8.689   6.716   0.639  2.3936  0.6858 -0.9744
  975MOL0     H31590   8.513   6.747   0.613  0.3125  0.0121 -2.2250
  975MOL0     H31591   8.505   6.584   0.440 -1.6494 -2.9394  2.8830
  975MOL0     H31592   8.686   6.565   0.442 -1.3931 -0.8488 -2.4162
  975MOL0     H31593   8.648   6.499   0.689 -3.1787  2.0700  1.9405
  975MOL0     H31594   8.487   6.441   0.634  0.0175 -1.6708  0.8900
  975MOL0     H31595   8.766   6.364   0.516 -0.0993 -1.1747  0.2506
  975MOL0     H31596   8.625   6.326   0.437 -0.5212 -2.3343 -0.5049
  975MOL0     H31597   8.535   6.210   0.588  0.2410  4.2010 -1.8095
  975MOL0     H31598   8.653   6.218   0.717 -1.4144 -3.6179  0.4134
  975MOL0     H31599   8.707   6.095   0.439 -2.8158 -1.6929  0.8912
  975MOL0     H31600   8.834   6.120   0.573 -0.4554  0.4110  1.0492
  975MOL0     H31601   8.588   5.940   0.590 -1.0645 -0.3291  3.5435
  975MOL0     H31602   8.696   5.981   0.719 -2.4917 -1.5861 -0.6336
  975MOL0     H31603   8.750   5.775   0.600  1.1442  0.2567 -1.4683
  975MOL0     H31604   8.838   5.883   0.481 -0.6249  1.8627 -0.9146
  975MOL0     H31605   8.675   6.943   0.725  0.0734 -3.4759 -1.4075
  975MOL0     H31606   8.827   7.112   0.798  0.9444  2.3138 -0.9141
  975MOL0     H31607   9.037   7.539   0.906 -1.9909  0.7773 -3.5330
  975MOL0     H31608   9.262   7.657   0.939  2.1564 -2.6285  2.7856
  975MOL0     H31609  10.808   8.468   0.100  2.8668 -0.3546  0.5059
  975MOL0     H31610  11.043   8.546   0.048  0.7189  2.5927 -0.9555
  975MOL0     H31611  11.297   8.951   0.046 -0.3219  1.5174  1.0235
  975MOL0     H31612  11.512   9.037  -0.063 -3.6295  1.8823  1.7149
  975MOL0     H31613  11.885   8.995  -0.149 -0.2086  1.0950 -1.6036
  975MOL0     H31614  11.728   9.066  -0.164  0.3147 -1.2046 -1.3770
  975MOL0     H31615  11.638   8.869  -0.238 -0.4267  0.3260 -0.5580
  975MOL0     H31616  11.746   8.772  -0.134 -3.4930  0.4009 -0.4634
  975MOL0     H31617  11.788   8.740  -0.378  1.6689 -1.3211 -0.1033
  975MOL0     H31618  11.931   8.802  -0.296 -2.1274 -4.8963  2.9508
  975MOL0     H31619  11.838   9.042  -0.393  0.5043  0.1210 -0.4461
  975MOL0     H31620  11.923   8.931  -0.494  0.1140 -2.6760  2.5310
  975MOL0     H31621  11.577   8.948  -0.700  0.5381  2.3871 -0.3178
  975MOL0     H31622  11.727   8.736   0.162  0.2764 -2.0240 -0.0950
  975MOL0     H31623  11.495   8.514   0.198  1.1491  1.0948 -1.1960
  975MOL0     H31624  11.630   8.586   0.289  0.7176  1.8602 -3.5906
  975MOL0     H31625  11.465   8.601   0.352 -1.3701 -0.1039 -0.3420
  976MOL0     O31626   9.403   7.286   4.986  0.0992  0.1660 -0.2404
  976MOL0     C31627   9.324   7.352   5.061  0.4456  0.2748 -0.5929
  976MOL0     O31628   9.194   7.390   5.031  0.3755  0.0235  0.7243
  976MOL0     C31629   9.130   7.369   4.907  0.3470 -0.3448  0.7337
  976MOL0     C31630   9.172   7.275   4.811 -0.0211 -0.3877  0.5165
  976MOL0     C31631   9.097   7.263   4.699  0.4242  0.9901 -0.2785
  976MOL0     C31632   8.972   7.320   4.676  0.5092  0.8148 -0.1374
  976MOL0     O31633   8.890   7.285   4.566  0.5781  0.7082  0.4637
  976MOL0     C31634   8.945   7.296   4.432 -0.5651  0.1195  0.3440
  976MOL0     C31635   8.849   7.392   4.366  0.0258  0.0254 -0.8347
  976MOL0     C31636   8.875   7.389   4.210 -0.1849 -0.6314 -0.8174
  976MOL0     C31637   9.011   7.432   4.179  0.3576 -0.3459 -0.0596
  976MOL0     C31638   9.034   7.461   4.030 -0.0586 -0.1743  1.0505
  976MOL0     C31639   9.049   7.335   3.942 -0.5222  0.2247  0.0820
  976MOL0     C31640   9.080   7.385   3.807 -0.3114  0.4119  0.0156
  976MOL0     C31641   9.131   7.272   3.719  0.0868  0.1027  0.1751
  976MOL0     N31642   9.193   7.316   3.591 -0.3999  0.0973 -0.8586
  976MOL0     C31643   9.304   7.400   3.590  0.0323  0.4071 -0.2075
  976MOL0     C31644   9.330   7.426   3.462  0.0669  0.3551 -0.4009
  976MOL0     C31645   9.437   7.523   3.412 -0.0305 -0.1822  0.4795
  976MOL0     C31646   9.498   7.483   3.277  0.3749  0.0007 -0.5024
  976MOL0     C31647   9.604   7.586   3.231  0.5934  0.0206 -0.4649
  976MOL0     C31648   9.665   7.543   3.101 -0.3157  0.5300  0.7411
  976MOL0     O31649   9.717   7.664   3.041 -0.0499  0.1603 -0.6603
  976MOL0     C31650   9.806   7.647   2.937  0.5141  0.5008 -0.8788
  976MOL0     C31651   9.861   7.761   2.885 -0.3227  0.4573 -0.0193
  976MOL0     C31652   9.948   7.761   2.785  1.0167 -0.0256  0.1768
  976MOL0     C31653   9.985   7.635   2.721 -0.9196  0.1309  0.9715
  976MOL0     C31654  10.069   7.626   2.609 -0.6225 -0.0640  0.1549
  976MOL0     O31655  10.082   7.500   2.549 -0.8434 -0.5509 -0.3952
  976MOL0     C31656  10.145   7.483   2.427  0.1013  0.2185  0.2752
  976MOL0     C31657  10.130   7.565   2.317 -0.3026 -0.2136  0.8173
  976MOL0     C31658  10.197   7.535   2.201 -0.8233  0.6460 -0.5742
  976MOL0     C31659  10.280   7.418   2.178  0.4123  0.0831 -0.5321
  976MOL0     O31660  10.339   7.411   2.064  0.5641  0.1435  0.4857
  976MOL0     C31661  10.454   7.333   2.030  0.0253  0.0135 -0.5558
  976MOL0     C31662  10.460   7.330   1.880 -0.9570 -0.0484  0.3840
  976MOL0     C31663  10.607   7.300   1.822  0.2793 -0.4704 -0.0295
  976MOL0     C31664  10.627   7.150   1.804  0.4527  0.6798  0.7305
  976MOL0     C31665  10.764   7.109   1.748 -0.5912  0.0944 -0.3502
  976MOL0     C31666  10.787   7.138   1.605  0.1506  0.5469  0.1639
  976MOL0     C31667  10.914   7.095   1.544 -0.3304 -0.9832 -1.5710
  976MOL0     C31668  10.934   7.150   1.402 -0.4196 -0.7213 -0.0427
  976MOL0    Cl31669  10.805   7.084   1.299  0.0130 -0.1701 -0.5566
  976MOL0     C31670  10.295   7.336   2.287 -0.1323  0.5739  0.7442
  976MOL0     C31671  10.227   7.374   2.410 -0.7433  0.3560 -0.0820
  976MOL0     O31672  10.132   7.731   2.563 -0.8172 -0.0770 -0.1956
  976MOL0     C31673   9.930   7.516   2.770 -0.3828 -0.4458 -0.1400
  976MOL0     C31674   9.836   7.526   2.877 -1.1234  0.4414  0.1319
  976MOL0     N31675   9.231   7.361   3.388 -0.1788 -0.8757 -0.7421
  976MOL0     N31676   9.156   7.291   3.461 -0.8598  0.6215  0.3189
  976MOL0     C31677   8.932   7.413   4.766  0.0335  0.0294  0.3239
  976MOL0     C31678   9.010   7.431   4.886 -0.3899 -0.2634  0.3122
  976MOL0     C31679   9.380   7.403   5.192  0.1357  0.7672 -0.3614
  976MOL0     C31680   9.506   7.451   5.192 -0.2425  1.1631  0.0623
  976MOL0     C31681   9.569   7.494   5.308  0.0006 -0.4267 -1.0288
  976MOL0     C31682   9.498   7.486   5.429  0.5993  0.1069  0.3004
  976MOL0     O31683   9.553   7.547   5.545  0.2948 -0.4056  0.5225
  976MOL0     C31684   9.478   7.662   5.594  0.2011 -0.2199  0.9040
  976MOL0     C31685   9.568   7.717   5.699  0.3287  0.1653  0.3884
  976MOL0     C31686   9.679   7.817   5.641  0.7710 -0.4674  0.5755
  976MOL0     C31687   9.799   7.749   5.573  0.0183 -0.4614 -0.0722
  976MOL0     C31688   9.923   7.822   5.604  0.1501  1.4726  0.2935
  976MOL0     C31689  10.029   7.870   5.630 -0.0804 -0.7381 -0.0959
  976MOL0     C31690   9.359   7.454   5.425 -0.3115  1.0182 -0.3430
  976MOL0     C31691   9.301   7.402   5.308  0.6465  0.2416  0.5704
  976MOL0     C31692   9.151   7.383   5.311 -0.5676 -0.0098  0.4264
  976MOL0     H31693   9.257   7.209   4.824 -1.5824 -3.5095 -3.1619
  976MOL0     H31694   9.128   7.198   4.618 -2.4004 -1.3872  0.3628
  976MOL0     H31695   9.042   7.342   4.415 -0.8757  0.3840 -0.8874
  976MOL0     H31696   8.937   7.199   4.382  2.6263  0.0338 -0.1905
  976MOL0     H31697   8.872   7.489   4.411  1.1767 -1.1617  1.3280
  976MOL0     H31698   8.744   7.371   4.389  0.8543 -2.9490  0.7302
  976MOL0     H31699   8.803   7.458   4.165  1.6241  0.0620 -2.8728
  976MOL0     H31700   8.864   7.289   4.167 -0.6471 -1.0296  0.1989
  976MOL0     H31701   9.044   7.525   4.226 -0.4435 -0.1200  0.0769
  976MOL0     H31702   9.083   7.353   4.204  1.0908 -0.1077 -1.3346
  976MOL0     H31703   8.953   7.517   3.982  0.0865 -0.7012  0.1822
  976MOL0     H31704   9.122   7.525   4.022 -0.1389 -0.2891 -3.1061
  976MOL0     H31705   9.123   7.275   3.996 -1.8286 -0.6677  0.9264
  976MOL0     H31706   8.955   7.280   3.935 -0.9543  0.8315  0.9206
  976MOL0     H31707   9.155   7.464   3.810 -0.4015  0.5105  4.0250
  976MOL0     H31708   8.992   7.429   3.758  0.4347 -0.3102 -2.0938
  976MOL0     H31709   9.177   7.192   3.777 -2.4450  0.6828  3.2839
  976MOL0     H31710   9.040   7.217   3.692 -1.2328  1.1953  2.1363
  976MOL0     H31711   9.368   7.447   3.665  1.5593 -1.5845 -0.1783
  976MOL0     H31712   9.405   7.627   3.423  2.8871  0.8067  0.5469
  976MOL0     H31713   9.521   7.520   3.482  0.9303  1.0508 -0.5623
  976MOL0     H31714   9.542   7.383   3.272  0.9258  0.0087  2.3902
  976MOL0     H31715   9.411   7.484   3.210 -0.6832  1.0753  0.8329
  976MOL0     H31716   9.675   7.585   3.314 -1.3672  1.4427  1.3311
  976MOL0     H31717   9.563   7.687   3.238 -2.1926 -1.0246 -0.6276
  976MOL0     H31718   9.592   7.511   3.027  0.8141  0.3102 -0.3121
  976MOL0     H31719   9.744   7.468   3.113  0.4881  1.3581  0.7025
  976MOL0     H31720   9.834   7.857   2.928 -0.8288  0.3300 -0.0412
  976MOL0     H31721   9.998   7.851   2.751  1.3710 -0.0409  0.6476
  976MOL0     H31722  10.068   7.654   2.324  1.2739  0.9727  0.2118
  976MOL0     H31723  10.175   7.596   2.114 -2.6852 -0.9170 -1.2662
  976MOL0     H31724  10.543   7.379   2.074 -0.5483 -2.1948  3.3854
  976MOL0     H31725  10.449   7.235   2.079  0.9197 -0.4395 -1.3209
  976MOL0     H31726  10.386   7.260   1.840  0.1513  0.2628 -2.4485
  976MOL0     H31727  10.433   7.429   1.841  2.5887  1.5251  1.5104
  976MOL0     H31728  10.607   7.344   1.722  0.5217  3.3888  1.5268
  976MOL0     H31729  10.696   7.351   1.860  1.6438  0.4178 -3.9418
  976MOL0     H31730  10.548   7.096   1.753  0.9557 -1.3629  1.9930
  976MOL0     H31731  10.616   7.112   1.906 -0.5250  1.0649  0.7766
  976MOL0     H31732  10.776   7.001   1.766 -0.9934  0.3581  1.8584
  976MOL0     H31733  10.836   7.161   1.813  1.3066 -0.3540 -1.9826
  976MOL0     H31734  10.706   7.085   1.552 -0.7957  0.4607  1.6508
  976MOL0     H31735  10.770   7.243   1.581 -0.0707 -0.2388 -3.9116
  976MOL0     H31736  10.925   6.987   1.554 -1.3346 -0.8987  1.3530
  976MOL0     H31737  10.995   7.143   1.600  0.3368 -1.2928 -2.2505
  976MOL0     H31738  10.932   7.260   1.399  0.3181 -0.7134 -2.6883
  976MOL0     H31739  11.030   7.121   1.360 -0.6899 -2.6865  0.5825
  976MOL0     H31740  10.366   7.254   2.287  1.5903  1.9995 -0.1311
  976MOL0     H31741  10.236   7.318   2.502 -1.0465  1.3807  0.5818
  976MOL0     H31742   9.937   7.421   2.719  0.4177  0.5804 -2.0404
  976MOL0     H31743   9.800   7.426   2.899  0.8080 -0.2963  0.1189
  976MOL0     H31744   8.839   7.467   4.753 -0.4168 -0.6870  0.5089
  976MOL0     H31745   8.985   7.510   4.957  3.7435  1.2505  0.3625
  976MOL0     H31746   9.567   7.449   5.103 -0.7958 -0.8464 -0.3166
  976MOL0     H31747   9.672   7.530   5.304  0.3313 -1.1218  0.4989
  976MOL0     H31748   9.388   7.623   5.644 -1.8066  0.9402 -1.5978
  976MOL0     H31749   9.464   7.736   5.515 -0.7431 -2.5100 -1.1927
  976MOL0     H31750   9.603   7.633   5.760 -0.7184  0.2725  1.1566
  976MOL0     H31751   9.505   7.781   5.761  1.2773  1.2391  0.2731
  976MOL0     H31752   9.715   7.888   5.717  0.2631 -0.4028  0.7608
  976MOL0     H31753   9.634   7.880   5.564  2.1628 -1.1032 -0.7944
  976MOL0     H31754   9.815   7.650   5.618  2.8464  0.5729  1.4285
  976MOL0     H31755   9.784   7.750   5.464  1.7037  1.1154 -0.3363
  976MOL0     H31756  10.113   7.933   5.650 -0.4754 -0.9072  2.4826
  976MOL0     H31757   9.306   7.467   5.519  1.5678 -0.1814  0.9544
  976MOL0     H31758   9.116   7.306   5.242  0.0659 -0.3955  0.5329
  976MOL0     H31759   9.112   7.362   5.411  1.1732  4.7684  2.3893
  976MOL0     H31760   9.095   7.473   5.286 -0.3351  0.2481  0.8198
  977MOL0     O31761   3.131   1.149   1.299 -0.1725 -0.4392 -1.1979
  977MOL0     C31762   3.127   1.263   1.355  0.8272  0.1818  0.3908
  977MOL0     O31763   3.026   1.304   1.440 -0.1007  0.2697 -0.4422
  977MOL0     C31764   2.908   1.249   1.448  0.7395 -0.6710  0.8247
  977MOL0     C31765   2.825   1.282   1.557 -0.3124 -0.5058 -0.1075
  977MOL0     C31766   2.688   1.252   1.562  0.0040  0.2535  0.7951
  977MOL0     C31767   2.627   1.184   1.456  0.2726 -0.0248 -0.9736
  977MOL0     O31768   2.497   1.146   1.472 -0.0842  0.1764  0.6531
  977MOL0     C31769   2.420   1.116   1.352 -0.5270 -0.3158 -0.8036
  977MOL0     C31770   2.269   1.129   1.368 -0.0477  0.1088 -0.9201
  977MOL0     C31771   2.240   1.270   1.417 -0.2999 -0.5766  0.3238
  977MOL0     C31772   2.091   1.299   1.454 -0.2695  0.5780  0.1392
  977MOL0     C31773   2.037   1.200   1.559 -0.0973  0.6436 -0.1382
  977MOL0     C31774   1.891   1.231   1.581 -0.3518 -0.2435  0.2473
  977MOL0     C31775   1.834   1.136   1.691  0.3212 -0.1282  1.0134
  977MOL0     C31776   1.840   0.983   1.656 -0.9746 -0.1000  0.5571
  977MOL0     N31777   1.766   0.963   1.530  0.6437  0.7682 -0.3584
  977MOL0     C31778   1.637   1.006   1.494 -0.0212  0.5143 -0.2431
  977MOL0     C31779   1.587   0.925   1.400 -0.4629  0.3220  0.0694
  977MOL0     C31780   1.453   0.928   1.346 -1.2235  0.5095 -0.6982
  977MOL0     C31781   1.444   1.025   1.235 -0.0228  0.8693 -0.5115
  977MOL0     C31782   1.347   0.979   1.131  0.2541  0.2265 -0.1552
  977MOL0     C31783   1.361   1.076   1.021  0.3968  0.0604 -1.0692
  977MOL0     O31784   1.283   1.059   0.898 -0.1057 -0.1410  0.1157
  977MOL0     C31785   1.158   1.118   0.892 -0.1427  0.2559 -0.0708
  977MOL0     C31786   1.117   1.160   0.764 -0.8726 -0.1544  0.1243
  977MOL0     C31787   0.990   1.201   0.738 -0.0402  0.8154  0.7522
  977MOL0     C31788   0.898   1.192   0.844 -0.2918 -0.7131  0.6105
  977MOL0     C31789   0.757   1.215   0.825  0.3592  0.2790  0.5120
  977MOL0     O31790   0.702   1.190   0.697 -0.0262  0.0716 -0.0051
  977MOL0     C31791   0.565   1.215   0.679  0.2362 -0.6317 -0.2078
  977MOL0     C31792   0.514   1.315   0.592 -0.2736  0.4180  0.6575
  977MOL0     C31793   0.379   1.343   0.571 -0.5246  0.2136 -0.1352
  977MOL0     C31794   0.286   1.256   0.636 -0.2495 -0.6299 -0.9310
  977MOL0     O31795   0.151   1.263   0.625  0.1622 -0.3551 -0.2165
  977MOL0     C31796   0.086   1.378   0.568  0.2514  0.5012  0.6661
  977MOL0     C31797  -0.068   1.359   0.559  0.1304  0.1953  0.1242
  977MOL0     C31798  -0.139   1.482   0.504  0.6901 -0.1605 -0.1119
  977MOL0     C31799  -0.288   1.453   0.494 -0.4477  0.6866 -0.7541
  977MOL0     C31800  -0.352   1.581   0.458  0.7059  0.5867  0.1423
  977MOL0     C31801  -0.506   1.573   0.460  0.1119 -0.4913  0.5522
  977MOL0     C31802  -0.557   1.719   0.457 -0.3280  0.0312  0.8765
  977MOL0     C31803  -0.709   1.706   0.436 -0.4097 -0.5688 -0.7185
  977MOL0    Cl31804  -0.786   1.866   0.435  0.5622 -0.5471  0.0648
  977MOL0     C31805   0.334   1.155   0.720 -0.1958 -0.1161 -0.0563
  977MOL0     C31806   0.464   1.138   0.747  0.2376 -1.0722  0.0604
  977MOL0     O31807   0.696   1.267   0.921  0.1727 -0.7724 -0.1457
  977MOL0     C31808   0.929   1.164   0.976 -0.8678  0.6015 -0.0434
  977MOL0     C31809   1.061   1.131   0.998 -0.5187 -0.1317 -0.3105
  977MOL0     N31810   1.694   0.839   1.362 -0.1112  0.3944  0.4228
  977MOL0     N31811   1.795   0.869   1.441  0.8329 -0.4274 -0.2232
  977MOL0     C31812   2.706   1.150   1.345  0.0408  0.4583  0.3239
  977MOL0     C31813   2.846   1.176   1.342  1.1228 -0.5302  0.1397
  977MOL0     C31814   3.244   1.351   1.330  0.8488 -0.6811 -0.4970
  977MOL0     C31815   3.214   1.498   1.306  0.1946  0.8238  0.1369
  977MOL0     C31816   3.323   1.586   1.288  0.1986 -0.1014 -0.1637
  977MOL0     C31817   3.444   1.530   1.261 -0.1375 -0.1028 -0.3303
  977MOL0     O31818   3.552   1.607   1.223  0.0355  0.2652 -0.0123
  977MOL0     C31819   3.564   1.745   1.270  0.3819  0.4813  0.1823
  977MOL0     C31820   3.667   1.821   1.187 -0.0434  0.2533 -0.0717
  977MOL0     C31821   3.816   1.798   1.245  0.2397  0.4756 -0.1075
  977MOL0     C31822   3.906   1.889   1.165  0.1099  0.1360  0.3275
  977MOL0     C31823   4.032   1.829   1.155  0.2181  0.1378 -0.7442
  977MOL0     C31824   4.144   1.784   1.133  0.1575 -0.1917  0.2957
  977MOL0     C31825   3.472   1.393   1.270 -0.4332 -0.6507 -0.5802
  977MOL0     C31826   3.374   1.301   1.316  1.1990  0.1842 -0.6253
  977MOL0     C31827   3.424   1.161   1.353  1.0388 -0.8888 -0.4529
  977MOL0     H31828   2.866   1.346   1.634 -2.2174  0.2981  0.2920
  977MOL0     H31829   2.635   1.285   1.651  1.2775  2.4578  0.8249
  977MOL0     H31830   2.446   1.186   1.272  3.9351 -0.2764  0.4387
  977MOL0     H31831   2.438   1.015   1.313  1.0870 -0.2008 -0.4110
  977MOL0     H31832   2.231   1.048   1.431  1.3192 -0.9472 -1.3918
  977MOL0     H31833   2.217   1.111   1.273  2.3736  0.2726 -2.3537
  977MOL0     H31834   2.270   1.336   1.336 -1.1263  1.9407  1.9609
  977MOL0     H31835   2.299   1.292   1.506  1.3072 -1.9346 -0.3617
  977MOL0     H31836   2.086   1.398   1.500 -0.3745  1.1281 -1.0173
  977MOL0     H31837   2.033   1.295   1.361  1.5443  3.8644 -1.3370
  977MOL0     H31838   2.053   1.097   1.526  4.6999  1.3832 -0.8362
  977MOL0     H31839   2.101   1.206   1.648 -0.2559 -2.4801  0.2926
  977MOL0     H31840   1.876   1.337   1.605  0.6881  0.7424 -2.9051
  977MOL0     H31841   1.837   1.217   1.487 -2.7097 -0.1742  1.5170
  977MOL0     H31842   1.727   1.151   1.708  0.0106 -1.3603  0.3481
  977MOL0     H31843   1.894   1.155   1.780 -2.2141  0.9038  2.5989
  977MOL0     H31844   1.946   0.955   1.652 -0.0597  3.0882  0.0975
  977MOL0     H31845   1.796   0.919   1.733 -0.4010 -0.0524  0.9367
  977MOL0     H31846   1.578   1.069   1.559 -0.3181 -0.4008  0.3857
  977MOL0     H31847   1.428   0.833   1.298  2.0964  0.7259 -3.2225
  977MOL0     H31848   1.385   0.952   1.428 -2.0670  0.0832 -1.2531
  977MOL0     H31849   1.412   1.122   1.273  1.6611  1.5043 -0.6311
  977MOL0     H31850   1.548   1.023   1.202  0.2695 -0.8048  0.4261
  977MOL0     H31851   1.243   0.984   1.165 -0.3624 -1.0429 -1.7096
  977MOL0     H31852   1.357   0.872   1.112 -1.7925 -0.4181  1.9431
  977MOL0     H31853   1.463   1.086   0.982  0.1982  0.0975 -1.5961
  977MOL0     H31854   1.336   1.169   1.073 -0.6333 -0.3031 -0.8920
  977MOL0     H31855   1.192   1.153   0.686 -0.6981  0.9526  0.1720
  977MOL0     H31856   0.973   1.229   0.634 -1.8847 -1.6997  0.2803
  977MOL0     H31857   0.590   1.385   0.559 -1.8119  2.1066  0.5196
  977MOL0     H31858   0.356   1.421   0.500  2.7476  0.5414 -0.9911
  977MOL0     H31859   0.116   1.464   0.628 -0.2941  0.5846  0.8206
  977MOL0     H31860   0.123   1.382   0.465 -0.8985 -3.2100 -0.0523
  977MOL0     H31861  -0.079   1.275   0.490 -0.9379  0.2005  0.2722
  977MOL0     H31862  -0.115   1.341   0.657  2.8358  2.6177  2.0527
  977MOL0     H31863  -0.110   1.567   0.566  1.5472 -0.1355 -0.5241
  977MOL0     H31864  -0.107   1.493   0.400 -1.5806 -0.4234 -0.8772
  977MOL0     H31865  -0.334   1.423   0.589 -0.5617  2.3850 -0.2337
  977MOL0     H31866  -0.311   1.382   0.414 -2.9874  0.9407 -0.3305
  977MOL0     H31867  -0.315   1.600   0.357 -3.1020  0.2388 -1.4582
  977MOL0     H31868  -0.319   1.656   0.532 -1.2358  0.7363  0.9175
  977MOL0     H31869  -0.540   1.513   0.375 -1.1533  1.4783 -0.4172
  977MOL0     H31870  -0.550   1.540   0.555  0.7214  1.9404  1.7476
  977MOL0     H31871  -0.513   1.780   0.377  0.8081 -1.3448  0.4047
  977MOL0     H31872  -0.539   1.773   0.550  2.6634  1.4075 -0.3423
  977MOL0     H31873  -0.735   1.663   0.339 -1.6396  2.8071 -2.0629
  977MOL0     H31874  -0.757   1.643   0.511 -2.2833 -0.8873 -2.0962
  977MOL0     H31875   0.265   1.082   0.761  0.6641 -0.4311  0.8835
  977MOL0     H31876   0.473   1.049   0.808 -0.1005 -2.4459 -1.8270
  977MOL0     H31877   0.866   1.169   1.065 -3.1539 -1.0448 -1.4736
  977MOL0     H31878   1.082   1.105   1.101 -1.2691  0.0792 -0.0981
  977MOL0     H31879   2.663   1.106   1.255 -1.2644  4.7334 -1.3612
  977MOL0     H31880   2.894   1.137   1.253  1.0079  3.2063 -1.7450
  977MOL0     H31881   3.111   1.528   1.325 -0.7874 -3.2063  2.2485
  977MOL0     H31882   3.298   1.691   1.277 -1.7805 -0.5344 -0.1344
  977MOL0     H31883   3.578   1.742   1.378  0.9430 -0.1294  0.0980
  977MOL0     H31884   3.473   1.801   1.247  1.8379  2.9370  0.0993
  977MOL0     H31885   3.642   1.927   1.191 -0.8114  0.0931 -0.6283
  977MOL0     H31886   3.678   1.784   1.085  1.9231  0.6333 -0.0475
  977MOL0     H31887   3.829   1.690   1.240 -1.2321  0.2576  0.2670
  977MOL0     H31888   3.818   1.825   1.350 -0.3764  0.5350 -0.1025
  977MOL0     H31889   3.877   1.896   1.060  1.4809 -2.9911 -0.3705
  977MOL0     H31890   3.906   1.989   1.210  0.3526  1.9764 -3.3909
  977MOL0     H31891   4.242   1.748   1.109 -1.1882 -3.2788 -1.1441
  977MOL0     H31892   3.572   1.360   1.244  0.0622  1.0427 -0.9836
  977MOL0     H31893   3.383   1.087   1.283 -1.5351  1.1380 -1.2335
  977MOL0     H31894   3.533   1.155   1.344  1.2035  2.4623 -1.7921
  977MOL0     H31895   3.383   1.131   1.450 -0.6618  0.1032 -0.8246
  978MOL0     O31896   9.849   6.053   9.613 -0.1970 -0.3808  0.7552
  978MOL0     C31897   9.825   6.144   9.687  0.7196 -0.1867 -0.5237
  978MOL0     O31898   9.700   6.198   9.717 -0.2098 -0.9767 -0.1531
  978MOL0     C31899   9.584   6.160   9.642 -1.4794  0.0500 -0.8484
  978MOL0     C31900   9.547   6.029   9.619 -0.9113 -0.1040  0.1627
  978MOL0     C31901   9.435   6.000   9.536  0.2597  0.5046  0.3162
  978MOL0     C31902   9.351   6.091   9.482  0.5677  0.0116 -0.0506
  978MOL0     O31903   9.242   6.069   9.403 -0.3532 -0.3685  0.2216
  978MOL0     C31904   9.219   5.935   9.373 -0.9418  0.0558 -0.6101
  978MOL0     C31905   9.104   5.910   9.268  0.8712  0.4166  0.1629
  978MOL0     C31906   9.054   5.765   9.234 -0.4929 -0.5528 -0.2550
  978MOL0     C31907   8.893   5.750   9.239 -0.5165 -0.2725 -0.3184
  978MOL0     C31908   8.830   5.791   9.106 -0.1041  0.3788  0.0847
  978MOL0     C31909   8.696   5.717   9.082 -1.7272 -0.2129  0.0816
  978MOL0     C31910   8.609   5.768   8.969  0.4863 -0.1707 -0.0105
  978MOL0     C31911   8.490   5.680   8.954 -0.2537  0.0866  0.6018
  978MOL0     N31912   8.393   5.702   9.059  0.8064 -0.7054 -0.0552
  978MOL0     C31913   8.378   5.601   9.151 -1.5996 -0.8952  0.6092
  978MOL0     C31914   8.271   5.640   9.231 -0.2844  0.1123  0.3646
  978MOL0     C31915   8.195   5.555   9.344 -0.2420 -0.9134 -0.7008
  978MOL0     C31916   8.183   5.634   9.470 -0.3606 -0.5274 -0.9448
  978MOL0     C31917   8.079   5.576   9.578 -0.5253 -1.1977  0.1998
  978MOL0     C31918   8.098   5.652   9.711 -0.8914  1.2390 -0.4145
  978MOL0     O31919   8.028   5.776   9.697 -0.1796 -0.8122 -0.3403
  978MOL0     C31920   7.897   5.787   9.739 -0.2177  0.0275 -0.3066
  978MOL0     C31921   7.845   5.918   9.743 -0.6747  0.6909 -0.5418
  978MOL0     C31922   7.710   5.952   9.763 -0.7041 -0.0251 -0.4216
  978MOL0     C31923   7.629   5.848   9.808 -0.2353 -0.6330 -0.7033
  978MOL0     C31924   7.489   5.889   9.836  0.6480  0.0684  0.6873
  978MOL0     O31925   7.465   6.021   9.860 -0.1631  0.0837  0.4393
  978MOL0     C31926   7.345   6.070   9.919  0.7918 -0.0840 -0.7949
  978MOL0     C31927   7.291   6.195   9.882  0.4788 -0.3378 -0.0280
  978MOL0     C31928   7.175   6.248   9.950 -0.3533  0.7319 -0.6221
  978MOL0     C31929   7.109   6.174  10.051 -0.1543 -0.1699 -1.3404
  978MOL0     O31930   7.003   6.236  10.113  0.7093 -0.8072  0.3022
  978MOL0     C31931   6.945   6.182  10.227  0.3914 -0.3475  0.5169
  978MOL0     C31932   6.799   6.240  10.258 -0.2022 -0.2873 -0.1502
  978MOL0     C31933   6.750   6.164  10.389  0.3343 -0.7127 -0.1462
  978MOL0     C31934   6.608   6.189  10.424 -0.1322  0.2283  0.0941
  978MOL0     C31935   6.555   6.331  10.418 -0.1120 -0.2296  0.1682
  978MOL0     C31936   6.405   6.333  10.460  0.5022 -0.4144  0.2937
  978MOL0     C31937   6.341   6.468  10.448 -0.2417 -0.3917  0.8727
  978MOL0     C31938   6.191   6.462  10.494  0.0609 -0.0579 -0.1112
  978MOL0    Cl31939   6.166   6.399  10.662  0.3407  0.1200 -0.1711
  978MOL0     C31940   7.163   6.042  10.082  0.8653 -0.2997  0.4003
  978MOL0     C31941   7.276   6.000  10.025  0.0481 -0.6798  0.4822
  978MOL0     O31942   7.402   5.800   9.831  0.1938 -0.2324 -0.4958
  978MOL0     C31943   7.675   5.717   9.810 -0.2773  0.8131 -0.9818
  978MOL0     C31944   7.812   5.684   9.762 -0.5503  0.3809 -0.6092
  978MOL0     N31945   8.233   5.760   9.189  0.6234 -0.6162 -0.4221
  978MOL0     N31946   8.306   5.797   9.093  0.2347 -0.7407  0.5428
  978MOL0     C31947   9.388   6.232   9.522  0.1070  0.5888 -0.6172
  978MOL0     C31948   9.499   6.259   9.607  0.2564  0.4852 -0.7418
  978MOL0     C31949   9.946   6.216   9.751 -0.1928  0.0141  0.2352
  978MOL0     C31950   9.940   6.245   9.886 -0.1456 -0.4018  0.8780
  978MOL0     C31951  10.049   6.291   9.964  0.0785 -0.6794 -0.2247
  978MOL0     C31952  10.167   6.332   9.903  0.3692  0.0330  0.3462
  978MOL0     O31953  10.261   6.417   9.957 -0.0331  1.0063 -0.3574
  978MOL0     C31954  10.265   6.424  10.100  0.4239 -0.4922  0.6812
  978MOL0     C31955  10.386   6.501  10.129  0.2155 -0.1417  0.1939
  978MOL0     C31956  10.402   6.553  10.275 -0.3422  0.0944  0.4392
  978MOL0     C31957  10.541   6.617  10.291  0.3397  0.6297 -0.8122
  978MOL0     C31958  10.563   6.688  10.412  0.2635  0.0096  0.8605
  978MOL0     C31959  10.598   6.735  10.513  0.0912  0.4632 -0.0140
  978MOL0     C31960  10.170   6.310   9.763  1.3722  0.9224  0.1418
  978MOL0     C31961  10.069   6.250   9.685  0.0581  0.2568 -0.5060
  978MOL0     C31962  10.087   6.250   9.535 -0.4351  0.5156  0.3937
  978MOL0     H31963   9.608   5.945   9.649  5.1041  3.0364 -1.6396
  978MOL0     H31964   9.435   5.894   9.512  2.2054  0.7106 -0.8019
  978MOL0     H31965   9.315   5.905   9.328 -0.3044 -0.7564  1.1947
  978MOL0     H31966   9.193   5.871   9.458 -2.1820  0.4050 -0.7090
  978MOL0     H31967   9.120   5.964   9.175  1.0673  2.7454  1.4623
  978MOL0     H31968   9.020   5.966   9.311  0.2592 -0.0553 -0.4095
  978MOL0     H31969   9.106   5.694   9.298 -1.0622  0.5482  1.4819
  978MOL0     H31970   9.098   5.737   9.137 -1.3377  2.4886 -1.6307
  978MOL0     H31971   8.864   5.646   9.253 -0.0788 -0.3237  0.2539
  978MOL0     H31972   8.848   5.806   9.322  3.1978  1.7960  0.5234
  978MOL0     H31973   8.816   5.900   9.107  1.4082  0.5906  0.3864
  978MOL0     H31974   8.900   5.766   9.027  2.7017  2.8294  1.5801
  978MOL0     H31975   8.725   5.612   9.074  1.7277  0.7418 -1.5210
  978MOL0     H31976   8.635   5.712   9.173 -1.1340 -0.2216  0.4824
  978MOL0     H31977   8.668   5.783   8.878  0.2169 -0.4962 -0.2409
  978MOL0     H31978   8.569   5.866   8.997 -0.1632 -0.1034 -1.1025
  978MOL0     H31979   8.460   5.696   8.849  1.3573  1.6450  0.3310
  978MOL0     H31980   8.523   5.576   8.957  0.7005  0.3708  0.3022
  978MOL0     H31981   8.435   5.509   9.160 -1.5301 -0.7676  1.6356
  978MOL0     H31982   8.094   5.539   9.306 -0.9661 -0.3580  0.9294
  978MOL0     H31983   8.234   5.454   9.360 -0.5817 -0.9622 -0.1918
  978MOL0     H31984   8.286   5.640   9.508 -0.8984 -0.2483  0.5059
  978MOL0     H31985   8.163   5.739   9.447 -0.4189 -0.7301 -1.8879
  978MOL0     H31986   8.093   5.469   9.595 -1.2894 -1.2287  0.6788
  978MOL0     H31987   7.985   5.607   9.531  0.6882  3.9843  0.5711
  978MOL0     H31988   8.203   5.679   9.728 -0.7461  0.8083 -0.6220
  978MOL0     H31989   8.066   5.590   9.795 -0.6101 -0.2724 -1.3935
  978MOL0     H31990   7.922   5.990   9.717  0.0915 -0.4233 -1.4762
  978MOL0     H31991   7.682   6.056   9.748 -2.0178 -0.1331  0.9905
  978MOL0     H31992   7.344   6.260   9.813  2.5834  0.1702  1.9546
  978MOL0     H31993   7.143   6.346   9.917  1.6431  2.2627  1.6685
  978MOL0     H31994   6.945   6.073  10.224  0.4702 -0.3183 -1.0236
  978MOL0     H31995   7.007   6.217  10.310  2.3640  1.0860 -1.4544
  978MOL0     H31996   6.796   6.349  10.268  1.7423 -0.3051  1.2573
  978MOL0     H31997   6.725   6.225  10.179 -2.7285 -0.3161  2.0512
  978MOL0     H31998   6.771   6.057  10.386  0.9563 -0.5767 -1.0696
  978MOL0     H31999   6.804   6.199  10.477 -0.6788 -1.3544  0.7543
  978MOL0     H32000   6.599   6.149  10.525  2.2940 -0.6345  0.0333
  978MOL0     H32001   6.547   6.143  10.345  2.1870  0.7830 -2.1564
  978MOL0     H32002   6.558   6.380  10.320 -2.4071 -0.7078 -0.2203
  978MOL0     H32003   6.615   6.392  10.486 -2.0663 -0.4827  2.2402
  978MOL0     H32004   6.348   6.261  10.401  0.8973  1.0933 -2.0224
  978MOL0     H32005   6.383   6.284  10.556 -3.7820 -0.4386 -0.4665
  978MOL0     H32006   6.350   6.491  10.342 -3.0938  0.3953  0.7206
  978MOL0     H32007   6.393   6.544  10.507  0.6896 -1.3205  1.2882
  978MOL0     H32008   6.157   6.566  10.491  2.4328  0.8492  1.0546
  978MOL0     H32009   6.126   6.405  10.428  1.9650 -1.1790 -1.1011
  978MOL0     H32010   7.127   5.979  10.162 -0.1846 -1.1409 -0.6975
  978MOL0     H32011   7.321   5.905  10.053 -0.3754 -1.4977 -1.4103
  978MOL0     H32012   7.607   5.640   9.843  0.2418  1.2139  1.2088
  978MOL0     H32013   7.852   5.583   9.759 -0.7061  0.3215 -0.7895
  978MOL0     H32014   9.326   6.315   9.489 -0.5190  1.8579  3.1584
  978MOL0     H32015   9.521   6.362   9.632  0.0179  0.7084 -1.4176
  978MOL0     H32016   9.851   6.209   9.936  1.5830 -4.9031  1.2720
  978MOL0     H32017  10.030   6.315  10.068  1.1852  1.4315 -0.4701
  978MOL0     H32018  10.246   6.327  10.148 -1.1894  0.1624  1.4348
  978MOL0     H32019  10.177   6.486  10.120 -0.5482 -0.7843 -2.2091
  978MOL0     H32020  10.408   6.580  10.057  2.2658 -0.6276  0.2187
  978MOL0     H32021  10.471   6.435  10.111  0.4053  0.9894 -3.8424
  978MOL0     H32022  10.389   6.483  10.357 -1.3846  1.0112  1.0799
  978MOL0     H32023  10.323   6.629  10.283  1.6682  2.1397  2.2055
  978MOL0     H32024  10.615   6.539  10.308 -0.9078 -0.2964  0.6913
  978MOL0     H32025  10.569   6.678  10.205  3.3146  1.5092  0.6552
  978MOL0     H32026  10.605   6.778  10.611 -3.0606 -0.2767  0.6415
  978MOL0     H32027  10.257   6.345   9.707  0.3361  0.8332 -1.5932
  978MOL0     H32028  10.016   6.316   9.484 -0.2406  0.6784  0.3311
  978MOL0     H32029  10.191   6.268   9.506 -0.9271  1.6006 -0.7604
  978MOL0     H32030  10.052   6.154   9.495 -0.5335  1.3993 -1.7943
  979MOL0     O32031   7.040   9.777  10.693  0.2852 -1.1770  0.0952
  979MOL0     C32032   7.112   9.701  10.757  0.4220  0.8558 -1.4231
  979MOL0     O32033   7.082   9.650  10.882  0.5335  0.7786  0.2537
  979MOL0     C32034   6.953   9.680  10.926 -0.2291  0.6199 -0.2717
  979MOL0     C32035   6.913   9.797  10.989 -0.6131 -0.8467 -1.7359
  979MOL0     C32036   6.782   9.825  11.034  0.8305 -1.2383  0.3893
  979MOL0     C32037   6.683   9.728  11.007  0.3795 -0.7707  0.5715
  979MOL0     O32038   6.548   9.749  11.023  0.2348 -0.4988 -0.6177
  979MOL0     C32039   6.520   9.810  11.148  0.4500  0.1945 -0.2555
  979MOL0     C32040   6.378   9.769  11.186 -0.3509 -0.3559 -0.2139
  979MOL0     C32041   6.334   9.840  11.313  0.2312  0.0814  0.3179
  979MOL0     C32042   6.187   9.800  11.349  0.3182 -0.5013  0.1456
  979MOL0     C32043   6.123   9.880  11.467  1.0677 -0.4162  1.2141
  979MOL0     C32044   5.975   9.833  11.492 -0.3940 -0.0828  0.0186
  979MOL0     C32045   5.909   9.914  11.602  0.2208  0.4658  0.2122
  979MOL0     C32046   5.782   9.851  11.666 -0.2137  0.5760  0.1392
  979MOL0     N32047   5.661   9.857  11.591  0.3655  0.4244  0.3511
  979MOL0     C32048   5.572   9.965  11.600  0.0782  0.3502  0.2048
  979MOL0     C32049   5.495   9.955  11.489 -0.0343 -0.2029 -0.3335
  979MOL0     C32050   5.400  10.065  11.442 -0.3339 -0.3164  0.7371
  979MOL0     C32051   5.489  10.157  11.355 -0.3678 -0.4338  0.6041
  979MOL0     C32052   5.394  10.248  11.260  0.1829  0.4575  0.3264
  979MOL0     C32053   5.370  10.384  11.321  0.1018  0.3134  0.7937
  979MOL0     O32054   5.267  10.456  11.246 -0.5575  0.0744  0.4615
  979MOL0     C32055   5.296  10.530  11.129  0.8280  0.3851 -0.2330
  979MOL0     C32056   5.414  10.521  11.049 -0.0993 -0.5494  0.0295
  979MOL0     C32057   5.427  10.595  10.938  0.8185  0.8176 -0.6249
  979MOL0     C32058   5.314  10.677  10.896  1.0770  0.0927  0.1244
  979MOL0     C32059   5.336  10.765  10.777 -0.1812 -1.0928 -0.2887
  979MOL0     O32060   5.229  10.810  10.702 -0.0008  0.1904 -0.7615
  979MOL0     C32061   5.250  10.904  10.605  0.6603  0.4572  0.2253
  979MOL0     C32062   5.299  10.874  10.482 -0.5760 -0.5101 -0.9250
  979MOL0     C32063   5.289  10.964  10.373 -0.7845  0.5467  0.2425
  979MOL0     C32064   5.234  11.090  10.384 -0.0557  0.3333 -0.1375
  979MOL0     O32065   5.241  11.183  10.286 -0.1939  0.1216 -0.2228
  979MOL0     C32066   5.371  11.237  10.267 -0.7393  0.4745  0.5548
  979MOL0     C32067   5.402  11.353  10.357  0.2427 -0.9673 -0.2837
  979MOL0     C32068   5.542  11.401  10.358  0.1762  0.0687  0.2836
  979MOL0     C32069   5.629  11.368  10.476  1.0443  0.6270  0.3053
  979MOL0     C32070   5.629  11.223  10.505 -0.4799 -0.8137  0.8118
  979MOL0     C32071   5.728  11.202  10.620  0.8996  0.3618 -0.4649
  979MOL0     C32072   5.668  11.241  10.754 -0.1963  0.1839 -1.1342
  979MOL0     C32073   5.734  11.188  10.885 -0.9924  0.5272  1.0740
  979MOL0    Cl32074   5.866  11.311  10.905 -0.2765 -0.1391 -0.1873
  979MOL0     C32075   5.179  11.119  10.507 -0.0748  0.0368  0.2849
  979MOL0     C32076   5.181  11.025  10.614 -0.9571  0.2031  0.0627
  979MOL0     O32077   5.454  10.806  10.767 -0.5236  0.2310  0.5866
  979MOL0     C32078   5.198  10.691  10.974  0.2722  0.4125 -0.1430
  979MOL0     C32079   5.194  10.613  11.096  1.0197 -0.1825  0.9647
  979MOL0     N32080   5.533   9.839  11.420  0.2572 -0.2801  0.7904
  979MOL0     N32081   5.623   9.777  11.486  0.5799 -0.0054 -0.1401
  979MOL0     C32082   6.726   9.613  10.938  0.6624  0.2335 -0.1435
  979MOL0     C32083   6.860   9.587  10.915 -0.0925  0.3201 -0.3207
  979MOL0     C32084   7.242   9.674  10.698 -0.1422 -0.3389  0.4826
  979MOL0     C32085   7.297   9.544  10.706  0.7389  0.0921 -0.0942
  979MOL0     C32086   7.421   9.511  10.655 -0.0005  0.5666 -0.1061
  979MOL0     C32087   7.501   9.611  10.608  0.3919 -0.8159  0.3181
  979MOL0     O32088   7.619   9.569  10.553  0.2772 -0.3524  0.9219
  979MOL0     C32089   7.727   9.668  10.536 -0.3541 -1.4760  0.0411
  979MOL0     C32090   7.865   9.588  10.532 -0.2759 -1.1322 -0.0953
  979MOL0     C32091   7.899   9.535  10.664 -0.5601  0.2191 -0.0339
  979MOL0     C32092   7.972   9.639  10.749 -0.6040 -0.3703 -0.6146
  979MOL0     C32093   8.017   9.583  10.863  0.8615 -0.5573 -1.8149
  979MOL0     C32094   8.070   9.535  10.966 -0.1525  0.6531 -0.3746
  979MOL0     C32095   7.451   9.740  10.589 -1.1451 -1.1686  0.5444
  979MOL0     C32096   7.327   9.774  10.636 -0.2315 -0.6570  0.0478
  979MOL0     C32097   7.263   9.910  10.601 -0.1824 -0.6152  0.2004
  979MOL0     H32098   6.991   9.871  11.006 -2.7047  0.8492  1.5457
  979MOL0     H32099   6.764   9.925  11.075 -1.0678 -1.2279 -0.3594
  979MOL0     H32100   6.585   9.775  11.229 -0.5817 -0.6233  0.2382
  979MOL0     H32101   6.528   9.919  11.139  2.1414  0.7257  4.7953
  979MOL0     H32102   6.380   9.660  11.195  1.3270 -0.3847 -0.5626
  979MOL0     H32103   6.311   9.798  11.105  0.5160  1.1269 -0.4459
  979MOL0     H32104   6.341   9.948  11.304 -0.6922  0.0029 -2.3738
  979MOL0     H32105   6.389   9.801  11.399 -0.7725  0.3582  1.0991
  979MOL0     H32106   6.116   9.809  11.265 -0.6766 -0.8384  0.9239
  979MOL0     H32107   6.183   9.692  11.368  2.3647 -0.6921 -0.3483
  979MOL0     H32108   6.183   9.881  11.558  3.0039  0.6486 -0.0020
  979MOL0     H32109   6.107   9.982  11.430  0.2519 -0.7074  0.7368
  979MOL0     H32110   5.922   9.828  11.396  1.6015  1.5617 -1.2643
  979MOL0     H32111   5.992   9.731  11.527  3.8643  0.6322  0.5027
  979MOL0     H32112   5.875  10.012  11.566 -0.1226 -0.2673 -1.5652
  979MOL0     H32113   5.988   9.930  11.676  1.0112  3.7974 -1.1233
  979MOL0     H32114   5.801   9.746  11.689 -0.1738  0.7133  0.7736
  979MOL0     H32115   5.766   9.900  11.763  0.8083 -1.0024  1.1618
  979MOL0     H32116   5.574  10.043  11.675 -2.5473  0.2183  0.4805
  979MOL0     H32117   5.309  10.019  11.401 -0.6027  0.6809  0.1667
  979MOL0     H32118   5.352  10.130  11.516  1.7553  1.0199  1.0013
  979MOL0     H32119   5.560  10.211  11.418 -0.3105 -2.7612  2.7280
  979MOL0     H32120   5.544  10.096  11.283 -2.2659  0.8575 -2.1298
  979MOL0     H32121   5.310  10.185  11.228  0.5068  0.0617  0.2393
  979MOL0     H32122   5.464  10.265  11.178  2.4453 -1.5952  1.6920
  979MOL0     H32123   5.463  10.442  11.332 -0.8193  1.4902  2.9499
  979MOL0     H32124   5.326  10.373  11.421 -0.2089  0.3196  0.6585
  979MOL0     H32125   5.501  10.465  11.081 -0.8252 -1.7676 -0.0725
  979MOL0     H32126   5.519  10.588  10.880  2.4555 -2.2773  2.0750
  979MOL0     H32127   5.327  10.770  10.467  0.4163 -0.6395  1.3758
  979MOL0     H32128   5.314  10.930  10.273  0.9348  2.3503 -0.0021
  979MOL0     H32129   5.445  11.157  10.280 -0.6947  0.2511 -0.9090
  979MOL0     H32130   5.373  11.275  10.164 -1.5139  2.7782  1.3305
  979MOL0     H32131   5.348  11.443  10.324  1.9617  0.6393  1.0161
  979MOL0     H32132   5.369  11.323  10.457  0.4956  0.1050  0.1482
  979MOL0     H32133   5.602  11.359  10.277  0.7159 -0.7085  1.0559
  979MOL0     H32134   5.536  11.508  10.340  0.5439 -0.0511 -0.5932
  979MOL0     H32135   5.592  11.426  10.561  0.9906  1.4271 -0.2515
  979MOL0     H32136   5.727  11.407  10.450  1.3680 -0.8350 -0.8118
  979MOL0     H32137   5.666  11.187  10.408  0.1307  1.1438  0.2616
  979MOL0     H32138   5.529  11.182  10.522 -0.2843 -0.7858  2.0892
  979MOL0     H32139   5.750  11.096  10.626  2.3162  0.6171 -0.8732
  979MOL0     H32140   5.827  11.244  10.601  0.5941  1.0019 -0.7143
  979MOL0     H32141   5.564  11.207  10.761 -0.4738  1.3890  1.8904
  979MOL0     H32142   5.649  11.349  10.760  1.3806  0.3966  2.1297
  979MOL0     H32143   5.670  11.193  10.975  0.1050 -2.2112  2.1180
  979MOL0     H32144   5.757  11.083  10.865 -1.7639  0.9195 -2.4342
  979MOL0     H32145   5.126  11.212  10.528  1.2145  1.0628 -0.8156
  979MOL0     H32146   5.130  11.044  10.708 -0.4830  2.9079 -0.1558
  979MOL0     H32147   5.117  10.750  10.935  2.1959  3.7432  0.5418
  979MOL0     H32148   5.106  10.615  11.160 -0.6541 -0.3358 -1.2107
  979MOL0     H32149   6.669   9.528  10.903  1.1046 -0.0688 -0.1410
  979MOL0     H32150   6.893   9.490  10.879 -3.0686 -0.6576 -0.6911
  979MOL0     H32151   7.245   9.468  10.763  1.1370 -2.3778 -2.7660
  979MOL0     H32152   7.455   9.408  10.662  2.6493  1.1771 -2.2410
  979MOL0     H32153   7.726   9.740  10.618 -2.8405 -0.5127 -0.7210
  979MOL0     H32154   7.711   9.733  10.450 -1.9938 -2.4298 -0.4277
  979MOL0     H32155   7.943   9.654  10.492  0.3593 -0.5871  1.9005
  979MOL0     H32156   7.861   9.504  10.462  1.3383 -1.5915  0.3146
  979MOL0     H32157   7.959   9.444  10.654 -2.1669 -0.6780 -2.4230
  979MOL0     H32158   7.810   9.495  10.713  1.2780 -0.9160  2.6039
  979MOL0     H32159   8.056   9.669  10.685 -0.0190 -2.6723 -1.0086
  979MOL0     H32160   7.916   9.733  10.755  0.6529  0.6317 -3.2382
  979MOL0     H32161   8.133   9.488  11.038  0.8945  1.5654 -0.6524
  979MOL0     H32162   7.506   9.818  10.536 -3.1951 -0.4368 -0.6124
  979MOL0     H32163   7.177   9.903  10.534 -1.4215  2.9120  1.2224
  979MOL0     H32164   7.227   9.963  10.690  0.1985 -1.1938  0.7093
  979MOL0     H32165   7.314   9.991  10.547 -1.8898 -0.1733 -0.8298
  980MOL0     O32166   2.365   7.359   8.110 -0.1394  0.4893  0.1714
  980MOL0     C32167   2.274   7.424   8.070  1.0519 -0.2150  0.3571
  980MOL0     O32168   2.287   7.561   8.043 -0.0076  0.4937  0.6837
  980MOL0     C32169   2.412   7.619   8.055  0.0254 -0.3292 -0.6322
  980MOL0     C32170   2.515   7.600   7.960 -0.8276  0.9681  0.2025
  980MOL0     C32171   2.644   7.661   7.977 -0.4918  0.4984 -0.9616
  980MOL0     C32172   2.664   7.747   8.083  0.4252  0.9837 -0.1697
  980MOL0     O32173   2.785   7.809   8.097  1.0594 -0.1245  0.1930
  980MOL0     C32174   2.868   7.729   8.185  0.1632  0.2273  0.6581
  980MOL0     C32175   3.009   7.789   8.177 -0.5514  0.1205  0.1836
  980MOL0     C32176   3.064   7.759   8.035 -0.1574 -0.5452 -1.1405
  980MOL0     C32177   3.180   7.859   8.002  0.2283 -0.0699  0.1939
  980MOL0     C32178   3.197   7.854   7.850 -0.1314 -0.2667 -0.1771
  980MOL0     C32179   3.279   7.732   7.802  0.0848 -0.3351 -0.3436
  980MOL0     C32180   3.297   7.707   7.654  0.8941 -1.3018 -0.5124
  980MOL0     C32181   3.343   7.835   7.574 -0.0193  0.9605 -0.4117
  980MOL0     N32182   3.481   7.879   7.601 -0.2259  0.2569 -0.1554
  980MOL0     C32183   3.555   7.978   7.537 -0.4083  0.5441  0.7808
  980MOL0     C32184   3.686   7.956   7.582 -0.0304 -0.1700  0.2211
  980MOL0     C32185   3.803   8.049   7.564 -0.1067  0.2586 -0.2452
  980MOL0     C32186   3.892   8.040   7.446 -0.6047  1.1467  0.7782
  980MOL0     C32187   3.972   7.904   7.424 -0.3955  0.7153 -1.0391
  980MOL0     C32188   4.057   7.906   7.300  0.3892  0.2587 -0.0365
  980MOL0     O32189   4.168   7.992   7.336 -0.9269  0.6247  0.1802
  980MOL0     C32190   4.279   7.989   7.254  0.7040  0.4613 -0.3445
  980MOL0     C32191   4.275   7.918   7.132  0.6132 -0.3223  0.0466
  980MOL0     C32192   4.378   7.937   7.041 -0.0834  0.4812 -0.2638
  980MOL0     C32193   4.486   8.018   7.072  0.2459  0.1446  0.4403
  980MOL0     C32194   4.603   8.031   6.978  0.7584  0.3379  0.1822
  980MOL0     O32195   4.715   8.085   7.031  0.0654 -0.4575  0.6116
  980MOL0     C32196   4.832   8.091   6.952  0.3976  0.5988  0.5089
  980MOL0     C32197   4.854   8.210   6.884 -0.3604  0.2275  0.6358
  980MOL0     C32198   4.966   8.231   6.810 -0.2516  0.3540 -0.7018
  980MOL0     C32199   5.053   8.120   6.790  0.2697  0.1708  0.4771
  980MOL0     O32200   5.165   8.132   6.713 -0.1844  0.1469 -0.1095
  980MOL0     C32201   5.167   8.218   6.596  0.6755 -0.1913  0.4731
  980MOL0     C32202   5.219   8.360   6.627 -0.7774 -0.7378  0.1947
  980MOL0     C32203   5.366   8.357   6.668 -0.3844 -0.0440 -0.5036
  980MOL0     C32204   5.408   8.295   6.806  0.1171 -0.3366  0.0719
  980MOL0     C32205   5.554   8.332   6.833 -0.2757  0.2185 -0.3149
  980MOL0     C32206   5.579   8.462   6.901  0.3804  0.4526  0.0188
  980MOL0     C32207   5.730   8.487   6.937  0.3885  0.7042 -0.5233
  980MOL0     C32208   5.806   8.581   6.843 -0.9107 -0.6497  0.2900
  980MOL0    Cl32209   5.968   8.632   6.919  0.6302  0.3800 -0.1003
  980MOL0     C32210   5.039   7.994   6.856 -0.2642  0.1177  1.0984
  980MOL0     C32211   4.927   7.991   6.928  0.2697  0.9261 -0.3579
  980MOL0     O32212   4.593   7.995   6.859 -0.5759  0.4515  0.0082
  980MOL0     C32213   4.484   8.076   7.199 -0.7106  0.1628  0.6364
  980MOL0     C32214   4.380   8.072   7.287 -0.0922  0.5243  0.0322
  980MOL0     N32215   3.682   7.838   7.661 -0.5403  0.4064 -0.1017
  980MOL0     N32216   3.563   7.797   7.685 -0.0558 -0.4890  0.8727
  980MOL0     C32217   2.557   7.778   8.169  0.3638 -0.6727  0.3585
  980MOL0     C32218   2.433   7.716   8.155  0.5797 -0.8512  0.9766
  980MOL0     C32219   2.128   7.374   8.046 -0.2512  0.1011 -0.1837
  980MOL0     C32220   2.032   7.460   8.004 -0.1027  0.4709 -0.1236
  980MOL0     C32221   1.898   7.426   8.008 -0.3366  0.4792 -0.3743
  980MOL0     C32222   1.860   7.298   8.019 -0.1985  0.5706  1.1041
  980MOL0     O32223   1.732   7.263   7.988 -0.2715 -0.9698 -0.8469
  980MOL0     C32224   1.642   7.202   8.095  0.0586 -0.0932  0.5374
  980MOL0     C32225   1.637   7.264   8.239 -0.3719 -0.9924  0.0540
  980MOL0     C32226   1.535   7.383   8.256  0.3319  0.0415  0.3032
  980MOL0     C32227   1.590   7.511   8.197  0.2112  0.8823  0.7007
  980MOL0     C32228   1.486   7.604   8.214  0.1564  0.8405 -0.3234
  980MOL0     C32229   1.403   7.694   8.225 -0.2052 -0.3175 -0.6108
  980MOL0     C32230   1.958   7.204   8.066  0.4476  0.0524 -0.5363
  980MOL0     C32231   2.090   7.238   8.086  0.0966 -0.1508  0.2748
  980MOL0     C32232   2.190   7.122   8.115 -0.5080 -0.7902  0.1520
  980MOL0     H32233   2.495   7.526   7.883 -1.3782  2.0285 -0.7119
  980MOL0     H32234   2.729   7.634   7.914 -0.0008 -0.6801  0.1556
  980MOL0     H32235   2.832   7.729   8.288  0.4943 -1.5377  0.8119
  980MOL0     H32236   2.869   7.627   8.145 -1.1873  0.5541 -0.2894
  980MOL0     H32237   3.076   7.752   8.255  1.2377 -0.2465 -1.4478
  980MOL0     H32238   2.996   7.896   8.196  0.7482  0.7525 -2.1580
  980MOL0     H32239   2.989   7.776   7.958 -0.2402  1.1612 -0.7352
  980MOL0     H32240   3.094   7.654   8.028 -0.4071 -0.8147  1.0804
  980MOL0     H32241   3.154   7.957   8.041 -1.0035 -0.1298 -0.4296
  980MOL0     H32242   3.261   7.810   8.057 -0.9377 -2.8619 -0.4173
  980MOL0     H32243   3.102   7.864   7.797  0.5345  2.5873 -1.0221
  980MOL0     H32244   3.256   7.944   7.829  3.6606 -2.0966  1.6521
  980MOL0     H32245   3.378   7.744   7.846  0.0188  1.2216 -0.5589
  980MOL0     H32246   3.239   7.637   7.840  1.0105 -0.5733  0.0701
  980MOL0     H32247   3.203   7.672   7.610  0.2870  0.8876 -1.1055
  980MOL0     H32248   3.369   7.626   7.640  0.6819 -1.8216  1.2288
  980MOL0     H32249   3.340   7.821   7.466 -1.7001  2.8821 -0.6644
  980MOL0     H32250   3.276   7.919   7.593  0.1440  0.7757  1.2132
  980MOL0     H32251   3.518   8.053   7.467  0.7240 -0.5625 -1.1009
  980MOL0     H32252   3.768   8.152   7.569  5.2437  2.4292 -0.3408
  980MOL0     H32253   3.863   8.037   7.654 -0.4639  2.4504  0.3254
  980MOL0     H32254   3.837   8.052   7.352  4.0078  1.7584 -2.2018
  980MOL0     H32255   3.962   8.124   7.444  0.8082  0.0184  0.5571
  980MOL0     H32256   3.904   7.818   7.421 -1.6096  1.5589  0.6695
  980MOL0     H32257   4.029   7.896   7.518 -2.8994  0.1959  0.5249
  980MOL0     H32258   4.010   7.946   7.210  1.1083 -4.3568 -2.7940
  980MOL0     H32259   4.092   7.811   7.258 -1.4560 -0.0942 -0.8518
  980MOL0     H32260   4.200   7.851   7.092  0.4793 -0.7009  0.9148
  980MOL0     H32261   4.379   7.893   6.942 -0.9781  0.8219 -0.4350
  980MOL0     H32262   4.784   8.293   6.888 -3.4330 -2.1677 -0.1388
  980MOL0     H32263   4.972   8.314   6.740  0.0992  1.6500  0.8021
  980MOL0     H32264   5.241   8.175   6.528  1.5307  1.0602  0.5736
  980MOL0     H32265   5.066   8.227   6.557  0.1095 -2.5021  1.2567
  980MOL0     H32266   5.204   8.427   6.542 -1.9030 -0.5931  0.4935
  980MOL0     H32267   5.162   8.403   6.710 -0.3078  1.2558 -0.4499
  980MOL0     H32268   5.424   8.306   6.591  0.8724  3.3785 -2.0226
  980MOL0     H32269   5.397   8.462   6.664  3.2119 -0.9935 -1.1436
  980MOL0     H32270   5.401   8.186   6.799 -0.4813 -0.1910 -2.2564
  980MOL0     H32271   5.341   8.321   6.889 -0.7345 -1.9509 -0.0526
  980MOL0     H32272   5.615   8.323   6.742 -0.8316 -0.0923 -0.6707
  980MOL0     H32273   5.582   8.247   6.895  0.9493 -0.5936 -1.8949
  980MOL0     H32274   5.552   8.543   6.833  0.6167 -0.2578 -0.9478
  980MOL0     H32275   5.511   8.463   6.987  3.2029  2.3618  2.4040
  980MOL0     H32276   5.776   8.389   6.953 -4.0949 -1.3996  1.4430
  980MOL0     H32277   5.725   8.537   7.035  0.3055 -3.1716  1.6710
  980MOL0     H32278   5.837   8.518   6.759  0.7632  0.3194  0.1493
  980MOL0     H32279   5.761   8.673   6.806  0.1789  0.0135  0.5645
  980MOL0     H32280   5.101   7.906   6.844 -1.0017 -0.4505  1.3864
  980MOL0     H32281   4.902   7.899   6.980 -0.4525 -0.7889 -3.4432
  980MOL0     H32282   4.574   8.131   7.224  0.5200 -0.9038 -1.1780
  980MOL0     H32283   4.388   8.119   7.384  2.7334  2.0591 -0.8322
  980MOL0     H32284   2.562   7.861   8.239 -1.3788 -1.2547  1.2445
  980MOL0     H32285   2.340   7.736   8.208 -1.3246  1.0890 -2.6716
  980MOL0     H32286   2.060   7.565   7.998 -1.6942  0.9318  0.0369
  980MOL0     H32287   1.825   7.500   7.977  0.8629  1.5331 -0.7646
  980MOL0     H32288   1.665   7.096   8.101 -0.4243 -0.2729 -0.5195
  980MOL0     H32289   1.538   7.212   8.062  0.7613  0.4227 -1.7390
  980MOL0     H32290   1.734   7.286   8.285 -1.2167  2.2646  0.5538
  980MOL0     H32291   1.600   7.186   8.306 -1.8021 -3.6914 -3.5655
  980MOL0     H32292   1.520   7.390   8.364  0.9720  1.9589  0.3070
  980MOL0     H32293   1.446   7.355   8.198 -0.0716 -0.0553  0.9599
  980MOL0     H32294   1.677   7.546   8.253  2.3013 -2.2739 -0.2703
  980MOL0     H32295   1.609   7.503   8.090 -2.0994  0.1104  0.2737
  980MOL0     H32296   1.329   7.771   8.231  0.1359 -0.0905  3.7474
  980MOL0     H32297   1.914   7.105   8.074  0.2594  0.0103 -1.8285
  980MOL0     H32298   2.242   7.123   8.211 -1.8560 -1.5645  0.9235
  980MOL0     H32299   2.135   7.028   8.112 -0.3488 -0.9169  1.0480
  980MOL0     H32300   2.266   7.120   8.036 -1.7260 -3.5746 -1.0574
  981MOL0     O32301   7.585  10.963   9.581 -0.2177 -0.1469  0.3879
  981MOL0     C32302   7.671  10.985   9.654 -0.1837 -0.7415 -0.2854
  981MOL0     O32303   7.661  11.070   9.756  0.0690  0.4272 -0.5681
  981MOL0     C32304   7.540  11.077   9.816  0.4079  0.5944 -0.9179
  981MOL0     C32305   7.531  11.055   9.954  0.3996  1.0457 -1.0208
  981MOL0     C32306   7.410  11.054  10.023  0.0796 -1.0731 -0.3121
  981MOL0     C32307   7.294  11.091   9.964  0.1525  0.1529  1.0922
  981MOL0     O32308   7.180  11.092  10.045  0.2642  0.3419 -0.2154
  981MOL0     C32309   7.054  11.142   9.994 -0.2082  0.7100  0.7852
  981MOL0     C32310   6.948  11.130  10.108 -0.9999 -0.2908  0.5601
  981MOL0     C32311   6.933  10.989  10.162 -0.0799 -0.8105 -0.0876
  981MOL0     C32312   6.806  10.972  10.252  0.4806  0.3991  0.9894
  981MOL0     C32313   6.667  11.000  10.181 -0.1006  0.3646 -0.3814
  981MOL0     C32314   6.569  10.894  10.247  0.2841  0.5668 -0.5206
  981MOL0     C32315   6.448  10.858  10.164  0.3573  0.7625 -0.1132
  981MOL0     C32316   6.344  10.974  10.146 -0.1134 -0.0761  0.3623
  981MOL0     N32317   6.244  10.956  10.041 -0.4681 -0.4333  0.7375
  981MOL0     C32318   6.235  11.039   9.932  0.5111  0.4853 -0.0607
  981MOL0     C32319   6.143  10.992   9.846  0.0714 -0.6721  0.0792
  981MOL0     C32320   6.091  11.051   9.705 -0.6805  0.5260 -0.2077
  981MOL0     C32321   5.943  11.076   9.702  0.0381 -0.4917  0.2495
  981MOL0     C32322   5.907  11.187   9.802  0.6852  0.8344 -0.1732
  981MOL0     C32323   5.753  11.195   9.807  0.1770 -0.7380  1.0256
  981MOL0     O32324   5.715  11.240   9.675  0.3939 -0.3078 -0.1672
  981MOL0     C32325   5.585  11.270   9.649  0.1845 -0.6279 -0.1831
  981MOL0     C32326   5.554  11.342   9.527 -0.3268  0.1145 -0.6167
  981MOL0     C32327   5.424  11.377   9.502 -0.9778 -0.1128  0.1522
  981MOL0     C32328   5.319  11.345   9.592 -0.8832 -0.2549 -0.4181
  981MOL0     C32329   5.173  11.372   9.565 -0.2498  0.5564 -1.2003
  981MOL0     O32330   5.084  11.385   9.665 -0.3309 -0.3415 -0.7913
  981MOL0     C32331   4.948  11.401   9.649 -0.6284 -0.4976 -0.0545
  981MOL0     C32332   4.887  11.447   9.770 -1.2858 -0.7424  0.1963
  981MOL0     C32333   4.751  11.457   9.778 -0.9377  1.0371 -0.5306
  981MOL0     C32334   4.667  11.411   9.682  0.8054 -1.0286  0.3471
  981MOL0     O32335   4.532  11.414   9.700  0.0435 -0.0323 -0.0561
  981MOL0     C32336   4.491  11.289   9.748  0.0865  0.2995  1.6751
  981MOL0     C32337   4.335  11.272   9.729  0.2456 -0.3656  0.4351
  981MOL0     C32338   4.292  11.259   9.586  0.2037 -0.4707  0.7375
  981MOL0     C32339   4.136  11.288   9.557 -0.3568 -0.5810  0.1057
  981MOL0     C32340   4.098  11.257   9.410 -0.7275 -0.6465  0.7042
  981MOL0     C32341   3.950  11.286   9.392  0.1120  0.4041 -0.3049
  981MOL0     C32342   3.904  11.330   9.258 -0.1836  0.2651 -0.4013
  981MOL0     C32343   3.751  11.338   9.245  0.3991 -0.5816 -0.2243
  981MOL0    Cl32344   3.674  11.178   9.248  0.3193 -0.4237  0.1241
  981MOL0     C32345   4.725  11.370   9.562 -0.1250  0.1106 -0.9731
  981MOL0     C32346   4.863  11.367   9.546  0.3148 -0.2834  0.1213
  981MOL0     O32347   5.148  11.388   9.451  0.1360 -0.3126 -0.4281
  981MOL0     C32348   5.355  11.270   9.709  0.1508  0.5571  0.1674
  981MOL0     C32349   5.479  11.237   9.739 -0.6753 -0.4864  0.8309
  981MOL0     N32350   6.076  10.892   9.914  0.4250 -0.0061 -0.2783
  981MOL0     N32351   6.130  10.874  10.030  0.1528  0.0897 -0.0309
  981MOL0     C32352   7.299  11.132   9.829 -1.3839  0.3016 -0.5589
  981MOL0     C32353   7.426  11.122   9.755  0.0435 -0.3480  1.0332
  981MOL0     C32354   7.813  10.937   9.616 -0.5837  0.3412  0.2415
  981MOL0     C32355   7.926  11.015   9.657  0.4218 -0.6378 -0.1597
  981MOL0     C32356   8.053  10.981   9.619  0.8473  0.1671  0.3637
  981MOL0     C32357   8.081  10.880   9.545 -0.2370  0.2987  0.2889
  981MOL0     O32358   8.204  10.880   9.495 -0.3478 -0.2892  0.6345
  981MOL0     C32359   8.245  10.793   9.392 -0.3126 -0.2164 -0.2665
  981MOL0     C32360   8.394  10.793   9.382 -0.8549  0.2633 -0.4782
  981MOL0     C32361   8.471  10.697   9.476 -0.4377  0.3327  0.4360
  981MOL0     C32362   8.626  10.715   9.465  0.6795 -0.1221  0.3033
  981MOL0     C32363   8.681  10.615   9.368 -0.1224 -0.4428  0.8107
  981MOL0     C32364   8.710  10.521   9.294  0.3015  0.0368  0.1011
  981MOL0     C32365   7.970  10.790   9.510 -0.4584 -0.7021  0.3837
  981MOL0     C32366   7.841  10.818   9.539  1.1559  0.5148  0.2115
  981MOL0     C32367   7.730  10.727   9.491 -0.0547  0.4239  0.1434
  981MOL0     H32368   7.613  11.027  10.020 -1.3905  0.6523  1.1346
  981MOL0     H32369   7.403  11.054  10.131  2.7305 -1.3359 -0.0844
  981MOL0     H32370   7.060  11.250   9.974  1.3584  0.9822  2.4070
  981MOL0     H32371   7.025  11.082   9.907  2.1443  1.3018 -0.4729
  981MOL0     H32372   6.854  11.165  10.065 -0.1021  0.0385 -1.2520
  981MOL0     H32373   6.975  11.196  10.191  1.6997  0.9829 -1.1567
  981MOL0     H32374   7.019  10.972  10.227 -1.0179 -1.4334  1.0126
  981MOL0     H32375   6.939  10.908  10.089 -2.8342 -0.5371 -0.7217
  981MOL0     H32376   6.804  10.868  10.286  0.1734 -0.4593 -1.4327
  981MOL0     H32377   6.822  11.038  10.338 -0.8286  2.8959 -0.5678
  981MOL0     H32378   6.633  11.103  10.187  0.9652  0.6450  1.9798
  981MOL0     H32379   6.666  10.980  10.073 -1.4013  4.1422 -1.2285
  981MOL0     H32380   6.611  10.794  10.259 -1.3817  0.1022  2.4609
  981MOL0     H32381   6.535  10.921  10.347 -1.6197  2.3045 -1.5606
  981MOL0     H32382   6.407  10.770  10.215  1.9527 -0.4506 -0.8200
  981MOL0     H32383   6.484  10.825  10.066  0.0388 -2.6754  0.7992
  981MOL0     H32384   6.290  10.974  10.241  0.4913  1.8909  0.7547
  981MOL0     H32385   6.398  11.068  10.140  1.2128 -0.6300  2.4247
  981MOL0     H32386   6.298  11.123   9.904  0.3231  0.5103 -0.4033
  981MOL0     H32387   6.143  11.140   9.667 -0.4656 -1.0773 -4.1402
  981MOL0     H32388   6.112  10.970   9.635  0.5880 -1.5622  2.4081
  981MOL0     H32389   5.918  11.113   9.602 -2.9290  2.0757  1.7710
  981MOL0     H32390   5.897  10.978   9.716 -2.6244  0.7380  0.5646
  981MOL0     H32391   5.949  11.284   9.772 -2.3691  1.6499 -2.3105
  981MOL0     H32392   5.950  11.163   9.900 -0.5840  2.7175  0.9147
  981MOL0     H32393   5.718  11.254   9.892  0.9128 -0.7680  1.3652
  981MOL0     H32394   5.729  11.088   9.810  2.7055 -1.4315 -0.2554
  981MOL0     H32395   5.628  11.368   9.453 -1.1426 -3.3500 -2.8598
  981MOL0     H32396   5.399  11.427   9.409 -2.4386  0.8561  1.0172
  981MOL0     H32397   4.965  11.475   9.840  0.7658 -1.3339 -1.7391
  981MOL0     H32398   4.702  11.486   9.870 -1.9679 -0.2733 -0.6307
  981MOL0     H32399   4.544  11.211   9.692 -0.3602  0.5984  0.8227
  981MOL0     H32400   4.518  11.267   9.852  1.3552 -1.2461  1.0700
  981MOL0     H32401   4.284  11.203   9.796 -2.0667  1.9382  1.2256
  981MOL0     H32402   4.293  11.370   9.755 -0.5443 -0.1708 -1.3932
  981MOL0     H32403   4.346  11.324   9.516  1.7305 -1.4719  0.9294
  981MOL0     H32404   4.310  11.156   9.554 -1.8599  0.2127 -3.2328
  981MOL0     H32405   4.115  11.388   9.594  1.2865  0.0386 -0.5350
  981MOL0     H32406   4.077  11.212   9.608 -0.2802 -3.5455 -3.7006
  981MOL0     H32407   4.128  11.152   9.398  0.4257 -0.4937  1.9704
  981MOL0     H32408   4.148  11.327   9.343 -1.2118  0.5764  1.5809
  981MOL0     H32409   3.891  11.199   9.420  0.8198  0.7371  2.5813
  981MOL0     H32410   3.926  11.372   9.456 -1.1436  0.5964 -1.0008
  981MOL0     H32411   3.940  11.263   9.179 -2.9470 -0.4887 -1.1387
  981MOL0     H32412   3.950  11.426   9.233  1.2843 -1.4259 -5.4268
  981MOL0     H32413   3.699  11.406   9.313 -2.2727 -2.1029 -0.6034
  981MOL0     H32414   3.730  11.368   9.142  1.1542  1.6784  0.2303
  981MOL0     H32415   4.663  11.333   9.481 -0.3538 -2.3981  0.2631
  981MOL0     H32416   4.901  11.328   9.452  1.3424  0.0844  0.3729
  981MOL0     H32417   5.278  11.248   9.782  1.7914 -1.0847  1.5101
  981MOL0     H32418   5.497  11.201   9.840  0.2509 -2.1165  0.1275
  981MOL0     H32419   7.213  11.176   9.780 -0.8629  1.3453 -0.5677
  981MOL0     H32420   7.430  11.148   9.650  0.6959 -0.5368  1.0072
  981MOL0     H32421   7.902  11.105   9.712 -1.8770 -2.1705  1.5357
  981MOL0     H32422   8.136  11.038   9.661  0.9236 -0.6377  1.3394
  981MOL0     H32423   8.205  10.838   9.301  0.7652 -0.2762 -0.7973
  981MOL0     H32424   8.208  10.690   9.401  0.9214 -0.9877 -2.8632
  981MOL0     H32425   8.423  10.899   9.387 -0.9632  0.3033 -0.6512
  981MOL0     H32426   8.416  10.767   9.278 -0.2670 -1.7299  0.1077
  981MOL0     H32427   8.443  10.593   9.460  0.5790 -0.4228  3.0859
  981MOL0     H32428   8.444  10.710   9.581 -0.6208 -2.9450  0.8809
  981MOL0     H32429   8.646  10.817   9.432 -0.1440 -0.5269 -1.5487
  981MOL0     H32430   8.677  10.698   9.561 -0.8041  0.7243  1.2725
  981MOL0     H32431   8.734  10.433   9.239 -0.2098 -1.0315  1.5287
  981MOL0     H32432   7.987  10.702   9.448  0.5364  0.9849 -1.8733
  981MOL0     H32433   7.675  10.760   9.402 -1.3416 -2.3174 -0.1949
  981MOL0     H32434   7.774  10.630   9.465 -2.1548 -0.6843  0.4596
  981MOL0     H32435   7.653  10.699   9.563 -0.4982 -0.3832 -0.6168
  982MOL0     O32436   6.004   5.516   1.148  0.4415  0.5525  0.1986
  982MOL0     C32437   5.930   5.614   1.164  0.1532  0.1721 -0.1722
  982MOL0     O32438   5.980   5.741   1.165  0.7047  0.1556  0.3621
  982MOL0     C32439   6.106   5.747   1.100 -0.7323 -0.8213 -0.3400
  982MOL0     C32440   6.228   5.757   1.174  0.1783  0.4073  0.0360
  982MOL0     C32441   6.342   5.765   1.096  0.5964 -0.2236  0.4348
  982MOL0     C32442   6.346   5.783   0.961  0.2271 -0.9350 -0.9054
  982MOL0     O32443   6.469   5.797   0.903 -0.4935  1.3338 -0.0126
  982MOL0     C32444   6.494   5.918   0.827  0.0539  0.4647  0.7462
  982MOL0     C32445   6.640   5.952   0.797  0.3076 -0.2423  0.3008
  982MOL0     C32446   6.722   5.970   0.918 -0.9209 -0.1261  0.3749
  982MOL0     C32447   6.845   6.047   0.896  0.2233 -0.2585  0.5724
  982MOL0     C32448   6.930   6.063   1.024  0.0820  0.1700 -0.3364
  982MOL0     C32449   7.045   6.159   1.001 -0.0827 -0.4791  1.6312
  982MOL0     C32450   7.130   6.160   1.126 -0.0700 -0.5483  1.0407
  982MOL0     C32451   7.060   6.235   1.247  0.8895  0.6041 -0.7106
  982MOL0     N32452   7.000   6.371   1.200 -0.8783 -0.0096  0.1008
  982MOL0     C32453   7.074   6.483   1.179  0.2287  0.0073 -0.2271
  982MOL0     C32454   6.981   6.571   1.129 -0.2984  0.2127 -0.3395
  982MOL0     C32455   7.011   6.712   1.097 -0.2486  0.6318  0.1946
  982MOL0     C32456   7.145   6.724   1.027  0.0022 -0.0342  0.2981
  982MOL0     C32457   7.177   6.877   1.005 -0.0840  0.3549  0.6812
  982MOL0     C32458   7.084   6.943   0.893  0.3339 -0.1500  0.1481
  982MOL0     O32459   7.111   7.084   0.902 -0.3999 -0.2210  0.0559
  982MOL0     C32460   7.165   7.153   0.797  0.0118 -0.3652 -0.5796
  982MOL0     C32461   7.245   7.097   0.689  0.0984  1.2194  0.3096
  982MOL0     C32462   7.286   7.177   0.587  0.6221 -0.4332  0.7829
  982MOL0     C32463   7.259   7.313   0.596 -0.4218 -0.0402  0.6659
  982MOL0     C32464   7.277   7.401   0.478 -0.1285  0.3617  0.0549
  982MOL0     O32465   7.311   7.527   0.505 -0.0906  0.0331  0.0121
  982MOL0     C32466   7.333   7.630   0.418 -0.7386 -0.4810  0.0938
  982MOL0     C32467   7.325   7.631   0.279  0.5573 -0.0782  1.1390
  982MOL0     C32468   7.356   7.746   0.205 -0.7426 -0.5930  1.2847
  982MOL0     C32469   7.405   7.857   0.265 -0.5543 -0.8658  0.2785
  982MOL0     O32470   7.431   7.969   0.196  0.3966 -0.1238  0.4422
  982MOL0     C32471   7.327   8.021   0.110 -1.1919 -0.6396  0.0918
  982MOL0     C32472   7.400   8.038  -0.029 -0.7136 -0.0612  0.5868
  982MOL0     C32473   7.315   8.125  -0.125  0.2126  0.4419 -0.2315
  982MOL0     C32474   7.362   8.103  -0.266  1.1006  0.3920 -0.3188
  982MOL0     C32475   7.295   8.201  -0.364 -0.0827 -0.1390  0.5349
  982MOL0     C32476   7.338   8.351  -0.356 -0.3323  0.0578  0.6003
  982MOL0     C32477   7.244   8.435  -0.452 -0.3844 -0.7695 -0.0621
  982MOL0     C32478   7.296   8.571  -0.487  0.7115 -0.7283 -0.0908
  982MOL0    Cl32479   7.272   8.684  -0.351 -0.1841 -0.1182  0.1707
  982MOL0     C32480   7.427   7.852   0.399  0.4470 -0.1446  0.3531
  982MOL0     C32481   7.401   7.738   0.473  0.5702  0.2707 -0.7888
  982MOL0     O32482   7.259   7.359   0.365 -0.3854  0.2948  0.4246
  982MOL0     C32483   7.182   7.373   0.699 -0.1571  0.4649 -0.0448
  982MOL0     C32484   7.147   7.295   0.804 -0.2650  0.0921  0.3942
  982MOL0     N32485   6.863   6.504   1.109 -0.4287 -0.3526 -0.4366
  982MOL0     N32486   6.882   6.380   1.144  0.2402  0.2869 -0.5657
  982MOL0     C32487   6.227   5.798   0.897  0.9284  1.2787 -0.4260
  982MOL0     C32488   6.106   5.777   0.963  0.1096 -0.5822 -0.2917
  982MOL0     C32489   5.778   5.604   1.171 -0.8457 -0.1985  0.6265
  982MOL0     C32490   5.700   5.714   1.132  0.6631  0.0016 -0.6911
  982MOL0     C32491   5.555   5.704   1.120 -0.9111 -1.3126 -1.0457
  982MOL0     C32492   5.485   5.592   1.158 -0.4485  0.3345 -0.3031
  982MOL0     O32493   5.345   5.600   1.153 -0.1786  1.2651  0.2548
  982MOL0     C32494   5.267   5.503   1.226 -0.3931  0.3360  0.0355
  982MOL0     C32495   5.122   5.530   1.207 -0.1546 -0.6161 -0.0294
  982MOL0     C32496   5.072   5.539   1.057  0.1523  0.0458 -0.7937
  982MOL0     C32497   5.129   5.440   0.961  1.2741 -0.3279 -0.3411
  982MOL0     C32498   5.080   5.312   1.013 -0.8544 -0.3944 -0.2376
  982MOL0     C32499   5.022   5.210   1.039 -0.8886  0.1244 -0.2223
  982MOL0     C32500   5.562   5.486   1.203  0.1322  0.3391  0.1845
  982MOL0     C32501   5.703   5.487   1.207 -0.0918 -0.6846 -0.1133
  982MOL0     C32502   5.780   5.372   1.260 -0.4725  0.3870 -0.1415
  982MOL0     H32503   6.218   5.750   1.282  2.6894  3.7039  0.6314
  982MOL0     H32504   6.438   5.746   1.143 -0.9844 -0.6145  3.8192
  982MOL0     H32505   6.453   5.904   0.727  1.9128  1.3735 -0.1795
  982MOL0     H32506   6.444   5.997   0.886 -0.7126 -1.1567  2.3699
  982MOL0     H32507   6.660   6.043   0.740  3.1471  1.2209  3.2788
  982MOL0     H32508   6.685   5.862   0.755 -1.6711 -0.6419 -1.1043
  982MOL0     H32509   6.743   5.873   0.964 -1.5015 -0.7272 -0.5723
  982MOL0     H32510   6.668   6.028   0.993 -2.6541 -0.7296 -0.3450
  982MOL0     H32511   6.906   6.007   0.814 -0.7560  1.6225 -1.1727
  982MOL0     H32512   6.813   6.144   0.856  2.4924  0.0817 -0.5871
  982MOL0     H32513   6.869   6.100   1.107 -2.5024 -0.4782 -1.8485
  982MOL0     H32514   6.965   5.964   1.052 -0.0898  0.5841  1.4456
  982MOL0     H32515   7.112   6.121   0.924  2.0475  1.8392  2.1889
  982MOL0     H32516   7.010   6.258   0.971 -0.3123 -1.3875 -1.4419
  982MOL0     H32517   7.217   6.214   1.085  0.0933  0.0554  2.1419
  982MOL0     H32518   7.179   6.064   1.146  2.2473 -0.3124 -2.5029
  982MOL0     H32519   6.970   6.178   1.272  1.8385  0.1354  1.9212
  982MOL0     H32520   7.126   6.250   1.332 -0.4522  0.2206  0.4414
  982MOL0     H32521   7.174   6.506   1.213  0.6471  0.0789 -1.4448
  982MOL0     H32522   6.928   6.750   1.038  0.0659  0.6184 -0.2576
  982MOL0     H32523   7.015   6.754   1.198  2.3266 -0.5635  0.6742
  982MOL0     H32524   7.223   6.672   1.083  1.2354 -0.7011 -1.9443
  982MOL0     H32525   7.140   6.689   0.924  0.3659  3.0645 -0.8739
  982MOL0     H32526   7.282   6.886   0.977  0.4675 -0.4396  2.3070
  982MOL0     H32527   7.171   6.929   1.101  0.9951  0.3478  0.7599
  982MOL0     H32528   6.977   6.923   0.901  0.4914 -2.1453 -1.6258
  982MOL0     H32529   7.107   6.902   0.794 -1.2458  0.2223 -0.3966
  982MOL0     H32530   7.262   6.990   0.681  1.8255  1.4429  0.5759
  982MOL0     H32531   7.334   7.152   0.492 -2.4415  3.4339 -2.1063
  982MOL0     H32532   7.267   7.556   0.226  0.1879  1.6092 -0.9957
  982MOL0     H32533   7.336   7.752   0.098 -2.2038  0.9469  1.5931
  982MOL0     H32534   7.233   7.966   0.104 -1.4012 -0.1678 -1.7119
  982MOL0     H32535   7.292   8.121   0.138 -0.8949 -0.5108  0.0126
  982MOL0     H32536   7.493   8.091  -0.009 -2.4658  2.8780  1.5609
  982MOL0     H32537   7.417   7.936  -0.066  0.9890  0.9222 -1.5611
  982MOL0     H32538   7.208   8.104  -0.117  0.7324 -2.0645  0.7726
  982MOL0     H32539   7.327   8.228  -0.087  0.0974  0.0970  0.7699
  982MOL0     H32540   7.335   8.000  -0.295  0.0936  0.5007  0.2060
  982MOL0     H32541   7.470   8.107  -0.282  0.9129  1.2594 -1.4655
  982MOL0     H32542   7.186   8.196  -0.369 -0.1061  0.2362 -3.6181
  982MOL0     H32543   7.322   8.169  -0.466  0.3276  0.6520  0.3860
  982MOL0     H32544   7.318   8.377  -0.251  0.7485  2.8890  0.1882
  982MOL0     H32545   7.442   8.369  -0.384 -0.5809 -0.8109 -1.0194
  982MOL0     H32546   7.140   8.445  -0.420  0.3779 -0.2440  2.4209
  982MOL0     H32547   7.233   8.381  -0.546 -3.0284  1.8541 -1.4114
  982MOL0     H32548   7.399   8.563  -0.521  0.5106 -1.8510 -0.4674
  982MOL0     H32549   7.244   8.615  -0.573 -1.7791 -2.2589  0.5174
  982MOL0     H32550   7.488   7.931   0.442  0.0563 -0.6831  1.9698
  982MOL0     H32551   7.421   7.727   0.579  2.0887  0.5687 -1.0116
  982MOL0     H32552   7.139   7.472   0.694 -1.1563 -0.0069 -1.9283
  982MOL0     H32553   7.095   7.345   0.885 -0.3784 -0.0510  0.4116
  982MOL0     H32554   6.218   5.813   0.790 -2.3095 -2.0946 -0.8508
  982MOL0     H32555   6.011   5.791   0.913  1.5673  4.5735 -2.2365
  982MOL0     H32556   5.756   5.801   1.099  3.9308 -1.9633 -0.7082
  982MOL0     H32557   5.514   5.798   1.084  2.2946  0.3465 -0.7307
  982MOL0     H32558   5.294   5.495   1.332 -1.8474 -0.9511  0.3278
  982MOL0     H32559   5.284   5.406   1.179 -0.2375  2.0718 -3.9227
  982MOL0     H32560   5.087   5.618   1.263 -0.3593 -1.7569  1.7244
  982MOL0     H32561   5.061   5.447   1.244 -0.8829  0.9213  2.4908
  982MOL0     H32562   5.090   5.637   1.010  0.3825 -1.0834 -3.2085
  982MOL0     H32563   4.963   5.536   1.066  0.1324 -0.6922 -1.1956
  982MOL0     H32564   5.087   5.461   0.862 -0.7369 -1.3593  0.2465
  982MOL0     H32565   5.238   5.450   0.953  0.9485  3.1975 -1.9275
  982MOL0     H32566   4.973   5.124   1.079 -2.8192  0.9165 -0.7397
  982MOL0     H32567   5.502   5.400   1.233 -2.0788  2.8029  3.7850
  982MOL0     H32568   5.839   5.325   1.181 -1.0648 -0.8694  0.1450
  982MOL0     H32569   5.850   5.399   1.340 -0.0936  0.5154 -0.5148
  982MOL0     H32570   5.713   5.297   1.301  0.6769 -1.7655 -1.9956
  983MOL0     O32571   4.303   8.867  10.159 -0.5433 -0.6504 -0.1458
  983MOL0     C32572   4.190   8.906  10.184 -1.2857  0.1660 -0.3429
  983MOL0     O32573   4.116   8.978  10.100 -0.0878  0.1729 -0.0648
  983MOL0     C32574   4.167   9.028   9.986  0.0013 -0.8273 -0.6243
  983MOL0     C32575   4.235   9.148   9.976  1.7553  0.0831  0.8116
  983MOL0     C32576   4.288   9.194   9.850  0.2180  0.4542  0.5169
  983MOL0     C32577   4.284   9.110   9.742  0.5486  0.3761  0.3670
  983MOL0     O32578   4.336   9.134   9.622 -0.0446 -0.6760  0.2619
  983MOL0     C32579   4.405   9.257   9.587  0.1787 -0.0631 -0.1840
  983MOL0     C32580   4.355   9.295   9.452 -0.3087  0.7976  0.7846
  983MOL0     C32581   4.421   9.413   9.379  0.7064  0.8577 -0.2819
  983MOL0     C32582   4.569   9.390   9.367 -0.4515 -0.2401  0.3725
  983MOL0     C32583   4.623   9.463   9.248 -0.6158 -0.1263 -0.3628
  983MOL0     C32584   4.583   9.606   9.253 -0.2574  0.1443  0.3144
  983MOL0     C32585   4.631   9.685   9.129  0.0708 -0.5379  0.2867
  983MOL0     C32586   4.780   9.718   9.122 -0.1785 -0.0861 -0.4180
  983MOL0     N32587   4.831   9.775   8.996 -0.2985 -0.7435 -0.6223
  983MOL0     C32588   4.885   9.715   8.884  0.7005 -0.0920 -1.6728
  983MOL0     C32589   4.914   9.814   8.795  1.1121 -0.5877 -0.1237
  983MOL0     C32590   4.978   9.798   8.664  0.5272 -1.1290 -0.0995
  983MOL0     C32591   4.872   9.826   8.551  0.8006 -0.0869 -0.4878
  983MOL0     C32592   4.942   9.836   8.416 -0.5561 -0.1784 -0.2520
  983MOL0     C32593   4.847   9.881   8.313  0.0671  0.4430  0.5446
  983MOL0     O32594   4.721   9.810   8.310  0.0723 -0.0180  0.3608
  983MOL0     C32595   4.712   9.685   8.262  0.4248  1.4064  0.1348
  983MOL0     C32596   4.792   9.601   8.177 -0.0561 -0.1438 -0.1301
  983MOL0     C32597   4.765   9.466   8.152  0.2949 -0.6786  0.4540
  983MOL0     C32598   4.661   9.400   8.217 -0.1427 -0.1425 -0.1862
  983MOL0     C32599   4.651   9.255   8.204  0.9893 -0.2079  0.8046
  983MOL0     O32600   4.740   9.202   8.117 -0.4541 -0.7670  0.2460
  983MOL0     C32601   4.742   9.067   8.080 -0.4151  0.8212 -0.1806
  983MOL0     C32602   4.697   9.039   7.951 -0.8869 -0.2935 -0.3474
  983MOL0     C32603   4.703   8.905   7.903 -0.7347 -0.4907  0.3337
  983MOL0     C32604   4.765   8.804   7.976 -1.1384  0.0801 -0.3979
  983MOL0     O32605   4.803   8.684   7.933 -0.2208  0.0579  0.1485
  983MOL0     C32606   4.748   8.642   7.803  0.4687  1.0168  0.4251
  983MOL0     C32607   4.768   8.496   7.755 -0.7698  0.1114 -0.8259
  983MOL0     C32608   4.913   8.463   7.730 -0.3335  0.5312  0.2469
  983MOL0     C32609   4.981   8.554   7.623  0.1455  0.8910 -0.1284
  983MOL0     C32610   5.142   8.525   7.636  0.6716 -0.7147  1.0559
  983MOL0     C32611   5.206   8.616   7.536  0.2682  0.4451 -0.4384
  983MOL0     C32612   5.357   8.583   7.543  0.2051 -0.1436  1.5583
  983MOL0     C32613   5.443   8.657   7.432  0.1395 -0.9356  0.5903
  983MOL0    Cl32614   5.420   8.840   7.459  0.4343  0.1709 -0.2701
  983MOL0     C32615   4.803   8.832   8.112  0.2383 -0.2539  0.2061
  983MOL0     C32616   4.784   8.964   8.155  0.1894  0.4584 -0.2979
  983MOL0     O32617   4.546   9.192   8.240 -0.0271 -0.7183 -0.3143
  983MOL0     C32618   4.574   9.473   8.307 -0.0443 -0.3083 -0.3156
  983MOL0     C32619   4.599   9.618   8.317 -0.4748 -0.4203  1.2714
  983MOL0     N32620   4.896   9.936   8.864  0.1672  0.6357  0.5869
  983MOL0     N32621   4.843   9.905   8.973  0.2512 -0.3498  0.1072
  983MOL0     C32622   4.217   8.990   9.753 -0.1234  0.0711  0.0756
  983MOL0     C32623   4.164   8.950   9.875  0.4372 -0.4081  0.6235
  983MOL0     C32624   4.125   8.867  10.315 -0.6378 -0.0817  0.1079
  983MOL0     C32625   4.034   8.957  10.372  0.0926  0.7674 -1.0250
  983MOL0     C32626   3.979   8.925  10.491  0.4316  0.4604  0.1570
  983MOL0     C32627   4.011   8.814  10.566  0.0178 -1.8509  0.2978
  983MOL0     O32628   3.950   8.809  10.689  0.4087  0.0715 -0.8280
  983MOL0     C32629   3.954   8.677  10.749  0.8570  0.0403 -0.6277
  983MOL0     C32630   3.859   8.680  10.866 -0.3461  0.1244 -0.6300
  983MOL0     C32631   3.867   8.545  10.943 -0.1438 -0.5221  0.2873
  983MOL0     C32632   3.750   8.540  11.034  0.4963  0.1474  0.0455
  983MOL0     C32633   3.749   8.656  11.125  0.3945 -0.0366 -0.2819
  983MOL0     C32634   3.749   8.757  11.191 -0.3174  0.7337 -0.8768
  983MOL0     C32635   4.106   8.724  10.509  0.2076 -0.2322 -0.0942
  983MOL0     C32636   4.164   8.749  10.384 -0.0265 -0.1913 -0.3782
  983MOL0     C32637   4.258   8.642  10.323  0.0180  0.0807 -0.4542
  983MOL0     H32638   4.247   9.220  10.056  1.7878 -2.2547  3.0359
  983MOL0     H32639   4.329   9.294   9.858  0.2185  0.2998  3.2676
  983MOL0     H32640   4.388   9.350   9.641  0.2030 -0.7014  0.9511
  983MOL0     H32641   4.513   9.244   9.591  0.2119  0.4430  0.8170
  983MOL0     H32642   4.246   9.296   9.449 -0.3507 -0.2708  1.3871
  983MOL0     H32643   4.382   9.211   9.387  1.1395  1.2213  0.7958
  983MOL0     H32644   4.403   9.505   9.435  0.8846  1.3230 -0.9717
  983MOL0     H32645   4.371   9.435   9.284 -0.5887  0.7960  0.3643
  983MOL0     H32646   4.614   9.439   9.454  1.8699 -0.2532 -0.7452
  983MOL0     H32647   4.600   9.286   9.377 -0.8082 -0.3788  0.0752
  983MOL0     H32648   4.732   9.447   9.254 -0.8722 -1.5633  2.3076
  983MOL0     H32649   4.592   9.409   9.158  0.5714  1.3513 -1.7069
  983MOL0     H32650   4.474   9.611   9.262 -0.3895  1.5645 -1.5336
  983MOL0     H32651   4.621   9.658   9.341 -0.3537  1.0747 -0.1795
  983MOL0     H32652   4.587   9.785   9.140 -0.5015 -0.7376 -0.1409
  983MOL0     H32653   4.591   9.642   9.037 -0.0918 -2.3781  1.1750
  983MOL0     H32654   4.798   9.784   9.207  0.7125 -1.4898  0.5256
  983MOL0     H32655   4.824   9.618   9.132 -1.5000 -0.5084  2.1708
  983MOL0     H32656   4.905   9.610   8.867  1.3528  0.0790 -2.0087
  983MOL0     H32657   5.071   9.855   8.660  3.3845 -5.2662  0.6593
  983MOL0     H32658   5.009   9.695   8.645  2.5207 -0.6281  0.2739
  983MOL0     H32659   4.787   9.758   8.562  0.8839 -0.6864 -2.9900
  983MOL0     H32660   4.818   9.921   8.562  0.3110 -0.5063  0.8852
  983MOL0     H32661   4.975   9.737   8.384 -1.5967 -0.2653 -1.1284
  983MOL0     H32662   5.032   9.898   8.420  0.1616 -1.2560  1.7880
  983MOL0     H32663   4.892   9.876   8.214 -2.9750 -1.4044 -0.9208
  983MOL0     H32664   4.825   9.982   8.350  1.5671  0.4139  1.6134
  983MOL0     H32665   4.884   9.643   8.136 -2.0850  1.6034 -3.3103
  983MOL0     H32666   4.834   9.423   8.080 -1.6705 -2.7238 -0.3308
  983MOL0     H32667   4.666   9.125   7.893 -1.2865  2.0458  3.0616
  983MOL0     H32668   4.671   8.886   7.801  0.4479 -2.6379  0.3190
  983MOL0     H32669   4.640   8.650   7.813  0.5156  0.7286  1.2503
  983MOL0     H32670   4.769   8.718   7.727  2.9138  1.0285  1.0011
  983MOL0     H32671   4.720   8.425   7.823  1.9272 -1.9160 -0.8826
  983MOL0     H32672   4.716   8.471   7.662  0.9881 -3.3278 -1.0358
  983MOL0     H32673   4.965   8.473   7.826 -1.9143 -1.2199  1.3491
  983MOL0     H32674   4.926   8.355   7.714  1.0868  0.5025  1.3922
  983MOL0     H32675   4.955   8.659   7.634  0.8663  1.0747 -0.1511
  983MOL0     H32676   4.940   8.525   7.526  2.3894 -0.2711 -0.8007
  983MOL0     H32677   5.170   8.421   7.622 -1.5272 -1.4094  1.5367
  983MOL0     H32678   5.177   8.559   7.734  0.2891  0.0549  0.9369
  983MOL0     H32679   5.173   8.596   7.433 -0.6718 -2.9640  0.3868
  983MOL0     H32680   5.202   8.722   7.561 -3.0143  0.0656  1.1781
  983MOL0     H32681   5.362   8.476   7.525 -2.0332 -0.4418  2.3419
  983MOL0     H32682   5.395   8.611   7.642 -1.4421  1.0330  1.9050
  983MOL0     H32683   5.550   8.636   7.438 -0.1432 -2.4003  0.7972
  983MOL0     H32684   5.413   8.635   7.329  0.1297 -1.6876  0.7487
  983MOL0     H32685   4.839   8.756   8.181 -3.0087 -0.3362  1.9892
  983MOL0     H32686   4.808   8.989   8.258  0.2400  3.8566 -1.0318
  983MOL0     H32687   4.484   9.432   8.353  0.2110  1.5203  1.9520
  983MOL0     H32688   4.515   9.669   8.363 -1.5566  0.6109 -1.6212
  983MOL0     H32689   4.201   8.944   9.656  0.7279 -2.3674  1.0233
  983MOL0     H32690   4.125   8.849   9.876 -0.2168 -0.1628  0.6086
  983MOL0     H32691   4.001   9.047  10.322  0.9271  0.8884 -1.3772
  983MOL0     H32692   3.908   8.996  10.533 -0.4746 -1.8960  2.9572
  983MOL0     H32693   4.053   8.636  10.769  0.0734 -1.6086  0.1198
  983MOL0     H32694   3.917   8.609  10.671  1.5343 -3.1690  1.6333
  983MOL0     H32695   3.753   8.700  10.845 -1.1517 -1.8457  1.2103
  983MOL0     H32696   3.891   8.767  10.925 -2.0840  0.2953  0.1140
  983MOL0     H32697   3.966   8.524  10.983 -0.3721  0.4073  1.4027
  983MOL0     H32698   3.852   8.474  10.862  3.4189 -1.7658  0.5297
  983MOL0     H32699   3.656   8.536  10.979  0.6912 -4.1089 -0.2793
  983MOL0     H32700   3.758   8.451  11.097  0.3269  0.1841  0.1159
  983MOL0     H32701   3.774   8.849  11.240  2.7402 -0.7126  0.5358
  983MOL0     H32702   4.127   8.638  10.573  1.7262 -0.4258 -0.8194
  983MOL0     H32703   4.214   8.621  10.225  0.8134 -3.0641 -0.2483
  983MOL0     H32704   4.360   8.680  10.310  0.4849 -0.9945 -0.0261
  983MOL0     H32705   4.269   8.549  10.380  0.6642 -0.1495 -0.9518
  984MOL0     O32706   7.689   8.339   3.845 -0.7342  0.5335 -0.9582
  984MOL0     C32707   7.578   8.321   3.896 -0.4879  0.4682 -0.1799
  984MOL0     O32708   7.549   8.372   4.026 -0.2044  0.0766 -0.4428
  984MOL0     C32709   7.653   8.449   4.086  0.0528  0.2687  0.2796
  984MOL0     C32710   7.697   8.583   4.049 -0.3365  0.2952  0.0417
  984MOL0     C32711   7.788   8.652   4.126 -0.0230  0.3398  0.2943
  984MOL0     C32712   7.833   8.594   4.246 -0.1156 -0.5025 -1.9871
  984MOL0     O32713   7.938   8.663   4.306 -0.0656  0.0981  0.2354
  984MOL0     C32714   8.023   8.592   4.400 -0.0173  0.1008 -0.2840
  984MOL0     C32715   8.133   8.512   4.326  0.0867  0.8477  0.5251
  984MOL0     C32716   8.237   8.601   4.254 -0.0622  0.4276  0.0334
  984MOL0     C32717   8.206   8.623   4.107 -0.4064 -0.2955  0.0309
  984MOL0     C32718   8.337   8.660   4.035 -0.2700  0.2089  0.1219
  984MOL0     C32719   8.364   8.806   4.059 -0.6090 -0.2807  0.5453
  984MOL0     C32720   8.495   8.849   3.983  0.5796 -1.2696  0.2980
  984MOL0     C32721   8.512   9.002   3.973  0.6038  0.3585 -0.4858
  984MOL0     N32722   8.479   9.075   4.098 -0.1484 -0.2552 -1.6334
  984MOL0     C32723   8.364   9.135   4.140 -0.3887 -0.2367 -1.3008
  984MOL0     C32724   8.399   9.184   4.263  0.1104 -0.0118 -0.3046
  984MOL0     C32725   8.316   9.262   4.363 -0.0694  0.6859 -0.1543
  984MOL0     C32726   8.329   9.415   4.365 -0.0017  0.0807  0.2053
  984MOL0     C32727   8.225   9.479   4.459  0.2113 -0.9194  0.4533
  984MOL0     C32728   8.263   9.629   4.483 -0.5681 -0.3256 -0.0213
  984MOL0     O32729   8.166   9.706   4.569  0.3840 -0.2356  0.2873
  984MOL0     C32730   8.150   9.678   4.701 -0.4237 -0.1903  0.5299
  984MOL0     C32731   8.025   9.683   4.746  0.7004  0.5077 -0.9624
  984MOL0     C32732   7.997   9.645   4.883 -0.4012 -0.6025  0.7682
  984MOL0     C32733   8.100   9.608   4.969  0.5477 -1.5201  0.0189
  984MOL0     C32734   8.075   9.577   5.111  0.8183 -0.0922 -0.4371
  984MOL0     O32735   7.942   9.594   5.138  0.2694  0.1976  0.3809
  984MOL0     C32736   7.882   9.562   5.262  0.4638  0.0142  0.4000
  984MOL0     C32737   7.741   9.527   5.262  0.0369 -0.9451  1.0113
  984MOL0     C32738   7.682   9.495   5.379 -0.0775 -0.9079 -0.5665
  984MOL0     C32739   7.734   9.488   5.501 -0.2285  0.2197  0.2691
  984MOL0     O32740   7.658   9.453   5.610 -0.4567 -0.1255  1.1286
  984MOL0     C32741   7.648   9.553   5.717  0.3326 -1.1006 -0.3347
  984MOL0     C32742   7.555   9.662   5.681  0.2106  0.1405 -0.1303
  984MOL0     C32743   7.575   9.777   5.784  0.3132 -0.9230 -0.0110
  984MOL0     C32744   7.678   9.879   5.728  0.5009  0.5628 -0.0295
  984MOL0     C32745   7.716   9.979   5.839  0.6420  0.2911 -0.1330
  984MOL0     C32746   7.843  10.071   5.818  0.5324  0.0438  0.5837
  984MOL0     C32747   7.854  10.147   5.941  0.2668  0.7810 -0.9319
  984MOL0     C32748   7.975  10.237   5.948  0.3922 -0.4690 -0.0780
  984MOL0    Cl32749   8.128  10.145   5.925 -0.1813  0.0214  0.1659
  984MOL0     C32750   7.870   9.504   5.503 -0.5112  0.0793  0.2416
  984MOL0     C32751   7.947   9.536   5.392  0.2213 -0.2821  0.8423
  984MOL0     O32752   8.162   9.545   5.195  0.2566  0.4081 -0.0872
  984MOL0     C32753   8.232   9.621   4.922  0.3303  0.3492  0.2492
  984MOL0     C32754   8.258   9.661   4.794  0.2951  0.2770 -0.1844
  984MOL0     N32755   8.525   9.150   4.295  0.4515 -0.3879  0.4037
  984MOL0     N32756   8.570   9.084   4.195  0.0432  0.6688  0.3975
  984MOL0     C32757   7.794   8.462   4.270 -0.3635  0.0120 -0.2389
  984MOL0     C32758   7.701   8.390   4.203 -0.7086  0.3707 -0.1346
  984MOL0     C32759   7.469   8.260   3.831  0.8682  0.1292  0.6082
  984MOL0     C32760   7.350   8.237   3.905 -0.6810  0.5088 -0.4806
  984MOL0     C32761   7.225   8.183   3.853 -0.7449 -0.3549 -0.9966
  984MOL0     C32762   7.237   8.151   3.718  0.2096  0.1129 -0.1531
  984MOL0     O32763   7.128   8.104   3.641 -0.2499 -0.1044  0.7482
  984MOL0     C32764   7.022   8.202   3.632  0.5483 -0.5027 -1.1782
  984MOL0     C32765   7.049   8.304   3.518  0.5608  0.7980  0.2391
  984MOL0     C32766   7.054   8.231   3.377 -0.6270  0.5078 -1.1858
  984MOL0     C32767   7.087   8.318   3.261 -0.8873  0.4696  0.5636
  984MOL0     C32768   7.223   8.372   3.277  1.0883  0.2184  0.6376
  984MOL0     C32769   7.332   8.417   3.300 -0.4826  0.0310 -0.2737
  984MOL0     C32770   7.358   8.164   3.646 -0.5638 -0.6086 -0.3446
  984MOL0     C32771   7.470   8.221   3.693  0.4990  0.2941 -0.1392
  984MOL0     C32772   7.589   8.229   3.603 -0.0645 -0.0827 -0.5116
  984MOL0     H32773   7.645   8.621   3.962  0.8192  0.0899 -0.7608
  984MOL0     H32774   7.818   8.746   4.082  0.6567 -0.7143 -1.5928
  984MOL0     H32775   8.068   8.672   4.459 -1.2664  0.8172 -0.2688
  984MOL0     H32776   7.966   8.527   4.468 -0.0779 -1.7709 -2.0405
  984MOL0     H32777   8.080   8.452   4.251  0.4820 -0.9103  1.5956
  984MOL0     H32778   8.173   8.438   4.396 -1.5256 -2.4118 -1.7400
  984MOL0     H32779   8.329   8.547   4.276 -1.2569 -1.0033  1.8435
  984MOL0     H32780   8.249   8.700   4.299  0.1394 -0.2805  1.6113
  984MOL0     H32781   8.167   8.534   4.056 -2.3839  0.6442 -0.1903
  984MOL0     H32782   8.129   8.699   4.090  0.4683  0.1765 -2.2620
  984MOL0     H32783   8.417   8.592   4.064 -0.7166 -0.0951  0.6509
  984MOL0     H32784   8.326   8.645   3.927 -2.9847  1.2802  0.1835
  984MOL0     H32785   8.278   8.870   4.037  0.0992  1.1270  1.6714
  984MOL0     H32786   8.391   8.816   4.165 -0.2791 -2.5384  0.7235
  984MOL0     H32787   8.495   8.817   3.878  0.7201  1.3178 -0.5649
  984MOL0     H32788   8.585   8.808   4.029  0.7873 -0.1074  0.9804
  984MOL0     H32789   8.618   9.018   3.950  0.3529  0.6846 -1.4694
  984MOL0     H32790   8.442   9.045   3.901 -0.3191  0.4415  0.4440
  984MOL0     H32791   8.266   9.130   4.095 -1.0015 -3.0769  0.1449
  984MOL0     H32792   8.212   9.232   4.344  1.0561 -1.5420 -3.7263
  984MOL0     H32793   8.351   9.226   4.460  0.9320  1.9212 -0.0370
  984MOL0     H32794   8.431   9.431   4.401 -0.1259 -2.4652  1.9297
  984MOL0     H32795   8.315   9.468   4.271 -2.7439 -0.4982  0.2222
  984MOL0     H32796   8.216   9.433   4.558 -1.4553  0.0609  0.7769
  984MOL0     H32797   8.126   9.478   4.412  0.2726  0.6805  0.2527
  984MOL0     H32798   8.260   9.687   4.390  0.7127  1.3997  0.9434
  984MOL0     H32799   8.362   9.635   4.530  2.0590  3.3096 -5.1187
  984MOL0     H32800   7.937   9.712   4.690 -0.0428  1.1515  0.4950
  984MOL0     H32801   7.893   9.631   4.911 -0.6147  0.1359  0.3719
  984MOL0     H32802   7.674   9.527   5.177 -0.3623 -2.1737  1.3031
  984MOL0     H32803   7.574   9.499   5.377 -0.0316  0.7555 -1.4875
  984MOL0     H32804   7.595   9.505   5.800 -1.3532  0.5109 -0.4094
  984MOL0     H32805   7.745   9.595   5.745 -0.0535  3.4056 -4.4124
  984MOL0     H32806   7.573   9.687   5.576 -1.4899  1.3017 -0.1804
  984MOL0     H32807   7.453   9.623   5.688 -0.1816  0.5837 -2.5742
  984MOL0     H32808   7.487   9.841   5.786  2.0159  1.5666 -0.4207
  984MOL0     H32809   7.595   9.736   5.883 -1.5014 -5.2969 -1.2160
  984MOL0     H32810   7.628   9.939   5.651 -2.7630 -1.6649  0.1548
  984MOL0     H32811   7.760   9.824   5.681 -0.6819 -2.0782  0.8006
  984MOL0     H32812   7.725   9.926   5.935  0.8651  0.2424 -0.1809
  984MOL0     H32813   7.628  10.039   5.863  2.5742  1.9371  3.8356
  984MOL0     H32814   7.929  10.006   5.803  0.2077 -0.2182 -0.1983
  984MOL0     H32815   7.829  10.136   5.731  0.6050 -0.0019  0.5376
  984MOL0     H32816   7.868  10.074   6.021  1.2101  0.3944 -1.4362
  984MOL0     H32817   7.772  10.219   5.952  0.2616  0.4240  2.8478
  984MOL0     H32818   7.957  10.306   5.866  4.1583 -1.2426 -1.7369
  984MOL0     H32819   7.978  10.295   6.041  1.9649  1.3598 -1.2159
  984MOL0     H32820   7.918   9.501   5.600 -1.0287 -1.7521  0.4853
  984MOL0     H32821   8.050   9.570   5.404  0.0368  0.0992  1.4042
  984MOL0     H32822   8.313   9.596   4.990  1.1103  3.2849  0.5541
  984MOL0     H32823   8.360   9.668   4.758  1.0628 -2.8388  1.0966
  984MOL0     H32824   7.838   8.433   4.365 -1.6258 -0.2811  0.2742
  984MOL0     H32825   7.658   8.298   4.243 -1.7811  1.4601  1.3440
  984MOL0     H32826   7.352   8.261   4.011 -1.7234 -0.0664 -0.3161
  984MOL0     H32827   7.137   8.177   3.917 -0.5288 -1.6553 -0.7976
  984MOL0     H32828   7.002   8.250   3.729 -2.9709 -2.2247 -0.8969
  984MOL0     H32829   6.928   8.147   3.622  0.0181  0.2731 -0.5951
  984MOL0     H32830   7.137   8.359   3.553 -0.6751  0.6540  4.0254
  984MOL0     H32831   6.969   8.379   3.513 -0.0662  0.1432  0.1568
  984MOL0     H32832   6.951   8.195   3.370 -0.2446 -0.9438  0.1086
  984MOL0     H32833   7.118   8.142   3.385  0.2654  1.3160  2.7480
  984MOL0     H32834   7.096   8.264   3.166  1.6103  1.3508  0.2127
  984MOL0     H32835   7.011   8.396   3.251  1.1679  2.5700  0.2629
  984MOL0     H32836   7.423   8.471   3.319 -0.1102 -0.3194 -1.0568
  984MOL0     H32837   7.338   8.134   3.543  1.2520  1.3759 -1.3383
  984MOL0     H32838   7.573   8.204   3.497  1.6409  1.3498 -1.1366
  984MOL0     H32839   7.618   8.334   3.603 -0.7569  0.1153 -0.2926
  984MOL0     H32840   7.665   8.160   3.642 -1.3820 -1.9550 -1.0751
  985MOL0     O32841   2.023   0.891   4.245 -0.0934 -0.3819 -0.5906
  985MOL0     C32842   2.092   0.818   4.168  0.0794 -0.7023 -0.2745
  985MOL0     O32843   2.197   0.864   4.096  0.9065 -0.1637  0.1345
  985MOL0     C32844   2.206   0.989   4.046  0.5894 -0.5218 -0.1241
  985MOL0     C32845   2.123   1.102   4.079  0.6300  0.7423  0.5486
  985MOL0     C32846   2.131   1.223   4.012  0.0182 -0.0371  0.0250
  985MOL0     C32847   2.224   1.237   3.906 -0.0340 -0.8490  1.6520
  985MOL0     O32848   2.246   1.362   3.838  0.7974  0.9696 -0.9751
  985MOL0     C32849   2.254   1.474   3.928 -1.2382  0.3461 -0.9018
  985MOL0     C32850   2.349   1.585   3.871 -0.5900 -0.1653  1.1186
  985MOL0     C32851   2.500   1.550   3.853  0.2469  0.0699  0.3055
  985MOL0     C32852   2.528   1.425   3.765  0.2195  0.0974 -0.1551
  985MOL0     C32853   2.679   1.398   3.758  0.6410 -0.0988  0.1015
  985MOL0     C32854   2.711   1.250   3.755  0.5609 -0.3547 -0.1202
  985MOL0     C32855   2.854   1.214   3.730  0.1174  0.1247  0.1501
  985MOL0     C32856   2.937   1.227   3.863 -1.1241 -0.5750 -0.0419
  985MOL0     N32857   3.071   1.161   3.849 -0.3194  0.2623  0.1959
  985MOL0     C32858   3.108   1.027   3.830 -0.9917 -0.6657 -0.1822
  985MOL0     C32859   3.244   1.024   3.847  0.0920  0.8555  0.0012
  985MOL0     C32860   3.320   0.892   3.842 -0.0772 -0.2780 -0.1611
  985MOL0     C32861   3.313   0.836   3.989 -0.5018  0.7824  0.6516
  985MOL0     C32862   3.357   0.687   3.995  0.0965  0.6233  0.1043
  985MOL0     C32863   3.491   0.658   3.928  0.0632  0.3789  0.3290
  985MOL0     O32864   3.540   0.524   3.971  0.5378 -0.3426 -0.5657
  985MOL0     C32865   3.592   0.516   4.096 -0.4018  0.4305 -0.2744
  985MOL0     C32866   3.598   0.388   4.158 -0.2399  0.7006 -0.4341
  985MOL0     C32867   3.668   0.366   4.278 -0.2409  0.2038 -0.2423
  985MOL0     C32868   3.730   0.467   4.351 -0.2209 -0.4533 -0.0883
  985MOL0     C32869   3.776   0.436   4.486  0.6809  0.2593 -0.3260
  985MOL0     O32870   3.796   0.543   4.567  0.4335  0.0457 -0.6844
  985MOL0     C32871   3.866   0.529   4.683 -1.7301  0.0513 -0.3244
  985MOL0     C32872   3.837   0.427   4.781  0.2064  0.8235 -0.1083
  985MOL0     C32873   3.919   0.409   4.888 -0.8044  0.2418 -0.5728
  985MOL0     C32874   4.029   0.495   4.907 -0.6195  0.1027  0.1283
  985MOL0     O32875   4.097   0.510   5.023 -0.2640  0.6410  0.0315
  985MOL0     C32876   4.164   0.398   5.086 -0.3481  0.7867  0.4491
  985MOL0     C32877   4.297   0.439   5.145 -0.0527 -0.9487 -1.1646
  985MOL0     C32878   4.401   0.496   5.049  0.0718 -0.3674  0.4698
  985MOL0     C32879   4.512   0.568   5.127  0.8515  1.0090  0.0400
  985MOL0     C32880   4.637   0.614   5.060  0.0061 -0.1079 -0.0150
  985MOL0     C32881   4.728   0.509   4.999 -0.9148  0.2359  0.2968
  985MOL0     C32882   4.830   0.569   4.909  0.3439  0.2973 -0.7609
  985MOL0     C32883   4.931   0.476   4.851 -0.5000 -0.1067 -0.0692
  985MOL0    Cl32884   5.003   0.368   4.975 -0.1475  0.3910  0.1148
  985MOL0     C32885   4.036   0.611   4.829 -0.3030  0.0392  0.4879
  985MOL0     C32886   3.955   0.630   4.723 -1.0618  0.3832  0.5619
  985MOL0     O32887   3.803   0.318   4.518 -0.7921 -0.0079  0.6326
  985MOL0     C32888   3.722   0.591   4.295 -0.5835  0.6575  0.0901
  985MOL0     C32889   3.654   0.618   4.168 -0.3598  0.7740 -0.3333
  985MOL0     N32890   3.282   1.155   3.885 -0.3312  0.1115  0.6643
  985MOL0     N32891   3.180   1.232   3.881  0.1061 -0.0879  1.0168
  985MOL0     C32892   2.303   1.131   3.875  0.0817 -0.4044 -0.9083
  985MOL0     C32893   2.285   1.010   3.935 -0.4900 -0.2179 -0.5512
  985MOL0     C32894   2.073   0.671   4.158  0.4104 -1.0311 -0.2872
  985MOL0     C32895   2.153   0.600   4.067 -1.5894 -0.2657  0.1852
  985MOL0     C32896   2.160   0.458   4.051  0.0457 -0.2478  0.5055
  985MOL0     C32897   2.073   0.383   4.126 -1.0694 -0.4896  0.4193
  985MOL0     O32898   2.071   0.246   4.126 -0.3688  0.2759 -0.3272
  985MOL0     C32899   2.161   0.170   4.035  0.4334 -0.6304 -0.8236
  985MOL0     C32900   2.104   0.027   4.030  1.0714 -0.5346  0.3781
  985MOL0     C32901   2.071  -0.027   4.168 -0.0315 -0.5974 -0.5518
  985MOL0     C32902   1.925  -0.045   4.198 -0.7678  0.4829 -0.1650
  985MOL0     C32903   1.864  -0.140   4.107  0.6376 -0.2883  0.0514
  985MOL0     C32904   1.812  -0.218   4.030  0.6029  0.1706 -0.4355
  985MOL0     C32905   1.991   0.446   4.216 -0.2292 -0.5874 -0.5160
  985MOL0     C32906   1.983   0.587   4.236  0.3964  0.1011  0.9729
  985MOL0     C32907   1.876   0.642   4.328 -0.8976 -0.4389  0.5916
  985MOL0     H32908   2.055   1.105   4.164 -0.5643  1.9692 -0.4214
  985MOL0     H32909   2.060   1.303   4.028 -0.1126 -0.0247 -0.6269
  985MOL0     H32910   2.154   1.507   3.956 -1.1619 -2.7412  4.2623
  985MOL0     H32911   2.305   1.441   4.019  0.7040  0.2523 -1.9669
  985MOL0     H32912   2.332   1.673   3.933 -0.0133  2.1986 -1.8629
  985MOL0     H32913   2.302   1.602   3.774  0.9637 -0.8284  0.2116
  985MOL0     H32914   2.539   1.532   3.953 -1.2706 -0.0791  0.8866
  985MOL0     H32915   2.537   1.648   3.820 -0.0883  0.6355  1.5513
  985MOL0     H32916   2.488   1.329   3.801  2.0147 -0.5428  0.2187
  985MOL0     H32917   2.491   1.435   3.663  1.0071 -1.5739 -0.6464
  985MOL0     H32918   2.717   1.444   3.667 -1.1407 -1.5345 -1.4717
  985MOL0     H32919   2.724   1.443   3.846  1.5393 -1.0512  0.1490
  985MOL0     H32920   2.680   1.198   3.846  4.4848 -3.0083 -0.0491
  985MOL0     H32921   2.659   1.215   3.666 -0.5757 -0.5216  0.5895
  985MOL0     H32922   2.908   1.276   3.658 -0.0001 -1.8215 -1.7089
  985MOL0     H32923   2.866   1.116   3.684  2.0335  1.8367 -3.3889
  985MOL0     H32924   2.958   1.333   3.877  0.1995 -0.6878 -1.0231
  985MOL0     H32925   2.889   1.179   3.949  0.0406  1.1586  1.6398
  985MOL0     H32926   3.041   0.947   3.800 -1.4490 -1.3218  2.3155
  985MOL0     H32927   3.267   0.821   3.779  1.3222 -1.6796  0.1595
  985MOL0     H32928   3.415   0.909   3.791 -0.2181 -0.7205 -0.5749
  985MOL0     H32929   3.398   0.879   4.043  2.2205 -1.6260 -1.4050
  985MOL0     H32930   3.212   0.850   4.029 -1.3295 -1.0433 -0.6972
  985MOL0     H32931   3.279   0.622   3.957  0.4511  1.7911 -2.9374
  985MOL0     H32932   3.371   0.663   4.101  0.8503  0.3865 -0.0448
  985MOL0     H32933   3.565   0.734   3.952 -1.2635  1.4742  1.1482
  985MOL0     H32934   3.477   0.643   3.820  0.0570 -2.3914  0.6362
  985MOL0     H32935   3.556   0.302   4.107 -0.1259  1.8206 -2.5465
  985MOL0     H32936   3.660   0.265   4.317  0.0022  0.5634  0.7684
  985MOL0     H32937   3.753   0.359   4.772  1.0175 -0.1301 -0.6860
  985MOL0     H32938   3.895   0.326   4.953 -0.1434  1.7062  1.6699
  985MOL0     H32939   4.098   0.357   5.164 -1.8018 -0.4790 -1.3656
  985MOL0     H32940   4.182   0.320   5.012 -0.2830 -0.3286  1.5995
  985MOL0     H32941   4.276   0.516   5.220  2.4272 -0.3120 -1.0338
  985MOL0     H32942   4.341   0.357   5.202  0.2080  0.8025  1.3357
  985MOL0     H32943   4.452   0.415   4.995 -0.6069 -0.1009 -0.5837
  985MOL0     H32944   4.358   0.557   4.969  0.1001  0.3718  1.0096
  985MOL0     H32945   4.537   0.504   5.212 -1.2217 -1.7184 -1.2361
  985MOL0     H32946   4.459   0.658   5.161 -2.1995 -0.4060 -0.5930
  985MOL0     H32947   4.692   0.688   5.119  0.3845 -0.8471  0.5647
  985MOL0     H32948   4.589   0.675   4.982  0.6633 -0.3251 -0.6036
  985MOL0     H32949   4.778   0.476   5.090  1.3943 -4.0012 -2.2082
  985MOL0     H32950   4.682   0.427   4.943 -2.3237  0.5056  1.0133
  985MOL0     H32951   4.885   0.651   4.957  1.4127  0.0494 -1.5333
  985MOL0     H32952   4.782   0.614   4.822 -0.7441  1.0109  0.1776
  985MOL0     H32953   4.886   0.410   4.777 -0.0940  0.3476 -0.7346
  985MOL0     H32954   5.015   0.532   4.809 -1.3464  0.0027 -1.6933
  985MOL0     H32955   4.111   0.684   4.856  0.4830 -0.4656 -0.3053
  985MOL0     H32956   3.962   0.714   4.656 -1.6485 -0.4597 -0.5988
  985MOL0     H32957   3.772   0.674   4.344  2.2151 -0.2472 -1.0375
  985MOL0     H32958   3.665   0.721   4.135  2.1002 -0.0632 -2.5148
  985MOL0     H32959   2.380   1.150   3.801 -0.7047  1.4431 -1.3088
  985MOL0     H32960   2.347   0.930   3.896 -0.7343  0.6196 -2.7820
  985MOL0     H32961   2.202   0.656   3.987 -1.3316 -0.9749 -0.1650
  985MOL0     H32962   2.206   0.423   3.959 -1.7686  2.1981 -1.4609
  985MOL0     H32963   2.263   0.167   4.074 -0.4209 -3.4294  1.6381
  985MOL0     H32964   2.157   0.211   3.934 -0.1804 -2.3213 -1.5299
  985MOL0     H32965   2.178  -0.040   3.983 -0.5771 -1.3063 -1.2573
  985MOL0     H32966   2.014   0.034   3.968  0.7276  0.3511  0.9624
  985MOL0     H32967   2.106   0.033   4.252  0.1379 -1.2289 -0.1625
  985MOL0     H32968   2.130  -0.119   4.178  1.7647  0.5841  0.1864
  985MOL0     H32969   1.913  -0.088   4.298  3.4312 -0.6094  0.0655
  985MOL0     H32970   1.874   0.051   4.192 -0.4675  0.5687 -1.5954
  985MOL0     H32971   1.779  -0.286   3.954  3.6508 -3.6758  1.2997
  985MOL0     H32972   1.931   0.374   4.270  2.1080 -1.5261  1.0151
  985MOL0     H32973   1.794   0.681   4.266 -0.0229  1.5425  0.6166
  985MOL0     H32974   1.838   0.578   4.408 -0.4916 -3.4123 -1.4419
  985MOL0     H32975   1.919   0.732   4.373 -0.6563 -0.2165 -0.0688
  986MOL0     O32976   1.716   1.794   7.108  0.5198 -0.0267 -0.5267
  986MOL0     C32977   1.778   1.698   7.150  0.0638 -0.0013 -0.7597
  986MOL0     O32978   1.740   1.569   7.128  0.2125 -0.1392 -0.7370
  986MOL0     C32979   1.631   1.564   7.051 -0.6833 -0.0448 -0.9840
  986MOL0     C32980   1.632   1.587   6.911 -0.2813  0.8286 -0.1844
  986MOL0     C32981   1.515   1.567   6.832  1.0441 -0.0751  0.1445
  986MOL0     C32982   1.397   1.527   6.893  0.5782  0.1184 -0.5999
  986MOL0     O32983   1.287   1.504   6.817 -0.2240  0.3497  0.6954
  986MOL0     C32984   1.176   1.584   6.836  0.2767  0.0736  0.0133
  986MOL0     C32985   1.044   1.530   6.775  0.8948  0.0219  0.1093
  986MOL0     C32986   1.017   1.382   6.787  0.4888 -0.2289 -0.5277
  986MOL0     C32987   0.995   1.346   6.933 -0.2232  0.2266 -0.3996
  986MOL0     C32988   0.959   1.203   6.957 -0.4963  0.0245 -0.5712
  986MOL0     C32989   1.067   1.102   6.915  0.0080  0.0054 -0.1247
  986MOL0     C32990   1.206   1.146   6.966  0.4368  0.7930  0.4589
  986MOL0     C32991   1.219   1.143   7.118 -0.4406  0.4183 -0.1973
  986MOL0     N32992   1.259   1.008   7.163  0.2921  0.1676 -0.4792
  986MOL0     C32993   1.371   0.987   7.254  0.0722 -1.2139  0.6643
  986MOL0     C32994   1.364   0.851   7.270  0.7460  1.3663 -0.0279
  986MOL0     C32995   1.451   0.780   7.371 -0.1840  0.9475  0.6118
  986MOL0     C32996   1.594   0.817   7.355  0.0813 -0.4743  0.3323
  986MOL0     C32997   1.656   0.786   7.215  0.0368  0.4033 -0.3300
  986MOL0     C32998   1.806   0.764   7.207  0.5840  0.6906  0.1851
  986MOL0     O32999   1.851   0.629   7.249  0.5695 -0.0130 -0.3141
  986MOL0     C33000   1.966   0.600   7.315 -0.0007 -0.3052 -0.0113
  986MOL0     C33001   1.998   0.473   7.368  0.1664  0.2634 -0.1743
  986MOL0     C33002   2.128   0.441   7.420  0.1825 -0.8254  0.2766
  986MOL0     C33003   2.230   0.540   7.413 -1.2673  0.5136  0.2549
  986MOL0     C33004   2.375   0.519   7.449 -0.4461 -0.1506  0.2782
  986MOL0     O33005   2.395   0.410   7.540  0.4196  0.0145 -0.0329
  986MOL0     C33006   2.528   0.376   7.558  0.6078 -0.7548  0.9865
  986MOL0     C33007   2.599   0.302   7.462  0.5008 -0.8786 -0.7663
  986MOL0     C33008   2.739   0.277   7.476 -0.3739 -0.5320 -0.1299
  986MOL0     C33009   2.800   0.304   7.593  0.3690  1.0397 -0.3981
  986MOL0     O33010   2.934   0.264   7.611  0.6195  0.0228 -0.2210
  986MOL0     C33011   3.016   0.363   7.674  0.1999 -0.1123 -0.0266
  986MOL0     C33012   3.141   0.297   7.735  0.4432 -0.1745  0.6699
  986MOL0     C33013   3.226   0.243   7.621  0.3701  0.0129  0.0827
  986MOL0     C33014   3.346   0.148   7.665 -0.0032 -0.4038  1.0060
  986MOL0     C33015   3.433   0.081   7.557  1.4398  0.3561 -1.0783
  986MOL0     C33016   3.466   0.186   7.452 -0.3676  0.1692  0.0177
  986MOL0     C33017   3.385   0.199   7.317  0.4067  0.4038 -1.3154
  986MOL0     C33018   3.442   0.136   7.190 -1.0334  0.4267 -0.6266
  986MOL0    Cl33019   3.352   0.199   7.054 -0.2488  0.0997 -0.0038
  986MOL0     C33020   2.721   0.377   7.687  0.2670  0.0918  0.0714
  986MOL0     C33021   2.589   0.412   7.668  0.0380  0.4118 -0.2069
  986MOL0     O33022   2.461   0.599   7.415  0.4917 -0.1379  0.7600
  986MOL0     C33023   2.197   0.660   7.347 -0.1851 -0.0223 -0.4450
  986MOL0     C33024   2.067   0.696   7.315 -0.0768 -0.4579  0.7358
  986MOL0     N33025   1.256   0.803   7.192 -0.4274  1.2130 -1.0638
  986MOL0     N33026   1.201   0.894   7.130 -0.3742  0.1582  0.0560
  986MOL0     C33027   1.401   1.498   7.025  0.3811  0.8129 -0.6907
  986MOL0     C33028   1.518   1.513   7.104 -0.1737 -0.0752 -0.1775
  986MOL0     C33029   1.917   1.738   7.206 -0.2504  0.2180  0.0687
  986MOL0     C33030   1.975   1.860   7.172 -0.2899  0.0553  1.3693
  986MOL0     C33031   2.099   1.885   7.204 -0.2305 -0.9604  0.1903
  986MOL0     C33032   2.186   1.800   7.274 -0.0406 -0.3481  0.0511
  986MOL0     O33033   2.320   1.825   7.305 -0.0669 -0.4034  0.9021
  986MOL0     C33034   2.341   1.952   7.363 -0.4675  0.5780  0.6811
  986MOL0     C33035   2.452   1.943   7.462  0.1139 -0.7151  0.2484
  986MOL0     C33036   2.591   1.904   7.402  0.3911 -0.2125 -0.3456
  986MOL0     C33037   2.693   1.843   7.502 -0.8259  0.3875  0.5172
  986MOL0     C33038   2.747   1.942   7.595 -0.8471 -0.4504  0.2440
  986MOL0     C33039   2.785   2.029   7.665 -1.1431 -0.0399 -0.5710
  986MOL0     C33040   2.128   1.679   7.312 -0.7953 -0.5253  0.1314
  986MOL0     C33041   1.994   1.648   7.283 -0.2666 -0.7861  0.5161
  986MOL0     C33042   1.916   1.534   7.350 -0.1539 -0.3164  0.2899
  986MOL0     H33043   1.726   1.615   6.864  0.1567 -0.7874 -0.3553
  986MOL0     H33044   1.533   1.605   6.731  3.2608 -1.3545 -0.0121
  986MOL0     H33045   1.157   1.589   6.944  1.4491 -0.9266  0.2872
  986MOL0     H33046   1.196   1.684   6.798  0.0652  0.6372  1.3015
  986MOL0     H33047   1.037   1.557   6.669  1.7676  0.0424  0.0536
  986MOL0     H33048   0.961   1.582   6.824 -1.0642 -2.3801 -0.4911
  986MOL0     H33049   1.098   1.324   6.740  2.2049  1.6690 -0.0512
  986MOL0     H33050   0.929   1.355   6.728  1.1312 -1.8899 -0.7839
  986MOL0     H33051   1.084   1.370   6.992 -0.7265 -0.7841  0.8183
  986MOL0     H33052   0.910   1.404   6.969 -0.9569 -0.5314 -0.8706
  986MOL0     H33053   0.928   1.180   7.059  5.1187 -2.0080  1.0631
  986MOL0     H33054   0.870   1.177   6.898  0.7159 -0.7705 -2.1421
  986MOL0     H33055   1.042   1.004   6.957 -0.3320  1.1419  2.5552
  986MOL0     H33056   1.061   1.104   6.806 -0.3576  2.9628 -0.1224
  986MOL0     H33057   1.225   1.240   6.915  0.6653  0.4886 -0.0246
  986MOL0     H33058   1.282   1.077   6.928 -0.0568 -1.3924  3.0907
  986MOL0     H33059   1.301   1.210   7.147 -0.0958  0.3128 -0.9050
  986MOL0     H33060   1.129   1.174   7.171 -0.7017 -2.3164  1.1091
  986MOL0     H33061   1.438   1.062   7.294  1.3821 -1.1130 -1.5504
  986MOL0     H33062   1.420   0.794   7.475  1.7959 -1.1328  1.5898
  986MOL0     H33063   1.444   0.671   7.357 -1.1893  0.6066  3.1908
  986MOL0     H33064   1.605   0.924   7.371  2.8514 -0.6627  0.0764
  986MOL0     H33065   1.653   0.763   7.429  1.3500 -1.8044 -1.5261
  986MOL0     H33066   1.642   0.868   7.143 -1.1798 -1.5699 -2.4882
  986MOL0     H33067   1.610   0.696   7.173  1.4040 -0.4142 -0.1146
  986MOL0     H33068   1.853   0.841   7.268  0.8792  0.6612  0.0008
  986MOL0     H33069   1.832   0.787   7.103  0.8580  2.2385  0.5748
  986MOL0     H33070   1.941   0.381   7.356  0.8445 -0.8652  3.7257
  986MOL0     H33071   2.136   0.341   7.459 -2.5032 -0.5357  1.8421
  986MOL0     H33072   2.538   0.293   7.372 -0.7936  5.1578 -0.8761
  986MOL0     H33073   2.791   0.229   7.394  1.4639  3.1358 -1.3270
  986MOL0     H33074   3.028   0.447   7.605 -2.4017  0.5432  0.2053
  986MOL0     H33075   2.959   0.406   7.757  0.6158  1.3606 -0.4882
  986MOL0     H33076   3.193   0.372   7.795 -0.5465 -1.4149  3.2514
  986MOL0     H33077   3.117   0.219   7.808  1.4072  1.8141  3.2612
  986MOL0     H33078   3.161   0.184   7.555  2.1913 -1.8810 -0.1278
  986MOL0     H33079   3.263   0.332   7.569 -1.0862  1.2051  1.0212
  986MOL0     H33080   3.308   0.065   7.725  1.2940 -2.0078 -0.2818
  986MOL0     H33081   3.419   0.192   7.734 -0.1516 -3.5316  3.3637
  986MOL0     H33082   3.381  -0.005   7.514  1.2311  2.1868 -4.8864
  986MOL0     H33083   3.527   0.052   7.605  0.2109  0.9318  1.8855
  986MOL0     H33084   3.456   0.289   7.488  2.0282  1.4087 -2.5434
  986MOL0     H33085   3.573   0.177   7.434  0.7045 -1.7777  5.4351
  986MOL0     H33086   3.369   0.305   7.296 -3.1588  0.3701  0.4468
  986MOL0     H33087   3.279   0.180   7.335 -0.6916  3.4544 -3.7555
  986MOL0     H33088   3.551   0.151   7.186 -1.0645  0.3802 -1.8440
  986MOL0     H33089   3.426   0.028   7.194 -0.5602  0.3845  1.1813
  986MOL0     H33090   2.760   0.419   7.779 -2.5013 -1.1793  1.9747
  986MOL0     H33091   2.531   0.477   7.732 -1.2332 -2.1075  1.3728
  986MOL0     H33092   2.273   0.737   7.339 -1.9088  1.8809  0.3593
  986MOL0     H33093   2.047   0.801   7.293 -1.2920 -1.0271 -1.1074
  986MOL0     H33094   1.304   1.468   7.065  0.9928  1.1235  1.1115
  986MOL0     H33095   1.514   1.486   7.209 -1.5837 -0.0760 -0.2120
  986MOL0     H33096   1.920   1.933   7.113  2.8038  1.7524  0.3492
  986MOL0     H33097   2.139   1.983   7.179  3.1594 -2.2226  0.1024
  986MOL0     H33098   2.251   2.002   7.398 -1.3197 -0.1994 -0.3265
  986MOL0     H33099   2.374   2.016   7.280 -1.0092  2.3748  1.8100
  986MOL0     H33100   2.421   1.872   7.539 -1.3397  1.0610  1.4066
  986MOL0     H33101   2.456   2.044   7.503  0.6538 -0.5451 -0.2128
  986MOL0     H33102   2.648   1.987   7.359 -0.1555  1.6965  2.3685
  986MOL0     H33103   2.575   1.825   7.328  0.5137 -1.7645  1.2339
  986MOL0     H33104   2.653   1.751   7.543 -1.8642 -1.6640 -4.4010
  986MOL0     H33105   2.778   1.804   7.444  0.7629  5.2792 -1.0039
  986MOL0     H33106   2.817   2.117   7.717 -1.1050  0.4658 -1.4326
  986MOL0     H33107   2.185   1.609   7.372  0.7266  0.9035  0.4259
  986MOL0     H33108   1.896   1.463   7.269  0.8163  0.1963 -0.4286
  986MOL0     H33109   1.985   1.477   7.413  1.5379  0.6569 -0.5890
  986MOL0     H33110   1.826   1.573   7.397 -0.8863  1.5644 -2.4379
  987MOL0     O33111   4.836   2.117   0.222  0.3353 -0.1680 -0.2753
  987MOL0     C33112   4.886   2.111   0.114  0.0622  0.8001 -0.0003
  987MOL0     O33113   5.017   2.120   0.084 -0.6609 -0.4481 -0.1831
  987MOL0     C33114   5.110   2.100   0.188 -0.7849  0.2046  0.0488
  987MOL0     C33115   5.229   2.164   0.167 -0.7577  0.1356 -0.4415
  987MOL0     C33116   5.337   2.146   0.256 -0.5470  0.2188 -1.2472
  987MOL0     C33117   5.315   2.062   0.373 -0.2167 -0.2114  0.3374
  987MOL0     O33118   5.423   2.053   0.460 -0.2013  0.2346 -0.0911
  987MOL0     C33119   5.424   1.957   0.571 -0.6231  0.9596  0.5836
  987MOL0     C33120   5.563   1.966   0.640  0.0108  0.3887 -0.0078
  987MOL0     C33121   5.578   1.883   0.762  1.4858 -0.1143  0.0941
  987MOL0     C33122   5.715   1.878   0.820 -0.3771 -0.7271  0.7518
  987MOL0     C33123   5.728   1.836   0.954  1.1843  0.6038 -0.9513
  987MOL0     C33124   5.858   1.881   1.020 -0.7008 -0.3736 -0.2682
  987MOL0     C33125   5.876   1.839   1.168  0.3094  0.0737  0.0972
  987MOL0     C33126   5.920   1.692   1.170  0.8860 -0.0317 -0.3038
  987MOL0     N33127   5.997   1.671   1.295  0.6676  0.2424  0.4697
  987MOL0     C33128   5.971   1.567   1.375 -0.8657 -0.7623  0.3660
  987MOL0     C33129   6.075   1.569   1.464 -0.4490 -0.5980 -0.2797
  987MOL0     C33130   6.110   1.471   1.571 -0.1647 -0.3051  0.0650
  987MOL0     C33131   6.187   1.526   1.692 -0.3372  0.0028 -1.8336
  987MOL0     C33132   6.220   1.416   1.797 -0.4494 -0.2839  0.3912
  987MOL0     C33133   6.360   1.435   1.865 -0.0928  0.0491 -0.8182
  987MOL0     O33134   6.480   1.373   1.823 -0.0371  0.3149 -0.5485
  987MOL0     C33135   6.593   1.404   1.892 -0.6297 -0.0237  0.9040
  987MOL0     C33136   6.604   1.414   2.032 -0.7530 -0.0620  0.0694
  987MOL0     C33137   6.733   1.421   2.090  0.1846  0.3139 -0.0330
  987MOL0     C33138   6.852   1.410   2.019 -0.7246 -0.0546  0.0099
  987MOL0     C33139   6.988   1.438   2.087  0.7159  0.7231  0.0916
  987MOL0     O33140   7.085   1.480   1.996  0.9767  0.2888  0.6615
  987MOL0     C33141   7.221   1.484   2.026  0.0380  0.0900  0.9099
  987MOL0     C33142   7.272   1.575   2.126 -0.2161  0.4102 -0.5702
  987MOL0     C33143   7.410   1.575   2.153 -0.3034 -0.9525  0.5987
  987MOL0     C33144   7.503   1.497   2.081  0.3266 -1.4412 -0.1159
  987MOL0     O33145   7.642   1.491   2.083  0.0903  0.5004  0.9711
  987MOL0     C33146   7.704   1.594   2.162  0.4245 -0.0670 -0.0627
  987MOL0     C33147   7.858   1.582   2.188  0.1526  0.9477 -0.4501
  987MOL0     C33148   7.941   1.608   2.063  0.4129 -0.2402 -0.0975
  987MOL0     C33149   8.081   1.635   2.118  0.2759  0.5157  0.2079
  987MOL0     C33150   8.175   1.674   2.011 -0.4518 -0.2078 -0.1914
  987MOL0     C33151   8.322   1.640   2.054 -0.0200 -0.5823 -0.0735
  987MOL0     C33152   8.420   1.702   1.950  0.5782 -0.6216 -0.2249
  987MOL0     C33153   8.560   1.679   1.993 -0.2974 -0.3988 -0.5303
  987MOL0    Cl33154   8.621   1.531   1.903  0.0710  0.2582 -0.0515
  987MOL0     C33155   7.448   1.396   1.993 -0.5025 -0.0269 -0.1438
  987MOL0     C33156   7.304   1.395   1.960 -1.0064 -0.2389  0.0096
  987MOL0     O33157   7.000   1.419   2.209 -0.2399 -0.0801 -0.6081
  987MOL0     C33158   6.841   1.404   1.882 -0.0615 -0.3842  0.2312
  987MOL0     C33159   6.713   1.410   1.815 -0.5969  1.5372 -1.1186
  987MOL0     N33160   6.165   1.669   1.427  0.2387 -0.9005 -0.6986
  987MOL0     N33161   6.113   1.732   1.333 -0.3007 -0.2785  0.5737
  987MOL0     C33162   5.188   1.997   0.386 -0.3185  0.5351 -0.1931
  987MOL0     C33163   5.088   2.014   0.290 -0.4467 -0.2154  0.3452
  987MOL0     C33164   4.796   2.130  -0.004 -0.1092  0.2950 -0.7172
  987MOL0     C33165   4.801   2.252  -0.065  0.2960  0.4960 -0.2799
  987MOL0     C33166   4.725   2.277  -0.183 -0.7050  0.5440 -0.1980
  987MOL0     C33167   4.634   2.188  -0.229  0.1142 -0.5790 -0.7732
  987MOL0     O33168   4.583   2.218  -0.351  0.2535 -0.2901  0.7701
  987MOL0     C33169   4.480   2.127  -0.404  0.5382  0.5046 -0.1828
  987MOL0     C33170   4.373   2.203  -0.485 -0.9145  0.2847  0.4835
  987MOL0     C33171   4.339   2.334  -0.417  0.9798  0.1711 -0.0031
  987MOL0     C33172   4.222   2.402  -0.492  0.5896 -0.3607 -0.1981
  987MOL0     C33173   4.249   2.438  -0.632  0.0393 -0.5912  0.3564
  987MOL0     C33174   4.271   2.480  -0.742  0.2098 -0.0583  0.4023
  987MOL0     C33175   4.630   2.060  -0.165  0.2535 -0.2794 -0.8776
  987MOL0     C33176   4.715   2.026  -0.052  0.1356 -0.6397  0.0466
  987MOL0     C33177   4.719   1.881   0.004 -0.5327 -0.3663  0.3204
  987MOL0     H33178   5.245   2.226   0.079  0.6167  2.8335  1.5699
  987MOL0     H33179   5.432   2.196   0.243  0.0219 -0.9313 -1.7094
  987MOL0     H33180   5.343   1.966   0.643 -1.8050  0.2037 -0.6096
  987MOL0     H33181   5.407   1.855   0.534 -1.6409  1.1433  0.5209
  987MOL0     H33182   5.584   2.070   0.667 -0.8067  0.7612 -0.7775
  987MOL0     H33183   5.642   1.942   0.568 -1.2358 -0.1935 -1.2207
  987MOL0     H33184   5.543   1.780   0.750 -1.3826  0.4945  2.1798
  987MOL0     H33185   5.510   1.938   0.828 -0.6843  0.8146 -2.6855
  987MOL0     H33186   5.774   1.811   0.757 -3.2218  0.5516 -3.7912
  987MOL0     H33187   5.762   1.974   0.797  0.8731 -1.6700 -0.8784
  987MOL0     H33188   5.645   1.880   1.010  0.1658 -0.2439 -1.7499
  987MOL0     H33189   5.726   1.729   0.976  0.5611  0.0473 -3.4152
  987MOL0     H33190   5.943   1.844   0.963 -0.7938 -2.3352  0.7797
  987MOL0     H33191   5.861   1.991   1.014  1.2296 -0.1730  2.4642
  987MOL0     H33192   5.792   1.851   1.236  2.6413  2.1535  2.8223
  987MOL0     H33193   5.950   1.906   1.212 -0.6335  0.7541  0.6742
  987MOL0     H33194   5.832   1.627   1.159 -0.0734  1.1360  0.1484
  987MOL0     H33195   5.991   1.668   1.091 -0.1108  0.1232 -1.2785
  987MOL0     H33196   5.890   1.495   1.370 -1.5257 -0.0790  0.9458
  987MOL0     H33197   6.025   1.413   1.610  1.4059 -1.7885  1.4588
  987MOL0     H33198   6.162   1.389   1.521  0.3035  0.4943 -0.7832
  987MOL0     H33199   6.287   1.552   1.656 -0.4532 -0.8188 -2.7979
  987MOL0     H33200   6.138   1.610   1.741  1.8995 -0.4969  1.5498
  987MOL0     H33201   6.230   1.316   1.753  0.4509  0.7913 -2.1060
  987MOL0     H33202   6.142   1.408   1.873  1.0711 -3.8126  1.8018
  987MOL0     H33203   6.341   1.407   1.969  2.4302 -0.1406 -0.3209
  987MOL0     H33204   6.374   1.543   1.875  3.0445 -0.3162 -0.1578
  987MOL0     H33205   6.515   1.420   2.093 -0.2063 -1.3486  1.0542
  987MOL0     H33206   6.724   1.436   2.197 -2.1514  0.2992 -0.1624
  987MOL0     H33207   7.199   1.640   2.172 -1.1139 -0.6950 -0.3968
  987MOL0     H33208   7.454   1.650   2.218 -1.8733 -0.4092  1.0797
  987MOL0     H33209   7.692   1.690   2.111  2.2353  1.1769  1.7291
  987MOL0     H33210   7.653   1.578   2.258 -0.8671  0.6269 -0.6137
  987MOL0     H33211   7.886   1.645   2.273  2.2053 -1.1729  0.5313
  987MOL0     H33212   7.866   1.480   2.225 -3.7754 -0.3209 -2.4868
  987MOL0     H33213   7.940   1.527   1.990  1.2497  0.8524 -1.3620
  987MOL0     H33214   7.918   1.701   2.010  0.3592  0.7969  1.6695
  987MOL0     H33215   8.125   1.545   2.163 -3.0601 -2.3309 -1.6699
  987MOL0     H33216   8.082   1.709   2.198 -0.9579 -0.1074  0.8285
  987MOL0     H33217   8.163   1.783   2.004 -3.8388 -0.4145  0.7637
  987MOL0     H33218   8.146   1.636   1.913 -3.7087 -3.4507  1.7758
  987MOL0     H33219   8.344   1.690   2.149  2.5907  0.4692 -1.1181
  987MOL0     H33220   8.342   1.533   2.062  2.4293 -0.0387  3.1085
  987MOL0     H33221   8.388   1.807   1.944 -1.3507 -1.0687  1.2455
  987MOL0     H33222   8.408   1.655   1.852 -0.3406  2.2975 -1.6320
  987MOL0     H33223   8.622   1.761   1.956  1.0011 -2.3483 -2.9867
  987MOL0     H33224   8.575   1.663   2.100 -2.3296  0.1523 -0.1100
  987MOL0     H33225   7.528   1.332   1.957  2.3267 -0.4613  5.8629
  987MOL0     H33226   7.271   1.326   1.883  3.7046 -3.5664  0.5134
  987MOL0     H33227   6.927   1.411   1.816 -0.1737  1.7740  0.2152
  987MOL0     H33228   6.705   1.408   1.707  1.5929 -0.3773 -1.3134
  987MOL0     H33229   5.167   1.938   0.475 -0.3485  0.9003  0.0457
  987MOL0     H33230   4.986   1.984   0.316 -0.6345 -0.0715 -0.2297
  987MOL0     H33231   4.874   2.322  -0.026 -0.8132  0.4739  1.9637
  987MOL0     H33232   4.748   2.361  -0.248 -0.2905 -1.1984 -2.4125
  987MOL0     H33233   4.434   2.071  -0.323 -0.8044  0.8971 -0.6536
  987MOL0     H33234   4.553   2.065  -0.458 -1.5096 -0.5521 -1.9082
  987MOL0     H33235   4.279   2.147  -0.477 -0.8062 -0.2278 -1.3947
  987MOL0     H33236   4.383   2.212  -0.593 -0.7724  1.3686  0.5798
  987MOL0     H33237   4.423   2.403  -0.409  0.5108  1.6865 -4.7469
  987MOL0     H33238   4.299   2.301  -0.321 -1.1151 -3.5291 -1.9044
  987MOL0     H33239   4.131   2.342  -0.489  1.2588 -1.4350 -0.9313
  987MOL0     H33240   4.196   2.498  -0.446  0.1344  1.0521 -3.1156
  987MOL0     H33241   4.275   2.522  -0.840  2.6702  2.2623  1.3706
  987MOL0     H33242   4.564   1.981  -0.201  1.1362 -1.7047  0.5171
  987MOL0     H33243   4.816   1.831  -0.008  0.2782  0.8004  1.6262
  987MOL0     H33244   4.705   1.878   0.113 -1.1549  2.1870  0.3647
  987MOL0     H33245   4.645   1.820  -0.048  0.6816 -0.8504 -0.8813
  988MOL0     O33246   8.611   5.352   9.885  0.3751 -0.3709  0.5484
  988MOL0     C33247   8.574   5.249   9.929 -0.7299  0.0580 -0.1370
  988MOL0     O33248   8.652   5.173  10.022 -0.2777  0.7251 -0.3463
  988MOL0     C33249   8.747   5.237  10.091 -0.0523 -0.0925 -0.1717
  988MOL0     C33250   8.727   5.338  10.189 -0.9429  0.0302 -1.2276
  988MOL0     C33251   8.835   5.404  10.248 -0.4412  0.2349 -0.2971
  988MOL0     C33252   8.967   5.364  10.219  0.4319  0.7533  0.1098
  988MOL0     O33253   9.074   5.425  10.267 -0.2416  0.2157  0.4601
  988MOL0     C33254   9.125   5.345  10.382  0.1492 -0.3621  0.8970
  988MOL0     C33255   9.050   5.364  10.516  0.8938  0.3793 -0.1855
  988MOL0     C33256   9.118   5.308  10.638 -0.7418 -0.3036  0.2796
  988MOL0     C33257   9.267   5.353  10.651  0.4458  0.4016 -0.1729
  988MOL0     C33258   9.338   5.313  10.783  0.2561 -0.3622 -0.2104
  988MOL0     C33259   9.479   5.377  10.793 -0.2931  0.3181  0.3060
  988MOL0     C33260   9.567   5.349  10.910  0.2579  0.3418 -0.2482
  988MOL0     C33261   9.696   5.433  10.901 -0.9526  0.0668  0.4071
  988MOL0     N33262   9.803   5.372  10.816  0.2410 -0.1934 -0.0927
  988MOL0     C33263   9.829   5.389  10.685  0.2555 -1.0285 -0.0383
  988MOL0     C33264   9.921   5.285  10.665  0.0250 -0.8081 -0.4248
  988MOL0     C33265   9.986   5.233  10.543 -0.0040  0.0624  1.5124
  988MOL0     C33266  10.112   5.326  10.521  0.2311  0.3815  0.6665
  988MOL0     C33267  10.225   5.299  10.631  0.3339  0.3199  0.0498
  988MOL0     C33268  10.290   5.161  10.626 -1.0733 -0.2608 -0.2336
  988MOL0     O33269  10.430   5.166  10.603 -0.5595 -0.8118  0.4442
  988MOL0     C33270  10.493   5.053  10.565  0.1029  0.4134  0.1459
  988MOL0     C33271  10.432   4.926  10.575 -0.0981  1.2078  0.1566
  988MOL0     C33272  10.492   4.805  10.526 -0.1729 -0.3629  0.2932
  988MOL0     C33273  10.622   4.820  10.478 -0.2222  1.1539  0.0024
  988MOL0     C33274  10.698   4.696  10.444  0.4137  0.0000  0.6847
  988MOL0     O33275  10.820   4.704  10.394 -0.0586  0.2842  0.0556
  988MOL0     C33276  10.880   4.601  10.327  0.6469  0.7990  1.0475
  988MOL0     C33277  10.976   4.644  10.238  0.1321  0.2223  0.1436
  988MOL0     C33278  11.062   4.562  10.170  0.2634  0.1917 -0.5222
  988MOL0     C33279  11.052   4.426  10.197 -0.6399 -0.3602 -0.5988
  988MOL0     O33280  11.129   4.330  10.139  0.0269 -0.2461 -0.0660
  988MOL0     C33281  11.256   4.363  10.075 -0.1019 -0.2245  0.1140
  988MOL0     C33282  11.354   4.266  10.123 -0.7168 -0.5518 -0.4561
  988MOL0     C33283  11.496   4.315  10.094 -0.4229 -0.0477  0.0436
  988MOL0     C33284  11.595   4.197  10.103  0.1355  0.2449 -0.0293
  988MOL0     C33285  11.741   4.227  10.074  0.4176  1.2495  1.1919
  988MOL0     C33286  11.773   4.266   9.924 -0.1537 -0.1752 -0.2137
  988MOL0     C33287  11.927   4.270   9.895  0.7982 -1.1206  0.2549
  988MOL0     C33288  11.959   4.283   9.747  0.5398  0.0432  0.5913
  988MOL0    Cl33289  12.142   4.293   9.729 -0.3044 -0.2286  0.3442
  988MOL0     C33290  10.951   4.374  10.272  0.2500  0.0756 -0.3579
  988MOL0     C33291  10.862   4.463  10.334  0.3973  0.2332 -0.0279
  988MOL0     O33292  10.643   4.583  10.466 -0.5087  0.0870 -0.1008
  988MOL0     C33293  10.689   4.946  10.475  0.7766  0.3701 -0.4222
  988MOL0     C33294  10.624   5.066  10.518 -0.2570  0.9333 -0.2368
  988MOL0     N33295   9.955   5.225  10.782  0.4704  0.2604 -0.2656
  988MOL0     N33296   9.876   5.272  10.878 -0.0536 -0.7950  0.5655
  988MOL0     C33297   8.983   5.265  10.118 -0.3991 -0.4255 -0.5921
  988MOL0     C33298   8.878   5.213  10.051  0.7277  0.2855  0.5496
  988MOL0     C33299   8.446   5.200   9.881  0.4862  0.2892  0.5549
  988MOL0     C33300   8.413   5.070   9.930 -1.1678 -0.2966  0.7764
  988MOL0     C33301   8.290   5.023   9.914  0.0030  0.3652  0.7656
  988MOL0     C33302   8.194   5.088   9.830  0.1255 -0.7471 -0.3104
  988MOL0     O33303   8.063   5.055   9.810  0.2980 -0.0030  0.0882
  988MOL0     C33304   8.027   4.915   9.836 -0.1458 -0.1820 -0.2447
  988MOL0     C33305   7.885   4.889   9.806  0.0820 -0.2217  0.1261
  988MOL0     C33306   7.789   4.976   9.890  0.0697 -0.8748 -0.7132
  988MOL0     C33307   7.690   4.906   9.988 -0.7508 -0.0923  0.0384
  988MOL0     C33308   7.783   4.844  10.084 -0.0020 -0.1395  0.0455
  988MOL0     C33309   7.857   4.794  10.157 -0.3074  0.8924 -0.5258
  988MOL0     C33310   8.227   5.217   9.783  0.4005  0.0086 -0.4209
  988MOL0     C33311   8.347   5.277   9.809 -0.8556 -0.2584  0.8595
  988MOL0     C33312   8.368   5.420   9.762  0.2184  0.4637  0.3947
  988MOL0     H33313   8.627   5.373  10.210 -1.5588 -1.8818 -0.7284
  988MOL0     H33314   8.814   5.479  10.323  0.7697 -1.7997  2.2546
  988MOL0     H33315   9.127   5.242  10.346 -0.7025 -0.6242  1.5714
  988MOL0     H33316   9.225   5.388  10.394 -0.6298  1.5585  0.9266
  988MOL0     H33317   8.955   5.312  10.499 -1.0286  4.1275 -2.1013
  988MOL0     H33318   9.028   5.469  10.539 -0.7211 -0.4108  2.2902
  988MOL0     H33319   9.108   5.200  10.630  0.0990 -0.6321  2.9169
  988MOL0     H33320   9.063   5.346  10.724  1.9493  0.5013  1.7654
  988MOL0     H33321   9.329   5.313  10.570 -1.0290 -0.1083 -1.1044
  988MOL0     H33322   9.262   5.462  10.648  1.2433  0.4525  0.1593
  988MOL0     H33323   9.277   5.358  10.862  2.2397 -2.2965  2.6175
  988MOL0     H33324   9.350   5.204  10.789  0.1150 -0.3341  0.8090
  988MOL0     H33325   9.537   5.351  10.704  2.3447  2.8740  1.1466
  988MOL0     H33326   9.463   5.484  10.778 -0.5843  0.3777  1.0170
  988MOL0     H33327   9.595   5.245  10.928  0.5665  0.4471 -0.1181
  988MOL0     H33328   9.513   5.368  11.003  2.3004 -2.8561  1.7334
  988MOL0     H33329   9.673   5.534  10.865  0.1517 -0.0387 -0.6593
  988MOL0     H33330   9.733   5.441  11.004  1.6185 -1.0442 -0.3436
  988MOL0     H33331   9.788   5.460  10.615 -1.7737 -2.2244 -0.1507
  988MOL0     H33332  10.017   5.130  10.565 -2.4164 -0.7971  1.1384
  988MOL0     H33333   9.922   5.228  10.455  3.4708  0.7448 -1.2513
  988MOL0     H33334  10.163   5.301  10.428 -0.8955 -0.8389  0.3531
  988MOL0     H33335  10.096   5.434  10.528 -3.0309  0.0962 -0.7524
  988MOL0     H33336  10.176   5.298  10.729  0.5261 -1.8794  0.1892
  988MOL0     H33337  10.302   5.375  10.624 -0.3219  0.9524 -0.4070
  988MOL0     H33338  10.262   5.109  10.534  1.7285 -0.3596 -1.1209
  988MOL0     H33339  10.266   5.100  10.713 -1.9620 -1.2619 -1.1539
  988MOL0     H33340  10.342   4.904  10.631  0.8716 -2.7849  0.4237
  988MOL0     H33341  10.446   4.710  10.552 -0.3607  0.6405  4.3907
  988MOL0     H33342  10.974   4.751  10.220  1.7152  0.2859  0.1359
  988MOL0     H33343  11.127   4.599  10.091  0.4640 -2.6660 -1.8377
  988MOL0     H33344  11.239   4.346   9.968  0.1916 -1.2816  0.2237
  988MOL0     H33345  11.286   4.468  10.085 -2.8111  0.6503 -0.3032
  988MOL0     H33346  11.342   4.237  10.227 -0.1292 -0.8071 -0.4517
  988MOL0     H33347  11.327   4.179  10.061 -4.7388 -0.3075  0.7119
  988MOL0     H33348  11.504   4.364   9.996 -1.5692 -1.0136 -0.5620
  988MOL0     H33349  11.522   4.400  10.157  1.6933  0.9690 -2.0194
  988MOL0     H33350  11.560   4.105  10.057 -3.0721 -1.3529  4.7795
  988MOL0     H33351  11.599   4.181  10.211  0.1188  0.6286  0.0317
  988MOL0     H33352  11.803   4.141  10.100 -2.1182 -0.8885  0.6754
  988MOL0     H33353  11.760   4.312  10.140 -0.5946  0.6086  2.3432
  988MOL0     H33354  11.721   4.193   9.862 -0.9919 -0.3433  0.6587
  988MOL0     H33355  11.728   4.360   9.890  1.2321 -0.0189 -1.7097
  988MOL0     H33356  11.959   4.167   9.916  0.3211 -1.2853  0.1897
  988MOL0     H33357  11.975   4.345   9.959 -0.7666  0.7877 -0.6916
  988MOL0     H33358  11.911   4.201   9.694 -0.4773  0.4786  0.8046
  988MOL0     H33359  11.913   4.374   9.706 -2.0417 -3.1459 -4.5981
  988MOL0     H33360  10.939   4.266  10.279 -1.7531  0.3427  1.8026
  988MOL0     H33361  10.807   4.403  10.406  1.0292 -0.2212  0.0820
  988MOL0     H33362  10.794   4.945  10.451  1.0019  1.3878  0.4400
  988MOL0     H33363  10.679   5.157  10.499 -1.8720  1.3017 -4.1443
  988MOL0     H33364   9.089   5.259  10.097 -0.2386  1.6503 -0.6350
  988MOL0     H33365   8.900   5.150   9.965  0.0231 -0.3494  0.8302
  988MOL0     H33366   8.486   5.013   9.986 -1.3573 -1.8706 -0.5036
  988MOL0     H33367   8.268   4.933   9.970 -0.9713  1.2462  1.8602
  988MOL0     H33368   8.034   4.886   9.941 -0.8938  1.3651  0.2653
  988MOL0     H33369   8.086   4.846   9.775  2.2668  1.0249  0.6087
  988MOL0     H33370   7.855   4.785   9.823 -0.1268 -0.4927 -1.7513
  988MOL0     H33371   7.880   4.911   9.699  0.8151 -1.1531 -0.1092
  988MOL0     H33372   7.727   5.035   9.821 -1.1824 -0.3952  0.7694
  988MOL0     H33373   7.841   5.051   9.950  1.0989 -1.3895 -0.9434
  988MOL0     H33374   7.628   4.977  10.044  2.6737  0.9061  2.8875
  988MOL0     H33375   7.629   4.828   9.942 -2.9812  2.1936 -1.1350
  988MOL0     H33376   7.918   4.733  10.221 -0.1667 -0.9687 -2.3224
  988MOL0     H33377   8.143   5.277   9.748  1.6860  1.1281 -1.6701
  988MOL0     H33378   8.387   5.482   9.850 -0.5924  0.7073  0.4043
  988MOL0     H33379   8.442   5.440   9.684 -1.7296  1.3790 -1.3150
  988MOL0     H33380   8.271   5.454   9.725 -0.8928 -2.0552  0.7870
  989MOL0     O33381   5.230   2.333   1.204 -1.0380  0.1636  0.7529
  989MOL0     C33382   5.226   2.363   1.089 -0.1465  0.0396 -0.0768
  989MOL0     O33383   5.335   2.381   1.009  0.7168 -0.2056 -1.0673
  989MOL0     C33384   5.464   2.389   1.069  0.2375  0.8850  0.1037
  989MOL0     C33385   5.496   2.481   1.166  0.2417  0.3982  0.2985
  989MOL0     C33386   5.625   2.497   1.217 -0.5755  0.9531 -0.2839
  989MOL0     C33387   5.726   2.406   1.187 -0.9139  0.0327 -0.6768
  989MOL0     O33388   5.840   2.427   1.267  0.9102 -0.5561 -0.1309
  989MOL0     C33389   5.928   2.317   1.244 -0.2261 -0.2343  0.5473
  989MOL0     C33390   6.069   2.363   1.294 -0.1681  0.0736 -0.1258
  989MOL0     C33391   6.105   2.309   1.429  0.7680  0.5374 -0.5036
  989MOL0     C33392   6.121   2.158   1.437 -0.0371  0.7928 -0.1912
  989MOL0     C33393   6.255   2.124   1.503 -0.4941 -0.3304 -0.4958
  989MOL0     C33394   6.281   1.980   1.517  0.3159  0.6033 -0.1785
  989MOL0     C33395   6.428   1.957   1.560  0.2361  0.0819  0.0842
  989MOL0     C33396   6.460   1.807   1.577 -1.0082 -0.3575  0.4341
  989MOL0     N33397   6.604   1.781   1.606  0.7199  0.2535  0.0138
  989MOL0     C33398   6.666   1.776   1.732  0.3980 -0.2044  0.7398
  989MOL0     C33399   6.799   1.745   1.706  0.3998 -0.6234  0.4245
  989MOL0     C33400   6.903   1.737   1.809 -0.5759 -0.6090  0.3572
  989MOL0     C33401   6.964   1.877   1.825 -0.3185 -1.0407  0.2770
  989MOL0     C33402   7.092   1.862   1.907 -0.1746  0.4920 -0.2363
  989MOL0     C33403   7.224   1.830   1.824 -0.0032 -0.3126 -0.2481
  989MOL0     O33404   7.290   1.950   1.776  0.0890 -0.8877  0.3233
  989MOL0     C33405   7.429   1.961   1.766  1.0296 -0.7461  0.0469
  989MOL0     C33406   7.511   1.865   1.814  0.0929  0.1652  0.1581
  989MOL0     C33407   7.652   1.889   1.797  0.6162  0.0806 -0.5501
  989MOL0     C33408   7.709   1.997   1.734  0.4803  0.1361  0.0041
  989MOL0     C33409   7.847   2.010   1.688  0.4180 -0.0493  0.0778
  989MOL0     O33410   7.930   1.913   1.733 -0.2078 -0.3647  0.5266
  989MOL0     C33411   8.059   1.909   1.694 -0.6459  0.4934 -0.2313
  989MOL0     C33412   8.106   1.806   1.614 -0.0810  0.4647 -0.1875
  989MOL0     C33413   8.237   1.800   1.572  0.0825 -1.4274  0.4593
  989MOL0     C33414   8.329   1.892   1.613  0.6671 -0.4589 -1.3652
  989MOL0     O33415   8.449   1.888   1.562 -0.1839 -0.0061 -0.2348
  989MOL0     C33416   8.559   1.933   1.647 -0.1430  0.0747 -0.1027
  989MOL0     C33417   8.696   1.906   1.578  0.8896 -0.4118  0.7549
  989MOL0     C33418   8.741   2.003   1.468 -0.2613 -0.4322  0.3398
  989MOL0     C33419   8.894   1.966   1.443  0.5503 -0.0511  0.1000
  989MOL0     C33420   8.972   2.040   1.331 -0.5612 -0.2197  0.1329
  989MOL0     C33421   9.115   2.007   1.316 -0.4425  0.2878 -0.4625
  989MOL0     C33422   9.199   2.108   1.224  0.1839  0.3350 -0.4291
  989MOL0     C33423   9.153   2.132   1.082  0.5377 -0.8026  0.7192
  989MOL0    Cl33424   9.132   1.972   0.998  0.2709  0.4619 -0.0941
  989MOL0     C33425   8.283   1.988   1.707 -0.0512 -0.0294  0.2843
  989MOL0     C33426   8.149   2.003   1.741  0.9343  0.1487  0.4158
  989MOL0     O33427   7.881   2.101   1.606  0.2493  0.8567 -0.2910
  989MOL0     C33428   7.617   2.092   1.681 -0.9789 -0.1889 -0.7834
  989MOL0     C33429   7.483   2.075   1.703  0.1577 -0.2542 -0.5430
  989MOL0     N33430   6.803   1.716   1.570  0.1439 -0.8361  0.1331
  989MOL0     N33431   6.697   1.758   1.509  0.3565 -0.5175  0.1753
  989MOL0     C33432   5.691   2.302   1.093  0.2057  0.1297 -0.0505
  989MOL0     C33433   5.560   2.292   1.040 -0.2018 -0.4390  0.3893
  989MOL0     C33434   5.106   2.400   1.025  0.6615 -0.3644  0.1482
  989MOL0     C33435   5.048   2.312   0.927 -0.2828  0.3391 -1.1651
  989MOL0     C33436   4.937   2.348   0.851 -0.3056  0.6109 -0.1654
  989MOL0     C33437   4.873   2.471   0.878 -0.0522  0.4440 -0.2256
  989MOL0     O33438   4.760   2.516   0.818 -0.1562  1.1779  0.6131
  989MOL0     C33439   4.691   2.439   0.719 -0.1267 -0.3726 -0.1833
  989MOL0     C33440   4.537   2.466   0.703  0.1804 -0.2114 -0.0975
  989MOL0     C33441   4.514   2.609   0.642  0.0150  0.6207  0.3379
  989MOL0     C33442   4.361   2.638   0.655 -0.1173  0.4187 -0.3022
  989MOL0     C33443   4.285   2.522   0.611 -0.4003 -1.0204  0.1231
  989MOL0     C33444   4.219   2.429   0.580 -0.1370 -0.2842 -0.9594
  989MOL0     C33445   4.919   2.554   0.978  0.0138  0.0323 -0.3070
  989MOL0     C33446   5.037   2.518   1.050 -0.2780  0.0678 -1.0390
  989MOL0     C33447   5.090   2.622   1.146  0.2004  1.1190 -0.4390
  989MOL0     H33448   5.416   2.544   1.204 -0.8716 -0.3738 -0.6688
  989MOL0     H33449   5.633   2.578   1.288 -2.1620 -0.7185  1.9544
  989MOL0     H33450   5.885   2.234   1.301  1.7945 -1.6504  0.1107
  989MOL0     H33451   5.946   2.283   1.142 -1.7208  1.4163 -0.3125
  989MOL0     H33452   6.078   2.471   1.282  0.7437  0.3988  2.6024
  989MOL0     H33453   6.136   2.310   1.226 -1.8063  0.1755 -1.8925
  989MOL0     H33454   6.029   2.336   1.503  1.0206 -0.8372  0.2957
  989MOL0     H33455   6.192   2.356   1.476 -0.8470  0.9049  2.4168
  989MOL0     H33456   6.050   2.109   1.504 -1.2055  4.6074  1.6497
  989MOL0     H33457   6.120   2.101   1.344 -0.8300 -2.3617  1.5960
  989MOL0     H33458   6.329   2.165   1.434 -2.0685  2.4671 -0.6711
  989MOL0     H33459   6.264   2.170   1.602 -1.0586  1.3942 -1.2048
  989MOL0     H33460   6.210   1.922   1.576 -0.1127 -2.3280 -3.2919
  989MOL0     H33461   6.276   1.940   1.415  0.7037  0.0658  0.0085
  989MOL0     H33462   6.447   2.003   1.658  2.5167 -1.5076  0.4877
  989MOL0     H33463   6.495   2.005   1.489  0.4219 -0.2638  0.0218
  989MOL0     H33464   6.406   1.772   1.665  0.0401  0.3984  1.3990
  989MOL0     H33465   6.435   1.744   1.491  2.1129  0.9222 -1.6103
  989MOL0     H33466   6.627   1.803   1.830  1.4692  1.3635  0.7695
  989MOL0     H33467   6.875   1.707   1.910 -0.5067  0.8530  0.8402
  989MOL0     H33468   6.982   1.674   1.767 -0.6284  0.0535 -0.7874
  989MOL0     H33469   6.983   1.928   1.731  0.1595 -1.0215  0.3835
  989MOL0     H33470   6.898   1.944   1.881 -0.9762 -1.9180  0.5940
  989MOL0     H33471   7.075   1.777   1.974 -2.1704  1.3035  0.3409
  989MOL0     H33472   7.093   1.949   1.973 -1.4481  2.6010 -2.8026
  989MOL0     H33473   7.192   1.763   1.743  0.0011 -2.3612  1.3566
  989MOL0     H33474   7.291   1.774   1.890  0.1365 -0.9261 -0.9020
  989MOL0     H33475   7.481   1.781   1.876  1.0821 -0.3770 -0.0812
  989MOL0     H33476   7.714   1.807   1.831  2.6172  1.2495 -1.2285
  989MOL0     H33477   8.034   1.731   1.587  1.8794 -2.1817  1.4597
  989MOL0     H33478   8.271   1.728   1.499 -3.4886 -1.4836 -1.3390
  989MOL0     H33479   8.539   2.038   1.671  1.7362  0.2315  0.9702
  989MOL0     H33480   8.544   1.884   1.745 -2.5680 -2.6014 -1.6400
  989MOL0     H33481   8.774   1.899   1.654  1.1536  0.2402  0.5527
  989MOL0     H33482   8.703   1.803   1.542 -1.1818 -0.6527  0.9269
  989MOL0     H33483   8.675   1.987   1.383 -2.0515 -1.4604  1.8640
  989MOL0     H33484   8.738   2.106   1.506 -0.8928 -0.0507 -0.6781
  989MOL0     H33485   8.912   1.859   1.429  4.4280  0.0412  2.9157
  989MOL0     H33486   8.934   1.998   1.539 -3.1757  0.1049  1.7883
  989MOL0     H33487   8.977   2.148   1.351  2.3693 -0.3218  0.4043
  989MOL0     H33488   8.916   2.023   1.239 -0.7242 -1.1099  0.3912
  989MOL0     H33489   9.166   2.010   1.412  1.5724  1.0201 -1.4995
  989MOL0     H33490   9.138   1.908   1.275  3.4290  1.7589 -2.3266
  989MOL0     H33491   9.301   2.071   1.223  0.9415  2.2991 -0.1145
  989MOL0     H33492   9.201   2.203   1.279 -0.0732  1.5983 -2.5089
  989MOL0     H33493   9.057   2.184   1.094  1.7639  1.6303  0.5054
  989MOL0     H33494   9.225   2.193   1.028 -1.4754  0.9337 -0.1613
  989MOL0     H33495   8.351   2.053   1.761 -1.2544  1.1992  0.3730
  989MOL0     H33496   8.110   2.086   1.799  2.4231  0.2182  1.3795
  989MOL0     H33497   7.664   2.177   1.632 -0.5171  0.2338  0.3699
  989MOL0     H33498   7.416   2.145   1.655 -1.1880  0.0307  1.5991
  989MOL0     H33499   5.770   2.232   1.070 -1.0213 -1.0317 -0.8598
  989MOL0     H33500   5.528   2.214   0.972 -0.7754 -0.6896  0.9405
  989MOL0     H33501   5.100   2.220   0.901 -0.6567 -0.1462 -0.2101
  989MOL0     H33502   4.904   2.292   0.765 -0.8099  2.2471 -1.0805
  989MOL0     H33503   4.690   2.332   0.741 -1.6667 -0.1856  0.7408
  989MOL0     H33504   4.748   2.451   0.626 -3.9505  3.3713 -2.3618
  989MOL0     H33505   4.490   2.447   0.800  0.4114  1.1304  0.3016
  989MOL0     H33506   4.498   2.388   0.638 -1.6061 -2.6497  3.5572
  989MOL0     H33507   4.539   2.612   0.535  2.1509 -1.8944  0.6742
  989MOL0     H33508   4.567   2.682   0.704 -1.2866 -1.5434  4.3089
  989MOL0     H33509   4.327   2.651   0.758 -1.9217 -1.2917 -0.6146
  989MOL0     H33510   4.331   2.726   0.597  1.5739  2.9392  2.4020
  989MOL0     H33511   4.152   2.348   0.560 -1.0482  0.6401 -1.7547
  989MOL0     H33512   4.863   2.645   0.997  1.3211  0.7313  0.3503
  989MOL0     H33513   5.028   2.712   1.152 -1.8595 -0.2878  0.5142
  989MOL0     H33514   5.104   2.578   1.246  0.4942 -0.4807 -1.1552
  989MOL0     H33515   5.189   2.645   1.105  1.4048 -1.5596  0.7516
  990MOL0     O33516   9.060   7.266  11.100 -0.2876  0.2186 -0.4586
  990MOL0     C33517   9.102   7.381  11.096 -1.7858 -0.6247 -0.6367
  990MOL0     O33518   9.232   7.417  11.123 -0.1232 -0.1552  0.5883
  990MOL0     C33519   9.326   7.324  11.117 -0.0083  0.7629 -0.0831
  990MOL0     C33520   9.337   7.203  11.191 -0.0837 -0.4610 -0.2413
  990MOL0     C33521   9.444   7.114  11.178  0.2370 -0.7206  0.3944
  990MOL0     C33522   9.557   7.162  11.105 -0.4097 -0.0734 -0.1225
  990MOL0     O33523   9.655   7.071  11.098 -0.3475  0.1792 -0.1563
  990MOL0     C33524   9.775   7.089  11.016  0.3474 -0.3209  0.5026
  990MOL0     C33525   9.885   6.992  11.061 -0.1614  0.4887 -0.1119
  990MOL0     C33526  10.011   6.994  10.974  0.6740  0.2158  0.0096
  990MOL0     C33527  10.124   7.083  11.025 -0.2015 -0.6389 -0.2492
  990MOL0     C33528  10.253   7.029  10.957  0.7087  0.4658 -0.6596
  990MOL0     C33529  10.328   6.909  11.006 -0.4971  0.8033 -0.6918
  990MOL0     C33530  10.449   6.866  10.917  0.9655 -0.1589 -0.3819
  990MOL0     C33531  10.563   6.953  10.950 -0.6125 -0.1761 -0.4325
  990MOL0     N33532  10.653   6.936  10.840  0.1028 -0.4258  0.2965
  990MOL0     C33533  10.773   6.885  10.864 -0.7065  0.5526 -0.8284
  990MOL0     C33534  10.842   6.923  10.757 -0.3638  0.6899 -0.2644
  990MOL0     C33535  10.977   6.871  10.736 -0.0240  0.0802 -0.7580
  990MOL0     C33536  10.983   6.767  10.619  0.0380 -0.4370  0.5487
  990MOL0     C33537  10.951   6.831  10.486  0.8283 -0.1558  0.2427
  990MOL0     C33538  10.964   6.728  10.378 -0.5612  0.3008  0.5251
  990MOL0     O33539  10.995   6.783  10.244  0.2607 -0.2985 -0.1899
  990MOL0     C33540  10.895   6.757  10.160  0.3148  0.2608  0.1555
  990MOL0     C33541  10.828   6.862  10.096 -0.3962  0.5771  0.9345
  990MOL0     C33542  10.739   6.817   9.997 -0.3786 -0.4682 -0.1964
  990MOL0     C33543  10.699   6.689   9.975  0.0563 -1.1196  1.0100
  990MOL0     C33544  10.591   6.661   9.875 -0.0732 -0.1546  0.2873
  990MOL0     O33545  10.531   6.772   9.818 -0.4231  0.1779 -0.1440
  990MOL0     C33546  10.420   6.769   9.740 -0.7467  0.2209 -0.3956
  990MOL0     C33547  10.338   6.882   9.756 -0.9531 -0.3991  0.8667
  990MOL0     C33548  10.227   6.879   9.679  0.7656 -0.1999  0.6706
  990MOL0     C33549  10.192   6.769   9.593 -0.4216 -0.5258  0.3486
  990MOL0     O33550  10.065   6.764   9.533 -0.4135 -0.5743 -0.7195
  990MOL0     C33551   9.953   6.799   9.613 -0.5101 -0.8413  0.4703
  990MOL0     C33552   9.853   6.689   9.611  0.2024 -1.1981 -0.0015
  990MOL0     C33553   9.790   6.648   9.478  0.2138 -0.2543 -0.4644
  990MOL0     C33554   9.648   6.585   9.490 -0.3138  1.4443 -0.0246
  990MOL0     C33555   9.601   6.511   9.360  0.0306  0.1822 -0.7027
  990MOL0     C33556   9.552   6.598   9.243  0.4238 -1.0110  0.0499
  990MOL0     C33557   9.575   6.555   9.096 -0.3401  0.7871 -0.0373
  990MOL0     C33558   9.716   6.532   9.056 -0.5346  0.7959  1.1653
  990MOL0    Cl33559   9.772   6.599   8.898 -0.0863  0.4541  0.1788
  990MOL0     C33560  10.276   6.668   9.577 -0.0168  0.5967  1.0554
  990MOL0     C33561  10.393   6.663   9.649  0.7777  0.4704  0.0079
  990MOL0     O33562  10.559   6.544   9.847 -0.4532  0.6986 -0.0821
  990MOL0     C33563  10.759   6.590  10.049  0.7404 -0.4495  0.0090
  990MOL0     C33564  10.866   6.621  10.134  0.3004 -0.6303 -0.4590
  990MOL0     N33565  10.770   7.015  10.690  0.0594  0.4413 -0.7962
  990MOL0     N33566  10.649   7.015  10.730  1.2028  0.6620  0.3684
  990MOL0     C33567   9.553   7.285  11.044  1.5294 -0.3197 -0.9731
  990MOL0     C33568   9.442   7.358  11.049  0.3799  0.3897 -0.7057
  990MOL0     C33569   9.010   7.488  11.058  0.5411  0.4609 -0.0238
  990MOL0     C33570   9.064   7.600  11.004 -0.0012  0.5769  0.1273
  990MOL0     C33571   8.989   7.700  10.949 -0.3933  0.2907 -0.3548
  990MOL0     C33572   8.848   7.700  10.961 -0.2835 -0.9221 -0.1211
  990MOL0     O33573   8.769   7.793  10.898 -0.1463 -0.8946 -0.8433
  990MOL0     C33574   8.625   7.783  10.896  0.2566  1.4954 -0.5040
  990MOL0     C33575   8.568   7.911  10.837  0.7264  0.1070 -0.1970
  990MOL0     C33576   8.581   7.917  10.684  0.4294 -0.0745  0.3075
  990MOL0     C33577   8.536   8.054  10.631 -0.2409 -0.2497 -0.1441
  990MOL0     C33578   8.391   8.077  10.623 -0.0772 -0.3802 -0.2536
  990MOL0     C33579   8.277   8.117  10.603  0.0693 -0.3007  0.5468
  990MOL0     C33580   8.799   7.598  11.037 -0.9205  1.0330 -0.0910
  990MOL0     C33581   8.875   7.487  11.081  0.6396 -0.4155 -0.5221
  990MOL0     C33582   8.800   7.382  11.158  0.0339 -0.5221 -0.0150
  990MOL0     H33583   9.252   7.185  11.257  1.9208  2.3780  3.4321
  990MOL0     H33584   9.437   7.011  11.212 -0.0362 -0.2696  1.7510
  990MOL0     H33585   9.747   7.069  10.912 -0.8078 -1.2800  0.9780
  990MOL0     H33586   9.831   7.182  11.029  1.8773 -1.3464  1.7429
  990MOL0     H33587   9.846   6.889  11.058 -1.6713  0.9768  1.1771
  990MOL0     H33588   9.918   7.004  11.165 -1.9418 -2.6208  0.9676
  990MOL0     H33589   9.979   7.034  10.877 -1.3557  1.7501  1.2162
  990MOL0     H33590  10.045   6.894  10.945 -0.4829 -0.0953 -0.3237
  990MOL0     H33591  10.104   7.190  11.015 -2.3411 -0.9917 -0.2189
  990MOL0     H33592  10.146   7.067  11.131  0.4483  2.9788  0.2865
  990MOL0     H33593  10.225   7.011  10.852 -2.0966  1.5328 -0.2053
  990MOL0     H33594  10.318   7.116  10.973 -2.3265  2.6436  0.9808
  990MOL0     H33595  10.358   6.927  11.109 -0.3160 -0.8909 -0.4146
  990MOL0     H33596  10.252   6.830  11.001  2.4663 -2.2339 -2.3828
  990MOL0     H33597  10.420   6.874  10.812  0.9943  0.8911 -0.3239
  990MOL0     H33598  10.479   6.761  10.931  2.9054  0.1060 -2.0383
  990MOL0     H33599  10.525   7.054  10.935 -2.3675 -1.0712 -2.6707
  990MOL0     H33600  10.613   6.924  11.042 -0.4919 -0.3867 -0.5625
  990MOL0     H33601  10.806   6.815  10.940  2.2486  1.2363 -1.3387
  990MOL0     H33602  11.045   6.951  10.708 -0.7945  1.3569  0.8612
  990MOL0     H33603  11.015   6.827  10.828 -2.0963 -1.0554 -0.3843
  990MOL0     H33604  11.086   6.731  10.616  0.1937 -0.1227  1.6359
  990MOL0     H33605  10.913   6.686  10.644 -0.8860  0.7908  2.1261
  990MOL0     H33606  11.016   6.919  10.473 -1.2650  1.2987 -1.1180
  990MOL0     H33607  10.848   6.868  10.492  0.1079 -1.8431 -1.0779
  990MOL0     H33608  10.875   6.664  10.380  0.5601 -1.3103  0.2909
  990MOL0     H33609  11.052   6.666  10.397  0.4170  2.1109  2.3405
  990MOL0     H33610  10.854   6.966  10.115 -0.2934  0.3654  2.0104
  990MOL0     H33611  10.679   6.894   9.951 -0.4710  1.9373  3.4980
  990MOL0     H33612  10.357   6.964   9.825  1.6800  0.4735 -0.7747
  990MOL0     H33613  10.148   6.954   9.680 -0.3762 -1.2709  3.9487
  990MOL0     H33614   9.986   6.829   9.713 -0.3846  2.1808 -0.3805
  990MOL0     H33615   9.918   6.888   9.560  0.3127 -1.1981 -0.7002
  990MOL0     H33616   9.899   6.610   9.671 -0.1947  0.4418  2.6289
  990MOL0     H33617   9.772   6.733   9.670  0.9648 -2.0079  1.7276
  990MOL0     H33618   9.775   6.739   9.419  0.5140  1.5012  1.9977
  990MOL0     H33619   9.853   6.577   9.423 -0.7133 -1.9308  0.5502
  990MOL0     H33620   9.567   6.655   9.513 -2.5899 -1.6571  2.0166
  990MOL0     H33621   9.658   6.515   9.572 -1.7315  0.3006 -0.7857
  990MOL0     H33622   9.522   6.439   9.379 -1.0672  2.2595  4.1108
  990MOL0     H33623   9.687   6.448   9.333  0.3872 -1.5388  3.6802
  990MOL0     H33624   9.448   6.630   9.253  1.1082  1.5225 -0.1592
  990MOL0     H33625   9.603   6.693   9.265 -1.1926  0.7220 -2.9808
  990MOL0     H33626   9.527   6.617   9.019  2.2292 -0.8416 -3.1813
  990MOL0     H33627   9.516   6.462   9.089  1.2586 -0.1876 -1.2546
  990MOL0     H33628   9.784   6.579   9.128 -1.1807  0.1403  2.2448
  990MOL0     H33629   9.726   6.423   9.053  0.7226  0.9114  0.4278
  990MOL0     H33630  10.243   6.588   9.512  1.9134  2.0343 -1.8788
  990MOL0     H33631  10.458   6.577   9.635  0.6434  0.7890 -3.5809
  990MOL0     H33632  10.727   6.487  10.045  1.9105 -0.8236 -0.1326
  990MOL0     H33633  10.912   6.540  10.190 -0.7413 -0.3566  0.8645
  990MOL0     H33634   9.643   7.325  10.997  2.2144  0.8910  1.2409
  990MOL0     H33635   9.438   7.440  10.977  1.3338 -1.2315 -2.7154
  990MOL0     H33636   9.172   7.608  11.002  0.3566 -2.7044  0.7814
  990MOL0     H33637   9.042   7.785  10.906  0.4815  0.5669  1.2111
  990MOL0     H33638   8.589   7.794  10.999  0.6360  0.9589 -0.3085
  990MOL0     H33639   8.588   7.689  10.854  1.0826  0.4094  1.0833
  990MOL0     H33640   8.600   8.001  10.889 -3.6713  1.1165  1.1839
  990MOL0     H33641   8.462   7.906  10.861  0.1158  2.0576 -2.1797
  990MOL0     H33642   8.514   7.849  10.632  1.6502  0.0747 -1.5864
  990MOL0     H33643   8.683   7.897  10.649  1.5486 -0.4976  3.4740
  990MOL0     H33644   8.582   8.125  10.700 -0.7346  1.9759 -2.0213
  990MOL0     H33645   8.575   8.075  10.531 -2.3856 -1.7517 -1.3807
  990MOL0     H33646   8.176   8.137  10.577  0.5469  0.1354 -1.0679
  990MOL0     H33647   8.698   7.602  11.077 -1.1558 -2.6418  0.0476
  990MOL0     H33648   8.712   7.430  11.204 -0.0115  1.7049 -2.2317
  990MOL0     H33649   8.794   7.291  11.097  4.0085 -2.8985  2.6906
  990MOL0     H33650   8.864   7.350  11.241  0.0854  3.3185  1.6295
  991MOL0     O33651   0.906   2.922   8.085  0.1015  0.2659 -0.1653
  991MOL0     C33652   0.986   2.841   8.050 -0.3323  0.7128 -0.3791
  991MOL0     O33653   1.104   2.873   8.005  1.0202 -0.0735 -0.9447
  991MOL0     C33654   1.165   2.993   8.031  0.5345 -0.8118  1.0153
  991MOL0     C33655   1.184   3.033   8.160  0.3605 -0.2937 -0.1357
  991MOL0     C33656   1.261   3.152   8.181  0.0307  0.3989 -0.2390
  991MOL0     C33657   1.324   3.221   8.082 -0.8970  0.6650  0.3767
  991MOL0     O33658   1.399   3.332   8.114  0.0611 -0.4377 -0.3211
  991MOL0     C33659   1.434   3.425   8.014  0.6843  0.5475  1.0103
  991MOL0     C33660   1.542   3.518   8.074 -0.4141 -0.4979 -0.3278
  991MOL0     C33661   1.684   3.474   8.106 -0.3089 -0.5552 -0.4058
  991MOL0     C33662   1.729   3.363   8.015  0.1235 -0.0143  0.6415
  991MOL0     C33663   1.883   3.344   8.012  0.3068  0.3969 -0.2395
  991MOL0     C33664   1.916   3.236   7.922  0.6276  0.3418  0.6639
  991MOL0     C33665   2.066   3.209   7.921  0.3312  0.5127  1.5267
  991MOL0     C33666   2.113   3.085   7.840 -1.2545  0.3538  0.6093
  991MOL0     N33667   2.258   3.051   7.847  0.4684  0.1417  0.3037
  991MOL0     C33668   2.356   3.099   7.767 -0.0167  0.6141 -0.1201
  991MOL0     C33669   2.479   3.056   7.814  0.6997 -0.1254  0.5471
  991MOL0     C33670   2.622   3.101   7.777 -0.8415 -0.1460 -0.0848
  991MOL0     C33671   2.658   3.036   7.640  0.5744  0.1877 -0.0898
  991MOL0     C33672   2.765   3.111   7.564 -0.5125 -0.3550 -0.7167
  991MOL0     C33673   2.902   3.093   7.620  0.0693 -0.1190 -0.5399
  991MOL0     O33674   2.928   2.951   7.621 -0.8080  0.1181  0.3129
  991MOL0     C33675   3.055   2.900   7.621 -0.2032  0.4484 -0.0197
  991MOL0     C33676   3.073   2.768   7.647  1.0037  0.9156 -0.0701
  991MOL0     C33677   3.182   2.698   7.674 -0.7352 -0.7956  1.1637
  991MOL0     C33678   3.306   2.769   7.666 -0.1242 -1.0127  0.2792
  991MOL0     C33679   3.432   2.693   7.676 -0.3978 -0.0987  0.6543
  991MOL0     O33680   3.555   2.755   7.655 -0.0738 -0.5271  0.3501
  991MOL0     C33681   3.655   2.667   7.647 -0.4509  1.5172 -0.5310
  991MOL0     C33682   3.723   2.627   7.766 -0.5248 -0.2424 -0.0702
  991MOL0     C33683   3.826   2.528   7.758  0.5766  0.4260 -0.5769
  991MOL0     C33684   3.854   2.457   7.641  0.1281 -1.0387  0.2439
  991MOL0     O33685   3.958   2.366   7.632 -0.2524  0.3312 -0.5064
  991MOL0     C33686   4.006   2.306   7.757 -0.6803  0.0613  0.8736
  991MOL0     C33687   4.110   2.196   7.720  0.0733 -0.2702  0.0990
  991MOL0     C33688   4.247   2.244   7.652  0.6954  0.2799  0.0720
  991MOL0     C33689   4.332   2.125   7.629 -0.6607  0.3225 -0.4810
  991MOL0     C33690   4.483   2.144   7.576  0.2507 -0.0662 -0.8523
  991MOL0     C33691   4.500   2.243   7.464  0.4850  0.4254 -0.0703
  991MOL0     C33692   4.644   2.263   7.415  0.4181  0.3106  0.3592
  991MOL0     C33693   4.645   2.354   7.292  0.1182  0.1258  0.7468
  991MOL0    Cl33694   4.638   2.237   7.152 -0.0307  0.1351 -0.2366
  991MOL0     C33695   3.785   2.488   7.529  0.3633  0.2190 -0.2500
  991MOL0     C33696   3.684   2.589   7.530 -0.8183 -0.6999 -0.6861
  991MOL0     O33697   3.418   2.575   7.711  0.4433  0.2012 -0.2323
  991MOL0     C33698   3.304   2.909   7.625  0.6777  0.4618  0.2762
  991MOL0     C33699   3.178   2.975   7.613 -0.7890  0.4293  1.7545
  991MOL0     N33700   2.433   2.979   7.920 -1.1045  0.3293 -0.1887
  991MOL0     N33701   2.308   2.983   7.950 -0.4321 -1.2159  0.1423
  991MOL0     C33702   1.298   3.183   7.951  1.1666  1.0057 -0.7439
  991MOL0     C33703   1.215   3.075   7.924  0.2543  0.5992 -0.6821
  991MOL0     C33704   0.959   2.695   8.068 -0.0004 -0.6914  1.0631
  991MOL0     C33705   0.834   2.664   8.129  0.4247 -0.2769  0.1902
  991MOL0     C33706   0.798   2.535   8.151 -0.2016  0.7020  0.3258
  991MOL0     C33707   0.878   2.422   8.106  0.2358 -0.2188 -1.1743
  991MOL0     O33708   0.828   2.298   8.125 -0.0073  0.1867 -0.0767
  991MOL0     C33709   0.855   2.242   8.252  0.2727  0.0488  0.5066
  991MOL0     C33710   0.910   2.098   8.236  0.0831 -0.7448 -0.7455
  991MOL0     C33711   0.814   1.990   8.175 -0.2182 -0.2716 -0.2019
  991MOL0     C33712   0.872   1.846   8.166 -0.5505 -0.1511 -0.6778
  991MOL0     C33713   0.929   1.781   8.285 -0.0763  0.7113  0.6975
  991MOL0     C33714   0.957   1.737   8.387 -0.0220 -0.7865 -0.6812
  991MOL0     C33715   1.001   2.453   8.056 -0.6627  0.5565  0.3502
  991MOL0     C33716   1.039   2.586   8.029  0.1105 -0.0475 -0.1337
  991MOL0     C33717   1.177   2.601   7.968  0.8983 -0.1684  0.2148
  991MOL0     H33718   1.134   2.998   8.250  0.2158  0.6710  0.1720
  991MOL0     H33719   1.258   3.192   8.282 -1.7923 -2.3156  0.8879
  991MOL0     H33720   1.463   3.376   7.921 -4.8610 -0.4015 -0.5811
  991MOL0     H33721   1.347   3.483   7.981 -0.2499 -2.4833 -2.6639
  991MOL0     H33722   1.507   3.568   8.166  0.2577  1.8641 -1.2734
  991MOL0     H33723   1.546   3.599   8.001  0.7778 -0.6001 -0.3833
  991MOL0     H33724   1.683   3.442   8.210  1.8460  2.9052  0.8387
  991MOL0     H33725   1.751   3.560   8.100 -0.6718 -0.2465 -0.0748
  991MOL0     H33726   1.678   3.270   8.040  1.6840 -1.3851 -0.9567
  991MOL0     H33727   1.696   3.379   7.912  1.5918 -1.8034 -0.1639
  991MOL0     H33728   1.930   3.432   7.967 -3.5936  2.2380 -1.1416
  991MOL0     H33729   1.909   3.327   8.117 -2.0952  1.9028  0.6679
  991MOL0     H33730   1.858   3.147   7.946  1.2537 -0.4398 -0.5952
  991MOL0     H33731   1.882   3.278   7.827  0.8220  1.4954  1.0823
  991MOL0     H33732   2.082   3.173   8.023  0.0745  1.0247  1.7517
  991MOL0     H33733   2.128   3.294   7.893  0.7795 -0.4903 -0.7579
  991MOL0     H33734   2.051   2.996   7.858  1.2653 -2.4094 -2.9501
  991MOL0     H33735   2.093   3.120   7.738  1.5016 -0.3085 -0.2458
  991MOL0     H33736   2.337   3.173   7.689 -0.1234  2.1728  1.3295
  991MOL0     H33737   2.624   3.208   7.752  3.1853 -0.5621 -2.3514
  991MOL0     H33738   2.704   3.099   7.850  0.5075  2.2337 -1.4162
  991MOL0     H33739   2.679   2.928   7.648 -1.6246 -0.3075 -0.4648
  991MOL0     H33740   2.566   3.056   7.585 -0.0024 -1.1388  0.3471
  991MOL0     H33741   2.732   3.215   7.558 -0.7816 -0.2927  1.2065
  991MOL0     H33742   2.766   3.069   7.463  1.7875 -0.9289 -0.5082
  991MOL0     H33743   2.901   3.144   7.717 -1.5883 -0.7766 -0.1763
  991MOL0     H33744   2.979   3.132   7.553 -0.0465  1.2000  0.0638
  991MOL0     H33745   2.981   2.716   7.620 -0.5324  3.1385  0.6356
  991MOL0     H33746   3.189   2.590   7.674  1.5837 -0.8005 -1.9985
  991MOL0     H33747   3.723   2.697   7.848 -0.7505  1.2911 -1.3219
  991MOL0     H33748   3.879   2.512   7.852 -0.6239  1.8690  0.3961
  991MOL0     H33749   4.054   2.385   7.816 -1.1796  1.5045 -0.5731
  991MOL0     H33750   3.930   2.262   7.822 -1.8653  1.1019  0.2497
  991MOL0     H33751   4.132   2.144   7.814  3.9521 -2.8526 -1.9632
  991MOL0     H33752   4.057   2.122   7.659 -3.3604  0.1135  2.3631
  991MOL0     H33753   4.234   2.293   7.556  2.5394  2.0472  0.6716
  991MOL0     H33754   4.300   2.308   7.723 -0.7890  0.3920  1.1462
  991MOL0     H33755   4.275   2.053   7.571 -2.7965  0.0017  1.8514
  991MOL0     H33756   4.340   2.077   7.727 -1.3200 -0.5542 -0.8428
  991MOL0     H33757   4.515   2.040   7.563  0.1606 -0.5468  2.0829
  991MOL0     H33758   4.541   2.177   7.662  0.2210 -3.6101  0.7162
  991MOL0     H33759   4.436   2.218   7.379  1.8263  0.1105 -1.0135
  991MOL0     H33760   4.471   2.341   7.503  2.0178  1.0517 -0.4347
  991MOL0     H33761   4.697   2.169   7.395  2.8533  1.2613  1.9691
  991MOL0     H33762   4.685   2.325   7.494 -0.1021  0.2605  0.6776
  991MOL0     H33763   4.563   2.427   7.294 -0.4480 -0.5206  1.1640
  991MOL0     H33764   4.745   2.399   7.280  1.2440 -2.6537 -1.2706
  991MOL0     H33765   3.812   2.439   7.437  0.0417 -0.3171 -0.0598
  991MOL0     H33766   3.647   2.622   7.433 -1.2433  2.0534  0.3070
  991MOL0     H33767   3.388   2.975   7.605 -0.6129  1.6104 -1.8577
  991MOL0     H33768   3.187   3.079   7.582  1.0569 -0.2114 -0.1477
  991MOL0     H33769   1.326   3.230   7.858 -0.3074 -0.3672 -1.9250
  991MOL0     H33770   1.187   3.040   7.826  0.6324 -1.2465 -0.1606
  991MOL0     H33771   0.757   2.732   8.164  0.3129 -1.0930  1.6050
  991MOL0     H33772   0.699   2.518   8.193 -0.7693  2.7942 -0.0273
  991MOL0     H33773   0.762   2.233   8.309 -0.7536 -2.7532 -1.3707
  991MOL0     H33774   0.920   2.315   8.300 -1.1094  2.4141 -0.9850
  991MOL0     H33775   0.944   2.056   8.332  0.1918 -1.9510 -1.2995
  991MOL0     H33776   0.997   2.119   8.173  1.3436  0.3471  1.2471
  991MOL0     H33777   0.789   2.019   8.072 -0.4579  2.1373  0.4556
  991MOL0     H33778   0.712   1.987   8.214  0.3829 -0.2086  1.4341
  991MOL0     H33779   0.793   1.785   8.122 -1.8852  0.9961  0.0664
  991MOL0     H33780   0.955   1.853   8.095  0.8023  1.2217  0.9560
  991MOL0     H33781   1.002   1.703   8.478  0.5398  1.8945  0.1290
  991MOL0     H33782   1.064   2.370   8.025 -1.7055  0.5391 -1.8903
  991MOL0     H33783   1.253   2.646   8.033  1.5875  1.1611 -1.4238
  991MOL0     H33784   1.210   2.503   7.933  3.3788  0.6853  0.0245
  991MOL0     H33785   1.164   2.669   7.883  1.1548  2.8694  2.4322
  992MOL0     O33786   6.650   1.985   5.616 -0.7468  1.0286 -0.4907
  992MOL0     C33787   6.698   2.005   5.502 -0.0784 -0.1026  0.0367
  992MOL0     O33788   6.626   1.987   5.388  0.8304 -0.3527 -0.2052
  992MOL0     C33789   6.503   1.927   5.407 -0.1501  1.0215  0.4983
  992MOL0     C33790   6.504   1.796   5.453 -0.5085  1.0672 -0.7405
  992MOL0     C33791   6.391   1.719   5.474 -0.7655 -0.5682  0.3541
  992MOL0     C33792   6.268   1.771   5.425  1.2541  0.8485  0.1906
  992MOL0     O33793   6.139   1.713   5.431 -0.2237 -0.6046 -0.2356
  992MOL0     C33794   6.112   1.632   5.546  0.1489 -0.1874  0.5445
  992MOL0     C33795   5.973   1.595   5.516 -0.5701  0.2601  0.5709
  992MOL0     C33796   5.885   1.715   5.547  0.6952  0.6466 -0.9461
  992MOL0     C33797   5.744   1.680   5.497  0.2698 -1.0055 -0.2240
  992MOL0     C33798   5.648   1.801   5.532 -0.9112  0.4970 -0.5700
  992MOL0     C33799   5.645   1.851   5.679  0.3711  0.5610 -0.9779
  992MOL0     C33800   5.608   1.735   5.776 -0.1174  0.1729  0.6192
  992MOL0     C33801   5.460   1.677   5.761 -0.8341 -0.4000  0.5546
  992MOL0     N33802   5.455   1.559   5.843  0.5674  0.4711  0.2574
  992MOL0     C33803   5.485   1.543   5.977  0.6285 -0.4274 -0.3339
  992MOL0     C33804   5.486   1.410   6.005  0.7997 -0.2183  0.1379
  992MOL0     C33805   5.527   1.334   6.130 -1.0419  0.2353 -0.3209
  992MOL0     C33806   5.434   1.213   6.146 -0.9867 -0.3561 -0.3456
  992MOL0     C33807   5.484   1.142   6.275 -0.6275 -0.8371 -0.3490
  992MOL0     C33808   5.386   1.042   6.329 -0.6872  0.7507 -0.2013
  992MOL0     O33809   5.253   1.095   6.360  0.7054  0.9816  0.0578
  992MOL0     C33810   5.248   1.163   6.478  0.0101  0.2120  0.2747
  992MOL0     C33811   5.123   1.213   6.512  0.4608 -0.6004  0.3672
  992MOL0     C33812   5.096   1.284   6.624  0.1062 -0.5395 -0.5335
  992MOL0     C33813   5.203   1.333   6.698  0.3039 -0.7957 -0.1914
  992MOL0     C33814   5.182   1.439   6.794 -0.3215  0.6403 -0.4381
  992MOL0     O33815   5.067   1.518   6.774  0.3433 -0.2062  0.4243
  992MOL0     C33816   5.046   1.631   6.849  0.0365  0.2361 -0.6939
  992MOL0     C33817   5.123   1.747   6.821 -0.6263  0.5472  0.0362
  992MOL0     C33818   5.112   1.865   6.891 -0.3417  0.2812  0.5644
  992MOL0     C33819   5.019   1.868   7.002 -0.6470  0.0700  0.2178
  992MOL0     O33820   4.992   1.983   7.071  1.1117  0.6416  0.0383
  992MOL0     C33821   5.099   2.075   7.110 -0.0916  0.1442  0.4812
  992MOL0     C33822   5.032   2.186   7.189  0.3341 -0.7746  1.0637
  992MOL0     C33823   5.004   2.122   7.325  0.1909  0.0452  0.1213
  992MOL0     C33824   4.997   2.223   7.435  0.4965 -0.4002  0.1200
  992MOL0     C33825   5.121   2.227   7.527  0.4664  0.8751  1.0328
  992MOL0     C33826   5.086   2.277   7.673  0.6331  0.4982  0.8602
  992MOL0     C33827   5.051   2.423   7.690 -1.2769  0.1061  0.0350
  992MOL0     C33828   4.982   2.450   7.817  0.2238  0.1076 -0.2584
  992MOL0    Cl33829   5.109   2.450   7.945  0.3586  0.3217  0.1499
  992MOL0     C33830   4.947   1.754   7.038  0.5362 -0.0205 -0.1924
  992MOL0     C33831   4.956   1.639   6.958  0.2784  0.2526 -0.7870
  992MOL0     O33832   5.276   1.460   6.869  0.1441 -0.4519 -0.0082
  992MOL0     C33833   5.332   1.290   6.665 -0.5746 -0.2836  0.5297
  992MOL0     C33834   5.351   1.203   6.556 -0.2791 -0.5716  0.2130
  992MOL0     N33835   5.447   1.344   5.890 -0.2163 -0.7356  0.3202
  992MOL0     N33836   5.432   1.431   5.796  0.2524 -0.4045  1.2266
  992MOL0     C33837   6.271   1.891   5.357  0.1909 -0.4052 -0.5166
  992MOL0     C33838   6.386   1.966   5.345 -0.0568  0.1222 -0.2231
  992MOL0     C33839   6.843   2.050   5.497 -0.5824 -0.3212 -0.1130
  992MOL0     C33840   6.919   2.067   5.621  0.6387 -0.3260  0.2142
  992MOL0     C33841   7.054   2.105   5.623  0.2493  0.7136 -0.1799
  992MOL0     C33842   7.122   2.127   5.506 -0.5914  0.0307 -0.2128
  992MOL0     O33843   7.247   2.184   5.510  0.1172  0.8860 -0.3241
  992MOL0     C33844   7.359   2.135   5.590 -0.1150 -0.7507  0.1267
  992MOL0     C33845   7.476   2.091   5.503 -0.0462 -0.0826 -0.3724
  992MOL0     C33846   7.502   2.192   5.389 -0.1712 -0.3062  0.3044
  992MOL0     C33847   7.647   2.237   5.386  1.2392 -0.1910 -0.4207
  992MOL0     C33848   7.682   2.318   5.502  0.2867 -0.4639 -0.7409
  992MOL0     C33849   7.708   2.381   5.606 -0.5841 -0.9334  0.1862
  992MOL0     C33850   7.049   2.124   5.389  0.9251 -0.6693  0.4081
  992MOL0     C33851   6.918   2.072   5.382  0.7004 -0.0136 -0.0907
  992MOL0     C33852   6.856   2.046   5.251 -0.6407  0.4876  0.7929
  992MOL0     H33853   6.589   1.740   5.491 -1.8876 -0.0563  0.9185
  992MOL0     H33854   6.399   1.624   5.526 -3.0478  1.1318  4.2407
  992MOL0     H33855   6.174   1.543   5.550 -0.7485 -0.8475  0.1547
  992MOL0     H33856   6.120   1.690   5.639 -1.6146 -1.4759  1.5705
  992MOL0     H33857   5.930   1.511   5.572 -2.0065  0.8016  0.3398
  992MOL0     H33858   5.954   1.559   5.415 -0.9812 -0.1153  0.7763
  992MOL0     H33859   5.915   1.797   5.481 -1.3126  1.4072 -0.9685
  992MOL0     H33860   5.885   1.740   5.653  1.5216 -2.5916 -0.0555
  992MOL0     H33861   5.752   1.679   5.388  0.7871 -1.5205 -0.1861
  992MOL0     H33862   5.697   1.588   5.534 -3.4989  0.1853 -1.6317
  992MOL0     H33863   5.692   1.884   5.476  3.3252 -0.5868  0.7054
  992MOL0     H33864   5.547   1.770   5.504 -1.3864  1.5398 -0.0321
  992MOL0     H33865   5.735   1.906   5.709 -0.0864 -0.0332  1.6549
  992MOL0     H33866   5.563   1.924   5.679  0.1539  0.3383  0.6562
  992MOL0     H33867   5.621   1.778   5.876 -1.2251  0.9748  0.4278
  992MOL0     H33868   5.681   1.655   5.761 -2.3058 -1.5503 -1.6810
  992MOL0     H33869   5.383   1.753   5.782 -1.5677 -0.7994 -0.5669
  992MOL0     H33870   5.432   1.642   5.661 -0.1873 -2.2706  0.9990
  992MOL0     H33871   5.522   1.621   6.042  0.0607  2.2263 -2.9963
  992MOL0     H33872   5.628   1.300   6.107 -0.9596  1.4937 -2.0543
  992MOL0     H33873   5.522   1.401   6.216 -1.2974  0.1975 -0.3048
  992MOL0     H33874   5.335   1.258   6.156 -1.2047 -0.7112 -0.8593
  992MOL0     H33875   5.452   1.149   6.059 -1.6505 -2.6817  1.1377
  992MOL0     H33876   5.522   1.214   6.349 -1.4551 -1.7474  1.0117
  992MOL0     H33877   5.573   1.085   6.246  1.5012  0.4248  2.9570
  992MOL0     H33878   5.433   0.996   6.416 -3.2133  0.6889  1.2285
  992MOL0     H33879   5.383   0.967   6.249  1.9661  1.7976 -1.4206
  992MOL0     H33880   5.040   1.174   6.454  0.5476 -1.2147  0.6500
  992MOL0     H33881   4.992   1.311   6.639 -0.3281 -0.6246 -2.9490
  992MOL0     H33882   5.196   1.739   6.741  0.3751 -1.4886  1.0651
  992MOL0     H33883   5.173   1.954   6.874 -1.4149  1.9807  4.4846
  992MOL0     H33884   5.176   2.028   7.172 -1.3977  0.6620  2.6080
  992MOL0     H33885   5.157   2.104   7.023  0.0641 -0.1340  0.4913
  992MOL0     H33886   5.099   2.273   7.195 -2.1339  1.4659 -0.8256
  992MOL0     H33887   4.946   2.232   7.138  0.4686 -1.2321  0.4139
  992MOL0     H33888   4.900   2.087   7.323 -1.1514  3.3766  2.5928
  992MOL0     H33889   5.081   2.046   7.341 -0.6584 -1.1158 -1.0534
  992MOL0     H33890   4.923   2.188   7.508  1.8004 -1.7188  0.8527
  992MOL0     H33891   4.956   2.313   7.387 -0.4332 -0.5090  0.6675
  992MOL0     H33892   5.206   2.278   7.481 -0.2831  0.8815 -0.4105
  992MOL0     H33893   5.142   2.121   7.543 -0.4547  0.7383  1.3898
  992MOL0     H33894   4.997   2.224   7.707  3.7303 -3.4630  3.7897
  992MOL0     H33895   5.177   2.257   7.731  1.6398 -2.4515 -1.4680
  992MOL0     H33896   4.978   2.449   7.612 -1.1239 -2.8477 -1.2533
  992MOL0     H33897   5.139   2.486   7.675  0.1854 -1.6544  0.8866
  992MOL0     H33898   4.949   2.554   7.803  1.3903  0.5695  0.2811
  992MOL0     H33899   4.902   2.379   7.838  1.1516 -1.1978 -0.9540
  992MOL0     H33900   4.872   1.753   7.116 -1.0402 -4.4588 -1.5188
  992MOL0     H33901   4.895   1.554   6.985 -1.5500  0.3853 -3.9849
  992MOL0     H33902   5.415   1.325   6.724 -1.9425  0.1229  2.2851
  992MOL0     H33903   5.452   1.165   6.540 -0.1413 -0.3937  0.6412
  992MOL0     H33904   6.180   1.934   5.315 -0.0811 -1.0431 -0.5952
  992MOL0     H33905   6.395   2.065   5.300 -3.4756  0.9587  0.6347
  992MOL0     H33906   6.867   2.068   5.716  2.5582 -0.1863  1.3187
  992MOL0     H33907   7.111   2.099   5.715 -1.3779 -1.5671  0.7854
  992MOL0     H33908   7.325   2.058   5.659  4.6657 -0.7899  2.9230
  992MOL0     H33909   7.399   2.216   5.652 -1.0328 -1.1711  1.2917
  992MOL0     H33910   7.459   1.990   5.464 -0.2911  0.3426 -1.4051
  992MOL0     H33911   7.565   2.083   5.567  0.0851  0.3031 -0.5034
  992MOL0     H33912   7.440   2.282   5.401 -0.8503 -0.4342 -1.7084
  992MOL0     H33913   7.470   2.156   5.290  0.2307  1.6837 -0.6013
  992MOL0     H33914   7.709   2.150   5.365  0.3509 -1.2024  0.9923
  992MOL0     H33915   7.675   2.306   5.305  3.5948 -0.3178  0.2128
  992MOL0     H33916   7.740   2.437   5.691 -0.4514 -3.1808  1.6940
  992MOL0     H33917   7.105   2.160   5.304  1.3475 -0.9999  0.5412
  992MOL0     H33918   6.841   1.938   5.246  0.0628  0.4560 -1.8526
  992MOL0     H33919   6.762   2.092   5.222 -1.9204 -1.9630  0.7922
  992MOL0     H33920   6.922   2.082   5.172  1.4299  0.5372  2.4478
  993MOL0     O33921   3.400   2.181  10.458  0.5994  0.2340 -0.0445
  993MOL0     C33922   3.332   2.133  10.379  0.5279 -0.4960  0.1067
  993MOL0     O33923   3.372   2.092  10.247  0.0278  0.1517  0.3834
  993MOL0     C33924   3.475   2.159  10.193 -0.3215 -0.2191 -1.0708
  993MOL0     C33925   3.452   2.283  10.132 -1.1047 -1.0623 -0.2315
  993MOL0     C33926   3.556   2.352  10.066  0.2665  0.0752  0.0761
  993MOL0     C33927   3.681   2.298  10.050 -0.1024 -0.9270  0.2992
  993MOL0     O33928   3.787   2.358   9.978 -0.6922 -0.4779  0.0425
  993MOL0     C33929   3.796   2.499   9.991 -0.3284 -0.6298 -0.3921
  993MOL0     C33930   3.939   2.557   9.982  0.8746  1.2764  0.5595
  993MOL0     C33931   4.027   2.487   9.881  0.0608 -0.6897  0.5954
  993MOL0     C33932   4.094   2.588   9.790 -0.0110  0.8563  0.8454
  993MOL0     C33933   4.163   2.494   9.679  0.4806  0.1819  0.1685
  993MOL0     C33934   4.278   2.566   9.605 -0.1644  0.0453 -0.1489
  993MOL0     C33935   4.408   2.583   9.675 -0.5823  0.7705 -0.5362
  993MOL0     C33936   4.479   2.463   9.746 -0.0093  0.5563  0.4756
  993MOL0     N33937   4.606   2.507   9.796 -0.2650  0.9565 -0.3397
  993MOL0     C33938   4.716   2.532   9.718  0.6570  0.0280  0.2787
  993MOL0     C33939   4.825   2.541   9.800  1.0496 -0.1342  0.5245
  993MOL0     C33940   4.966   2.590   9.762 -0.3851 -0.5200 -0.5016
  993MOL0     C33941   5.053   2.470   9.761  0.8233  0.2574 -0.0316
  993MOL0     C33942   5.202   2.510   9.745 -0.2703  0.6165 -0.7005
  993MOL0     C33943   5.290   2.391   9.744 -1.0391  0.4169 -0.2085
  993MOL0     O33944   5.426   2.434   9.752 -0.3555  0.7015 -0.1908
  993MOL0     C33945   5.522   2.338   9.789 -0.8950  1.4117  0.2052
  993MOL0     C33946   5.657   2.387   9.780  0.4705  0.4877  0.1907
  993MOL0     C33947   5.768   2.296   9.804  0.6087 -0.0562  0.1460
  993MOL0     C33948   5.753   2.165   9.846  0.1038  0.4264 -0.2983
  993MOL0     C33949   5.880   2.085   9.876 -0.2062 -0.6250 -0.3208
  993MOL0     O33950   6.001   2.158   9.869  0.1232 -0.3943  1.0569
  993MOL0     C33951   6.134   2.103   9.882  0.2963  0.3017 -0.7902
  993MOL0     C33952   6.168   1.961   9.871 -0.0818  0.5025 -0.7063
  993MOL0     C33953   6.304   1.921   9.870  0.0897  0.1967 -0.2140
  993MOL0     C33954   6.399   2.019   9.871 -0.7667  0.2110 -0.1965
  993MOL0     O33955   6.538   1.988   9.880  0.2963  0.0200 -0.2158
  993MOL0     C33956   6.612   2.024  10.003 -0.4679 -0.5967  0.5539
  993MOL0     C33957   6.726   1.920  10.009 -0.1270 -0.2906 -0.2631
  993MOL0     C33958   6.679   1.786  10.080 -0.6121  0.7953 -0.5386
  993MOL0     C33959   6.804   1.693  10.106 -0.1326 -0.6274  0.0587
  993MOL0     C33960   6.765   1.570  10.180  0.7531 -0.1875 -0.2817
  993MOL0     C33961   6.887   1.480  10.189 -0.5363  0.0926 -0.3997
  993MOL0     C33962   6.856   1.360  10.277  1.1963 -0.5618  0.1619
  993MOL0     C33963   6.959   1.249  10.278 -0.4305 -0.1409  0.4773
  993MOL0    Cl33964   6.886   1.120  10.388  0.5329  0.0816  0.1620
  993MOL0     C33965   6.369   2.160   9.887  0.6633  0.1213  0.3700
  993MOL0     C33966   6.238   2.196   9.897  0.8764  0.1116  0.1822
  993MOL0     O33967   5.873   1.970   9.915  0.1287  0.1234 -0.1130
  993MOL0     C33968   5.620   2.120   9.861  0.4523  0.1839  0.8061
  993MOL0     C33969   5.505   2.204   9.835 -0.4966  0.1476  0.2153
  993MOL0     N33970   4.778   2.503   9.932  0.1088 -0.4882  0.4850
  993MOL0     N33971   4.650   2.488   9.920  0.2411 -0.3848  0.6347
  993MOL0     C33972   3.703   2.176  10.111 -0.6989 -0.2655 -0.7557
  993MOL0     C33973   3.606   2.108  10.188  0.1346 -0.6314  0.4252
  993MOL0     C33974   3.188   2.111  10.422  1.3316 -0.3140  0.4821
  993MOL0     C33975   3.101   2.046  10.326  0.0666  0.1838  0.2329
  993MOL0     C33976   2.967   2.015  10.343  0.0837  0.1523 -0.9329
  993MOL0     C33977   2.909   2.043  10.466 -0.3506  0.7499 -0.4083
  993MOL0     O33978   2.781   2.013  10.498 -1.1328 -0.6000  0.8454
  993MOL0     C33979   2.691   1.990  10.396 -0.6894 -1.1689 -0.4852
  993MOL0     C33980   2.570   1.938  10.453  0.1632  0.4025 -1.5113
  993MOL0     C33981   2.495   2.038  10.546  0.0148 -0.6574 -0.0139
  993MOL0     C33982   2.362   2.071  10.500  0.1682 -0.3549 -0.7194
  993MOL0     C33983   2.276   1.952  10.533 -0.1632 -0.5436 -0.3894
  993MOL0     C33984   2.221   1.849  10.583 -0.1479 -0.3784  0.4145
  993MOL0     C33985   2.982   2.107  10.564  0.4924  0.0751  0.2798
  993MOL0     C33986   3.117   2.146  10.542 -0.0757  0.2235 -0.0262
  993MOL0     C33987   3.194   2.221  10.652  0.4600 -0.9293 -0.3873
  993MOL0     H33988   3.354   2.329  10.135  0.8416  3.5743  1.6302
  993MOL0     H33989   3.540   2.449  10.020 -0.3612 -0.0961 -0.0776
  993MOL0     H33990   3.745   2.543   9.905  3.3735 -0.5139 -2.7778
  993MOL0     H33991   3.763   2.537  10.088 -0.1872 -2.5123  0.4393
  993MOL0     H33992   3.989   2.553  10.079  0.1621  0.8475  0.9196
  993MOL0     H33993   3.937   2.666   9.972  1.7192  1.3341  0.9432
  993MOL0     H33994   3.970   2.414   9.823 -0.3197 -1.6271  2.0908
  993MOL0     H33995   4.100   2.432   9.941 -1.5053 -0.1866  3.1100
  993MOL0     H33996   4.015   2.647   9.743 -3.2915 -2.4081  1.7862
  993MOL0     H33997   4.163   2.649   9.848  0.3395 -0.2781  1.6688
  993MOL0     H33998   4.209   2.405   9.721  0.8774 -0.8945 -2.3574
  993MOL0     H33999   4.077   2.467   9.617 -0.2672  3.1394 -0.2442
  993MOL0     H34000   4.295   2.507   9.514 -0.5488  1.5822 -1.2541
  993MOL0     H34001   4.247   2.664   9.568  2.3487  1.7419  1.8662
  993MOL0     H34002   4.391   2.661   9.750  0.6059  1.3390 -0.8479
  993MOL0     H34003   4.477   2.637   9.610  0.7106 -2.1401 -1.7566
  993MOL0     H34004   4.410   2.431   9.825 -1.7421  5.7244  1.4430
  993MOL0     H34005   4.491   2.377   9.680 -1.5822 -2.3613  3.6536
  993MOL0     H34006   4.717   2.533   9.609  0.7695 -0.6330  0.2693
  993MOL0     H34007   4.963   2.641   9.665 -0.2701 -0.5618 -0.5273
  993MOL0     H34008   5.001   2.663   9.835 -1.1985  0.8955 -1.4568
  993MOL0     H34009   5.037   2.415   9.854  1.3989  1.1405  0.6066
  993MOL0     H34010   5.027   2.403   9.678  0.9732  1.1039 -0.7828
  993MOL0     H34011   5.236   2.555   9.839 -2.2649  0.9128 -0.0832
  993MOL0     H34012   5.222   2.574   9.659  0.6689  0.6048 -0.5035
  993MOL0     H34013   5.278   2.339   9.649  3.0192 -2.0685  0.3937
  993MOL0     H34014   5.252   2.320   9.819  0.0608  1.8639  1.8159
  993MOL0     H34015   5.692   2.485   9.751  1.7443 -0.3211 -1.1548
  993MOL0     H34016   5.860   2.354   9.803 -0.2960  1.4676 -1.1803
  993MOL0     H34017   6.092   1.890   9.842 -0.5182  1.9818 -3.5810
  993MOL0     H34018   6.340   1.819   9.862 -0.0463  0.0994  0.3538
  993MOL0     H34019   6.644   2.124   9.975 -2.8760 -0.0420 -0.4558
  993MOL0     H34020   6.548   2.032  10.092 -1.4917  2.3365 -0.3413
  993MOL0     H34021   6.781   1.896   9.918  0.9360  0.2394  0.2313
  993MOL0     H34022   6.810   1.966  10.061  1.2062 -0.0956 -2.4549
  993MOL0     H34023   6.622   1.813  10.169  1.1278  2.4509  0.1461
  993MOL0     H34024   6.609   1.723  10.025  0.2290 -0.7610  0.1374
  993MOL0     H34025   6.884   1.744  10.160  0.4105 -2.2749  0.8931
  993MOL0     H34026   6.860   1.675  10.013  0.9508  1.6495  0.1998
  993MOL0     H34027   6.686   1.514  10.130  1.1600 -0.4309 -0.6612
  993MOL0     H34028   6.712   1.580  10.276  1.3348 -0.3015  0.0585
  993MOL0     H34029   6.911   1.445  10.089  1.1573  1.9279 -0.6893
  993MOL0     H34030   6.969   1.538  10.232 -1.3285  0.5747  0.5283
  993MOL0     H34031   6.756   1.327  10.249  0.2706  1.8739  0.3634
  993MOL0     H34032   6.843   1.397  10.379  0.6045  3.2029 -1.1054
  993MOL0     H34033   6.977   1.223  10.174 -1.4577 -2.1075  0.7521
  993MOL0     H34034   7.047   1.279  10.336 -1.9217  1.4253  2.0847
  993MOL0     H34035   6.452   2.230   9.877  1.8003 -1.4859 -2.7024
  993MOL0     H34036   6.210   2.299   9.916 -0.7517 -0.2097 -0.3194
  993MOL0     H34037   5.603   2.018   9.895 -0.0980  0.2085  0.6223
  993MOL0     H34038   5.409   2.155   9.846 -0.9153  0.0507 -3.0541
  993MOL0     H34039   3.801   2.130  10.109  1.3344  3.6068 -0.9403
  993MOL0     H34040   3.637   2.022  10.246  1.5671 -0.9692 -0.7685
  993MOL0     H34041   3.149   2.032  10.230  0.6528  1.4349  0.3313
  993MOL0     H34042   2.921   1.967  10.258  0.1938  0.8573 -1.3979
  993MOL0     H34043   2.723   1.909  10.330 -1.8295 -0.2393 -2.2345
  993MOL0     H34044   2.665   2.079  10.337  1.0557 -0.8974 -0.8884
  993MOL0     H34045   2.590   1.857  10.524 -0.2542  1.6184  0.0687
  993MOL0     H34046   2.493   1.916  10.379  0.0016 -0.3602 -1.1208
  993MOL0     H34047   2.554   2.129  10.537  0.0523 -0.6325  0.4781
  993MOL0     H34048   2.504   2.008  10.651 -0.5572  1.3688  0.6566
  993MOL0     H34049   2.328   2.157  10.558  0.3518  0.7095 -2.1548
  993MOL0     H34050   2.343   2.103  10.398 -2.1466  2.4448  0.4374
  993MOL0     H34051   2.178   1.767  10.636  1.0691 -0.2236  1.7180
  993MOL0     H34052   2.930   2.133  10.656 -1.3205  2.4929 -1.3076
  993MOL0     H34053   3.217   2.324  10.623 -0.8820 -1.1125 -2.3414
  993MOL0     H34054   3.138   2.224  10.746  0.9128  5.8498  0.1505
  993MOL0     H34055   3.290   2.173  10.673  0.4145 -1.5252 -1.4741
  994MOL0     O34056   0.310  11.274   7.343 -0.1128  0.3462  0.8406
  994MOL0     C34057   0.274  11.354   7.254  0.4047 -0.6963  0.1309
  994MOL0     O34058   0.279  11.330   7.119 -0.0720  0.8469 -0.2420
  994MOL0     C34059   0.354  11.220   7.083 -0.0755 -0.0913 -0.2275
  994MOL0     C34060   0.308  11.089   7.063  0.4705 -0.9176 -0.5798
  994MOL0     C34061   0.387  11.000   6.999 -0.8722  0.5138 -0.2048
  994MOL0     C34062   0.514  11.032   6.946  0.4384  0.5066  0.2059
  994MOL0     O34063   0.610  10.948   6.892  0.3441  0.8779 -0.0601
  994MOL0     C34064   0.582  10.807   6.888 -0.3789  0.3808  0.3746
  994MOL0     C34065   0.596  10.753   6.738  0.4154  0.6361  0.2590
  994MOL0     C34066   0.737  10.694   6.715  0.1793 -0.0949  0.1486
  994MOL0     C34067   0.845  10.795   6.720 -0.5330  0.0422  0.9863
  994MOL0     C34068   0.969  10.743   6.667 -0.2972  0.1323  0.0766
  994MOL0     C34069   1.089  10.844   6.678  0.6374 -0.2147  0.3645
  994MOL0     C34070   1.227  10.797   6.620  0.0058 -0.2339  0.7707
  994MOL0     C34071   1.329  10.909   6.634  0.2716 -0.0567 -0.2474
  994MOL0     N34072   1.390  10.918   6.771  0.7752  0.1598 -0.3845
  994MOL0     C34073   1.523  10.911   6.813  0.3486 -0.0989  0.1661
  994MOL0     C34074   1.517  10.903   6.949 -0.9811 -0.4219  0.5632
  994MOL0     C34075   1.626  10.874   7.042 -0.5813 -0.4708 -0.3290
  994MOL0     C34076   1.614  10.733   7.116 -0.5669  0.5986  0.0094
  994MOL0     C34077   1.529  10.727   7.243 -0.0134  0.1044 -1.3120
  994MOL0     C34078   1.554  10.608   7.338  0.3167  0.5761  0.5388
  994MOL0     O34079   1.583  10.495   7.250  0.2060  0.3904 -0.2781
  994MOL0     C34080   1.679  10.402   7.280 -0.1589  1.4334  0.4322
  994MOL0     C34081   1.764  10.402   7.396  0.7382  0.2029  0.3719
  994MOL0     C34082   1.858  10.303   7.406 -0.6868  0.6979  1.1685
  994MOL0     C34083   1.875  10.203   7.310 -0.4684  0.1743  0.5733
  994MOL0     C34084   1.968  10.096   7.337  0.0683  0.5624  0.1103
  994MOL0     O34085   1.968   9.993   7.250  0.7839  0.0310  0.2351
  994MOL0     C34086   2.057   9.889   7.253 -1.2791  0.1123 -0.5766
  994MOL0     C34087   2.004   9.763   7.227  0.2228  1.0727  0.1535
  994MOL0     C34088   2.077   9.641   7.243  0.0222 -0.4909 -0.2445
  994MOL0     C34089   2.211   9.650   7.281  0.4139  0.1842  0.5722
  994MOL0     O34090   2.273   9.536   7.297 -0.0150 -0.0839 -0.5032
  994MOL0     C34091   2.395   9.517   7.366  0.0837 -0.1589  1.2360
  994MOL0     C34092   2.434   9.370   7.379 -0.0153 -0.7701  1.3492
  994MOL0     C34093   2.550   9.356   7.473 -1.4333  0.7552 -0.7688
  994MOL0     C34094   2.588   9.208   7.503 -0.0879 -0.4310 -0.5147
  994MOL0     C34095   2.711   9.222   7.600  0.1001  0.4782 -0.1962
  994MOL0     C34096   2.742   9.079   7.652  0.1457  0.0785  0.3010
  994MOL0     C34097   2.824   9.089   7.789  0.2723 -0.3619  0.2446
  994MOL0     C34098   2.880   8.953   7.829  0.4737 -0.6441  1.0573
  994MOL0    Cl34099   3.007   8.906   7.701  0.1236 -0.3343  0.1596
  994MOL0     C34100   2.263   9.772   7.306 -0.5684 -0.6463  0.0943
  994MOL0     C34101   2.195   9.895   7.289 -0.0835  0.7405  0.3950
  994MOL0     O34102   2.052  10.110   7.422  0.2577  0.0394  0.4745
  994MOL0     C34103   1.802  10.207   7.193  0.4234 -0.3443  0.2392
  994MOL0     C34104   1.699  10.311   7.180 -0.4632  0.9138 -0.3993
  994MOL0     N34105   1.388  10.904   6.990  0.8659 -0.0912 -0.3791
  994MOL0     N34106   1.309  10.929   6.890 -0.6347  0.2322  0.8260
  994MOL0     C34107   0.562  11.155   6.970  0.7971  0.7401 -0.0048
  994MOL0     C34108   0.480  11.249   7.039 -0.7056 -0.4140 -0.3480
  994MOL0     C34109   0.194  11.481   7.286 -0.4782  0.5270 -0.6826
  994MOL0     C34110   0.134  11.553   7.172  0.0499 -1.1982  0.4701
  994MOL0     C34111   0.046  11.655   7.191  1.2468  0.6614 -0.9146
  994MOL0     C34112   0.018  11.702   7.320  0.9458  1.3816  0.5656
  994MOL0     O34113  -0.082  11.797   7.335 -0.2211 -0.0078  0.8113
  994MOL0     C34114  -0.148  11.821   7.467 -1.1792 -0.2914  0.6888
  994MOL0     C34115  -0.265  11.900   7.431  0.5162  0.3734  0.0528
  994MOL0     C34116  -0.329  11.949   7.566  0.5945  0.1838 -0.2089
  994MOL0     C34117  -0.466  12.021   7.531  0.3703 -0.8142  0.5579
  994MOL0     C34118  -0.530  12.079   7.652  0.1194  0.8837 -0.5376
  994MOL0     C34119  -0.589  12.124   7.751 -0.6693 -0.3207 -0.3216
  994MOL0     C34120   0.081  11.643   7.435 -1.2845  0.0909  0.0214
  994MOL0     C34121   0.166  11.532   7.416  0.0133  0.1283 -0.2958
  994MOL0     C34122   0.233  11.474   7.540  0.2876 -0.2147  0.2698
  994MOL0     H34123   0.203  11.072   7.087  0.6813 -2.3402 -0.6019
  994MOL0     H34124   0.342  10.902   6.986 -0.6988  0.6729 -2.4287
  994MOL0     H34125   0.658  10.756   6.948  0.5933  1.9228  0.5239
  994MOL0     H34126   0.484  10.777   6.925  0.0527 -0.2409  1.0308
  994MOL0     H34127   0.568  10.832   6.667 -0.1949  3.4740  3.4147
  994MOL0     H34128   0.523  10.672   6.726  0.9824  0.3374 -1.4989
  994MOL0     H34129   0.741  10.642   6.618 -1.6975 -1.6173  0.8338
  994MOL0     H34130   0.757  10.619   6.792 -1.1046 -1.6877 -0.9893
  994MOL0     H34131   0.808  10.882   6.665 -0.0318  0.2538  0.9782
  994MOL0     H34132   0.867  10.828   6.822 -2.1758 -0.2374  1.4563
  994MOL0     H34133   0.991  10.651   6.722 -1.1068 -0.7861 -1.0582
  994MOL0     H34134   0.944  10.718   6.563 -2.6498 -2.3385  1.1051
  994MOL0     H34135   1.065  10.932   6.617  0.2695  0.5523  1.5727
  994MOL0     H34136   1.107  10.886   6.777  0.4175  1.8141 -0.4031
  994MOL0     H34137   1.213  10.764   6.516  0.7447  1.1628  0.2011
  994MOL0     H34138   1.262  10.708   6.673  1.4429 -2.3545 -3.3065
  994MOL0     H34139   1.410  10.886   6.564  0.8170  2.1850 -0.4332
  994MOL0     H34140   1.292  11.008   6.608  3.0946  1.4532  0.9824
  994MOL0     H34141   1.604  10.920   6.741  1.7224  0.0142  1.6673
  994MOL0     H34142   1.730  10.884   7.008  0.4622  2.1626  3.0921
  994MOL0     H34143   1.612  10.944   7.124 -1.4673  1.0792 -1.7350
  994MOL0     H34144   1.578  10.654   7.050 -0.7463  0.0769  0.7261
  994MOL0     H34145   1.714  10.699   7.141 -1.2163 -0.5152  1.2118
  994MOL0     H34146   1.423  10.733   7.216 -0.4938  1.5357  0.6915
  994MOL0     H34147   1.553  10.811   7.308 -2.7230  0.9720 -1.3116
  994MOL0     H34148   1.459  10.590   7.390 -1.7671 -2.0398 -3.6722
  994MOL0     H34149   1.633  10.641   7.406 -0.8195  1.4788  1.4710
  994MOL0     H34150   1.762  10.482   7.469  0.3513 -0.9185  1.6351
  994MOL0     H34151   1.924  10.295   7.492 -0.8704 -4.3860  1.1501
  994MOL0     H34152   1.900   9.759   7.199  0.6802 -0.6619 -1.5066
  994MOL0     H34153   2.031   9.543   7.230  0.9016 -0.8855 -0.4293
  994MOL0     H34154   2.476   9.582   7.332 -1.3755  0.4349 -1.3248
  994MOL0     H34155   2.373   9.564   7.463 -0.2706  2.2212  0.0639
  994MOL0     H34156   2.351   9.308   7.415  1.6072 -2.6476  2.0413
  994MOL0     H34157   2.474   9.330   7.285 -1.7341  0.0370  0.2196
  994MOL0     H34158   2.639   9.407   7.434 -1.3241  2.6376  1.6969
  994MOL0     H34159   2.528   9.398   7.572 -0.6442 -2.9108  1.1557
  994MOL0     H34160   2.618   9.163   7.407 -2.9327 -1.8452 -0.8568
  994MOL0     H34161   2.509   9.150   7.552  0.4226  0.6884  1.7249
  994MOL0     H34162   2.688   9.278   7.691  0.1827 -0.8074  0.6412
  994MOL0     H34163   2.799   9.273   7.561  0.6450 -0.3797 -0.1182
  994MOL0     H34164   2.648   9.029   7.676 -1.0062  1.6305 -0.7960
  994MOL0     H34165   2.799   9.029   7.573  0.5331  0.2901  0.4453
  994MOL0     H34166   2.747   9.114   7.862 -0.0120 -1.0351  0.1857
  994MOL0     H34167   2.896   9.172   7.787  2.1838 -1.8932  1.6946
  994MOL0     H34168   2.931   8.946   7.925 -2.9800 -2.2822  2.9690
  994MOL0     H34169   2.798   8.881   7.834  0.4381 -0.6772  0.1365
  994MOL0     H34170   2.363   9.779   7.349 -0.0152 -2.7463 -0.7245
  994MOL0     H34171   2.235   9.993   7.313  0.1607  0.6097  0.5305
  994MOL0     H34172   1.798  10.132   7.114 -2.1505  1.5629 -1.6274
  994MOL0     H34173   1.637  10.302   7.092  0.7362 -0.8830 -1.1282
  994MOL0     H34174   0.658  11.184   6.926  1.1596 -1.1084 -0.5034
  994MOL0     H34175   0.514  11.351   7.050 -1.0495 -0.4790  1.8050
  994MOL0     H34176   0.158  11.520   7.072  1.8125  0.2196  0.3675
  994MOL0     H34177  -0.008  11.696   7.105  0.0263 -3.7837 -2.5623
  994MOL0     H34178  -0.082  11.881   7.530 -2.4932  0.6219  1.2452
  994MOL0     H34179  -0.166  11.725   7.517  0.5728  1.1621  4.4585
  994MOL0     H34180  -0.339  11.837   7.381  1.4847 -0.8678  0.1278
  994MOL0     H34181  -0.233  11.982   7.366  1.1665  2.0695  2.3969
  994MOL0     H34182  -0.268  12.025   7.617  2.2502  0.1007 -1.9882
  994MOL0     H34183  -0.349  11.861   7.628 -1.7340  1.2584  0.7156
  994MOL0     H34184  -0.443  12.093   7.453 -0.9112 -1.5331 -0.5320
  994MOL0     H34185  -0.534  11.956   7.474  1.9217 -0.7580 -1.4695
  994MOL0     H34186  -0.619  12.154   7.850  3.8267 -2.2317  1.9420
  994MOL0     H34187   0.060  11.681   7.535 -1.0521  0.8202 -0.2012
  994MOL0     H34188   0.214  11.544   7.621  4.2746  4.1420 -2.0567
  994MOL0     H34189   0.185  11.379   7.564  1.0361 -1.1471 -1.6679
  994MOL0     H34190   0.339  11.452   7.526  0.2623  0.2336 -0.7594
  995MOL0     O34191   8.126   3.151  11.185  0.2317 -0.4120 -0.6384
  995MOL0     C34192   8.115   3.132  11.308  0.0864 -0.4922  0.5834
  995MOL0     O34193   8.174   3.028  11.374  0.6293  0.6294  0.1134
  995MOL0     C34194   8.270   2.960  11.311  0.3801  0.2183  0.0752
  995MOL0     C34195   8.396   2.962  11.380 -0.3904 -0.5953 -0.2971
  995MOL0     C34196   8.504   2.893  11.329 -0.3835  0.9636 -0.5848
  995MOL0     C34197   8.493   2.823  11.212  0.0796  1.0283  0.2792
  995MOL0     O34198   8.613   2.757  11.188 -0.1900  0.0318  0.1631
  995MOL0     C34199   8.637   2.743  11.046 -0.3332 -0.0061  0.2109
  995MOL0     C34200   8.771   2.670  11.032 -0.1961 -0.1994  0.5552
  995MOL0     C34201   8.771   2.539  11.099  0.4335  0.4746 -0.7525
  995MOL0     C34202   8.914   2.480  11.086  0.1705 -0.0487 -0.1034
  995MOL0     C34203   8.909   2.333  11.126 -0.1105 -0.2821 -0.0553
  995MOL0     C34204   8.853   2.304  11.273  0.1833 -0.0526  0.7343
  995MOL0     C34205   8.865   2.157  11.314  0.1452  0.2117  0.9430
  995MOL0     C34206   8.752   2.092  11.406  0.4963 -0.1456 -0.1889
  995MOL0     N34207   8.801   1.957  11.445  0.5527  0.2245  0.1597
  995MOL0     C34208   8.863   1.918  11.558  0.2364  0.5920  0.3728
  995MOL0     C34209   8.923   1.803  11.532 -1.0139 -0.5407  0.6440
  995MOL0     C34210   9.004   1.718  11.630 -0.3883 -1.3111  0.4114
  995MOL0     C34211   9.040   1.794  11.759  0.5954  0.4754 -0.6055
  995MOL0     C34212   9.132   1.914  11.723 -0.3268  0.6303 -0.2024
  995MOL0     C34213   9.270   1.904  11.792  0.7859  0.0125  0.1112
  995MOL0     O34214   9.261   1.887  11.928  0.1330 -0.4393  0.1866
  995MOL0     C34215   9.291   1.993  12.016  0.8873  0.0530 -0.3719
  995MOL0     C34216   9.286   2.124  11.977 -1.0800 -0.1773 -0.0026
  995MOL0     C34217   9.339   2.227  12.062  0.4045  0.1915  0.2149
  995MOL0     C34218   9.412   2.185  12.173 -0.3470 -0.2059 -0.2861
  995MOL0     C34219   9.476   2.295  12.252  0.8680  1.2639  1.2714
  995MOL0     O34220   9.448   2.428  12.228  0.5301 -0.1173 -0.3677
  995MOL0     C34221   9.464   2.528  12.321 -0.1776  0.1483  0.4800
  995MOL0     C34222   9.504   2.652  12.271 -0.2689  0.6093  0.6938
  995MOL0     C34223   9.531   2.759  12.351  0.3900  0.8669 -0.3241
  995MOL0     C34224   9.517   2.743  12.492 -0.9282 -0.7128  0.4307
  995MOL0     O34225   9.555   2.854  12.575  0.2424  0.0429 -0.3881
  995MOL0     C34226   9.536   2.985  12.520  0.1253  0.7124 -0.6584
  995MOL0     C34227   9.532   3.097  12.631  0.2436  0.0440  0.7711
  995MOL0     C34228   9.632   3.061  12.752 -1.6641 -0.4583  0.5047
  995MOL0     C34229   9.783   3.079  12.709  0.0568  0.5592 -0.1807
  995MOL0     C34230   9.883   3.011  12.805 -0.5795  0.0800  0.1292
  995MOL0     C34231  10.023   3.060  12.767  0.1748  0.3907  0.5530
  995MOL0     C34232  10.074   3.055  12.622 -0.1025 -0.3993 -0.7710
  995MOL0     C34233  10.221   3.098  12.614  0.5843 -0.6612 -0.1369
  995MOL0    Cl34234  10.331   2.978  12.685  0.4376  0.2970  0.3978
  995MOL0     C34235   9.461   2.622  12.543  0.3320  0.3097  0.7679
  995MOL0     C34236   9.443   2.517  12.459  0.5497  0.0022  0.8811
  995MOL0     O34237   9.548   2.261  12.336 -0.1022  0.0645  0.0251
  995MOL0     C34238   9.401   2.057  12.219  0.3146  0.6924 -0.6879
  995MOL0     C34239   9.343   1.960  12.145 -0.4981  0.0011 -0.0668
  995MOL0     N34240   8.910   1.769  11.398 -0.7782 -0.0642 -0.6520
  995MOL0     N34241   8.824   1.857  11.357 -0.3778  0.6000  0.3756
  995MOL0     C34242   8.367   2.812  11.143 -1.0131 -0.3140  0.4609
  995MOL0     C34243   8.258   2.882  11.192  0.0586  0.2166 -0.2513
  995MOL0     C34244   8.042   3.227  11.387 -0.7071 -0.8566 -0.8506
  995MOL0     C34245   7.992   3.193  11.513 -0.8015 -0.3309 -0.5429
  995MOL0     C34246   7.912   3.272  11.598  0.2884 -0.0534 -0.1768
  995MOL0     C34247   7.895   3.405  11.555 -0.2750 -0.4605 -0.1602
  995MOL0     O34248   7.837   3.485  11.648 -0.0439 -0.1672  0.1597
  995MOL0     C34249   7.695   3.517  11.628  0.3205  0.0148  0.5586
  995MOL0     C34250   7.597   3.423  11.689  1.3887 -1.0234 -0.2513
  995MOL0     C34251   7.584   3.440  11.844 -0.2980  0.1133 -0.3846
  995MOL0     C34252   7.493   3.327  11.887 -0.1664 -0.1861 -0.3295
  995MOL0     C34253   7.492   3.324  12.031 -0.0469 -0.0827  0.7391
  995MOL0     C34254   7.502   3.315  12.154 -0.6584 -0.1004 -0.3024
  995MOL0     C34255   7.930   3.444  11.420  0.4082 -0.3744  0.2309
  995MOL0     C34256   8.007   3.359  11.342 -1.1301  0.6985  0.0681
  995MOL0     C34257   8.045   3.417  11.211 -0.3778 -0.9123  0.6737
  995MOL0     H34258   8.422   3.012  11.472  0.4681 -1.6822  0.0666
  995MOL0     H34259   8.592   2.889  11.392 -0.7050 -1.0602 -0.1682
  995MOL0     H34260   8.565   2.676  10.996  1.4056 -0.5443 -1.6862
  995MOL0     H34261   8.633   2.839  10.995 -0.0410 -1.3736 -2.5960
  995MOL0     H34262   8.846   2.741  11.067 -0.8758  1.7171 -1.6235
  995MOL0     H34263   8.794   2.654  10.926  3.0903  1.6618  0.8813
  995MOL0     H34264   8.699   2.467  11.058 -0.4168 -0.2348  1.8006
  995MOL0     H34265   8.747   2.556  11.204  0.5512  1.9598 -0.9442
  995MOL0     H34266   8.952   2.495  10.985  1.1931  1.4549  0.4706
  995MOL0     H34267   8.977   2.544  11.148 -0.6091  3.1126 -2.2857
  995MOL0     H34268   8.844   2.281  11.055  0.0623 -0.7599  0.1333
  995MOL0     H34269   9.010   2.294  11.116  0.4451  1.6300 -3.3175
  995MOL0     H34270   8.900   2.376  11.341  0.6409  1.3534 -0.9980
  995MOL0     H34271   8.746   2.328  11.264  0.4316  0.7996 -0.2074
  995MOL0     H34272   8.959   2.150  11.369  1.1947  2.6605 -0.3755
  995MOL0     H34273   8.878   2.091  11.228 -1.5599 -1.4460  1.8800
  995MOL0     H34274   8.719   2.164  11.482  0.3039  0.1292 -0.5328
  995MOL0     H34275   8.665   2.082  11.341 -0.1412 -0.6487  0.7089
  995MOL0     H34276   8.872   1.962  11.657 -2.6239  0.8866  0.5899
  995MOL0     H34277   8.961   1.618  11.641  2.9640 -2.9188  0.0164
  995MOL0     H34278   9.100   1.705  11.580  1.6068  1.3542  3.1544
  995MOL0     H34279   8.949   1.812  11.819  1.8293 -4.0078  3.2765
  995MOL0     H34280   9.088   1.719  11.823 -3.5309 -1.7014  0.3042
  995MOL0     H34281   9.093   2.005  11.771  0.7409  1.5529 -1.0184
  995MOL0     H34282   9.140   1.931  11.615  1.7126 -0.1838 -0.2245
  995MOL0     H34283   9.323   1.996  11.764 -1.3153  0.6185 -2.1849
  995MOL0     H34284   9.330   1.823  11.750 -1.1977 -0.9004 -1.0677
  995MOL0     H34285   9.251   2.148  11.877 -2.3541 -1.0633  0.2137
  995MOL0     H34286   9.326   2.328  12.026 -3.8498 -0.2283  0.1122
  995MOL0     H34287   9.513   2.656  12.163 -0.6179  0.1726  0.6404
  995MOL0     H34288   9.582   2.843  12.306 -0.6055  0.7354 -1.7679
  995MOL0     H34289   9.627   3.003  12.463 -1.2406  0.3358 -3.1219
  995MOL0     H34290   9.445   2.987  12.459  0.3619  3.5261 -1.0838
  995MOL0     H34291   9.562   3.193  12.587 -3.8630  0.4679 -1.5453
  995MOL0     H34292   9.430   3.083  12.668 -0.3130 -2.5830 -1.5006
  995MOL0     H34293   9.623   3.125  12.840 -1.4467 -0.0459  0.2275
  995MOL0     H34294   9.631   2.957  12.786  1.6395 -0.8643 -0.3050
  995MOL0     H34295   9.799   3.187  12.715  2.1158  0.3554 -1.0110
  995MOL0     H34296   9.797   3.040  12.607 -0.6031 -0.3946  0.0813
  995MOL0     H34297   9.865   2.905  12.820 -0.9606  0.3812  2.1999
  995MOL0     H34298   9.868   3.045  12.909  3.3357 -0.6962  1.1051
  995MOL0     H34299  10.045   3.161  12.804 -0.8504  0.5308  0.8021
  995MOL0     H34300  10.088   2.999  12.831  0.8897  1.7323  1.1495
  995MOL0     H34301  10.015   3.134  12.575 -0.0418  0.5609  0.7091
  995MOL0     H34302  10.059   2.958  12.573 -2.9474  0.2334 -1.3261
  995MOL0     H34303  10.258   3.095  12.512  1.2973  0.6161  0.0568
  995MOL0     H34304  10.235   3.199  12.654 -2.2682  0.0965 -0.7764
  995MOL0     H34305   9.430   2.609  12.646 -1.4645  0.4212  0.2669
  995MOL0     H34306   9.420   2.419  12.499 -0.3867  0.4564  1.5046
  995MOL0     H34307   9.443   2.017  12.311  0.0725  3.1799  0.5974
  995MOL0     H34308   9.340   1.853  12.164 -3.1465 -0.1411 -0.9030
  995MOL0     H34309   8.377   2.749  11.055  1.6307 -0.1428  0.5579
  995MOL0     H34310   8.156   2.884  11.156  0.0372 -1.5641 -0.3659
  995MOL0     H34311   8.012   3.092  11.547  1.4576  0.0392 -0.5862
  995MOL0     H34312   7.867   3.237  11.690  2.1126 -1.0265  0.3979
  995MOL0     H34313   7.685   3.534  11.521  0.5653 -1.6780  0.2325
  995MOL0     H34314   7.685   3.612  11.681  2.3592  1.5363 -1.6132
  995MOL0     H34315   7.631   3.321  11.667  0.4723 -1.6652  1.1975
  995MOL0     H34316   7.499   3.447  11.648  1.5883  2.8739  1.1688
  995MOL0     H34317   7.553   3.540  11.877  1.3649  0.2974  0.7379
  995MOL0     H34318   7.681   3.424  11.893 -1.1703 -1.0382  1.0684
  995MOL0     H34319   7.395   3.350  11.844 -0.4181 -0.4531  0.0851
  995MOL0     H34320   7.522   3.232  11.841  0.0625 -0.3435  0.1266
  995MOL0     H34321   7.522   3.306  12.259  1.0194  0.5388 -0.5378
  995MOL0     H34322   7.892   3.541  11.391 -3.4258 -2.1783 -1.5796
  995MOL0     H34323   7.995   3.357  11.134 -2.1783  0.1024  0.9907
  995MOL0     H34324   8.012   3.519  11.190  1.0468 -1.0141 -2.8178
  995MOL0     H34325   8.152   3.408  11.187  0.4265  0.5675  3.2922
  996MOL0     O34326   1.397   8.940   9.624  0.6657 -0.5443  0.9286
  996MOL0     C34327   1.480   8.871   9.561 -0.1069  0.0603  0.3829
  996MOL0     O34328   1.533   8.909   9.439  0.1985 -0.5867 -1.3151
  996MOL0     C34329   1.645   8.856   9.391  1.2385  0.0578 -0.0483
  996MOL0     C34330   1.643   8.768   9.279 -0.0286  0.5280  0.1775
  996MOL0     C34331   1.764   8.719   9.231 -0.1151 -0.4404 -0.3171
  996MOL0     C34332   1.881   8.726   9.310  0.8261 -0.4577 -0.4231
  996MOL0     O34333   1.993   8.666   9.268 -0.1036 -0.0113  0.1459
  996MOL0     C34334   2.128   8.715   9.289  0.1924  0.5564  0.1248
  996MOL0     C34335   2.185   8.699   9.147  0.7560 -0.4843 -1.1042
  996MOL0     C34336   2.337   8.700   9.149  0.3254  0.0263  0.5584
  996MOL0     C34337   2.384   8.695   9.002 -0.9544  0.2513  0.1839
  996MOL0     C34338   2.368   8.565   8.919 -0.2666  0.0213  1.2067
  996MOL0     C34339   2.463   8.569   8.795 -0.0810  0.3359 -0.2085
  996MOL0     C34340   2.429   8.456   8.699  0.5277 -0.3228 -0.5028
  996MOL0     C34341   2.500   8.320   8.717 -0.8232 -0.1015  0.6314
  996MOL0     N34342   2.647   8.324   8.687 -0.0004  0.2636 -0.5868
  996MOL0     C34343   2.697   8.360   8.567  0.4782 -0.2758 -0.4506
  996MOL0     C34344   2.820   8.402   8.592 -0.1365  0.7541 -1.1246
  996MOL0     C34345   2.924   8.419   8.484 -0.4486 -0.0317  0.7478
  996MOL0     C34346   3.001   8.556   8.498 -0.3067 -0.0721 -0.1870
  996MOL0     C34347   2.932   8.682   8.444 -0.1176 -0.1721  0.0659
  996MOL0     C34348   2.888   8.671   8.298 -0.1509 -0.0726 -0.0291
  996MOL0     O34349   2.879   8.794   8.229  0.1005  0.6500  0.4804
  996MOL0     C34350   2.983   8.883   8.220 -0.1224  0.1845 -0.2813
  996MOL0     C34351   3.120   8.854   8.236 -0.1107  0.5296 -0.6099
  996MOL0     C34352   3.209   8.955   8.204 -0.7815 -0.2083  0.3658
  996MOL0     C34353   3.183   9.087   8.168 -0.3571 -0.4496 -0.0710
  996MOL0     C34354   3.292   9.188   8.151  0.3388  0.2321  0.1747
  996MOL0     O34355   3.424   9.143   8.152  0.5562  0.0723  0.6256
  996MOL0     C34356   3.522   9.219   8.105 -0.1752 -0.0567  0.2304
  996MOL0     C34357   3.571   9.340   8.163 -0.2805  0.4138  0.9701
  996MOL0     C34358   3.665   9.418   8.090  0.5898 -0.9200  0.8921
  996MOL0     C34359   3.729   9.371   7.981 -0.3021 -0.9645  0.0874
  996MOL0     O34360   3.818   9.457   7.915 -0.3392 -0.5608 -0.3675
  996MOL0     C34361   3.865   9.407   7.780  0.1461  0.2167 -0.2645
  996MOL0     C34362   3.959   9.503   7.719  0.7398 -0.0292 -0.1106
  996MOL0     C34363   3.972   9.453   7.579 -0.1602 -0.2619  0.9598
  996MOL0     C34364   4.086   9.531   7.502  0.7903  0.4630  0.3023
  996MOL0     C34365   4.127   9.455   7.372  0.3371  0.3076 -0.8951
  996MOL0     C34366   4.241   9.533   7.302  0.2150 -0.2150  0.7047
  996MOL0     C34367   4.202   9.662   7.233  0.4959  0.0710 -0.0481
  996MOL0     C34368   4.322   9.713   7.154  1.2895 -0.3325 -0.0272
  996MOL0    Cl34369   4.277   9.860   7.046  0.3965  0.1758  0.6254
  996MOL0     C34370   3.692   9.244   7.934 -0.4518 -0.5170 -0.1764
  996MOL0     C34371   3.593   9.167   7.992 -0.4057  0.1804 -0.4717
  996MOL0     O34372   3.252   9.304   8.160  0.4183  0.5776  0.2729
  996MOL0     C34373   3.045   9.120   8.180 -0.8771  0.7358  0.1261
  996MOL0     C34374   2.949   9.024   8.202 -1.0206 -0.1748 -0.3496
  996MOL0     N34375   2.844   8.397   8.735 -0.3892 -0.1278 -0.7205
  996MOL0     N34376   2.745   8.347   8.793  0.0054 -0.0417 -0.4442
  996MOL0     C34377   1.878   8.810   9.425  0.6440 -0.7381  0.1655
  996MOL0     C34378   1.766   8.882   9.460  0.8777 -0.4900 -0.0781
  996MOL0     C34379   1.521   8.755   9.634 -0.3263 -0.9186  0.9362
  996MOL0     C34380   1.518   8.639   9.566  0.3023 -0.0290 -0.4572
  996MOL0     C34381   1.537   8.520   9.633  0.0026 -1.1976 -0.4398
  996MOL0     C34382   1.576   8.525   9.769  0.6175  0.4905  0.4792
  996MOL0     O34383   1.593   8.415   9.850  0.1592 -0.7619  0.1633
  996MOL0     C34384   1.541   8.286   9.809 -0.4844 -0.0049 -0.1065
  996MOL0     C34385   1.569   8.187   9.929  0.7633 -0.3335  0.7464
  996MOL0     C34386   1.700   8.207   9.998  0.3045 -0.4143 -0.1152
  996MOL0     C34387   1.757   8.087  10.067  0.0891 -0.5368 -1.0195
  996MOL0     C34388   1.814   7.988   9.980  0.1127  0.1383 -0.9171
  996MOL0     C34389   1.870   7.911   9.908 -0.0544 -0.3927  0.7596
  996MOL0     C34390   1.590   8.643   9.830 -0.2111  0.0905  0.0176
  996MOL0     C34391   1.568   8.767   9.767 -0.5208 -0.1711 -0.0586
  996MOL0     C34392   1.583   8.898   9.841  0.2509 -0.6948 -0.6800
  996MOL0     H34393   1.557   8.731   9.224  1.6811 -1.2688 -1.4361
  996MOL0     H34394   1.773   8.647   9.150 -2.4291 -1.1270 -0.0434
  996MOL0     H34395   2.133   8.816   9.332 -1.0373  1.2453 -1.2565
  996MOL0     H34396   2.183   8.654   9.361  0.6065  0.6350 -0.1230
  996MOL0     H34397   2.150   8.788   9.093 -1.0363 -0.0565  0.6681
  996MOL0     H34398   2.153   8.603   9.105  0.0442  0.0494 -1.8008
  996MOL0     H34399   2.387   8.621   9.206 -0.8936  1.2797  3.6144
  996MOL0     H34400   2.367   8.797   9.190  1.3006 -0.0182 -0.0255
  996MOL0     H34401   2.312   8.768   8.965 -1.4757 -0.0408  0.6115
  996MOL0     H34402   2.489   8.727   8.996 -0.6109 -0.4789  1.7789
  996MOL0     H34403   2.386   8.474   8.976  1.9010 -1.7945 -2.0679
  996MOL0     H34404   2.261   8.563   8.897 -0.2092  1.9894  0.5270
  996MOL0     H34405   2.459   8.661   8.735 -0.7881  0.2741 -0.2673
  996MOL0     H34406   2.565   8.555   8.831 -0.2624  1.5126  0.8305
  996MOL0     H34407   2.447   8.500   8.601 -0.9171  2.4900  0.3859
  996MOL0     H34408   2.323   8.430   8.711  0.8592 -0.8845  1.6832
  996MOL0     H34409   2.484   8.272   8.814 -0.2515  0.6664  1.1141
  996MOL0     H34410   2.467   8.248   8.641  4.3545 -0.7418 -1.4538
  996MOL0     H34411   2.645   8.357   8.472  1.8748 -0.9465 -1.2324
  996MOL0     H34412   2.996   8.338   8.499 -0.8241 -0.4047  0.5218
  996MOL0     H34413   2.878   8.407   8.386 -0.6017  1.2424  0.6497
  996MOL0     H34414   3.031   8.555   8.603 -1.2547 -1.2059  0.0870
  996MOL0     H34415   3.091   8.547   8.437  1.2976  2.5509  1.5975
  996MOL0     H34416   3.013   8.752   8.467  2.5118 -3.1711  0.6356
  996MOL0     H34417   2.848   8.720   8.503  1.1442  0.6117  1.4162
  996MOL0     H34418   2.798   8.610   8.285  1.5287 -2.9338  0.8268
  996MOL0     H34419   2.959   8.607   8.245 -0.1465  0.3678 -0.5642
  996MOL0     H34420   3.166   8.760   8.265 -0.9353  0.1083 -0.6259
  996MOL0     H34421   3.312   8.925   8.188 -1.0164 -1.0445  0.3818
  996MOL0     H34422   3.531   9.391   8.250  0.3842  2.0790  0.3564
  996MOL0     H34423   3.679   9.525   8.108 -1.4226 -0.2673 -0.9084
  996MOL0     H34424   3.915   9.311   7.793  1.6310  1.1484  1.3302
  996MOL0     H34425   3.774   9.389   7.723  0.1644 -0.5495 -0.0560
  996MOL0     H34426   3.913   9.601   7.729 -0.4067 -0.6719  1.3181
  996MOL0     H34427   4.054   9.509   7.774 -0.3937  0.4608  1.8985
  996MOL0     H34428   3.997   9.347   7.579 -1.9608 -0.7567  2.9663
  996MOL0     H34429   3.879   9.463   7.522  1.4684 -0.8380 -2.0262
  996MOL0     H34430   4.172   9.550   7.568  0.9090  1.5600 -0.1389
  996MOL0     H34431   4.039   9.624   7.471 -1.0467 -0.2603  0.8116
  996MOL0     H34432   4.035   9.444   7.313  0.8040 -0.6758 -1.4740
  996MOL0     H34433   4.161   9.354   7.395  1.6219  0.8523 -0.2879
  996MOL0     H34434   4.318   9.556   7.376 -0.0495  0.6452  0.7152
  996MOL0     H34435   4.291   9.459   7.240  1.2729  1.3300 -0.3324
  996MOL0     H34436   4.174   9.736   7.309  2.1709  1.5779 -0.8106
  996MOL0     H34437   4.123   9.647   7.158 -0.0283 -2.1466  0.8946
  996MOL0     H34438   4.409   9.743   7.213  0.6586  2.4761 -0.3939
  996MOL0     H34439   4.349   9.631   7.087 -1.7513 -0.8548 -0.7385
  996MOL0     H34440   3.729   9.198   7.843 -0.8742 -0.1915 -0.5161
  996MOL0     H34441   3.567   9.071   7.948 -2.8939  0.3938  0.3706
  996MOL0     H34442   3.019   9.224   8.169 -0.7214  0.8632  0.9351
  996MOL0     H34443   2.846   9.059   8.201 -0.5493  1.3750  0.7108
  996MOL0     H34444   1.957   8.817   9.500  1.5474  0.3043 -0.8336
  996MOL0     H34445   1.773   8.944   9.549  0.1491  1.0625 -1.0649
  996MOL0     H34446   1.485   8.629   9.463 -3.2691  2.7005  0.1956
  996MOL0     H34447   1.525   8.426   9.582 -0.2751 -1.1604 -0.4459
  996MOL0     H34448   1.591   8.247   9.720 -0.4682  0.0852 -0.1363
  996MOL0     H34449   1.435   8.295   9.786 -0.3972  0.7338 -0.2248
  996MOL0     H34450   1.566   8.082   9.901  1.5247 -0.7357  2.0983
  996MOL0     H34451   1.493   8.199  10.007  0.6565 -5.3873  1.7621
  996MOL0     H34452   1.684   8.279  10.079  1.4873 -0.6149  0.3327
  996MOL0     H34453   1.768   8.262   9.933 -1.0566 -0.7640 -1.9052
  996MOL0     H34454   1.835   8.105  10.142 -3.4467 -1.3833  3.3338
  996MOL0     H34455   1.667   8.044  10.112 -1.3620  1.6173 -1.7049
  996MOL0     H34456   1.911   7.856   9.826 -1.3693 -0.9233  0.4219
  996MOL0     H34457   1.616   8.639   9.935  0.3364  1.7549 -0.0394
  996MOL0     H34458   1.651   8.968   9.792  1.4501 -2.8272 -2.2122
  996MOL0     H34459   1.481   8.934   9.859 -0.0179 -2.7684  2.8882
  996MOL0     H34460   1.634   8.880   9.936 -2.4186 -1.1048  0.7840
  997MOL0     O34461   5.403   4.704   6.037  1.0666 -0.5629  0.2277
  997MOL0     C34462   5.408   4.816   5.993 -1.1086  0.3749  0.7146
  997MOL0     O34463   5.528   4.873   5.964 -0.0266 -0.7303 -0.1801
  997MOL0     C34464   5.635   4.801   5.929  0.2667 -0.5826 -0.0477
  997MOL0     C34465   5.733   4.767   6.021 -0.4560 -0.1623 -0.3272
  997MOL0     C34466   5.845   4.681   5.982  0.2699 -0.0743 -0.2818
  997MOL0     C34467   5.861   4.648   5.841 -0.0462 -0.1377 -0.3351
  997MOL0     O34468   5.968   4.567   5.810 -0.5576 -0.5131  0.0660
  997MOL0     C34469   5.976   4.528   5.672 -0.0330  0.3126 -0.6518
  997MOL0     C34470   6.094   4.439   5.672 -0.9670 -0.6305 -0.2744
  997MOL0     C34471   6.086   4.317   5.759 -0.6181  0.7542 -0.7641
  997MOL0     C34472   6.219   4.231   5.766  0.4305  0.0999 -0.4803
  997MOL0     C34473   6.198   4.101   5.848 -0.5547  1.0343 -0.1044
  997MOL0     C34474   6.122   4.000   5.767 -0.0017  0.2889 -0.9989
  997MOL0     C34475   6.205   3.895   5.684  1.0116 -0.1078 -0.1428
  997MOL0     C34476   6.115   3.770   5.683  0.5442  0.4065  0.0864
  997MOL0     N34477   6.167   3.687   5.581 -0.1641  0.9674 -0.6097
  997MOL0     C34478   6.305   3.667   5.556  0.1784  0.4277  0.4619
  997MOL0     C34479   6.304   3.591   5.441 -0.6135  0.0238  0.4012
  997MOL0     C34480   6.428   3.535   5.377  0.2337  0.1793  0.9778
  997MOL0     C34481   6.396   3.402   5.323  0.3152 -0.0442 -0.5055
  997MOL0     C34482   6.515   3.301   5.333  0.4716  0.1502  0.4386
  997MOL0     C34483   6.497   3.177   5.257  0.4736 -0.0552  0.0280
  997MOL0     O34484   6.629   3.112   5.243  0.6216 -0.3129  0.2433
  997MOL0     C34485   6.615   2.997   5.181 -0.4882  0.2846 -0.6109
  997MOL0     C34486   6.575   2.985   5.050 -0.4601  0.6156 -0.7970
  997MOL0     C34487   6.573   2.857   4.994 -0.1281 -0.2069  0.3230
  997MOL0     C34488   6.603   2.739   5.067  0.0623 -0.0727  0.4741
  997MOL0     C34489   6.582   2.603   5.014 -0.0845 -0.2921  0.1918
  997MOL0     O34490   6.667   2.507   5.070 -0.0204 -0.3000  0.7407
  997MOL0     C34491   6.650   2.372   5.028 -0.1143  0.2818  0.2123
  997MOL0     C34492   6.759   2.303   4.979  0.2425  0.1470  0.2511
  997MOL0     C34493   6.744   2.165   4.943  0.9343  0.3440 -0.6598
  997MOL0     C34494   6.619   2.099   4.958  0.6864  0.3616  0.1682
  997MOL0     O34495   6.605   1.960   4.928 -0.3328  0.1926 -0.0522
  997MOL0     C34496   6.488   1.886   4.968  0.0432 -0.0426  0.4642
  997MOL0     C34497   6.528   1.738   4.975 -0.4927 -0.0694  0.3568
  997MOL0     C34498   6.433   1.628   5.034 -0.6222  0.3003  0.3500
  997MOL0     C34499   6.301   1.614   4.957 -0.4152 -0.4041 -0.4951
  997MOL0     C34500   6.189   1.692   5.021 -0.0550 -0.5315  1.1487
  997MOL0     C34501   6.067   1.728   4.930  0.4448 -0.4278  0.4480
  997MOL0     C34502   5.966   1.829   4.998 -0.0469 -0.7344 -0.0167
  997MOL0     C34503   5.872   1.887   4.892  0.1075 -0.7177  0.6315
  997MOL0    Cl34504   5.954   1.982   4.764 -0.5368  0.1564 -0.3247
  997MOL0     C34505   6.514   2.172   5.001  0.4572 -0.7011 -0.8098
  997MOL0     C34506   6.529   2.304   5.047 -0.2716  0.0499  0.0405
  997MOL0     O34507   6.496   2.578   4.929 -0.3946 -0.2234  0.1183
  997MOL0     C34508   6.635   2.758   5.198 -1.0181 -0.1503  0.0811
  997MOL0     C34509   6.657   2.889   5.247  0.3597  0.5759  0.2824
  997MOL0     N34510   6.175   3.573   5.401  0.6765 -0.2338  0.3971
  997MOL0     N34511   6.090   3.641   5.475 -0.7862 -0.0793 -0.4460
  997MOL0     C34512   5.765   4.699   5.749 -0.1113 -0.4480  0.4191
  997MOL0     C34513   5.653   4.772   5.791 -0.2848  0.0040  0.1202
  997MOL0     C34514   5.288   4.903   5.981 -0.3311  0.4607 -0.1384
  997MOL0     C34515   5.171   4.861   6.049 -0.0976 -0.2081 -0.7905
  997MOL0     C34516   5.056   4.948   6.052 -0.3769  0.2647  0.6096
  997MOL0     C34517   5.059   5.069   5.985 -0.1049 -0.0111  0.8155
  997MOL0     O34518   4.942   5.145   5.998  0.1473 -0.7163  0.2155
  997MOL0     C34519   4.954   5.279   5.939  0.6581  0.2668 -0.7783
  997MOL0     C34520   4.841   5.360   6.004 -0.2520  0.5271  0.3834
  997MOL0     C34521   4.709   5.305   5.929 -0.0684 -0.1769 -0.0477
  997MOL0     C34522   4.594   5.379   5.989  0.0037 -0.1519  0.2116
  997MOL0     C34523   4.483   5.328   5.919  0.6214  0.5509  0.5595
  997MOL0     C34524   4.407   5.259   5.849 -0.5732  0.0226  0.4011
  997MOL0     C34525   5.164   5.098   5.911 -0.6856  0.5974 -0.2466
  997MOL0     C34526   5.277   5.015   5.900  0.4942  0.5697  0.3405
  997MOL0     C34527   5.390   5.075   5.818  0.9718 -0.3929  0.1810
  997MOL0     H34528   5.703   4.793   6.122 -3.4720  0.8779 -1.3769
  997MOL0     H34529   5.920   4.648   6.053 -0.7286 -1.5961  0.1076
  997MOL0     H34530   5.892   4.464   5.642 -0.6424 -0.0856  1.6819
  997MOL0     H34531   5.996   4.616   5.610  0.8930  0.5502 -0.0360
  997MOL0     H34532   6.184   4.495   5.703 -1.0005 -0.9584  0.4418
  997MOL0     H34533   6.122   4.417   5.569 -0.9901  2.5866 -1.0752
  997MOL0     H34534   6.006   4.248   5.732  0.4049 -1.8660  2.2677
  997MOL0     H34535   6.059   4.347   5.861  2.8275 -1.2075  0.9006
  997MOL0     H34536   6.261   4.204   5.669  2.0262  0.0123  0.1848
  997MOL0     H34537   6.300   4.291   5.810 -0.3728  0.8980 -0.0684
  997MOL0     H34538   6.299   4.063   5.868 -0.1952  1.0424 -1.7397
  997MOL0     H34539   6.157   4.133   5.944  1.8055  2.9413  0.3614
  997MOL0     H34540   6.049   3.946   5.829  0.1555  1.0888 -0.0921
  997MOL0     H34541   6.071   4.058   5.690 -0.3998  1.6343  0.2346
  997MOL0     H34542   6.301   3.879   5.734 -0.9587 -3.9939  2.9264
  997MOL0     H34543   6.231   3.933   5.585 -0.0655  2.3725  0.4532
  997MOL0     H34544   6.125   3.723   5.782 -2.8955  1.1667  0.9003
  997MOL0     H34545   6.009   3.788   5.668  0.5163 -1.2069 -2.2011
  997MOL0     H34546   6.389   3.692   5.620  0.1191  2.0194 -0.0498
  997MOL0     H34547   6.455   3.598   5.292 -0.3508 -2.0858 -0.9938
  997MOL0     H34548   6.504   3.530   5.456  1.7360 -0.3516 -0.4496
  997MOL0     H34549   6.306   3.360   5.368  0.1490 -0.7353 -1.4513
  997MOL0     H34550   6.364   3.426   5.221  1.6122  0.9874 -0.7026
  997MOL0     H34551   6.536   3.271   5.436  0.9199 -3.1359 -0.5164
  997MOL0     H34552   6.605   3.344   5.287  0.7140 -1.1954 -0.3940
  997MOL0     H34553   6.451   3.199   5.160  0.6421 -3.2339 -0.8767
  997MOL0     H34554   6.433   3.108   5.313  2.0069 -0.3778  1.4556
  997MOL0     H34555   6.539   3.070   4.993 -0.4941  2.2707  1.5815
  997MOL0     H34556   6.542   2.853   4.890 -1.4004 -1.6477  0.7271
  997MOL0     H34557   6.858   2.347   4.978  0.7634 -0.9814  0.3399
  997MOL0     H34558   6.823   2.104   4.900  1.2223  0.2555 -0.0181
  997MOL0     H34559   6.457   1.921   5.067 -2.6282 -0.2231 -0.2161
  997MOL0     H34560   6.406   1.880   4.896  1.2611 -2.2949 -0.8703
  997MOL0     H34561   6.566   1.706   4.877  1.6372  2.1327  0.3495
  997MOL0     H34562   6.614   1.743   5.043 -0.6216 -1.0257  0.6060
  997MOL0     H34563   6.495   1.538   5.030 -0.0873  0.6766  0.1820
  997MOL0     H34564   6.413   1.655   5.138 -2.9126  1.1484 -0.2472
  997MOL0     H34565   6.287   1.505   4.950  0.3579 -0.4534 -1.5278
  997MOL0     H34566   6.319   1.648   4.855  3.1660 -0.4713 -0.0166
  997MOL0     H34567   6.230   1.780   5.071  1.4818 -2.0114  2.6081
  997MOL0     H34568   6.156   1.623   5.099  1.4686 -0.3797  1.9612
  997MOL0     H34569   6.094   1.780   4.838 -0.2246 -0.2252  0.3539
  997MOL0     H34570   6.024   1.631   4.904  1.2201 -0.1310 -2.2848
  997MOL0     H34571   6.023   1.908   5.047 -0.4666 -0.2445 -0.3112
  997MOL0     H34572   5.897   1.784   5.070 -1.4553  0.3028 -0.6625
  997MOL0     H34573   5.812   1.802   4.857  2.0806 -2.2685  0.8729
  997MOL0     H34574   5.802   1.961   4.932  2.6171  1.4822  1.1834
  997MOL0     H34575   6.413   2.133   5.002  0.4533 -0.6988  0.0407
  997MOL0     H34576   6.446   2.360   5.087  0.6887  0.8116  1.0111
  997MOL0     H34577   6.652   2.679   5.270 -0.6789  2.5949  3.2349
  997MOL0     H34578   6.680   2.905   5.352 -0.6862  1.4188  0.3993
  997MOL0     H34579   5.780   4.675   5.644  4.1549  0.4513  0.6633
  997MOL0     H34580   5.592   4.813   5.711  2.7435 -0.0141 -2.4058
  997MOL0     H34581   5.159   4.771   6.109 -2.3267  1.4456  1.4721
  997MOL0     H34582   4.965   4.919   6.104  0.4519  0.1573  2.0351
  997MOL0     H34583   4.948   5.273   5.830 -1.2829 -1.0598 -0.6500
  997MOL0     H34584   5.039   5.337   5.977 -3.1325  4.2369  2.8801
  997MOL0     H34585   4.858   5.466   5.982 -0.8703  0.6147  0.3304
  997MOL0     H34586   4.854   5.340   6.111  1.8762  3.4292  0.7787
  997MOL0     H34587   4.690   5.197   5.938 -1.1817  0.1020  1.2406
  997MOL0     H34588   4.710   5.323   5.821 -3.1836  0.9032 -0.0072
  997MOL0     H34589   4.583   5.353   6.095 -0.0799  0.2867  0.3101
  997MOL0     H34590   4.611   5.486   5.977  0.5910 -0.4035 -1.4919
  997MOL0     H34591   4.335   5.201   5.793  0.9790 -0.3156 -1.3457
  997MOL0     H34592   5.169   5.185   5.846  1.7681  0.1071 -0.8277
  997MOL0     H34593   5.471   5.113   5.880  0.3566  1.9240 -0.3271
  997MOL0     H34594   5.417   4.999   5.744 -2.3933 -2.5251  0.9132
  997MOL0     H34595   5.359   5.161   5.757 -0.5624  1.5824  3.4405
  998MOL0     O34596   2.373   9.677   6.028 -0.2144 -0.1230 -0.1169
  998MOL0     C34597   2.404   9.780   6.095 -0.2322  0.9264 -0.1246
  998MOL0     O34598   2.500   9.871   6.062  0.4404  0.3479  0.1550
  998MOL0     C34599   2.608   9.834   5.983 -0.9988 -0.1654 -0.4703
  998MOL0     C34600   2.686   9.714   6.008  0.0339  0.2583  0.3555
  998MOL0     C34601   2.799   9.688   5.940 -0.5045  0.9501 -0.4309
  998MOL0     C34602   2.856   9.785   5.851  0.1770 -0.1863 -0.2594
  998MOL0     O34603   2.984   9.759   5.803  0.5352 -1.1373  0.2640
  998MOL0     C34604   3.054   9.872   5.738  1.0181 -0.3273 -0.0152
  998MOL0     C34605   3.194   9.821   5.716 -0.5221  0.4731 -0.0944
  998MOL0     C34606   3.262   9.907   5.617  0.2920 -0.2588 -0.7867
  998MOL0     C34607   3.388   9.844   5.551  0.1859 -0.2584 -0.1497
  998MOL0     C34608   3.517   9.840   5.632  0.2956  1.5806 -0.4039
  998MOL0     C34609   3.618   9.931   5.559  0.9555  0.1247 -0.8179
  998MOL0     C34610   3.751   9.960   5.637  0.3546 -0.2255 -0.1401
  998MOL0     C34611   3.837  10.054   5.549  0.4348  0.0607 -0.7725
  998MOL0     N34612   3.965  10.047   5.613  0.2795  0.7856  0.2218
  998MOL0     C34613   3.989  10.073   5.743  1.0959 -0.0444  0.2684
  998MOL0     C34614   4.118  10.087   5.754  0.1041  0.3717  0.6768
  998MOL0     C34615   4.196  10.108   5.882 -0.4661 -0.7029 -0.0310
  998MOL0     C34616   4.183  10.254   5.931  0.0747 -0.0594  0.2788
  998MOL0     C34617   4.320  10.335   5.940  0.6701  0.2408  0.0865
  998MOL0     C34618   4.370  10.366   5.805  0.3574  0.1227 -0.8027
  998MOL0     O34619   4.477  10.457   5.826 -0.4125  0.5825 -0.6945
  998MOL0     C34620   4.593  10.385   5.828 -0.0481  0.3108 -1.4982
  998MOL0     C34621   4.646  10.353   5.953  1.3813  0.4042  0.8332
  998MOL0     C34622   4.765  10.274   5.963  0.0956  0.6416  0.3879
  998MOL0     C34623   4.827  10.213   5.847  0.7244 -0.3504  0.3092
  998MOL0     C34624   4.949  10.118   5.846  0.2354 -0.0362  1.2287
  998MOL0     O34625   5.041  10.137   5.942 -0.5198 -0.1996 -0.2962
  998MOL0     C34626   5.130  10.028   5.956  0.4142 -0.3157 -0.2131
  998MOL0     C34627   5.208   9.981   5.852 -0.3922  0.1011 -0.6771
  998MOL0     C34628   5.266   9.857   5.849 -0.9010 -0.7177 -0.1871
  998MOL0     C34629   5.260   9.769   5.954 -0.0221 -0.3305 -0.0904
  998MOL0     O34630   5.329   9.654   5.956 -0.1417  0.5507  0.1282
  998MOL0     C34631   5.393   9.602   6.074  0.2474  0.0709  1.2311
  998MOL0     C34632   5.506   9.493   6.031 -0.5213 -0.5816 -0.0268
  998MOL0     C34633   5.480   9.389   5.920  0.4703 -0.4803  0.2518
  998MOL0     C34634   5.380   9.287   5.960  0.9746  0.0600  1.1012
  998MOL0     C34635   5.424   9.195   6.072  0.7251 -0.3013 -0.0495
  998MOL0     C34636   5.555   9.116   6.030  0.3412 -0.3057 -0.1990
  998MOL0     C34637   5.618   9.025   6.137 -0.0791 -0.0853  0.0318
  998MOL0     C34638   5.681   9.093   6.244  0.3423  0.3434  0.7007
  998MOL0    Cl34639   5.840   9.155   6.215  0.1233  0.4182  0.0398
  998MOL0     C34640   5.187   9.820   6.061 -0.3465 -0.1588  0.6482
  998MOL0     C34641   5.124   9.945   6.067  0.0781 -0.7704  0.1138
  998MOL0     O34642   4.956  10.045   5.748 -0.2834  0.1534 -0.4638
  998MOL0     C34643   4.764  10.251   5.729  0.6896 -0.3627  0.0087
  998MOL0     C34644   4.653  10.333   5.723 -0.3370 -0.0622  0.5439
  998MOL0     N34645   4.175  10.061   5.628  0.0268 -0.8262 -0.6529
  998MOL0     N34646   4.083  10.039   5.541  0.4091  0.0136 -0.0957
  998MOL0     C34647   2.782   9.903   5.820  0.4550  0.6386  0.1754
  998MOL0     C34648   2.653   9.920   5.887  0.0145  0.2021  0.1661
  998MOL0     C34649   2.318   9.802   6.222  0.0127  1.0026 -0.8017
  998MOL0     C34650   2.377   9.870   6.328  0.0855  0.4603  0.5522
  998MOL0     C34651   2.312   9.894   6.449  0.1982 -0.3451  0.5462
  998MOL0     C34652   2.184   9.841   6.471 -0.6397  0.2805 -0.9593
  998MOL0     O34653   2.142   9.855   6.597 -0.5576  0.6052 -0.3861
  998MOL0     C34654   2.101   9.733   6.666 -0.4168  0.6297  0.7133
  998MOL0     C34655   2.049   9.751   6.799  0.8145 -0.4562  0.3035
  998MOL0     C34656   1.906   9.820   6.787 -0.0635 -0.2036 -0.0794
  998MOL0     C34657   1.866   9.892   6.914 -0.4757 -0.3357  0.6011
  998MOL0     C34658   1.744   9.966   6.874 -0.2980  0.3553  0.7038
  998MOL0     C34659   1.650  10.037   6.856 -0.2531 -0.6446  0.1889
  998MOL0     C34660   2.123   9.770   6.373 -0.3861  0.5523  0.0151
  998MOL0     C34661   2.186   9.749   6.246  0.1661  0.6028 -0.9598
  998MOL0     C34662   2.103   9.687   6.133  0.7024 -0.5146  0.1879
  998MOL0     H34663   2.651   9.638   6.079  1.8645 -1.0560 -0.0708
  998MOL0     H34664   2.846   9.591   5.954 -0.9450  0.6407 -1.0000
  998MOL0     H34665   3.000   9.906   5.649 -0.8919 -1.7376  0.5490
  998MOL0     H34666   3.075   9.961   5.798  1.0319 -0.7955  0.6816
  998MOL0     H34667   3.183   9.720   5.675 -0.7281  0.9046 -1.1320
  998MOL0     H34668   3.259   9.812   5.804  0.2953  1.0330 -0.6276
  998MOL0     H34669   3.286  10.004   5.660 -1.2939 -0.9864  1.9905
  998MOL0     H34670   3.192   9.928   5.536 -0.1438 -0.3035 -0.4221
  998MOL0     H34671   3.361   9.742   5.523  1.1897 -0.8713  1.0047
  998MOL0     H34672   3.403   9.895   5.456  1.8371 -1.5204 -0.6051
  998MOL0     H34673   3.504   9.873   5.735  0.7614 -2.4376  1.1080
  998MOL0     H34674   3.559   9.739   5.646 -2.0205  0.9839  3.6818
  998MOL0     H34675   3.625   9.902   5.454 -0.3793 -1.1777 -0.5775
  998MOL0     H34676   3.561  10.023   5.543 -2.4379 -1.8458 -0.9792
  998MOL0     H34677   3.794   9.862   5.661  1.1860  0.0768 -0.3583
  998MOL0     H34678   3.725  10.015   5.728 -1.8608  0.2015 -0.9629
  998MOL0     H34679   3.838  10.012   5.448  0.2987  0.1693 -0.8194
  998MOL0     H34680   3.810  10.160   5.551  3.9397  1.0374 -0.0461
  998MOL0     H34681   3.928  10.063   5.833  0.5033 -2.3170 -0.3250
  998MOL0     H34682   4.149  10.036   5.950  1.6429 -1.5886  0.5538
  998MOL0     H34683   4.303  10.086   5.885  0.6652  3.8145  1.5579
  998MOL0     H34684   4.114  10.315   5.872  1.9799  1.3435 -0.6097
  998MOL0     H34685   4.138  10.258   6.030  0.0225  0.8732  0.2223
  998MOL0     H34686   4.395  10.277   5.995 -0.2947 -1.7530 -0.5985
  998MOL0     H34687   4.296  10.425   5.997  0.8800  0.3556 -0.0064
  998MOL0     H34688   4.291  10.422   5.754 -0.5938  0.6740  1.1626
  998MOL0     H34689   4.396  10.270   5.759 -3.5217 -0.6380 -1.7917
  998MOL0     H34690   4.606  10.405   6.040 -1.4626 -1.3055  0.6607
  998MOL0     H34691   4.806  10.248   6.060  0.2267 -0.9216 -0.0508
  998MOL0     H34692   5.229  10.043   5.765 -0.2543  2.4011  0.9202
  998MOL0     H34693   5.322   9.825   5.761 -2.2346  0.9452 -1.6985
  998MOL0     H34694   5.442   9.688   6.121 -1.6722  1.3907  0.9527
  998MOL0     H34695   5.318   9.556   6.139 -0.1778  1.5056  1.8001
  998MOL0     H34696   5.599   9.542   6.000  0.1480 -2.6217 -1.5269
  998MOL0     H34697   5.533   9.441   6.123  1.1910 -3.1934 -1.8409
  998MOL0     H34698   5.428   9.433   5.834  0.9095 -0.1354  0.1572
  998MOL0     H34699   5.571   9.350   5.874  0.3358 -2.8202  1.7809
  998MOL0     H34700   5.352   9.229   5.872  3.6009  0.4608 -0.1071
  998MOL0     H34701   5.294   9.343   5.999 -0.2963 -1.4078  0.4975
  998MOL0     H34702   5.343   9.125   6.091  0.5643 -0.5839 -1.6506
  998MOL0     H34703   5.433   9.253   6.165  1.5652 -1.5889  0.6991
  998MOL0     H34704   5.523   9.056   5.945  3.5781  0.0849 -1.8272
  998MOL0     H34705   5.630   9.186   5.993 -0.4385  1.7569  1.8293
  998MOL0     H34706   5.686   8.952   6.093  0.3171  0.6815 -0.6467
  998MOL0     H34707   5.542   8.959   6.181  1.0078 -0.5129  1.3334
  998MOL0     H34708   5.612   9.163   6.294 -0.6300 -1.0962  1.4648
  998MOL0     H34709   5.692   9.017   6.321  0.0648 -1.5668 -1.0769
  998MOL0     H34710   5.172   9.770   6.156 -0.5335  2.7403  2.2680
  998MOL0     H34711   5.068   9.991   6.148  1.8408 -0.3423  1.1703
  998MOL0     H34712   4.793  10.213   5.632 -0.5477  1.2147 -1.0458
  998MOL0     H34713   4.619  10.368   5.626  0.2831 -0.6004  0.1135
  998MOL0     H34714   2.818   9.972   5.744 -3.5561  1.4822 -1.2043
  998MOL0     H34715   2.596  10.010   5.866  2.9767  1.3750 -4.1753
  998MOL0     H34716   2.477   9.906   6.306 -0.0574 -0.0322 -1.0257
  998MOL0     H34717   2.371   9.947   6.523 -1.6013  0.4868  1.4452
  998MOL0     H34718   2.187   9.666   6.661 -1.4138 -0.6111 -1.4165
  998MOL0     H34719   2.023   9.684   6.607  2.6900 -1.9253 -1.6903
  998MOL0     H34720   2.117   9.807   6.865  0.4407 -1.4769  1.5923
  998MOL0     H34721   2.039   9.653   6.846 -0.9240 -0.2441  0.4133
  998MOL0     H34722   1.831   9.740   6.779 -2.7904  1.4073  5.1067
  998MOL0     H34723   1.901   9.884   6.699 -0.4963  0.1796  0.2172
  998MOL0     H34724   1.825   9.824   6.990 -5.8147  0.2815 -1.2765
  998MOL0     H34725   1.950   9.952   6.949 -1.8462 -0.5528  4.8027
  998MOL0     H34726   1.563  10.098   6.845  0.8855  0.8749 -0.8135
  998MOL0     H34727   2.026   9.722   6.383 -0.0675 -0.3205 -0.8422
  998MOL0     H34728   2.015   9.629   6.164  0.2403  0.6149  1.0541
  998MOL0     H34729   2.083   9.747   6.044  0.0674 -0.9401  0.0301
  998MOL0     H34730   2.167   9.601   6.113  1.3903 -0.3164  1.4410
  999MOL0     O34731   2.998   0.540   2.083 -0.4079  0.7946  0.1100
  999MOL0     C34732   3.003   0.505   1.960 -0.6443 -0.2349  0.4322
  999MOL0     O34733   3.122   0.508   1.889  0.1661 -0.2591 -0.3092
  999MOL0     C34734   3.231   0.489   1.966  0.0058 -0.4958  0.1557
  999MOL0     C34735   3.339   0.568   1.952  0.6906 -0.3279 -0.3057
  999MOL0     C34736   3.456   0.556   2.022 -0.7460 -0.2537 -0.1684
  999MOL0     C34737   3.475   0.451   2.109 -0.3454  0.3547  0.0139
  999MOL0     O34738   3.598   0.429   2.165  0.4245  0.3777  0.2076
  999MOL0     C34739   3.668   0.538   2.218  0.8381 -0.0430 -0.0992
  999MOL0     C34740   3.795   0.508   2.300 -0.6228 -0.2828 -0.1027
  999MOL0     C34741   3.867   0.621   2.361  0.9284  0.0477 -0.9009
  999MOL0     C34742   3.983   0.567   2.449  0.1280 -0.3390 -0.7712
  999MOL0     C34743   4.080   0.680   2.498 -0.8624 -0.1996 -0.7998
  999MOL0     C34744   4.202   0.628   2.579 -0.6890  0.5393 -0.6186
  999MOL0     C34745   4.291   0.742   2.619 -0.2823  0.4295 -0.2381
  999MOL0     C34746   4.417   0.683   2.681 -0.3649 -0.3853  0.6295
  999MOL0     N34747   4.504   0.786   2.735  1.0533  0.1737  0.3484
  999MOL0     C34748   4.552   0.902   2.668 -0.3983 -0.4748 -0.3325
  999MOL0     C34749   4.670   0.935   2.732 -0.3818 -0.6547  0.0789
  999MOL0     C34750   4.765   1.047   2.696  0.3719  1.6299 -0.4477
  999MOL0     C34751   4.786   1.115   2.827 -0.0117 -0.0895 -0.3625
  999MOL0     C34752   4.883   1.051   2.923  0.7126  0.5167  0.5392
  999MOL0     C34753   5.030   1.059   2.890 -0.2565  0.5217 -0.3265
  999MOL0     O34754   5.063   1.199   2.894  0.3218  0.0254 -0.1283
  999MOL0     C34755   5.118   1.263   3.003  0.1055  0.5902 -0.7222
  999MOL0     C34756   5.171   1.389   2.986  0.2460 -0.1846  0.6716
  999MOL0     C34757   5.249   1.456   3.083  0.1182  0.5315  0.8320
  999MOL0     C34758   5.282   1.385   3.202  0.5719 -0.1590 -0.0298
  999MOL0     C34759   5.364   1.456   3.303 -0.5813  0.5553 -0.5729
  999MOL0     O34760   5.387   1.386   3.425  0.5741 -0.3412 -0.0698
  999MOL0     C34761   5.493   1.409   3.507 -0.1092 -0.1865 -0.0460
  999MOL0     C34762   5.528   1.317   3.612  0.6165  0.2958 -0.4998
  999MOL0     C34763   5.637   1.337   3.703 -0.4148  0.7223 -1.2684
  999MOL0     C34764   5.697   1.454   3.714  0.0887  0.1138  0.4784
  999MOL0     O34765   5.799   1.461   3.800  0.2029 -0.8956  0.3583
  999MOL0     C34766   5.867   1.591   3.799  0.0191 -0.5081 -0.1189
  999MOL0     C34767   5.998   1.576   3.878 -0.0395  0.1302 -0.1414
  999MOL0     C34768   6.051   1.716   3.914 -0.2666 -0.6854 -0.3301
  999MOL0     C34769   6.195   1.705   3.968 -0.9130  0.2907 -0.9836
  999MOL0     C34770   6.236   1.841   4.026 -0.4500 -0.4146 -0.7064
  999MOL0     C34771   6.366   1.828   4.106 -0.4511 -0.2771 -0.1689
  999MOL0     C34772   6.487   1.814   4.013 -0.0471 -0.3319 -0.9222
  999MOL0     C34773   6.608   1.834   4.110 -0.5681 -0.4741 -0.0182
  999MOL0    Cl34774   6.628   1.707   4.236  0.2307  0.1697  0.2640
  999MOL0     C34775   5.657   1.552   3.616 -0.3623 -0.1395 -1.1733
  999MOL0     C34776   5.563   1.528   3.512 -0.2857 -0.1254 -0.5698
  999MOL0     O34777   5.396   1.572   3.283 -0.1982  0.5786  0.6811
  999MOL0     C34778   5.221   1.258   3.224 -0.1625 -0.3103  0.0989
  999MOL0     C34779   5.138   1.197   3.126 -0.2187  0.2587 -0.6556
  999MOL0     N34780   4.692   0.839   2.826  0.7697  0.2327 -0.1204
  999MOL0     N34781   4.597   0.757   2.825  0.2189 -0.3449 -0.3025
  999MOL0     C34782   3.372   0.365   2.125 -0.0698  0.7273 -0.3396
  999MOL0     C34783   3.247   0.384   2.060 -0.3990 -0.9083  0.1115
  999MOL0     C34784   2.874   0.470   1.888 -0.1216 -0.6000 -0.7353
  999MOL0     C34785   2.750   0.466   1.967  0.7796  0.1105 -0.5131
  999MOL0     C34786   2.634   0.414   1.913 -0.4661  0.4482  0.3852
  999MOL0     C34787   2.624   0.383   1.780 -0.6827 -0.3681  0.4184
  999MOL0     O34788   2.504   0.337   1.729  0.4909 -0.3758 -0.0927
  999MOL0     C34789   2.492   0.297   1.594 -0.1432  0.0806  0.2118
  999MOL0     C34790   2.354   0.256   1.563  0.3264 -0.6838 -0.5117
  999MOL0     C34791   2.304   0.245   1.415  0.5653 -0.2481  0.2739
  999MOL0     C34792   2.403   0.177   1.320  0.3612 -0.2054 -0.9023
  999MOL0     C34793   2.488   0.261   1.234 -0.1242 -0.2184 -1.6833
  999MOL0     C34794   2.559   0.327   1.159  0.1981  0.1585  0.0603
  999MOL0     C34795   2.742   0.403   1.702 -0.0110  0.2173 -0.7687
  999MOL0     C34796   2.867   0.435   1.749  0.6344  0.1671  0.5569
  999MOL0     C34797   2.982   0.443   1.661  0.1972 -0.1997  0.5336
  999MOL0     H34798   3.330   0.649   1.880 -1.8004 -3.0630 -3.3704
  999MOL0     H34799   3.537   0.616   1.981  0.1214  0.1212  1.9394
  999MOL0     H34800   3.698   0.613   2.144  2.5475 -0.7488 -0.1928
  999MOL0     H34801   3.604   0.577   2.297 -0.6771 -2.1412 -0.1882
  999MOL0     H34802   3.870   0.467   2.232 -0.7397 -0.0773 -0.3594
  999MOL0     H34803   3.765   0.434   2.374 -1.3010  1.9221  1.9414
  999MOL0     H34804   3.798   0.661   2.435 -1.9399 -2.0486 -2.2305
  999MOL0     H34805   3.913   0.681   2.282  0.9066 -0.6997 -1.5006
  999MOL0     H34806   3.953   0.518   2.541  1.9277 -0.2072 -0.0663
  999MOL0     H34807   4.033   0.492   2.387  1.2106 -0.0471 -0.2802
  999MOL0     H34808   4.114   0.741   2.414  1.5322 -0.1394  0.1266
  999MOL0     H34809   4.013   0.743   2.557 -0.5811 -0.9049  0.3061
  999MOL0     H34810   4.161   0.575   2.666 -0.0567 -1.5933 -1.5359
  999MOL0     H34811   4.256   0.563   2.510  1.2155  4.2629 -2.9551
  999MOL0     H34812   4.241   0.806   2.693  0.9917  1.0771  0.0929
  999MOL0     H34813   4.307   0.804   2.531  0.9894 -1.7045 -1.5927
  999MOL0     H34814   4.397   0.624   2.771 -0.4069 -1.2055  0.0891
  999MOL0     H34815   4.474   0.622   2.611  0.7603  0.5710  0.6776
  999MOL0     H34816   4.513   0.950   2.580  0.6692 -1.9128 -1.6430
  999MOL0     H34817   4.852   1.002   2.647 -1.0870 -2.2278  0.1717
  999MOL0     H34818   4.712   1.103   2.618 -1.3319 -0.4631 -0.8650
  999MOL0     H34819   4.824   1.217   2.815 -1.6882  0.5553 -0.4631
  999MOL0     H34820   4.688   1.138   2.869 -0.5425 -0.0745 -1.5844
  999MOL0     H34821   4.855   0.945   2.933  0.3994  0.2490 -2.3020
  999MOL0     H34822   4.873   1.090   3.024  0.0182  1.2577  0.1996
  999MOL0     H34823   5.052   1.025   2.788 -2.7890  0.8873 -1.0486
  999MOL0     H34824   5.085   0.995   2.960 -2.3575 -2.7100 -1.3957
  999MOL0     H34825   5.156   1.430   2.887 -0.9370 -0.0743  0.8722
  999MOL0     H34826   5.291   1.556   3.075  0.6189  0.2214 -0.6636
  999MOL0     H34827   5.481   1.221   3.630  2.1199 -0.3585  0.0886
  999MOL0     H34828   5.662   1.262   3.777  0.7949  2.4813  0.1873
  999MOL0     H34829   5.887   1.609   3.694  1.6861  3.6796  0.7428
  999MOL0     H34830   5.812   1.669   3.852 -0.2103 -1.7840  1.6368
  999MOL0     H34831   5.995   1.513   3.968 -1.2714 -1.1668 -1.0511
  999MOL0     H34832   6.065   1.534   3.803  0.8005  3.5980 -1.5034
  999MOL0     H34833   6.050   1.785   3.829 -1.5560  1.6511  1.4589
  999MOL0     H34834   5.987   1.762   3.991 -1.3475 -1.0266 -1.0057
  999MOL0     H34835   6.267   1.661   3.898  0.1893  0.3940  0.0548
  999MOL0     H34836   6.194   1.641   4.056  0.2974 -0.4386 -1.4769
  999MOL0     H34837   6.157   1.864   4.097 -1.2730  0.0242 -1.7449
  999MOL0     H34838   6.242   1.924   3.954  0.9200  1.5466  1.5193
  999MOL0     H34839   6.384   1.913   4.172  0.1482 -2.7965  3.1551
  999MOL0     H34840   6.363   1.739   4.169  2.0755  0.6613  1.4006
  999MOL0     H34841   6.475   1.896   3.941 -0.1613  1.4325  1.0093
  999MOL0     H34842   6.489   1.723   3.953 -1.1660 -2.2066  1.6908
  999MOL0     H34843   6.699   1.852   4.053 -2.6687  2.1727 -2.8710
  999MOL0     H34844   6.589   1.930   4.158 -0.1294  1.7250 -3.8782
  999MOL0     H34845   5.692   1.654   3.623  1.3864 -0.8116  1.7849
  999MOL0     H34846   5.547   1.611   3.444 -1.5310 -0.4058 -0.6319
  999MOL0     H34847   5.235   1.184   3.302 -0.0067 -2.2959 -1.7171
  999MOL0     H34848   5.090   1.100   3.139 -1.1574  0.9148  1.0828
  999MOL0     H34849   3.377   0.279   2.190 -1.3324  0.9437  0.0678
  999MOL0     H34850   3.167   0.317   2.088 -2.4102  0.3930 -2.1294
  999MOL0     H34851   2.753   0.486   2.074 -0.5748  1.3657 -0.6854
  999MOL0     H34852   2.561   0.382   1.986 -1.2377  1.5308  0.1225
  999MOL0     H34853   2.560   0.213   1.577  1.0086  0.9464  0.4123
  999MOL0     H34854   2.511   0.381   1.526 -5.1678  1.2213 -0.1492
  999MOL0     H34855   2.288   0.329   1.611 -2.0758 -2.7242 -0.4653
  999MOL0     H34856   2.332   0.161   1.613  0.8426  0.1130  1.3063
  999MOL0     H34857   2.301   0.345   1.370  0.8322 -0.8852 -1.2259
  999MOL0     H34858   2.210   0.192   1.406  0.5507 -0.1179 -0.3838
  999MOL0     H34859   2.457   0.106   1.383  1.5178  1.3815 -0.0073
  999MOL0     H34860   2.345   0.114   1.252 -1.7683  1.6872 -0.9907
  999MOL0     H34861   2.633   0.374   1.097  1.2438 -0.2891  0.9509
  999MOL0     H34862   2.749   0.380   1.597 -0.3686  2.4322 -1.3272
  999MOL0     H34863   3.039   0.353   1.685 -1.7293 -1.8894 -0.7838
  999MOL0     H34864   2.941   0.436   1.559 -1.0961  0.8404  0.9485
  999MOL0     H34865   3.032   0.540   1.663 -0.5187  0.3079 -1.9288
 1000MOL0     O34866   6.072   9.649   8.204 -0.3702 -0.2737 -0.0990
 1000MOL0     C34867   6.134   9.543   8.223  0.2112  0.4687  0.1468
 1000MOL0     O34868   6.268   9.522   8.210 -0.2809 -0.2914 -0.1331
 1000MOL0     C34869   6.342   9.611   8.132 -0.2226  0.3606 -0.6659
 1000MOL0     C34870   6.301   9.662   8.007  0.1883  0.4533 -1.2705
 1000MOL0     C34871   6.364   9.772   7.946 -0.2273  0.3951 -0.4621
 1000MOL0     C34872   6.473   9.829   8.002  0.6389  0.0944  0.0639
 1000MOL0     O34873   6.529   9.937   7.946 -0.5417  0.7267  0.5585
 1000MOL0     C34874   6.462  10.011   7.842 -0.4104 -0.8286  0.5025
 1000MOL0     C34875   6.560  10.127   7.808 -0.2581  0.3871  0.2374
 1000MOL0     C34876   6.660  10.073   7.706 -0.6367  0.1754  1.1672
 1000MOL0     C34877   6.767  10.173   7.674 -0.0734  0.3444  0.0487
 1000MOL0     C34878   6.884  10.120   7.596  0.7266  0.4703  0.6355
 1000MOL0     C34879   7.003  10.216   7.591  0.1453  0.0419 -0.8994
 1000MOL0     C34880   7.126  10.162   7.526 -0.9948 -0.2455  0.2048
 1000MOL0     C34881   7.100  10.050   7.425  1.0852 -0.2442 -0.3992
 1000MOL0     N34882   7.221  10.004   7.379 -0.1447  0.5870  0.2501
 1000MOL0     C34883   7.322   9.931   7.436  0.1321 -0.1371  0.3133
 1000MOL0     C34884   7.406   9.888   7.335  0.5098 -0.2581  1.5946
 1000MOL0     C34885   7.510   9.788   7.342 -0.2163  0.7717  1.1330
 1000MOL0     C34886   7.487   9.662   7.256 -0.0749  0.1862 -0.5063
 1000MOL0     C34887   7.578   9.558   7.304  0.0670  0.8385  0.0977
 1000MOL0     C34888   7.542   9.434   7.221  0.1964  0.5587  0.7710
 1000MOL0     O34889   7.584   9.315   7.291  0.2649 -0.8085 -0.1027
 1000MOL0     C34890   7.719   9.285   7.295 -0.3936  0.0840  0.0931
 1000MOL0     C34891   7.820   9.315   7.196  1.1487  0.3874  0.2015
 1000MOL0     C34892   7.952   9.276   7.224 -0.4594 -0.0632  0.1383
 1000MOL0     C34893   7.990   9.191   7.328  0.0480 -0.6101  0.9804
 1000MOL0     C34894   8.126   9.149   7.339  0.0377  0.5718  1.0226
 1000MOL0     O34895   8.211   9.202   7.240  1.5184  0.1913  0.5396
 1000MOL0     C34896   8.330   9.255   7.269 -0.8010  0.0365  0.1335
 1000MOL0     C34897   8.440   9.256   7.185 -0.1346  1.0874  0.2892
 1000MOL0     C34898   8.563   9.304   7.222 -1.1149  1.1644  0.2578
 1000MOL0     C34899   8.577   9.353   7.348 -0.9471  0.5472  0.9680
 1000MOL0     O34900   8.708   9.384   7.388  0.3132 -0.2872  0.1276
 1000MOL0     C34901   8.787   9.293   7.468  0.3895  0.0287  0.3685
 1000MOL0     C34902   8.916   9.353   7.487 -0.5543 -0.3212 -0.5321
 1000MOL0     C34903   8.982   9.369   7.353  0.9318 -0.3651 -0.7480
 1000MOL0     C34904   9.118   9.441   7.367 -0.4177  0.0137 -0.0539
 1000MOL0     C34905   9.103   9.592   7.406 -0.6633  0.5110  1.3501
 1000MOL0     C34906   9.244   9.639   7.459  0.2150  0.0772 -0.0668
 1000MOL0     C34907   9.266   9.788   7.454  0.6614 -0.6804 -0.2277
 1000MOL0     C34908   9.398   9.822   7.526 -0.5754 -0.2992  0.5935
 1000MOL0    Cl34909   9.538   9.741   7.450  0.0952 -0.4223  0.4013
 1000MOL0     C34910   8.470   9.361   7.429 -0.1209 -0.0705 -0.8499
 1000MOL0     C34911   8.338   9.325   7.385 -0.1671  0.4454 -0.6606
 1000MOL0     O34912   8.157   9.069   7.428 -0.5317 -0.1751  0.4523
 1000MOL0     C34913   7.887   9.156   7.420  0.2402 -0.5342  0.0962
 1000MOL0     C34914   7.758   9.199   7.398  0.5133 -0.2660  0.1904
 1000MOL0     N34915   7.365   9.954   7.221 -0.0298  0.7109 -0.0883
 1000MOL0     N34916   7.261  10.021   7.251  0.1369  0.5625  0.0589
 1000MOL0     C34917   6.525   9.772   8.122  0.1953 -0.2066 -0.6878
 1000MOL0     C34918   6.465   9.656   8.191  0.2035 -1.3152  0.1025
 1000MOL0     C34919   6.041   9.424   8.255 -0.1260  0.4057 -0.0080
 1000MOL0     C34920   5.898   9.453   8.246  0.4005 -0.1637 -0.3061
 1000MOL0     C34921   5.800   9.367   8.278 -0.6669  0.5556  0.3685
 1000MOL0     C34922   5.831   9.240   8.329 -0.0524 -0.6153 -0.6907
 1000MOL0     O34923   5.736   9.150   8.374  0.8326  0.1243 -0.1264
 1000MOL0     C34924   5.609   9.201   8.412  0.6637 -0.2259 -0.1574
 1000MOL0     C34925   5.531   9.090   8.478 -0.2176 -0.9339 -0.4475
 1000MOL0     C34926   5.422   9.154   8.552 -0.0203 -0.2532 -0.4187
 1000MOL0     C34927   5.328   9.052   8.627 -0.6269 -0.1250  0.0051
 1000MOL0     C34928   5.228   8.986   8.547  0.5173 -0.4977 -0.3549
 1000MOL0     C34929   5.141   8.936   8.477  0.0965  0.2311  0.4633
 1000MOL0     C34930   5.973   9.211   8.339 -0.6812  0.1388  0.1666
 1000MOL0     C34931   6.075   9.293   8.303 -0.2145 -0.3769 -0.3570
 1000MOL0     C34932   6.214   9.235   8.284 -0.3880  0.4913 -0.5919
 1000MOL0     H34933   6.216   9.616   7.957  1.2716 -0.4260 -2.3633
 1000MOL0     H34934   6.322   9.795   7.848  1.1504 -1.5722 -1.5909
 1000MOL0     H34935   6.445   9.948   7.754 -1.5362 -1.7766  1.3577
 1000MOL0     H34936   6.365  10.056   7.862 -1.0922  1.5658 -5.8179
 1000MOL0     H34937   6.611  10.163   7.898  1.1430 -1.5905  0.3060
 1000MOL0     H34938   6.506  10.210   7.763 -0.6764  0.3810  0.7260
 1000MOL0     H34939   6.615  10.048   7.610 -2.9767  5.2102  0.6545
 1000MOL0     H34940   6.710   9.983   7.744  3.0224  2.2017  1.6157
 1000MOL0     H34941   6.716  10.257   7.627 -2.7541 -0.3958  1.4290
 1000MOL0     H34942   6.808  10.206   7.770  0.0751 -0.6735  0.3500
 1000MOL0     H34943   6.915  10.023   7.635 -0.0591 -0.8078 -1.7322
 1000MOL0     H34944   6.858  10.121   7.490 -0.0461  1.4051  0.8188
 1000MOL0     H34945   6.975  10.307   7.536  0.7224  0.2091 -0.9180
 1000MOL0     H34946   7.022  10.250   7.693 -0.9227  0.1829 -0.7290
 1000MOL0     H34947   7.183  10.126   7.612 -1.4447 -0.3196  0.4730
 1000MOL0     H34948   7.173  10.248   7.477 -3.6043  1.3654  0.2994
 1000MOL0     H34949   7.059   9.961   7.474 -0.0537 -2.9972 -5.6105
 1000MOL0     H34950   7.033  10.072   7.342 -1.3883 -1.0554  1.2652
 1000MOL0     H34951   7.308   9.902   7.540 -0.4727  0.3574  0.3804
 1000MOL0     H34952   7.600   9.845   7.319  1.5159 -2.0170  0.6094
 1000MOL0     H34953   7.516   9.768   7.449 -1.7556 -3.9839  0.5381
 1000MOL0     H34954   7.384   9.633   7.275 -0.0715  0.1028 -0.6169
 1000MOL0     H34955   7.491   9.687   7.149 -3.1380 -0.6455 -0.8880
 1000MOL0     H34956   7.558   9.542   7.411 -0.2313  1.4884  0.1392
 1000MOL0     H34957   7.684   9.581   7.288  0.1359  0.9521  0.6830
 1000MOL0     H34958   7.598   9.436   7.127  0.5043  1.7112  0.9638
 1000MOL0     H34959   7.435   9.433   7.196 -0.3362  0.3354  2.8918
 1000MOL0     H34960   7.805   9.390   7.118  1.9073  0.7308  0.3715
 1000MOL0     H34961   8.024   9.311   7.151  1.2194 -0.8818  1.3298
 1000MOL0     H34962   8.426   9.220   7.084  0.1260 -1.4052  1.0577
 1000MOL0     H34963   8.640   9.317   7.146  0.6521  1.7555  2.0690
 1000MOL0     H34964   8.735   9.301   7.564 -1.7265  1.4401 -0.8203
 1000MOL0     H34965   8.796   9.189   7.436 -1.9512  0.0254 -0.4665
 1000MOL0     H34966   8.910   9.451   7.536  3.3255 -1.7253  3.4782
 1000MOL0     H34967   8.973   9.299   7.563  1.3289 -0.3141 -1.8795
 1000MOL0     H34968   9.012   9.274   7.309 -0.7603 -0.7223 -1.1982
 1000MOL0     H34969   8.929   9.421   7.272  2.1993 -2.7224 -3.2200
 1000MOL0     H34970   9.175   9.434   7.273 -0.2958 -3.6361  0.1184
 1000MOL0     H34971   9.180   9.385   7.438 -0.5481  0.7253  0.6290
 1000MOL0     H34972   9.039   9.614   7.492  0.6925  0.2018  2.4608
 1000MOL0     H34973   9.089   9.651   7.314  0.8867  5.3817  3.8708
 1000MOL0     H34974   9.258   9.596   7.559 -0.7996  1.2675  0.6205
 1000MOL0     H34975   9.311   9.589   7.388 -1.6805 -1.2551 -0.9926
 1000MOL0     H34976   9.184   9.842   7.502  0.9351 -0.9615  0.5681
 1000MOL0     H34977   9.269   9.819   7.349 -1.7172 -0.3402 -0.2327
 1000MOL0     H34978   9.406   9.931   7.516 -0.8994 -0.3794 -0.8210
 1000MOL0     H34979   9.401   9.804   7.634  0.8512  2.3239  1.0708
 1000MOL0     H34980   8.476   9.399   7.531 -0.8733 -3.2225  0.4664
 1000MOL0     H34981   8.258   9.332   7.458 -0.5152 -3.5324 -0.4402
 1000MOL0     H34982   7.915   9.091   7.503 -0.2909 -0.0983  0.6329
 1000MOL0     H34983   7.693   9.163   7.476  0.0545  0.7702  0.3087
 1000MOL0     H34984   6.617   9.811   8.165 -0.9798 -0.8090  2.6425
 1000MOL0     H34985   6.503   9.630   8.290  3.7042  1.6703 -0.2061
 1000MOL0     H34986   5.872   9.556   8.223  4.5733  1.3897  1.0045
 1000MOL0     H34987   5.704   9.418   8.273 -1.7306 -1.3393  0.1164
 1000MOL0     H34988   5.548   9.256   8.341 -0.9574 -0.3407  1.0930
 1000MOL0     H34989   5.635   9.275   8.490 -1.9146  2.0759 -1.3250
 1000MOL0     H34990   5.598   9.034   8.544  1.7240 -0.6991 -2.1442
 1000MOL0     H34991   5.481   9.024   8.406 -1.6756 -2.4576  1.8144
 1000MOL0     H34992   5.367   9.220   8.485  0.5849  1.3129  0.5540
 1000MOL0     H34993   5.469   9.213   8.631 -1.4542  0.6786 -0.2284
 1000MOL0     H34994   5.387   8.976   8.679 -0.1655  1.9632  2.7698
 1000MOL0     H34995   5.271   9.109   8.701 -1.3033  1.1137 -1.3999
 1000MOL0     H34996   5.057   8.910   8.416  1.9209 -0.8618 -1.7425
 1000MOL0     H34997   6.006   9.111   8.364  1.1612  0.3004 -1.4131
 1000MOL0     H34998   6.289   9.276   8.352  1.5772 -1.9802 -1.1120
 1000MOL0     H34999   6.209   9.126   8.292  0.3279  0.5215  0.4011
 1000MOL0     H35000   6.232   9.272   8.183 -4.1247 -1.0564 -2.0037
 1001MOL0     O35001  10.364   9.402   3.854  0.1219  0.0050 -0.0840
 1001MOL0     C35002  10.456   9.409   3.934 -0.1674  0.7297 -0.4344
 1001MOL0     O35003  10.587   9.396   3.912 -0.3762 -0.1888 -0.2764
 1001MOL0     C35004  10.637   9.395   3.786 -0.1856  0.1761 -1.1572
 1001MOL0     C35005  10.742   9.303   3.763  0.2967 -0.3083  0.2173
 1001MOL0     C35006  10.808   9.296   3.645 -0.7135  0.7553 -0.1307
 1001MOL0     C35007  10.756   9.365   3.536  0.6749 -0.9018  0.6729
 1001MOL0     O35008  10.821   9.344   3.418  0.2833  0.2140  0.2506
 1001MOL0     C35009  10.745   9.284   3.315  0.4629  0.6544  0.2529
 1001MOL0     C35010  10.844   9.246   3.201  0.6950  0.2825  0.3499
 1001MOL0     C35011  10.762   9.200   3.082 -0.3294 -0.4196  0.3851
 1001MOL0     C35012  10.858   9.160   2.968 -1.2597  0.4460 -0.4128
 1001MOL0     C35013  10.780   9.100   2.846 -0.4877 -0.1835  0.4572
 1001MOL0     C35014  10.738   8.951   2.886  0.8962  1.4562  0.2600
 1001MOL0     C35015  10.847   8.843   2.886  0.0841  0.9193 -0.0457
 1001MOL0     C35016  10.787   8.703   2.914 -0.1494 -0.3004  0.3257
 1001MOL0     N35017  10.687   8.656   2.816  0.7918 -0.9018  0.1033
 1001MOL0     C35018  10.706   8.656   2.679 -1.0825  0.1548 -1.3614
 1001MOL0     C35019  10.595   8.601   2.625  0.2878 -0.1123 -0.0622
 1001MOL0     C35020  10.551   8.598   2.475  0.1505 -0.8140  0.7266
 1001MOL0     C35021  10.650   8.508   2.397  0.1635 -0.9906 -0.0175
 1001MOL0     C35022  10.599   8.494   2.244  0.7714  0.9737 -0.4682
 1001MOL0     C35023  10.654   8.371   2.175  1.0876  0.0304 -0.7812
 1001MOL0     O35024  10.775   8.414   2.110 -0.3478  0.2388  0.3457
 1001MOL0     C35025  10.851   8.315   2.042 -0.2297 -0.1630  0.2619
 1001MOL0     C35026  10.973   8.350   1.982  0.0336  0.6371 -0.7009
 1001MOL0     C35027  11.052   8.253   1.919 -0.0037  0.0906 -0.5306
 1001MOL0     C35028  11.022   8.116   1.925  0.8295  0.0781  0.0452
 1001MOL0     C35029  11.106   8.021   1.865 -0.3753  0.3195 -0.4684
 1001MOL0     O35030  11.059   7.894   1.882 -0.1318 -0.3399  0.6331
 1001MOL0     C35031  11.145   7.788   1.850  0.1395  0.3269  0.1205
 1001MOL0     C35032  11.279   7.795   1.888 -0.0181  0.1605 -0.8129
 1001MOL0     C35033  11.358   7.679   1.863  0.1433 -1.3327  0.3208
 1001MOL0     C35034  11.310   7.570   1.793  0.6913  0.3360  0.3395
 1001MOL0     O35035  11.385   7.457   1.776  0.0517 -0.2316  0.1791
 1001MOL0     C35036  11.417   7.423   1.644  0.1079  0.2978 -0.5996
 1001MOL0     C35037  11.433   7.268   1.637 -0.3015  0.1923  0.7575
 1001MOL0     C35038  11.310   7.184   1.673 -0.0202  0.1280  0.2229
 1001MOL0     C35039  11.311   7.032   1.654  0.3803  0.0249  0.5766
 1001MOL0     C35040  11.191   6.981   1.738  0.0401  0.3655  0.6228
 1001MOL0     C35041  11.135   6.844   1.709  0.4944  0.8556 -0.2757
 1001MOL0     C35042  11.239   6.734   1.673  0.4179 -0.2347  0.1605
 1001MOL0     C35043  11.189   6.589   1.716  0.7447 -0.5001 -0.4340
 1001MOL0    Cl35044  11.063   6.521   1.603 -0.4647  0.0566 -0.3393
 1001MOL0     C35045  11.171   7.564   1.763 -0.7072  0.6941  1.0187
 1001MOL0     C35046  11.092   7.671   1.799 -0.1512 -0.7123 -0.2704
 1001MOL0     O35047  11.201   8.057   1.803  0.5908 -0.0263  0.4385
 1001MOL0     C35048  10.896   8.086   1.979  0.1736  0.7094  0.2475
 1001MOL0     C35049  10.814   8.182   2.036 -0.2414  0.0391 -0.8966
 1001MOL0     N35050  10.506   8.590   2.733  0.8781 -0.2637 -0.4393
 1001MOL0     N35051  10.562   8.625   2.846  0.0033 -0.4789  0.5544
 1001MOL0     C35052  10.650   9.451   3.550  0.5109 -0.1521  0.1587
 1001MOL0     C35053  10.587   9.472   3.679  0.5621  0.1502 -0.6559
 1001MOL0     C35054  10.419   9.441   4.072 -0.6849 -0.6096 -0.0703
 1001MOL0     C35055  10.525   9.495   4.159 -0.0601  0.5521  0.0244
 1001MOL0     C35056  10.491   9.541   4.284  0.0053 -0.7940 -0.1153
 1001MOL0     C35057  10.365   9.536   4.339  0.3209 -0.8418  0.7885
 1001MOL0     O35058  10.356   9.602   4.460 -0.4522 -0.0986 -0.4756
 1001MOL0     C35059  10.224   9.630   4.513 -0.1591  0.2392  0.4084
 1001MOL0     C35060  10.239   9.710   4.646 -0.2982  0.6383 -0.9924
 1001MOL0     C35061  10.104   9.737   4.703  0.3098 -1.2923  0.0498
 1001MOL0     C35062  10.100   9.857   4.803 -1.0652 -0.0661  0.0903
 1001MOL0     C35063  10.183   9.830   4.915 -0.2110  0.3533 -0.1259
 1001MOL0     C35064  10.243   9.801   5.023  0.1833 -0.8880 -0.0795
 1001MOL0     C35065  10.263   9.486   4.264  0.3719 -0.8218  0.1105
 1001MOL0     C35066  10.284   9.438   4.132  0.7663  0.0221 -0.7866
 1001MOL0     C35067  10.163   9.391   4.060 -0.2582 -0.1545 -0.5752
 1001MOL0     H35068  10.779   9.236   3.841  4.5907  1.2348 -0.2194
 1001MOL0     H35069  10.894   9.232   3.630  0.1212  1.7987  0.0679
 1001MOL0     H35070  10.699   9.196   3.361 -3.5599  1.6864 -1.4368
 1001MOL0     H35071  10.667   9.352   3.280 -1.3354  0.5264  3.6597
 1001MOL0     H35072  10.906   9.163   3.236  0.9985  0.3132 -0.1071
 1001MOL0     H35073  10.896   9.340   3.180  1.3399  0.0806  0.9788
 1001MOL0     H35074  10.701   9.280   3.039 -1.6067 -1.2861  0.5147
 1001MOL0     H35075  10.697   9.117   3.111 -0.3536 -1.0534 -1.3644
 1001MOL0     H35076  10.909   9.251   2.934  1.1022 -0.1461  1.2678
 1001MOL0     H35077  10.935   9.091   3.005 -1.4145  1.4181  1.8799
 1001MOL0     H35078  10.695   9.162   2.816  0.1139  0.1055 -0.6973
 1001MOL0     H35079  10.855   9.095   2.767 -0.6964 -0.6783  0.2844
 1001MOL0     H35080  10.684   8.959   2.981  0.0880  2.7504 -0.2890
 1001MOL0     H35081  10.661   8.925   2.813 -0.9984  1.1170  2.2857
 1001MOL0     H35082  10.919   8.864   2.966  0.9590 -0.9962 -0.2825
 1001MOL0     H35083  10.889   8.838   2.785 -2.8388  0.0020 -1.3162
 1001MOL0     H35084  10.868   8.629   2.914 -0.1698 -0.3389  1.3952
 1001MOL0     H35085  10.740   8.704   3.013 -2.2535 -0.6444 -0.6210
 1001MOL0     H35086  10.796   8.688   2.628  1.0454 -1.2302  1.2405
 1001MOL0     H35087  10.451   8.554   2.477 -1.7241  2.9635  1.1849
 1001MOL0     H35088  10.553   8.695   2.423 -4.0676 -0.5806  0.6990
 1001MOL0     H35089  10.749   8.556   2.404  0.1517 -1.1109  1.3320
 1001MOL0     H35090  10.649   8.409   2.443  1.8644 -0.9249  0.2209
 1001MOL0     H35091  10.599   8.586   2.184 -1.4819 -0.8729 -3.6086
 1001MOL0     H35092  10.494   8.473   2.264  0.8391  0.9033 -0.1853
 1001MOL0     H35093  10.582   8.326   2.106  0.8131 -1.0860  0.2052
 1001MOL0     H35094  10.685   8.300   2.252 -3.6248 -1.7979 -0.2638
 1001MOL0     H35095  10.991   8.457   1.974 -3.5453  1.7067  2.6469
 1001MOL0     H35096  11.140   8.282   1.863  2.0039 -1.9107  1.3735
 1001MOL0     H35097  11.327   7.879   1.938  0.4189 -1.4343  1.6060
 1001MOL0     H35098  11.465   7.680   1.881 -0.0235 -0.2336  1.4118
 1001MOL0     H35099  11.334   7.446   1.576  0.2646  1.0747 -0.5339
 1001MOL0     H35100  11.506   7.470   1.600  0.3707  0.0624 -0.3230
 1001MOL0     H35101  11.464   7.235   1.537 -0.1258  0.0829  0.8475
 1001MOL0     H35102  11.519   7.246   1.701 -0.1108 -0.7460  0.2015
 1001MOL0     H35103  11.297   7.207   1.779  1.3463  0.6698  0.2864
 1001MOL0     H35104  11.226   7.220   1.613  0.4793  1.6775  0.4209
 1001MOL0     H35105  11.395   6.972   1.691 -0.0059  0.1388  1.6900
 1001MOL0     H35106  11.297   7.008   1.548 -0.9813  1.3749  0.4192
 1001MOL0     H35107  11.107   7.051   1.741  0.5706  1.0189  3.9229
 1001MOL0     H35108  11.228   6.990   1.841  0.3726  0.1870  0.5197
 1001MOL0     H35109  11.072   6.808   1.792  1.8243  0.2779  0.5050
 1001MOL0     H35110  11.066   6.847   1.624  0.7376 -2.5197 -0.7191
 1001MOL0     H35111  11.336   6.762   1.716 -0.7293  0.9801  2.0732
 1001MOL0     H35112  11.261   6.732   1.566  1.5205  0.3155  0.3580
 1001MOL0     H35113  11.275   6.522   1.703 -1.6435 -3.5476 -2.1315
 1001MOL0     H35114  11.173   6.592   1.824  3.7755  2.4100  0.0801
 1001MOL0     H35115  11.130   7.481   1.707  0.2957  0.2503  0.9233
 1001MOL0     H35116  10.989   7.684   1.766  0.8381  1.5145 -2.9517
 1001MOL0     H35117  10.853   7.987   1.968 -1.5776  1.3561  0.9148
 1001MOL0     H35118  10.719   8.151   2.080 -0.3569  2.4369  0.7158
 1001MOL0     H35119  10.618   9.507   3.463 -0.7843 -1.2996 -0.1455
 1001MOL0     H35120  10.509   9.547   3.685  1.0111  0.7030 -1.4251
 1001MOL0     H35121  10.628   9.499   4.122 -0.4923 -0.1121 -1.3319
 1001MOL0     H35122  10.576   9.582   4.337 -0.0278 -2.0020  0.9346
 1001MOL0     H35123  10.173   9.534   4.527 -1.1145  0.5270 -0.8848
 1001MOL0     H35124  10.162   9.683   4.440 -1.7810 -2.6286 -0.4505
 1001MOL0     H35125  10.295   9.801   4.622 -0.4039  1.2860  1.0171
 1001MOL0     H35126  10.294   9.651   4.720 -2.0300  2.4753  1.9191
 1001MOL0     H35127  10.058   9.645   4.738  1.3800 -1.6890  0.4591
 1001MOL0     H35128  10.048   9.772   4.616  2.8063 -1.3873 -1.7014
 1001MOL0     H35129  10.141   9.948   4.758  2.7531 -0.8217  1.6379
 1001MOL0     H35130   9.993   9.867   4.825 -0.9603 -0.6853  0.9313
 1001MOL0     H35131  10.278   9.777   5.121  2.3073  4.4619  0.8511
 1001MOL0     H35132  10.165   9.488   4.311  1.4832 -1.9919  2.6263
 1001MOL0     H35133  10.176   9.291   4.019 -1.1415  1.1964 -4.5505
 1001MOL0     H35134  10.076   9.386   4.127 -0.8672  0.3588 -1.3104
 1001MOL0     H35135  10.134   9.460   3.981 -1.5896 -1.0239 -0.8822
 1002MOL0     O35136   8.319  10.692   8.238 -0.0795 -0.1299 -0.2237
 1002MOL0     C35137   8.334  10.575   8.278  0.3312  0.4787  1.6333
 1002MOL0     O35138   8.233  10.479   8.271  0.5708  0.0029 -0.1887
 1002MOL0     C35139   8.113  10.523   8.220 -1.2021  1.1841  0.6124
 1002MOL0     C35140   8.024  10.595   8.299  0.7529  0.6180  0.2635
 1002MOL0     C35141   7.893  10.613   8.253 -0.9482  0.1526 -0.5979
 1002MOL0     C35142   7.848  10.561   8.132 -0.1388 -0.1051  0.2330
 1002MOL0     O35143   7.716  10.588   8.101 -0.3626  0.5993  0.5066
 1002MOL0     C35144   7.654  10.517   7.996  0.0399  0.1987  0.4163
 1002MOL0     C35145   7.508  10.504   8.029 -0.7678  1.3857 -0.5019
 1002MOL0     C35146   7.418  10.541   7.910  0.5820  0.2948 -0.4787
 1002MOL0     C35147   7.272  10.500   7.940  0.3201 -0.1531  0.4280
 1002MOL0     C35148   7.176  10.543   7.833  0.1759 -0.6188  1.2441
 1002MOL0     C35149   7.026  10.516   7.855  0.5974 -0.0788 -0.5265
 1002MOL0     C35150   6.961  10.589   7.974 -0.0941 -1.1588  0.2575
 1002MOL0     C35151   6.935  10.517   8.102  1.1717 -0.4963 -0.1155
 1002MOL0     N35152   6.887  10.606   8.210  0.5224 -0.3980 -0.6747
 1002MOL0     C35153   6.771  10.673   8.214 -0.5055  0.1214 -0.1068
 1002MOL0     C35154   6.754  10.717   8.346 -0.3155  0.9070 -0.1514
 1002MOL0     C35155   6.646  10.810   8.385  0.3489 -0.2071 -1.3723
 1002MOL0     C35156   6.549  10.732   8.470  0.8799 -0.1075 -1.0970
 1002MOL0     C35157   6.571  10.733   8.623  0.8072 -0.3490 -0.4168
 1002MOL0     C35158   6.538  10.863   8.692 -0.0726  1.5764 -0.4997
 1002MOL0     O35159   6.648  10.925   8.749 -0.1764  0.2069 -0.4936
 1002MOL0     C35160   6.643  11.047   8.814  0.2662 -0.0137  0.7581
 1002MOL0     C35161   6.742  11.090   8.899  0.1672 -0.6109 -0.5417
 1002MOL0     C35162   6.730  11.211   8.966  0.4185  0.1213  0.2379
 1002MOL0     C35163   6.619  11.299   8.939  0.0141 -0.1614  0.0893
 1002MOL0     C35164   6.609  11.433   8.998  0.0665 -0.3952 -0.0569
 1002MOL0     O35165   6.495  11.505   8.976 -0.0771 -0.5351  0.5307
 1002MOL0     C35166   6.492  11.644   9.000  0.0526  1.3330 -0.3680
 1002MOL0     C35167   6.546  11.727   8.900  0.7056  0.1052 -0.2022
 1002MOL0     C35168   6.515  11.871   8.910  0.0107  0.6394 -0.8219
 1002MOL0     C35169   6.463  11.924   9.034 -0.0375  0.4699  0.5905
 1002MOL0     O35170   6.435  12.055   9.029  0.0127  0.6335 -0.1128
 1002MOL0     C35171   6.440  12.119   9.160  0.5333  0.8101  0.5721
 1002MOL0     C35172   6.379  12.259   9.116  0.2102  0.9457  0.3635
 1002MOL0     C35173   6.233  12.236   9.062 -0.1656  0.1784  0.9938
 1002MOL0     C35174   6.149  12.363   9.057  0.4956 -0.6076  0.6703
 1002MOL0     C35175   6.017  12.357   8.974 -0.1312  0.3382  0.0231
 1002MOL0     C35176   5.905  12.428   9.037 -0.4078  0.1037  0.7440
 1002MOL0     C35177   5.784  12.435   8.940 -0.3345  0.2349 -0.0198
 1002MOL0     C35178   5.661  12.495   9.006  0.4885 -0.4188 -0.0247
 1002MOL0    Cl35179   5.573  12.378   9.101  0.2174 -0.3907 -0.2703
 1002MOL0     C35180   6.439  11.832   9.139  0.1316  0.2952  0.8578
 1002MOL0     C35181   6.457  11.691   9.124  0.2804 -1.1423  0.6818
 1002MOL0     O35182   6.711  11.479   9.055 -0.1131  0.0306 -0.3734
 1002MOL0     C35183   6.519  11.251   8.856  0.7289  0.6319 -0.5861
 1002MOL0     C35184   6.531  11.127   8.804  0.0980  0.2304 -0.3160
 1002MOL0     N35185   6.854  10.656   8.425  0.1518 -0.7315 -0.0116
 1002MOL0     N35186   6.938  10.600   8.341  0.0192 -0.1591 -0.3019
 1002MOL0     C35187   7.943  10.499   8.051  0.4186  0.5082  0.3634
 1002MOL0     C35188   8.077  10.478   8.095 -0.2963 -1.0640  0.5876
 1002MOL0     C35189   8.468  10.521   8.316  0.3094  0.3433 -0.5718
 1002MOL0     C35190   8.477  10.393   8.374 -0.2300  0.3368  0.7438
 1002MOL0     C35191   8.595  10.332   8.419 -0.6952 -0.1839  0.8090
 1002MOL0     C35192   8.707  10.411   8.424 -0.1519 -0.4123 -0.2717
 1002MOL0     O35193   8.827  10.365   8.478  0.9746 -0.6208  0.0399
 1002MOL0     C35194   8.841  10.227   8.512 -0.0951  0.4195 -0.3005
 1002MOL0     C35195   8.943  10.201   8.623 -0.0440  0.0117 -0.0182
 1002MOL0     C35196   9.087  10.252   8.589  0.0273  0.8030  0.0660
 1002MOL0     C35197   9.178  10.261   8.721  0.8568  0.4952 -0.0164
 1002MOL0     C35198   9.317  10.253   8.680  0.5109  0.3080  0.9190
 1002MOL0     C35199   9.425  10.274   8.626  0.1832 -0.2863  0.4619
 1002MOL0     C35200   8.706  10.534   8.356 -0.0262  0.3233 -0.1895
 1002MOL0     C35201   8.588  10.578   8.293 -0.1163 -0.5837  0.0103
 1002MOL0     C35202   8.605  10.722   8.243  0.2198 -0.6880  0.4088
 1002MOL0     H35203   8.039  10.637   8.398  1.5534  2.2601 -0.5187
 1002MOL0     H35204   7.828  10.674   8.315  0.8478 -1.5243  3.2743
 1002MOL0     H35205   7.680  10.565   7.901  0.1836  0.1262  0.4186
 1002MOL0     H35206   7.691  10.415   7.983 -0.4379  0.0252  0.4048
 1002MOL0     H35207   7.483  10.566   8.115 -0.8237 -0.1342  0.6191
 1002MOL0     H35208   7.491  10.401   8.060 -1.6908  1.2789 -1.3431
 1002MOL0     H35209   7.451  10.480   7.826  2.3266 -1.2693  1.2400
 1002MOL0     H35210   7.417  10.648   7.885  1.3895  0.3117 -0.4655
 1002MOL0     H35211   7.266  10.391   7.940 -0.8286 -0.1282  1.6020
 1002MOL0     H35212   7.239  10.541   8.036  0.7393  0.0982  0.4667
 1002MOL0     H35213   7.195  10.648   7.807 -1.0223  0.2794  3.7816
 1002MOL0     H35214   7.197  10.498   7.735  3.3712  1.5294  0.7767
 1002MOL0     H35215   6.982  10.547   7.760 -1.5647  0.6357  0.6324
 1002MOL0     H35216   7.004  10.410   7.869 -0.8939  0.4722  1.9066
 1002MOL0     H35217   6.866  10.630   7.939  0.9217  1.8619  0.7062
 1002MOL0     H35218   7.033  10.669   7.997 -0.8162 -0.6692  0.8475
 1002MOL0     H35219   6.858  10.439   8.098 -2.8057  3.1528 -1.3010
 1002MOL0     H35220   7.029  10.473   8.139 -0.3067 -4.0134 -0.1397
 1002MOL0     H35221   6.699  10.700   8.137 -2.7820  0.5337  2.0109
 1002MOL0     H35222   6.692  10.893   8.439  1.4067 -1.1103 -0.8451
 1002MOL0     H35223   6.598  10.850   8.295  1.0509 -0.2518 -1.7715
 1002MOL0     H35224   6.447  10.764   8.448  1.0530 -0.5469 -2.6424
 1002MOL0     H35225   6.549  10.625   8.445 -1.6919 -0.5815  0.5035
 1002MOL0     H35226   6.673  10.701   8.647  2.4589  2.4724 -2.9777
 1002MOL0     H35227   6.512  10.649   8.661 -2.3588 -0.8101 -5.3458
 1002MOL0     H35228   6.474  10.836   8.776  1.0986 -0.6424 -0.2590
 1002MOL0     H35229   6.490  10.924   8.614 -0.6652 -0.2608 -1.6293
 1002MOL0     H35230   6.817  11.015   8.920 -1.2261 -1.5065  1.5447
 1002MOL0     H35231   6.808  11.236   9.037  1.4616 -2.0569 -0.0617
 1002MOL0     H35232   6.589  11.672   8.817  1.6458 -0.2285  0.4918
 1002MOL0     H35233   6.555  11.940   8.837  1.6413  0.9602  0.3360
 1002MOL0     H35234   6.361  12.082   9.226 -1.3086 -1.0538 -2.3949
 1002MOL0     H35235   6.543  12.117   9.196  1.6682 -0.9449 -2.4234
 1002MOL0     H35236   6.376  12.323   9.205  0.0893 -1.8808  2.5357
 1002MOL0     H35237   6.439  12.312   9.042  0.6462  1.8383  1.3394
 1002MOL0     H35238   6.243  12.196   8.961 -2.3344 -2.6007  1.7502
 1002MOL0     H35239   6.178  12.160   9.119  0.5878 -1.8666 -0.8599
 1002MOL0     H35240   6.208  12.442   9.008 -0.3246 -1.2182 -1.4252
 1002MOL0     H35241   6.142  12.380   9.165  1.2837  2.3528  0.3578
 1002MOL0     H35242   5.991  12.254   8.949  2.7189 -0.4887  0.0525
 1002MOL0     H35243   6.032  12.403   8.876 -0.3099 -2.0972 -1.1982
 1002MOL0     H35244   5.867  12.372   9.123 -2.0873  2.9259  1.9558
 1002MOL0     H35245   5.940  12.529   9.056  2.1017 -0.2748 -1.2464
 1002MOL0     H35246   5.762  12.338   8.894 -0.9678  1.3014 -2.0694
 1002MOL0     H35247   5.806  12.502   8.856  4.2766 -0.1102  0.6188
 1002MOL0     H35248   5.691  12.580   9.068 -4.2014  1.0363  0.6822
 1002MOL0     H35249   5.581  12.527   8.938  0.4233  0.4229  0.4381
 1002MOL0     H35250   6.396  11.850   9.238 -1.3919  0.4530  0.2025
 1002MOL0     H35251   6.431  11.636   9.214  0.7771  0.9098  2.1590
 1002MOL0     H35252   6.429  11.308   8.837  0.2583  0.3475  0.7135
 1002MOL0     H35253   6.445  11.087   8.751  0.7547 -2.8720  0.7767
 1002MOL0     H35254   7.910  10.471   7.952 -2.0200  0.0854  1.2093
 1002MOL0     H35255   8.141  10.427   8.023 -0.9938 -1.9003  0.5403
 1002MOL0     H35256   8.385  10.334   8.374  0.5752 -0.9457  1.3421
 1002MOL0     H35257   8.591  10.226   8.441 -1.0249 -0.5388 -0.8292
 1002MOL0     H35258   8.869  10.182   8.417 -0.8660  1.0119 -0.8136
 1002MOL0     H35259   8.755  10.167   8.543  1.5034 -3.3698 -2.6104
 1002MOL0     H35260   8.941  10.093   8.637 -0.9632 -0.0554 -0.5480
 1002MOL0     H35261   8.921  10.248   8.719  0.3806 -0.1695  0.1656
 1002MOL0     H35262   9.076  10.355   8.554  2.8801  0.8784 -0.8633
 1002MOL0     H35263   9.133  10.189   8.512  0.0199 -1.3500  1.7369
 1002MOL0     H35264   9.161  10.356   8.771  1.0698  0.8409 -0.5956
 1002MOL0     H35265   9.152  10.183   8.794  0.2882 -0.8459 -1.5857
 1002MOL0     H35266   9.509  10.289   8.562  1.8194 -0.5142  2.4794
 1002MOL0     H35267   8.806  10.577   8.352  0.4484 -0.3909  2.1733
 1002MOL0     H35268   8.710  10.747   8.224  0.3172  0.7254  2.4059
 1002MOL0     H35269   8.558  10.731   8.145 -2.7458  2.5456  1.9015
 1002MOL0     H35270   8.561  10.793   8.313  1.3832 -1.3735  1.9018
 1003MOL0     O35271   9.245   1.412   1.273 -0.2390  0.0110  0.0929
 1003MOL0     C35272   9.197   1.511   1.220  0.7916 -0.6617 -0.5997
 1003MOL0     O35273   9.266   1.611   1.162 -0.4291 -0.5894  1.3631
 1003MOL0     C35274   9.402   1.618   1.155  0.3266  0.5456 -0.5791
 1003MOL0     C35275   9.449   1.647   1.035  0.0478  0.3075  0.1592
 1003MOL0     C35276   9.580   1.628   0.995 -0.1364  0.4414  0.1871
 1003MOL0     C35277   9.667   1.578   1.097 -0.2107  0.2029  0.3866
 1003MOL0     O35278   9.790   1.546   1.054 -1.2688  0.0486  0.1689
 1003MOL0     C35279   9.897   1.502   1.150  0.1263  0.8188 -0.2011
 1003MOL0     C35280  10.042   1.490   1.087 -0.0376  0.9476  1.1272
 1003MOL0     C35281  10.095   1.627   1.039 -0.5362  0.1972  0.2748
 1003MOL0     C35282  10.232   1.604   0.990  0.2372 -0.1321  0.3655
 1003MOL0     C35283  10.293   1.723   0.907  0.3362 -0.2064 -0.5090
 1003MOL0     C35284  10.418   1.677   0.836 -0.0653 -0.0287 -0.6201
 1003MOL0     C35285  10.542   1.678   0.931 -0.6131 -0.2063  0.6748
 1003MOL0     C35286  10.670   1.642   0.837 -0.0217  0.5360 -0.2953
 1003MOL0     N35287  10.789   1.624   0.928  0.2256 -0.3506  0.2920
 1003MOL0     C35288  10.795   1.543   1.039 -0.4088  0.1591  0.3978
 1003MOL0     C35289  10.937   1.536   1.055 -0.2222  0.0494  0.1244
 1003MOL0     C35290  10.993   1.468   1.179 -0.3284  0.2815  0.5048
 1003MOL0     C35291  11.119   1.392   1.154  0.6182  1.3064  0.1840
 1003MOL0     C35292  11.242   1.476   1.160 -0.5434 -0.2126  0.7750
 1003MOL0     C35293  11.322   1.421   1.046 -0.7858 -0.6226 -0.3019
 1003MOL0     O35294  11.454   1.443   1.078  0.5462  0.7260 -0.1657
 1003MOL0     C35295  11.524   1.324   1.097 -0.0952  0.2495 -0.4093
 1003MOL0     C35296  11.657   1.328   1.065  0.1877  0.2647  0.4262
 1003MOL0     C35297  11.737   1.212   1.071  0.1226 -0.1300 -0.6341
 1003MOL0     C35298  11.680   1.092   1.123  0.2416 -0.4917 -0.0441
 1003MOL0     C35299  11.753   0.964   1.130 -0.8440  0.3669  1.1703
 1003MOL0     O35300  11.703   0.859   1.210 -0.3389  0.0513 -0.0971
 1003MOL0     C35301  11.780   0.748   1.218  0.9636 -0.3068  0.2978
 1003MOL0     C35302  11.729   0.636   1.157  0.0095 -0.9901 -0.2797
 1003MOL0     C35303  11.797   0.521   1.140  0.3477 -1.1297 -0.0150
 1003MOL0     C35304  11.922   0.508   1.193 -0.6384  0.2648  0.5101
 1003MOL0     O35305  11.993   0.394   1.156  0.6397 -0.0549  0.3920
 1003MOL0     C35306  12.124   0.380   1.105 -0.1014 -0.2549  0.7155
 1003MOL0     C35307  12.115   0.376   0.951 -0.2855  0.0897 -0.6018
 1003MOL0     C35308  12.081   0.239   0.892 -0.1584 -0.2136  0.8784
 1003MOL0     C35309  11.932   0.198   0.872 -0.4323 -0.6890 -0.0058
 1003MOL0     C35310  11.904   0.051   0.829  0.2335  0.3920 -0.2372
 1003MOL0     C35311  11.765   0.025   0.766 -0.0609 -0.4974  0.9856
 1003MOL0     C35312  11.748   0.094   0.626 -0.6461  1.0579 -0.4333
 1003MOL0     C35313  11.840   0.043   0.517 -0.3543  0.8028 -0.0626
 1003MOL0    Cl35314  11.844  -0.135   0.499 -0.2413  0.0611 -0.1438
 1003MOL0     C35315  11.983   0.618   1.253  0.2962 -0.6091  0.0440
 1003MOL0     C35316  11.915   0.741   1.280  0.2679 -0.4479 -0.3498
 1003MOL0     O35317  11.853   0.949   1.056 -0.2884 -0.7264 -0.3822
 1003MOL0     C35318  11.548   1.099   1.176  0.3323 -0.0045 -0.1543
 1003MOL0     C35319  11.466   1.210   1.169  0.3818  0.1190  0.1100
 1003MOL0     N35320  11.003   1.608   0.957  0.8641  0.3784  0.3160
 1003MOL0     N35321  10.915   1.657   0.881 -0.7681 -0.2480 -0.3891
 1003MOL0     C35322   9.620   1.544   1.224  0.6928 -0.2494  1.2393
 1003MOL0     C35323   9.487   1.567   1.254 -0.2103  0.5857 -0.3355
 1003MOL0     C35324   9.049   1.538   1.232 -0.4557  0.6688 -0.9775
 1003MOL0     C35325   8.988   1.609   1.125 -0.7073  0.1587  0.7946
 1003MOL0     C35326   8.863   1.661   1.128 -0.0036  0.4590 -0.0908
 1003MOL0     C35327   8.787   1.653   1.239  0.5300  0.1084 -0.6696
 1003MOL0     O35328   8.666   1.723   1.276 -0.2383  0.1127 -0.0136
 1003MOL0     C35329   8.607   1.807   1.169  0.0509 -0.1170 -0.8246
 1003MOL0     C35330   8.458   1.832   1.207 -0.2451 -0.5763 -0.1637
 1003MOL0     C35331   8.398   1.933   1.116  0.4223 -1.1404  0.4636
 1003MOL0     C35332   8.247   1.933   1.151 -0.1604  0.2670 -0.4145
 1003MOL0     C35333   8.194   2.023   1.056  0.8348  0.0629  0.0603
 1003MOL0     C35334   8.158   2.092   0.957 -0.4536  0.6531  0.2662
 1003MOL0     C35335   8.832   1.565   1.342  0.3331 -0.7485  0.2220
 1003MOL0     C35336   8.965   1.501   1.333  0.2256 -1.0623  0.4778
 1003MOL0     C35337   9.017   1.428   1.453 -0.1460  0.5618  0.1969
 1003MOL0     H35338   9.380   1.681   0.958  0.2707  0.7527  0.1519
 1003MOL0     H35339   9.611   1.651   0.893 -1.9482 -1.1493 -0.7805
 1003MOL0     H35340   9.907   1.576   1.230  0.5354  3.3102 -2.4441
 1003MOL0     H35341   9.872   1.413   1.209  2.8371 -0.6144 -1.0430
 1003MOL0     H35342  10.028   1.434   0.994 -1.6910  2.4115  0.4263
 1003MOL0     H35343  10.114   1.444   1.155  0.1124 -0.0241  0.3327
 1003MOL0     H35344  10.090   1.702   1.119  0.2198 -0.8657  1.3416
 1003MOL0     H35345  10.030   1.659   0.957 -2.3690  0.6702  1.8346
 1003MOL0     H35346  10.304   1.583   1.069  0.1833  0.3585  0.5482
 1003MOL0     H35347  10.243   1.516   0.925 -0.8885  0.4423 -0.6341
 1003MOL0     H35348  10.215   1.768   0.844  1.6837  3.4887  0.1686
 1003MOL0     H35349  10.318   1.799   0.982  0.2581 -0.1854 -0.5040
 1003MOL0     H35350  10.402   1.576   0.797 -1.3754  0.5608 -1.7237
 1003MOL0     H35351  10.435   1.746   0.753 -2.7791  1.5303 -0.0028
 1003MOL0     H35352  10.522   1.611   1.015 -2.3526 -1.0770 -0.3872
 1003MOL0     H35353  10.554   1.779   0.970  2.4890 -0.4402  0.5818
 1003MOL0     H35354  10.660   1.548   0.783 -4.1661  0.2578  0.5734
 1003MOL0     H35355  10.678   1.717   0.757 -1.3447  1.2145  0.1665
 1003MOL0     H35356  10.721   1.491   1.099  0.3496 -1.7975 -0.3114
 1003MOL0     H35357  11.016   1.539   1.259  1.5295 -1.8116  1.9602
 1003MOL0     H35358  10.918   1.404   1.227  0.0457 -1.1970 -0.8244
 1003MOL0     H35359  11.116   1.309   1.226 -5.1143  0.5116 -0.4857
 1003MOL0     H35360  11.102   1.348   1.056  1.5106  1.3980 -0.0221
 1003MOL0     H35361  11.288   1.456   1.257  2.0585  2.0433  0.1461
 1003MOL0     H35362  11.235   1.584   1.140  0.6884 -0.7010 -3.2188
 1003MOL0     H35363  11.306   1.479   0.955  1.0219  1.1426  0.4212
 1003MOL0     H35364  11.299   1.316   1.026 -1.0133 -1.1112  2.2121
 1003MOL0     H35365  11.706   1.422   1.041  0.2243  0.4777  1.3015
 1003MOL0     H35366  11.836   1.219   1.027  1.9352  0.3810  3.0725
 1003MOL0     H35367  11.636   0.641   1.100 -1.1957 -0.5789  1.6360
 1003MOL0     H35368  11.765   0.435   1.083  0.2382 -0.1112 -1.5381
 1003MOL0     H35369  12.185   0.464   1.139 -0.9752  1.1724 -1.0629
 1003MOL0     H35370  12.176   0.292   1.144  1.2603 -0.4614 -1.3529
 1003MOL0     H35371  12.043   0.451   0.916  1.6029  0.9422 -2.9828
 1003MOL0     H35372  12.212   0.410   0.911  0.4626 -1.1322  0.1226
 1003MOL0     H35373  12.130   0.244   0.795  1.5017  1.9928  1.7328
 1003MOL0     H35374  12.120   0.162   0.959 -1.4761 -1.3470  0.3842
 1003MOL0     H35375  11.874   0.272   0.815 -1.9500 -1.6478  0.2543
 1003MOL0     H35376  11.884   0.208   0.969 -2.6069  2.2925 -1.2322
 1003MOL0     H35377  11.904  -0.015   0.915  0.2714 -1.7126 -1.7808
 1003MOL0     H35378  11.984   0.019   0.763  2.5156  0.7826  2.1877
 1003MOL0     H35379  11.746  -0.082   0.763 -2.2477 -0.4214  5.0197
 1003MOL0     H35380  11.686   0.066   0.830 -0.0402  0.1400  0.6221
 1003MOL0     H35381  11.762   0.202   0.632 -2.4745  1.2794  0.5556
 1003MOL0     H35382  11.649   0.079   0.583 -0.1964 -0.3333 -1.0361
 1003MOL0     H35383  11.803   0.092   0.426 -0.3006  2.4480  0.7753
 1003MOL0     H35384  11.943   0.076   0.531  1.5571 -3.6679 -1.5508
 1003MOL0     H35385  12.080   0.606   1.300 -0.2224 -0.0099  1.3133
 1003MOL0     H35386  11.966   0.826   1.324 -1.2944  1.9181 -2.7719
 1003MOL0     H35387  11.506   1.007   1.216 -0.7393  0.6888  0.3688
 1003MOL0     H35388  11.360   1.208   1.191  0.0481  1.1652 -1.2623
 1003MOL0     H35389   9.689   1.501   1.296  0.6920  0.6718  1.8100
 1003MOL0     H35390   9.453   1.542   1.353  2.5127  0.7558  0.7401
 1003MOL0     H35391   9.046   1.634   1.037 -2.9131  1.5615 -0.3345
 1003MOL0     H35392   8.831   1.729   1.050  3.2189  6.5237  3.2075
 1003MOL0     H35393   8.608   1.758   1.070  2.1778  0.8037 -1.3104
 1003MOL0     H35394   8.645   1.909   1.174  1.5249 -0.7272  2.1929
 1003MOL0     H35395   8.455   1.871   1.309  3.3391 -0.6145  0.0947
 1003MOL0     H35396   8.408   1.735   1.193  3.3101 -2.3079 -2.7609
 1003MOL0     H35397   8.423   1.895   1.017  5.5353  3.8186 -0.6590
 1003MOL0     H35398   8.454   2.025   1.131  2.5465 -2.5543  1.8356
 1003MOL0     H35399   8.196   1.836   1.152  1.6238 -0.7222  1.7056
 1003MOL0     H35400   8.230   1.970   1.253  3.0772  2.2648 -0.4586
 1003MOL0     H35401   8.121   2.144   0.871 -2.8529  0.4350  1.0953
 1003MOL0     H35402   8.779   1.557   1.436  3.2542  0.0622  2.0694
 1003MOL0     H35403   9.118   1.452   1.487  0.2799 -0.7957 -0.0656
 1003MOL0     H35404   8.950   1.451   1.537  1.2101  1.9752  0.9494
 1003MOL0     H35405   9.031   1.322   1.434 -0.2545  0.6117 -0.1626
 1004MOL0     O35406   8.678   3.521   0.803  0.2252  0.1004  0.2116
 1004MOL0     C35407   8.581   3.593   0.798 -0.1149  0.0074 -0.0789
 1004MOL0     O35408   8.581   3.722   0.751 -0.3696 -0.3371 -0.5207
 1004MOL0     C35409   8.699   3.772   0.692  0.5124  0.2281  0.2774
 1004MOL0     C35410   8.756   3.887   0.745 -0.9976 -0.0258 -0.7897
 1004MOL0     C35411   8.872   3.934   0.694 -0.3207 -0.1080  0.6104
 1004MOL0     C35412   8.921   3.888   0.568 -0.1975 -0.2175  1.0859
 1004MOL0     O35413   9.035   3.950   0.523 -0.3439  0.1410  0.0323
 1004MOL0     C35414   9.083   3.911   0.394  0.4765 -0.3859 -0.0436
 1004MOL0     C35415   9.170   4.022   0.332 -0.0414 -0.1151 -0.0655
 1004MOL0     C35416   9.206   4.001   0.182  0.5526  0.2923 -0.2335
 1004MOL0     C35417   9.322   3.908   0.157 -0.0661 -0.2947 -0.0950
 1004MOL0     C35418   9.318   3.849   0.012 -0.1706 -0.1683 -0.2947
 1004MOL0     C35419   9.405   3.729  -0.020 -0.1831  0.3176 -0.0235
 1004MOL0     C35420   9.553   3.762  -0.040 -0.7932  0.5307 -0.1335
 1004MOL0     C35421   9.587   3.789  -0.193 -0.0879 -0.3645  0.1896
 1004MOL0     N35422   9.627   3.671  -0.273  1.3116  0.5237 -0.0809
 1004MOL0     C35423   9.543   3.569  -0.311  0.2169 -0.1765  0.6466
 1004MOL0     C35424   9.622   3.481  -0.371 -0.0604  0.0224  0.3318
 1004MOL0     C35425   9.590   3.357  -0.450  0.1860  0.2946  0.3247
 1004MOL0     C35426   9.577   3.376  -0.598 -0.2169  0.1086 -0.6873
 1004MOL0     C35427   9.709   3.421  -0.663 -0.4166 -0.8049 -0.7810
 1004MOL0     C35428   9.733   3.375  -0.805 -0.8868 -0.4407 -0.1617
 1004MOL0     O35429   9.629   3.424  -0.886  0.4787  0.0301  0.5898
 1004MOL0     C35430   9.604   3.359  -1.006 -0.0686  0.1825  0.0477
 1004MOL0     C35431   9.479   3.388  -1.065 -0.0538 -0.4137 -0.6879
 1004MOL0     C35432   9.434   3.322  -1.180  0.2608  0.0606 -0.0582
 1004MOL0     C35433   9.519   3.230  -1.230  0.0495  1.4722  0.0162
 1004MOL0     C35434   9.462   3.133  -1.340 -0.1279  0.9881 -0.6457
 1004MOL0     O35435   9.331   3.143  -1.377  0.1457  1.2776  0.0952
 1004MOL0     C35436   9.258   3.031  -1.411  0.2032  1.1554  0.0935
 1004MOL0     C35437   9.177   2.951  -1.327  0.0741 -0.0738 -0.1150
 1004MOL0     C35438   9.123   2.834  -1.383 -0.4477  0.2160 -0.6551
 1004MOL0     C35439   9.126   2.816  -1.522  0.3398  0.5131 -1.3436
 1004MOL0     O35440   9.048   2.714  -1.578 -0.1797  0.0845 -0.2175
 1004MOL0     C35441   8.906   2.725  -1.555  0.3124  0.9016 -0.3143
 1004MOL0     C35442   8.859   2.602  -1.490  0.4687 -0.2107 -0.4244
 1004MOL0     C35443   8.730   2.545  -1.524  0.3771  0.0094 -0.1046
 1004MOL0     C35444   8.604   2.605  -1.461  0.0459  0.4045 -0.2686
 1004MOL0     C35445   8.471   2.550  -1.513  0.3620 -0.9635  0.2127
 1004MOL0     C35446   8.352   2.643  -1.471  0.2559  0.4109 -0.0384
 1004MOL0     C35447   8.306   2.667  -1.323 -0.4877  0.5450  1.2894
 1004MOL0     C35448   8.180   2.743  -1.287 -0.0811  0.3745  0.5069
 1004MOL0    Cl35449   8.193   2.905  -1.345 -0.1750  0.0952  0.1937
 1004MOL0     C35450   9.201   2.901  -1.599 -0.2091 -0.5270  0.2615
 1004MOL0     C35451   9.268   3.010  -1.549  0.1405 -0.3957 -0.1614
 1004MOL0     O35452   9.543   3.050  -1.380  0.6191 -0.4303  0.1311
 1004MOL0     C35453   9.641   3.202  -1.175 -0.5693  0.1789 -0.3881
 1004MOL0     C35454   9.684   3.259  -1.056 -0.1375 -0.3600 -0.5729
 1004MOL0     N35455   9.749   3.528  -0.372  0.4215  0.3170  0.0649
 1004MOL0     N35456   9.749   3.641  -0.316  0.0204 -0.5927  0.0390
 1004MOL0     C35457   8.870   3.765   0.520  0.3045 -0.5269 -0.7212
 1004MOL0     C35458   8.756   3.715   0.578 -1.2538 -0.1568  1.1205
 1004MOL0     C35459   8.457   3.535   0.859 -0.2768  0.5852 -0.0644
 1004MOL0     C35460   8.334   3.567   0.811 -0.0314  1.0258  0.2803
 1004MOL0     C35461   8.215   3.525   0.882 -0.7500 -0.7085  0.3767
 1004MOL0     C35462   8.223   3.459   1.001 -0.6403  0.6648 -0.2174
 1004MOL0     O35463   8.103   3.412   1.060  0.1321  0.1368 -0.2060
 1004MOL0     C35464   8.088   3.366   1.194 -0.7885 -0.3336  0.3183
 1004MOL0     C35465   7.966   3.295   1.203  0.1578 -0.3337  0.6494
 1004MOL0     C35466   7.833   3.367   1.154  0.0486 -0.7709 -0.2266
 1004MOL0     C35467   7.734   3.255   1.129 -0.3352  0.5119 -0.5048
 1004MOL0     C35468   7.697   3.180   1.254  0.6319 -0.5147  0.6371
 1004MOL0     C35469   7.676   3.133   1.361  0.5346 -1.0850 -0.4968
 1004MOL0     C35470   8.346   3.434   1.058 -0.0354  0.0329  0.0351
 1004MOL0     C35471   8.466   3.469   0.991  0.5650 -0.3591 -0.6490
 1004MOL0     C35472   8.593   3.446   1.079 -0.0773 -0.2833  0.3714
 1004MOL0     H35473   8.724   3.925   0.841 -0.9610  0.4123 -0.9473
 1004MOL0     H35474   8.923   4.019   0.737  2.4378 -2.4254  2.2307
 1004MOL0     H35475   9.148   3.823   0.404  2.9400  1.1843 -1.0933
 1004MOL0     H35476   8.995   3.883   0.336 -0.3008  3.1558 -0.7821
 1004MOL0     H35477   9.267   4.026   0.382 -1.0645 -0.3459  2.0491
 1004MOL0     H35478   9.117   4.117   0.344 -0.2116 -0.2117 -0.0544
 1004MOL0     H35479   9.236   4.102   0.150 -0.4366  0.5238 -0.4578
 1004MOL0     H35480   9.116   3.964   0.132 -0.5557  1.0914  1.0970
 1004MOL0     H35481   9.415   3.966   0.157  0.1543 -0.6363 -0.3408
 1004MOL0     H35482   9.327   3.840   0.243  0.2102  0.2103  0.2913
 1004MOL0     H35483   9.216   3.813  -0.005 -0.6908  1.6266 -1.1817
 1004MOL0     H35484   9.332   3.924  -0.066  1.2323 -1.0792 -0.9483
 1004MOL0     H35485   9.402   3.658   0.063  3.7779 -1.9410 -1.5132
 1004MOL0     H35486   9.364   3.684  -0.110 -0.5404  1.5369 -0.4910
 1004MOL0     H35487   9.617   3.678  -0.012  1.4797  1.6541 -1.6306
 1004MOL0     H35488   9.587   3.845   0.021  0.5078  1.0715 -1.5260
 1004MOL0     H35489   9.503   3.843  -0.237 -0.5189 -1.6528 -0.6207
 1004MOL0     H35490   9.674   3.853  -0.214  0.0372 -0.3915  0.6089
 1004MOL0     H35491   9.435   3.565  -0.302  0.0285  2.9603  0.8671
 1004MOL0     H35492   9.671   3.286  -0.431 -0.7069 -1.2193 -1.2128
 1004MOL0     H35493   9.497   3.312  -0.412 -1.4373  0.3873 -3.1535
 1004MOL0     H35494   9.549   3.282  -0.646  2.7763 -2.4238  2.1020
 1004MOL0     H35495   9.495   3.445  -0.619 -0.6595 -0.5259 -1.0797
 1004MOL0     H35496   9.798   3.394  -0.605 -0.5266  0.7746  0.1840
 1004MOL0     H35497   9.708   3.530  -0.667  1.4612 -0.7863 -1.8272
 1004MOL0     H35498   9.754   3.268  -0.797  0.6914 -0.0615  1.2628
 1004MOL0     H35499   9.831   3.405  -0.843 -1.2869 -0.5233 -1.3140
 1004MOL0     H35500   9.416   3.460  -1.013  1.3834 -1.7928  3.3715
 1004MOL0     H35501   9.330   3.338  -1.207 -0.8249 -0.1421  3.5289
 1004MOL0     H35502   9.160   2.978  -1.223 -1.4891  2.9102 -1.0115
 1004MOL0     H35503   9.076   2.756  -1.323  1.8430  0.9417  2.3496
 1004MOL0     H35504   8.880   2.811  -1.493  1.5970  0.8352  0.3416
 1004MOL0     H35505   8.853   2.735  -1.650  1.8794  3.3333 -1.0153
 1004MOL0     H35506   8.936   2.526  -1.507  2.3049  0.8552  2.4460
 1004MOL0     H35507   8.865   2.609  -1.381 -0.6398  0.2711 -0.3814
 1004MOL0     H35508   8.723   2.557  -1.633  1.3992  1.9405  0.0052
 1004MOL0     H35509   8.723   2.440  -1.495 -0.7377  0.2840  0.6911
 1004MOL0     H35510   8.602   2.715  -1.465  0.5969  0.3964 -0.8935
 1004MOL0     H35511   8.611   2.578  -1.356 -1.5326  1.3199  0.1078
 1004MOL0     H35512   8.440   2.455  -1.467 -1.9139  1.2311  3.6858
 1004MOL0     H35513   8.472   2.543  -1.622  0.0074  3.0206 -0.2013
 1004MOL0     H35514   8.367   2.736  -1.527  2.6030  0.0553 -0.0719
 1004MOL0     H35515   8.260   2.592  -1.504 -0.5047  1.7077  0.0103
 1004MOL0     H35516   8.396   2.700  -1.269  0.2785  0.4617  0.1099
 1004MOL0     H35517   8.282   2.566  -1.291 -2.9337  0.3371 -0.8829
 1004MOL0     H35518   8.093   2.694  -1.331  0.1878  1.4309 -1.2983
 1004MOL0     H35519   8.172   2.747  -1.178 -1.9451 -1.2244  0.4713
 1004MOL0     H35520   9.213   2.881  -1.705 -1.4177  0.3631 -0.0645
 1004MOL0     H35521   9.330   3.072  -1.613 -2.5072 -0.0081 -2.5437
 1004MOL0     H35522   9.710   3.129  -1.216  0.0870  1.6991 -2.1611
 1004MOL0     H35523   9.774   3.227  -1.005 -1.2169 -1.5929  0.6428
 1004MOL0     H35524   8.924   3.717   0.439  1.9145  0.5035 -0.3097
 1004MOL0     H35525   8.712   3.627   0.531  1.4869 -0.0661 -2.0562
 1004MOL0     H35526   8.322   3.626   0.721 -0.2863  1.8062  0.8092
 1004MOL0     H35527   8.120   3.562   0.846  0.7548  1.3396 -1.7437
 1004MOL0     H35528   8.098   3.448   1.266  1.4789 -2.8858  3.2282
 1004MOL0     H35529   8.166   3.298   1.231 -0.8694  0.4182  1.9569
 1004MOL0     H35530   7.955   3.281   1.310  0.8838  0.8705  0.8999
 1004MOL0     H35531   7.970   3.195   1.159 -0.2455  0.4904 -1.3728
 1004MOL0     H35532   7.843   3.422   1.060  1.5286  0.2525  0.4930
 1004MOL0     H35533   7.785   3.439   1.220 -1.0095  1.9837 -3.6774
 1004MOL0     H35534   7.647   3.285   1.069  0.5426 -1.5811 -2.9983
 1004MOL0     H35535   7.782   3.184   1.061 -0.8590 -0.6865  0.3446
 1004MOL0     H35536   7.658   3.098   1.460 -0.1733  0.4268 -0.0601
 1004MOL0     H35537   8.351   3.379   1.151 -2.0911 -0.9339 -0.3672
 1004MOL0     H35538   8.643   3.543   1.083  0.2000 -0.0861 -3.6400
 1004MOL0     H35539   8.572   3.411   1.180  1.0384  0.7548  0.9800
 1004MOL0     H35540   8.660   3.372   1.034 -1.0406 -0.2449 -1.2441
 1005MOL0     O35541   0.739   7.421   1.786 -0.0435 -0.5471 -0.3495
 1005MOL0     C35542   0.720   7.548   1.793  1.0520 -0.2852 -0.3997
 1005MOL0     O35543   0.708   7.621   1.908 -0.8975 -0.2780  0.1210
 1005MOL0     C35544   0.706   7.557   2.027  0.1737 -0.0484  1.0230
 1005MOL0     C35545   0.818   7.559   2.114 -0.1558  0.3050 -0.4256
 1005MOL0     C35546   0.815   7.489   2.231  1.0522  0.0522  0.2194
 1005MOL0     C35547   0.702   7.408   2.255 -0.7652  0.4516  0.3715
 1005MOL0     O35548   0.702   7.314   2.350  0.1511  0.4138  0.3136
 1005MOL0     C35549   0.754   7.337   2.482 -1.0607 -0.2326  0.3366
 1005MOL0     C35550   0.752   7.205   2.548  0.1554 -0.5564  0.1795
 1005MOL0     C35551   0.861   7.105   2.528  0.5002 -0.0330  0.8245
 1005MOL0     C35552   0.989   7.140   2.598  0.6515  0.1800  0.3255
 1005MOL0     C35553   1.082   7.018   2.590  0.4706  0.1469  0.0707
 1005MOL0     C35554   1.226   7.061   2.615  0.4454  1.0212  0.4937
 1005MOL0     C35555   1.307   6.929   2.668  0.0861 -0.7623  0.1349
 1005MOL0     C35556   1.444   6.962   2.733  1.0925 -0.8482  1.0599
 1005MOL0     N35557   1.534   7.038   2.642  0.1276 -0.7833  0.3850
 1005MOL0     C35558   1.599   6.995   2.530  0.6444 -0.3089  1.0407
 1005MOL0     C35559   1.695   7.085   2.502 -0.4162 -1.0397 -0.6033
 1005MOL0     C35560   1.791   7.058   2.394  0.3396  0.4043  0.4904
 1005MOL0     C35561   1.892   6.954   2.425  0.2766 -0.8441 -0.3287
 1005MOL0     C35562   1.957   6.883   2.299  0.1405 -0.3812 -0.1345
 1005MOL0     C35563   1.859   6.819   2.208 -0.0238  0.7618  0.6548
 1005MOL0     O35564   1.776   6.714   2.276  0.3886 -0.6399 -0.0315
 1005MOL0     C35565   1.679   6.657   2.192 -0.3221  0.9304  0.1040
 1005MOL0     C35566   1.643   6.694   2.068 -0.4083  0.3365  0.4588
 1005MOL0     C35567   1.539   6.626   1.990 -0.1896 -0.1021  0.2843
 1005MOL0     C35568   1.460   6.522   2.047 -0.1019 -0.2350  0.4933
 1005MOL0     C35569   1.348   6.457   1.965  0.2859 -0.3553 -0.6855
 1005MOL0     O35570   1.337   6.492   1.830 -0.8096  0.3745 -0.7975
 1005MOL0     C35571   1.220   6.483   1.769 -1.0498 -0.2208 -0.2133
 1005MOL0     C35572   1.100   6.497   1.835 -0.3979  0.0029  0.0607
 1005MOL0     C35573   0.980   6.514   1.767  0.1203  0.5860  0.3842
 1005MOL0     C35574   0.968   6.482   1.625 -0.3134  0.5765 -0.5732
 1005MOL0     O35575   0.852   6.489   1.542  0.6521  0.4909 -0.5380
 1005MOL0     C35576   0.722   6.458   1.602 -0.6213 -0.2871 -0.2349
 1005MOL0     C35577   0.618   6.528   1.515  0.3581  0.9058 -0.0331
 1005MOL0     C35578   0.623   6.674   1.512 -0.2783  0.5291  0.3428
 1005MOL0     C35579   0.520   6.740   1.424  0.4390  0.1091  0.7233
 1005MOL0     C35580   0.559   6.755   1.273 -0.5116 -0.2364 -0.9984
 1005MOL0     C35581   0.450   6.817   1.185  0.1330  0.9053 -0.9386
 1005MOL0     C35582   0.457   6.789   1.032 -0.5135  0.6758 -0.4784
 1005MOL0     C35583   0.365   6.881   0.953 -0.0749 -0.0053 -0.1770
 1005MOL0    Cl35584   0.417   6.833   0.785  0.3095 -0.6717  0.0386
 1005MOL0     C35585   1.087   6.437   1.563  0.0283  0.1508  0.3639
 1005MOL0     C35586   1.206   6.446   1.637  0.0921 -0.1186  0.1263
 1005MOL0     O35587   1.289   6.360   2.014  0.1101 -0.3104  0.6800
 1005MOL0     C35588   1.495   6.491   2.180 -0.2462  0.6549 -0.1030
 1005MOL0     C35589   1.602   6.556   2.249 -0.6236  0.3573  0.1287
 1005MOL0     N35590   1.694   7.177   2.603 -0.2958 -0.6766 -1.0239
 1005MOL0     N35591   1.598   7.146   2.684  0.1802  0.5320 -0.6186
 1005MOL0     C35592   0.593   7.405   2.169  0.3306 -0.1707 -0.7327
 1005MOL0     C35593   0.584   7.486   2.064 -0.3795  0.1910  0.6370
 1005MOL0     C35594   0.716   7.634   1.664 -0.1070  1.0694 -0.1338
 1005MOL0     C35595   0.640   7.750   1.661 -0.2001 -0.7604 -0.9146
 1005MOL0     C35596   0.625   7.814   1.537 -0.2524 -0.0715 -0.7447
 1005MOL0     C35597   0.672   7.754   1.422  0.7181  1.0134 -0.1751
 1005MOL0     O35598   0.647   7.826   1.303 -0.2328  0.5251  0.3817
 1005MOL0     C35599   0.683   7.765   1.169  1.0329 -0.6427 -0.8443
 1005MOL0     C35600   0.598   7.652   1.129 -0.3708  0.1588  0.4567
 1005MOL0     C35601   0.448   7.682   1.120  1.0524 -0.9181  0.7366
 1005MOL0     C35602   0.381   7.548   1.154  0.5851  0.3707 -0.4059
 1005MOL0     C35603   0.345   7.550   1.295 -0.1148  0.0744  0.6994
 1005MOL0     C35604   0.323   7.551   1.412 -0.1395  0.5264  1.1441
 1005MOL0     C35605   0.774   7.659   1.429  0.7049  0.7073  0.3311
 1005MOL0     C35606   0.785   7.597   1.549  0.3425 -0.1430 -0.3568
 1005MOL0     C35607   0.894   7.501   1.549  0.5674  1.0453  0.4007
 1005MOL0     H35608   0.911   7.610   2.092 -0.3548  1.1666  0.6096
 1005MOL0     H35609   0.905   7.487   2.292  1.0378 -1.3039  0.2201
 1005MOL0     H35610   0.858   7.369   2.485 -2.0020  3.2066  0.1274
 1005MOL0     H35611   0.693   7.412   2.533  0.1445  1.4983 -0.6700
 1005MOL0     H35612   0.656   7.161   2.522  0.4610  0.0851 -2.2328
 1005MOL0     H35613   0.760   7.223   2.656  2.7858  2.4033 -0.3455
 1005MOL0     H35614   0.888   7.104   2.422 -0.5932 -2.2978  0.4963
 1005MOL0     H35615   0.823   7.007   2.561 -1.2878  1.3456  3.2597
 1005MOL0     H35616   1.019   7.226   2.537  1.2935 -0.7606 -0.7328
 1005MOL0     H35617   0.977   7.152   2.706 -2.1806  0.4214  0.0613
 1005MOL0     H35618   1.054   6.947   2.669  1.3672 -2.0807 -1.5240
 1005MOL0     H35619   1.088   6.969   2.492  0.5736  1.3809 -0.5505
 1005MOL0     H35620   1.271   7.101   2.523 -0.4944  0.7821 -0.0800
 1005MOL0     H35621   1.236   7.138   2.692  4.1655 -0.1195  1.3603
 1005MOL0     H35622   1.315   6.857   2.586  1.1240 -1.4678  0.8281
 1005MOL0     H35623   1.254   6.882   2.750 -0.1891  3.3114  2.5925
 1005MOL0     H35624   1.434   7.017   2.827  1.9983  0.7467  0.2614
 1005MOL0     H35625   1.490   6.865   2.753 -1.2267 -1.6736  2.8423
 1005MOL0     H35626   1.567   6.905   2.479 -1.1505  1.0905 -0.4096
 1005MOL0     H35627   1.730   7.030   2.307  0.3240 -2.3425  1.2701
 1005MOL0     H35628   1.848   7.148   2.370 -2.7416  2.0236 -1.5195
 1005MOL0     H35629   1.970   7.019   2.466 -0.0957 -0.1116 -0.7438
 1005MOL0     H35630   1.857   6.886   2.504 -0.8289  0.4661  0.3562
 1005MOL0     H35631   2.015   6.794   2.327 -2.0361 -1.3827  1.5369
 1005MOL0     H35632   2.029   6.945   2.246  3.5589 -3.0214  1.0284
 1005MOL0     H35633   1.917   6.778   2.125 -2.2130  0.4651 -0.8282
 1005MOL0     H35634   1.800   6.905   2.175  2.6068  2.5001  0.1481
 1005MOL0     H35635   1.689   6.784   2.028  0.1954  1.6865  3.8133
 1005MOL0     H35636   1.514   6.667   1.893  0.9824  1.0816  0.4503
 1005MOL0     H35637   1.101   6.526   1.939  1.3318 -1.3048  0.4427
 1005MOL0     H35638   0.894   6.544   1.826  0.1734  0.7341  0.3870
 1005MOL0     H35639   0.708   6.349   1.601 -1.6110 -0.2004  1.0442
 1005MOL0     H35640   0.715   6.493   1.705 -1.0702  0.0181 -0.3650
 1005MOL0     H35641   0.637   6.496   1.413  0.5618 -0.8071  0.5208
 1005MOL0     H35642   0.521   6.494   1.552  0.5735  0.4942  0.1547
 1005MOL0     H35643   0.620   6.712   1.615 -0.0926 -2.9162  1.7499
 1005MOL0     H35644   0.720   6.709   1.475 -1.7399  2.5187 -1.9480
 1005MOL0     H35645   0.501   6.841   1.461 -4.2724 -0.2321 -0.1220
 1005MOL0     H35646   0.425   6.686   1.423  1.0557 -1.0048  0.2383
 1005MOL0     H35647   0.580   6.661   1.220 -1.0430  0.2417 -2.0943
 1005MOL0     H35648   0.653   6.813   1.271 -0.9646  0.5736  0.2191
 1005MOL0     H35649   0.355   6.775   1.219  2.2211 -4.5722 -0.8445
 1005MOL0     H35650   0.464   6.923   1.206  0.4266  0.8258 -0.7318
 1005MOL0     H35651   0.420   6.688   1.013  4.3005 -1.1507 -1.6278
 1005MOL0     H35652   0.558   6.779   0.992 -0.7806 -1.3936 -0.7596
 1005MOL0     H35653   0.265   6.847   0.981  0.4166 -1.4032 -0.0711
 1005MOL0     H35654   0.370   6.989   0.974  1.0090 -0.1777  0.5488
 1005MOL0     H35655   1.096   6.412   1.458  0.2337  0.9856  0.1830
 1005MOL0     H35656   1.291   6.430   1.571  0.7767  1.0403  0.6765
 1005MOL0     H35657   1.437   6.410   2.224  2.8821 -1.9244 -0.4004
 1005MOL0     H35658   1.638   6.520   2.345  2.3014  1.3526 -0.4831
 1005MOL0     H35659   0.514   7.340   2.204  1.2650 -0.4851  0.8891
 1005MOL0     H35660   0.490   7.495   2.011 -1.6273 -0.3306  2.6709
 1005MOL0     H35661   0.595   7.793   1.750  3.7383  0.3367  0.7835
 1005MOL0     H35662   0.559   7.899   1.521 -1.2370 -0.4297  1.1291
 1005MOL0     H35663   0.789   7.736   1.168  1.1127 -0.3473 -0.8874
 1005MOL0     H35664   0.669   7.837   1.088  2.8340 -3.9514 -4.4290
 1005MOL0     H35665   0.616   7.572   1.201  1.2249  0.4730  0.4373
 1005MOL0     H35666   0.626   7.613   1.031 -0.4703  0.9136  0.1142
 1005MOL0     H35667   0.411   7.719   1.024  1.8937 -2.9042 -0.4259
 1005MOL0     H35668   0.416   7.761   1.188  1.8228  1.3272 -1.3964
 1005MOL0     H35669   0.292   7.536   1.091 -0.6213  0.6242  1.1917
 1005MOL0     H35670   0.443   7.460   1.132  1.8166  0.4688  2.3441
 1005MOL0     H35671   0.303   7.526   1.515 -0.7695  3.8324  1.9330
 1005MOL0     H35672   0.824   7.629   1.338 -3.7269  1.7307 -2.7296
 1005MOL0     H35673   0.855   7.401   1.570 -0.4839  0.9518 -1.7264
 1005MOL0     H35674   0.947   7.478   1.456  0.1565 -1.6697  0.7796
 1005MOL0     H35675   0.963   7.532   1.628  1.5634  2.3649 -0.9102
 1006MOL0     O35676   0.718   9.258   5.276 -0.2125 -0.1868 -0.1937
 1006MOL0     C35677   0.660   9.162   5.315  0.0647 -0.8110 -0.0913
 1006MOL0     O35678   0.718   9.036   5.331 -0.6180  0.1373  0.1440
 1006MOL0     C35679   0.851   9.008   5.336 -0.3259 -0.7203  0.4183
 1006MOL0     C35680   0.890   8.878   5.316  0.1920  0.3740  0.4564
 1006MOL0     C35681   1.024   8.843   5.313  1.0602 -0.4159 -0.4820
 1006MOL0     C35682   1.120   8.937   5.341 -0.1616  0.9695 -0.1562
 1006MOL0     O35683   1.244   8.876   5.345  0.0315  0.2223 -0.1578
 1006MOL0     C35684   1.361   8.952   5.357 -0.7281 -1.0933  0.3141
 1006MOL0     C35685   1.496   8.890   5.313 -0.4389 -0.1413 -0.2054
 1006MOL0     C35686   1.507   8.839   5.168 -0.1196  0.4999 -0.3188
 1006MOL0     C35687   1.474   8.689   5.170 -0.1825  0.2846  0.3417
 1006MOL0     C35688   1.486   8.631   5.028 -0.0247 -0.5201  0.4088
 1006MOL0     C35689   1.362   8.669   4.936 -0.7033 -0.3942  1.0050
 1006MOL0     C35690   1.378   8.601   4.804 -0.7293 -0.3746 -0.9955
 1006MOL0     C35691   1.260   8.618   4.710 -0.4860 -0.7228 -0.3818
 1006MOL0     N35692   1.292   8.588   4.568  0.0005 -0.3623  0.6123
 1006MOL0     C35693   1.419   8.585   4.510 -0.7579  0.0725  0.2789
 1006MOL0     C35694   1.404   8.554   4.374  0.7094 -0.2935 -0.5345
 1006MOL0     C35695   1.501   8.579   4.255  0.5345  0.1591 -0.4081
 1006MOL0     C35696   1.634   8.503   4.257  0.2552  0.0198  0.3468
 1006MOL0     C35697   1.713   8.497   4.130 -0.0540 -0.4170  0.9893
 1006MOL0     C35698   1.791   8.622   4.090  0.0110 -0.4781 -0.1898
 1006MOL0     O35699   1.881   8.665   4.196 -0.3715 -0.6204 -0.4215
 1006MOL0     C35700   2.005   8.602   4.200  0.0603  0.3552 -0.1536
 1006MOL0     C35701   2.069   8.510   4.113  0.3255  0.5108  1.3276
 1006MOL0     C35702   2.205   8.474   4.121 -0.8783 -0.2507 -0.6156
 1006MOL0     C35703   2.287   8.531   4.222 -0.4328  0.2809  0.1585
 1006MOL0     C35704   2.417   8.466   4.257 -0.8901 -0.2626  0.0830
 1006MOL0     O35705   2.474   8.368   4.180  1.0614  0.1938 -0.0884
 1006MOL0     C35706   2.604   8.382   4.133  0.3877  0.3445  0.6114
 1006MOL0     C35707   2.658   8.274   4.064  0.7123  0.4054 -0.1686
 1006MOL0     C35708   2.788   8.281   4.017  0.1822 -0.3905 -0.7564
 1006MOL0     C35709   2.869   8.394   4.042 -0.8496  0.3732 -0.1077
 1006MOL0     O35710   3.001   8.404   3.992 -0.1338 -0.2414  0.1257
 1006MOL0     C35711   3.036   8.534   3.939 -0.1578  0.4392 -0.2882
 1006MOL0     C35712   3.145   8.524   3.828  0.2282  0.5988 -0.1303
 1006MOL0     C35713   3.116   8.419   3.727  0.0265 -0.6040  0.1752
 1006MOL0     C35714   3.242   8.419   3.632 -0.3737  0.3974 -0.6190
 1006MOL0     C35715   3.228   8.335   3.515 -0.3723  0.9980 -0.3273
 1006MOL0     C35716   3.366   8.287   3.466 -0.7107 -0.0544 -0.3529
 1006MOL0     C35717   3.374   8.196   3.330 -0.3923 -0.0277  0.4530
 1006MOL0     C35718   3.447   8.063   3.354 -0.7346  0.2735 -0.2965
 1006MOL0    Cl35719   3.623   8.099   3.322 -0.5597  0.3479 -0.4509
 1006MOL0     C35720   2.818   8.502   4.120  0.1645  0.5139 -0.0144
 1006MOL0     C35721   2.684   8.497   4.160  1.1092  1.5307 -0.7491
 1006MOL0     O35722   2.475   8.516   4.358 -0.3121  0.0291  0.3466
 1006MOL0     C35723   2.226   8.620   4.315 -0.5120  0.5220  0.0608
 1006MOL0     C35724   2.090   8.651   4.305 -0.1136  0.3865  0.2887
 1006MOL0     N35725   1.268   8.539   4.356  0.4385  0.6117  0.1796
 1006MOL0     N35726   1.203   8.548   4.470 -0.9103 -0.0021 -0.3782
 1006MOL0     C35727   1.089   9.068   5.372 -0.2324 -0.6279  0.4491
 1006MOL0     C35728   0.951   9.106   5.371 -0.8005 -0.0623  0.3487
 1006MOL0     C35729   0.515   9.167   5.345  0.0976  0.0607  1.0795
 1006MOL0     C35730   0.451   9.064   5.427 -0.9516 -0.2317  0.2866
 1006MOL0     C35731   0.315   9.061   5.462 -0.3195 -0.5174  0.5675
 1006MOL0     C35732   0.231   9.167   5.421 -0.2131 -0.0022  0.0501
 1006MOL0     O35733   0.097   9.156   5.475  0.9326  0.2607  0.4762
 1006MOL0     C35734   0.020   9.280   5.469  0.2624  0.5467 -0.1799
 1006MOL0     C35735  -0.083   9.269   5.589 -0.0795  0.2997 -0.7482
 1006MOL0     C35736  -0.017   9.251   5.728 -0.7158 -0.1882  0.5673
 1006MOL0     C35737  -0.102   9.191   5.846  0.5022  0.1888 -0.2533
 1006MOL0     C35738  -0.131   9.047   5.836  0.2295 -1.5289  1.1719
 1006MOL0     C35739  -0.152   8.931   5.859  0.1530  0.4289  0.8204
 1006MOL0     C35740   0.285   9.262   5.330  0.4442  0.5701 -0.3759
 1006MOL0     C35741   0.420   9.263   5.293  0.5366 -0.6534  0.4480
 1006MOL0     C35742   0.462   9.357   5.190  0.2537 -0.1016  0.6016
 1006MOL0     H35743   0.818   8.801   5.291 -1.3257  2.5450 -2.6084
 1006MOL0     H35744   1.057   8.742   5.292  1.9121 -0.2175 -0.1402
 1006MOL0     H35745   1.359   9.043   5.295 -1.8857 -0.5464  1.1123
 1006MOL0     H35746   1.365   8.988   5.461 -0.8047  1.0515 -0.3650
 1006MOL0     H35747   1.524   8.814   5.386 -0.8647  0.0524  0.1642
 1006MOL0     H35748   1.567   8.972   5.325 -0.7503 -0.2332  3.2328
 1006MOL0     H35749   1.610   8.852   5.135  0.0099 -2.6494 -1.5278
 1006MOL0     H35750   1.435   8.893   5.105 -1.1413  1.8023  1.8616
 1006MOL0     H35751   1.557   8.654   5.231  0.3123  2.6838  1.1529
 1006MOL0     H35752   1.376   8.663   5.213  0.2085 -0.7935  0.6045
 1006MOL0     H35753   1.583   8.665   4.991 -0.2605 -0.9271 -0.6144
 1006MOL0     H35754   1.492   8.523   5.046 -1.4645 -0.7957 -0.5857
 1006MOL0     H35755   1.269   8.634   4.982 -1.6254  1.8596  0.9702
 1006MOL0     H35756   1.359   8.776   4.916  1.7566 -0.5811 -0.9283
 1006MOL0     H35757   1.392   8.495   4.823 -4.8462 -0.7987  0.8376
 1006MOL0     H35758   1.471   8.643   4.764  0.0980  1.1470  2.2080
 1006MOL0     H35759   1.192   8.542   4.748  0.0192 -0.9948 -0.0102
 1006MOL0     H35760   1.211   8.714   4.729 -1.3598 -1.7996  3.9772
 1006MOL0     H35761   1.513   8.625   4.548 -2.3691  2.8650  1.6791
 1006MOL0     H35762   1.433   8.551   4.174 -0.9391  0.7983  0.5647
 1006MOL0     H35763   1.516   8.686   4.237  0.0468  0.4829  0.9829
 1006MOL0     H35764   1.692   8.554   4.336 -1.9735 -0.3667  2.3429
 1006MOL0     H35765   1.613   8.398   4.277  2.1923 -0.2761  1.1181
 1006MOL0     H35766   1.650   8.471   4.044 -2.7716 -0.1243  2.7860
 1006MOL0     H35767   1.783   8.414   4.141 -0.0312 -0.4391  0.6877
 1006MOL0     H35768   1.734   8.714   4.073  1.2179  0.5177  1.0206
 1006MOL0     H35769   1.849   8.607   3.998  3.0707 -0.5973  1.6280
 1006MOL0     H35770   2.010   8.468   4.032  1.1433 -0.5041  1.2464
 1006MOL0     H35771   2.254   8.402   4.056  0.4418  0.9618 -1.0084
 1006MOL0     H35772   2.596   8.186   4.078 -1.5805  2.2642  3.0159
 1006MOL0     H35773   2.828   8.205   3.951  0.1594 -0.6809 -0.4352
 1006MOL0     H35774   2.947   8.588   3.908 -2.4830 -1.5950  2.2880
 1006MOL0     H35775   3.063   8.594   4.027 -1.8310  2.2003 -0.9071
 1006MOL0     H35776   3.149   8.622   3.779 -2.2752  0.4766 -0.7055
 1006MOL0     H35777   3.245   8.500   3.865  0.7738 -0.5689 -2.2027
 1006MOL0     H35778   3.105   8.319   3.769  1.5222  0.4040  3.1990
 1006MOL0     H35779   3.027   8.441   3.667 -0.7256 -2.8545  0.4075
 1006MOL0     H35780   3.337   8.392   3.679  1.3200  0.8752 -3.5752
 1006MOL0     H35781   3.269   8.517   3.591  3.7804 -0.2594  0.1064
 1006MOL0     H35782   3.176   8.371   3.426  0.1978 -1.4803 -1.7720
 1006MOL0     H35783   3.176   8.244   3.549  2.0126  0.3993  2.1504
 1006MOL0     H35784   3.430   8.375   3.452 -0.3096  0.0157  1.6053
 1006MOL0     H35785   3.414   8.225   3.542  0.3893 -1.3822 -2.0637
 1006MOL0     H35786   3.403   8.264   3.250  1.1003 -1.1145  0.0399
 1006MOL0     H35787   3.268   8.173   3.314 -0.0791 -1.0402 -0.3357
 1006MOL0     H35788   3.443   8.029   3.458 -3.1704 -0.6421 -0.6136
 1006MOL0     H35789   3.406   7.986   3.287 -1.9315  1.7497 -1.3306
 1006MOL0     H35790   2.873   8.593   4.140 -1.3030  0.9448  2.5354
 1006MOL0     H35791   2.642   8.583   4.211  1.2833  2.0444 -1.4542
 1006MOL0     H35792   2.283   8.662   4.397 -2.2607  1.4961  0.8297
 1006MOL0     H35793   2.053   8.735   4.364 -0.6054 -0.0406  0.5919
 1006MOL0     H35794   1.164   9.144   5.388 -0.6789 -0.0734 -0.0424
 1006MOL0     H35795   0.922   9.203   5.412 -1.0631  0.2765 -0.6222
 1006MOL0     H35796   0.513   8.980   5.454 -0.0560  0.9174  1.9755
 1006MOL0     H35797   0.292   8.981   5.532 -0.3485  1.8721  3.5060
 1006MOL0     H35798  -0.034   9.275   5.374  1.5598  0.0350 -0.9129
 1006MOL0     H35799   0.073   9.375   5.475 -2.4000  2.2561 -1.6824
 1006MOL0     H35800  -0.158   9.192   5.570  0.3301 -0.1049 -0.7555
 1006MOL0     H35801  -0.141   9.362   5.590  0.8189  0.8739  0.6446
 1006MOL0     H35802   0.023   9.349   5.756  3.3099 -0.8261 -2.1151
 1006MOL0     H35803   0.065   9.179   5.720 -0.9162 -0.5499  1.5477
 1006MOL0     H35804  -0.027   9.197   5.925  0.6416 -1.8319 -0.2003
 1006MOL0     H35805  -0.194   9.246   5.867  0.6777  0.6112 -0.5590
 1006MOL0     H35806  -0.170   8.827   5.880  0.6361  1.0355  5.1478
 1006MOL0     H35807   0.220   9.343   5.300  0.6050  0.8180 -0.0602
 1006MOL0     H35808   0.516   9.445   5.226  1.3588 -0.7098  0.4842
 1006MOL0     H35809   0.523   9.301   5.119 -2.5621 -0.0143 -2.1038
 1006MOL0     H35810   0.377   9.388   5.128  2.5351 -1.5431 -3.6379
 1007MOL0     O35811   5.601   1.496   1.982 -0.4649 -0.0979 -1.2274
 1007MOL0     C35812   5.603   1.563   1.881  0.8078  0.3024 -0.0121
 1007MOL0     O35813   5.678   1.677   1.865 -0.4189  0.8234 -0.1700
 1007MOL0     C35814   5.795   1.685   1.940  0.6218 -0.7840 -0.0882
 1007MOL0     C35815   5.885   1.579   1.970  0.6795 -0.0342 -0.4220
 1007MOL0     C35816   5.988   1.603   2.062 -0.6819  0.8805 -0.0198
 1007MOL0     C35817   6.013   1.730   2.115 -0.3813 -0.3597  0.0723
 1007MOL0     O35818   6.121   1.763   2.187 -0.5649  0.3473 -0.0019
 1007MOL0     C35819   6.242   1.686   2.206  0.6667 -0.0793  1.1009
 1007MOL0     C35820   6.354   1.780   2.224 -0.2869  0.0008  0.3478
 1007MOL0     C35821   6.493   1.728   2.214 -0.3689 -0.1864 -0.6848
 1007MOL0     C35822   6.578   1.843   2.157 -0.4145 -0.0642 -0.4356
 1007MOL0     C35823   6.730   1.814   2.148 -0.1841  0.0021 -0.2026
 1007MOL0     C35824   6.794   1.794   2.288 -0.2644  0.4182 -0.7049
 1007MOL0     C35825   6.943   1.789   2.266  0.5563 -0.1751  0.9204
 1007MOL0     C35826   7.010   1.730   2.397 -0.1506 -0.3936 -1.0837
 1007MOL0     N35827   7.011   1.822   2.508  0.1763  0.0425 -0.5376
 1007MOL0     C35828   7.062   1.945   2.511  0.0381 -0.0844 -0.0421
 1007MOL0     C35829   7.056   1.981   2.641  0.7268 -0.4042  0.1194
 1007MOL0     C35830   7.116   2.102   2.695 -0.9202 -0.6259  0.3578
 1007MOL0     C35831   7.269   2.087   2.730  0.4033  1.3805  0.8257
 1007MOL0     C35832   7.313   2.220   2.793 -1.1579  0.6945 -0.8621
 1007MOL0     C35833   7.470   2.220   2.813 -0.2336  0.0660 -0.5108
 1007MOL0     O35834   7.549   2.228   2.696  0.1810 -0.3667  0.5722
 1007MOL0     C35835   7.673   2.267   2.726  0.0555 -0.1411  0.1751
 1007MOL0     C35836   7.753   2.185   2.801  0.0660 -0.3711 -0.2458
 1007MOL0     C35837   7.876   2.234   2.844 -0.3191 -0.3660 -0.4746
 1007MOL0     C35838   7.928   2.360   2.805  0.1359  0.0096 -0.8273
 1007MOL0     C35839   8.061   2.413   2.854  0.0325  0.3796 -0.0803
 1007MOL0     O35840   8.101   2.545   2.825  0.1041 -0.1095  0.7432
 1007MOL0     C35841   8.234   2.578   2.843  0.3107  0.0581 -0.6513
 1007MOL0     C35842   8.329   2.517   2.768  0.8882  0.6625  1.0431
 1007MOL0     C35843   8.469   2.547   2.778 -0.9797  0.0297 -0.5883
 1007MOL0     C35844   8.522   2.632   2.882 -0.1866 -0.4289 -0.5791
 1007MOL0     O35845   8.652   2.679   2.899  0.1221 -0.4663  0.1819
 1007MOL0     C35846   8.749   2.614   2.810 -1.0357  0.3807  0.4827
 1007MOL0     C35847   8.786   2.474   2.868 -0.3148  0.3358 -0.5510
 1007MOL0     C35848   8.823   2.482   3.015  0.3305  0.5593  0.3111
 1007MOL0     C35849   8.705   2.415   3.092  0.0255  0.1270 -0.6032
 1007MOL0     C35850   8.761   2.364   3.228 -0.2762 -0.5491 -0.4894
 1007MOL0     C35851   8.783   2.211   3.240  0.2049 -0.7326  0.1360
 1007MOL0     C35852   8.806   2.170   3.384  0.5031  0.5903  0.4058
 1007MOL0     C35853   8.936   2.215   3.442 -0.7086  0.5062  0.5075
 1007MOL0    Cl35854   9.078   2.164   3.344 -0.0184 -0.1821  0.1167
 1007MOL0     C35855   8.417   2.695   2.959  1.0453  0.2067 -0.3212
 1007MOL0     C35856   8.276   2.674   2.938 -0.1598  0.3119  0.2739
 1007MOL0     O35857   8.135   2.332   2.905  0.0504 -0.2844 -0.0333
 1007MOL0     C35858   7.844   2.431   2.715 -0.2282  0.3341  0.0168
 1007MOL0     C35859   7.727   2.381   2.677 -0.0136  0.3936  0.2217
 1007MOL0     N35860   6.985   1.882   2.711 -0.2951  0.0159  0.8527
 1007MOL0     N35861   6.957   1.795   2.623 -0.5146 -0.8557 -0.4258
 1007MOL0     C35862   5.919   1.832   2.085  0.4012  0.7185 -0.1507
 1007MOL0     C35863   5.812   1.809   2.001  0.4251 -0.1523  0.1856
 1007MOL0     C35864   5.519   1.534   1.759  0.5773  0.2629  0.4578
 1007MOL0     C35865   5.514   1.625   1.652 -1.0246  0.6518  0.6483
 1007MOL0     C35866   5.468   1.595   1.525 -0.1716 -0.2364 -0.2541
 1007MOL0     C35867   5.398   1.474   1.507 -0.0026 -0.2363 -0.7814
 1007MOL0     O35868   5.350   1.450   1.386 -0.0440 -0.2275 -0.2597
 1007MOL0     C35869   5.230   1.517   1.360  0.1994  0.5698  0.2084
 1007MOL0     C35870   5.165   1.443   1.233 -0.7573  0.5213 -0.6016
 1007MOL0     C35871   5.026   1.504   1.203 -0.7331  0.6259  1.0635
 1007MOL0     C35872   5.012   1.476   1.049  0.0484  0.1334 -0.6447
 1007MOL0     C35873   4.888   1.521   0.991  0.3865 -0.1045  0.5036
 1007MOL0     C35874   4.781   1.569   0.951 -0.6719 -0.0051  0.2637
 1007MOL0     C35875   5.385   1.385   1.612 -0.1536 -0.7115  0.6695
 1007MOL0     C35876   5.449   1.409   1.732 -0.0899 -0.7469 -0.3172
 1007MOL0     C35877   5.434   1.305   1.840  0.3164 -0.4112  0.4144
 1007MOL0     H35878   5.872   1.476   1.940  1.7415 -0.2814 -0.0745
 1007MOL0     H35879   6.055   1.520   2.079  1.6899  2.0768 -2.7696
 1007MOL0     H35880   6.230   1.611   2.286  0.5187  0.8039  1.9230
 1007MOL0     H35881   6.260   1.636   2.111  1.3371 -0.4151  1.3942
 1007MOL0     H35882   6.347   1.834   2.319 -1.8583  2.3168 -0.9856
 1007MOL0     H35883   6.344   1.866   2.157  1.0208 -1.1498 -1.4239
 1007MOL0     H35884   6.495   1.635   2.157 -1.0730 -1.8003  1.7852
 1007MOL0     H35885   6.531   1.706   2.314  3.2754  1.7484 -1.4499
 1007MOL0     H35886   6.554   1.843   2.050 -1.6885 -1.8865 -0.2005
 1007MOL0     H35887   6.569   1.939   2.208 -0.2290  0.3695 -1.2035
 1007MOL0     H35888   6.749   1.728   2.084  3.3562  0.9256 -0.6102
 1007MOL0     H35889   6.789   1.892   2.099  1.0775  1.3224  3.1324
 1007MOL0     H35890   6.768   1.870   2.362 -3.5872  0.1956 -1.4705
 1007MOL0     H35891   6.754   1.699   2.325  0.8599 -1.0782 -3.0417
 1007MOL0     H35892   6.975   1.889   2.234 -0.9697 -0.0346 -0.2665
 1007MOL0     H35893   6.974   1.726   2.182 -3.4009 -0.7173 -0.2992
 1007MOL0     H35894   6.956   1.646   2.442  1.3001 -0.0738  1.4642
 1007MOL0     H35895   7.111   1.692   2.378  0.2730  0.4446 -0.5237
 1007MOL0     H35896   7.115   1.992   2.429 -0.8423 -1.5926 -1.5498
 1007MOL0     H35897   7.092   2.169   2.612 -2.6039 -2.0244 -0.3509
 1007MOL0     H35898   7.066   2.133   2.788 -0.1193  0.5712  0.4129
 1007MOL0     H35899   7.285   2.016   2.812  0.3274  1.6385  1.0625
 1007MOL0     H35900   7.326   2.059   2.641 -3.7862 -1.8626 -1.2283
 1007MOL0     H35901   7.262   2.221   2.890  0.6231  0.8078  0.1062
 1007MOL0     H35902   7.268   2.295   2.726  0.7842  2.5873 -0.1709
 1007MOL0     H35903   7.487   2.126   2.868 -2.9925 -1.1012 -1.4311
 1007MOL0     H35904   7.486   2.306   2.879 -0.8408  1.7614 -2.4644
 1007MOL0     H35905   7.725   2.087   2.840  2.6836 -0.2396  2.2491
 1007MOL0     H35906   7.935   2.168   2.907 -0.6648  0.7852  1.1174
 1007MOL0     H35907   8.318   2.442   2.690  0.8762  0.3224  1.3726
 1007MOL0     H35908   8.531   2.491   2.709 -1.5403 -1.7855  0.3159
 1007MOL0     H35909   8.710   2.591   2.710  1.0950 -1.2147 -0.0560
 1007MOL0     H35910   8.827   2.690   2.806  0.4558 -0.8439  3.4002
 1007MOL0     H35911   8.701   2.408   2.848 -2.2415  1.9345  1.8468
 1007MOL0     H35912   8.869   2.428   2.812 -0.4799 -0.0543 -0.4778
 1007MOL0     H35913   8.911   2.427   3.047 -0.4326 -0.0026  1.5314
 1007MOL0     H35914   8.848   2.585   3.039 -2.5705  1.3187  0.4790
 1007MOL0     H35915   8.661   2.328   3.042 -1.5735 -0.5675  1.8198
 1007MOL0     H35916   8.620   2.482   3.106  0.3540  0.0871  2.1564
 1007MOL0     H35917   8.680   2.388   3.298  2.6809  0.6194  2.8339
 1007MOL0     H35918   8.853   2.415   3.258  1.2803 -3.5544  0.1607
 1007MOL0     H35919   8.689   2.159   3.217 -0.5278 -0.0463  1.4265
 1007MOL0     H35920   8.862   2.181   3.172 -1.3728 -3.0444 -0.8019
 1007MOL0     H35921   8.800   2.061   3.376 -4.0400  0.7441 -0.8317
 1007MOL0     H35922   8.725   2.192   3.454 -1.2908 -1.9412 -0.6990
 1007MOL0     H35923   8.937   2.325   3.442  2.2021  0.5537  0.6587
 1007MOL0     H35924   8.943   2.177   3.544  0.5351 -2.0623 -0.4611
 1007MOL0     H35925   8.441   2.779   3.024 -0.4633  0.7643 -0.4323
 1007MOL0     H35926   8.200   2.739   2.980 -0.7374  1.0550 -1.7692
 1007MOL0     H35927   7.886   2.521   2.671 -1.6339  0.5024 -1.0190
 1007MOL0     H35928   7.666   2.435   2.605  0.8578  0.5259 -0.4198
 1007MOL0     H35929   5.922   1.934   2.123  2.0593  0.9128 -0.7407
 1007MOL0     H35930   5.745   1.892   1.979  0.9223  1.4167  3.9241
 1007MOL0     H35931   5.569   1.717   1.670 -0.5467  0.3478  0.7402
 1007MOL0     H35932   5.474   1.664   1.442 -0.0818 -0.5124 -0.4814
 1007MOL0     H35933   5.249   1.624   1.346  3.0201  0.0788 -0.3792
 1007MOL0     H35934   5.170   1.506   1.451  1.2673  2.6022  1.2489
 1007MOL0     H35935   5.146   1.336   1.244  1.5256 -0.0959 -2.0429
 1007MOL0     H35936   5.235   1.449   1.150 -1.4157  1.3197 -1.1093
 1007MOL0     H35937   5.015   1.607   1.237 -3.4971  1.0630 -0.8403
 1007MOL0     H35938   4.958   1.437   1.256 -1.8055  0.3206 -0.6172
 1007MOL0     H35939   5.097   1.516   0.993  1.5596  0.5643  1.8429
 1007MOL0     H35940   5.013   1.367   1.041  2.3016 -0.1174  1.8781
 1007MOL0     H35941   4.694   1.619   0.914 -0.5546 -0.5216 -0.7530
 1007MOL0     H35942   5.328   1.296   1.587  0.3093 -0.2835 -2.3739
 1007MOL0     H35943   5.387   1.215   1.798 -2.9775  1.4515 -0.2528
 1007MOL0     H35944   5.528   1.276   1.887  0.1919 -1.7087 -0.0812
 1007MOL0     H35945   5.357   1.336   1.911  0.1265  3.8387 -1.3606
 1008MOL0     O35946   9.097  11.241  11.286 -0.2558 -0.2946 -0.2699
 1008MOL0     C35947   9.102  11.364  11.268  0.1189  0.4849 -0.0539
 1008MOL0     O35948   9.206  11.425  11.194  0.1928 -0.0780 -0.2341
 1008MOL0     C35949   9.264  11.350  11.104 -0.9787  0.5703  0.7370
 1008MOL0     C35950   9.375  11.272  11.149 -0.2096 -0.1923 -0.3785
 1008MOL0     C35951   9.454  11.198  11.061  0.6389  0.1883 -0.3824
 1008MOL0     C35952   9.426  11.195  10.921  0.1156 -0.3900  0.1730
 1008MOL0     O35953   9.480  11.126  10.815  0.4908  0.2023 -0.3564
 1008MOL0     C35954   9.591  11.048  10.842  0.2118  0.3479 -0.7671
 1008MOL0     C35955   9.636  10.976  10.725 -0.1873  0.3536 -0.2803
 1008MOL0     C35956   9.691  10.834  10.745  1.1602  0.8859  0.0549
 1008MOL0     C35957   9.753  10.787  10.614 -0.3625 -0.0453  0.9842
 1008MOL0     C35958   9.899  10.840  10.603 -0.2241 -0.1445  0.0407
 1008MOL0     C35959   9.988  10.747  10.682  0.7762 -0.1372  0.7076
 1008MOL0     C35960  10.121  10.811  10.704  0.4648 -0.0373 -0.2577
 1008MOL0     C35961  10.201  10.822  10.572  0.2274  0.4661 -0.4376
 1008MOL0     N35962  10.335  10.809  10.615 -0.6957  0.2951  0.5898
 1008MOL0     C35963  10.382  10.693  10.680  0.0971 -0.2845  0.2568
 1008MOL0     C35964  10.512  10.714  10.684 -0.5295 -0.3073  0.3486
 1008MOL0     C35965  10.605  10.613  10.751  0.4041  1.0791 -0.1013
 1008MOL0     C35966  10.747  10.612  10.705  0.1100 -0.9948  1.0562
 1008MOL0     C35967  10.761  10.600  10.556  0.1634  0.3479 -0.0422
 1008MOL0     C35968  10.906  10.588  10.507  0.3061  0.3192  0.1027
 1008MOL0     O35969  10.899  10.546  10.369 -0.0177 -0.4406  0.7245
 1008MOL0     C35970  11.014  10.505  10.308  0.1218 -0.0407 -0.2639
 1008MOL0     C35971  11.143  10.520  10.359 -0.6734  0.5641  0.7316
 1008MOL0     C35972  11.250  10.454  10.287  0.4207  0.1456 -0.0031
 1008MOL0     C35973  11.226  10.392  10.165 -0.3304  0.7072 -0.3154
 1008MOL0     C35974  11.338  10.315  10.091  1.2495 -0.0560 -0.6718
 1008MOL0     O35975  11.448  10.307  10.174  0.6026  0.3300  0.1072
 1008MOL0     C35976  11.549  10.241  10.119 -0.7298  0.3825 -0.6542
 1008MOL0     C35977  11.556  10.105  10.129 -0.3153 -1.0751 -0.5045
 1008MOL0     C35978  11.674  10.033  10.099  0.9231 -0.2290  0.8395
 1008MOL0     C35979  11.785  10.102  10.051  0.2393  0.7583  0.7816
 1008MOL0     O35980  11.900  10.022  10.034 -0.1532 -0.5015  0.0314
 1008MOL0     C35981  12.028  10.087  10.012  0.5915  0.3558 -0.5345
 1008MOL0     C35982  12.135   9.975  10.005  0.0187  1.1670 -0.9436
 1008MOL0     C35983  12.129   9.879  10.128  0.3568  0.8412  0.2046
 1008MOL0     C35984  12.227   9.759  10.111  0.2485 -0.4590  0.3587
 1008MOL0     C35985  12.202   9.641  10.211 -0.3775 -0.0293  0.4282
 1008MOL0     C35986  12.297   9.520  10.203 -0.5336 -0.4024 -0.3612
 1008MOL0     C35987  12.257   9.400  10.285  0.1892  0.0800 -0.0241
 1008MOL0     C35988  12.338   9.281  10.240  0.6705 -0.3839  0.8379
 1008MOL0    Cl35989  12.512   9.296  10.241 -0.3138 -0.0754  0.0905
 1008MOL0     C35990  11.768  10.237  10.033 -0.5433 -0.1297  0.0002
 1008MOL0     C35991  11.652  10.304  10.056  0.0646 -0.4153 -0.8944
 1008MOL0     O35992  11.327  10.286   9.975 -0.1409  0.6420  0.4846
 1008MOL0     C35993  11.107  10.378  10.112  0.2726 -1.0373 -0.4538
 1008MOL0     C35994  11.003  10.438  10.179  0.8335  0.2137 -0.0104
 1008MOL0     N35995  10.545  10.829  10.623 -0.2530  0.0439  0.3443
 1008MOL0     N35996  10.437  10.890  10.580  0.0307  1.3005 -0.6009
 1008MOL0     C35997   9.317  11.280  10.885  0.0892 -0.3114  1.0362
 1008MOL0     C35998   9.246  11.367  10.970  0.3288  0.3723  0.0907
 1008MOL0     C35999   8.985  11.450  11.301  1.2498  0.9302  1.3740
 1008MOL0     C36000   8.865  11.388  11.328  0.5947 -0.5223 -0.7935
 1008MOL0     C36001   8.747  11.453  11.366  0.0100  0.1741 -0.5745
 1008MOL0     C36002   8.745  11.596  11.364 -0.2655  0.1016 -0.9449
 1008MOL0     O36003   8.629  11.661  11.394  0.0726 -0.7312 -0.3238
 1008MOL0     C36004   8.592  11.676  11.531  0.2014 -0.2393 -0.3376
 1008MOL0     C36005   8.439  11.655  11.537  0.8647  0.0412 -0.6660
 1008MOL0     C36006   8.409  11.504  11.522  0.6597 -0.3602 -0.2327
 1008MOL0     C36007   8.259  11.479  11.516 -0.1595  0.2892  0.0664
 1008MOL0     C36008   8.191  11.499  11.644  0.5414  0.3852  0.0753
 1008MOL0     C36009   8.137  11.505  11.750 -0.4773 -0.2599 -0.6881
 1008MOL0     C36010   8.861  11.657  11.323  0.3572 -1.8798 -0.2646
 1008MOL0     C36011   8.985  11.592  11.311 -0.6598  0.7786  0.1281
 1008MOL0     C36012   9.107  11.675  11.291 -0.5289  0.5164  0.0329
 1008MOL0     H36013   9.387  11.240  11.252  1.0377  1.2370 -0.0361
 1008MOL0     H36014   9.525  11.124  11.098 -0.9792 -0.4733  1.5658
 1008MOL0     H36015   9.673  11.099  10.894 -0.1085  0.5864 -0.4852
 1008MOL0     H36016   9.556  10.966  10.905 -0.9194  0.1131 -1.6555
 1008MOL0     H36017   9.718  11.030  10.677  0.3922 -1.2958 -1.2224
 1008MOL0     H36018   9.559  10.964  10.648  0.6091 -0.5350 -0.9686
 1008MOL0     H36019   9.607  10.766  10.758  0.1842  2.4091  2.2352
 1008MOL0     H36020   9.763  10.832  10.828  3.6450  4.6150 -1.7017
 1008MOL0     H36021   9.758  10.678  10.616 -0.7424 -0.1164 -0.5806
 1008MOL0     H36022   9.697  10.824  10.528  3.2624  1.2843 -1.0499
 1008MOL0     H36023   9.919  10.851  10.496 -3.0334  1.6129 -0.4227
 1008MOL0     H36024   9.897  10.946  10.629 -0.7133 -0.1849  0.1921
 1008MOL0     H36025   9.943  10.715  10.776 -2.0638 -1.7736 -1.0817
 1008MOL0     H36026   9.997  10.653  10.628 -0.7185  0.0061  0.1635
 1008MOL0     H36027  10.162  10.762  10.793 -0.3471 -1.8383 -0.8160
 1008MOL0     H36028  10.110  10.912  10.744 -2.2386  0.5889 -2.2416
 1008MOL0     H36029  10.170  10.747  10.498 -3.6429  0.7752  0.6846
 1008MOL0     H36030  10.189  10.923  10.532  2.6234  1.8015  1.9471
 1008MOL0     H36031  10.326  10.611  10.723 -0.0914 -0.6423 -0.6517
 1008MOL0     H36032  10.606  10.638  10.857  1.3188 -0.4793  0.2926
 1008MOL0     H36033  10.565  10.511  10.741 -3.8181  2.6242 -1.1685
 1008MOL0     H36034  10.799  10.702  10.737 -0.7829  0.9896 -2.5745
 1008MOL0     H36035  10.785  10.519  10.749 -1.2722 -2.2394 -0.2657
 1008MOL0     H36036  10.718  10.686  10.503 -0.3064  0.5322  0.6238
 1008MOL0     H36037  10.711  10.511  10.517 -1.4244  1.5065 -0.7749
 1008MOL0     H36038  10.948  10.503  10.562  0.8815 -0.9838 -2.2036
 1008MOL0     H36039  10.954  10.686  10.504 -1.1774  1.0427 -0.9560
 1008MOL0     H36040  11.160  10.584  10.445  0.1086  2.1293 -0.5341
 1008MOL0     H36041  11.345  10.459  10.338  0.9749  0.1016 -1.0215
 1008MOL0     H36042  11.465  10.062  10.169 -1.9312  2.0185 -0.6012
 1008MOL0     H36043  11.672   9.924  10.106  0.8799 -0.6048 -2.8002
 1008MOL0     H36044  12.033  10.155   9.926 -1.0387 -0.0047 -0.9476
 1008MOL0     H36045  12.040  10.146  10.104 -0.9476  0.2338 -0.2381
 1008MOL0     H36046  12.118   9.914   9.916  2.4949 -0.4501 -0.4178
 1008MOL0     H36047  12.231  10.026  10.017  0.3197  0.2773  0.8002
 1008MOL0     H36048  12.153   9.931  10.221  0.8481  2.3811 -0.7366
 1008MOL0     H36049  12.030   9.834  10.136  1.2481 -1.7849 -1.9047
 1008MOL0     H36050  12.325   9.801  10.139 -0.3277 -0.0531  1.8947
 1008MOL0     H36051  12.226   9.714  10.012  0.8512 -0.2992  0.2744
 1008MOL0     H36052  12.104   9.592  10.202 -0.8572  1.2322 -5.3006
 1008MOL0     H36053  12.203   9.685  10.311 -5.1957  0.8501  0.3293
 1008MOL0     H36054  12.301   9.495  10.096 -3.0023 -1.3506 -0.3087
 1008MOL0     H36055  12.398   9.542  10.237 -0.3539 -3.1823  1.2567
 1008MOL0     H36056  12.151   9.379  10.269  0.2042  0.5699 -0.8307
 1008MOL0     H36057  12.277   9.428  10.389  1.3497  3.6884 -1.0462
 1008MOL0     H36058  12.301   9.195  10.296  0.2696  0.4076  1.8325
 1008MOL0     H36059  12.310   9.270  10.135 -0.7986  1.6401  0.9351
 1008MOL0     H36060  11.853  10.283   9.984 -2.4967  3.1230 -0.6263
 1008MOL0     H36061  11.651  10.411  10.040  0.4995  0.1840  2.4441
 1008MOL0     H36062  11.096  10.324  10.019 -1.2475 -1.7832  0.1302
 1008MOL0     H36063  10.903  10.426  10.139  0.7341  0.6282  0.1112
 1008MOL0     H36064   9.305  11.280  10.777 -0.4598 -1.2317  1.0819
 1008MOL0     H36065   9.177  11.441  10.931 -0.5816 -1.3627 -1.8119
 1008MOL0     H36066   8.870  11.280  11.337  1.3055 -0.5662 -1.5590
 1008MOL0     H36067   8.664  11.401  11.413  2.3756  0.3247  4.3585
 1008MOL0     H36068   8.607  11.779  11.564  0.7304 -0.5803  0.5244
 1008MOL0     H36069   8.635  11.603  11.600 -0.1551 -1.1998 -1.0935
 1008MOL0     H36070   8.393  11.706  11.452 -0.8110 -0.5471 -0.1533
 1008MOL0     H36071   8.394  11.694  11.628 -1.1663 -1.6572 -0.8744
 1008MOL0     H36072   8.443  11.474  11.622 -0.2708  1.9558  0.8567
 1008MOL0     H36073   8.463  11.444  11.449 -0.7858 -3.6238  1.1989
 1008MOL0     H36074   8.207  11.538  11.440 -0.9446 -0.6450 -0.1399
 1008MOL0     H36075   8.253  11.376  11.481  1.4770 -0.4520  1.8115
 1008MOL0     H36076   8.073  11.507  11.836  1.4171  3.1819  0.8489
 1008MOL0     H36077   8.856  11.764  11.340 -0.9936 -1.7328 -1.4865
 1008MOL0     H36078   9.141  11.683  11.187  0.9223  0.3551  0.4662
 1008MOL0     H36079   9.083  11.775  11.327 -2.6427  0.3555 -0.8055
 1008MOL0     H36080   9.185  11.640  11.359 -2.9245  1.6748  3.6905
 1009MOL0     O36081   8.429   3.348  11.440 -0.0176 -0.4533 -0.2419
 1009MOL0     C36082   8.492   3.416  11.529 -0.2016 -0.6197  0.4143
 1009MOL0     O36083   8.628   3.406  11.549  0.8634  0.6107  0.2346
 1009MOL0     C36084   8.679   3.287  11.534  0.1500  0.2291  0.2689
 1009MOL0     C36085   8.703   3.216  11.649 -0.4420  1.1617 -0.1073
 1009MOL0     C36086   8.774   3.099  11.642  0.1596  0.2769 -0.7696
 1009MOL0     C36087   8.813   3.038  11.522  0.9756 -0.3199 -0.0946
 1009MOL0     O36088   8.885   2.919  11.518  0.1107  0.2674  0.8096
 1009MOL0     C36089   8.890   2.847  11.389 -0.3834 -0.7134  0.9444
 1009MOL0     C36090   9.024   2.856  11.326  0.4940 -0.4317  0.9637
 1009MOL0     C36091   9.143   2.803  11.413 -0.2340 -0.0838 -0.6236
 1009MOL0     C36092   9.228   2.706  11.329 -0.1197  0.4911  0.1169
 1009MOL0     C36093   9.365   2.687  11.404  0.4609 -0.5774  0.5234
 1009MOL0     C36094   9.465   2.609  11.323 -1.1204  0.1058 -0.5319
 1009MOL0     C36095   9.604   2.609  11.384  0.3381 -0.1028  0.4714
 1009MOL0     C36096   9.688   2.508  11.310  0.7860  0.1356 -1.1521
 1009MOL0     N36097   9.826   2.555  11.322 -0.4681 -0.1921 -0.5658
 1009MOL0     C36098   9.874   2.678  11.294 -0.3093  0.1203  0.3460
 1009MOL0     C36099  10.004   2.673  11.330  0.5663  0.3501 -1.2801
 1009MOL0     C36100  10.115   2.787  11.327  0.1791  0.5840 -0.0508
 1009MOL0     C36101  10.054   2.917  11.361  0.6503  0.0893  0.4059
 1009MOL0     C36102   9.990   2.916  11.506 -0.4137 -0.1017  0.2049
 1009MOL0     C36103   9.917   3.043  11.535 -0.0865 -0.2232  0.1073
 1009MOL0     O36104   9.880   3.052  11.673 -0.9262 -1.1071  0.6514
 1009MOL0     C36105   9.756   3.059  11.723 -0.3811 -0.4447  0.0872
 1009MOL0     C36106   9.650   2.979  11.677 -0.6463  0.4163  1.3830
 1009MOL0     C36107   9.524   2.995  11.727 -0.0481  0.3093  0.1607
 1009MOL0     C36108   9.500   3.077  11.843 -0.4994 -0.0118  0.3360
 1009MOL0     C36109   9.363   3.114  11.890  0.4729 -0.5651  0.7632
 1009MOL0     O36110   9.265   3.026  11.849 -0.2785 -0.4850  0.5770
 1009MOL0     C36111   9.158   2.971  11.921 -0.3406 -0.4863 -1.0075
 1009MOL0     C36112   9.058   2.914  11.845  0.2668  0.7069  0.2596
 1009MOL0     C36113   8.940   2.855  11.913 -0.3387  0.9261 -0.5457
 1009MOL0     C36114   8.929   2.843  12.044  0.3918 -0.7208 -0.2748
 1009MOL0     O36115   8.821   2.801  12.118  0.5005  0.1790  0.6912
 1009MOL0     C36116   8.703   2.755  12.046 -0.7608  0.0776  0.0258
 1009MOL0     C36117   8.624   2.876  12.010  0.4969  0.6834  0.4080
 1009MOL0     C36118   8.482   2.833  11.973  0.0043 -0.1701 -0.5873
 1009MOL0     C36119   8.414   2.949  11.899  0.4173 -0.1258 -0.0646
 1009MOL0     C36120   8.271   2.914  11.853  0.2920 -0.1326 -0.2532
 1009MOL0     C36121   8.265   2.833  11.729 -0.7483 -0.0507 -0.9232
 1009MOL0     C36122   8.121   2.812  11.686 -0.1878 -0.4648 -0.5795
 1009MOL0     C36123   8.118   2.741  11.552  0.1898  0.4081  0.1555
 1009MOL0    Cl36124   7.944   2.724  11.479 -0.2986  0.2870 -0.3074
 1009MOL0     C36125   9.030   2.904  12.122  0.2106  0.6027  0.5476
 1009MOL0     C36126   9.147   2.960  12.060  0.3579 -0.6006  0.1284
 1009MOL0     O36127   9.353   3.198  11.977  0.4054  0.4340 -0.1674
 1009MOL0     C36128   9.618   3.144  11.892 -0.4650  0.6445 -0.1732
 1009MOL0     C36129   9.737   3.145  11.832  0.1323  0.0837  0.9907
 1009MOL0     N36130  10.023   2.556  11.402 -0.1613  0.6406  0.3149
 1009MOL0     N36131   9.919   2.482  11.388  0.6529 -0.3002  0.7498
 1009MOL0     C36132   8.791   3.120  11.401 -0.6501 -0.1369 -0.2327
 1009MOL0     C36133   8.719   3.239  11.409 -0.2405  0.3169  0.6748
 1009MOL0     C36134   8.413   3.500  11.624 -0.7423  0.0473 -0.0076
 1009MOL0     C36135   8.274   3.475  11.623 -0.4400 -0.7292  0.0049
 1009MOL0     C36136   8.192   3.544  11.710  0.0905  0.6791  0.2391
 1009MOL0     C36137   8.232   3.653  11.779 -0.1416 -0.6378  0.0647
 1009MOL0     O36138   8.165   3.731  11.867 -1.0311 -0.5135  0.3440
 1009MOL0     C36139   8.029   3.710  11.898  0.5004 -0.2479  0.7724
 1009MOL0     C36140   8.025   3.619  12.030  0.1125 -0.4627 -0.5450
 1009MOL0     C36141   7.887   3.602  12.094  0.0290  0.4281  0.8261
 1009MOL0     C36142   7.856   3.471  12.160  0.5218  1.0990  0.1964
 1009MOL0     C36143   7.879   3.355  12.066 -0.5522  0.1895 -0.6297
 1009MOL0     C36144   7.899   3.278  11.978  0.3324 -0.0591  0.3101
 1009MOL0     C36145   8.371   3.684  11.767 -0.0472 -0.3555  0.6444
 1009MOL0     C36146   8.466   3.611  11.698 -0.3623  0.4745 -0.0028
 1009MOL0     C36147   8.604   3.672  11.690 -0.2775  0.6333  0.2948
 1009MOL0     H36148   8.667   3.253  11.744 -3.1211 -1.7367  0.1656
 1009MOL0     H36149   8.801   3.063  11.740 -2.4891  1.3026  0.4326
 1009MOL0     H36150   8.878   2.744  11.425  1.6366 -0.9824  1.0048
 1009MOL0     H36151   8.822   2.871  11.307  0.0114 -1.8647  0.2428
 1009MOL0     H36152   9.034   2.963  11.302 -0.2122  0.0120  2.5135
 1009MOL0     H36153   9.016   2.797  11.234  0.2454  1.5821 -0.3870
 1009MOL0     H36154   9.112   2.747  11.501  0.0383  0.7487  0.0260
 1009MOL0     H36155   9.202   2.881  11.463  1.5389 -0.9390 -1.3112
 1009MOL0     H36156   9.178   2.611  11.309 -0.5046  0.4283  1.3083
 1009MOL0     H36157   9.248   2.749  11.230 -2.6936  2.2633  0.2855
 1009MOL0     H36158   9.404   2.785  11.432  0.1998  0.0551 -1.2435
 1009MOL0     H36159   9.342   2.632  11.496  0.0489  1.6910  1.8564
 1009MOL0     H36160   9.422   2.508  11.317 -2.6415  0.6742  0.3055
 1009MOL0     H36161   9.468   2.661  11.227 -1.8919  0.5340 -0.3388
 1009MOL0     H36162   9.612   2.583  11.490 -1.1910 -2.8205  0.0208
 1009MOL0     H36163   9.645   2.710  11.382  0.7036 -0.2220  1.3844
 1009MOL0     H36164   9.669   2.424  11.378  1.1997  1.1363  0.2305
 1009MOL0     H36165   9.667   2.482  11.206  3.8016 -1.4125 -1.4819
 1009MOL0     H36166   9.828   2.754  11.232 -1.4409  0.3831  1.4549
 1009MOL0     H36167  10.193   2.760  11.399  1.9508  0.9210 -1.7609
 1009MOL0     H36168  10.163   2.789  11.229 -2.0258 -1.7101 -1.2938
 1009MOL0     H36169  10.136   2.989  11.364  0.2038  0.5913  0.5759
 1009MOL0     H36170   9.976   2.947  11.291 -0.8072 -1.7792  1.1262
 1009MOL0     H36171  10.074   2.923  11.576  0.0772  0.6160 -0.4409
 1009MOL0     H36172   9.923   2.832  11.529  0.9031 -1.0463  0.7370
 1009MOL0     H36173   9.831   3.050  11.468  0.8549  0.6926 -1.0316
 1009MOL0     H36174   9.984   3.121  11.499 -0.7904 -0.3548 -1.5973
 1009MOL0     H36175   9.683   2.906  11.604 -0.5396  1.2592  0.5614
 1009MOL0     H36176   9.439   2.941  11.686 -1.4263  2.6102 -0.1992
 1009MOL0     H36177   9.060   2.913  11.736  1.7678 -2.1775  0.1894
 1009MOL0     H36178   8.863   2.819  11.846  0.2007  0.2506 -0.8143
 1009MOL0     H36179   8.721   2.684  11.964  0.1553  1.1050 -0.6923
 1009MOL0     H36180   8.643   2.695  12.115 -0.1235 -1.9479 -1.0663
 1009MOL0     H36181   8.619   2.937  12.100 -1.6860  3.3118 -1.3036
 1009MOL0     H36182   8.666   2.936  11.928 -0.0378  1.6571  0.8313
 1009MOL0     H36183   8.480   2.752  11.901  1.3269 -2.1327  1.4481
 1009MOL0     H36184   8.422   2.818  12.063  2.2537 -1.8025  0.7433
 1009MOL0     H36185   8.471   2.978  11.810 -1.4293  0.8759 -0.9648
 1009MOL0     H36186   8.424   3.043  11.954  2.7126 -0.4753  0.2336
 1009MOL0     H36187   8.211   3.006  11.843 -1.7922 -1.1145  2.0619
 1009MOL0     H36188   8.230   2.860  11.940  0.2074  2.5429  1.4994
 1009MOL0     H36189   8.329   2.885  11.657  1.1052 -0.5953  0.2703
 1009MOL0     H36190   8.313   2.736  11.743  0.0443  0.3310 -0.9008
 1009MOL0     H36191   8.073   2.907  11.660 -2.3896 -1.5680 -0.8293
 1009MOL0     H36192   8.064   2.766  11.768  2.1290  1.5950  2.3742
 1009MOL0     H36193   8.184   2.806  11.493 -0.6617  1.1909  0.0508
 1009MOL0     H36194   8.169   2.645  11.562  1.0500  0.9902  1.8008
 1009MOL0     H36195   9.019   2.896  12.229  1.1980  0.0460  0.6100
 1009MOL0     H36196   9.236   2.979  12.119  0.5935 -1.8300  0.1984
 1009MOL0     H36197   9.614   3.202  11.984  0.1507  0.4160  0.0043
 1009MOL0     H36198   9.817   3.199  11.881 -0.0126  0.0060  1.3094
 1009MOL0     H36199   8.828   3.090  11.303 -0.7861 -0.9046 -0.0564
 1009MOL0     H36200   8.690   3.297  11.322 -1.2972  1.2135  1.6074
 1009MOL0     H36201   8.227   3.391  11.572 -1.5046  1.1068 -2.2051
 1009MOL0     H36202   8.090   3.507  11.711 -0.0840  1.1455  0.0473
 1009MOL0     H36203   7.974   3.661  11.817  1.2101  1.4359 -0.8106
 1009MOL0     H36204   7.968   3.801  11.911  0.8438  0.2404 -0.8061
 1009MOL0     H36205   8.091   3.666  12.103 -0.8441 -2.1035  1.4715
 1009MOL0     H36206   8.079   3.524  12.020 -0.8715 -1.4392  2.3905
 1009MOL0     H36207   7.815   3.621  12.013 -0.3478 -0.1621  1.0113
 1009MOL0     H36208   7.879   3.671  12.178 -0.9578 -1.0574  2.0111
 1009MOL0     H36209   7.925   3.451  12.243 -0.5887 -1.2738  0.6301
 1009MOL0     H36210   7.750   3.475  12.185  0.6682  1.5604  0.7662
 1009MOL0     H36211   7.920   3.216  11.893 -1.0565  0.1099 -0.1868
 1009MOL0     H36212   8.408   3.767  11.826 -0.3406 -1.1978  2.0595
 1009MOL0     H36213   8.622   3.755  11.758  1.5266  1.0844 -0.6846
 1009MOL0     H36214   8.678   3.596  11.715 -2.9227 -1.2021  3.4440
 1009MOL0     H36215   8.614   3.701  11.585 -2.3961  4.1544  0.8983
 1010MOL0     O36216  10.913   4.731   5.131 -0.1251  1.1137  0.4386
 1010MOL0     C36217  10.955   4.639   5.200 -0.2284 -0.0714  0.2628
 1010MOL0     O36218  11.044   4.546   5.155 -0.0763 -0.1272 -0.1292
 1010MOL0     C36219  11.067   4.532   5.019 -0.0724  0.5855 -0.0199
 1010MOL0     C36220  11.118   4.635   4.940  0.4405 -0.1222 -0.6183
 1010MOL0     C36221  11.149   4.604   4.804 -0.1851 -0.4725 -0.7568
 1010MOL0     C36222  11.131   4.482   4.743 -0.6350 -0.3296 -0.1956
 1010MOL0     O36223  11.176   4.466   4.609 -0.0555  0.2029  0.1492
 1010MOL0     C36224  11.115   4.371   4.533 -0.3329 -0.2117  0.4400
 1010MOL0     C36225  11.166   4.367   4.391 -1.6011  0.3577 -0.4495
 1010MOL0     C36226  11.166   4.228   4.326  0.3333 -0.6112 -0.5467
 1010MOL0     C36227  11.145   4.235   4.178 -0.4924 -0.3420  0.7571
 1010MOL0     C36228  11.156   4.097   4.115  0.2992 -1.2486 -0.6466
 1010MOL0     C36229  11.121   4.105   3.961  0.5011  1.0584 -0.3483
 1010MOL0     C36230  11.143   3.971   3.877 -0.0589  0.1230 -0.9565
 1010MOL0     C36231  11.287   3.937   3.842  0.0986 -0.2585 -0.1066
 1010MOL0     N36232  11.350   4.026   3.740  0.4309 -0.2474  0.0931
 1010MOL0     C36233  11.277   4.125   3.673 -0.5563 -0.9715  0.0242
 1010MOL0     C36234  11.365   4.208   3.613 -0.1396 -0.2491 -0.0665
 1010MOL0     C36235  11.325   4.331   3.541 -0.1222  0.6244 -0.6703
 1010MOL0     C36236  11.322   4.463   3.627  0.8980  0.1610 -0.0355
 1010MOL0     C36237  11.274   4.442   3.780  0.1272 -1.2132 -0.1718
 1010MOL0     C36238  11.287   4.576   3.854 -0.2979 -0.1325  0.6008
 1010MOL0     O36239  11.185   4.679   3.820 -0.8784  0.4545  0.6319
 1010MOL0     C36240  11.062   4.683   3.874 -0.1025  0.9563 -0.2924
 1010MOL0     C36241  11.027   4.614   3.986  0.5842  0.4694 -0.6004
 1010MOL0     C36242  10.900   4.630   4.045 -0.5547 -0.5598  0.6541
 1010MOL0     C36243  10.802   4.723   4.005  0.5203  0.1350  0.0276
 1010MOL0     C36244  10.670   4.752   4.073  0.6818  0.5250  0.3264
 1010MOL0     O36245  10.602   4.653   4.144 -0.2338 -0.3604 -0.7116
 1010MOL0     C36246  10.468   4.652   4.164 -0.2109 -0.1441 -0.4469
 1010MOL0     C36247  10.410   4.526   4.142  0.6791 -0.3026  0.0601
 1010MOL0     C36248  10.279   4.520   4.174 -0.3471  0.0396 -0.0104
 1010MOL0     C36249  10.208   4.626   4.227 -0.4748  0.0198  0.6847
 1010MOL0     O36250  10.073   4.609   4.233  0.2157  0.9343 -0.7199
 1010MOL0     C36251  10.018   4.525   4.339 -0.3673  1.2909  0.6549
 1010MOL0     C36252   9.864   4.498   4.323  0.2319 -0.7731 -0.3773
 1010MOL0     C36253   9.830   4.399   4.215  0.1691  0.0012  0.6132
 1010MOL0     C36254   9.882   4.259   4.242 -1.0194  0.1853 -0.1864
 1010MOL0     C36255   9.823   4.146   4.148  0.1248 -0.3526 -0.3602
 1010MOL0     C36256   9.838   4.180   4.005 -0.8820  0.3701  0.5022
 1010MOL0     C36257   9.990   4.173   3.968  0.3816 -0.4873 -0.1501
 1010MOL0     C36258   9.986   4.173   3.813  0.3078 -0.7940 -0.3259
 1010MOL0    Cl36259  10.137   4.222   3.750  0.2936  0.5505  0.4269
 1010MOL0     C36260  10.267   4.755   4.240  0.2010 -0.4191  0.2481
 1010MOL0     C36261  10.397   4.763   4.218  0.5531 -0.3314 -0.8064
 1010MOL0     O36262  10.635   4.866   4.053  0.1422  0.1269 -0.4876
 1010MOL0     C36263  10.834   4.787   3.882 -0.1559  0.4645 -1.2693
 1010MOL0     C36264  10.959   4.763   3.819  1.0756 -0.6758 -1.5530
 1010MOL0     N36265  11.492   4.168   3.653  0.7692 -0.5051 -0.0238
 1010MOL0     N36266  11.478   4.072   3.745  0.3027  0.0730 -0.3103
 1010MOL0     C36267  11.065   4.386   4.822  0.0322  0.1291 -0.6516
 1010MOL0     C36268  11.044   4.409   4.962 -0.5258  1.2535  0.7592
 1010MOL0     C36269  10.905   4.642   5.343 -0.5279 -0.4731  0.9567
 1010MOL0     C36270  10.847   4.756   5.402 -0.6895 -0.5334  1.3142
 1010MOL0     C36271  10.809   4.768   5.536 -0.3097 -0.6129 -0.0034
 1010MOL0     C36272  10.813   4.659   5.615 -1.3883 -0.9378  0.6325
 1010MOL0     O36273  10.768   4.649   5.746  0.8259 -0.2493 -0.3016
 1010MOL0     C36274  10.652   4.730   5.791 -0.6884 -0.3297 -0.4467
 1010MOL0     C36275  10.520   4.653   5.771 -0.0510 -0.9216  0.2235
 1010MOL0     C36276  10.494   4.520   5.859 -0.4406  0.4111  0.1530
 1010MOL0     C36277  10.525   4.549   6.005  0.5142 -0.2087 -0.2645
 1010MOL0     C36278  10.431   4.644   6.071 -0.2029  0.3106 -0.0147
 1010MOL0     C36279  10.360   4.722   6.140  0.7152  0.6615 -0.4967
 1010MOL0     C36280  10.874   4.542   5.563  0.4550  0.2809  0.0533
 1010MOL0     C36281  10.922   4.532   5.432  0.1254  0.1922 -0.0196
 1010MOL0     C36282  11.023   4.425   5.401 -0.4895  0.3825  0.6746
 1010MOL0     H36283  11.141   4.730   4.986  0.5637 -0.5779  0.2707
 1010MOL0     H36284  11.201   4.678   4.745  1.5639 -1.7230 -0.8368
 1010MOL0     H36285  11.128   4.271   4.575  1.3229 -0.8100 -1.3792
 1010MOL0     H36286  11.010   4.398   4.518 -0.4199 -0.8228 -0.0791
 1010MOL0     H36287  11.274   4.384   4.382 -0.8401 -4.0080 -1.5941
 1010MOL0     H36288  11.107   4.441   4.335 -0.9553  1.1741 -0.0854
 1010MOL0     H36289  11.071   4.183   4.356  0.5016 -2.8551 -3.0093
 1010MOL0     H36290  11.250   4.169   4.363  1.2057  1.8635  1.7712
 1010MOL0     H36291  11.041   4.265   4.165 -0.8642 -0.7421  2.5159
 1010MOL0     H36292  11.210   4.301   4.120  0.1378 -1.9989 -0.5057
 1010MOL0     H36293  11.261   4.066   4.119  1.1695  1.5965  0.7995
 1010MOL0     H36294  11.102   4.017   4.167  1.3386 -0.5745  1.6127
 1010MOL0     H36295  11.017   4.137   3.948 -0.0274 -0.9056 -1.3625
 1010MOL0     H36296  11.181   4.185   3.916  2.4884  1.3699  2.5520
 1010MOL0     H36297  11.078   3.987   3.790 -0.5026  1.3092 -0.4358
 1010MOL0     H36298  11.110   3.889   3.941  0.3760  2.1057  2.0298
 1010MOL0     H36299  11.350   3.940   3.932 -1.8648  0.1302  1.3217
 1010MOL0     H36300  11.291   3.833   3.811  0.3172 -0.7082  1.3531
 1010MOL0     H36301  11.168   4.121   3.676 -0.5751 -2.2216 -1.1813
 1010MOL0     H36302  11.395   4.345   3.457 -0.4165  0.1188 -1.0021
 1010MOL0     H36303  11.226   4.317   3.497 -0.0602 -2.6116  0.0395
 1010MOL0     H36304  11.418   4.515   3.617  2.5146 -2.4600  0.9376
 1010MOL0     H36305  11.244   4.517   3.573  1.8873  0.6758 -0.9949
 1010MOL0     H36306  11.332   4.374   3.843  1.2871  1.7140  2.1814
 1010MOL0     H36307  11.170   4.414   3.762  0.3550 -0.1019 -4.1204
 1010MOL0     H36308  11.378   4.622   3.814  0.9796 -0.4413  2.9753
 1010MOL0     H36309  11.309   4.563   3.960  0.7369  3.1894  0.9000
 1010MOL0     H36310  11.108   4.559   4.033  0.0804  1.7736  1.9550
 1010MOL0     H36311  10.896   4.593   4.147  0.5505  0.1160  0.9636
 1010MOL0     H36312  10.472   4.444   4.107 -1.6478 -1.4591 -1.6698
 1010MOL0     H36313  10.221   4.430   4.154  0.1713 -0.2332 -0.3068
 1010MOL0     H36314  10.083   4.437   4.340 -0.6775  1.0445  0.0150
 1010MOL0     H36315  10.042   4.582   4.429  1.5067  1.5263  0.0500
 1010MOL0     H36316   9.822   4.466   4.418  0.4103  0.4520  0.1307
 1010MOL0     H36317   9.819   4.595   4.299  0.5004 -0.8034 -1.0420
 1010MOL0     H36318   9.723   4.402   4.194 -0.2298 -1.5689  2.1266
 1010MOL0     H36319   9.876   4.438   4.124  0.8219  1.8426  1.6686
 1010MOL0     H36320   9.854   4.239   4.346 -3.2646  2.4459 -0.2360
 1010MOL0     H36321   9.989   4.265   4.218 -1.4972  4.0051 -2.1309
 1010MOL0     H36322   9.716   4.152   4.168  0.2428  1.1889 -0.0788
 1010MOL0     H36323   9.854   4.043   4.166  0.5437 -0.5044 -1.7756
 1010MOL0     H36324   9.777   4.116   3.941  0.9464 -2.1780  1.1597
 1010MOL0     H36325   9.805   4.283   3.987 -0.2455  0.7399  1.3850
 1010MOL0     H36326  10.048   4.086   4.002  2.5705  1.1430  0.5553
 1010MOL0     H36327  10.045   4.260   4.006 -0.9192 -0.8667  2.9309
 1010MOL0     H36328   9.955   4.082   3.760  0.7145  0.1180 -2.1860
 1010MOL0     H36329   9.922   4.249   3.768  2.9303  0.7495 -1.6479
 1010MOL0     H36330  10.200   4.839   4.256  0.6018  0.0190 -0.3260
 1010MOL0     H36331  10.445   4.855   4.247  0.1003  0.3852 -2.2299
 1010MOL0     H36332  10.759   4.860   3.852  0.1575  0.8202 -1.2054
 1010MOL0     H36333  10.966   4.803   3.719  0.2792 -1.1164 -1.7928
 1010MOL0     H36334  11.030   4.289   4.787  0.6933 -0.3708  0.0477
 1010MOL0     H36335  11.001   4.326   5.016 -0.6677  2.1388  2.0581
 1010MOL0     H36336  10.839   4.845   5.341 -2.4917 -2.9079 -2.3089
 1010MOL0     H36337  10.785   4.862   5.584  1.3212 -1.0285  1.7942
 1010MOL0     H36338  10.658   4.823   5.733  0.4127  0.7849  1.3287
 1010MOL0     H36339  10.663   4.760   5.896  1.1677  0.5538 -0.8313
 1010MOL0     H36340  10.506   4.633   5.665 -0.8756 -1.2103  0.3719
 1010MOL0     H36341  10.435   4.720   5.788 -0.2514 -1.4505  1.4770
 1010MOL0     H36342  10.554   4.433   5.830 -3.1603 -0.9303 -1.8392
 1010MOL0     H36343  10.394   4.479   5.843 -0.1869 -2.1021  3.8035
 1010MOL0     H36344  10.517   4.454   6.058 -1.0076  0.2238  0.3202
 1010MOL0     H36345  10.622   4.594   6.024  0.6538 -0.6700  0.1320
 1010MOL0     H36346  10.306   4.791   6.201 -0.3303 -0.0172 -0.6399
 1010MOL0     H36347  10.872   4.451   5.623  1.5625  0.1451 -0.1018
 1010MOL0     H36348  11.124   4.446   5.365  0.1118 -2.1955  0.6689
 1010MOL0     H36349  11.037   4.360   5.488  3.6070  2.3451  1.7499
 1010MOL0     H36350  10.973   4.360   5.329 -1.2663  2.3079 -0.5989
 1011MOL0     O36351  10.240   6.645  10.786 -0.3480 -0.1369  1.2470
 1011MOL0     C36352  10.239   6.573  10.882 -0.2207 -0.3838  0.7380
 1011MOL0     O36353  10.334   6.475  10.909  0.0500  0.4017 -0.4817
 1011MOL0     C36354  10.453   6.476  10.839  0.2710  0.1670 -0.4793
 1011MOL0     C36355  10.575   6.514  10.888 -1.0448 -0.3601 -0.0429
 1011MOL0     C36356  10.691   6.507  10.810  0.0074  0.3206  0.1351
 1011MOL0     C36357  10.690   6.439  10.691 -0.8346 -0.3420  0.2665
 1011MOL0     O36358  10.814   6.430  10.626  0.4617  0.3870  0.5712
 1011MOL0     C36359  10.815   6.342  10.507 -0.0940 -0.4007  0.1539
 1011MOL0     C36360  10.954   6.331  10.467  0.1811  0.0540 -0.2567
 1011MOL0     C36361  11.044   6.274  10.583 -0.1771 -0.5100  0.6610
 1011MOL0     C36362  11.185   6.219  10.526 -0.1729  0.1295 -0.6629
 1011MOL0     C36363  11.279   6.338  10.494  0.3419  0.8839  0.4493
 1011MOL0     C36364  11.295   6.452  10.594  0.4652 -0.5420  0.5409
 1011MOL0     C36365  11.414   6.531  10.555  0.5158  0.0544  0.1822
 1011MOL0     C36366  11.487   6.609  10.663 -0.0076  0.0582  0.6886
 1011MOL0     N36367  11.406   6.711  10.736 -0.1388 -0.4585  0.7849
 1011MOL0     C36368  11.377   6.829  10.673 -0.3858  0.2439 -1.1810
 1011MOL0     C36369  11.327   6.904  10.769 -0.1036 -0.1591 -0.1368
 1011MOL0     C36370  11.285   7.050  10.759  0.1105 -0.1774 -0.4343
 1011MOL0     C36371  11.409   7.137  10.780  0.3460 -0.2090  0.5090
 1011MOL0     C36372  11.469   7.125  10.921 -0.4251  0.2277 -0.5670
 1011MOL0     C36373  11.376   7.159  11.045  0.4064 -0.7894  0.0144
 1011MOL0     O36374  11.323   7.287  11.010 -0.0839 -0.1051 -0.4473
 1011MOL0     C36375  11.253   7.330  11.121 -0.7645 -0.0967 -0.8894
 1011MOL0     C36376  11.290   7.420  11.218  0.0348  0.7563  0.9077
 1011MOL0     C36377  11.211   7.445  11.335 -0.1363 -0.8695  0.5155
 1011MOL0     C36378  11.087   7.383  11.341 -0.0446  0.5563 -0.4233
 1011MOL0     C36379  10.997   7.401  11.452 -0.2613  0.0509 -1.5852
 1011MOL0     O36380  10.989   7.526  11.517  0.3654  0.1183  0.8445
 1011MOL0     C36381  10.875   7.559  11.587 -0.3602  0.0752 -0.6901
 1011MOL0     C36382  10.746   7.542  11.539 -0.4447  0.0544 -0.9718
 1011MOL0     C36383  10.638   7.593  11.609 -0.0523 -0.3623 -0.3772
 1011MOL0     C36384  10.653   7.686  11.716  0.2027 -0.2564 -0.5013
 1011MOL0     O36385  10.563   7.771  11.771  0.5248 -0.2644 -0.1685
 1011MOL0     C36386  10.437   7.707  11.810  0.5146 -0.3990 -0.8593
 1011MOL0     C36387  10.313   7.807  11.796  0.3314  0.0122 -0.1816
 1011MOL0     C36388  10.324   7.938  11.876 -1.2309 -0.0126  0.0005
 1011MOL0     C36389  10.361   7.923  12.030  0.0725 -0.6711  0.1267
 1011MOL0     C36390  10.387   8.065  12.085 -0.8417  0.0228 -0.0205
 1011MOL0     C36391  10.443   8.067  12.226  0.2365  0.1417 -0.9060
 1011MOL0     C36392  10.333   8.015  12.334 -1.7251 -0.0700  0.0029
 1011MOL0     C36393  10.190   8.054  12.316 -0.3932  0.1591 -0.3415
 1011MOL0    Cl36394  10.086   7.930  12.387  0.2173 -0.1834  0.0488
 1011MOL0     C36395  10.787   7.724  11.736 -0.4707  0.0519 -0.4760
 1011MOL0     C36396  10.900   7.655  11.685  1.7227 -0.8889 -0.0269
 1011MOL0     O36397  10.927   7.306  11.481 -0.1212  0.2163  0.0471
 1011MOL0     C36398  11.048   7.295  11.238  1.0211 -0.6245  0.3679
 1011MOL0     C36399  11.133   7.275  11.131  0.4193 -1.0164  0.5507
 1011MOL0     N36400  11.317   6.826  10.890 -0.4327 -0.4049 -0.4715
 1011MOL0     N36401  11.362   6.712  10.865 -0.2336  0.1871  0.6928
 1011MOL0     C36402  10.560   6.409  10.634  0.3143  0.3984  0.2404
 1011MOL0     C36403  10.440   6.434  10.707  0.5656  0.1851  0.1038
 1011MOL0     C36404  10.113   6.582  10.964 -1.1155 -0.3775 -0.2389
 1011MOL0     C36405  10.003   6.605  10.888  0.1836 -0.0775 -0.4177
 1011MOL0     C36406   9.882   6.597  10.956 -0.1257 -0.8461  0.7139
 1011MOL0     C36407   9.870   6.599  11.101  0.3052 -0.3778  0.0456
 1011MOL0     O36408   9.751   6.614  11.168  0.5405 -0.7171 -0.2361
 1011MOL0     C36409   9.706   6.511  11.247  0.6748 -0.4418  0.1103
 1011MOL0     C36410   9.613   6.553  11.361  0.7972 -0.7278 -0.0558
 1011MOL0     C36411   9.503   6.652  11.319 -0.1125 -1.4055  0.4646
 1011MOL0     C36412   9.398   6.607  11.221  0.1517  0.1244  0.8898
 1011MOL0     C36413   9.313   6.723  11.189  0.6569 -0.4877  0.6167
 1011MOL0     C36414   9.245   6.819  11.162 -0.3431 -0.3228  0.3650
 1011MOL0     C36415   9.991   6.590  11.169 -0.2439 -0.8960 -0.1826
 1011MOL0     C36416  10.115   6.573  11.108  0.3319 -1.1784 -0.2424
 1011MOL0     C36417  10.245   6.560  11.186 -0.6060  0.9917  0.2163
 1011MOL0     H36418  10.589   6.560  10.985  0.7448  0.8672 -0.8319
 1011MOL0     H36419  10.786   6.547  10.843  0.3680  2.5796 -3.1801
 1011MOL0     H36420  10.777   6.242  10.532  0.0308 -0.2271  1.0457
 1011MOL0     H36421  10.761   6.373  10.417 -2.4839 -0.7936  1.3827
 1011MOL0     H36422  10.992   6.431  10.444 -0.8633  1.2482  2.7576
 1011MOL0     H36423  10.962   6.275  10.374  0.9079 -0.4794  0.1093
 1011MOL0     H36424  11.000   6.182  10.624 -0.4826 -1.2612 -1.2355
 1011MOL0     H36425  11.061   6.359  10.649  1.3040  0.3128 -0.6988
 1011MOL0     H36426  11.239   6.155  10.596  1.3414  0.1146 -1.7893
 1011MOL0     H36427  11.170   6.165  10.432 -0.3138  0.5336 -0.8788
 1011MOL0     H36428  11.378   6.291  10.483  0.2280  0.8467 -0.4156
 1011MOL0     H36429  11.251   6.380  10.398 -1.6337 -0.2959  0.4658
 1011MOL0     H36430  11.207   6.516  10.590  1.6868  1.3473  1.9778
 1011MOL0     H36431  11.310   6.408  10.692  0.5409 -0.1778  0.6945
 1011MOL0     H36432  11.377   6.603  10.480  1.4549 -0.4021 -0.7383
 1011MOL0     H36433  11.479   6.461  10.503 -3.1072 -0.7894 -3.7647
 1011MOL0     H36434  11.506   6.537  10.743 -0.1739 -1.2828 -0.4405
 1011MOL0     H36435  11.582   6.651  10.628  1.5066 -1.6856  2.4017
 1011MOL0     H36436  11.394   6.864  10.572  1.9675  2.4511 -0.1648
 1011MOL0     H36437  11.259   7.062  10.653  0.2707 -1.2723 -0.6029
 1011MOL0     H36438  11.206   7.074  10.831  1.1370  0.7697  0.4147
 1011MOL0     H36439  11.492   7.118  10.711  0.4505  1.5711  0.0898
 1011MOL0     H36440  11.370   7.236  10.752 -1.6640 -1.0334  0.2155
 1011MOL0     H36441  11.554   7.194  10.915 -1.5913  1.5884 -2.1816
 1011MOL0     H36442  11.512   7.025  10.933 -4.2373 -1.6968 -1.4260
 1011MOL0     H36443  11.417   7.159  11.147 -4.0783 -1.6139  2.0326
 1011MOL0     H36444  11.301   7.081  11.059  0.8162 -1.0194  0.9975
 1011MOL0     H36445  11.390   7.462  11.219 -0.3432  1.9935 -1.9780
 1011MOL0     H36446  11.247   7.508  11.415  1.4176 -0.8930 -0.1331
 1011MOL0     H36447  10.735   7.482  11.449 -1.5360 -2.8852  0.9769
 1011MOL0     H36448  10.534   7.585  11.581 -0.3746  0.5928  0.4878
 1011MOL0     H36449  10.413   7.628  11.738  4.2239 -2.0672 -0.4839
 1011MOL0     H36450  10.444   7.647  11.901 -3.9686 -0.9147 -0.6289
 1011MOL0     H36451  10.306   7.838  11.691  0.5066  0.3929 -0.0828
 1011MOL0     H36452  10.226   7.750  11.830  0.6846  1.2019  3.0376
 1011MOL0     H36453  10.398   8.002  11.827 -1.9012  0.7817  0.0060
 1011MOL0     H36454  10.229   7.991  11.869  0.1130  2.2999 -2.3258
 1011MOL0     H36455  10.448   7.859  12.050 -1.2353 -1.8788  2.4753
 1011MOL0     H36456  10.274   7.885  12.084  1.6406 -2.2875  1.6661
 1011MOL0     H36457  10.299   8.127  12.071 -0.8921 -0.2382 -0.9049
 1011MOL0     H36458  10.460   8.112  12.019 -2.5292  1.2512 -1.0691
 1011MOL0     H36459  10.532   8.009  12.248 -0.5805 -0.2717  1.5767
 1011MOL0     H36460  10.464   8.173  12.243 -0.1932  0.0114  0.6120
 1011MOL0     H36461  10.367   8.049  12.432  2.7953 -0.8166 -1.0641
 1011MOL0     H36462  10.337   7.906  12.330 -1.6223 -0.0305 -2.3273
 1011MOL0     H36463  10.172   8.149  12.367 -0.2510  0.1457 -0.2637
 1011MOL0     H36464  10.167   8.057  12.209  2.0594 -1.1769 -1.0025
 1011MOL0     H36465  10.809   7.815  11.790  1.9704 -0.4383 -0.5428
 1011MOL0     H36466  11.000   7.681  11.716  1.2165  0.3145  0.6527
 1011MOL0     H36467  10.951   7.247  11.238  0.1792  0.9495  1.9118
 1011MOL0     H36468  11.092   7.226  11.043  1.4335 -0.4528 -0.2616
 1011MOL0     H36469  10.561   6.369  10.534 -0.9987  4.1942 -1.4829
 1011MOL0     H36470  10.352   6.398  10.654  0.1694  0.3419  0.6543
 1011MOL0     H36471  10.008   6.622  10.781  0.6635 -0.7436 -0.5007
 1011MOL0     H36472   9.788   6.619  10.906  0.7798  4.2816  0.6838
 1011MOL0     H36473   9.796   6.465  11.290  1.4147 -0.8816 -1.8405
 1011MOL0     H36474   9.643   6.439  11.194 -2.5945  0.8672  1.8926
 1011MOL0     H36475   9.676   6.612  11.428 -2.4969  2.2115  0.7749
 1011MOL0     H36476   9.567   6.474  11.423 -1.9537  0.0290 -0.9981
 1011MOL0     H36477   9.556   6.737  11.275 -0.6537 -1.5534 -0.5111
 1011MOL0     H36478   9.459   6.692  11.411  1.9809  2.7796 -0.1248
 1011MOL0     H36479   9.442   6.567  11.129 -0.9657 -2.2173  1.3001
 1011MOL0     H36480   9.333   6.526  11.255 -1.1873 -0.2154 -2.1207
 1011MOL0     H36481   9.191   6.902  11.121 -1.1539 -0.9449  0.1368
 1011MOL0     H36482   9.986   6.599  11.277  0.5441 -0.1583 -0.1962
 1011MOL0     H36483  10.318   6.641  11.174  1.5070 -1.0155 -1.3532
 1011MOL0     H36484  10.221   6.560  11.293  0.8351  3.0778  0.5996
 1011MOL0     H36485  10.301   6.469  11.163 -2.1469  0.6305 -2.4749
 1012MOL0     O36486   1.121  11.223  11.004 -0.6706  0.1777 -0.0396
 1012MOL0     C36487   1.141  11.249  10.882  0.3959  0.5460  0.5895
 1012MOL0     O36488   1.230  11.341  10.836  0.0295 -0.3659  0.0007
 1012MOL0     C36489   1.326  11.387  10.925 -0.1847 -0.2742  0.5837
 1012MOL0     C36490   1.417  11.314  11.008 -0.4402 -0.0053 -0.9312
 1012MOL0     C36491   1.526  11.376  11.080 -0.4839 -0.0410  0.5052
 1012MOL0     C36492   1.558  11.510  11.064  0.7825 -0.6694  0.2190
 1012MOL0     O36493   1.678  11.556  11.113  0.3788 -0.1367 -0.7221
 1012MOL0     C36494   1.779  11.614  11.035 -0.7756  0.0764  0.3961
 1012MOL0     C36495   1.870  11.514  10.970  0.2461  1.0761  0.6913
 1012MOL0     C36496   1.984  11.455  11.056 -0.5212 -1.1258  0.9248
 1012MOL0     C36497   1.950  11.343  11.148  0.2683  0.1467  0.0860
 1012MOL0     C36498   1.892  11.224  11.069  0.5695 -0.1556  0.6239
 1012MOL0     C36499   1.895  11.098  11.150 -0.5978  0.8300  0.0639
 1012MOL0     C36500   1.866  10.974  11.066  0.0415  0.4068  0.0219
 1012MOL0     C36501   1.783  10.872  11.140  0.1794 -0.7883  0.2245
 1012MOL0     N36502   1.849  10.801  11.253 -0.1298  0.0769 -0.0574
 1012MOL0     C36503   1.979  10.749  11.264  0.5488  0.4851  0.4468
 1012MOL0     C36504   1.987  10.694  11.386  0.2574 -0.6962 -0.6020
 1012MOL0     C36505   2.111  10.630  11.439  0.3208 -0.2802 -0.1723
 1012MOL0     C36506   2.086  10.482  11.479  0.0813  1.0010 -0.0066
 1012MOL0     C36507   2.178  10.426  11.590 -0.1581 -0.7721 -0.4390
 1012MOL0     C36508   2.152  10.502  11.719  0.5807 -0.1358 -0.4739
 1012MOL0     O36509   2.210  10.436  11.834  0.3097  0.0152 -0.1039
 1012MOL0     C36510   2.341  10.459  11.861  1.0698 -0.3435  0.1467
 1012MOL0     C36511   2.424  10.357  11.901 -0.4353  0.4034 -0.5192
 1012MOL0     C36512   2.553  10.377  11.943  0.1237  0.2364 -0.1621
 1012MOL0     C36513   2.603  10.511  11.938  0.0236 -0.4402  0.2327
 1012MOL0     C36514   2.734  10.531  11.972  0.0838  0.1693  0.4199
 1012MOL0     O36515   2.780  10.447  12.065  0.1761 -0.4027  0.2800
 1012MOL0     C36516   2.912  10.422  12.081  0.0312  0.0541 -0.4087
 1012MOL0     C36517   2.957  10.392  12.208  0.5675 -1.6964 -1.1705
 1012MOL0     C36518   3.090  10.358  12.233 -0.5096  0.8143 -0.0768
 1012MOL0     C36519   3.183  10.369  12.131 -0.9437  0.5625  0.8406
 1012MOL0     O36520   3.311  10.349  12.136  0.1156  0.6465  0.1289
 1012MOL0     C36521   3.367  10.349  12.267  0.5777  0.0231 -0.7067
 1012MOL0     C36522   3.509  10.300  12.254  0.4666  0.0393  0.5788
 1012MOL0     C36523   3.512  10.155  12.220 -0.0988  0.4572 -0.6659
 1012MOL0     C36524   3.659  10.097  12.194  0.9277 -0.2134 -1.1066
 1012MOL0     C36525   3.645   9.948  12.195 -0.6858  0.0405 -0.0171
 1012MOL0     C36526   3.778   9.875  12.170  0.3130 -0.0978  0.9218
 1012MOL0     C36527   3.823   9.855  12.020 -0.1099 -0.4759 -0.0791
 1012MOL0     C36528   3.773   9.724  11.951 -0.7528  0.3312  0.5920
 1012MOL0    Cl36529   3.871   9.591  12.030 -0.5165 -0.1940 -0.4734
 1012MOL0     C36530   3.137  10.398  12.004  0.1816  0.7954 -1.1960
 1012MOL0     C36531   3.003  10.419  11.976  0.2782 -0.2516 -0.0798
 1012MOL0     O36532   2.799  10.625  11.924 -0.6394 -0.1263 -0.5336
 1012MOL0     C36533   2.513  10.615  11.902  0.1604  0.0828 -0.5823
 1012MOL0     C36534   2.383  10.590  11.869  0.1272 -0.6221  0.0333
 1012MOL0     N36535   1.856  10.707  11.436 -0.2424  0.0967  0.3870
 1012MOL0     N36536   1.779  10.780  11.366  0.1752 -0.3895  0.2858
 1012MOL0     C36537   1.473  11.583  10.973 -0.1838 -0.0756 -0.1549
 1012MOL0     C36538   1.364  11.525  10.907  0.8756 -0.3641  0.7175
 1012MOL0     C36539   1.050  11.181  10.790  0.3951  0.9701  0.0522
 1012MOL0     C36540   1.034  11.250  10.669  0.2665 -0.4115  0.0176
 1012MOL0     C36541   0.960  11.198  10.568  0.4480 -0.6000  1.0447
 1012MOL0     C36542   0.910  11.063  10.571 -0.8657  0.9235 -0.5879
 1012MOL0     O36543   0.828  11.014  10.472 -0.4176 -0.1364  0.2183
 1012MOL0     C36544   0.774  11.104  10.376  0.2400  0.2138 -0.2095
 1012MOL0     C36545   0.656  11.188  10.426  0.3036 -0.1332 -0.1934
 1012MOL0     C36546   0.524  11.109  10.427  0.6479 -0.6671 -1.2290
 1012MOL0     C36547   0.440  11.166  10.551 -0.2063  1.4893  0.4416
 1012MOL0     C36548   0.385  11.290  10.518 -0.0620 -0.0896 -0.3497
 1012MOL0     C36549   0.368  11.405  10.485 -0.0347  0.4883  0.2046
 1012MOL0     C36550   0.936  10.986  10.688  0.1861 -0.5028 -0.0161
 1012MOL0     C36551   1.003  11.046  10.798  0.3936  0.0434 -0.1565
 1012MOL0     C36552   1.019  10.945  10.899  0.4519 -0.2392 -0.3626
 1012MOL0     H36553   1.391  11.208  11.009 -2.0635  0.3684 -0.8349
 1012MOL0     H36554   1.595  11.311  11.133  1.9574  1.6646 -0.4316
 1012MOL0     H36555   1.741  11.674  10.953  0.0225  2.2146  1.5272
 1012MOL0     H36556   1.842  11.686  11.087 -0.7206 -0.2666  0.8149
 1012MOL0     H36557   1.901  11.558  10.875 -0.5366  3.3056  1.4224
 1012MOL0     H36558   1.804  11.434  10.932  1.6744 -0.0337  0.4701
 1012MOL0     H36559   2.025  11.548  11.097 -1.9914  0.3191 -0.6469
 1012MOL0     H36560   2.064  11.422  10.989 -2.4956 -0.8718 -1.7250
 1012MOL0     H36561   2.035  11.305  11.206 -1.7262  0.2471  3.3335
 1012MOL0     H36562   1.879  11.385  11.220  1.0284  2.8128 -0.6041
 1012MOL0     H36563   1.786  11.240  11.047 -0.0163 -0.8252  2.7022
 1012MOL0     H36564   1.959  11.213  10.983  0.2741  1.0300  0.2278
 1012MOL0     H36565   1.991  11.077  11.197 -1.1551  3.0243  2.4420
 1012MOL0     H36566   1.819  11.107  11.229 -0.1534 -1.3283  0.8054
 1012MOL0     H36567   1.968  10.940  11.046  1.3458  2.2530  2.8442
 1012MOL0     H36568   1.823  11.001  10.969 -0.0366 -0.3301 -0.1585
 1012MOL0     H36569   1.690  10.913  11.181  0.6888  0.0556  0.5533
 1012MOL0     H36570   1.743  10.797  11.071 -2.0622  1.8866 -1.6188
 1012MOL0     H36571   2.055  10.747  11.186  0.5006  1.3123  0.3695
 1012MOL0     H36572   2.199  10.651  11.377 -1.1283  0.6037 -2.0441
 1012MOL0     H36573   2.136  10.693  11.525  2.8388 -0.0842 -0.9790
 1012MOL0     H36574   1.983  10.451  11.495 -0.3762  1.0860 -2.4848
 1012MOL0     H36575   2.104  10.417  11.393  1.7164  0.9981  0.3007
 1012MOL0     H36576   2.277  10.459  11.554 -0.7814  0.6191 -0.9553
 1012MOL0     H36577   2.178  10.319  11.611 -1.8773 -0.1061  3.9901
 1012MOL0     H36578   2.045  10.495  11.741  1.2366  0.1671  3.6432
 1012MOL0     H36579   2.182  10.605  11.702 -1.2943  0.4782 -0.3355
 1012MOL0     H36580   2.393  10.253  11.907 -1.9475  0.7940 -1.2685
 1012MOL0     H36581   2.623  10.300  11.972 -1.0590  0.6545  4.8576
 1012MOL0     H36582   2.892  10.396  12.295 -1.6864  1.7322 -2.8497
 1012MOL0     H36583   3.110  10.331  12.336 -2.9073  3.7088  1.3107
 1012MOL0     H36584   3.370  10.452  12.305 -1.0837 -1.0682  2.8028
 1012MOL0     H36585   3.318  10.292  12.347  2.0794 -0.2359  0.0754
 1012MOL0     H36586   3.559  10.361  12.179 -1.4995  2.6162  1.2207
 1012MOL0     H36587   3.548  10.314  12.355  0.9479  4.8398 -0.0322
 1012MOL0     H36588   3.450  10.096  12.288 -1.6028 -0.9629 -3.0997
 1012MOL0     H36589   3.477  10.147  12.116 -2.4487 -2.8197  0.2072
 1012MOL0     H36590   3.720  10.127  12.279 -2.2757 -0.1564  1.3930
 1012MOL0     H36591   3.696  10.137  12.099 -2.3163 -3.5456 -4.1288
 1012MOL0     H36592   3.573   9.919  12.118  0.4983  2.2568 -2.0716
 1012MOL0     H36593   3.606   9.918  12.293 -3.6392 -0.5780 -1.2773
 1012MOL0     H36594   3.856   9.941  12.210 -0.2241  2.6094 -1.9975
 1012MOL0     H36595   3.769   9.775  12.212 -1.1352 -1.4093 -2.1733
 1012MOL0     H36596   3.932   9.862  12.024 -0.1128 -0.3534 -0.1902
 1012MOL0     H36597   3.789   9.941  11.961 -0.1046  0.3893  1.1258
 1012MOL0     H36598   3.666   9.705  11.948 -0.6098 -0.4802 -2.5079
 1012MOL0     H36599   3.801   9.728  11.845 -1.8625 -2.1572  0.1514
 1012MOL0     H36600   3.219  10.382  11.936 -1.6425 -1.8012 -3.0025
 1012MOL0     H36601   2.976  10.434  11.872  1.9476 -1.8074 -0.7882
 1012MOL0     H36602   2.554  10.715  11.913 -0.1289  0.1584 -0.1596
 1012MOL0     H36603   2.315  10.675  11.863 -0.9851 -1.4973 -0.0689
 1012MOL0     H36604   1.504  11.684  10.947 -0.7027 -0.1530 -1.1140
 1012MOL0     H36605   1.316  11.595  10.839  0.3175 -0.0808  1.3907
 1012MOL0     H36606   1.071  11.351  10.661 -0.6157 -0.1195 -0.4592
 1012MOL0     H36607   0.933  11.263  10.486  4.1081 -1.3335 -0.9374
 1012MOL0     H36608   0.749  11.049  10.285  0.5651  0.9612 -0.7580
 1012MOL0     H36609   0.853  11.172  10.341 -1.8744  3.6972  1.2813
 1012MOL0     H36610   0.660  11.257  10.341  1.3390 -1.5121 -1.3206
 1012MOL0     H36611   0.668  11.253  10.513 -0.0574 -2.7442  1.9341
 1012MOL0     H36612   0.536  11.002  10.444 -4.8648 -1.0525  2.9734
 1012MOL0     H36613   0.471  11.124  10.332  0.3365 -0.0830 -0.9703
 1012MOL0     H36614   0.355  11.101  10.569 -1.4444  1.9153 -3.1718
 1012MOL0     H36615   0.507  11.183  10.637 -1.5277  0.8252  1.6467
 1012MOL0     H36616   0.348  11.505  10.454  0.3692  0.7028  0.6182
 1012MOL0     H36617   0.899  10.883  10.690 -0.8034 -0.1592  1.1012
 1012MOL0     H36618   1.084  10.863  10.867  0.8898 -1.1880  2.6752
 1012MOL0     H36619   1.070  10.987  10.986 -0.3088 -0.3021  0.1186
 1012MOL0     H36620   0.922  10.911  10.937  1.1162 -0.6022  1.0745
 1013MOL0     O36621   4.718   5.330   3.443  0.1836  0.3933 -0.0902
 1013MOL0     C36622   4.737   5.352   3.326  0.3494  0.3627  0.6151
 1013MOL0     O36623   4.825   5.288   3.244  0.5890  0.1392 -0.2260
 1013MOL0     C36624   4.943   5.227   3.280 -0.0946  0.6340 -0.4206
 1013MOL0     C36625   5.033   5.277   3.380  0.2529  0.3154 -0.0711
 1013MOL0     C36626   5.161   5.212   3.394  0.3102  1.0683 -0.2001
 1013MOL0     C36627   5.195   5.093   3.326  0.7995  0.6121  0.3768
 1013MOL0     O36628   5.310   5.023   3.335 -0.3087  0.0092  0.0698
 1013MOL0     C36629   5.431   5.077   3.392 -1.2093  0.8687  0.0348
 1013MOL0     C36630   5.485   5.186   3.302  0.2553  0.1222  0.8093
 1013MOL0     C36631   5.635   5.158   3.275 -0.3190 -0.5874  0.0367
 1013MOL0     C36632   5.708   5.288   3.243 -0.3401  0.0408  0.1446
 1013MOL0     C36633   5.861   5.281   3.245 -0.2404 -0.6210  0.3760
 1013MOL0     C36634   5.923   5.234   3.111  0.8121 -0.4198  0.1390
 1013MOL0     C36635   6.080   5.222   3.106 -0.6411 -0.0828 -0.1067
 1013MOL0     C36636   6.129   5.132   2.992  0.1913  0.5715  0.2361
 1013MOL0     N36637   6.277   5.138   2.976  0.5520  0.2921 -0.2148
 1013MOL0     C36638   6.384   5.102   3.058 -0.1618  1.0917 -0.8067
 1013MOL0     C36639   6.490   5.106   2.988 -0.4609  0.4471  0.0143
 1013MOL0     C36640   6.633   5.066   3.024  0.5810 -0.8859  0.0641
 1013MOL0     C36641   6.721   5.190   3.063 -0.7731 -0.5718 -0.0696
 1013MOL0     C36642   6.812   5.154   3.178 -0.2541 -0.6106  0.1361
 1013MOL0     C36643   6.891   5.275   3.222  0.4866 -0.3866  0.3183
 1013MOL0     O36644   6.964   5.237   3.330 -0.9675  0.4600 -0.5422
 1013MOL0     C36645   7.053   5.319   3.387  0.5772 -0.7541  0.4938
 1013MOL0     C36646   7.155   5.267   3.455  0.1884  0.2976 -0.7531
 1013MOL0     C36647   7.242   5.351   3.520  0.7925  0.2005 -0.7611
 1013MOL0     C36648   7.221   5.489   3.531  0.2878  0.6847  1.0068
 1013MOL0     C36649   7.322   5.575   3.597 -0.2445  0.1993 -0.0152
 1013MOL0     O36650   7.392   5.525   3.709  0.1973 -1.1184 -0.1562
 1013MOL0     C36651   7.491   5.592   3.785 -0.3151  0.3270 -0.3234
 1013MOL0     C36652   7.492   5.732   3.806  0.6217  1.1781 -0.0223
 1013MOL0     C36653   7.570   5.782   3.913 -0.2780  0.4194 -0.5747
 1013MOL0     C36654   7.637   5.697   3.995  0.5631  0.8099  0.0543
 1013MOL0     O36655   7.710   5.738   4.104  0.0195  0.1220  0.4840
 1013MOL0     C36656   7.700   5.874   4.143 -0.8396 -0.2673  0.9440
 1013MOL0     C36657   7.733   5.892   4.290  0.3600 -1.3213  0.6036
 1013MOL0     C36658   7.882   5.933   4.302 -0.7257  0.2685 -0.0951
 1013MOL0     C36659   7.902   6.076   4.260 -0.1321  0.3925  0.2198
 1013MOL0     C36660   8.046   6.113   4.236 -0.6023 -0.2442  0.1643
 1013MOL0     C36661   8.065   6.221   4.128 -0.1526  0.6333 -1.0627
 1013MOL0     C36662   8.201   6.293   4.133  0.1790  0.7311  0.0364
 1013MOL0     C36663   8.216   6.385   4.008  0.0066 -1.0844 -0.3072
 1013MOL0    Cl36664   8.357   6.490   4.042 -0.0361  0.4749 -0.0362
 1013MOL0     C36665   7.643   5.559   3.965 -0.3961 -0.6598  0.1905
 1013MOL0     C36666   7.561   5.516   3.872  0.2251 -0.1767  0.4272
 1013MOL0     O36667   7.342   5.680   3.543 -0.6298  0.0497 -0.1510
 1013MOL0     C36668   7.114   5.546   3.450 -0.3241  0.4317  0.0890
 1013MOL0     C36669   7.032   5.463   3.375 -0.0236  0.2196  0.2019
 1013MOL0     N36670   6.458   5.155   2.872 -0.4392  0.3966  0.4037
 1013MOL0     N36671   6.333   5.177   2.859 -0.8202 -0.1224 -0.1057
 1013MOL0     C36672   5.103   5.043   3.239 -0.1205  0.9203  0.0927
 1013MOL0     C36673   4.982   5.105   3.211 -1.0047  0.6475  0.4428
 1013MOL0     C36674   4.623   5.434   3.269  0.6520  0.0813 -0.4608
 1013MOL0     C36675   4.568   5.414   3.138 -0.7684 -0.2067 -0.3368
 1013MOL0     C36676   4.461   5.488   3.078 -0.1281 -0.0084  0.3360
 1013MOL0     C36677   4.406   5.597   3.155 -0.2951 -0.6803 -0.0582
 1013MOL0     O36678   4.306   5.679   3.111 -0.6911  0.4268 -0.0178
 1013MOL0     C36679   4.204   5.621   3.036  0.3982  0.5727 -0.4669
 1013MOL0     C36680   4.088   5.719   3.029  0.3719  0.1874 -0.4717
 1013MOL0     C36681   3.979   5.662   2.937 -0.7221  0.7911 -0.4630
 1013MOL0     C36682   3.850   5.742   2.970 -0.2514 -0.1553 -0.0504
 1013MOL0     C36683   3.744   5.718   2.870 -0.5585  0.0700  0.6484
 1013MOL0     C36684   3.645   5.720   2.796 -0.1572  0.3030  0.3542
 1013MOL0     C36685   4.480   5.626   3.273 -0.0841 -0.4087  0.0668
 1013MOL0     C36686   4.582   5.555   3.323  0.5129  0.4650  0.1021
 1013MOL0     C36687   4.649   5.624   3.440 -0.7108  0.6664  0.1289
 1013MOL0     H36688   5.010   5.371   3.430  1.9682  0.5637  0.3249
 1013MOL0     H36689   5.235   5.249   3.464  0.5923 -0.4146  0.3157
 1013MOL0     H36690   5.417   5.121   3.491 -0.4257  0.2070  0.4526
 1013MOL0     H36691   5.499   4.993   3.413 -3.2992 -0.6790  0.9183
 1013MOL0     H36692   5.452   5.276   3.355 -1.2855  0.2645 -0.3298
 1013MOL0     H36693   5.427   5.195   3.210 -3.2869  1.2313  2.9399
 1013MOL0     H36694   5.644   5.084   3.195  0.1868 -1.3593  0.7869
 1013MOL0     H36695   5.680   5.112   3.363  1.6044 -0.1481 -0.6600
 1013MOL0     H36696   5.663   5.330   3.153  1.6791  1.7336 -0.1521
 1013MOL0     H36697   5.680   5.354   3.326  1.8132  0.7489  0.3844
 1013MOL0     H36698   5.893   5.384   3.263 -0.8073  0.2672 -2.9323
 1013MOL0     H36699   5.902   5.212   3.319  0.4231  1.5658  2.1386
 1013MOL0     H36700   5.886   5.135   3.082 -0.0039 -0.1178  0.1131
 1013MOL0     H36701   5.889   5.305   3.035  1.0226 -1.2814 -0.7809
 1013MOL0     H36702   6.112   5.184   3.203  0.2880  0.8050 -0.0376
 1013MOL0     H36703   6.121   5.323   3.097 -1.5256  0.2864 -0.1164
 1013MOL0     H36704   6.103   5.035   3.036  1.9774  0.4507  1.1341
 1013MOL0     H36705   6.078   5.138   2.896  0.7397 -2.5702 -0.3730
 1013MOL0     H36706   6.393   5.077   3.163  1.6037 -0.0502 -1.1753
 1013MOL0     H36707   6.632   4.997   3.109 -0.8214 -1.6603 -0.5518
 1013MOL0     H36708   6.678   5.020   2.935 -1.4872 -1.3203 -0.8097
 1013MOL0     H36709   6.776   5.224   2.975 -1.4367 -1.7054 -0.9380
 1013MOL0     H36710   6.653   5.268   3.100  2.9042  1.5406  3.0739
 1013MOL0     H36711   6.892   5.081   3.155  2.4916  2.0840  0.5093
 1013MOL0     H36712   6.762   5.113   3.266  1.7347 -0.7303  1.2927
 1013MOL0     H36713   6.815   5.346   3.257 -1.2259 -1.7150 -0.5481
 1013MOL0     H36714   6.953   5.319   3.143  0.3257 -0.3502  0.2096
 1013MOL0     H36715   7.175   5.160   3.454  0.3808  0.1509 -5.6800
 1013MOL0     H36716   7.329   5.300   3.561  2.2411  2.1504 -1.2417
 1013MOL0     H36717   7.435   5.795   3.738 -0.4745 -3.2541 -3.6740
 1013MOL0     H36718   7.569   5.889   3.935 -3.5486  0.3559  0.1234
 1013MOL0     H36719   7.752   5.944   4.077  2.6121 -1.0143  2.6850
 1013MOL0     H36720   7.595   5.907   4.136 -0.6446  0.4736  1.3887
 1013MOL0     H36721   7.680   5.979   4.329 -0.1677 -1.0125 -0.7471
 1013MOL0     H36722   7.710   5.798   4.342 -0.3000 -2.1248 -1.0691
 1013MOL0     H36723   7.912   5.918   4.407  0.4310 -2.5666 -0.7373
 1013MOL0     H36724   7.942   5.868   4.239 -0.3721  1.1024 -0.6332
 1013MOL0     H36725   7.848   6.134   4.335 -1.1803 -0.5347  0.2061
 1013MOL0     H36726   7.852   6.107   4.168  0.1011  2.1159  0.6333
 1013MOL0     H36727   8.099   6.024   4.201  0.2969 -0.1682  1.2797
 1013MOL0     H36728   8.096   6.140   4.329  2.1648 -0.8261 -1.0726
 1013MOL0     H36729   8.044   6.158   4.041 -0.6013 -2.1728  0.9199
 1013MOL0     H36730   7.991   6.301   4.133 -1.3845 -0.5308 -0.0124
 1013MOL0     H36731   8.282   6.220   4.142  2.0794  2.9503  2.7050
 1013MOL0     H36732   8.192   6.351   4.226 -1.7513 -0.3673  0.5968
 1013MOL0     H36733   8.233   6.335   3.912  1.7305  0.2893 -0.7796
 1013MOL0     H36734   8.127   6.447   3.997 -0.3084 -1.6408 -0.9557
 1013MOL0     H36735   7.708   5.488   4.015 -2.0329 -0.5686  2.6055
 1013MOL0     H36736   7.552   5.411   3.847  0.1144 -0.2263  0.6712
 1013MOL0     H36737   7.098   5.653   3.446 -1.0604  0.2996 -1.4479
 1013MOL0     H36738   6.956   5.509   3.312 -0.5910 -1.2606 -0.2408
 1013MOL0     H36739   5.127   4.956   3.179 -0.0074  0.7673  0.3611
 1013MOL0     H36740   4.903   5.071   3.145 -3.2708  1.9326  2.3217
 1013MOL0     H36741   4.610   5.335   3.077 -0.2480  1.0543 -1.6627
 1013MOL0     H36742   4.427   5.454   2.981  0.5899  0.1074  0.0417
 1013MOL0     H36743   4.172   5.522   3.071  0.3126  0.8733  0.3256
 1013MOL0     H36744   4.243   5.608   2.934  2.3986  1.2491  0.1635
 1013MOL0     H36745   4.121   5.817   2.993  1.0267 -0.1124 -0.6872
 1013MOL0     H36746   4.047   5.730   3.130 -1.7576  0.8473 -1.3407
 1013MOL0     H36747   3.968   5.557   2.964 -1.0211  1.5459  2.7342
 1013MOL0     H36748   4.013   5.666   2.833  3.9716 -0.7554  0.7659
 1013MOL0     H36749   3.820   5.706   3.069  0.6467  1.4788  0.8682
 1013MOL0     H36750   3.865   5.850   2.979  1.4222 -0.4312  1.2025
 1013MOL0     H36751   3.572   5.705   2.719  1.4530 -3.9135 -0.6694
 1013MOL0     H36752   4.446   5.706   3.338  2.1076 -0.4907  1.4241
 1013MOL0     H36753   4.665   5.730   3.417  4.6342  0.5072  1.8499
 1013MOL0     H36754   4.593   5.624   3.534 -0.5588  5.7244  0.4777
 1013MOL0     H36755   4.752   5.593   3.459 -0.7558  0.3382 -0.1498
 1014MOL0     O36756   8.442   9.504   0.503  0.2189 -0.7078  0.5166
 1014MOL0     C36757   8.476   9.396   0.540 -0.3326 -0.5002  0.2088
 1014MOL0     O36758   8.599   9.363   0.593  0.5730  0.0830  0.1502
 1014MOL0     C36759   8.706   9.442   0.554 -0.2659  0.2660 -0.8116
 1014MOL0     C36760   8.743   9.552   0.628 -0.2778 -0.6982 -0.2731
 1014MOL0     C36761   8.850   9.634   0.579  0.2344 -0.0665 -0.3916
 1014MOL0     C36762   8.903   9.612   0.453  0.0733 -0.5796 -0.6016
 1014MOL0     O36763   8.991   9.695   0.384 -0.5109 -0.9121 -0.1364
 1014MOL0     C36764   9.077   9.783   0.464  0.4735 -0.2638  0.9022
 1014MOL0     C36765   9.195   9.819   0.376  0.8948 -0.9808 -0.3147
 1014MOL0     C36766   9.311   9.715   0.343  0.1348  0.5443 -0.9704
 1014MOL0     C36767   9.455   9.777   0.358  0.5899 -0.4135 -0.7733
 1014MOL0     C36768   9.490   9.882   0.253 -0.1645 -0.2564 -0.3078
 1014MOL0     C36769   9.619   9.949   0.293 -0.0718  0.3194  0.6121
 1014MOL0     C36770   9.680  10.052   0.193 -0.2166 -0.0914  0.2612
 1014MOL0     C36771   9.746   9.995   0.074 -0.4008 -0.3492 -0.1479
 1014MOL0     N36772   9.823  10.100   0.000 -0.0592 -0.0281  0.4583
 1014MOL0     C36773   9.958  10.122  -0.001 -1.0823 -0.1769 -0.8358
 1014MOL0     C36774   9.970  10.248  -0.046  0.3141  1.0691  1.0021
 1014MOL0     C36775  10.089  10.334  -0.060 -0.5210  0.3104  0.7383
 1014MOL0     C36776  10.148  10.301  -0.199 -0.1717  0.1463 -0.0462
 1014MOL0     C36777  10.228  10.160  -0.193  0.5539 -0.4993 -1.0652
 1014MOL0     C36778  10.267  10.123  -0.330  0.1656 -0.2239  0.1878
 1014MOL0     O36779  10.372  10.021  -0.312  0.0354 -0.2129  0.9545
 1014MOL0     C36780  10.428   9.962  -0.424  0.2614 -0.6966 -0.8389
 1014MOL0     C36781  10.420  10.030  -0.550  0.4970  0.1974 -0.1414
 1014MOL0     C36782  10.466   9.960  -0.667 -0.0226  0.1662 -0.0451
 1014MOL0     C36783  10.546   9.845  -0.653 -0.0673  0.1592 -0.9942
 1014MOL0     C36784  10.612   9.782  -0.767 -0.4742 -0.6151 -0.1008
 1014MOL0     O36785  10.702   9.690  -0.732 -0.1327 -0.5834  0.0167
 1014MOL0     C36786  10.782   9.631  -0.829  0.4883 -0.0281  0.7503
 1014MOL0     C36787  10.903   9.679  -0.888  0.2569  1.1251 -0.1486
 1014MOL0     C36788  10.984   9.589  -0.958 -0.6677 -0.4154  0.6463
 1014MOL0     C36789  10.955   9.458  -0.981  0.2431  0.4499  0.5086
 1014MOL0     O36790  11.028   9.365  -1.049  0.0328  0.0753  0.0823
 1014MOL0     C36791  11.145   9.407  -1.116 -0.0749  0.5398  0.7107
 1014MOL0     C36792  11.247   9.310  -1.180  0.1721 -0.2542 -0.0567
 1014MOL0     C36793  11.175   9.216  -1.276  0.0488  0.0511  0.3181
 1014MOL0     C36794  11.247   9.092  -1.322 -0.7061 -0.2492 -0.4327
 1014MOL0     C36795  11.376   9.132  -1.392  0.1912 -0.1920 -0.1691
 1014MOL0     C36796  11.339   9.185  -1.536  0.1359  0.7640  0.0173
 1014MOL0     C36797  11.471   9.227  -1.620  0.7235  0.3578 -0.5171
 1014MOL0     C36798  11.430   9.333  -1.728 -0.1112  0.4618 -0.1256
 1014MOL0    Cl36799  11.572   9.363  -1.823 -0.2485  0.2772 -0.2026
 1014MOL0     C36800  10.823   9.420  -0.950  0.2176 -0.5197 -0.0790
 1014MOL0     C36801  10.742   9.501  -0.867 -1.1449 -0.8274  0.7728
 1014MOL0     O36802  10.590   9.830  -0.874  0.3911  0.2019  0.1054
 1014MOL0     C36803  10.583   9.796  -0.522  0.3018 -0.0597  0.1899
 1014MOL0     C36804  10.521   9.858  -0.411 -0.0305 -0.0169 -0.2806
 1014MOL0     N36805   9.846  10.306  -0.071 -0.0203 -0.1177  0.3770
 1014MOL0     N36806   9.756  10.214  -0.043  0.7926  0.2362  0.4661
 1014MOL0     C36807   8.874   9.499   0.390  0.1540 -0.6891  0.6586
 1014MOL0     C36808   8.769   9.419   0.433 -0.1707  1.0879 -0.5896
 1014MOL0     C36809   8.372   9.289   0.556 -0.1395 -0.5316  0.1393
 1014MOL0     C36810   8.411   9.157   0.536  0.8715  0.3473 -0.1983
 1014MOL0     C36811   8.304   9.058   0.551 -0.0843 -0.0139  0.6622
 1014MOL0     C36812   8.185   9.083   0.608  0.4493  0.0636 -0.2197
 1014MOL0     O36813   8.080   8.997   0.611  0.0556  0.0350 -0.2195
 1014MOL0     C36814   8.100   8.852   0.647 -0.0061 -0.5298  0.5901
 1014MOL0     C36815   8.159   8.836   0.788  0.3740  0.6341  0.2356
 1014MOL0     C36816   8.202   8.686   0.814 -0.7809 -0.1114 -0.6040
 1014MOL0     C36817   8.073   8.602   0.843  0.2047 -1.1121  0.2498
 1014MOL0     C36818   8.103   8.467   0.868  0.1421 -0.2233 -0.3397
 1014MOL0     C36819   8.134   8.355   0.893 -0.1693  0.7179  1.0446
 1014MOL0     C36820   8.166   9.213   0.649  1.0731  0.1548 -0.4757
 1014MOL0     C36821   8.246   9.323   0.611 -0.3146 -0.8479  0.8627
 1014MOL0     C36822   8.212   9.455   0.658  0.4828 -0.7057 -0.0775
 1014MOL0     H36823   8.700   9.581   0.723  1.2301 -0.1980  0.2913
 1014MOL0     H36824   8.899   9.709   0.641  0.6667 -2.7166  2.7124
 1014MOL0     H36825   9.027   9.877   0.488 -0.1186  0.2876 -2.0668
 1014MOL0     H36826   9.105   9.733   0.557  0.9583  1.1501  1.5418
 1014MOL0     H36827   9.241   9.906   0.423  0.2021 -0.5735 -0.3838
 1014MOL0     H36828   9.150   9.856   0.283 -2.0399  0.1176  1.4153
 1014MOL0     H36829   9.294   9.666   0.246 -0.3390  0.4984 -0.8661
 1014MOL0     H36830   9.310   9.629   0.411 -0.2738 -1.1796 -3.0447
 1014MOL0     H36831   9.466   9.813   0.461 -0.4960  1.1148 -1.1672
 1014MOL0     H36832   9.527   9.696   0.338 -0.2337 -1.5373  0.6275
 1014MOL0     H36833   9.496   9.851   0.148  3.0092  0.2145 -0.3634
 1014MOL0     H36834   9.411   9.956   0.242  0.4498  0.3020 -1.0177
 1014MOL0     H36835   9.580  10.000   0.381 -1.9636  2.4854 -1.3202
 1014MOL0     H36836   9.696   9.880   0.328  1.6026  2.0904  0.5995
 1014MOL0     H36837   9.736  10.128   0.248  1.7672 -1.4272  0.1995
 1014MOL0     H36838   9.597  10.111   0.155 -0.2930  0.2685  0.9747
 1014MOL0     H36839   9.820   9.922   0.107 -0.6954  1.1992  4.7144
 1014MOL0     H36840   9.663   9.945   0.022 -1.4229 -1.2852  2.2559
 1014MOL0     H36841  10.044  10.066   0.035 -2.1076 -1.0256  0.3754
 1014MOL0     H36842  10.060  10.440  -0.061  0.6032  0.6777 -2.0109
 1014MOL0     H36843  10.165  10.323   0.017  0.7924 -1.5476 -0.7238
 1014MOL0     H36844  10.060  10.289  -0.264 -2.5925 -0.3840  3.0908
 1014MOL0     H36845  10.216  10.379  -0.234  0.2706 -1.1775 -2.3627
 1014MOL0     H36846  10.162  10.083  -0.152  1.1867  0.9997  3.3031
 1014MOL0     H36847  10.312  10.164  -0.122 -0.0766  2.8583 -0.3467
 1014MOL0     H36848  10.314  10.209  -0.379 -0.3483  0.2739  0.5578
 1014MOL0     H36849  10.180  10.078  -0.378  1.5554 -3.2569  0.2633
 1014MOL0     H36850  10.375  10.128  -0.556  0.1667  0.2875  2.3623
 1014MOL0     H36851  10.450   9.997  -0.767 -0.0073 -2.3927 -1.0821
 1014MOL0     H36852  10.943   9.774  -0.853  0.5705  0.8847  0.1586
 1014MOL0     H36853  11.082   9.625  -0.989  0.3954 -2.8236  0.9101
 1014MOL0     H36854  11.107   9.478  -1.191 -0.1463 -1.1800 -0.9418
 1014MOL0     H36855  11.204   9.478  -1.057  0.0133 -0.8745  2.3689
 1014MOL0     H36856  11.331   9.358  -1.231  1.2905  1.1300  2.8544
 1014MOL0     H36857  11.285   9.265  -1.089 -0.0050  4.5158  2.7129
 1014MOL0     H36858  11.091   9.175  -1.219 -0.4830  1.1567  0.3575
 1014MOL0     H36859  11.127   9.264  -1.362 -0.1795  0.6388  0.7686
 1014MOL0     H36860  11.188   9.028  -1.387 -0.3734  0.2765 -1.2605
 1014MOL0     H36861  11.266   9.040  -1.227 -2.3682  0.8700  0.5528
 1014MOL0     H36862  11.436   9.047  -1.423 -2.9144 -1.7412 -2.4221
 1014MOL0     H36863  11.439   9.201  -1.334 -2.1941  1.5156  0.5609
 1014MOL0     H36864  11.281   9.104  -1.581 -1.1485  0.4039  2.1832
 1014MOL0     H36865  11.267   9.267  -1.535  0.9423  1.5463 -1.6889
 1014MOL0     H36866  11.507   9.139  -1.674  0.2334  0.0982 -0.4268
 1014MOL0     H36867  11.547   9.259  -1.549 -1.2126 -0.0383  1.8808
 1014MOL0     H36868  11.346   9.303  -1.792 -0.5210  4.7078 -1.8909
 1014MOL0     H36869  11.391   9.427  -1.687  0.7836  1.9940 -2.5461
 1014MOL0     H36870  10.779   9.324  -0.980 -1.6024  0.4565 -0.7144
 1014MOL0     H36871  10.646   9.463  -0.835 -3.3488  1.4165 -2.6196
 1014MOL0     H36872  10.642   9.705  -0.525  0.5542  0.0922 -3.5123
 1014MOL0     H36873  10.532   9.814  -0.312 -1.6276  2.9580  1.3413
 1014MOL0     H36874   8.933   9.480   0.302  0.0753  0.5249  0.3308
 1014MOL0     H36875   8.748   9.325   0.382  0.7103  0.0140  0.9246
 1014MOL0     H36876   8.515   9.144   0.510  1.0701 -0.1990  0.8054
 1014MOL0     H36877   8.327   8.963   0.505 -3.0505  0.5468 -2.3006
 1014MOL0     H36878   8.174   8.813   0.576  0.9099  0.7301  0.8021
 1014MOL0     H36879   8.005   8.799   0.645  0.5725 -1.6522  1.4403
 1014MOL0     H36880   8.094   8.862   0.872  1.9914  1.4236  1.2959
 1014MOL0     H36881   8.252   8.894   0.798  0.5505  0.9173 -2.4384
 1014MOL0     H36882   8.273   8.684   0.897 -1.5079  0.7386  0.0730
 1014MOL0     H36883   8.254   8.647   0.727  0.1934  0.1758 -0.1579
 1014MOL0     H36884   8.017   8.644   0.927  1.8738  3.4506 -0.5702
 1014MOL0     H36885   8.004   8.612   0.758  0.4767  0.5339  0.1715
 1014MOL0     H36886   8.165   8.257   0.921  0.8138  0.0898 -1.8248
 1014MOL0     H36887   8.076   9.236   0.705 -0.1898 -1.4429 -1.7556
 1014MOL0     H36888   8.175   9.530   0.588 -4.2969  0.0542  2.7972
 1014MOL0     H36889   8.132   9.457   0.733  0.3559  2.2607 -0.1725
 1014MOL0     H36890   8.292   9.499   0.719  0.3750 -1.4969  0.6661
 1015MOL0     O36891  11.105  11.194   8.367  0.5300 -0.3632 -0.1407
 1015MOL0     C36892  11.205  11.233   8.440  0.3811 -0.7766  0.6780
 1015MOL0     O36893  11.334  11.246   8.395 -0.1030 -0.3274  0.4075
 1015MOL0     C36894  11.362  11.170   8.289 -0.3321  0.3002  0.0269
 1015MOL0     C36895  11.383  11.033   8.307 -0.8603 -0.2039  0.4880
 1015MOL0     C36896  11.440  10.962   8.192  0.8275 -0.6459  0.0633
 1015MOL0     C36897  11.462  11.024   8.069 -0.5255  0.3180  0.0496
 1015MOL0     O36898  11.527  10.951   7.967  0.6836  0.6594 -0.1474
 1015MOL0     C36899  11.590  11.011   7.852 -0.0663  0.3924  0.0610
 1015MOL0     C36900  11.740  10.990   7.857 -0.4069  0.0419 -0.3431
 1015MOL0     C36901  11.799  11.058   7.729  0.4024 -0.2015  1.2820
 1015MOL0     C36902  11.954  11.039   7.706 -0.0515  0.7308 -0.3074
 1015MOL0     C36903  11.998  11.100   7.569  0.2523  0.0680 -0.0722
 1015MOL0     C36904  11.972  11.009   7.450 -0.0933 -0.4878 -0.6422
 1015MOL0     C36905  12.029  11.068   7.316  0.1630 -0.4071 -0.2482
 1015MOL0     C36906  12.181  11.085   7.308 -1.3526 -0.2988  0.3734
 1015MOL0     N36907  12.243  10.948   7.304 -0.8313  0.9923 -0.1892
 1015MOL0     C36908  12.229  10.869   7.194  0.0734 -0.2284  0.1717
 1015MOL0     C36909  12.297  10.761   7.225  0.5066  0.0501  0.2791
 1015MOL0     C36910  12.325  10.643   7.137  0.9990  0.7969  0.0772
 1015MOL0     C36911  12.454  10.661   7.049  0.5016 -0.2166 -0.3661
 1015MOL0     C36912  12.575  10.703   7.125  0.3379  0.6845  0.5136
 1015MOL0     C36913  12.610  10.592   7.229 -0.2125 -0.4082  0.6946
 1015MOL0     O36914  12.665  10.464   7.174  0.0410  0.0272 -0.6247
 1015MOL0     C36915  12.708  10.374   7.264 -0.2143 -0.9689 -1.1479
 1015MOL0     C36916  12.679  10.372   7.408 -0.1324 -0.1755 -0.4120
 1015MOL0     C36917  12.739  10.283   7.492 -0.3301  0.2268  0.4014
 1015MOL0     C36918  12.815  10.181   7.436 -0.6001 -0.0642 -0.2289
 1015MOL0     C36919  12.876  10.074   7.528  0.1266 -0.1978  0.4512
 1015MOL0     O36920  12.912   9.963   7.461 -1.1538 -0.3677 -0.1992
 1015MOL0     C36921  13.007   9.897   7.520 -1.1867  0.1195  0.1544
 1015MOL0     C36922  13.136   9.893   7.467 -0.2186 -0.1982  0.2862
 1015MOL0     C36923  13.229   9.808   7.521 -0.2723 -0.8282 -0.1989
 1015MOL0     C36924  13.200   9.720   7.620 -0.3641  0.2101 -0.6778
 1015MOL0     O36925  13.288   9.624   7.675  0.2780 -0.1207  0.2339
 1015MOL0     C36926  13.418   9.603   7.617 -0.1780 -0.7031 -0.6078
 1015MOL0     C36927  13.498   9.523   7.723 -0.5508 -0.0859 -0.4086
 1015MOL0     C36928  13.630   9.473   7.659  0.1156  0.1636 -0.4185
 1015MOL0     C36929  13.718   9.388   7.756 -0.0013  0.4658 -0.2044
 1015MOL0     C36930  13.689   9.231   7.773 -0.3834 -0.6571  0.5684
 1015MOL0     C36931  13.808   9.168   7.848 -0.1324  0.1120 -0.7055
 1015MOL0     C36932  13.768   9.012   7.869 -0.6733 -0.2899  0.1390
 1015MOL0     C36933  13.782   8.974   8.011  0.3159  0.4825 -0.7642
 1015MOL0    Cl36934  13.953   8.955   8.061 -0.3498  0.1880  0.1405
 1015MOL0     C36935  13.074   9.724   7.667  0.0561  0.7365  0.0833
 1015MOL0     C36936  12.971   9.810   7.628 -0.6695 -0.3093  0.4747
 1015MOL0     O36937  12.877  10.092   7.650  0.0647  0.1972 -0.4467
 1015MOL0     C36938  12.840  10.178   7.300 -0.2918  0.6598  0.3092
 1015MOL0     C36939  12.778  10.268   7.213  0.5260 -0.6331 -1.0852
 1015MOL0     N36940  12.341  10.762   7.352  0.0658  1.2181 -1.3693
 1015MOL0     N36941  12.305  10.878   7.403  0.5089  0.6380 -0.6708
 1015MOL0     C36942  11.430  11.156   8.060  0.0135  0.1246 -0.3603
 1015MOL0     C36943  11.378  11.232   8.169  0.0855  0.8428  0.5240
 1015MOL0     C36944  11.161  11.305   8.572  0.3285  0.3671 -0.1674
 1015MOL0     C36945  11.257  11.394   8.616  0.1352 -0.5689  0.0436
 1015MOL0     C36946  11.223  11.487   8.723  0.1577 -0.2135  0.1000
 1015MOL0     C36947  11.101  11.473   8.791  0.2438 -0.4649 -0.2258
 1015MOL0     O36948  11.063  11.567   8.889 -0.2918  0.1025 -0.1287
 1015MOL0     C36949  10.947  11.563   8.975  0.5048 -0.3833  0.6833
 1015MOL0     C36950  10.971  11.462   9.091 -0.5813  0.5524 -0.2797
 1015MOL0     C36951  10.867  11.483   9.203  1.0644  0.2517  0.3001
 1015MOL0     C36952  10.735  11.422   9.164 -0.1918 -0.8013  0.0995
 1015MOL0     C36953  10.648  11.413   9.282 -1.3314  0.0102  0.2125
 1015MOL0     C36954  10.586  11.396   9.385 -0.2621  0.4499  0.0527
 1015MOL0     C36955  11.013  11.371   8.764  0.7779  0.3097  0.1433
 1015MOL0     C36956  11.042  11.292   8.651 -0.3271  0.3413 -0.3299
 1015MOL0     C36957  10.951  11.179   8.622  0.6712 -0.0362 -0.2683
 1015MOL0     H36958  11.364  10.983   8.401  0.4624 -1.3433  0.1883
 1015MOL0     H36959  11.470  10.860   8.209 -3.5708 -2.1310  0.1631
 1015MOL0     H36960  11.547  10.964   7.764  0.6947  1.7681 -1.0896
 1015MOL0     H36961  11.563  11.115   7.830 -0.6569 -0.3375 -3.1126
 1015MOL0     H36962  11.768  10.886   7.874 -0.9519 -0.1552 -0.6304
 1015MOL0     H36963  11.786  11.045   7.939  1.6445 -0.0151 -1.3734
 1015MOL0     H36964  11.779  11.165   7.737  0.4351 -0.2900  2.8886
 1015MOL0     H36965  11.754  11.015   7.639  0.8896  0.9713  0.4580
 1015MOL0     H36966  12.001  11.095   7.787 -0.8395 -3.3794  3.3604
 1015MOL0     H36967  11.979  10.933   7.708 -1.6251  0.3223  1.1959
 1015MOL0     H36968  11.949  11.195   7.543  2.3318  0.6491 -2.1887
 1015MOL0     H36969  12.106  11.103   7.586  0.4632  0.6782 -1.4016
 1015MOL0     H36970  12.016  10.910   7.468  1.1637  0.3569  1.1823
 1015MOL0     H36971  11.865  10.993   7.439 -1.2574  3.1937  2.8047
 1015MOL0     H36972  11.986  11.167   7.299 -0.7725 -1.0933 -2.2254
 1015MOL0     H36973  11.991  11.011   7.230 -1.8764 -1.6983  1.4033
 1015MOL0     H36974  12.217  11.150   7.228  0.0980 -0.0376  1.2136
 1015MOL0     H36975  12.213  11.134   7.401 -1.5384 -2.4333  1.6404
 1015MOL0     H36976  12.183  10.886   7.097  0.4996 -0.2970 -0.0463
 1015MOL0     H36977  12.340  10.545   7.183 -1.1042 -0.7930 -2.3085
 1015MOL0     H36978  12.239  10.627   7.070  0.6912  1.2948  0.3509
 1015MOL0     H36979  12.458  10.581   6.975 -3.8922  1.9134 -3.4326
 1015MOL0     H36980  12.433  10.746   6.983  1.6100  1.0721  0.8893
 1015MOL0     H36981  12.563  10.803   7.168 -1.4093  0.9665 -0.5595
 1015MOL0     H36982  12.658  10.708   7.054  2.8520  0.1350  3.2137
 1015MOL0     H36983  12.528  10.562   7.296 -2.0020 -2.8843 -2.2792
 1015MOL0     H36984  12.688  10.636   7.291  0.8963  0.6460 -1.3561
 1015MOL0     H36985  12.627  10.455   7.455  0.5079 -1.5201  2.9994
 1015MOL0     H36986  12.726  10.280   7.599  1.1866  0.1626  0.6124
 1015MOL0     H36987  13.154   9.943   7.372  2.7310  3.3023  2.4001
 1015MOL0     H36988  13.328   9.799   7.476 -0.3004 -2.0778 -0.0507
 1015MOL0     H36989  13.401   9.549   7.523 -0.7277 -0.4530 -0.6562
 1015MOL0     H36990  13.478   9.690   7.592 -1.9838  0.0557 -2.5627
 1015MOL0     H36991  13.519   9.587   7.809  1.0498 -1.8691  0.5895
 1015MOL0     H36992  13.434   9.443   7.762 -0.8450  0.5148  0.3670
 1015MOL0     H36993  13.621   9.413   7.567  3.5867  0.4858 -1.1015
 1015MOL0     H36994  13.690   9.563   7.642  1.7164 -0.9835 -1.0899
 1015MOL0     H36995  13.724   9.436   7.854  1.9456 -1.8105  0.8961
 1015MOL0     H36996  13.820   9.397   7.717 -0.6518 -4.7109 -4.2439
 1015MOL0     H36997  13.669   9.186   7.676 -1.9310  2.4308 -0.6739
 1015MOL0     H36998  13.596   9.220   7.829 -0.8616  3.9981  1.0501
 1015MOL0     H36999  13.895   9.195   7.788  0.7460  1.4563  1.0936
 1015MOL0     H37000  13.827   9.217   7.944  1.8168  0.1106 -1.0471
 1015MOL0     H37001  13.819   8.939   7.806 -1.4826 -1.3035  0.6253
 1015MOL0     H37002  13.663   8.994   7.843 -0.2841 -3.0659  0.1700
 1015MOL0     H37003  13.729   9.049   8.070  0.5600 -0.7687  1.1534
 1015MOL0     H37004  13.739   8.874   8.019 -2.1213  1.4741 -0.7889
 1015MOL0     H37005  13.049   9.647   7.741  2.4621 -0.9612 -0.7431
 1015MOL0     H37006  12.878   9.825   7.680  0.2828 -1.2315  2.5515
 1015MOL0     H37007  12.902  10.095   7.268 -2.1133  0.2555 -2.5081
 1015MOL0     H37008  12.798  10.269   7.106 -0.1645 -1.7666 -1.2396
 1015MOL0     H37009  11.434  11.205   7.963 -1.4144 -1.0318 -1.0552
 1015MOL0     H37010  11.353  11.336   8.153 -0.7438  0.5233 -0.3757
 1015MOL0     H37011  11.358  11.404   8.578 -0.2380 -0.5096 -0.9550
 1015MOL0     H37012  11.282  11.572   8.755 -0.8576  1.3705 -1.9582
 1015MOL0     H37013  10.863  11.546   8.908  1.8127 -1.2687 -0.8025
 1015MOL0     H37014  10.933  11.664   9.015  1.1952  0.8776 -2.0057
 1015MOL0     H37015  11.069  11.489   9.131  2.7912 -5.4958 -2.9783
 1015MOL0     H37016  10.989  11.360   9.053 -2.6409 -0.5603  1.4889
 1015MOL0     H37017  10.848  11.590   9.215  0.6350 -0.0251  2.5122
 1015MOL0     H37018  10.913  11.444   9.295  0.1771 -1.8052 -0.0817
 1015MOL0     H37019  10.683  11.490   9.096  2.2171 -0.1566 -1.2152
 1015MOL0     H37020  10.758  11.322   9.126  2.4746 -1.4896  3.0103
 1015MOL0     H37021  10.514  11.355   9.452 -0.6708 -0.8289 -1.1091
 1015MOL0     H37022  10.933  11.341   8.831  0.7592  1.6787  0.7657
 1015MOL0     H37023  10.906  11.205   8.526  1.8408 -0.5461 -0.9829
 1015MOL0     H37024  11.012  11.089   8.616  2.7621  1.2528  0.5322
 1015MOL0     H37025  10.872  11.173   8.697  0.5183  1.3937 -0.2834
 1016MOL0     O37026   0.518   4.617   7.859 -0.5815 -0.4090  0.1128
 1016MOL0     C37027   0.418   4.567   7.901 -0.1380  0.8058 -0.1966
 1016MOL0     O37028   0.408   4.512   8.030 -0.6350  0.3068  0.0787
 1016MOL0     C37029   0.523   4.521   8.106 -0.8541 -0.2197 -0.1815
 1016MOL0     C37030   0.602   4.635   8.136  0.4983  1.2391 -0.7262
 1016MOL0     C37031   0.710   4.628   8.218 -0.4005 -1.4376 -0.1595
 1016MOL0     C37032   0.751   4.512   8.274 -1.1768  0.4696  1.0275
 1016MOL0     O37033   0.847   4.509   8.369 -0.7351 -0.1188 -0.2871
 1016MOL0     C37034   0.964   4.424   8.363  0.5018  0.3959 -0.0297
 1016MOL0     C37035   1.079   4.480   8.445 -0.3404  0.4124  0.3783
 1016MOL0     C37036   1.183   4.557   8.361 -0.3551  0.1811  0.7275
 1016MOL0     C37037   1.316   4.604   8.429  0.3593 -0.3690 -0.3065
 1016MOL0     C37038   1.420   4.493   8.456 -0.3196  0.3748 -0.7011
 1016MOL0     C37039   1.493   4.464   8.314 -0.5134 -0.3782 -0.2511
 1016MOL0     C37040   1.568   4.336   8.299  0.0243 -0.0825  0.0448
 1016MOL0     C37041   1.662   4.307   8.416 -0.9232 -0.0840 -0.2941
 1016MOL0     N37042   1.741   4.421   8.457 -0.5885  0.4609 -0.5489
 1016MOL0     C37043   1.856   4.446   8.386 -0.7863 -0.7772 -1.3749
 1016MOL0     C37044   1.950   4.484   8.481  0.3815  0.6563 -0.2938
 1016MOL0     C37045   2.101   4.493   8.467 -0.2489 -0.1308 -0.3327
 1016MOL0     C37046   2.166   4.588   8.572  0.2370 -0.4043 -0.6020
 1016MOL0     C37047   2.318   4.569   8.544 -0.1784 -0.0719 -0.1430
 1016MOL0     C37048   2.401   4.693   8.583  0.3051  0.0029 -0.3012
 1016MOL0     O37049   2.541   4.653   8.600 -0.1927 -0.3780  0.7716
 1016MOL0     C37050   2.624   4.751   8.648 -1.2334  0.2460  0.3285
 1016MOL0     C37051   2.757   4.705   8.675  0.2252  0.8926 -0.6697
 1016MOL0     C37052   2.855   4.782   8.730  0.2180 -0.5186  0.4636
 1016MOL0     C37053   2.828   4.915   8.765  0.2969 -0.1041  0.1270
 1016MOL0     C37054   2.928   5.000   8.826  0.6453  0.0601  1.2941
 1016MOL0     O37055   3.033   4.942   8.900  0.2306 -0.1576 -0.1722
 1016MOL0     C37056   3.128   5.016   8.969  0.1295  0.7791  0.4740
 1016MOL0     C37057   3.231   4.935   9.032 -0.0395  0.7003  0.5664
 1016MOL0     C37058   3.335   4.998   9.112 -0.0611 -0.2109  0.0550
 1016MOL0     C37059   3.345   5.135   9.111  0.3974 -0.6994 -0.3166
 1016MOL0     O37060   3.454   5.188   9.170 -0.1019  0.3465  0.2683
 1016MOL0     C37061   3.489   5.326   9.135  0.3495  0.3575  0.1371
 1016MOL0     C37062   3.629   5.356   9.169 -0.1817 -0.3497 -0.1227
 1016MOL0     C37063   3.659   5.502   9.134  0.0250  0.0444  0.1429
 1016MOL0     C37064   3.812   5.529   9.169  0.1678 -0.4268  0.5377
 1016MOL0     C37065   3.848   5.669   9.122 -0.9884 -0.4997  0.5930
 1016MOL0     C37066   3.995   5.690   9.140 -0.2299 -0.3298  0.4634
 1016MOL0     C37067   4.043   5.690   9.288 -0.1997  0.6925  0.2068
 1016MOL0     C37068   4.196   5.706   9.304  0.7162 -0.1815 -0.9288
 1016MOL0    Cl37069   4.223   5.711   9.478  0.5152  0.0321 -0.1698
 1016MOL0     C37070   3.241   5.208   9.058  0.1616  0.8847  0.0366
 1016MOL0     C37071   3.135   5.154   8.984 -0.0187 -0.1216 -0.4087
 1016MOL0     O37072   2.923   5.118   8.806  0.9796  0.2540 -0.2610
 1016MOL0     C37073   2.693   4.954   8.749 -0.2720  0.4010  0.4100
 1016MOL0     C37074   2.596   4.871   8.693  0.4890 -0.1504 -0.9443
 1016MOL0     N37075   1.884   4.493   8.602 -0.4229 -0.5347  0.2512
 1016MOL0     N37076   1.761   4.465   8.588 -0.3886 -0.1464 -0.0101
 1016MOL0     C37077   0.688   4.392   8.224  0.4295 -0.2679 -0.4560
 1016MOL0     C37078   0.573   4.396   8.148  0.0988  1.4118 -0.0715
 1016MOL0     C37079   0.299   4.560   7.817  0.0734 -0.2667 -0.1488
 1016MOL0     C37080   0.194   4.480   7.866  0.2712  0.3915 -0.1052
 1016MOL0     C37081   0.072   4.475   7.802 -0.4433 -0.4522 -0.9498
 1016MOL0     C37082   0.040   4.561   7.690  0.5291 -0.1503  0.3361
 1016MOL0     O37083  -0.084   4.566   7.629 -0.7493  0.2429 -0.1322
 1016MOL0     C37084  -0.193   4.486   7.677 -0.9129 -0.1492  0.5916
 1016MOL0     C37085  -0.313   4.481   7.583  0.0737 -0.1897 -0.6551
 1016MOL0     C37086  -0.442   4.451   7.665  0.3404  0.4477  0.3550
 1016MOL0     C37087  -0.565   4.408   7.584 -0.2288 -0.1339 -0.5583
 1016MOL0     C37088  -0.621   4.526   7.507 -0.0804 -0.7922  0.2018
 1016MOL0     C37089  -0.679   4.615   7.446  0.0220 -0.5133  0.1631
 1016MOL0     C37090   0.143   4.629   7.636 -0.4746 -0.0842  0.4955
 1016MOL0     C37091   0.271   4.633   7.696  0.0702 -0.7301  0.1070
 1016MOL0     C37092   0.381   4.728   7.630  0.6735 -0.9411 -0.1246
 1016MOL0     H37093   0.550   4.720   8.092 -1.1451 -0.8402 -3.1160
 1016MOL0     H37094   0.763   4.717   8.251 -0.4130 -2.3767  2.6613
 1016MOL0     H37095   0.927   4.327   8.399  0.8177  0.3621  0.2030
 1016MOL0     H37096   1.002   4.423   8.260 -0.8240  2.9772 -0.6414
 1016MOL0     H37097   1.130   4.408   8.510 -0.1798  0.6031  0.4663
 1016MOL0     H37098   1.039   4.553   8.517  2.5523 -1.0935  3.8067
 1016MOL0     H37099   1.135   4.641   8.310 -0.8180 -0.9458 -0.7584
 1016MOL0     H37100   1.210   4.487   8.282 -0.0782 -0.4914  1.4071
 1016MOL0     H37101   1.367   4.688   8.381  0.7646 -0.7184 -0.4918
 1016MOL0     H37102   1.294   4.633   8.532  2.1769 -2.6758  0.8154
 1016MOL0     H37103   1.494   4.530   8.527 -0.3025 -2.5945  1.0057
 1016MOL0     H37104   1.368   4.400   8.482 -1.7978 -0.9860 -6.7661
 1016MOL0     H37105   1.425   4.468   8.228  1.7438 -2.3058 -2.2726
 1016MOL0     H37106   1.556   4.552   8.300 -0.6045 -0.2573  0.0782
 1016MOL0     H37107   1.628   4.330   8.208  0.7637 -0.1944  0.5271
 1016MOL0     H37108   1.500   4.251   8.285  0.3923 -0.6985  1.7571
 1016MOL0     H37109   1.606   4.283   8.508  2.3830 -1.3243  1.5644
 1016MOL0     H37110   1.718   4.213   8.413 -0.9829 -0.1063 -0.6750
 1016MOL0     H37111   1.876   4.433   8.281  1.5130  0.5165 -1.1495
 1016MOL0     H37112   2.143   4.391   8.472  0.3884 -0.0484 -2.8391
 1016MOL0     H37113   2.128   4.538   8.371  3.3194 -1.0209  0.0832
 1016MOL0     H37114   2.145   4.694   8.556  2.8644  0.3230  0.3994
 1016MOL0     H37115   2.132   4.559   8.672 -0.4334 -2.8507 -1.4539
 1016MOL0     H37116   2.334   4.541   8.440  0.2372  0.2583 -0.1728
 1016MOL0     H37117   2.351   4.487   8.609  0.5445  0.9112  0.7919
 1016MOL0     H37118   2.355   4.740   8.670  2.8454 -0.6423  1.4838
 1016MOL0     H37119   2.388   4.767   8.504 -0.4312  0.0276 -0.1685
 1016MOL0     H37120   2.773   4.599   8.657 -3.0634  0.3818 -1.2510
 1016MOL0     H37121   2.953   4.741   8.750 -0.0438 -0.9648  0.8382
 1016MOL0     H37122   3.227   4.827   9.021  0.0654  0.9241 -2.7637
 1016MOL0     H37123   3.416   4.935   9.147 -0.9200  1.1694  5.3058
 1016MOL0     H37124   3.469   5.348   9.030 -0.0183  0.6730  0.2684
 1016MOL0     H37125   3.417   5.392   9.185  1.0568  2.1163 -1.0863
 1016MOL0     H37126   3.646   5.347   9.277  0.5607  4.6282  0.4401
 1016MOL0     H37127   3.697   5.284   9.123  1.7034 -0.0866  2.0776
 1016MOL0     H37128   3.633   5.535   9.033 -1.1472 -1.8208 -0.2048
 1016MOL0     H37129   3.604   5.565   9.205 -0.4862 -0.3970  0.1412
 1016MOL0     H37130   3.865   5.448   9.120 -0.6256 -0.5505 -0.1466
 1016MOL0     H37131   3.830   5.518   9.277 -0.7875 -1.3549  0.6242
 1016MOL0     H37132   3.780   5.747   9.158 -1.6560  0.1081 -1.8335
 1016MOL0     H37133   3.824   5.680   9.016 -1.4725  4.2407  0.9849
 1016MOL0     H37134   4.046   5.615   9.078  2.8093  1.0043  1.1785
 1016MOL0     H37135   4.024   5.791   9.109  1.4065 -0.6880  0.7148
 1016MOL0     H37136   4.018   5.595   9.337  0.4481  0.3931 -0.0328
 1016MOL0     H37137   3.987   5.770   9.337 -1.6521 -0.1654  0.0017
 1016MOL0     H37138   4.242   5.618   9.258  0.6621 -0.9002  0.3478
 1016MOL0     H37139   4.242   5.794   9.260 -0.1375  2.0262  2.2053
 1016MOL0     H37140   3.220   5.315   9.063 -2.5899  0.3976  1.1780
 1016MOL0     H37141   3.059   5.226   8.955  0.6231  1.0147  0.6187
 1016MOL0     H37142   2.672   5.052   8.789 -2.2375 -0.2735  1.1471
 1016MOL0     H37143   2.492   4.900   8.686 -1.0187 -4.4678  0.3865
 1016MOL0     H37144   0.732   4.298   8.253  2.1538  0.2577 -1.2311
 1016MOL0     H37145   0.531   4.311   8.095  0.1612  2.6601 -2.2431
 1016MOL0     H37146   0.216   4.405   7.941  2.8705 -1.3496 -2.3897
 1016MOL0     H37147  -0.001   4.403   7.839 -0.2061 -0.7036 -0.9646
 1016MOL0     H37148  -0.223   4.509   7.780 -2.3575 -0.7646  0.3271
 1016MOL0     H37149  -0.150   4.386   7.685  0.2742  0.4418  2.1008
 1016MOL0     H37150  -0.296   4.412   7.500  2.9069  0.5472 -0.7668
 1016MOL0     H37151  -0.333   4.579   7.541  0.6389  0.3754  0.3605
 1016MOL0     H37152  -0.478   4.543   7.713 -0.5614  0.3758 -0.1598
 1016MOL0     H37153  -0.427   4.380   7.747 -1.1118 -0.8038 -0.4323
 1016MOL0     H37154  -0.541   4.323   7.519  3.0480  0.7170 -0.6479
 1016MOL0     H37155  -0.642   4.372   7.652 -0.2730  1.6444  0.3858
 1016MOL0     H37156  -0.734   4.689   7.391  0.8829  0.5025  0.6395
 1016MOL0     H37157   0.128   4.696   7.553 -2.0110  0.4263  1.1681
 1016MOL0     H37158   0.479   4.681   7.621  1.1904  0.3812 -2.0450
 1016MOL0     H37159   0.340   4.745   7.529  1.5620 -5.1447 -1.4103
 1016MOL0     H37160   0.380   4.824   7.682  0.1757 -1.2606  0.4680
 1017MOL0     O37161   2.819  10.132  11.161 -0.0706  0.2166 -0.0796
 1017MOL0     C37162   2.841  10.247  11.209 -0.2812  0.6252  0.2007
 1017MOL0     O37163   2.745  10.325  11.271  0.1372 -0.3989  0.1299
 1017MOL0     C37164   2.612  10.281  11.269  0.4971  0.0628  0.1680
 1017MOL0     C37165   2.549  10.243  11.390  0.4344 -0.4261 -0.5667
 1017MOL0     C37166   2.420  10.205  11.390 -0.0458  0.7830  0.3043
 1017MOL0     C37167   2.342  10.204  11.270 -0.7574  0.0798  0.1627
 1017MOL0     O37168   2.221  10.153  11.254  0.8748 -0.5815 -0.8875
 1017MOL0     C37169   2.205  10.027  11.327  1.3456  0.2922  0.1577
 1017MOL0     C37170   2.062   9.974  11.323 -0.2502 -0.4523 -0.8040
 1017MOL0     C37171   2.040   9.855  11.432 -0.7759  0.1299 -0.7307
 1017MOL0     C37172   2.062   9.718  11.352  0.4124  0.4060 -0.6332
 1017MOL0     C37173   2.079   9.587  11.430  0.3134  0.2042  0.2269
 1017MOL0     C37174   1.972   9.584  11.540 -0.1205  0.3488  0.1375
 1017MOL0     C37175   1.831   9.552  11.477 -0.2590  0.5159 -0.7965
 1017MOL0     C37176   1.737   9.520  11.593  0.0183 -0.3716 -0.5610
 1017MOL0     N37177   1.725   9.630  11.685 -1.1087 -0.0547 -0.6279
 1017MOL0     C37178   1.608   9.697  11.711  0.4282 -0.6623  0.9185
 1017MOL0     C37179   1.632   9.776  11.814 -0.6042 -0.0564 -0.0888
 1017MOL0     C37180   1.536   9.896  11.840 -0.2981  0.1090  0.6917
 1017MOL0     C37181   1.526   9.941  11.987 -1.3061 -0.4814 -0.7962
 1017MOL0     C37182   1.424  10.052  11.994 -0.0810 -0.3355 -0.6566
 1017MOL0     C37183   1.418  10.118  12.135 -0.1805  0.7873  0.0689
 1017MOL0     O37184   1.339  10.032  12.212  0.1943 -0.0072  0.6210
 1017MOL0     C37185   1.196  10.036  12.207 -0.7787 -0.4329  0.8730
 1017MOL0     C37186   1.135   9.918  12.241  0.5094 -0.1163 -0.6347
 1017MOL0     C37187   0.994   9.902  12.234  0.3138 -0.2094  0.3166
 1017MOL0     C37188   0.905  10.001  12.189 -0.1819 -0.1669 -0.1262
 1017MOL0     C37189   0.761   9.990  12.198 -0.1164 -0.6738 -0.4923
 1017MOL0     O37190   0.691  10.089  12.142  0.3678 -0.0376 -0.8266
 1017MOL0     C37191   0.552  10.090  12.157  0.3928 -1.1542  0.0054
 1017MOL0     C37192   0.494  10.174  12.064 -0.4862  0.6012 -0.5698
 1017MOL0     C37193   0.353  10.198  12.070 -0.6833 -0.2571 -0.3212
 1017MOL0     C37194   0.274  10.144  12.174  0.1491  0.2457 -0.3453
 1017MOL0     O37195   0.137  10.180  12.186  0.1106  0.1134 -0.8330
 1017MOL0     C37196   0.037  10.156  12.291 -0.1754 -0.2285  0.0343
 1017MOL0     C37197  -0.107  10.153  12.231 -0.2062 -0.6418 -0.4117
 1017MOL0     C37198  -0.167  10.294  12.186  0.2855  0.2200 -0.8874
 1017MOL0     C37199  -0.173  10.386  12.303  0.6505 -0.4760  0.3358
 1017MOL0     C37200  -0.249  10.521  12.280  0.5348  0.8647  0.6206
 1017MOL0     C37201  -0.244  10.627  12.405 -0.6818  0.7161  0.6971
 1017MOL0     C37202  -0.267  10.551  12.540  0.1812  0.2131  0.1432
 1017MOL0     C37203  -0.304  10.659  12.640  0.5624 -0.2431 -0.0493
 1017MOL0    Cl37204  -0.271  10.572  12.799  0.1906  0.6175 -0.5809
 1017MOL0     C37205   0.336  10.053  12.261  0.1700  0.7735 -0.1310
 1017MOL0     C37206   0.471  10.025  12.253 -0.2355  0.7453 -0.3469
 1017MOL0     O37207   0.714   9.882  12.238 -0.2102  0.4111 -0.1217
 1017MOL0     C37208   0.970  10.119  12.144 -0.8531 -0.0389  0.4749
 1017MOL0     C37209   1.111  10.136  12.148  0.8559  1.1627 -0.5694
 1017MOL0     N37210   1.756   9.738  11.867 -0.0728  0.2536  0.0801
 1017MOL0     N37211   1.811   9.639  11.794  0.2292 -0.2622 -0.1032
 1017MOL0     C37212   2.410  10.244  11.152 -0.4452  0.8034 -1.2592
 1017MOL0     C37213   2.543  10.281  11.151 -0.0025  0.4340  0.3150
 1017MOL0     C37214   2.969  10.316  11.169 -0.6352 -0.9219 -0.9356
 1017MOL0     C37215   2.976  10.454  11.171 -0.7465  0.1004 -0.1480
 1017MOL0     C37216   3.101  10.510  11.142 -0.3444 -0.8218  0.2356
 1017MOL0     C37217   3.213  10.442  11.117 -0.1663 -0.2356  0.1078
 1017MOL0     O37218   3.327  10.520  11.117 -0.9818  0.2249  0.1224
 1017MOL0     C37219   3.413  10.512  10.999  0.0438  0.4788 -0.9832
 1017MOL0     C37220   3.463  10.651  10.958  0.2230 -0.6009  0.5637
 1017MOL0     C37221   3.344  10.727  10.896 -0.6670 -0.0158  0.1256
 1017MOL0     C37222   3.389  10.847  10.806 -0.3971 -0.1073 -0.3354
 1017MOL0     C37223   3.457  10.798  10.686 -0.4964 -0.2097  0.0673
 1017MOL0     C37224   3.506  10.757  10.583 -0.7479 -0.9368  0.3467
 1017MOL0     C37225   3.207  10.307  11.096 -0.2178  0.4936  0.7939
 1017MOL0     C37226   3.087  10.242  11.135  0.3379 -0.9282  0.0636
 1017MOL0     C37227   3.096  10.091  11.144 -0.1660 -0.2519  1.4288
 1017MOL0     H37228   2.589  10.236  11.491 -1.1370  2.8327  0.4339
 1017MOL0     H37229   2.373  10.179  11.484  2.7408  0.6269  1.7492
 1017MOL0     H37230   2.270   9.953  11.279  0.6035  0.7846 -1.6882
 1017MOL0     H37231   2.235  10.031  11.432 -1.9962  1.3645  1.1741
 1017MOL0     H37232   2.012   9.947  11.230 -1.2140 -1.1838 -0.0941
 1017MOL0     H37233   2.007  10.056  11.368 -0.2905 -1.7209  1.6279
 1017MOL0     H37234   1.940   9.864  11.475 -1.4565 -0.6147 -2.0886
 1017MOL0     H37235   2.115   9.859  11.512  0.3311 -3.1572 -1.4535
 1017MOL0     H37236   1.973   9.701  11.291 -0.2384  0.2093  0.3610
 1017MOL0     H37237   2.146   9.730  11.282  0.0092 -2.3171 -1.7281
 1017MOL0     H37238   2.074   9.502  11.362 -0.0728  0.9351 -0.6732
 1017MOL0     H37239   2.178   9.589  11.476  1.4100 -1.1856 -1.9496
 1017MOL0     H37240   2.013   9.510  11.610 -0.0121 -0.2506 -0.5490
 1017MOL0     H37241   1.967   9.682  11.589  0.2502  0.1275  0.6376
 1017MOL0     H37242   1.831   9.461  11.416  1.5343  2.0239 -3.1933
 1017MOL0     H37243   1.787   9.638  11.425  2.2278  2.4752  0.1479
 1017MOL0     H37244   1.637   9.505  11.550  0.2024  0.5509 -1.3778
 1017MOL0     H37245   1.774   9.430  11.641 -1.4861 -0.1492  1.1070
 1017MOL0     H37246   1.524   9.696  11.641  0.2273 -0.7597  1.1586
 1017MOL0     H37247   1.564   9.980  11.775  0.3132 -0.7047 -0.1079
 1017MOL0     H37248   1.439   9.865  11.799  2.5079 -4.1442 -3.7073
 1017MOL0     H37249   1.494   9.863  12.056 -0.0740  0.2255  0.6486
 1017MOL0     H37250   1.626   9.972  12.020 -1.6448 -0.4845  0.2677
 1017MOL0     H37251   1.322  10.023  11.966 -1.0373 -0.6075  2.6813
 1017MOL0     H37252   1.455  10.129  11.922  2.6065 -2.5476 -2.0631
 1017MOL0     H37253   1.365  10.213  12.149 -0.5715  0.3659  1.5923
 1017MOL0     H37254   1.518  10.139  12.173  1.0448  2.0818 -3.4159
 1017MOL0     H37255   1.196   9.835  12.275 -0.5916 -0.8356 -0.3701
 1017MOL0     H37256   0.952   9.806  12.264 -3.6840  1.3646  0.4141
 1017MOL0     H37257   0.564  10.221  11.995 -0.3100 -0.1580 -0.9165
 1017MOL0     H37258   0.287  10.261  12.011  0.2378 -0.7822 -1.9793
 1017MOL0     H37259   0.055  10.059  12.338  0.6495 -0.3935 -0.5966
 1017MOL0     H37260   0.031  10.227  12.373 -6.1532 -0.0080 -0.2018
 1017MOL0     H37261  -0.101  10.094  12.139 -1.3963 -0.6219 -0.5137
 1017MOL0     H37262  -0.174  10.109  12.305 -1.1983  0.7933 -0.4163
 1017MOL0     H37263  -0.110  10.332  12.100 -1.1847 -0.3940 -2.1895
 1017MOL0     H37264  -0.267  10.263  12.153 -1.8382  4.5544  0.7029
 1017MOL0     H37265  -0.069  10.412  12.325  0.9542 -1.2486 -0.1367
 1017MOL0     H37266  -0.212  10.335  12.391  1.9256 -2.7351 -0.3113
 1017MOL0     H37267  -0.351  10.495  12.250  0.2463  0.7461  1.6553
 1017MOL0     H37268  -0.202  10.568  12.194 -3.8810 -2.0637 -3.9157
 1017MOL0     H37269  -0.141  10.666  12.410  0.6744 -2.7098  3.0234
 1017MOL0     H37270  -0.307  10.714  12.383 -0.4237  0.0742 -3.3175
 1017MOL0     H37271  -0.173  10.504  12.569  0.3531 -0.4179 -1.3355
 1017MOL0     H37272  -0.344  10.473  12.533 -1.3335  1.6607  0.0473
 1017MOL0     H37273  -0.239  10.746  12.625 -0.2955  0.5166  0.5888
 1017MOL0     H37274  -0.410  10.684  12.640  0.2679 -1.3946 -0.8902
 1017MOL0     H37275   0.277  10.008  12.340  0.9383  1.5659  0.9262
 1017MOL0     H37276   0.520   9.970  12.333  1.0058  2.0423 -0.1670
 1017MOL0     H37277   0.908  10.199  12.105 -1.6234 -0.4717  0.7954
 1017MOL0     H37278   1.147  10.229  12.106  2.5194  0.0092 -1.8564
 1017MOL0     H37279   2.378  10.225  11.050  2.5586  0.1159 -2.1940
 1017MOL0     H37280   2.598  10.296  11.058  1.2982 -2.9581  0.3827
 1017MOL0     H37281   2.898  10.521  11.207 -0.7152  0.5019 -0.8079
 1017MOL0     H37282   3.118  10.615  11.163  2.9140 -1.5254  1.8261
 1017MOL0     H37283   3.363  10.462  10.915  0.5826  3.1665 -3.0570
 1017MOL0     H37284   3.498  10.450  11.030 -1.3888 -0.5960  1.0139
 1017MOL0     H37285   3.545  10.643  10.886 -0.3756  1.5175 -0.4466
 1017MOL0     H37286   3.498  10.717  11.038 -1.3914  0.7541  0.2121
 1017MOL0     H37287   3.285  10.774  10.976 -1.1093  0.8018 -0.6658
 1017MOL0     H37288   3.278  10.660  10.840 -1.7721  2.3511 -1.5886
 1017MOL0     H37289   3.296  10.901  10.785  0.3248  1.0417 -0.6472
 1017MOL0     H37290   3.463  10.908  10.858 -2.7458  3.1774 -0.5336
 1017MOL0     H37291   3.535  10.696  10.500 -1.4168 -2.0094  0.8708
 1017MOL0     H37292   3.286  10.246  11.053 -2.1006  0.8816 -3.8014
 1017MOL0     H37293   3.077  10.062  11.248 -0.8539 -1.7585  0.9172
 1017MOL0     H37294   3.024  10.044  11.076 -2.4256  1.6129  2.3932
 1017MOL0     H37295   3.199  10.066  11.117 -1.4026 -0.9398 -3.5682
 1018MOL0     O37296   3.057   7.896   2.838 -0.3896 -0.7625 -0.6809
 1018MOL0     C37297   3.071   7.855   2.952  0.2859 -0.0553  0.7166
 1018MOL0     O37298   3.193   7.842   3.029 -1.1602  0.2173  0.4254
 1018MOL0     C37299   3.312   7.899   2.988 -0.3745  0.5017 -0.4323
 1018MOL0     C37300   3.405   7.818   2.925  0.2407  0.2275  0.1177
 1018MOL0     C37301   3.523   7.870   2.894 -0.1477 -0.6178 -0.0660
 1018MOL0     C37302   3.554   8.005   2.919  0.2969  0.7964  0.6507
 1018MOL0     O37303   3.672   8.065   2.885  0.4075 -1.0417 -0.2586
 1018MOL0     C37304   3.789   7.995   2.929  0.3842  0.6298  0.7980
 1018MOL0     C37305   3.921   8.071   2.944 -0.3846  0.0512 -0.3777
 1018MOL0     C37306   3.981   8.087   2.810 -0.4117 -0.3655 -0.2352
 1018MOL0     C37307   4.124   8.147   2.805  0.3053 -0.5464  0.6902
 1018MOL0     C37308   4.204   8.143   2.681 -0.3752  0.1840  1.0907
 1018MOL0     C37309   4.126   8.223   2.567 -0.7811 -0.5809  0.5856
 1018MOL0     C37310   4.198   8.191   2.432  0.5712  0.0593 -0.1994
 1018MOL0     C37311   4.139   8.281   2.313  0.0877  1.0967  0.0852
 1018MOL0     N37312   4.189   8.230   2.180  0.5044  0.2926  0.6554
 1018MOL0     C37313   4.319   8.224   2.135  0.6827 -0.0143 -0.2075
 1018MOL0     C37314   4.303   8.157   2.014  0.1107  0.5993 -0.6676
 1018MOL0     C37315   4.415   8.153   1.926  0.6225 -0.0578  0.0355
 1018MOL0     C37316   4.375   8.083   1.796 -0.5503  0.9888 -0.1541
 1018MOL0     C37317   4.492   8.076   1.703  0.2121 -0.1061  0.0007
 1018MOL0     C37318   4.446   8.013   1.566 -0.5172  0.6850 -0.3837
 1018MOL0     O37319   4.383   8.113   1.485  1.7275 -0.1532 -0.1790
 1018MOL0     C37320   4.247   8.116   1.467 -0.1769 -0.2794  0.9829
 1018MOL0     C37321   4.156   8.022   1.508  0.3416 -0.0622 -0.0953
 1018MOL0     C37322   4.026   8.044   1.484  0.9504  1.1825  1.0617
 1018MOL0     C37323   3.968   8.154   1.411  0.0010  0.8732  0.7124
 1018MOL0     C37324   3.825   8.162   1.387  0.9401 -0.5152  1.4621
 1018MOL0     O37325   3.796   8.244   1.275  0.4056 -0.1415 -0.3424
 1018MOL0     C37326   3.666   8.274   1.254  0.1600  0.2318 -0.4052
 1018MOL0     C37327   3.578   8.209   1.164 -0.3019  0.0004 -0.7339
 1018MOL0     C37328   3.444   8.250   1.158 -0.0254 -0.3377  0.4068
 1018MOL0     C37329   3.394   8.349   1.249  0.5313  0.4060  0.5425
 1018MOL0     O37330   3.263   8.386   1.224  0.0531  0.2147 -0.0791
 1018MOL0     C37331   3.199   8.483   1.299 -0.4590  0.0043  0.5285
 1018MOL0     C37332   3.184   8.439   1.448 -0.3329  0.1927  0.4987
 1018MOL0     C37333   3.143   8.553   1.528 -0.3555  0.1933 -0.1435
 1018MOL0     C37334   3.049   8.507   1.645 -0.1754 -0.0477  0.4655
 1018MOL0     C37335   3.014   8.605   1.762  0.0878  0.6433 -0.2768
 1018MOL0     C37336   2.953   8.544   1.892 -0.5714 -0.6764 -1.0014
 1018MOL0     C37337   2.927   8.650   2.011 -1.7766  0.1450  0.0745
 1018MOL0     C37338   2.811   8.736   1.976 -0.5116  1.0425 -0.2945
 1018MOL0    Cl37339   2.741   8.821   2.119 -0.2224  0.5263  0.5520
 1018MOL0     C37340   3.488   8.415   1.328  0.5476 -0.1480  0.5027
 1018MOL0     C37341   3.619   8.372   1.338  0.0767 -0.0216  0.2283
 1018MOL0     O37342   3.747   8.099   1.451 -0.1291 -0.0909 -0.0104
 1018MOL0     C37343   4.061   8.245   1.362  0.1858 -0.2661  0.2099
 1018MOL0     C37344   4.194   8.233   1.396 -0.1246 -0.6394  0.3205
 1018MOL0     N37345   4.173   8.117   2.000 -0.2967 -0.3752  0.8516
 1018MOL0     N37346   4.101   8.169   2.091 -0.6630 -0.8621  0.1526
 1018MOL0     C37347   3.455   8.091   2.972 -0.2052 -0.3572 -0.7315
 1018MOL0     C37348   3.329   8.038   3.008 -0.0963  0.3504  0.0035
 1018MOL0     C37349   2.942   7.812   3.026  1.2946 -0.1933  0.4796
 1018MOL0     C37350   2.958   7.799   3.170  0.6271 -0.6365  0.3925
 1018MOL0     C37351   2.858   7.766   3.256  0.0423 -0.0500 -0.8963
 1018MOL0     C37352   2.732   7.742   3.200 -1.0480 -0.3009  0.2808
 1018MOL0     O37353   2.624   7.723   3.283 -0.4725 -0.6631 -0.2750
 1018MOL0     C37354   2.641   7.618   3.371 -0.5435  0.0717  0.4372
 1018MOL0     C37355   2.508   7.595   3.449  0.4088 -0.2850  1.2389
 1018MOL0     C37356   2.535   7.552   3.589  0.7170  0.5078 -0.2973
 1018MOL0     C37357   2.411   7.504   3.673  0.0819  0.2385  0.2444
 1018MOL0     C37358   2.291   7.593   3.684  0.6539  0.0321  0.3083
 1018MOL0     C37359   2.184   7.646   3.701 -0.1818  0.3396 -0.2812
 1018MOL0     C37360   2.707   7.757   3.068  0.3311 -0.3868 -0.2597
 1018MOL0     C37361   2.808   7.796   2.975  0.1266 -0.3530  0.1167
 1018MOL0     C37362   2.782   7.821   2.833  0.0930 -0.1179  0.2427
 1018MOL0     H37363   3.374   7.717   2.899  0.2902 -0.0353  1.0406
 1018MOL0     H37364   3.598   7.803   2.852  0.8881  0.0777  0.6406
 1018MOL0     H37365   3.763   7.954   3.027 -0.2129  1.2416  0.9110
 1018MOL0     H37366   3.803   7.912   2.859 -1.8240  0.7589  0.1245
 1018MOL0     H37367   3.989   8.014   3.009  1.3079  0.4194 -1.7397
 1018MOL0     H37368   3.903   8.156   3.011 -0.7925 -0.9954  0.8975
 1018MOL0     H37369   3.919   8.135   2.734 -0.4311 -3.1841 -2.1799
 1018MOL0     H37370   3.995   7.987   2.768  0.8913  0.1840 -1.1825
 1018MOL0     H37371   4.118   8.254   2.828 -0.0764 -1.1183  3.7522
 1018MOL0     H37372   4.175   8.102   2.891 -1.8455 -0.1669  2.2617
 1018MOL0     H37373   4.304   8.180   2.708 -0.5692  0.3450  1.5981
 1018MOL0     H37374   4.221   8.040   2.648  1.8524  0.2781  1.7358
 1018MOL0     H37375   4.019   8.201   2.574 -0.3844 -2.3669  1.6801
 1018MOL0     H37376   4.151   8.325   2.598 -0.0247 -0.7964  0.7021
 1018MOL0     H37377   4.178   8.086   2.407 -2.7856  0.3913  0.5859
 1018MOL0     H37378   4.307   8.194   2.428  0.7641  1.6092  2.8166
 1018MOL0     H37379   4.030   8.280   2.319 -0.0856 -1.6817 -1.8616
 1018MOL0     H37380   4.173   8.385   2.315  2.9505  0.3444 -2.3644
 1018MOL0     H37381   4.409   8.259   2.184  2.3830 -1.1721 -2.3412
 1018MOL0     H37382   4.445   8.256   1.906 -1.1703  0.5673  0.4202
 1018MOL0     H37383   4.506   8.106   1.965  1.3200  1.0981 -0.1496
 1018MOL0     H37384   4.333   7.984   1.818  0.6892  0.6567  0.8097
 1018MOL0     H37385   4.301   8.143   1.742 -1.5321  3.2940  3.4004
 1018MOL0     H37386   4.581   8.022   1.737  2.1918  0.5678 -3.6345
 1018MOL0     H37387   4.528   8.177   1.681 -0.0705 -0.1733 -0.7789
 1018MOL0     H37388   4.412   7.909   1.563  1.5968 -0.1196 -4.5725
 1018MOL0     H37389   4.540   8.016   1.509 -1.6979 -1.2897 -2.6261
 1018MOL0     H37390   4.190   7.929   1.552  1.0302 -0.6821 -1.8910
 1018MOL0     H37391   3.958   7.971   1.527  1.8124  0.8574  1.9048
 1018MOL0     H37392   3.599   8.122   1.102  1.1348  1.1592 -1.9576
 1018MOL0     H37393   3.373   8.196   1.096  0.9062 -1.8840  0.6289
 1018MOL0     H37394   3.258   8.575   1.293  2.4518 -1.8463 -3.5650
 1018MOL0     H37395   3.099   8.501   1.259 -0.5059 -1.6896 -0.2028
 1018MOL0     H37396   3.119   8.352   1.459  1.9333 -1.5347  0.9209
 1018MOL0     H37397   3.279   8.402   1.489  0.5621 -0.5016 -2.0552
 1018MOL0     H37398   3.230   8.610   1.562 -2.1349  2.7379  0.4327
 1018MOL0     H37399   3.107   8.635   1.466 -0.0150  1.3694  1.1672
 1018MOL0     H37400   3.094   8.421   1.695 -2.6327 -0.4743  2.1003
 1018MOL0     H37401   2.957   8.466   1.602  0.6998 -0.2372 -1.3243
 1018MOL0     H37402   2.942   8.677   1.723  0.3094  1.4817  0.8063
 1018MOL0     H37403   3.116   8.641   1.779  1.1613 -2.1739 -0.2160
 1018MOL0     H37404   2.855   8.500   1.872 -1.6483  0.7007  0.9237
 1018MOL0     H37405   3.026   8.470   1.928  0.5046 -1.0590 -3.7093
 1018MOL0     H37406   3.021   8.704   2.026 -1.6202  0.0495 -0.5445
 1018MOL0     H37407   2.911   8.600   2.107 -1.7866 -0.5181 -0.2712
 1018MOL0     H37408   2.833   8.811   1.900  3.3038 -0.4042 -0.8904
 1018MOL0     H37409   2.744   8.662   1.932  2.1081 -1.6182 -0.1441
 1018MOL0     H37410   3.467   8.501   1.391 -2.0319 -0.4046  0.1266
 1018MOL0     H37411   3.687   8.428   1.401 -0.3014  3.6540 -2.3114
 1018MOL0     H37412   4.015   8.324   1.303 -0.0706 -2.0234 -2.0768
 1018MOL0     H37413   4.261   8.314   1.370 -1.0299  0.1165  0.2999
 1018MOL0     H37414   3.476   8.197   2.988  2.5599 -0.9474  0.0901
 1018MOL0     H37415   3.257   8.091   3.069 -0.7783 -0.7339  0.1784
 1018MOL0     H37416   3.054   7.824   3.214 -1.0290  0.5499  3.7176
 1018MOL0     H37417   2.889   7.738   3.356 -2.8973 -0.0805  0.1015
 1018MOL0     H37418   2.718   7.645   3.444 -1.2613 -0.7418  1.5227
 1018MOL0     H37419   2.661   7.522   3.321 -1.0689  0.4444 -0.4986
 1018MOL0     H37420   2.450   7.511   3.410  0.4489 -0.6035  1.8493
 1018MOL0     H37421   2.448   7.685   3.435 -0.0690 -0.7036  0.5452
 1018MOL0     H37422   2.579   7.629   3.653 -1.7689  1.7221  0.0396
 1018MOL0     H37423   2.607   7.470   3.577  0.1723 -0.0064 -0.1487
 1018MOL0     H37424   2.378   7.414   3.622 -1.2227  1.5634 -1.3574
 1018MOL0     H37425   2.442   7.476   3.775  3.4331  2.8665  0.1297
 1018MOL0     H37426   2.082   7.679   3.707  0.3424  1.7500  1.9569
 1018MOL0     H37427   2.603   7.759   3.037 -0.2040  0.9610  1.4516
 1018MOL0     H37428   2.683   7.803   2.791  0.5544 -5.2006  0.6691
 1018MOL0     H37429   2.808   7.923   2.804  0.9255 -0.1040  0.9779
 1018MOL0     H37430   2.847   7.753   2.777 -0.8312  1.3106 -2.8090
 1019MOL0     O37431  10.128  11.246   4.856  0.4509  0.4349 -0.3624
 1019MOL0     C37432  10.139  11.137   4.918 -0.5022 -1.0514 -0.6360
 1019MOL0     O37433  10.244  11.103   5.005 -0.3580 -0.3691  0.2203
 1019MOL0     C37434  10.365  11.164   4.958 -1.1326  0.3138  0.1138
 1019MOL0     C37435  10.412  11.276   5.032 -0.1424  0.3032  0.3379
 1019MOL0     C37436  10.525  11.344   4.978 -0.5647 -0.7171 -0.0921
 1019MOL0     C37437  10.594  11.307   4.865  0.0859 -0.5301  0.0455
 1019MOL0     O37438  10.698  11.389   4.842 -0.1419 -0.3366 -0.2853
 1019MOL0     C37439  10.819  11.323   4.790  0.4829  0.1992 -0.2704
 1019MOL0     C37440  10.945  11.380   4.853 -0.2298 -0.0808  0.0342
 1019MOL0     C37441  10.953  11.535   4.850 -0.5518 -0.1552  0.6274
 1019MOL0     C37442  11.100  11.581   4.839 -0.0494  0.5219  0.0200
 1019MOL0     C37443  11.171  11.578   4.981  0.1864 -0.5676  0.0694
 1019MOL0     C37444  11.310  11.658   4.980  0.0588 -0.0420 -1.3718
 1019MOL0     C37445  11.293  11.805   5.007 -0.1120 -0.0193  0.3650
 1019MOL0     C37446  11.413  11.889   5.038 -0.8331 -0.3540 -0.8633
 1019MOL0     N37447  11.374  12.020   5.090  0.6614 -0.3183  0.2538
 1019MOL0     C37448  11.466  12.087   5.171  0.5306 -0.6553  0.4199
 1019MOL0     C37449  11.413  12.213   5.170 -0.1553  0.1314 -0.3362
 1019MOL0     C37450  11.478  12.316   5.256  0.5324  0.3023 -0.1143
 1019MOL0     C37451  11.448  12.290   5.405 -0.5698  0.5268 -0.0001
 1019MOL0     C37452  11.427  12.415   5.484  0.0154  0.2634 -0.8047
 1019MOL0     C37453  11.442  12.389   5.633  0.3195  0.3576 -0.7261
 1019MOL0     O37454  11.398  12.262   5.677 -0.9451  1.0681 -0.1271
 1019MOL0     C37455  11.263  12.254   5.717 -0.6564 -0.1944 -0.3680
 1019MOL0     C37456  11.150  12.269   5.641 -0.7330  0.2221  0.1126
 1019MOL0     C37457  11.021  12.243   5.699  0.7374 -0.7598 -0.0656
 1019MOL0     C37458  11.009  12.226   5.840 -0.3890 -0.0941 -0.5231
 1019MOL0     C37459  10.877  12.213   5.895 -0.7257 -0.2729 -0.7974
 1019MOL0     O37460  10.877  12.198   6.036 -0.2461 -0.3776 -0.2026
 1019MOL0     C37461  10.751  12.223   6.093  1.3708  0.7106 -0.3249
 1019MOL0     C37462  10.667  12.109   6.124 -0.3323 -0.0395 -0.2032
 1019MOL0     C37463  10.539  12.124   6.177  1.0536 -0.4267  0.0735
 1019MOL0     C37464  10.486  12.255   6.210 -0.6886  0.0592 -0.7849
 1019MOL0     O37465  10.368  12.283   6.268  0.3414  1.4987  0.3057
 1019MOL0     C37466  10.292  12.172   6.323  0.9625 -0.0730 -0.4707
 1019MOL0     C37467  10.152  12.216   6.364  1.5109  0.4414  0.0833
 1019MOL0     C37468  10.080  12.107   6.438 -0.0139  0.3923 -0.4613
 1019MOL0     C37469   9.938  12.152   6.478 -0.1831  0.3998 -0.2203
 1019MOL0     C37470   9.891  12.068   6.591 -0.6597  0.0729  0.4166
 1019MOL0     C37471   9.783  12.143   6.679  0.7087 -1.3926 -1.0466
 1019MOL0     C37472   9.646  12.186   6.615 -0.6399  0.3090  0.4042
 1019MOL0     C37473   9.649  12.269   6.483  0.7407 -0.3183  0.4922
 1019MOL0    Cl37474   9.709  12.437   6.511  0.0863 -0.1457 -0.2865
 1019MOL0     C37475  10.573  12.366   6.186 -0.1256  0.8653  0.4523
 1019MOL0     C37476  10.692  12.350   6.114 -0.4772 -1.0642 -0.0502
 1019MOL0     O37477  10.781  12.202   5.817  0.5175 -0.7165  0.2539
 1019MOL0     C37478  11.124  12.215   5.913  0.2700 -0.4276 -0.7529
 1019MOL0     C37479  11.248  12.228   5.846 -0.3766 -0.3863 -0.4398
 1019MOL0     N37480  11.294  12.222   5.098  0.1763  0.4577 -0.4168
 1019MOL0     N37481  11.279  12.103   5.041  1.0766  0.8245  0.1311
 1019MOL0     C37482  10.547  11.199   4.795  0.7609 -0.1948 -0.3868
 1019MOL0     C37483  10.434  11.128   4.843  0.4103  0.0118 -0.0081
 1019MOL0     C37484  10.013  11.057   4.931 -0.7851 -0.7480 -0.3168
 1019MOL0     C37485   9.888  11.115   4.898 -0.9393 -0.5333 -0.0319
 1019MOL0     C37486   9.776  11.024   4.884 -1.7644  0.2624  0.5550
 1019MOL0     C37487   9.780  10.890   4.917  0.1969 -0.5072 -0.1219
 1019MOL0     O37488   9.678  10.802   4.914  0.3433  0.1079  0.8871
 1019MOL0     C37489   9.541  10.837   4.936  0.4328 -0.3948  0.7849
 1019MOL0     C37490   9.437  10.744   4.878  0.6647 -0.0276  0.0924
 1019MOL0     C37491   9.288  10.801   4.864  0.0367 -0.0826  0.7112
 1019MOL0     C37492   9.232  10.853   4.995 -0.0508  0.1035 -1.0077
 1019MOL0     C37493   9.110  10.936   4.967  1.2002  0.0082  0.3904
 1019MOL0     C37494   9.026  11.005   4.922 -0.4040 -0.4602 -0.0377
 1019MOL0     C37495   9.903  10.836   4.947  0.3823  0.6071  0.6133
 1019MOL0     C37496  10.016  10.915   4.973 -0.1518 -0.2315 -0.0921
 1019MOL0     C37497  10.136  10.838   5.020  1.5815 -0.0386  0.1807
 1019MOL0     H37498  10.366  11.313   5.123 -5.9133 -2.7696 -0.8475
 1019MOL0     H37499  10.551  11.431   5.038 -1.1070 -0.4532 -0.2294
 1019MOL0     H37500  10.811  11.215   4.804 -1.1237  0.2343 -0.7031
 1019MOL0     H37501  10.822  11.347   4.683  2.9963 -2.9449 -1.0824
 1019MOL0     H37502  11.030  11.328   4.807 -1.3005 -0.1315 -1.9590
 1019MOL0     H37503  10.956  11.355   4.959  1.0532  0.4804  0.0527
 1019MOL0     H37504  10.909  11.576   4.941  0.6820  1.8171  0.4033
 1019MOL0     H37505  10.889  11.581   4.774 -0.1361 -1.7476 -0.7551
 1019MOL0     H37506  11.151  11.519   4.764 -1.4696 -2.0062  1.0298
 1019MOL0     H37507  11.095  11.683   4.801 -0.2066  0.3983 -0.2976
 1019MOL0     H37508  11.104  11.631   5.049  1.0201  3.0361 -1.6488
 1019MOL0     H37509  11.198  11.476   5.007  1.9821 -0.2382 -0.3128
 1019MOL0     H37510  11.370  11.610   5.058 -0.0338  0.6235 -0.8772
 1019MOL0     H37511  11.352  11.634   4.882 -1.3680  0.0523 -2.0355
 1019MOL0     H37512  11.224  11.810   5.091  0.1660  0.5763  0.5605
 1019MOL0     H37513  11.241  11.850   4.922 -2.9207  0.0109  1.9967
 1019MOL0     H37514  11.480  11.838   5.108 -1.0376  1.3107  0.6467
 1019MOL0     H37515  11.474  11.917   4.952 -0.9845  2.4442 -0.1730
 1019MOL0     H37516  11.545  12.053   5.236  1.0674  0.3748  0.3224
 1019MOL0     H37517  11.585  12.325   5.234  0.5767  2.5590  0.8160
 1019MOL0     H37518  11.433  12.411   5.228 -1.4038 -0.3798  0.5401
 1019MOL0     H37519  11.355  12.234   5.424 -0.5717  0.7949  0.8095
 1019MOL0     H37520  11.532  12.239   5.452  0.4727  3.6298  1.7741
 1019MOL0     H37521  11.326  12.452   5.464 -0.8320 -0.5107  1.7257
 1019MOL0     H37522  11.496  12.495   5.456 -0.4667  1.3932  1.1176
 1019MOL0     H37523  11.386  12.456   5.698  2.1476  0.7411  0.5378
 1019MOL0     H37524  11.547  12.391   5.664 -0.0581  0.2122  0.6558
 1019MOL0     H37525  11.169  12.296   5.537 -2.6025  3.4757  0.4775
 1019MOL0     H37526  10.937  12.239   5.630 -0.0331 -0.4190  0.8140
 1019MOL0     H37527  10.703  12.011   6.096  4.0304  0.8998  1.3720
 1019MOL0     H37528  10.476  12.036   6.190  0.3881  0.2456  1.7517
 1019MOL0     H37529  10.282  12.093   6.248 -0.7890 -0.3471  0.0156
 1019MOL0     H37530  10.344  12.133   6.411 -0.3428  1.7721  1.1861
 1019MOL0     H37531  10.165  12.294   6.440 -1.9938  1.1082  0.1532
 1019MOL0     H37532  10.098  12.247   6.274 -0.1660 -1.1059  0.5101
 1019MOL0     H37533  10.069  12.017   6.377  0.3342  0.0003  0.0476
 1019MOL0     H37534  10.128  12.081   6.533  0.8999 -2.6437 -1.6318
 1019MOL0     H37535   9.874  12.146   6.390 -0.4814  0.5634 -0.0131
 1019MOL0     H37536   9.939  12.259   6.500 -1.0139  0.5057 -0.6713
 1019MOL0     H37537   9.977  12.051   6.658  0.2969  1.2242 -0.4851
 1019MOL0     H37538   9.869  11.963   6.567  1.8430 -0.5149  0.4111
 1019MOL0     H37539   9.769  12.082   6.769 -2.0174  0.5311 -0.0371
 1019MOL0     H37540   9.832  12.232   6.719  2.0662 -1.6890 -1.9614
 1019MOL0     H37541   9.581  12.238   6.686 -1.1870 -0.5520  0.5362
 1019MOL0     H37542   9.583  12.102   6.584 -0.9235 -0.1019  2.0285
 1019MOL0     H37543   9.699  12.212   6.404  1.0436  2.7363 -1.6857
 1019MOL0     H37544   9.549  12.274   6.439  1.3971 -2.7930 -1.5109
 1019MOL0     H37545  10.537  12.462   6.222 -3.2400  0.3182 -0.8932
 1019MOL0     H37546  10.752  12.439   6.097 -1.7665 -0.0687  0.4228
 1019MOL0     H37547  11.119  12.198   6.020 -0.1435 -0.8411 -0.8363
 1019MOL0     H37548  11.329  12.208   5.916  1.4886  1.4655 -1.9381
 1019MOL0     H37549  10.608  11.169   4.710  1.6321  0.6840 -0.0876
 1019MOL0     H37550  10.411  11.046   4.777 -4.0777 -0.8148  2.1699
 1019MOL0     H37551   9.875  11.219   4.872  2.6481  0.4184  1.3842
 1019MOL0     H37552   9.682  11.076   4.870  0.3113  3.8165 -1.6675
 1019MOL0     H37553   9.528  10.932   4.884  2.5478 -0.4278  0.1324
 1019MOL0     H37554   9.526  10.855   5.043 -2.1362  4.7056 -0.1051
 1019MOL0     H37555   9.426  10.655   4.941 -4.3868  0.5143  0.3471
 1019MOL0     H37556   9.463  10.712   4.777 -2.6982  0.3799 -1.0428
 1019MOL0     H37557   9.221  10.727   4.821  0.6542  0.0808 -0.5968
 1019MOL0     H37558   9.289  10.875   4.783  1.6719 -0.8684 -0.0388
 1019MOL0     H37559   9.201  10.766   5.053 -1.1590 -0.3345 -2.2072
 1019MOL0     H37560   9.309  10.914   5.044  1.7702 -0.6216 -2.8386
 1019MOL0     H37561   8.943  11.049   4.870 -0.8415 -2.3441 -1.0256
 1019MOL0     H37562   9.915  10.729   4.963 -1.8255 -0.3046 -2.9399
 1019MOL0     H37563  10.186  10.802   4.930 -1.6113 -1.6680 -1.1110
 1019MOL0     H37564  10.199  10.888   5.093  1.7299 -0.3236  0.2478
 1019MOL0     H37565  10.099  10.748   5.071 -4.1000 -0.1582 -3.2255
 1020MOL0     O37566   1.976   2.363   7.822 -0.1726  0.1908 -0.3720
 1020MOL0     C37567   1.993   2.406   7.710  0.0408  0.2917 -0.1461
 1020MOL0     O37568   2.120   2.412   7.647  0.0223  0.3497  0.0234
 1020MOL0     C37569   2.226   2.363   7.717  1.0246  0.9538 -0.5028
 1020MOL0     C37570   2.294   2.451   7.808  0.0809  0.1834 -0.0401
 1020MOL0     C37571   2.406   2.408   7.875  0.5685  0.3443 -1.1054
 1020MOL0     C37572   2.451   2.275   7.877  0.2064  0.0417 -0.7462
 1020MOL0     O37573   2.544   2.247   7.969  0.2254 -0.0021 -1.3488
 1020MOL0     C37574   2.591   2.115   7.990  0.6699  0.1278 -0.0243
 1020MOL0     C37575   2.694   2.115   8.108  0.0911  0.8493  0.5642
 1020MOL0     C37576   2.823   2.187   8.065  1.0014 -0.0430  0.2429
 1020MOL0     C37577   2.934   2.185   8.177 -0.8279  0.2373 -0.2982
 1020MOL0     C37578   3.040   2.294   8.144 -0.1235  0.2083  0.6570
 1020MOL0     C37579   3.151   2.308   8.249 -0.7312 -0.1483  0.8378
 1020MOL0     C37580   3.257   2.407   8.202 -0.9157 -0.8279  0.1214
 1020MOL0     C37581   3.398   2.391   8.265 -0.1660 -0.1025  0.5497
 1020MOL0     N37582   3.390   2.380   8.405 -0.1229  0.5366 -0.5759
 1020MOL0     C37583   3.366   2.263   8.476 -0.9932  1.0328  0.1954
 1020MOL0     C37584   3.378   2.297   8.603 -0.4024  0.7570 -0.1254
 1020MOL0     C37585   3.376   2.198   8.717  0.2155 -0.3918 -0.1940
 1020MOL0     C37586   3.496   2.188   8.809 -0.2817  0.1461 -0.4571
 1020MOL0     C37587   3.508   2.299   8.919  0.0706 -0.4937 -1.1034
 1020MOL0     C37588   3.609   2.258   9.024  1.1146 -0.6634  0.6076
 1020MOL0     O37589   3.747   2.257   8.970  0.0960 -0.4283  0.2235
 1020MOL0     C37590   3.846   2.245   9.063 -0.2085  0.0017  0.2000
 1020MOL0     C37591   3.975   2.234   9.011  0.1139 -0.1062  0.7381
 1020MOL0     C37592   4.080   2.221   9.103  0.6767 -0.0877 -0.1459
 1020MOL0     C37593   4.056   2.232   9.244  0.0881 -0.6859 -0.0674
 1020MOL0     C37594   4.167   2.237   9.349 -0.1138 -0.2948  0.3204
 1020MOL0     O37595   4.292   2.215   9.292  0.5145 -0.4252  0.3727
 1020MOL0     C37596   4.403   2.215   9.369 -0.0075 -0.9206 -0.0199
 1020MOL0     C37597   4.419   2.132   9.484  0.1023 -0.6177  0.6269
 1020MOL0     C37598   4.543   2.137   9.552 -0.0015 -0.2903  0.1819
 1020MOL0     C37599   4.653   2.225   9.522  0.4141  0.0523  0.4406
 1020MOL0     O37600   4.765   2.242   9.598  0.2276  0.0597 -0.6500
 1020MOL0     C37601   4.767   2.194   9.739 -0.1046  0.4348 -0.3596
 1020MOL0     C37602   4.864   2.066   9.747 -1.1594 -0.7648 -0.1661
 1020MOL0     C37603   5.005   2.103   9.697  0.4300  0.3400  0.3114
 1020MOL0     C37604   5.082   1.977   9.717 -0.4883  0.7203 -1.1119
 1020MOL0     C37605   5.208   1.980   9.628  0.0473 -0.4063  0.7046
 1020MOL0     C37606   5.299   1.857   9.640 -0.8922 -0.1031 -0.5544
 1020MOL0     C37607   5.444   1.896   9.645 -0.3830  0.6160  0.1722
 1020MOL0     C37608   5.537   1.780   9.612 -0.2117  0.3650  0.1702
 1020MOL0    Cl37609   5.700   1.839   9.630 -0.1589 -0.3157  0.1036
 1020MOL0     C37610   4.637   2.298   9.410  0.3205 -0.5981  0.4853
 1020MOL0     C37611   4.518   2.291   9.332  0.2376 -0.9104  0.5634
 1020MOL0     O37612   4.144   2.256   9.466  0.0965 -0.2993  0.3181
 1020MOL0     C37613   3.932   2.236   9.294 -0.4255 -0.0990  0.8542
 1020MOL0     C37614   3.830   2.245   9.202 -0.2094 -0.2843  0.6529
 1020MOL0     N37615   3.407   2.439   8.602 -0.7713 -0.4197  0.0432
 1020MOL0     N37616   3.413   2.488   8.484  0.7891 -0.1221  0.2989
 1020MOL0     C37617   2.381   2.181   7.797  0.5364  0.4942  0.6032
 1020MOL0     C37618   2.270   2.223   7.718 -0.1339  0.2646  0.7380
 1020MOL0     C37619   1.870   2.457   7.640 -0.2249  0.2659 -0.4895
 1020MOL0     C37620   1.754   2.488   7.718 -0.1067  1.4625 -0.0857
 1020MOL0     C37621   1.640   2.535   7.667 -0.5129 -0.8897 -0.4587
 1020MOL0     C37622   1.633   2.541   7.532  0.3232 -0.3928 -0.1386
 1020MOL0     O37623   1.516   2.585   7.469 -0.6027  0.7836 -0.0571
 1020MOL0     C37624   1.527   2.722   7.438 -0.2625 -0.1468  0.0192
 1020MOL0     C37625   1.437   2.755   7.319  0.3798 -0.6619 -0.9765
 1020MOL0     C37626   1.449   2.677   7.192 -0.1882 -0.2379 -0.8845
 1020MOL0     C37627   1.329   2.593   7.163 -0.5664  0.1805  0.3232
 1020MOL0     C37628   1.310   2.489   7.262  0.6254 -0.1815  0.7003
 1020MOL0     C37629   1.275   2.402   7.333  0.2191  0.0792 -1.2186
 1020MOL0     C37630   1.736   2.506   7.448 -0.3824 -1.2400 -0.0491
 1020MOL0     C37631   1.862   2.467   7.501  0.0775 -0.3189 -0.7865
 1020MOL0     C37632   1.967   2.414   7.410  0.0831  0.1580 -0.4071
 1020MOL0     H37633   2.263   2.555   7.812  0.4410  0.4093 -1.9797
 1020MOL0     H37634   2.455   2.484   7.935 -0.4343  0.3758 -0.2910
 1020MOL0     H37635   2.515   2.039   8.009  1.9953 -1.3348 -0.2758
 1020MOL0     H37636   2.646   2.068   7.908  0.0594 -2.1434  0.7715
 1020MOL0     H37637   2.711   2.009   8.128 -4.5058 -0.3511 -0.6813
 1020MOL0     H37638   2.649   2.152   8.200 -0.2590  2.9351 -0.3813
 1020MOL0     H37639   2.809   2.293   8.045 -0.5885  0.2637  2.6222
 1020MOL0     H37640   2.856   2.131   7.977 -1.2853 -2.1038  0.5842
 1020MOL0     H37641   2.900   2.212   8.277  3.0457  2.1880  0.7049
 1020MOL0     H37642   2.981   2.086   8.175 -0.2509  0.2417  4.0426
 1020MOL0     H37643   3.088   2.262   8.051  0.0655  0.9172  0.5020
 1020MOL0     H37644   2.990   2.388   8.116 -2.3058  0.3438  4.3435
 1020MOL0     H37645   3.102   2.329   8.344 -0.1721 -1.9020  1.5686
 1020MOL0     H37646   3.213   2.217   8.254  1.8285  1.0573 -3.6648
 1020MOL0     H37647   3.234   2.514   8.213 -1.2547 -0.8803 -0.0485
 1020MOL0     H37648   3.280   2.394   8.096  0.2382  1.9603 -0.0473
 1020MOL0     H37649   3.428   2.290   8.239 -3.9823 -1.7948  1.8903
 1020MOL0     H37650   3.465   2.466   8.221 -1.5580  0.4938 -0.6467
 1020MOL0     H37651   3.364   2.162   8.436  2.2618 -0.3502  3.0482
 1020MOL0     H37652   3.292   2.227   8.781  0.5050  1.5846 -0.6382
 1020MOL0     H37653   3.357   2.101   8.670 -3.4067 -0.1285  0.4459
 1020MOL0     H37654   3.482   2.095   8.864 -0.8957  1.8721  2.5050
 1020MOL0     H37655   3.592   2.179   8.757  0.9821 -0.4280  1.8582
 1020MOL0     H37656   3.413   2.308   8.971 -0.3354  0.4106 -1.9618
 1020MOL0     H37657   3.520   2.398   8.873  0.7371  0.4983  1.0661
 1020MOL0     H37658   3.579   2.160   9.063 -2.6894  0.7584  1.7197
 1020MOL0     H37659   3.589   2.326   9.107 -1.7689 -2.5589  1.5979
 1020MOL0     H37660   3.983   2.230   8.902  0.9260  1.0111  0.7390
 1020MOL0     H37661   4.183   2.214   9.068  0.4540  2.5186 -1.6122
 1020MOL0     H37662   4.339   2.067   9.519 -0.9748 -0.2069 -0.9853
 1020MOL0     H37663   4.551   2.068   9.636 -2.3081 -1.6279 -0.6231
 1020MOL0     H37664   4.801   2.274   9.805 -1.0082 -0.7314  1.6068
 1020MOL0     H37665   4.664   2.179   9.773 -0.5923  1.2052 -1.4584
 1020MOL0     H37666   4.877   2.029   9.849 -0.2236  0.0660  0.0268
 1020MOL0     H37667   4.822   1.987   9.683 -0.6450 -1.5663  0.4687
 1020MOL0     H37668   4.991   2.140   9.594  0.1665 -2.5149 -0.7598
 1020MOL0     H37669   5.036   2.188   9.758 -1.3483  0.2470  1.4336
 1020MOL0     H37670   5.025   1.890   9.683 -0.0185 -1.4010  2.9134
 1020MOL0     H37671   5.101   1.967   9.824  1.6529  1.9573 -1.3253
 1020MOL0     H37672   5.266   2.067   9.659 -1.0954  0.5416  0.2578
 1020MOL0     H37673   5.183   2.008   9.525  0.9715 -2.4746 -0.1296
 1020MOL0     H37674   5.281   1.805   9.734 -2.1010  2.2839  0.6375
 1020MOL0     H37675   5.280   1.791   9.556 -0.4830 -0.2929 -0.5018
 1020MOL0     H37676   5.462   1.941   9.744 -1.2271 -1.5108  1.3479
 1020MOL0     H37677   5.468   1.974   9.572  1.0269 -1.6702 -1.9401
 1020MOL0     H37678   5.532   1.690   9.674  3.0542  0.2131  0.3738
 1020MOL0     H37679   5.513   1.752   9.509 -1.5551  0.2052  0.5150
 1020MOL0     H37680   4.725   2.359   9.391  1.4038 -2.0715  0.6185
 1020MOL0     H37681   4.522   2.353   9.243  0.3484 -1.7338 -0.0215
 1020MOL0     H37682   3.914   2.240   9.401  0.9811 -0.7825  1.1424
 1020MOL0     H37683   3.738   2.267   9.255 -2.2407 -0.7589 -2.4439
 1020MOL0     H37684   2.418   2.079   7.801  1.9448  1.0029  1.3546
 1020MOL0     H37685   2.230   2.148   7.650 -1.0086  1.5152 -0.1597
 1020MOL0     H37686   1.745   2.470   7.825 -2.3997 -0.8738 -0.5803
 1020MOL0     H37687   1.564   2.567   7.737 -0.4816 -0.4936 -0.6069
 1020MOL0     H37688   1.630   2.752   7.415 -0.3029 -0.2368 -0.2783
 1020MOL0     H37689   1.496   2.783   7.524 -2.0696 -2.4263  1.0630
 1020MOL0     H37690   1.459   2.859   7.294  1.9632 -0.4960  0.9068
 1020MOL0     H37691   1.332   2.759   7.349  0.2053  1.0703 -1.7141
 1020MOL0     H37692   1.547   2.630   7.178  1.2841  3.3701 -4.6334
 1020MOL0     H37693   1.454   2.761   7.123 -1.4103  1.0370  0.5056
 1020MOL0     H37694   1.238   2.655   7.171 -1.1153 -0.6866  0.8985
 1020MOL0     H37695   1.333   2.545   7.065  0.3447 -1.1616  1.0041
 1020MOL0     H37696   1.246   2.320   7.396  1.6728 -0.5471 -1.3107
 1020MOL0     H37697   1.723   2.514   7.340  1.0528  2.4245 -0.0819
 1020MOL0     H37698   2.042   2.490   7.388  1.0798  0.4713  3.3127
 1020MOL0     H37699   2.017   2.326   7.452 -2.6910 -2.2451 -1.7590
 1020MOL0     H37700   1.913   2.381   7.321  0.0890 -0.9639 -0.0164
 1021MOL0     O37701   3.085  10.558   5.141  0.5880 -0.5466 -0.3971
 1021MOL0     C37702   3.119  10.446   5.159  0.0135 -0.5757  0.1433
 1021MOL0     O37703   3.237  10.393   5.113 -0.0086  0.0908 -0.0331
 1021MOL0     C37704   3.332  10.479   5.075  0.2110  0.9796  0.7455
 1021MOL0     C37705   3.439  10.515   5.154  0.4124 -0.3589  0.0789
 1021MOL0     C37706   3.541  10.604   5.102  0.5603 -0.4431 -0.9316
 1021MOL0     C37707   3.539  10.638   4.963 -0.9126 -0.2257 -0.8169
 1021MOL0     O37708   3.623  10.726   4.901  0.1996  0.0661 -0.4748
 1021MOL0     C37709   3.765  10.718   4.922  0.5283  0.4003 -0.3815
 1021MOL0     C37710   3.837  10.826   4.847 -0.6591  0.8784 -0.5419
 1021MOL0     C37711   3.994  10.808   4.857  0.0433 -0.8026 -0.1363
 1021MOL0     C37712   4.049  10.754   4.725 -0.8638 -0.1629 -0.6621
 1021MOL0     C37713   4.205  10.740   4.731  0.7815  0.9594  0.4953
 1021MOL0     C37714   4.255  10.620   4.808 -0.5726  1.3602 -0.5824
 1021MOL0     C37715   4.394  10.580   4.747 -0.3239  0.6077  0.5826
 1021MOL0     C37716   4.511  10.648   4.826  0.5609 -0.8408  0.0037
 1021MOL0     N37717   4.638  10.577   4.810 -0.5682  0.0922  0.7910
 1021MOL0     C37718   4.690  10.492   4.711  0.4841  0.6033 -0.1130
 1021MOL0     C37719   4.822  10.477   4.735 -0.0027  0.3575  0.5522
 1021MOL0     C37720   4.913  10.388   4.663  0.6186  0.2750 -0.1343
 1021MOL0     C37721   5.038  10.464   4.625 -0.0949  0.7059  0.2283
 1021MOL0     C37722   5.137  10.371   4.553 -0.9256  0.4162 -0.5480
 1021MOL0     C37723   5.269  10.460   4.556 -1.0491  0.2146  0.3305
 1021MOL0     O37724   5.325  10.470   4.422 -0.5050  0.4872  0.6451
 1021MOL0     C37725   5.459  10.509   4.410 -0.6401 -0.4240 -0.0437
 1021MOL0     C37726   5.521  10.595   4.497  0.3084  0.1329  0.1652
 1021MOL0     C37727   5.647  10.648   4.463 -0.6568 -0.0295 -0.0889
 1021MOL0     C37728   5.717  10.609   4.345  0.0906  0.3101 -0.0310
 1021MOL0     C37729   5.847  10.667   4.321  0.2830 -0.2319 -0.1200
 1021MOL0     O37730   5.930  10.594   4.232  0.2553  0.8146  0.0281
 1021MOL0     C37731   6.068  10.617   4.236 -0.1668 -0.8132  0.5002
 1021MOL0     C37732   6.151  10.502   4.216  0.3556 -0.1626 -0.7253
 1021MOL0     C37733   6.289  10.515   4.232  0.1500 -0.4931 -0.0792
 1021MOL0     C37734   6.341  10.647   4.238  0.0428  0.5355 -0.1700
 1021MOL0     O37735   6.479  10.646   4.234 -0.6475  0.4055  0.1764
 1021MOL0     C37736   6.536  10.748   4.145 -0.2217  0.5778  0.4092
 1021MOL0     C37737   6.562  10.682   4.004 -0.0305  0.0065 -0.5681
 1021MOL0     C37738   6.646  10.766   3.910  0.2689 -0.3908  0.4553
 1021MOL0     C37739   6.546  10.870   3.830 -0.0812  0.0831 -0.2992
 1021MOL0     C37740   6.639  10.960   3.741  0.1422  0.6867 -1.2850
 1021MOL0     C37741   6.568  11.067   3.657 -0.9082  0.7749 -0.2545
 1021MOL0     C37742   6.577  11.208   3.719 -0.2694  0.6583  0.6576
 1021MOL0     C37743   6.534  11.311   3.612 -0.1666  0.7930 -0.0011
 1021MOL0    Cl37744   6.368  11.304   3.580 -0.2751  0.2158 -0.0107
 1021MOL0     C37745   6.259  10.758   4.240  0.1170  0.8990 -0.3141
 1021MOL0     C37746   6.121  10.745   4.237  0.6952  0.0733  1.7194
 1021MOL0     O37747   5.881  10.761   4.388 -0.2283  0.2723 -0.2494
 1021MOL0     C37748   5.660  10.517   4.259 -0.2290  0.6305  0.0587
 1021MOL0     C37749   5.534  10.471   4.294  0.2901 -0.1015 -0.2938
 1021MOL0     N37750   4.856  10.559   4.836  0.1079 -0.0762  0.5638
 1021MOL0     N37751   4.746  10.620   4.878 -0.9041  0.5682  0.5621
 1021MOL0     C37752   3.430  10.596   4.887 -0.5457 -0.3616  0.6774
 1021MOL0     C37753   3.326  10.516   4.945 -0.1303 -0.1053  0.0773
 1021MOL0     C37754   3.024  10.361   5.236  0.4214  0.6164 -0.1307
 1021MOL0     C37755   3.066  10.232   5.258 -1.4171  0.6812  0.3416
 1021MOL0     C37756   2.996  10.135   5.337 -0.2887 -0.1474 -0.4271
 1021MOL0     C37757   2.878  10.179   5.399 -0.1471 -0.1204  0.0315
 1021MOL0     O37758   2.800  10.099   5.474  1.4160  0.7570  0.2379
 1021MOL0     C37759   2.743   9.984   5.408 -0.4356 -1.8465  0.0653
 1021MOL0     C37760   2.586   9.984   5.413 -0.4177  0.0521  0.8033
 1021MOL0     C37761   2.530   9.996   5.557  0.0431  0.9512  0.3715
 1021MOL0     C37762   2.387  10.038   5.555  0.5181  0.0444  0.3117
 1021MOL0     C37763   2.333  10.004   5.689  0.2196 -0.2522 -0.6967
 1021MOL0     C37764   2.275   9.959   5.790 -0.6771  0.0311  0.3811
 1021MOL0     C37765   2.832  10.307   5.372 -0.1648  0.2342  0.2425
 1021MOL0     C37766   2.901  10.402   5.304 -0.3145 -0.5048 -0.5449
 1021MOL0     C37767   2.848  10.539   5.304  0.0219  0.6106 -1.2871
 1021MOL0     H37768   3.434  10.465   5.251  2.5868 -1.1464 -0.1745
 1021MOL0     H37769   3.616  10.635   5.174  0.3577 -2.1923  0.0870
 1021MOL0     H37770   3.785  10.756   5.023 -2.4446  2.2917 -0.3639
 1021MOL0     H37771   3.808  10.619   4.905 -0.5249 -0.5485  2.0430
 1021MOL0     H37772   3.805  10.920   4.892  0.8615  1.2290 -0.1388
 1021MOL0     H37773   3.811  10.811   4.742  1.6395  0.9445 -1.1852
 1021MOL0     H37774   4.034  10.744   4.936  1.5433  2.3065  1.8260
 1021MOL0     H37775   4.031  10.909   4.875 -3.0270  0.8690 -2.2150
 1021MOL0     H37776   3.997  10.662   4.699  1.6211 -1.7045 -0.5831
 1021MOL0     H37777   4.048  10.828   4.645  1.7171  0.5653 -0.1315
 1021MOL0     H37778   4.236  10.739   4.626 -0.0421  1.5856  0.2321
 1021MOL0     H37779   4.237  10.837   4.771 -0.5736  0.7147  2.2608
 1021MOL0     H37780   4.273  10.652   4.911  1.5235  3.5880 -1.5381
 1021MOL0     H37781   4.179  10.543   4.795  2.0820 -1.2353 -1.9033
 1021MOL0     H37782   4.396  10.611   4.642  4.1177 -0.2393  0.2439
 1021MOL0     H37783   4.421  10.474   4.748 -0.4938  0.5649  0.8637
 1021MOL0     H37784   4.512  10.756   4.807  2.1261 -1.1063 -1.6783
 1021MOL0     H37785   4.501  10.630   4.934 -0.0360 -0.9022 -0.0546
 1021MOL0     H37786   4.630  10.458   4.627 -3.7245  0.8494  2.5343
 1021MOL0     H37787   4.936  10.298   4.720  0.2103  1.5376  2.1233
 1021MOL0     H37788   4.863  10.372   4.567 -0.7583  0.7660  0.4805
 1021MOL0     H37789   5.021  10.549   4.558  0.0325  0.3986 -0.2013
 1021MOL0     H37790   5.084  10.495   4.719 -0.1912 -1.5730  1.0820
 1021MOL0     H37791   5.110  10.347   4.450 -0.6805  2.7317 -1.2086
 1021MOL0     H37792   5.143  10.274   4.603 -1.5902  1.2158  1.1661
 1021MOL0     H37793   5.338  10.417   4.630  0.3726  1.1078 -0.4258
 1021MOL0     H37794   5.255  10.562   4.593  0.6816  0.7859 -0.4971
 1021MOL0     H37795   5.468  10.639   4.581 -1.8868  1.0256 -1.5930
 1021MOL0     H37796   5.683  10.725   4.530  1.6146 -0.7201 -0.4411
 1021MOL0     H37797   6.096  10.409   4.213  0.5629 -0.2790 -0.9205
 1021MOL0     H37798   6.350  10.426   4.246  0.5185 -1.0981 -4.2321
 1021MOL0     H37799   6.471  10.834   4.127  0.2777  1.2897  1.8628
 1021MOL0     H37800   6.627  10.777   4.198 -0.0874  2.5190 -0.8007
 1021MOL0     H37801   6.629  10.597   4.020  3.2089  2.2353 -1.2406
 1021MOL0     H37802   6.463  10.660   3.965 -0.0001 -1.2786  0.0105
 1021MOL0     H37803   6.723  10.818   3.968  0.2148  0.1279  0.0651
 1021MOL0     H37804   6.713  10.701   3.853  3.3166  1.1012  2.0641
 1021MOL0     H37805   6.485  10.925   3.903  1.7726 -2.8293  3.8663
 1021MOL0     H37806   6.477  10.806   3.773 -0.4171  1.9318 -2.0462
 1021MOL0     H37807   6.709  10.893   3.691  2.8532  0.8310  1.9732
 1021MOL0     H37808   6.697  11.011   3.818 -0.6339  1.8468 -1.4485
 1021MOL0     H37809   6.612  11.067   3.557 -0.6258 -1.7201 -0.1850
 1021MOL0     H37810   6.465  11.034   3.642 -1.0378 -0.4999  2.7223
 1021MOL0     H37811   6.678  11.236   3.751  0.0597  0.4452 -0.1541
 1021MOL0     H37812   6.510  11.206   3.805 -0.3833  0.3068  0.5628
 1021MOL0     H37813   6.559  11.412   3.646 -0.5585  0.8452  0.1357
 1021MOL0     H37814   6.574  11.297   3.511 -0.5371 -0.3076 -0.0161
 1021MOL0     H37815   6.306  10.855   4.239  1.6780  0.1735 -1.0350
 1021MOL0     H37816   6.046  10.823   4.226 -0.3352 -1.1476 -0.8669
 1021MOL0     H37817   5.709  10.483   4.169 -0.3849  1.4482 -0.3416
 1021MOL0     H37818   5.479  10.408   4.224 -2.2510  1.0344  0.5816
 1021MOL0     H37819   3.428  10.627   4.783 -1.7203  0.2025  0.8484
 1021MOL0     H37820   3.241  10.484   4.886  1.1747 -0.4474 -1.7066
 1021MOL0     H37821   3.154  10.188   5.214 -0.7261 -0.1708  2.4774
 1021MOL0     H37822   3.009  10.028   5.347 -2.6311 -0.5568 -1.2274
 1021MOL0     H37823   2.786   9.891   5.446  2.0336 -1.1516 -0.8666
 1021MOL0     H37824   2.768   9.983   5.302  3.3992 -0.6193  0.8165
 1021MOL0     H37825   2.543   9.898   5.360 -0.6329  0.4853  0.2670
 1021MOL0     H37826   2.553  10.076   5.365  1.5382  1.5866  2.2576
 1021MOL0     H37827   2.600  10.048   5.621  0.7885 -0.4635  0.7517
 1021MOL0     H37828   2.546   9.893   5.590 -1.8956  0.3989 -0.2591
 1021MOL0     H37829   2.376  10.145   5.535  2.2133  0.3264  0.7555
 1021MOL0     H37830   2.330   9.975   5.487 -0.7149 -2.1168  3.1200
 1021MOL0     H37831   2.233   9.904   5.872 -0.8906 -2.5806 -1.3320
 1021MOL0     H37832   2.743  10.341   5.425  0.3811  2.5276 -0.1790
 1021MOL0     H37833   2.902  10.584   5.388  3.0893 -1.2591 -2.1001
 1021MOL0     H37834   2.868  10.586   5.208  1.9245 -1.1703 -1.8382
 1021MOL0     H37835   2.741  10.535   5.328  0.4115  1.4006  0.8497
 1022MOL0     O37836   6.570  11.266   6.021  0.4463 -0.2291  0.3961
 1022MOL0     C37837   6.625  11.306   6.126 -0.1548 -0.3396 -0.0262
 1022MOL0     O37838   6.576  11.296   6.255  0.3838 -0.9590  0.1055
 1022MOL0     C37839   6.453  11.239   6.270 -0.4854 -0.4165  0.9369
 1022MOL0     C37840   6.375  11.294   6.373 -0.2403  0.0793  0.0565
 1022MOL0     C37841   6.245  11.252   6.405 -0.7036  0.7908 -0.4468
 1022MOL0     C37842   6.204  11.134   6.332  0.8871 -0.4192  0.1694
 1022MOL0     O37843   6.082  11.080   6.361 -0.1635  0.1367 -0.0982
 1022MOL0     C37844   6.097  10.969   6.445  0.9976  0.3032 -0.4695
 1022MOL0     C37845   5.959  10.889   6.451 -1.2651  0.1471  0.5532
 1022MOL0     C37846   5.967  10.755   6.530  0.5434  0.3349 -0.1111
 1022MOL0     C37847   5.822  10.699   6.545  0.6599 -0.2616  0.1384
 1022MOL0     C37848   5.787  10.647   6.682  1.2107 -0.1285 -0.6467
 1022MOL0     C37849   5.764  10.762   6.789  0.4371  0.5903  0.6139
 1022MOL0     C37850   5.633  10.728   6.871  0.4752  0.7232 -0.2136
 1022MOL0     C37851   5.650  10.808   6.998  1.2748 -0.1090 -0.4547
 1022MOL0     N37852   5.529  10.796   7.068 -0.2391 -0.2916 -0.1916
 1022MOL0     C37853   5.507  10.696   7.155  0.7989  0.5270  0.1735
 1022MOL0     C37854   5.376  10.720   7.193  0.5605  0.6387 -0.1064
 1022MOL0     C37855   5.306  10.629   7.288  0.5835  0.5751 -0.0569
 1022MOL0     C37856   5.252  10.510   7.209 -0.4459  0.0924  0.2250
 1022MOL0     C37857   5.199  10.396   7.311  0.2856 -0.7088 -0.6168
 1022MOL0     C37858   5.087  10.310   7.263  0.1459  0.5195  0.1526
 1022MOL0     O37859   5.123  10.261   7.131 -0.4589 -0.1653 -0.2097
 1022MOL0     C37860   5.040  10.170   7.059  0.7486 -0.6946  0.1357
 1022MOL0     C37861   5.083  10.129   6.930  0.1329  0.4652  0.5775
 1022MOL0     C37862   5.009  10.050   6.853 -0.7559  0.1494 -0.1370
 1022MOL0     C37863   4.896   9.986   6.896  0.5473  0.2949 -0.6887
 1022MOL0     C37864   4.823   9.885   6.815 -0.2218 -0.7774  0.2082
 1022MOL0     O37865   4.716   9.810   6.869  0.2943  0.1146  0.1384
 1022MOL0     C37866   4.637   9.735   6.783 -0.1545 -0.9880 -0.2213
 1022MOL0     C37867   4.527   9.797   6.721 -0.2061 -0.7588  0.0003
 1022MOL0     C37868   4.433   9.724   6.660 -0.7612  0.3073 -0.4411
 1022MOL0     C37869   4.435   9.587   6.644  0.6562  1.6229 -0.6343
 1022MOL0     O37870   4.344   9.500   6.582  0.8048 -0.3294 -0.1345
 1022MOL0     C37871   4.213   9.543   6.535  0.4885  0.5703 -0.3445
 1022MOL0     C37872   4.131   9.422   6.517 -0.1922  0.0916  0.8212
 1022MOL0     C37873   3.987   9.433   6.553 -0.5904 -0.3656 -1.5540
 1022MOL0     C37874   3.913   9.309   6.522 -0.8682 -0.2260 -0.5414
 1022MOL0     C37875   3.760   9.327   6.552  0.4625  0.0774  0.4928
 1022MOL0     C37876   3.672   9.212   6.509  0.2299  0.9905  0.2618
 1022MOL0     C37877   3.527   9.264   6.445  0.1070  0.1102 -0.5468
 1022MOL0     C37878   3.449   9.143   6.395  0.0949  1.2051  0.1855
 1022MOL0    Cl37879   3.325   9.200   6.281 -0.4720 -0.4383 -0.1244
 1022MOL0     C37880   4.549   9.525   6.702 -0.5657  0.1927 -0.2820
 1022MOL0     C37881   4.644   9.598   6.781  0.5753 -0.0293  0.0700
 1022MOL0     O37882   4.868   9.865   6.702 -0.1126 -0.7678 -0.6340
 1022MOL0     C37883   4.849  10.027   7.024 -0.0593 -0.2726  0.3990
 1022MOL0     C37884   4.919  10.118   7.103 -0.0262 -0.4898  0.1754
 1022MOL0     N37885   5.330  10.830   7.125 -0.5887 -1.0222  0.0834
 1022MOL0     N37886   5.416  10.871   7.042  0.1344 -0.1245  0.2064
 1022MOL0     C37887   6.279  11.075   6.228 -0.5367 -0.1483  0.3638
 1022MOL0     C37888   6.408  11.123   6.203  0.6056 -0.5858 -0.0336
 1022MOL0     C37889   6.771  11.331   6.120  0.0759 -0.1252 -0.1997
 1022MOL0     C37890   6.859  11.222   6.080 -0.5303 -0.5098  0.1361
 1022MOL0     C37891   7.000  11.235   6.062 -0.1449  0.4663 -0.4448
 1022MOL0     C37892   7.050  11.357   6.087  0.1806 -0.0743  0.4920
 1022MOL0     O37893   7.179  11.381   6.093 -0.6454  0.2918  0.2259
 1022MOL0     C37894   7.247  11.424   5.978 -1.1615  1.1770  0.1041
 1022MOL0     C37895   7.391  11.451   6.025  0.2942  0.1944  0.1256
 1022MOL0     C37896   7.416  11.538   6.151  0.3191 -0.2373 -0.7129
 1022MOL0     C37897   7.525  11.475   6.238 -0.2450 -0.0455  0.4190
 1022MOL0     C37898   7.646  11.428   6.165  0.5588  0.5659  0.1449
 1022MOL0     C37899   7.735  11.396   6.086 -0.0353  0.7720  0.0910
 1022MOL0     C37900   6.965  11.463   6.128  0.4739  0.1698  0.2013
 1022MOL0     C37901   6.832  11.446   6.146 -0.2858 -0.1195  0.0865
 1022MOL0     C37902   6.767  11.557   6.214 -0.7524  0.6858  0.4984
 1022MOL0     H37903   6.411  11.383   6.424 -2.4084  2.1479 -1.8190
 1022MOL0     H37904   6.192  11.287   6.493  0.7626 -0.5409  1.0287
 1022MOL0     H37905   6.169  10.901   6.399  1.1513 -0.0680  0.3011
 1022MOL0     H37906   6.130  10.994   6.547  0.7327 -0.6377 -0.1436
 1022MOL0     H37907   5.917  10.868   6.352  2.0264 -1.4393 -0.6748
 1022MOL0     H37908   5.890  10.956   6.502 -0.5278  0.2063  1.5015
 1022MOL0     H37909   6.010  10.777   6.628 -0.3556  0.2380  0.3144
 1022MOL0     H37910   6.043  10.686   6.494 -0.3572 -1.0271  0.5034
 1022MOL0     H37911   5.758  10.782   6.517  2.3235 -0.1636 -4.0846
 1022MOL0     H37912   5.806  10.624   6.467  0.5675  0.6597 -0.7376
 1022MOL0     H37913   5.688  10.601   6.670  2.6960 -4.0091  0.3224
 1022MOL0     H37914   5.860  10.573   6.716  2.4438  1.6207  0.7059
 1022MOL0     H37915   5.850  10.766   6.858 -0.2932  3.2279  1.5240
 1022MOL0     H37916   5.747  10.861   6.746  0.5747  1.3840  2.3117
 1022MOL0     H37917   5.634  10.625   6.908 -0.9399  0.8136  0.1104
 1022MOL0     H37918   5.549  10.754   6.807  1.2454  3.4965 -0.2390
 1022MOL0     H37919   5.734  10.775   7.059  2.8506  5.0478  0.6325
 1022MOL0     H37920   5.650  10.911   6.961  0.4422 -0.2519 -0.8801
 1022MOL0     H37921   5.576  10.619   7.189 -1.8356 -3.5003 -2.6104
 1022MOL0     H37922   5.370  10.609   7.373 -1.3773 -0.2092  1.3213
 1022MOL0     H37923   5.223  10.693   7.320  1.0522  0.3116  1.7633
 1022MOL0     H37924   5.168  10.539   7.144 -0.6035 -1.7418 -0.4581
 1022MOL0     H37925   5.329  10.460   7.150 -0.3157  0.9877 -0.3848
 1022MOL0     H37926   5.169  10.449   7.402  3.6702 -1.7600  1.3217
 1022MOL0     H37927   5.279  10.323   7.328 -0.2148 -0.9816  0.6643
 1022MOL0     H37928   4.997  10.370   7.248  0.5978  1.2689  0.3696
 1022MOL0     H37929   5.053  10.230   7.329 -0.4328  1.9815  1.7136
 1022MOL0     H37930   5.172  10.176   6.890 -0.2040  2.2538  1.8198
 1022MOL0     H37931   5.042  10.038   6.750  1.0366  2.3982  0.1007
 1022MOL0     H37932   4.507   9.900   6.748 -2.2987 -0.9460 -0.6637
 1022MOL0     H37933   4.349   9.776   6.612 -0.4694  0.6516 -0.5842
 1022MOL0     H37934   4.164   9.621   6.595 -0.2563  1.8883 -2.5265
 1022MOL0     H37935   4.235   9.606   6.448  0.0164 -1.7197 -2.2029
 1022MOL0     H37936   4.116   9.394   6.412  0.1823 -1.0697  1.0601
 1022MOL0     H37937   4.173   9.343   6.581 -1.6833 -2.4562 -1.1634
 1022MOL0     H37938   3.981   9.448   6.661  0.7567 -1.5411 -1.2911
 1022MOL0     H37939   3.940   9.520   6.505 -1.3044  0.8880  1.1749
 1022MOL0     H37940   3.955   9.219   6.568 -0.8325  0.9534  1.9206
 1022MOL0     H37941   3.901   9.287   6.416 -3.1434  0.1649 -0.4325
 1022MOL0     H37942   3.723   9.418   6.503 -0.2439  0.5444  1.8419
 1022MOL0     H37943   3.744   9.342   6.659  0.4946  1.0777  0.3728
 1022MOL0     H37944   3.726   9.157   6.432 -2.7000 -0.5104 -0.9000
 1022MOL0     H37945   3.654   9.129   6.579  3.0184 -0.4076 -0.5358
 1022MOL0     H37946   3.544   9.331   6.361  1.9856  0.4483  0.0669
 1022MOL0     H37947   3.465   9.309   6.523  0.7607  0.5432 -0.2675
 1022MOL0     H37948   3.510   9.072   6.338 -0.8388  0.8420 -0.3787
 1022MOL0     H37949   3.403   9.093   6.480  1.2228 -2.9687 -1.3999
 1022MOL0     H37950   4.545   9.417   6.704  1.0084  0.0776  2.5936
 1022MOL0     H37951   4.726   9.544   6.828  0.8806  1.5054  1.3886
 1022MOL0     H37952   4.747   9.998   7.047 -0.2711 -1.0682 -1.4110
 1022MOL0     H37953   4.869  10.143   7.196  1.3582  0.6903  0.6528
 1022MOL0     H37954   6.253  10.980   6.185 -1.5336 -1.7969  4.1471
 1022MOL0     H37955   6.456  11.059   6.129 -3.4433 -1.0369 -2.6168
 1022MOL0     H37956   6.819  11.125   6.053 -0.8125  0.3291 -2.8445
 1022MOL0     H37957   7.063  11.158   6.021  0.4832  0.6707  0.1195
 1022MOL0     H37958   7.195  11.516   5.948 -0.8180  2.0244  2.0104
 1022MOL0     H37959   7.253  11.341   5.906  2.1198  2.0742 -0.8077
 1022MOL0     H37960   7.425  11.511   5.940 -0.5940  3.9749  2.2169
 1022MOL0     H37961   7.437  11.353   6.037 -1.3467 -0.7561 -0.9355
 1022MOL0     H37962   7.322  11.563   6.200 -0.6502  0.5064 -2.8604
 1022MOL0     H37963   7.446  11.634   6.109  0.3127  0.4524  0.8106
 1022MOL0     H37964   7.565  11.550   6.308  0.1005  2.6653 -2.4817
 1022MOL0     H37965   7.468  11.394   6.283 -3.1346  1.0916 -0.9850
 1022MOL0     H37966   7.809  11.366   6.015  0.7088 -1.0490  1.5610
 1022MOL0     H37967   7.014  11.557   6.149 -0.8268  1.2727 -1.3982
 1022MOL0     H37968   6.824  11.650   6.205  0.3643 -0.1545 -2.5549
 1022MOL0     H37969   6.666  11.573   6.177 -0.8092  3.6721  1.6283
 1022MOL0     H37970   6.754  11.537   6.321  0.1799 -1.6063  0.2487
 1023MOL0     O37971   1.033   2.561  11.039 -0.2032 -0.4610 -0.0582
 1023MOL0     C37972   0.973   2.576  11.147 -0.5258 -0.1976  0.4729
 1023MOL0     O37973   1.027   2.634  11.263 -0.0496  0.2650  0.5424
 1023MOL0     C37974   1.138   2.717  11.265  0.2371  0.3023 -0.4029
 1023MOL0     C37975   1.229   2.735  11.158 -0.2930 -0.0899  1.2214
 1023MOL0     C37976   1.327   2.836  11.160 -0.2768 -0.3417  1.4351
 1023MOL0     C37977   1.347   2.909  11.274 -0.5861 -1.2328  1.2714
 1023MOL0     O37978   1.447   3.013  11.274  0.3516 -0.3028 -0.3877
 1023MOL0     C37979   1.558   3.010  11.182  0.3850 -1.2883  0.1916
 1023MOL0     C37980   1.661   3.111  11.234 -1.2065  0.1435 -0.7668
 1023MOL0     C37981   1.792   3.075  11.163 -0.8387  0.2360  0.5286
 1023MOL0     C37982   1.901   3.173  11.206  0.6294 -0.4525 -0.0040
 1023MOL0     C37983   2.033   3.141  11.136 -0.0674  0.4257 -0.7168
 1023MOL0     C37984   2.137   3.236  11.179 -0.5374  0.0975 -0.3224
 1023MOL0     C37985   2.212   3.215  11.309  0.0659 -0.1412 -0.2277
 1023MOL0     C37986   2.322   3.310  11.348 -0.1786  0.0412  0.2444
 1023MOL0     N37987   2.405   3.352  11.225  0.5790  0.6815  0.0192
 1023MOL0     C37988   2.363   3.447  11.135  0.1223  0.4590 -0.1541
 1023MOL0     C37989   2.463   3.475  11.061 -1.0545  0.3509  0.4134
 1023MOL0     C37990   2.487   3.584  10.963 -0.2652 -0.5527 -0.0036
 1023MOL0     C37991   2.478   3.533  10.823  0.0506 -0.2031  0.7529
 1023MOL0     C37992   2.617   3.457  10.787  0.3779 -0.1846 -0.2444
 1023MOL0     C37993   2.624   3.380  10.654  0.2118  0.4373  0.0609
 1023MOL0     O37994   2.519   3.286  10.659 -0.6170  0.8507  0.1244
 1023MOL0     C37995   2.513   3.194  10.558 -0.6654 -0.3763  0.3935
 1023MOL0     C37996   2.414   3.095  10.556  0.3816 -0.5691  0.2687
 1023MOL0     C37997   2.395   2.997  10.452 -0.5944  0.3176  0.2324
 1023MOL0     C37998   2.490   2.996  10.347 -0.2706  0.2871 -0.2335
 1023MOL0     C37999   2.479   2.881  10.248 -0.6176  0.2646  0.0064
 1023MOL0     O38000   2.442   2.763  10.301 -0.3009  0.3631 -0.0921
 1023MOL0     C38001   2.451   2.658  10.211  0.5898  0.6742  1.0567
 1023MOL0     C38002   2.554   2.568  10.218 -0.4838 -0.3270  0.7204
 1023MOL0     C38003   2.550   2.449  10.141  1.0372 -0.1104 -0.1563
 1023MOL0     C38004   2.433   2.411  10.070 -0.0458 -0.2676 -0.1168
 1023MOL0     O38005   2.419   2.298  10.005  0.3407  0.1246  0.2333
 1023MOL0     C38006   2.519   2.195  10.009  0.2556  0.6075  0.8830
 1023MOL0     C38007   2.472   2.079   9.922  0.0784 -0.5631 -0.2012
 1023MOL0     C38008   2.454   2.114   9.775 -0.3775  0.2455  0.2383
 1023MOL0     C38009   2.586   2.089   9.699  0.2772  0.0413  0.3903
 1023MOL0     C38010   2.694   2.197   9.700 -0.4357  0.8543 -0.0417
 1023MOL0     C38011   2.791   2.177   9.581  0.8614 -0.4364  0.3657
 1023MOL0     C38012   2.909   2.254   9.580 -0.4322  0.0734  0.0051
 1023MOL0     C38013   2.889   2.407   9.559  0.2875  0.2238  0.6541
 1023MOL0    Cl38014   3.000   2.474   9.437 -0.0149 -0.4453 -0.8156
 1023MOL0     C38015   2.326   2.507  10.062  0.0126 -0.0695  0.5247
 1023MOL0     C38016   2.338   2.632  10.134  0.2844 -0.5631 -0.1093
 1023MOL0     O38017   2.521   2.892  10.133  0.1386 -0.4194 -0.5196
 1023MOL0     C38018   2.579   3.104  10.335 -0.3218  0.0876  0.9746
 1023MOL0     C38019   2.592   3.201  10.438 -0.1701 -0.6465  0.5259
 1023MOL0     N38020   2.562   3.380  11.101 -0.5384 -0.4375  0.1806
 1023MOL0     N38021   2.528   3.313  11.207  0.9079 -0.3861  0.2621
 1023MOL0     C38022   1.275   2.873  11.391 -0.2179 -0.9606  0.0114
 1023MOL0     C38023   1.167   2.779  11.382 -0.3706 -0.0844 -0.7001
 1023MOL0     C38024   0.837   2.506  11.155  0.3782 -0.0816  0.4961
 1023MOL0     C38025   0.787   2.481  11.284 -1.2323  0.5096 -1.2684
 1023MOL0     C38026   0.658   2.432  11.309  0.1026  0.1037  0.0376
 1023MOL0     C38027   0.567   2.411  11.201 -0.9973  0.9088 -0.2576
 1023MOL0     O38028   0.437   2.380  11.217  0.0691 -0.1286  0.1629
 1023MOL0     C38029   0.395   2.288  11.312 -0.7373 -0.2828  0.0435
 1023MOL0     C38030   0.304   2.186  11.240  0.4043  0.2467  0.5754
 1023MOL0     C38031   0.360   2.125  11.113 -0.1152 -0.3438 -0.1019
 1023MOL0     C38032   0.260   2.031  11.053  0.5956  0.1496 -0.2398
 1023MOL0     C38033   0.313   1.972  10.930  0.1715  0.7757 -0.4952
 1023MOL0     C38034   0.372   1.924  10.837 -0.0313 -0.1788  0.5232
 1023MOL0     C38035   0.615   2.436  11.070  0.1980 -0.2757  0.4480
 1023MOL0     C38036   0.745   2.478  11.046 -0.5626 -0.3857  0.2999
 1023MOL0     C38037   0.778   2.511  10.902 -0.3278  0.2115 -0.0022
 1023MOL0     H38038   1.237   2.685  11.061  0.1861 -0.2521  1.3436
 1023MOL0     H38039   1.387   2.856  11.072 -0.3300 -2.3215  0.8949
 1023MOL0     H38040   1.606   2.912  11.175  1.2335 -0.8197 -1.0178
 1023MOL0     H38041   1.520   3.042  11.085 -0.7138 -0.1989  0.9532
 1023MOL0     H38042   1.688   3.092  11.338 -1.1152  1.8219 -0.4502
 1023MOL0     H38043   1.620   3.212  11.226 -1.4433  0.2154  0.9892
 1023MOL0     H38044   1.780   3.093  11.056  1.4291 -2.0265 -0.2109
 1023MOL0     H38045   1.819   2.969  11.175  1.4288  0.7718  0.6004
 1023MOL0     H38046   1.866   3.271  11.173  1.6085  0.5983  1.8590
 1023MOL0     H38047   1.913   3.172  11.315 -1.7604  2.0768  0.4098
 1023MOL0     H38048   2.060   3.036  11.152  1.6701  0.8513 -0.6565
 1023MOL0     H38049   2.027   3.153  11.028  3.0673 -1.5533 -1.2205
 1023MOL0     H38050   2.209   3.212  11.100 -1.5479 -0.4619 -1.0996
 1023MOL0     H38051   2.106   3.341  11.180  1.9661  0.8792  0.8627
 1023MOL0     H38052   2.256   3.114  11.313  5.6812  1.6920 -3.8148
 1023MOL0     H38053   2.143   3.231  11.392  0.8642  2.3389  0.0308
 1023MOL0     H38054   2.282   3.398  11.398 -0.4052 -0.2917  0.6543
 1023MOL0     H38055   2.383   3.257  11.422 -1.7514 -1.6034  0.4290
 1023MOL0     H38056   2.271   3.504  11.144 -0.8584 -1.2167  0.9458
 1023MOL0     H38057   2.402   3.652  10.973 -2.0812 -2.6745  0.0276
 1023MOL0     H38058   2.576   3.646  10.974 -1.0210  1.1254 -2.5260
 1023MOL0     H38059   2.399   3.459  10.805  0.4062 -1.3679  3.3584
 1023MOL0     H38060   2.460   3.618  10.758 -1.1217 -0.7454  0.3396
 1023MOL0     H38061   2.655   3.391  10.866  0.7253 -0.8198 -0.9337
 1023MOL0     H38062   2.692   3.536  10.775  1.1515 -0.2273  3.1229
 1023MOL0     H38063   2.723   3.337  10.638 -1.1692 -2.6018 -1.0179
 1023MOL0     H38064   2.607   3.448  10.570  0.6896  0.3752 -0.0899
 1023MOL0     H38065   2.338   3.091  10.633  0.3285  1.5825  0.3824
 1023MOL0     H38066   2.311   2.929  10.451  0.6880 -1.3718 -2.4536
 1023MOL0     H38067   2.635   2.579  10.289  2.3565 -0.9542 -2.1757
 1023MOL0     H38068   2.632   2.379  10.153  1.0578  0.0074  0.4049
 1023MOL0     H38069   2.612   2.232   9.966 -0.5629 -1.3045 -2.9114
 1023MOL0     H38070   2.528   2.146  10.107  0.3734 -2.3907 -0.5191
 1023MOL0     H38071   2.556   2.010   9.925  0.8321  0.3624  0.7570
 1023MOL0     H38072   2.381   2.035   9.964 -0.1775 -1.1700 -1.3629
 1023MOL0     H38073   2.376   2.058   9.723 -1.1303 -0.5618  2.1339
 1023MOL0     H38074   2.431   2.221   9.766 -0.5349  0.4924  2.7523
 1023MOL0     H38075   2.557   2.074   9.594  2.5846 -1.1408 -0.1344
 1023MOL0     H38076   2.637   1.998   9.731  1.8191  2.2693  5.1435
 1023MOL0     H38077   2.753   2.181   9.791  2.2558 -0.6016 -1.8951
 1023MOL0     H38078   2.651   2.297   9.698 -3.0607 -0.1810  0.8299
 1023MOL0     H38079   2.820   2.072   9.577 -1.1612 -1.0131 -2.4321
 1023MOL0     H38080   2.732   2.203   9.492 -1.9219 -1.5396  1.7684
 1023MOL0     H38081   2.975   2.217   9.501 -1.3984  0.6728 -1.1121
 1023MOL0     H38082   2.972   2.253   9.670 -1.3553 -0.2667  0.6532
 1023MOL0     H38083   2.792   2.420   9.509  0.2654  0.4059  0.7424
 1023MOL0     H38084   2.891   2.459   9.656  0.9270  1.6471 -0.0928
 1023MOL0     H38085   2.238   2.462  10.016  0.3879  0.1038 -0.3915
 1023MOL0     H38086   2.250   2.694  10.144 -0.1628 -0.8825 -1.7063
 1023MOL0     H38087   2.653   3.100  10.256 -0.3332 -1.3015  1.0035
 1023MOL0     H38088   2.674   3.272  10.428  0.3981 -0.8896  2.8124
 1023MOL0     H38089   1.303   2.909  11.489  1.1002 -0.7803 -0.4181
 1023MOL0     H38090   1.106   2.766  11.470 -3.4850  1.8765 -2.3758
 1023MOL0     H38091   0.856   2.480  11.368 -1.8802 -0.9567 -0.7296
 1023MOL0     H38092   0.627   2.411  11.411  2.3680  2.4842  1.3405
 1023MOL0     H38093   0.348   2.337  11.398 -0.3513  0.3180 -0.0841
 1023MOL0     H38094   0.479   2.231  11.352 -1.2151 -3.2817 -2.7420
 1023MOL0     H38095   0.212   2.236  11.209 -0.3885 -1.7480 -0.4708
 1023MOL0     H38096   0.266   2.109  11.308 -0.6601 -1.0332 -1.3735
 1023MOL0     H38097   0.457   2.082  11.139 -1.3331 -2.1696  1.6624
 1023MOL0     H38098   0.375   2.208  11.044 -0.0738 -0.0847  0.2153
 1023MOL0     H38099   0.223   1.953  11.120  1.3426 -1.4314 -1.5996
 1023MOL0     H38100   0.168   2.084  11.025 -0.1472 -1.4148 -0.8468
 1023MOL0     H38101   0.409   1.886  10.744  0.0939 -1.1110  0.9446
 1023MOL0     H38102   0.540   2.405  10.998 -1.3243 -2.2999  2.7200
 1023MOL0     H38103   0.800   2.618  10.890 -2.4178  0.8122  0.9695
 1023MOL0     H38104   0.855   2.447  10.858 -0.7009  1.6038 -2.9463
 1023MOL0     H38105   0.682   2.493  10.853 -0.6355 -2.0304  1.2968
 1024MOL0     O38106  11.379   7.394   5.847  0.6235 -0.7934  0.2751
 1024MOL0     C38107  11.448   7.308   5.804 -0.4667 -0.2579  0.6304
 1024MOL0     O38108  11.582   7.317   5.773 -0.3408 -1.2278 -0.1577
 1024MOL0     C38109  11.635   7.429   5.818  0.5951  0.7248 -0.1347
 1024MOL0     C38110  11.656   7.459   5.952 -0.1409 -1.3145 -0.5814
 1024MOL0     C38111  11.721   7.577   5.993  1.4903 -0.1248  0.9060
 1024MOL0     C38112  11.778   7.662   5.896 -0.3185 -0.1308 -0.8960
 1024MOL0     O38113  11.836   7.778   5.953  0.3260 -0.4924 -0.2786
 1024MOL0     C38114  11.886   7.890   5.869 -0.1587 -0.2139  0.1019
 1024MOL0     C38115  11.944   8.005   5.944  0.2867 -0.3525  0.4239
 1024MOL0     C38116  11.855   8.070   6.048  0.2979 -0.1814  0.2948
 1024MOL0     C38117  11.719   8.125   6.003 -0.6586  0.0646  0.4539
 1024MOL0     C38118  11.638   8.168   6.121 -1.0838  0.1423  1.2313
 1024MOL0     C38119  11.576   8.043   6.193 -0.4196 -0.8490  0.4080
 1024MOL0     C38120  11.491   8.096   6.311 -0.3938 -0.0048 -0.7059
 1024MOL0     C38121  11.573   8.126   6.430  1.1071 -0.0186 -0.6387
 1024MOL0     N38122  11.610   8.012   6.509 -0.4700 -0.1403  0.3433
 1024MOL0     C38123  11.530   7.962   6.607 -0.4603 -0.4359 -0.3347
 1024MOL0     C38124  11.590   7.852   6.647 -0.5663  0.4511 -0.3428
 1024MOL0     C38125  11.538   7.766   6.766  0.7159 -0.2433 -0.1561
 1024MOL0     C38126  11.451   7.639   6.727  0.1509  0.3874 -0.2106
 1024MOL0     C38127  11.396   7.564   6.848  0.0743  0.2310  0.8534
 1024MOL0     C38128  11.347   7.427   6.806  0.3700  0.3667  0.0806
 1024MOL0     O38129  11.214   7.418   6.760 -0.2358 -0.7934 -0.4252
 1024MOL0     C38130  11.108   7.384   6.847  0.5990  0.2960 -0.0411
 1024MOL0     C38131  10.987   7.349   6.794  0.3190  0.0523  0.3017
 1024MOL0     C38132  10.885   7.287   6.869  0.2332 -0.2889  0.0449
 1024MOL0     C38133  10.894   7.276   7.006  0.0574  0.3576 -0.4177
 1024MOL0     C38134  10.790   7.215   7.090 -0.0425 -0.5005 -0.4637
 1024MOL0     O38135  10.675   7.192   7.024 -0.2375 -0.2867 -0.0619
 1024MOL0     C38136  10.561   7.180   7.097  0.2778 -0.2916 -0.0175
 1024MOL0     C38137  10.490   7.051   7.096 -0.0846  0.4322 -0.4764
 1024MOL0     C38138  10.378   7.031   7.178  0.0242 -0.6746  0.6675
 1024MOL0     C38139  10.329   7.130   7.262  0.2462  0.1067  0.0076
 1024MOL0     O38140  10.228   7.094   7.347 -0.0436  0.1054 -0.2133
 1024MOL0     C38141  10.151   7.195   7.417  0.4737  0.0973 -0.5921
 1024MOL0     C38142  10.006   7.174   7.367  1.0644  0.0246  0.1168
 1024MOL0     C38143   9.899   7.246   7.455  0.2483 -0.0937  0.0166
 1024MOL0     C38144   9.753   7.192   7.422 -0.8177  0.6219 -0.6558
 1024MOL0     C38145   9.667   7.304   7.469 -0.4857  0.0819 -1.0289
 1024MOL0     C38146   9.522   7.275   7.453 -0.5462 -0.1675  0.3448
 1024MOL0     C38147   9.427   7.397   7.479 -0.7323  0.4053  0.4840
 1024MOL0     C38148   9.283   7.381   7.421 -0.5299 -0.7732 -0.2038
 1024MOL0    Cl38149   9.194   7.532   7.462  0.1710  0.1254 -0.2195
 1024MOL0     C38150  10.391   7.262   7.253 -0.2199  1.1375 -1.0913
 1024MOL0     C38151  10.507   7.282   7.177  0.1681 -0.4350 -0.3711
 1024MOL0     O38152  10.810   7.216   7.209  0.1341 -0.2760 -0.0404
 1024MOL0     C38153  11.019   7.316   7.062  0.6017 -0.0770 -0.4672
 1024MOL0     C38154  11.122   7.372   6.985  0.1044  0.2590  0.1371
 1024MOL0     N38155  11.706   7.835   6.565  0.1790  0.9497 -0.2808
 1024MOL0     N38156  11.724   7.937   6.496 -0.7736  0.4330  0.3471
 1024MOL0     C38157  11.756   7.634   5.762  1.1326 -0.7944  0.0470
 1024MOL0     C38158  11.688   7.516   5.721 -0.1120  0.0490  0.3346
 1024MOL0     C38159  11.384   7.175   5.780 -0.0331  0.4705 -0.2821
 1024MOL0     C38160  11.450   7.086   5.693  0.7192  0.7846  0.6959
 1024MOL0     C38161  11.402   6.959   5.668 -0.5369 -0.3656  0.4070
 1024MOL0     C38162  11.276   6.912   5.713  0.0869  0.4423 -0.1075
 1024MOL0     O38163  11.206   6.797   5.688 -0.2974 -0.6721  0.3265
 1024MOL0     C38164  11.249   6.718   5.576  0.0378 -0.2464  0.0106
 1024MOL0     C38165  11.149   6.598   5.559  1.2079  0.7441  0.3362
 1024MOL0     C38166  11.175   6.488   5.658  0.4080 -0.1986 -0.5714
 1024MOL0     C38167  11.096   6.355   5.636  0.5592 -0.6111  0.4135
 1024MOL0     C38168  10.947   6.376   5.653 -0.5370 -0.0262  0.4560
 1024MOL0     C38169  10.830   6.384   5.654  0.4760 -0.3210 -0.2179
 1024MOL0     C38170  11.208   6.998   5.798  0.5736 -0.2185 -0.4011
 1024MOL0     C38171  11.265   7.126   5.847 -0.8120 -0.2824  0.0614
 1024MOL0     C38172  11.194   7.208   5.958 -0.0689  0.0006 -0.4643
 1024MOL0     H38173  11.622   7.403   6.039  2.4955  1.7569  2.7403
 1024MOL0     H38174  11.744   7.580   6.099 -3.0590  0.7306  2.0719
 1024MOL0     H38175  11.962   7.842   5.807 -0.8636 -1.0441 -0.1297
 1024MOL0     H38176  11.809   7.929   5.802  0.3683  3.0889  1.2211
 1024MOL0     H38177  11.985   8.076   5.872  0.6829  0.7718  1.7173
 1024MOL0     H38178  12.026   7.963   6.004  1.9075  0.2548 -1.2756
 1024MOL0     H38179  11.896   8.167   6.077 -3.0338  1.8050 -1.1083
 1024MOL0     H38180  11.835   8.000   6.129  1.0860 -0.8827 -0.0953
 1024MOL0     H38181  11.747   8.211   5.942  0.9512 -0.5135  0.3285
 1024MOL0     H38182  11.661   8.059   5.938 -2.1820  1.9148 -0.1684
 1024MOL0     H38183  11.693   8.234   6.189 -0.8242 -0.6806  1.8336
 1024MOL0     H38184  11.557   8.229   6.081 -0.2881 -1.0444 -2.6190
 1024MOL0     H38185  11.500   7.992   6.133 -0.7605 -0.4437  0.4975
 1024MOL0     H38186  11.659   7.979   6.226  0.9933  1.2256  1.0377
 1024MOL0     H38187  11.426   8.011   6.333  2.1113 -2.4043 -1.8397
 1024MOL0     H38188  11.429   8.182   6.286 -2.7682 -1.0749  1.1486
 1024MOL0     H38189  11.658   8.193   6.417  1.4650  0.2617  2.3893
 1024MOL0     H38190  11.504   8.184   6.491  0.5058  1.3210 -2.5152
 1024MOL0     H38191  11.431   7.993   6.640 -0.5277  1.8200 -2.4161
 1024MOL0     H38192  11.620   7.736   6.831 -1.0261 -0.4336  2.1033
 1024MOL0     H38193  11.485   7.841   6.825  0.6670  0.9333 -1.6200
 1024MOL0     H38194  11.363   7.674   6.672 -0.1112  2.7787  1.5225
 1024MOL0     H38195  11.527   7.580   6.676  2.4381  1.6811  1.4940
 1024MOL0     H38196  11.320   7.631   6.890  2.2642  4.0517 -0.7681
 1024MOL0     H38197  11.476   7.546   6.920  0.8155 -0.1191 -0.0408
 1024MOL0     H38198  11.385   7.351   6.875  1.8204 -1.1716 -2.3080
 1024MOL0     H38199  11.405   7.390   6.721 -0.6225 -1.5075  0.1874
 1024MOL0     H38200  10.967   7.370   6.690 -0.0237 -2.2967 -0.1750
 1024MOL0     H38201  10.797   7.261   6.811  0.0060 -1.1960  0.7904
 1024MOL0     H38202  10.537   6.967   7.045 -2.9024  0.6982 -3.9687
 1024MOL0     H38203  10.329   6.934   7.177 -0.9979 -0.1611 -0.6155
 1024MOL0     H38204  10.152   7.176   7.525 -0.5852 -2.7733 -0.9788
 1024MOL0     H38205  10.169   7.300   7.394 -6.2286  2.0660  0.7545
 1024MOL0     H38206   9.989   7.199   7.262  0.6499 -1.4823 -0.2019
 1024MOL0     H38207   9.977   7.069   7.380 -0.3859  0.3984  0.1225
 1024MOL0     H38208   9.918   7.219   7.560 -1.3119  1.8078  0.8489
 1024MOL0     H38209   9.899   7.353   7.429 -1.5727 -0.8971 -4.0768
 1024MOL0     H38210   9.733   7.096   7.471  1.6569 -0.1834 -1.1040
 1024MOL0     H38211   9.736   7.172   7.316  1.0164  0.1301 -0.8756
 1024MOL0     H38212   9.693   7.405   7.434 -2.6034 -0.0712 -3.2589
 1024MOL0     H38213   9.680   7.300   7.578  2.4453  0.6087 -1.2709
 1024MOL0     H38214   9.511   7.243   7.349  3.1835 -2.8964  0.5855
 1024MOL0     H38215   9.485   7.197   7.520 -0.8030  1.1852  1.8399
 1024MOL0     H38216   9.479   7.475   7.423  1.2021  1.1477  3.0973
 1024MOL0     H38217   9.419   7.428   7.584 -2.4572 -1.3401  0.9434
 1024MOL0     H38218   9.288   7.359   7.314  3.7771  0.0525 -0.3779
 1024MOL0     H38219   9.239   7.292   7.466 -3.7037 -0.2266 -1.9400
 1024MOL0     H38220  10.360   7.334   7.328 -1.4907 -2.2604  1.9647
 1024MOL0     H38221  10.560   7.375   7.190 -1.8092  0.9603 -1.6936
 1024MOL0     H38222  11.032   7.291   7.167  0.8355 -2.9177 -1.0828
 1024MOL0     H38223  11.218   7.394   7.032  1.2787 -0.6294 -1.7287
 1024MOL0     H38224  11.776   7.704   5.681  2.2603 -1.4209 -0.2354
 1024MOL0     H38225  11.656   7.489   5.621  0.1716 -2.7747  0.9201
 1024MOL0     H38226  11.545   7.111   5.648  1.2167 -1.7792  0.1351
 1024MOL0     H38227  11.464   6.892   5.610 -1.3829 -0.0825 -0.8674
 1024MOL0     H38228  11.351   6.679   5.583 -0.9787 -3.7224 -2.0852
 1024MOL0     H38229  11.246   6.780   5.486 -1.1477 -1.3505 -0.7477
 1024MOL0     H38230  11.164   6.568   5.455 -2.5687  2.9013 -1.0323
 1024MOL0     H38231  11.045   6.632   5.564  0.4940 -1.2951  0.2901
 1024MOL0     H38232  11.149   6.533   5.754 -1.7755  0.8255 -1.5775
 1024MOL0     H38233  11.282   6.469   5.661  0.6313  1.0582  0.0487
 1024MOL0     H38234  11.115   6.309   5.538 -0.9463 -0.7984  0.1875
 1024MOL0     H38235  11.134   6.289   5.715 -0.7107  3.1260  4.5350
 1024MOL0     H38236  10.723   6.373   5.652  0.4078 -0.6018 -4.6061
 1024MOL0     H38237  11.110   6.960   5.823  0.0399 -0.5114 -2.6938
 1024MOL0     H38238  11.121   7.148   6.012 -0.4846  0.3856 -0.5958
 1024MOL0     H38239  11.277   7.239   6.023  0.8371 -1.2194 -0.9888
 1024MOL0     H38240  11.154   7.299   5.911 -2.4359 -0.3654  0.6856
  11.44363  11.44363  11.44363
